Protein in INSANE! Membrane UpperLeaflet>POPC=1.0 LowerLeaflet>POPC=1.0
239342
   85AUC    AUC    1  44.055  12.292   7.503
   86AUC    AUC    2  44.300  12.292   7.351
   87AUC    AUC    3  44.300  12.292   7.654
   88AUC    AUC    4  43.810  12.292   7.351
   89AUC    AUC    5  43.810  12.292   7.654
   90AUC    AUC    6  43.903  12.538   7.503
   91AUC    AUC    7  44.207  12.538   7.503
   92AUC    AUC    8  43.903  12.047   7.503
   93AUC    AUC    9  44.207  12.047   7.503
   94AUC    AUC   10  44.055  12.141   7.748
   95AUC    AUC   11  44.055  12.444   7.748
   96AUC    AUC   12  44.055  12.141   7.257
   97AUC    AUC   13  44.055  12.444   7.257
   98AUC    AUC   14  44.546  12.292   7.199
   99AUC    AUC   15  44.546  12.292   7.503
  100AUC    AUC   16  44.546  12.292   7.806
  101AUC    AUC   17  43.564  12.292   7.199
  102AUC    AUC   18  43.564  12.292   7.503
  103AUC    AUC   19  43.564  12.292   7.806
  104AUC    AUC   20  43.752  12.783   7.503
  105AUC    AUC   21  44.055  12.783   7.503
  106AUC    AUC   22  44.358  12.783   7.503
  107AUC    AUC   23  43.752  11.802   7.503
  108AUC    AUC   24  44.055  11.802   7.503
  109AUC    AUC   25  44.358  11.802   7.503
  110AUC    AUC   26  44.055  11.989   7.993
  111AUC    AUC   27  44.055  12.292   7.993
  112AUC    AUC   28  44.055  12.596   7.993
  113AUC    AUC   29  44.055  11.989   7.012
  114AUC    AUC   30  44.055  12.292   7.012
  115AUC    AUC   31  44.055  12.596   7.012
  116AUC    AUC   32  44.300  12.141   7.900
  117AUC    AUC   33  44.300  12.444   7.900
  118AUC    AUC   34  44.300  12.141   7.106
  119AUC    AUC   35  44.300  12.444   7.106
  120AUC    AUC   36  43.810  12.141   7.900
  121AUC    AUC   37  43.810  12.444   7.900
  122AUC    AUC   38  43.810  12.141   7.106
  123AUC    AUC   39  43.810  12.444   7.106
  124AUC    AUC   40  44.452  12.538   7.351
  125AUC    AUC   41  44.452  12.538   7.654
  126AUC    AUC   42  43.658  12.538   7.351
  127AUC    AUC   43  43.658  12.538   7.654
  128AUC    AUC   44  44.452  12.047   7.351
  129AUC    AUC   45  44.452  12.047   7.654
  130AUC    AUC   46  43.658  12.047   7.351
  131AUC    AUC   47  43.658  12.047   7.654
  132AUC    AUC   48  43.903  12.690   7.748
  133AUC    AUC   49  44.207  12.690   7.748
  134AUC    AUC   50  43.903  11.895   7.748
  135AUC    AUC   51  44.207  11.895   7.748
  136AUC    AUC   52  43.903  12.690   7.257
  137AUC    AUC   53  44.207  12.690   7.257
  138AUC    AUC   54  43.903  11.895   7.257
  139AUC    AUC   55  44.207  11.895   7.257
  140AUSL   AUS   56  44.464  12.292   8.083
  141AUSL   AUS   57  44.320  11.876   8.013
  142AUL    AUL   58  44.546  11.989   8.297
  143THSLK    S   59  44.430  11.689   8.153
  144ETHY    C1   60  44.466  11.290   8.368
  145ETHY    C1   61  44.576  10.860   8.665
  146ETHY    C1   62  44.754  10.496   9.000
  147ETHY    C1   63  44.988  10.200   9.364
  148ETHY    C1   64  45.274   9.983   9.752
  149ETHY    C1   65  45.605   9.850  10.156
  150THSLK    S   66  44.557  12.240   8.324
  151ETHY    C1   67  44.761  12.020   8.665
  152ETHY    C1   68  45.025  11.843   9.094
  153ETHY    C1   69  45.301  11.767   9.535
  154ETHY    C1   70  45.578  11.784   9.980
  155ETHY    C1   71  45.848  11.897  10.419
  156ETHY    C1   72  46.107  12.106  10.845
  157AUSL   AUS   73  44.219  12.141   8.176
  158AUSL   AUS   74  43.891  12.444   8.176
  159AUL    AUL   75  44.055  12.292   8.484
  160THSLK    S   76  44.294  12.086   8.413
  161ETHY    C1   77  44.358  11.806   8.765
  162ETHY    C1   78  44.461  11.551   9.223
  163ETHY    C1   79  44.588  11.392   9.708
  164ETHY    C1   80  44.730  11.323  10.208
  165ETHY    C1   81  44.884  11.351  10.713
  166ETHY    C1   82  45.044  11.475  11.212
  167THSLK    S   83  43.806  12.398   8.428
  168ETHY    C1   84  43.732  12.248   8.850
  169ETHY    C1   85  43.627  12.160   9.367
  170ETHY    C1   86  43.505  12.172   9.878
  171ETHY    C1   87  43.367  12.273  10.373
  172ETHY    C1   88  43.212  12.466  10.840
  173ETHY    C1   89  43.043  12.747  11.268
  174AUSL   AUS   90  44.219  12.444   8.176
  175AUSL   AUS   91  44.565  12.557   7.919
  176AUL    AUL   92  44.546  12.596   8.297
  177THSLK    S   93  44.304  12.500   8.410
  178ETHY    C1   94  44.378  12.781   8.759
  179ETHY    C1   95  44.483  13.036   9.217
  180ETHY    C1   96  44.605  13.195   9.703
  181ETHY    C1   97  44.744  13.264  10.204
  182ETHY    C1   98  44.898  13.237  10.708
  183ETHY    C1   99  45.067  13.113  11.206
  184THSLK    S  100  44.737  12.655   8.080
  185ETHY    C1  101  45.100  12.626   8.350
  186ETHY    C1  102  45.522  12.682   8.673
  187ETHY    C1  103  45.914  12.836   8.989
  188ETHY    C1  104  46.268  13.074   9.293
  189ETHY    C1  105  46.575  13.395   9.580
  190ETHY    C1  106  46.826  13.792   9.844
  191AUSL   AUS  107  44.464  12.292   6.923
  192AUSL   AUS  108  44.320  12.709   6.992
  193AUL    AUL  109  44.546  12.596   6.708
  194THSLK    S  110  44.566  12.240   6.687
  195ETHY    C1  111  44.779  12.020   6.351
  196ETHY    C1  112  45.044  11.843   5.923
  197ETHY    C1  113  45.316  11.767   5.479
  198ETHY    C1  114  45.590  11.784   5.033
  199ETHY    C1  115  45.861  11.897   4.594
  200ETHY    C1  116  46.126  12.106   4.173
  201THSLK    S  117  44.498  12.820   6.829
  202ETHY    C1  118  44.800  12.888   6.497
  203ETHY    C1  119  45.119  13.051   6.100
  204ETHY    C1  120  45.384  13.298   5.719
  205ETHY    C1  121  45.596  13.618   5.362
  206ETHY    C1  122  45.749  14.008   5.039
  207ETHY    C1  123  45.840  14.460   4.759
  208AUSL   AUS  124  44.219  12.141   6.829
  209AUSL   AUS  125  44.565  12.028   7.086
  210AUL    AUL  126  44.546  11.989   6.708
  211THSLK    S  127  44.698  11.836   6.949
  212ETHY    C1  128  44.881  11.469   6.752
  213ETHY    C1  129  45.153  11.097   6.483
  214ETHY    C1  130  45.478  10.808   6.186
  215ETHY    C1  131  45.844  10.601   5.874
  216ETHY    C1  132  46.248  10.482   5.555
  217ETHY    C1  133  46.681  10.457   5.235
  218THSLK    S  134  44.304  12.085   6.596
  219ETHY    C1  135  44.378  11.804   6.246
  220ETHY    C1  136  44.483  11.548   5.788
  221ETHY    C1  137  44.605  11.390   5.302
  222ETHY    C1  138  44.744  11.321   4.801
  223ETHY    C1  139  44.898  11.348   4.297
  224ETHY    C1  140  45.067  11.472   3.799
  225AUSL   AUS  141  44.219  12.444   6.829
  226AUSL   AUS  142  43.891  12.141   6.829
  227AUL    AUL  143  44.055  12.292   6.521
  228THSLK    S  144  43.799  12.085   6.597
  229ETHY    C1  145  43.664  11.807   6.264
  230ETHY    C1  146  43.503  11.554   5.822
  231ETHY    C1  147  43.351  11.397   5.343
  232ETHY    C1  148  43.215  11.328   4.842
  233ETHY    C1  149  43.098  11.354   4.328
  234ETHY    C1  150  43.005  11.473   3.810
  235THSLK    S  151  44.321  12.398   6.583
  236ETHY    C1  152  44.467  12.248   6.179
  237ETHY    C1  153  44.629  12.157   5.678
  238ETHY    C1  154  44.776  12.167   5.173
  239ETHY    C1  155  44.909  12.268   4.677
  240ETHY    C1  156  45.026  12.463   4.200
  241ETHY    C1  157  45.127  12.749   3.754
  242AUSL   AUS  158  43.646  12.292   8.083
  243AUSL   AUS  159  43.790  12.709   8.013
  244AUL    AUL  160  43.564  12.596   8.297
  245THSLK    S  161  43.544  12.240   8.319
  246ETHY    C1  162  43.332  12.020   8.654
  247ETHY    C1  163  43.066  11.843   9.082
  248ETHY    C1  164  42.794  11.767   9.526
  249ETHY    C1  165  42.520  11.784   9.973
  250ETHY    C1  166  42.249  11.897  10.411
  251ETHY    C1  167  41.984  12.106  10.832
  252THSLK    S  168  43.673  12.833   8.202
  253ETHY    C1  169  43.630  12.976   8.632
  254ETHY    C1  170  43.519  13.201   9.104
  255ETHY    C1  171  43.343  13.478   9.515
  256ETHY    C1  172  43.112  13.794   9.863
  257ETHY    C1  173  42.826  14.142  10.138
  258ETHY    C1  174  42.489  14.515  10.334
  259AUSL   AUS  175  43.891  12.141   8.176
  260AUSL   AUS  176  43.545  12.028   7.919
  261AUL    AUL  177  43.564  11.989   8.297
  262THSLK    S  178  43.368  11.865   8.026
  263ETHY    C1  179  42.997  11.608   8.082
  264ETHY    C1  180  42.575  11.320   8.237
  265ETHY    C1  181  42.185  11.065   8.482
  266ETHY    C1  182  41.833  10.848   8.803
  267ETHY    C1  183  41.527  10.677   9.198
  268ETHY    C1  184  41.270  10.556   9.657
  269THSLK    S  185  43.789  12.087   8.406
  270ETHY    C1  186  43.643  11.811   8.736
  271ETHY    C1  187  43.481  11.559   9.178
  272ETHY    C1  188  43.334  11.401   9.658
  273ETHY    C1  189  43.201  11.331  10.160
  274ETHY    C1  190  43.084  11.357  10.674
  275ETHY    C1  191  42.983  11.478  11.190
  276AUSL   AUS  192  43.646  12.292   6.923
  277AUSL   AUS  193  43.790  11.876   6.992
  278AUL    AUL  194  43.564  11.989   6.708
  279THSLK    S  195  43.553  12.240   6.681
  280ETHY    C1  196  43.349  12.020   6.341
  281ETHY    C1  197  43.085  11.843   5.911
  282ETHY    C1  198  42.809  11.767   5.470
  283ETHY    C1  199  42.532  11.784   5.025
  284ETHY    C1  200  42.262  11.897   4.586
  285ETHY    C1  201  42.003  12.106   4.161
  286THSLK    S  202  43.619  11.703   6.878
  287ETHY    C1  203  43.324  11.377   6.760
  288ETHY    C1  204  43.006  11.010   6.538
  289ETHY    C1  205  42.738  10.675   6.233
  290ETHY    C1  206  42.524  10.375   5.861
  291ETHY    C1  207  42.372  10.117   5.426
  292ETHY    C1  208  42.286   9.905   4.937
  293AUSL   AUS  209  43.891  12.444   6.829
  294AUSL   AUS  210  43.545  12.557   7.086
  295AUL    AUL  211  43.564  12.596   6.708
  296THSLK    S  212  43.418  12.684   6.895
  297ETHY    C1  213  43.241  12.765   6.484
  298ETHY    C1  214  42.970  12.905   6.046
  299ETHY    C1  215  42.643  13.093   5.679
  300ETHY    C1  216  42.274  13.322   5.385
  301ETHY    C1  217  41.872  13.589   5.173
  302ETHY    C1  218  41.443  13.891   5.047
  303THSLK    S  219  43.816  12.400   6.576
  304ETHY    C1  220  43.752  12.253   6.150
  305ETHY    C1  221  43.649  12.164   5.634
  306ETHY    C1  222  43.522  12.175   5.123
  307ETHY    C1  223  43.380  12.276   4.629
  308ETHY    C1  224  43.227  12.469   4.162
  309ETHY    C1  225  43.066  12.752   3.732
  310AUSL   AUS  226  44.635  12.701   7.503
  311AUSL   AUS  227  44.565  12.557   7.086
  312AUL    AUL  228  44.849  12.783   7.199
  313THSLK    S  229  44.743  12.656   6.934
  314ETHY    C1  230  45.113  12.629   6.671
  315ETHY    C1  231  45.535  12.685   6.349
  316ETHY    C1  232  45.925  12.839   6.030
  317ETHY    C1  233  46.277  13.076   5.724
  318ETHY    C1  234  46.584  13.397   5.438
  319ETHY    C1  235  46.840  13.796   5.179
  320THSLK    S  236  44.901  12.754   7.508
  321ETHY    C1  237  45.355  12.776   7.513
  322ETHY    C1  238  45.877  12.890   7.514
  323ETHY    C1  239  46.360  13.099   7.511
  324ETHY    C1  240  46.796  13.389   7.510
  325ETHY    C1  241  47.175  13.756   7.510
  326ETHY    C1  242  47.489  14.196   7.514
  327AUSL   AUS  243  44.729  12.456   7.351
  328AUSL   AUS  244  44.729  12.129   7.654
  329AUL    AUL  245  45.037  12.292   7.503
  330THSLK    S  246  44.985  12.495   7.350
  331ETHY    C1  247  45.421  12.387   7.286
  332ETHY    C1  248  45.947  12.349   7.201
  333ETHY    C1  249  46.462  12.413   7.113
  334ETHY    C1  250  46.956  12.567   7.026
  335ETHY    C1  251  47.416  12.812   6.945
  336ETHY    C1  252  47.835  13.144   6.873
  337THSLK    S  253  44.956  11.989   7.663
  338ETHY    C1  254  45.275  11.673   7.728
  339ETHY    C1  255  45.708  11.369   7.807
  340ETHY    C1  256  46.183  11.159   7.887
  341ETHY    C1  257  46.686  11.038   7.971
  342ETHY    C1  258  47.206  11.012   8.058
  343ETHY    C1  259  47.734  11.082   8.147
  344AUSL   AUS  260  44.729  12.456   7.654
  345AUSL   AUS  261  44.471  12.803   7.767
  346AUL    AUL  262  44.849  12.783   7.806
  347THSLK    S  263  44.654  12.917   7.926
  348ETHY    C1  264  45.037  13.035   8.140
  349ETHY    C1  265  45.455  13.258   8.388
  350ETHY    C1  266  45.814  13.563   8.622
  351ETHY    C1  267  46.111  13.936   8.840
  352ETHY    C1  268  46.336  14.370   9.038
  353ETHY    C1  269  46.483  14.858   9.215
  354THSLK    S  270  44.983  12.495   7.665
  355ETHY    C1  271  45.418  12.387   7.740
  356ETHY    C1  272  45.944  12.349   7.826
  357ETHY    C1  273  46.459  12.412   7.910
  358ETHY    C1  274  46.953  12.566   7.993
  359ETHY    C1  275  47.414  12.811   8.075
  360ETHY    C1  276  47.831  13.143   8.155
  361AUSL   AUS  277  43.475  12.701   7.503
  362AUSL   AUS  278  43.545  12.557   7.919
  363AUL    AUL  279  43.261  12.783   7.806
  364THSLK    S  280  43.412  12.676   8.109
  365ETHY    C1  281  43.229  12.748   8.519
  366ETHY    C1  282  42.957  12.888   8.957
  367ETHY    C1  283  42.632  13.079   9.324
  368ETHY    C1  284  42.266  13.310   9.619
  369ETHY    C1  285  41.863  13.577   9.831
  370ETHY    C1  286  41.429  13.873   9.956
  371THSLK    S  287  43.264  12.842   7.508
  372ETHY    C1  288  43.042  13.239   7.513
  373ETHY    C1  289  42.706  13.654   7.514
  374ETHY    C1  290  42.303  13.993   7.511
  375ETHY    C1  291  41.849  14.254   7.510
  376ETHY    C1  292  41.350  14.428   7.510
  377ETHY    C1  293  40.817  14.512   7.514
  378AUSL   AUS  294  43.381  12.456   7.351
  379AUSL   AUS  295  43.639  12.803   7.238
  380AUL    AUL  296  43.261  12.783   7.199
  381THSLK    S  297  43.154  12.571   7.303
  382ETHY    C1  298  42.835  12.771   7.049
  383ETHY    C1  299  42.402  12.977   6.813
  384ETHY    C1  300  41.927  13.143   6.661
  385ETHY    C1  301  41.424  13.272   6.590
  386ETHY    C1  302  40.904  13.362   6.605
  387ETHY    C1  303  40.376  13.410   6.708
  388THSLK    S  304  43.527  12.966   7.060
  389ETHY    C1  305  43.448  13.276   6.737
  390ETHY    C1  306  43.273  13.650   6.397
  391ETHY    C1  307  43.019  14.018   6.120
  392ETHY    C1  308  42.699  14.375   5.909
  393ETHY    C1  309  42.318  14.713   5.770
  394ETHY    C1  310  41.883  15.027   5.709
  395AUSL   AUS  311  43.381  12.456   7.654
  396AUSL   AUS  312  43.381  12.129   7.351
  397AUL    AUL  313  43.073  12.292   7.503
  398THSLK    S  314  43.127  12.056   7.394
  399ETHY    C1  315  42.692  12.038   7.524
  400ETHY    C1  316  42.166  11.978   7.597
  401ETHY    C1  317  41.651  11.874   7.578
  402ETHY    C1  318  41.157  11.731   7.477
  403ETHY    C1  319  40.697  11.548   7.294
  404ETHY    C1  320  40.279  11.328   7.034
  405THSLK    S  321  43.153  12.562   7.707
  406ETHY    C1  322  42.832  12.753   7.966
  407ETHY    C1  323  42.399  12.957   8.202
  408ETHY    C1  324  41.924  13.128   8.352
  409ETHY    C1  325  41.422  13.260   8.422
  410ETHY    C1  326  40.902  13.348   8.407
  411ETHY    C1  327  40.373  13.389   8.308
  412AUSL   AUS  328  44.635  11.883   7.503
  413AUSL   AUS  329  44.565  12.028   7.919
  414AUL    AUL  330  44.849  11.802   7.806
  415THSLK    S  331  44.846  11.742   7.508
  416ETHY    C1  332  45.068  11.346   7.513
  417ETHY    C1  333  45.404  10.931   7.514
  418ETHY    C1  334  45.807  10.592   7.511
  419ETHY    C1  335  46.261  10.331   7.510
  420ETHY    C1  336  46.760  10.157   7.510
  421ETHY    C1  337  47.293  10.073   7.514
  422THSLK    S  338  44.692  11.837   8.064
  423ETHY    C1  339  44.869  11.472   8.270
  424ETHY    C1  340  45.140  11.100   8.540
  425ETHY    C1  341  45.467  10.811   8.834
  426ETHY    C1  342  45.836  10.603   9.142
  427ETHY    C1  343  46.238  10.485   9.462
  428ETHY    C1  344  46.667  10.460   9.789
  429AUSL   AUS  345  44.729  12.129   7.351
  430AUSL   AUS  346  44.471  11.782   7.238
  431AUL    AUL  347  44.849  11.802   7.199
  432THSLK    S  348  44.957  11.989   7.353
  433ETHY    C1  349  45.278  11.672   7.298
  434ETHY    C1  350  45.711  11.369   7.221
  435ETHY    C1  351  46.186  11.159   7.136
  436ETHY    C1  352  46.688  11.038   7.048
  437ETHY    C1  353  47.208  11.011   6.963
  438ETHY    C1  354  47.737  11.082   6.881
  439THSLK    S  355  44.587  11.593   7.108
  440ETHY    C1  356  44.671  11.164   6.984
  441ETHY    C1  357  44.846  10.692   6.803
  442ETHY    C1  358  45.099  10.281   6.593
  443ETHY    C1  359  45.417   9.933   6.366
  444ETHY    C1  360  45.799   9.658   6.126
  445ETHY    C1  361  46.237   9.461   5.880
  446AUSL   AUS  362  43.475  11.883   7.503
  447AUSL   AUS  363  43.545  12.028   7.086
  448AUL    AUL  364  43.261  11.802   7.199
  449THSLK    S  365  43.374  11.857   6.978
  450ETHY    C1  366  43.010  11.592   6.921
  451ETHY    C1  367  42.588  11.302   6.766
  452ETHY    C1  368  42.196  11.050   6.521
  453ETHY    C1  369  41.842  10.837   6.200
  454ETHY    C1  370  41.535  10.664   5.806
  455ETHY    C1  371  41.284  10.537   5.346
  456THSLK    S  372  43.209  11.831   7.508
  457ETHY    C1  373  42.755  11.809   7.513
  458ETHY    C1  374  42.233  11.695   7.514
  459ETHY    C1  375  41.751  11.486   7.511
  460ETHY    C1  376  41.314  11.196   7.510
  461ETHY    C1  377  40.935  10.829   7.510
  462ETHY    C1  378  40.622  10.389   7.514
  463AUSL   AUS  379  43.381  12.129   7.654
  464AUSL   AUS  380  43.639  11.782   7.767
  465AUL    AUL  381  43.261  11.802   7.806
  466THSLK    S  382  43.451  11.642   7.878
  467ETHY    C1  383  43.064  11.405   7.893
  468ETHY    C1  384  42.646  11.085   7.982
  469ETHY    C1  385  42.288  10.736   8.149
  470ETHY    C1  386  41.993  10.372   8.382
  471ETHY    C1  387  41.768  10.001   8.683
  472ETHY    C1  388  41.617   9.630   9.045
  473THSLK    S  389  43.125  12.066   7.616
  474ETHY    C1  390  42.689  12.056   7.491
  475ETHY    C1  391  42.163  11.997   7.419
  476ETHY    C1  392  41.648  11.890   7.436
  477ETHY    C1  393  41.154  11.744   7.535
  478ETHY    C1  394  40.694  11.562   7.718
  479ETHY    C1  395  40.275  11.349   7.983
  480AUSL   AUS  396  44.055  12.872   7.912
  481AUSL   AUS  397  43.639  12.803   7.767
  482AUL    AUL  398  43.752  13.087   7.993
  483THSLK    S  399  43.523  12.959   7.952
  484ETHY    C1  400  43.439  13.261   8.280
  485ETHY    C1  401  43.264  13.634   8.621
  486ETHY    C1  402  43.011  14.005   8.895
  487ETHY    C1  403  42.693  14.364   9.105
  488ETHY    C1  404  42.311  14.702   9.244
  489ETHY    C1  405  41.873  15.010   9.309
  490THSLK    S  406  44.097  13.094   8.035
  491ETHY    C1  407  44.281  13.369   8.347
  492ETHY    C1  408  44.431  13.749   8.691
  493ETHY    C1  409  44.497  14.172   8.998
  494ETHY    C1  410  44.484  14.623   9.264
  495ETHY    C1  411  44.387  15.092   9.485
  496ETHY    C1  412  44.207  15.571   9.656
  497AUSL   AUS  413  43.903  12.966   7.666
  498AUSL   AUS  414  44.207  12.966   7.339
  499AUL    AUL  415  44.055  13.274   7.503
  500THSLK    S  416  43.946  13.210   7.776
  501ETHY    C1  417  44.090  13.604   7.951
  502ETHY    C1  418  44.177  14.098   8.137
  503ETHY    C1  419  44.165  14.599   8.294
  504ETHY    C1  420  44.064  15.097   8.425
  505ETHY    C1  421  43.872  15.578   8.527
  506ETHY    C1  422  43.592  16.033   8.600
  507THSLK    S  423  44.262  13.197   7.243
  508ETHY    C1  424  44.538  13.527   7.096
  509ETHY    C1  425  44.788  13.968   6.927
  510ETHY    C1  426  44.944  14.445   6.771
  511ETHY    C1  427  45.013  14.947   6.635
  512ETHY    C1  428  44.989  15.463   6.525
  513ETHY    C1  429  44.872  15.983   6.443
  514AUSL   AUS  430  44.207  12.966   7.666
  515AUSL   AUS  431  44.320  12.709   8.013
  516AUL    AUL  432  44.358  13.087   7.993
  517THSLK    S  433  44.491  12.817   8.183
  518ETHY    C1  434  44.786  12.882   8.523
  519ETHY    C1  435  45.104  13.044   8.920
  520ETHY    C1  436  45.372  13.293   9.298
  521ETHY    C1  437  45.586  13.615   9.653
  522ETHY    C1  438  45.738  14.003   9.976
  523ETHY    C1  439  45.824  14.453  10.262
  524THSLK    S  440  44.260  13.195   7.772
  525ETHY    C1  441  44.532  13.523   7.929
  526ETHY    C1  442  44.782  13.963   8.100
  527ETHY    C1  443  44.940  14.442   8.251
  528ETHY    C1  444  45.009  14.944   8.383
  529ETHY    C1  445  44.985  15.459   8.494
  530ETHY    C1  446  44.866  15.978   8.585
  531AUSL   AUS  447  44.055  11.712   7.912
  532AUSL   AUS  448  44.471  11.782   7.767
  533AUL    AUL  449  44.358  11.498   7.993
  534THSLK    S  450  44.008  11.462   7.989
  535ETHY    C1  451  43.818  11.066   8.103
  536ETHY    C1  452  43.667  10.588   8.289
  537ETHY    C1  453  43.604  10.123   8.528
  538ETHY    C1  454  43.619   9.681   8.809
  539ETHY    C1  455  43.715   9.274   9.132
  540ETHY    C1  456  43.890   8.911   9.489
  541THSLK    S  457  44.583  11.595   7.907
  542ETHY    C1  458  44.662  11.167   8.040
  543ETHY    C1  459  44.837  10.697   8.222
  544ETHY    C1  460  45.091  10.285   8.428
  545ETHY    C1  461  45.411   9.936   8.652
  546ETHY    C1  462  45.792   9.661   8.893
  547ETHY    C1  463  46.227   9.465   9.147
  548AUSL   AUS  464  43.903  11.619   7.666
  549AUSL   AUS  465  43.790  11.876   8.013
  550AUL    AUL  466  43.752  11.498   7.993
  551THSLK    S  467  43.848  11.383   7.745
  552ETHY    C1  468  43.573  11.024   7.788
  553ETHY    C1  469  43.322  10.559   7.869
  554ETHY    C1  470  43.166  10.069   7.981
  555ETHY    C1  471  43.097   9.570   8.122
  556ETHY    C1  472  43.121   9.070   8.292
  557ETHY    C1  473  43.238   8.582   8.489
  558THSLK    S  474  43.612  11.710   8.129
  559ETHY    C1  475  43.310  11.392   8.248
  560ETHY    C1  476  42.991  11.025   8.471
  561ETHY    C1  477  42.726  10.688   8.776
  562ETHY    C1  478  42.514  10.386   9.147
  563ETHY    C1  479  42.361  10.128   9.582
  564ETHY    C1  480  42.270   9.921  10.072
  565AUSL   AUS  481  44.207  11.619   7.666
  566AUSL   AUS  482  43.903  11.619   7.339
  567AUL    AUL  483  44.055  11.311   7.503
  568THSLK    S  484  43.850  11.380   7.270
  569ETHY    C1  485  43.578  11.018   7.236
  570ETHY    C1  486  43.328  10.553   7.157
  571ETHY    C1  487  43.171  10.064   7.041
  572ETHY    C1  488  43.101   9.565   6.896
  573ETHY    C1  489  43.125   9.066   6.727
  574ETHY    C1  490  43.244   8.575   6.538
  575THSLK    S  491  44.161  11.367   7.749
  576ETHY    C1  492  44.014  10.941   7.811
  577ETHY    C1  493  43.928  10.423   7.906
  578ETHY    C1  494  43.940   9.910   8.025
  579ETHY    C1  495  44.042   9.415   8.165
  580ETHY    C1  496  44.234   8.950   8.325
  581ETHY    C1  497  44.512   8.524   8.504
  582AUSL   AUS  498  44.055  12.872   7.094
  583AUSL   AUS  499  44.471  12.803   7.238
  584AUL    AUL  500  44.358  13.087   7.012
  585THSLK    S  501  44.102  13.099   6.977
  586ETHY    C1  502  44.292  13.378   6.674
  587ETHY    C1  503  44.443  13.759   6.330
  588ETHY    C1  504  44.507  14.179   6.021
  589ETHY    C1  505  44.491  14.629   5.752
  590ETHY    C1  506  44.395  15.099   5.532
  591ETHY    C1  507  44.220  15.582   5.366
  592THSLK    S  508  44.659  12.919   7.089
  593ETHY    C1  509  45.046  13.039   6.883
  594ETHY    C1  510  45.464  13.262   6.637
  595ETHY    C1  511  45.822  13.566   6.400
  596ETHY    C1  512  46.117  13.938   6.178
  597ETHY    C1  513  46.342  14.373   5.981
  598ETHY    C1  514  46.493  14.862   5.811
  599AUSL   AUS  515  43.903  12.966   7.339
  600AUSL   AUS  516  43.790  12.709   6.992
  601AUL    AUL  517  43.752  13.087   7.012
  602THSLK    S  518  43.949  13.213   7.239
  603ETHY    C1  519  44.096  13.610   7.074
  604ETHY    C1  520  44.182  14.104   6.889
  605ETHY    C1  521  44.170  14.605   6.727
  606ETHY    C1  522  44.068  15.101   6.593
  607ETHY    C1  523  43.876  15.582   6.492
  608ETHY    C1  524  43.598  16.040   6.427
  609THSLK    S  525  43.680  12.841   6.805
  610ETHY    C1  526  43.644  12.990   6.377
  611ETHY    C1  527  43.534  13.216   5.906
  612ETHY    C1  528  43.356  13.491   5.494
  613ETHY    C1  529  43.122  13.804   5.145
  614ETHY    C1  530  42.836  14.153   4.870
  615ETHY    C1  531  42.505  14.531   4.675
  616AUSL   AUS  532  44.055  11.712   7.094
  617AUSL   AUS  533  43.639  11.782   7.238
  618AUL    AUL  534  43.752  11.498   7.012
  619THSLK    S  535  43.456  11.634   7.134
  620ETHY    C1  536  43.073  11.390   7.124
  621ETHY    C1  537  42.655  11.069   7.035
  622ETHY    C1  538  42.296  10.723   6.866
  623ETHY    C1  539  41.999  10.362   6.631
  624ETHY    C1  540  41.774   9.990   6.331
  625ETHY    C1  541  41.627   9.613   5.974
  626THSLK    S  542  44.013  11.457   7.024
  627ETHY    C1  543  43.829  11.056   6.917
  628ETHY    C1  544  43.679  10.578   6.732
  629ETHY    C1  545  43.613  10.115   6.491
  630ETHY    C1  546  43.626   9.675   6.206
  631ETHY    C1  547  43.723   9.268   5.885
  632ETHY    C1  548  43.903   8.900   5.533
  633AUSL   AUS  549  44.207  11.619   7.339
  634AUSL   AUS  550  44.320  11.876   6.992
  635AUL    AUL  551  44.358  11.498   7.012
  636THSLK    S  552  44.164  11.365   7.266
  637ETHY    C1  553  44.020  10.937   7.213
  638ETHY    C1  554  43.933  10.418   7.120
  639ETHY    C1  555  43.945   9.906   6.997
  640ETHY    C1  556  44.046   9.412   6.854
  641ETHY    C1  557  44.238   8.947   6.695
  642ETHY    C1  558  44.518   8.519   6.523
  643THSLK    S  559  44.437  11.686   6.859
  644ETHY    C1  560  44.481  11.284   6.651
  645ETHY    C1  561  44.591  10.853   6.355
  646ETHY    C1  562  44.767  10.490   6.017
  647ETHY    C1  563  44.998  10.196   5.651
  648ETHY    C1  564  45.284   9.979   5.264
  649ETHY    C1  565  45.621   9.843   4.865
  650AUC    AUC  566  23.175  36.367   7.503
  651AUC    AUC  567  23.420  36.367   7.351
  652AUC    AUC  568  23.420  36.367   7.654
  653AUC    AUC  569  22.930  36.367   7.351
  654AUC    AUC  570  22.930  36.367   7.654
  655AUC    AUC  571  23.023  36.613   7.503
  656AUC    AUC  572  23.327  36.613   7.503
  657AUC    AUC  573  23.023  36.122   7.503
  658AUC    AUC  574  23.327  36.122   7.503
  659AUC    AUC  575  23.175  36.216   7.748
  660AUC    AUC  576  23.175  36.519   7.748
  661AUC    AUC  577  23.175  36.216   7.257
  662AUC    AUC  578  23.175  36.519   7.257
  663AUC    AUC  579  23.666  36.367   7.199
  664AUC    AUC  580  23.666  36.367   7.503
  665AUC    AUC  581  23.666  36.367   7.806
  666AUC    AUC  582  22.684  36.367   7.199
  667AUC    AUC  583  22.684  36.367   7.503
  668AUC    AUC  584  22.684  36.367   7.806
  669AUC    AUC  585  22.872  36.858   7.503
  670AUC    AUC  586  23.175  36.858   7.503
  671AUC    AUC  587  23.478  36.858   7.503
  672AUC    AUC  588  22.872  35.877   7.503
  673AUC    AUC  589  23.175  35.877   7.503
  674AUC    AUC  590  23.478  35.877   7.503
  675AUC    AUC  591  23.175  36.064   7.993
  676AUC    AUC  592  23.175  36.367   7.993
  677AUC    AUC  593  23.175  36.671   7.993
  678AUC    AUC  594  23.175  36.064   7.012
  679AUC    AUC  595  23.175  36.367   7.012
  680AUC    AUC  596  23.175  36.671   7.012
  681AUC    AUC  597  23.420  36.216   7.900
  682AUC    AUC  598  23.420  36.519   7.900
  683AUC    AUC  599  23.420  36.216   7.106
  684AUC    AUC  600  23.420  36.519   7.106
  685AUC    AUC  601  22.930  36.216   7.900
  686AUC    AUC  602  22.930  36.519   7.900
  687AUC    AUC  603  22.930  36.216   7.106
  688AUC    AUC  604  22.930  36.519   7.106
  689AUC    AUC  605  23.572  36.613   7.351
  690AUC    AUC  606  23.572  36.613   7.654
  691AUC    AUC  607  22.778  36.613   7.351
  692AUC    AUC  608  22.778  36.613   7.654
  693AUC    AUC  609  23.572  36.122   7.351
  694AUC    AUC  610  23.572  36.122   7.654
  695AUC    AUC  611  22.778  36.122   7.351
  696AUC    AUC  612  22.778  36.122   7.654
  697AUC    AUC  613  23.023  36.765   7.748
  698AUC    AUC  614  23.327  36.765   7.748
  699AUC    AUC  615  23.023  35.970   7.748
  700AUC    AUC  616  23.327  35.970   7.748
  701AUC    AUC  617  23.023  36.765   7.257
  702AUC    AUC  618  23.327  36.765   7.257
  703AUC    AUC  619  23.023  35.970   7.257
  704AUC    AUC  620  23.327  35.970   7.257
  705AUSL   AUS  621  23.584  36.367   8.083
  706AUSL   AUS  622  23.440  35.951   8.013
  707AUL    AUL  623  23.666  36.064   8.297
  708THSLK    S  624  23.550  35.764   8.153
  709ETHY    C1  625  23.586  35.365   8.368
  710ETHY    C1  626  23.696  34.935   8.665
  711ETHY    C1  627  23.874  34.571   9.000
  712ETHY    C1  628  24.108  34.275   9.364
  713ETHY    C1  629  24.394  34.058   9.752
  714ETHY    C1  630  24.725  33.925  10.156
  715THSLK    S  631  23.677  36.315   8.324
  716ETHY    C1  632  23.881  36.095   8.665
  717ETHY    C1  633  24.145  35.918   9.094
  718ETHY    C1  634  24.421  35.842   9.535
  719ETHY    C1  635  24.698  35.859   9.980
  720ETHY    C1  636  24.968  35.972  10.419
  721ETHY    C1  637  25.227  36.181  10.845
  722AUSL   AUS  638  23.339  36.216   8.176
  723AUSL   AUS  639  23.011  36.519   8.176
  724AUL    AUL  640  23.175  36.367   8.484
  725THSLK    S  641  23.414  36.161   8.413
  726ETHY    C1  642  23.478  35.881   8.765
  727ETHY    C1  643  23.581  35.626   9.223
  728ETHY    C1  644  23.708  35.467   9.708
  729ETHY    C1  645  23.850  35.398  10.208
  730ETHY    C1  646  24.004  35.426  10.713
  731ETHY    C1  647  24.164  35.550  11.212
  732THSLK    S  648  22.926  36.473   8.428
  733ETHY    C1  649  22.852  36.323   8.850
  734ETHY    C1  650  22.747  36.235   9.367
  735ETHY    C1  651  22.625  36.247   9.878
  736ETHY    C1  652  22.487  36.348  10.373
  737ETHY    C1  653  22.332  36.541  10.840
  738ETHY    C1  654  22.163  36.822  11.268
  739AUSL   AUS  655  23.339  36.519   8.176
  740AUSL   AUS  656  23.685  36.632   7.919
  741AUL    AUL  657  23.666  36.671   8.297
  742THSLK    S  658  23.424  36.575   8.410
  743ETHY    C1  659  23.498  36.856   8.759
  744ETHY    C1  660  23.603  37.111   9.217
  745ETHY    C1  661  23.725  37.270   9.703
  746ETHY    C1  662  23.864  37.339  10.204
  747ETHY    C1  663  24.018  37.312  10.708
  748ETHY    C1  664  24.187  37.188  11.206
  749THSLK    S  665  23.857  36.730   8.080
  750ETHY    C1  666  24.220  36.701   8.350
  751ETHY    C1  667  24.642  36.757   8.673
  752ETHY    C1  668  25.034  36.911   8.989
  753ETHY    C1  669  25.388  37.149   9.293
  754ETHY    C1  670  25.695  37.470   9.580
  755ETHY    C1  671  25.946  37.867   9.844
  756AUSL   AUS  672  23.584  36.367   6.923
  757AUSL   AUS  673  23.440  36.784   6.992
  758AUL    AUL  674  23.666  36.671   6.708
  759THSLK    S  675  23.686  36.315   6.687
  760ETHY    C1  676  23.899  36.095   6.351
  761ETHY    C1  677  24.164  35.918   5.923
  762ETHY    C1  678  24.436  35.842   5.479
  763ETHY    C1  679  24.710  35.859   5.033
  764ETHY    C1  680  24.981  35.972   4.594
  765ETHY    C1  681  25.246  36.181   4.173
  766THSLK    S  682  23.618  36.895   6.829
  767ETHY    C1  683  23.920  36.963   6.497
  768ETHY    C1  684  24.239  37.126   6.100
  769ETHY    C1  685  24.504  37.373   5.719
  770ETHY    C1  686  24.716  37.693   5.362
  771ETHY    C1  687  24.869  38.083   5.039
  772ETHY    C1  688  24.960  38.535   4.759
  773AUSL   AUS  689  23.339  36.216   6.829
  774AUSL   AUS  690  23.685  36.103   7.086
  775AUL    AUL  691  23.666  36.064   6.708
  776THSLK    S  692  23.818  35.911   6.949
  777ETHY    C1  693  24.001  35.544   6.752
  778ETHY    C1  694  24.273  35.172   6.483
  779ETHY    C1  695  24.598  34.883   6.186
  780ETHY    C1  696  24.964  34.676   5.874
  781ETHY    C1  697  25.368  34.557   5.555
  782ETHY    C1  698  25.801  34.532   5.235
  783THSLK    S  699  23.424  36.160   6.596
  784ETHY    C1  700  23.498  35.879   6.246
  785ETHY    C1  701  23.603  35.623   5.788
  786ETHY    C1  702  23.725  35.465   5.302
  787ETHY    C1  703  23.864  35.396   4.801
  788ETHY    C1  704  24.018  35.423   4.297
  789ETHY    C1  705  24.187  35.547   3.799
  790AUSL   AUS  706  23.339  36.519   6.829
  791AUSL   AUS  707  23.011  36.216   6.829
  792AUL    AUL  708  23.175  36.367   6.521
  793THSLK    S  709  22.919  36.160   6.597
  794ETHY    C1  710  22.784  35.882   6.264
  795ETHY    C1  711  22.623  35.629   5.822
  796ETHY    C1  712  22.471  35.472   5.343
  797ETHY    C1  713  22.335  35.403   4.842
  798ETHY    C1  714  22.218  35.429   4.328
  799ETHY    C1  715  22.125  35.548   3.810
  800THSLK    S  716  23.441  36.473   6.583
  801ETHY    C1  717  23.587  36.323   6.179
  802ETHY    C1  718  23.749  36.232   5.678
  803ETHY    C1  719  23.896  36.242   5.173
  804ETHY    C1  720  24.029  36.343   4.677
  805ETHY    C1  721  24.146  36.538   4.200
  806ETHY    C1  722  24.247  36.824   3.754
  807AUSL   AUS  723  22.766  36.367   8.083
  808AUSL   AUS  724  22.910  36.784   8.013
  809AUL    AUL  725  22.684  36.671   8.297
  810THSLK    S  726  22.664  36.315   8.319
  811ETHY    C1  727  22.452  36.095   8.654
  812ETHY    C1  728  22.186  35.918   9.082
  813ETHY    C1  729  21.914  35.842   9.526
  814ETHY    C1  730  21.640  35.859   9.973
  815ETHY    C1  731  21.369  35.972  10.411
  816ETHY    C1  732  21.104  36.181  10.832
  817THSLK    S  733  22.793  36.908   8.202
  818ETHY    C1  734  22.750  37.051   8.632
  819ETHY    C1  735  22.639  37.276   9.104
  820ETHY    C1  736  22.463  37.553   9.515
  821ETHY    C1  737  22.232  37.869   9.863
  822ETHY    C1  738  21.946  38.217  10.138
  823ETHY    C1  739  21.609  38.590  10.334
  824AUSL   AUS  740  23.011  36.216   8.176
  825AUSL   AUS  741  22.665  36.103   7.919
  826AUL    AUL  742  22.684  36.064   8.297
  827THSLK    S  743  22.488  35.940   8.026
  828ETHY    C1  744  22.117  35.683   8.082
  829ETHY    C1  745  21.695  35.395   8.237
  830ETHY    C1  746  21.305  35.140   8.482
  831ETHY    C1  747  20.953  34.923   8.803
  832ETHY    C1  748  20.647  34.752   9.198
  833ETHY    C1  749  20.390  34.631   9.657
  834THSLK    S  750  22.909  36.162   8.406
  835ETHY    C1  751  22.763  35.886   8.736
  836ETHY    C1  752  22.601  35.634   9.178
  837ETHY    C1  753  22.454  35.476   9.658
  838ETHY    C1  754  22.321  35.406  10.160
  839ETHY    C1  755  22.204  35.432  10.674
  840ETHY    C1  756  22.103  35.553  11.190
  841AUSL   AUS  757  22.766  36.367   6.923
  842AUSL   AUS  758  22.910  35.951   6.992
  843AUL    AUL  759  22.684  36.064   6.708
  844THSLK    S  760  22.673  36.315   6.681
  845ETHY    C1  761  22.469  36.095   6.341
  846ETHY    C1  762  22.205  35.918   5.911
  847ETHY    C1  763  21.929  35.842   5.470
  848ETHY    C1  764  21.652  35.859   5.025
  849ETHY    C1  765  21.382  35.972   4.586
  850ETHY    C1  766  21.123  36.181   4.161
  851THSLK    S  767  22.739  35.778   6.878
  852ETHY    C1  768  22.444  35.452   6.760
  853ETHY    C1  769  22.126  35.085   6.538
  854ETHY    C1  770  21.858  34.750   6.233
  855ETHY    C1  771  21.644  34.450   5.861
  856ETHY    C1  772  21.492  34.192   5.426
  857ETHY    C1  773  21.406  33.980   4.937
  858AUSL   AUS  774  23.011  36.519   6.829
  859AUSL   AUS  775  22.665  36.632   7.086
  860AUL    AUL  776  22.684  36.671   6.708
  861THSLK    S  777  22.538  36.759   6.895
  862ETHY    C1  778  22.361  36.840   6.484
  863ETHY    C1  779  22.090  36.980   6.046
  864ETHY    C1  780  21.763  37.168   5.679
  865ETHY    C1  781  21.394  37.397   5.385
  866ETHY    C1  782  20.992  37.664   5.173
  867ETHY    C1  783  20.563  37.966   5.047
  868THSLK    S  784  22.936  36.475   6.576
  869ETHY    C1  785  22.872  36.328   6.150
  870ETHY    C1  786  22.769  36.239   5.634
  871ETHY    C1  787  22.642  36.250   5.123
  872ETHY    C1  788  22.500  36.351   4.629
  873ETHY    C1  789  22.347  36.544   4.162
  874ETHY    C1  790  22.186  36.827   3.732
  875AUSL   AUS  791  23.755  36.776   7.503
  876AUSL   AUS  792  23.685  36.632   7.086
  877AUL    AUL  793  23.969  36.858   7.199
  878THSLK    S  794  23.863  36.731   6.934
  879ETHY    C1  795  24.233  36.704   6.671
  880ETHY    C1  796  24.655  36.760   6.349
  881ETHY    C1  797  25.045  36.914   6.030
  882ETHY    C1  798  25.397  37.151   5.724
  883ETHY    C1  799  25.704  37.472   5.438
  884ETHY    C1  800  25.960  37.871   5.179
  885THSLK    S  801  24.021  36.829   7.508
  886ETHY    C1  802  24.475  36.851   7.513
  887ETHY    C1  803  24.997  36.965   7.514
  888ETHY    C1  804  25.480  37.174   7.511
  889ETHY    C1  805  25.916  37.464   7.510
  890ETHY    C1  806  26.295  37.831   7.510
  891ETHY    C1  807  26.609  38.271   7.514
  892AUSL   AUS  808  23.849  36.531   7.351
  893AUSL   AUS  809  23.849  36.204   7.654
  894AUL    AUL  810  24.157  36.367   7.503
  895THSLK    S  811  24.105  36.570   7.350
  896ETHY    C1  812  24.541  36.462   7.286
  897ETHY    C1  813  25.067  36.424   7.201
  898ETHY    C1  814  25.582  36.488   7.113
  899ETHY    C1  815  26.076  36.642   7.026
  900ETHY    C1  816  26.536  36.887   6.945
  901ETHY    C1  817  26.955  37.219   6.873
  902THSLK    S  818  24.076  36.064   7.663
  903ETHY    C1  819  24.395  35.748   7.728
  904ETHY    C1  820  24.828  35.444   7.807
  905ETHY    C1  821  25.303  35.234   7.887
  906ETHY    C1  822  25.806  35.113   7.971
  907ETHY    C1  823  26.326  35.087   8.058
  908ETHY    C1  824  26.854  35.157   8.147
  909AUSL   AUS  825  23.849  36.531   7.654
  910AUSL   AUS  826  23.591  36.878   7.767
  911AUL    AUL  827  23.969  36.858   7.806
  912THSLK    S  828  23.774  36.992   7.926
  913ETHY    C1  829  24.157  37.110   8.140
  914ETHY    C1  830  24.575  37.333   8.388
  915ETHY    C1  831  24.934  37.638   8.622
  916ETHY    C1  832  25.231  38.011   8.840
  917ETHY    C1  833  25.456  38.445   9.038
  918ETHY    C1  834  25.603  38.933   9.215
  919THSLK    S  835  24.103  36.570   7.665
  920ETHY    C1  836  24.538  36.462   7.740
  921ETHY    C1  837  25.064  36.424   7.826
  922ETHY    C1  838  25.579  36.487   7.910
  923ETHY    C1  839  26.073  36.641   7.993
  924ETHY    C1  840  26.534  36.886   8.075
  925ETHY    C1  841  26.951  37.218   8.155
  926AUSL   AUS  842  22.595  36.776   7.503
  927AUSL   AUS  843  22.665  36.632   7.919
  928AUL    AUL  844  22.381  36.858   7.806
  929THSLK    S  845  22.532  36.751   8.109
  930ETHY    C1  846  22.349  36.823   8.519
  931ETHY    C1  847  22.077  36.963   8.957
  932ETHY    C1  848  21.752  37.154   9.324
  933ETHY    C1  849  21.386  37.385   9.619
  934ETHY    C1  850  20.983  37.652   9.831
  935ETHY    C1  851  20.549  37.948   9.956
  936THSLK    S  852  22.384  36.917   7.508
  937ETHY    C1  853  22.162  37.314   7.513
  938ETHY    C1  854  21.826  37.729   7.514
  939ETHY    C1  855  21.423  38.068   7.511
  940ETHY    C1  856  20.969  38.329   7.510
  941ETHY    C1  857  20.470  38.503   7.510
  942ETHY    C1  858  19.937  38.587   7.514
  943AUSL   AUS  859  22.501  36.531   7.351
  944AUSL   AUS  860  22.759  36.878   7.238
  945AUL    AUL  861  22.381  36.858   7.199
  946THSLK    S  862  22.274  36.646   7.303
  947ETHY    C1  863  21.955  36.846   7.049
  948ETHY    C1  864  21.522  37.052   6.813
  949ETHY    C1  865  21.047  37.218   6.661
  950ETHY    C1  866  20.544  37.347   6.590
  951ETHY    C1  867  20.024  37.437   6.605
  952ETHY    C1  868  19.496  37.485   6.708
  953THSLK    S  869  22.647  37.041   7.060
  954ETHY    C1  870  22.568  37.351   6.737
  955ETHY    C1  871  22.393  37.725   6.397
  956ETHY    C1  872  22.139  38.093   6.120
  957ETHY    C1  873  21.819  38.450   5.909
  958ETHY    C1  874  21.438  38.788   5.770
  959ETHY    C1  875  21.003  39.102   5.709
  960AUSL   AUS  876  22.501  36.531   7.654
  961AUSL   AUS  877  22.501  36.204   7.351
  962AUL    AUL  878  22.193  36.367   7.503
  963THSLK    S  879  22.247  36.131   7.394
  964ETHY    C1  880  21.812  36.113   7.524
  965ETHY    C1  881  21.286  36.053   7.597
  966ETHY    C1  882  20.771  35.949   7.578
  967ETHY    C1  883  20.277  35.806   7.477
  968ETHY    C1  884  19.817  35.623   7.294
  969ETHY    C1  885  19.399  35.403   7.034
  970THSLK    S  886  22.273  36.637   7.707
  971ETHY    C1  887  21.952  36.828   7.966
  972ETHY    C1  888  21.519  37.032   8.202
  973ETHY    C1  889  21.044  37.203   8.352
  974ETHY    C1  890  20.542  37.335   8.422
  975ETHY    C1  891  20.022  37.423   8.407
  976ETHY    C1  892  19.493  37.464   8.308
  977AUSL   AUS  893  23.755  35.958   7.503
  978AUSL   AUS  894  23.685  36.103   7.919
  979AUL    AUL  895  23.969  35.877   7.806
  980THSLK    S  896  23.966  35.817   7.508
  981ETHY    C1  897  24.188  35.421   7.513
  982ETHY    C1  898  24.524  35.006   7.514
  983ETHY    C1  899  24.927  34.667   7.511
  984ETHY    C1  900  25.381  34.406   7.510
  985ETHY    C1  901  25.880  34.232   7.510
  986ETHY    C1  902  26.413  34.148   7.514
  987THSLK    S  903  23.812  35.912   8.064
  988ETHY    C1  904  23.989  35.547   8.270
  989ETHY    C1  905  24.260  35.175   8.540
  990ETHY    C1  906  24.587  34.886   8.834
  991ETHY    C1  907  24.956  34.678   9.142
  992ETHY    C1  908  25.358  34.560   9.462
  993ETHY    C1  909  25.787  34.535   9.789
  994AUSL   AUS  910  23.849  36.204   7.351
  995AUSL   AUS  911  23.591  35.857   7.238
  996AUL    AUL  912  23.969  35.877   7.199
  997THSLK    S  913  24.077  36.064   7.353
  998ETHY    C1  914  24.398  35.747   7.298
  999ETHY    C1  915  24.831  35.444   7.221
 1000ETHY    C1  916  25.306  35.234   7.136
 1001ETHY    C1  917  25.808  35.113   7.048
 1002ETHY    C1  918  26.328  35.086   6.963
 1003ETHY    C1  919  26.857  35.157   6.881
 1004THSLK    S  920  23.707  35.668   7.108
 1005ETHY    C1  921  23.791  35.239   6.984
 1006ETHY    C1  922  23.966  34.767   6.803
 1007ETHY    C1  923  24.219  34.356   6.593
 1008ETHY    C1  924  24.537  34.008   6.366
 1009ETHY    C1  925  24.919  33.733   6.126
 1010ETHY    C1  926  25.357  33.536   5.880
 1011AUSL   AUS  927  22.595  35.958   7.503
 1012AUSL   AUS  928  22.665  36.103   7.086
 1013AUL    AUL  929  22.381  35.877   7.199
 1014THSLK    S  930  22.494  35.932   6.978
 1015ETHY    C1  931  22.130  35.667   6.921
 1016ETHY    C1  932  21.708  35.377   6.766
 1017ETHY    C1  933  21.316  35.125   6.521
 1018ETHY    C1  934  20.962  34.912   6.200
 1019ETHY    C1  935  20.655  34.739   5.806
 1020ETHY    C1  936  20.404  34.612   5.346
 1021THSLK    S  937  22.329  35.906   7.508
 1022ETHY    C1  938  21.875  35.884   7.513
 1023ETHY    C1  939  21.353  35.770   7.514
 1024ETHY    C1  940  20.871  35.561   7.511
 1025ETHY    C1  941  20.434  35.271   7.510
 1026ETHY    C1  942  20.055  34.904   7.510
 1027ETHY    C1  943  19.742  34.464   7.514
 1028AUSL   AUS  944  22.501  36.204   7.654
 1029AUSL   AUS  945  22.759  35.857   7.767
 1030AUL    AUL  946  22.381  35.877   7.806
 1031THSLK    S  947  22.571  35.717   7.878
 1032ETHY    C1  948  22.184  35.480   7.893
 1033ETHY    C1  949  21.766  35.160   7.982
 1034ETHY    C1  950  21.408  34.811   8.149
 1035ETHY    C1  951  21.113  34.447   8.382
 1036ETHY    C1  952  20.888  34.076   8.683
 1037ETHY    C1  953  20.737  33.705   9.045
 1038THSLK    S  954  22.245  36.141   7.616
 1039ETHY    C1  955  21.809  36.131   7.491
 1040ETHY    C1  956  21.283  36.072   7.419
 1041ETHY    C1  957  20.768  35.965   7.436
 1042ETHY    C1  958  20.274  35.819   7.535
 1043ETHY    C1  959  19.814  35.637   7.718
 1044ETHY    C1  960  19.395  35.424   7.983
 1045AUSL   AUS  961  23.175  36.947   7.912
 1046AUSL   AUS  962  22.759  36.878   7.767
 1047AUL    AUL  963  22.872  37.162   7.993
 1048THSLK    S  964  22.643  37.034   7.952
 1049ETHY    C1  965  22.559  37.336   8.280
 1050ETHY    C1  966  22.384  37.709   8.621
 1051ETHY    C1  967  22.131  38.080   8.895
 1052ETHY    C1  968  21.813  38.439   9.105
 1053ETHY    C1  969  21.431  38.777   9.244
 1054ETHY    C1  970  20.993  39.085   9.309
 1055THSLK    S  971  23.217  37.169   8.035
 1056ETHY    C1  972  23.401  37.444   8.347
 1057ETHY    C1  973  23.551  37.824   8.691
 1058ETHY    C1  974  23.617  38.247   8.998
 1059ETHY    C1  975  23.604  38.698   9.264
 1060ETHY    C1  976  23.507  39.167   9.485
 1061ETHY    C1  977  23.327  39.646   9.656
 1062AUSL   AUS  978  23.023  37.041   7.666
 1063AUSL   AUS  979  23.327  37.041   7.339
 1064AUL    AUL  980  23.175  37.349   7.503
 1065THSLK    S  981  23.066  37.285   7.776
 1066ETHY    C1  982  23.210  37.679   7.951
 1067ETHY    C1  983  23.297  38.173   8.137
 1068ETHY    C1  984  23.285  38.674   8.294
 1069ETHY    C1  985  23.184  39.172   8.425
 1070ETHY    C1  986  22.992  39.653   8.527
 1071ETHY    C1  987  22.712  40.108   8.600
 1072THSLK    S  988  23.382  37.272   7.243
 1073ETHY    C1  989  23.658  37.602   7.096
 1074ETHY    C1  990  23.908  38.043   6.927
 1075ETHY    C1  991  24.064  38.520   6.771
 1076ETHY    C1  992  24.133  39.022   6.635
 1077ETHY    C1  993  24.109  39.538   6.525
 1078ETHY    C1  994  23.992  40.058   6.443
 1079AUSL   AUS  995  23.327  37.041   7.666
 1080AUSL   AUS  996  23.440  36.784   8.013
 1081AUL    AUL  997  23.478  37.162   7.993
 1082THSLK    S  998  23.611  36.892   8.183
 1083ETHY    C1  999  23.906  36.957   8.523
 1084ETHY    C1 1000  24.224  37.119   8.920
 1085ETHY    C1 1001  24.492  37.368   9.298
 1086ETHY    C1 1002  24.706  37.690   9.653
 1087ETHY    C1 1003  24.858  38.078   9.976
 1088ETHY    C1 1004  24.944  38.528  10.262
 1089THSLK    S 1005  23.380  37.270   7.772
 1090ETHY    C1 1006  23.652  37.598   7.929
 1091ETHY    C1 1007  23.902  38.038   8.100
 1092ETHY    C1 1008  24.060  38.517   8.251
 1093ETHY    C1 1009  24.129  39.019   8.383
 1094ETHY    C1 1010  24.105  39.534   8.494
 1095ETHY    C1 1011  23.986  40.053   8.585
 1096AUSL   AUS 1012  23.175  35.787   7.912
 1097AUSL   AUS 1013  23.591  35.857   7.767
 1098AUL    AUL 1014  23.478  35.573   7.993
 1099THSLK    S 1015  23.128  35.537   7.989
 1100ETHY    C1 1016  22.938  35.141   8.103
 1101ETHY    C1 1017  22.787  34.663   8.289
 1102ETHY    C1 1018  22.724  34.198   8.528
 1103ETHY    C1 1019  22.739  33.756   8.809
 1104ETHY    C1 1020  22.835  33.349   9.132
 1105ETHY    C1 1021  23.010  32.986   9.489
 1106THSLK    S 1022  23.703  35.670   7.907
 1107ETHY    C1 1023  23.782  35.242   8.040
 1108ETHY    C1 1024  23.957  34.772   8.222
 1109ETHY    C1 1025  24.211  34.360   8.428
 1110ETHY    C1 1026  24.531  34.011   8.652
 1111ETHY    C1 1027  24.912  33.736   8.893
 1112ETHY    C1 1028  25.347  33.540   9.147
 1113AUSL   AUS 1029  23.023  35.694   7.666
 1114AUSL   AUS 1030  22.910  35.951   8.013
 1115AUL    AUL 1031  22.872  35.573   7.993
 1116THSLK    S 1032  22.968  35.458   7.745
 1117ETHY    C1 1033  22.693  35.099   7.788
 1118ETHY    C1 1034  22.442  34.634   7.869
 1119ETHY    C1 1035  22.286  34.144   7.981
 1120ETHY    C1 1036  22.217  33.645   8.122
 1121ETHY    C1 1037  22.241  33.145   8.292
 1122ETHY    C1 1038  22.358  32.657   8.489
 1123THSLK    S 1039  22.732  35.785   8.129
 1124ETHY    C1 1040  22.430  35.467   8.248
 1125ETHY    C1 1041  22.111  35.100   8.471
 1126ETHY    C1 1042  21.846  34.763   8.776
 1127ETHY    C1 1043  21.634  34.461   9.147
 1128ETHY    C1 1044  21.481  34.203   9.582
 1129ETHY    C1 1045  21.390  33.996  10.072
 1130AUSL   AUS 1046  23.327  35.694   7.666
 1131AUSL   AUS 1047  23.023  35.694   7.339
 1132AUL    AUL 1048  23.175  35.386   7.503
 1133THSLK    S 1049  22.970  35.455   7.270
 1134ETHY    C1 1050  22.698  35.093   7.236
 1135ETHY    C1 1051  22.448  34.628   7.157
 1136ETHY    C1 1052  22.291  34.139   7.041
 1137ETHY    C1 1053  22.221  33.640   6.896
 1138ETHY    C1 1054  22.245  33.141   6.727
 1139ETHY    C1 1055  22.364  32.650   6.538
 1140THSLK    S 1056  23.281  35.442   7.749
 1141ETHY    C1 1057  23.134  35.016   7.811
 1142ETHY    C1 1058  23.048  34.498   7.906
 1143ETHY    C1 1059  23.060  33.985   8.025
 1144ETHY    C1 1060  23.162  33.490   8.165
 1145ETHY    C1 1061  23.354  33.025   8.325
 1146ETHY    C1 1062  23.632  32.599   8.504
 1147AUSL   AUS 1063  23.175  36.947   7.094
 1148AUSL   AUS 1064  23.591  36.878   7.238
 1149AUL    AUL 1065  23.478  37.162   7.012
 1150THSLK    S 1066  23.222  37.174   6.977
 1151ETHY    C1 1067  23.412  37.453   6.674
 1152ETHY    C1 1068  23.563  37.834   6.330
 1153ETHY    C1 1069  23.627  38.254   6.021
 1154ETHY    C1 1070  23.611  38.704   5.752
 1155ETHY    C1 1071  23.515  39.174   5.532
 1156ETHY    C1 1072  23.340  39.657   5.366
 1157THSLK    S 1073  23.779  36.994   7.089
 1158ETHY    C1 1074  24.166  37.114   6.883
 1159ETHY    C1 1075  24.584  37.337   6.637
 1160ETHY    C1 1076  24.942  37.641   6.400
 1161ETHY    C1 1077  25.237  38.013   6.178
 1162ETHY    C1 1078  25.462  38.448   5.981
 1163ETHY    C1 1079  25.613  38.937   5.811
 1164AUSL   AUS 1080  23.023  37.041   7.339
 1165AUSL   AUS 1081  22.910  36.784   6.992
 1166AUL    AUL 1082  22.872  37.162   7.012
 1167THSLK    S 1083  23.069  37.288   7.239
 1168ETHY    C1 1084  23.216  37.685   7.074
 1169ETHY    C1 1085  23.302  38.179   6.889
 1170ETHY    C1 1086  23.290  38.680   6.727
 1171ETHY    C1 1087  23.188  39.176   6.593
 1172ETHY    C1 1088  22.996  39.657   6.492
 1173ETHY    C1 1089  22.718  40.115   6.427
 1174THSLK    S 1090  22.800  36.916   6.805
 1175ETHY    C1 1091  22.764  37.065   6.377
 1176ETHY    C1 1092  22.654  37.291   5.906
 1177ETHY    C1 1093  22.476  37.566   5.494
 1178ETHY    C1 1094  22.242  37.879   5.145
 1179ETHY    C1 1095  21.956  38.228   4.870
 1180ETHY    C1 1096  21.625  38.606   4.675
 1181AUSL   AUS 1097  23.175  35.787   7.094
 1182AUSL   AUS 1098  22.759  35.857   7.238
 1183AUL    AUL 1099  22.872  35.573   7.012
 1184THSLK    S 1100  22.576  35.709   7.134
 1185ETHY    C1 1101  22.193  35.465   7.124
 1186ETHY    C1 1102  21.775  35.144   7.035
 1187ETHY    C1 1103  21.416  34.798   6.866
 1188ETHY    C1 1104  21.119  34.437   6.631
 1189ETHY    C1 1105  20.894  34.065   6.331
 1190ETHY    C1 1106  20.747  33.688   5.974
 1191THSLK    S 1107  23.133  35.532   7.024
 1192ETHY    C1 1108  22.949  35.131   6.917
 1193ETHY    C1 1109  22.799  34.653   6.732
 1194ETHY    C1 1110  22.733  34.190   6.491
 1195ETHY    C1 1111  22.746  33.750   6.206
 1196ETHY    C1 1112  22.843  33.343   5.885
 1197ETHY    C1 1113  23.023  32.975   5.533
 1198AUSL   AUS 1114  23.327  35.694   7.339
 1199AUSL   AUS 1115  23.440  35.951   6.992
 1200AUL    AUL 1116  23.478  35.573   7.012
 1201THSLK    S 1117  23.284  35.440   7.266
 1202ETHY    C1 1118  23.140  35.012   7.213
 1203ETHY    C1 1119  23.053  34.493   7.120
 1204ETHY    C1 1120  23.065  33.981   6.997
 1205ETHY    C1 1121  23.166  33.487   6.854
 1206ETHY    C1 1122  23.358  33.022   6.695
 1207ETHY    C1 1123  23.638  32.594   6.523
 1208THSLK    S 1124  23.557  35.761   6.859
 1209ETHY    C1 1125  23.601  35.359   6.651
 1210ETHY    C1 1126  23.711  34.928   6.355
 1211ETHY    C1 1127  23.887  34.565   6.017
 1212ETHY    C1 1128  24.118  34.271   5.651
 1213ETHY    C1 1129  24.404  34.054   5.264
 1214ETHY    C1 1130  24.741  33.918   4.865
 1215AUC    AUC 1131  24.979  18.760   7.503
 1216AUC    AUC 1132  25.224  18.760   7.351
 1217AUC    AUC 1133  25.224  18.760   7.654
 1218AUC    AUC 1134  24.734  18.760   7.351
 1219AUC    AUC 1135  24.734  18.760   7.654
 1220AUC    AUC 1136  24.827  19.006   7.503
 1221AUC    AUC 1137  25.131  19.006   7.503
 1222AUC    AUC 1138  24.827  18.515   7.503
 1223AUC    AUC 1139  25.131  18.515   7.503
 1224AUC    AUC 1140  24.979  18.609   7.748
 1225AUC    AUC 1141  24.979  18.912   7.748
 1226AUC    AUC 1142  24.979  18.609   7.257
 1227AUC    AUC 1143  24.979  18.912   7.257
 1228AUC    AUC 1144  25.470  18.760   7.199
 1229AUC    AUC 1145  25.470  18.760   7.503
 1230AUC    AUC 1146  25.470  18.760   7.806
 1231AUC    AUC 1147  24.488  18.760   7.199
 1232AUC    AUC 1148  24.488  18.760   7.503
 1233AUC    AUC 1149  24.488  18.760   7.806
 1234AUC    AUC 1150  24.676  19.251   7.503
 1235AUC    AUC 1151  24.979  19.251   7.503
 1236AUC    AUC 1152  25.282  19.251   7.503
 1237AUC    AUC 1153  24.676  18.270   7.503
 1238AUC    AUC 1154  24.979  18.270   7.503
 1239AUC    AUC 1155  25.282  18.270   7.503
 1240AUC    AUC 1156  24.979  18.457   7.993
 1241AUC    AUC 1157  24.979  18.760   7.993
 1242AUC    AUC 1158  24.979  19.064   7.993
 1243AUC    AUC 1159  24.979  18.457   7.012
 1244AUC    AUC 1160  24.979  18.760   7.012
 1245AUC    AUC 1161  24.979  19.064   7.012
 1246AUC    AUC 1162  25.224  18.609   7.900
 1247AUC    AUC 1163  25.224  18.912   7.900
 1248AUC    AUC 1164  25.224  18.609   7.106
 1249AUC    AUC 1165  25.224  18.912   7.106
 1250AUC    AUC 1166  24.734  18.609   7.900
 1251AUC    AUC 1167  24.734  18.912   7.900
 1252AUC    AUC 1168  24.734  18.609   7.106
 1253AUC    AUC 1169  24.734  18.912   7.106
 1254AUC    AUC 1170  25.376  19.006   7.351
 1255AUC    AUC 1171  25.376  19.006   7.654
 1256AUC    AUC 1172  24.582  19.006   7.351
 1257AUC    AUC 1173  24.582  19.006   7.654
 1258AUC    AUC 1174  25.376  18.515   7.351
 1259AUC    AUC 1175  25.376  18.515   7.654
 1260AUC    AUC 1176  24.582  18.515   7.351
 1261AUC    AUC 1177  24.582  18.515   7.654
 1262AUC    AUC 1178  24.827  19.158   7.748
 1263AUC    AUC 1179  25.131  19.158   7.748
 1264AUC    AUC 1180  24.827  18.363   7.748
 1265AUC    AUC 1181  25.131  18.363   7.748
 1266AUC    AUC 1182  24.827  19.158   7.257
 1267AUC    AUC 1183  25.131  19.158   7.257
 1268AUC    AUC 1184  24.827  18.363   7.257
 1269AUC    AUC 1185  25.131  18.363   7.257
 1270AUSL   AUS 1186  25.388  18.760   8.083
 1271AUSL   AUS 1187  25.244  18.344   8.013
 1272AUL    AUL 1188  25.470  18.457   8.297
 1273THSLK    S 1189  25.354  18.157   8.153
 1274ETHY    C1 1190  25.390  17.758   8.368
 1275ETHY    C1 1191  25.500  17.328   8.665
 1276ETHY    C1 1192  25.678  16.964   9.000
 1277ETHY    C1 1193  25.912  16.668   9.364
 1278ETHY    C1 1194  26.198  16.451   9.752
 1279ETHY    C1 1195  26.529  16.318  10.156
 1280THSLK    S 1196  25.481  18.708   8.324
 1281ETHY    C1 1197  25.685  18.488   8.665
 1282ETHY    C1 1198  25.949  18.311   9.094
 1283ETHY    C1 1199  26.225  18.235   9.535
 1284ETHY    C1 1200  26.502  18.252   9.980
 1285ETHY    C1 1201  26.772  18.365  10.419
 1286ETHY    C1 1202  27.031  18.574  10.845
 1287AUSL   AUS 1203  25.143  18.609   8.176
 1288AUSL   AUS 1204  24.815  18.912   8.176
 1289AUL    AUL 1205  24.979  18.760   8.484
 1290THSLK    S 1206  25.218  18.554   8.413
 1291ETHY    C1 1207  25.282  18.274   8.765
 1292ETHY    C1 1208  25.385  18.019   9.223
 1293ETHY    C1 1209  25.512  17.860   9.708
 1294ETHY    C1 1210  25.654  17.791  10.208
 1295ETHY    C1 1211  25.808  17.819  10.713
 1296ETHY    C1 1212  25.968  17.943  11.212
 1297THSLK    S 1213  24.730  18.866   8.428
 1298ETHY    C1 1214  24.656  18.716   8.850
 1299ETHY    C1 1215  24.551  18.628   9.367
 1300ETHY    C1 1216  24.429  18.640   9.878
 1301ETHY    C1 1217  24.291  18.741  10.373
 1302ETHY    C1 1218  24.136  18.934  10.840
 1303ETHY    C1 1219  23.967  19.215  11.268
 1304AUSL   AUS 1220  25.143  18.912   8.176
 1305AUSL   AUS 1221  25.489  19.025   7.919
 1306AUL    AUL 1222  25.470  19.064   8.297
 1307THSLK    S 1223  25.228  18.968   8.410
 1308ETHY    C1 1224  25.302  19.249   8.759
 1309ETHY    C1 1225  25.407  19.504   9.217
 1310ETHY    C1 1226  25.529  19.663   9.703
 1311ETHY    C1 1227  25.668  19.732  10.204
 1312ETHY    C1 1228  25.822  19.705  10.708
 1313ETHY    C1 1229  25.991  19.581  11.206
 1314THSLK    S 1230  25.661  19.123   8.080
 1315ETHY    C1 1231  26.024  19.094   8.350
 1316ETHY    C1 1232  26.446  19.150   8.673
 1317ETHY    C1 1233  26.838  19.304   8.989
 1318ETHY    C1 1234  27.192  19.542   9.293
 1319ETHY    C1 1235  27.499  19.863   9.580
 1320ETHY    C1 1236  27.750  20.260   9.844
 1321AUSL   AUS 1237  25.388  18.760   6.923
 1322AUSL   AUS 1238  25.244  19.177   6.992
 1323AUL    AUL 1239  25.470  19.064   6.708
 1324THSLK    S 1240  25.490  18.708   6.687
 1325ETHY    C1 1241  25.703  18.488   6.351
 1326ETHY    C1 1242  25.968  18.311   5.923
 1327ETHY    C1 1243  26.240  18.235   5.479
 1328ETHY    C1 1244  26.514  18.252   5.033
 1329ETHY    C1 1245  26.785  18.365   4.594
 1330ETHY    C1 1246  27.050  18.574   4.173
 1331THSLK    S 1247  25.422  19.288   6.829
 1332ETHY    C1 1248  25.724  19.356   6.497
 1333ETHY    C1 1249  26.043  19.519   6.100
 1334ETHY    C1 1250  26.308  19.766   5.719
 1335ETHY    C1 1251  26.520  20.086   5.362
 1336ETHY    C1 1252  26.673  20.476   5.039
 1337ETHY    C1 1253  26.764  20.928   4.759
 1338AUSL   AUS 1254  25.143  18.609   6.829
 1339AUSL   AUS 1255  25.489  18.496   7.086
 1340AUL    AUL 1256  25.470  18.457   6.708
 1341THSLK    S 1257  25.622  18.304   6.949
 1342ETHY    C1 1258  25.805  17.937   6.752
 1343ETHY    C1 1259  26.077  17.565   6.483
 1344ETHY    C1 1260  26.402  17.276   6.186
 1345ETHY    C1 1261  26.768  17.069   5.874
 1346ETHY    C1 1262  27.172  16.950   5.555
 1347ETHY    C1 1263  27.605  16.925   5.235
 1348THSLK    S 1264  25.228  18.553   6.596
 1349ETHY    C1 1265  25.302  18.272   6.246
 1350ETHY    C1 1266  25.407  18.016   5.788
 1351ETHY    C1 1267  25.529  17.858   5.302
 1352ETHY    C1 1268  25.668  17.789   4.801
 1353ETHY    C1 1269  25.822  17.816   4.297
 1354ETHY    C1 1270  25.991  17.940   3.799
 1355AUSL   AUS 1271  25.143  18.912   6.829
 1356AUSL   AUS 1272  24.815  18.609   6.829
 1357AUL    AUL 1273  24.979  18.760   6.521
 1358THSLK    S 1274  24.723  18.553   6.597
 1359ETHY    C1 1275  24.588  18.275   6.264
 1360ETHY    C1 1276  24.427  18.022   5.822
 1361ETHY    C1 1277  24.275  17.865   5.343
 1362ETHY    C1 1278  24.139  17.796   4.842
 1363ETHY    C1 1279  24.022  17.822   4.328
 1364ETHY    C1 1280  23.929  17.941   3.810
 1365THSLK    S 1281  25.245  18.866   6.583
 1366ETHY    C1 1282  25.391  18.716   6.179
 1367ETHY    C1 1283  25.553  18.625   5.678
 1368ETHY    C1 1284  25.700  18.635   5.173
 1369ETHY    C1 1285  25.833  18.736   4.677
 1370ETHY    C1 1286  25.950  18.931   4.200
 1371ETHY    C1 1287  26.051  19.217   3.754
 1372AUSL   AUS 1288  24.570  18.760   8.083
 1373AUSL   AUS 1289  24.714  19.177   8.013
 1374AUL    AUL 1290  24.488  19.064   8.297
 1375THSLK    S 1291  24.468  18.708   8.319
 1376ETHY    C1 1292  24.256  18.488   8.654
 1377ETHY    C1 1293  23.990  18.311   9.082
 1378ETHY    C1 1294  23.718  18.235   9.526
 1379ETHY    C1 1295  23.444  18.252   9.973
 1380ETHY    C1 1296  23.173  18.365  10.411
 1381ETHY    C1 1297  22.908  18.574  10.832
 1382THSLK    S 1298  24.597  19.301   8.202
 1383ETHY    C1 1299  24.554  19.444   8.632
 1384ETHY    C1 1300  24.443  19.669   9.104
 1385ETHY    C1 1301  24.267  19.946   9.515
 1386ETHY    C1 1302  24.036  20.262   9.863
 1387ETHY    C1 1303  23.750  20.610  10.138
 1388ETHY    C1 1304  23.413  20.983  10.334
 1389AUSL   AUS 1305  24.815  18.609   8.176
 1390AUSL   AUS 1306  24.469  18.496   7.919
 1391AUL    AUL 1307  24.488  18.457   8.297
 1392THSLK    S 1308  24.292  18.333   8.026
 1393ETHY    C1 1309  23.921  18.076   8.082
 1394ETHY    C1 1310  23.499  17.788   8.237
 1395ETHY    C1 1311  23.109  17.533   8.482
 1396ETHY    C1 1312  22.757  17.316   8.803
 1397ETHY    C1 1313  22.451  17.145   9.198
 1398ETHY    C1 1314  22.194  17.024   9.657
 1399THSLK    S 1315  24.713  18.555   8.406
 1400ETHY    C1 1316  24.567  18.279   8.736
 1401ETHY    C1 1317  24.405  18.027   9.178
 1402ETHY    C1 1318  24.258  17.869   9.658
 1403ETHY    C1 1319  24.125  17.799  10.160
 1404ETHY    C1 1320  24.008  17.825  10.674
 1405ETHY    C1 1321  23.907  17.946  11.190
 1406AUSL   AUS 1322  24.570  18.760   6.923
 1407AUSL   AUS 1323  24.714  18.344   6.992
 1408AUL    AUL 1324  24.488  18.457   6.708
 1409THSLK    S 1325  24.477  18.708   6.681
 1410ETHY    C1 1326  24.273  18.488   6.341
 1411ETHY    C1 1327  24.009  18.311   5.911
 1412ETHY    C1 1328  23.733  18.235   5.470
 1413ETHY    C1 1329  23.456  18.252   5.025
 1414ETHY    C1 1330  23.186  18.365   4.586
 1415ETHY    C1 1331  22.927  18.574   4.161
 1416THSLK    S 1332  24.543  18.171   6.878
 1417ETHY    C1 1333  24.248  17.845   6.760
 1418ETHY    C1 1334  23.930  17.478   6.538
 1419ETHY    C1 1335  23.662  17.143   6.233
 1420ETHY    C1 1336  23.448  16.843   5.861
 1421ETHY    C1 1337  23.296  16.585   5.426
 1422ETHY    C1 1338  23.210  16.373   4.937
 1423AUSL   AUS 1339  24.815  18.912   6.829
 1424AUSL   AUS 1340  24.469  19.025   7.086
 1425AUL    AUL 1341  24.488  19.064   6.708
 1426THSLK    S 1342  24.342  19.152   6.895
 1427ETHY    C1 1343  24.165  19.233   6.484
 1428ETHY    C1 1344  23.894  19.373   6.046
 1429ETHY    C1 1345  23.567  19.561   5.679
 1430ETHY    C1 1346  23.198  19.790   5.385
 1431ETHY    C1 1347  22.796  20.057   5.173
 1432ETHY    C1 1348  22.367  20.359   5.047
 1433THSLK    S 1349  24.740  18.868   6.576
 1434ETHY    C1 1350  24.676  18.721   6.150
 1435ETHY    C1 1351  24.573  18.632   5.634
 1436ETHY    C1 1352  24.446  18.643   5.123
 1437ETHY    C1 1353  24.304  18.744   4.629
 1438ETHY    C1 1354  24.151  18.937   4.162
 1439ETHY    C1 1355  23.990  19.220   3.732
 1440AUSL   AUS 1356  25.559  19.169   7.503
 1441AUSL   AUS 1357  25.489  19.025   7.086
 1442AUL    AUL 1358  25.773  19.251   7.199
 1443THSLK    S 1359  25.667  19.124   6.934
 1444ETHY    C1 1360  26.037  19.097   6.671
 1445ETHY    C1 1361  26.459  19.153   6.349
 1446ETHY    C1 1362  26.849  19.307   6.030
 1447ETHY    C1 1363  27.201  19.544   5.724
 1448ETHY    C1 1364  27.508  19.865   5.438
 1449ETHY    C1 1365  27.764  20.264   5.179
 1450THSLK    S 1366  25.825  19.222   7.508
 1451ETHY    C1 1367  26.279  19.244   7.513
 1452ETHY    C1 1368  26.801  19.358   7.514
 1453ETHY    C1 1369  27.284  19.567   7.511
 1454ETHY    C1 1370  27.720  19.857   7.510
 1455ETHY    C1 1371  28.099  20.224   7.510
 1456ETHY    C1 1372  28.413  20.664   7.514
 1457AUSL   AUS 1373  25.653  18.924   7.351
 1458AUSL   AUS 1374  25.653  18.597   7.654
 1459AUL    AUL 1375  25.961  18.760   7.503
 1460THSLK    S 1376  25.909  18.963   7.350
 1461ETHY    C1 1377  26.345  18.855   7.286
 1462ETHY    C1 1378  26.871  18.817   7.201
 1463ETHY    C1 1379  27.386  18.881   7.113
 1464ETHY    C1 1380  27.880  19.035   7.026
 1465ETHY    C1 1381  28.340  19.280   6.945
 1466ETHY    C1 1382  28.759  19.612   6.873
 1467THSLK    S 1383  25.880  18.457   7.663
 1468ETHY    C1 1384  26.199  18.141   7.728
 1469ETHY    C1 1385  26.632  17.837   7.807
 1470ETHY    C1 1386  27.107  17.627   7.887
 1471ETHY    C1 1387  27.610  17.506   7.971
 1472ETHY    C1 1388  28.130  17.480   8.058
 1473ETHY    C1 1389  28.658  17.550   8.147
 1474AUSL   AUS 1390  25.653  18.924   7.654
 1475AUSL   AUS 1391  25.395  19.271   7.767
 1476AUL    AUL 1392  25.773  19.251   7.806
 1477THSLK    S 1393  25.578  19.385   7.926
 1478ETHY    C1 1394  25.961  19.503   8.140
 1479ETHY    C1 1395  26.379  19.726   8.388
 1480ETHY    C1 1396  26.738  20.031   8.622
 1481ETHY    C1 1397  27.035  20.404   8.840
 1482ETHY    C1 1398  27.260  20.838   9.038
 1483ETHY    C1 1399  27.407  21.326   9.215
 1484THSLK    S 1400  25.907  18.963   7.665
 1485ETHY    C1 1401  26.342  18.855   7.740
 1486ETHY    C1 1402  26.868  18.817   7.826
 1487ETHY    C1 1403  27.383  18.880   7.910
 1488ETHY    C1 1404  27.877  19.034   7.993
 1489ETHY    C1 1405  28.338  19.279   8.075
 1490ETHY    C1 1406  28.755  19.611   8.155
 1491AUSL   AUS 1407  24.399  19.169   7.503
 1492AUSL   AUS 1408  24.469  19.025   7.919
 1493AUL    AUL 1409  24.185  19.251   7.806
 1494THSLK    S 1410  24.336  19.144   8.109
 1495ETHY    C1 1411  24.153  19.216   8.519
 1496ETHY    C1 1412  23.881  19.356   8.957
 1497ETHY    C1 1413  23.556  19.547   9.324
 1498ETHY    C1 1414  23.190  19.778   9.619
 1499ETHY    C1 1415  22.787  20.045   9.831
 1500ETHY    C1 1416  22.353  20.341   9.956
 1501THSLK    S 1417  24.188  19.310   7.508
 1502ETHY    C1 1418  23.966  19.707   7.513
 1503ETHY    C1 1419  23.630  20.122   7.514
 1504ETHY    C1 1420  23.227  20.461   7.511
 1505ETHY    C1 1421  22.773  20.722   7.510
 1506ETHY    C1 1422  22.274  20.896   7.510
 1507ETHY    C1 1423  21.741  20.980   7.514
 1508AUSL   AUS 1424  24.305  18.924   7.351
 1509AUSL   AUS 1425  24.563  19.271   7.238
 1510AUL    AUL 1426  24.185  19.251   7.199
 1511THSLK    S 1427  24.078  19.039   7.303
 1512ETHY    C1 1428  23.759  19.239   7.049
 1513ETHY    C1 1429  23.326  19.445   6.813
 1514ETHY    C1 1430  22.851  19.611   6.661
 1515ETHY    C1 1431  22.348  19.740   6.590
 1516ETHY    C1 1432  21.828  19.830   6.605
 1517ETHY    C1 1433  21.300  19.878   6.708
 1518THSLK    S 1434  24.451  19.434   7.060
 1519ETHY    C1 1435  24.372  19.744   6.737
 1520ETHY    C1 1436  24.197  20.118   6.397
 1521ETHY    C1 1437  23.943  20.486   6.120
 1522ETHY    C1 1438  23.623  20.843   5.909
 1523ETHY    C1 1439  23.242  21.181   5.770
 1524ETHY    C1 1440  22.807  21.495   5.709
 1525AUSL   AUS 1441  24.305  18.924   7.654
 1526AUSL   AUS 1442  24.305  18.597   7.351
 1527AUL    AUL 1443  23.997  18.760   7.503
 1528THSLK    S 1444  24.051  18.524   7.394
 1529ETHY    C1 1445  23.616  18.506   7.524
 1530ETHY    C1 1446  23.090  18.446   7.597
 1531ETHY    C1 1447  22.575  18.342   7.578
 1532ETHY    C1 1448  22.081  18.199   7.477
 1533ETHY    C1 1449  21.621  18.016   7.294
 1534ETHY    C1 1450  21.203  17.796   7.034
 1535THSLK    S 1451  24.077  19.030   7.707
 1536ETHY    C1 1452  23.756  19.221   7.966
 1537ETHY    C1 1453  23.323  19.425   8.202
 1538ETHY    C1 1454  22.848  19.596   8.352
 1539ETHY    C1 1455  22.346  19.728   8.422
 1540ETHY    C1 1456  21.826  19.816   8.407
 1541ETHY    C1 1457  21.297  19.857   8.308
 1542AUSL   AUS 1458  25.559  18.351   7.503
 1543AUSL   AUS 1459  25.489  18.496   7.919
 1544AUL    AUL 1460  25.773  18.270   7.806
 1545THSLK    S 1461  25.770  18.210   7.508
 1546ETHY    C1 1462  25.992  17.814   7.513
 1547ETHY    C1 1463  26.328  17.399   7.514
 1548ETHY    C1 1464  26.731  17.060   7.511
 1549ETHY    C1 1465  27.185  16.799   7.510
 1550ETHY    C1 1466  27.684  16.625   7.510
 1551ETHY    C1 1467  28.217  16.541   7.514
 1552THSLK    S 1468  25.616  18.305   8.064
 1553ETHY    C1 1469  25.793  17.940   8.270
 1554ETHY    C1 1470  26.064  17.568   8.540
 1555ETHY    C1 1471  26.391  17.279   8.834
 1556ETHY    C1 1472  26.760  17.071   9.142
 1557ETHY    C1 1473  27.162  16.953   9.462
 1558ETHY    C1 1474  27.591  16.928   9.789
 1559AUSL   AUS 1475  25.653  18.597   7.351
 1560AUSL   AUS 1476  25.395  18.250   7.238
 1561AUL    AUL 1477  25.773  18.270   7.199
 1562THSLK    S 1478  25.881  18.457   7.353
 1563ETHY    C1 1479  26.202  18.140   7.298
 1564ETHY    C1 1480  26.635  17.837   7.221
 1565ETHY    C1 1481  27.110  17.627   7.136
 1566ETHY    C1 1482  27.612  17.506   7.048
 1567ETHY    C1 1483  28.132  17.479   6.963
 1568ETHY    C1 1484  28.661  17.550   6.881
 1569THSLK    S 1485  25.511  18.061   7.108
 1570ETHY    C1 1486  25.595  17.632   6.984
 1571ETHY    C1 1487  25.770  17.160   6.803
 1572ETHY    C1 1488  26.023  16.749   6.593
 1573ETHY    C1 1489  26.341  16.401   6.366
 1574ETHY    C1 1490  26.723  16.126   6.126
 1575ETHY    C1 1491  27.161  15.929   5.880
 1576AUSL   AUS 1492  24.399  18.351   7.503
 1577AUSL   AUS 1493  24.469  18.496   7.086
 1578AUL    AUL 1494  24.185  18.270   7.199
 1579THSLK    S 1495  24.298  18.325   6.978
 1580ETHY    C1 1496  23.934  18.060   6.921
 1581ETHY    C1 1497  23.512  17.770   6.766
 1582ETHY    C1 1498  23.120  17.518   6.521
 1583ETHY    C1 1499  22.766  17.305   6.200
 1584ETHY    C1 1500  22.459  17.132   5.806
 1585ETHY    C1 1501  22.208  17.005   5.346
 1586THSLK    S 1502  24.133  18.299   7.508
 1587ETHY    C1 1503  23.679  18.277   7.513
 1588ETHY    C1 1504  23.157  18.163   7.514
 1589ETHY    C1 1505  22.675  17.954   7.511
 1590ETHY    C1 1506  22.238  17.664   7.510
 1591ETHY    C1 1507  21.859  17.297   7.510
 1592ETHY    C1 1508  21.546  16.857   7.514
 1593AUSL   AUS 1509  24.305  18.597   7.654
 1594AUSL   AUS 1510  24.563  18.250   7.767
 1595AUL    AUL 1511  24.185  18.270   7.806
 1596THSLK    S 1512  24.375  18.110   7.878
 1597ETHY    C1 1513  23.988  17.873   7.893
 1598ETHY    C1 1514  23.570  17.553   7.982
 1599ETHY    C1 1515  23.212  17.204   8.149
 1600ETHY    C1 1516  22.917  16.840   8.382
 1601ETHY    C1 1517  22.692  16.469   8.683
 1602ETHY    C1 1518  22.541  16.098   9.045
 1603THSLK    S 1519  24.049  18.534   7.616
 1604ETHY    C1 1520  23.613  18.524   7.491
 1605ETHY    C1 1521  23.087  18.465   7.419
 1606ETHY    C1 1522  22.572  18.358   7.436
 1607ETHY    C1 1523  22.078  18.212   7.535
 1608ETHY    C1 1524  21.618  18.030   7.718
 1609ETHY    C1 1525  21.199  17.817   7.983
 1610AUSL   AUS 1526  24.979  19.340   7.912
 1611AUSL   AUS 1527  24.563  19.271   7.767
 1612AUL    AUL 1528  24.676  19.555   7.993
 1613THSLK    S 1529  24.447  19.427   7.952
 1614ETHY    C1 1530  24.363  19.729   8.280
 1615ETHY    C1 1531  24.188  20.102   8.621
 1616ETHY    C1 1532  23.935  20.473   8.895
 1617ETHY    C1 1533  23.617  20.832   9.105
 1618ETHY    C1 1534  23.235  21.170   9.244
 1619ETHY    C1 1535  22.797  21.478   9.309
 1620THSLK    S 1536  25.021  19.562   8.035
 1621ETHY    C1 1537  25.205  19.837   8.347
 1622ETHY    C1 1538  25.355  20.217   8.691
 1623ETHY    C1 1539  25.421  20.640   8.998
 1624ETHY    C1 1540  25.408  21.091   9.264
 1625ETHY    C1 1541  25.311  21.560   9.485
 1626ETHY    C1 1542  25.131  22.039   9.656
 1627AUSL   AUS 1543  24.827  19.434   7.666
 1628AUSL   AUS 1544  25.131  19.434   7.339
 1629AUL    AUL 1545  24.979  19.742   7.503
 1630THSLK    S 1546  24.870  19.678   7.776
 1631ETHY    C1 1547  25.014  20.072   7.951
 1632ETHY    C1 1548  25.101  20.566   8.137
 1633ETHY    C1 1549  25.089  21.067   8.294
 1634ETHY    C1 1550  24.988  21.565   8.425
 1635ETHY    C1 1551  24.796  22.046   8.527
 1636ETHY    C1 1552  24.516  22.501   8.600
 1637THSLK    S 1553  25.186  19.665   7.243
 1638ETHY    C1 1554  25.462  19.995   7.096
 1639ETHY    C1 1555  25.712  20.436   6.927
 1640ETHY    C1 1556  25.868  20.913   6.771
 1641ETHY    C1 1557  25.937  21.415   6.635
 1642ETHY    C1 1558  25.913  21.931   6.525
 1643ETHY    C1 1559  25.796  22.451   6.443
 1644AUSL   AUS 1560  25.131  19.434   7.666
 1645AUSL   AUS 1561  25.244  19.177   8.013
 1646AUL    AUL 1562  25.282  19.555   7.993
 1647THSLK    S 1563  25.415  19.285   8.183
 1648ETHY    C1 1564  25.710  19.350   8.523
 1649ETHY    C1 1565  26.028  19.512   8.920
 1650ETHY    C1 1566  26.296  19.761   9.298
 1651ETHY    C1 1567  26.510  20.083   9.653
 1652ETHY    C1 1568  26.662  20.471   9.976
 1653ETHY    C1 1569  26.748  20.921  10.262
 1654THSLK    S 1570  25.184  19.663   7.772
 1655ETHY    C1 1571  25.456  19.991   7.929
 1656ETHY    C1 1572  25.706  20.431   8.100
 1657ETHY    C1 1573  25.864  20.910   8.251
 1658ETHY    C1 1574  25.933  21.412   8.383
 1659ETHY    C1 1575  25.909  21.927   8.494
 1660ETHY    C1 1576  25.790  22.446   8.585
 1661AUSL   AUS 1577  24.979  18.180   7.912
 1662AUSL   AUS 1578  25.395  18.250   7.767
 1663AUL    AUL 1579  25.282  17.966   7.993
 1664THSLK    S 1580  24.932  17.930   7.989
 1665ETHY    C1 1581  24.742  17.534   8.103
 1666ETHY    C1 1582  24.591  17.056   8.289
 1667ETHY    C1 1583  24.528  16.591   8.528
 1668ETHY    C1 1584  24.543  16.149   8.809
 1669ETHY    C1 1585  24.639  15.742   9.132
 1670ETHY    C1 1586  24.814  15.379   9.489
 1671THSLK    S 1587  25.507  18.063   7.907
 1672ETHY    C1 1588  25.586  17.635   8.040
 1673ETHY    C1 1589  25.761  17.165   8.222
 1674ETHY    C1 1590  26.015  16.753   8.428
 1675ETHY    C1 1591  26.335  16.404   8.652
 1676ETHY    C1 1592  26.716  16.129   8.893
 1677ETHY    C1 1593  27.151  15.933   9.147
 1678AUSL   AUS 1594  24.827  18.087   7.666
 1679AUSL   AUS 1595  24.714  18.344   8.013
 1680AUL    AUL 1596  24.676  17.966   7.993
 1681THSLK    S 1597  24.772  17.851   7.745
 1682ETHY    C1 1598  24.497  17.492   7.788
 1683ETHY    C1 1599  24.246  17.027   7.869
 1684ETHY    C1 1600  24.090  16.537   7.981
 1685ETHY    C1 1601  24.021  16.038   8.122
 1686ETHY    C1 1602  24.045  15.538   8.292
 1687ETHY    C1 1603  24.162  15.050   8.489
 1688THSLK    S 1604  24.536  18.178   8.129
 1689ETHY    C1 1605  24.234  17.860   8.248
 1690ETHY    C1 1606  23.915  17.493   8.471
 1691ETHY    C1 1607  23.650  17.156   8.776
 1692ETHY    C1 1608  23.438  16.854   9.147
 1693ETHY    C1 1609  23.285  16.596   9.582
 1694ETHY    C1 1610  23.194  16.389  10.072
 1695AUSL   AUS 1611  25.131  18.087   7.666
 1696AUSL   AUS 1612  24.827  18.087   7.339
 1697AUL    AUL 1613  24.979  17.779   7.503
 1698THSLK    S 1614  24.774  17.848   7.270
 1699ETHY    C1 1615  24.502  17.486   7.236
 1700ETHY    C1 1616  24.252  17.021   7.157
 1701ETHY    C1 1617  24.095  16.532   7.041
 1702ETHY    C1 1618  24.025  16.033   6.896
 1703ETHY    C1 1619  24.049  15.534   6.727
 1704ETHY    C1 1620  24.168  15.043   6.538
 1705THSLK    S 1621  25.085  17.835   7.749
 1706ETHY    C1 1622  24.938  17.409   7.811
 1707ETHY    C1 1623  24.852  16.891   7.906
 1708ETHY    C1 1624  24.864  16.378   8.025
 1709ETHY    C1 1625  24.966  15.883   8.165
 1710ETHY    C1 1626  25.158  15.418   8.325
 1711ETHY    C1 1627  25.436  14.992   8.504
 1712AUSL   AUS 1628  24.979  19.340   7.094
 1713AUSL   AUS 1629  25.395  19.271   7.238
 1714AUL    AUL 1630  25.282  19.555   7.012
 1715THSLK    S 1631  25.026  19.567   6.977
 1716ETHY    C1 1632  25.216  19.846   6.674
 1717ETHY    C1 1633  25.367  20.227   6.330
 1718ETHY    C1 1634  25.431  20.647   6.021
 1719ETHY    C1 1635  25.415  21.097   5.752
 1720ETHY    C1 1636  25.319  21.567   5.532
 1721ETHY    C1 1637  25.144  22.050   5.366
 1722THSLK    S 1638  25.583  19.387   7.089
 1723ETHY    C1 1639  25.970  19.507   6.883
 1724ETHY    C1 1640  26.388  19.730   6.637
 1725ETHY    C1 1641  26.746  20.034   6.400
 1726ETHY    C1 1642  27.041  20.406   6.178
 1727ETHY    C1 1643  27.266  20.841   5.981
 1728ETHY    C1 1644  27.417  21.330   5.811
 1729AUSL   AUS 1645  24.827  19.434   7.339
 1730AUSL   AUS 1646  24.714  19.177   6.992
 1731AUL    AUL 1647  24.676  19.555   7.012
 1732THSLK    S 1648  24.873  19.681   7.239
 1733ETHY    C1 1649  25.020  20.078   7.074
 1734ETHY    C1 1650  25.106  20.572   6.889
 1735ETHY    C1 1651  25.094  21.073   6.727
 1736ETHY    C1 1652  24.992  21.569   6.593
 1737ETHY    C1 1653  24.800  22.050   6.492
 1738ETHY    C1 1654  24.522  22.508   6.427
 1739THSLK    S 1655  24.604  19.309   6.805
 1740ETHY    C1 1656  24.568  19.458   6.377
 1741ETHY    C1 1657  24.458  19.684   5.906
 1742ETHY    C1 1658  24.280  19.959   5.494
 1743ETHY    C1 1659  24.046  20.272   5.145
 1744ETHY    C1 1660  23.760  20.621   4.870
 1745ETHY    C1 1661  23.429  20.999   4.675
 1746AUSL   AUS 1662  24.979  18.180   7.094
 1747AUSL   AUS 1663  24.563  18.250   7.238
 1748AUL    AUL 1664  24.676  17.966   7.012
 1749THSLK    S 1665  24.380  18.102   7.134
 1750ETHY    C1 1666  23.997  17.858   7.124
 1751ETHY    C1 1667  23.579  17.537   7.035
 1752ETHY    C1 1668  23.220  17.191   6.866
 1753ETHY    C1 1669  22.923  16.830   6.631
 1754ETHY    C1 1670  22.698  16.458   6.331
 1755ETHY    C1 1671  22.551  16.081   5.974
 1756THSLK    S 1672  24.937  17.925   7.024
 1757ETHY    C1 1673  24.753  17.524   6.917
 1758ETHY    C1 1674  24.603  17.046   6.732
 1759ETHY    C1 1675  24.537  16.583   6.491
 1760ETHY    C1 1676  24.550  16.143   6.206
 1761ETHY    C1 1677  24.647  15.736   5.885
 1762ETHY    C1 1678  24.827  15.368   5.533
 1763AUSL   AUS 1679  25.131  18.087   7.339
 1764AUSL   AUS 1680  25.244  18.344   6.992
 1765AUL    AUL 1681  25.282  17.966   7.012
 1766THSLK    S 1682  25.088  17.833   7.266
 1767ETHY    C1 1683  24.944  17.405   7.213
 1768ETHY    C1 1684  24.857  16.886   7.120
 1769ETHY    C1 1685  24.869  16.374   6.997
 1770ETHY    C1 1686  24.970  15.880   6.854
 1771ETHY    C1 1687  25.162  15.415   6.695
 1772ETHY    C1 1688  25.442  14.987   6.523
 1773THSLK    S 1689  25.361  18.154   6.859
 1774ETHY    C1 1690  25.405  17.752   6.651
 1775ETHY    C1 1691  25.515  17.321   6.355
 1776ETHY    C1 1692  25.691  16.958   6.017
 1777ETHY    C1 1693  25.922  16.664   5.651
 1778ETHY    C1 1694  26.208  16.447   5.264
 1779ETHY    C1 1695  26.545  16.311   4.865
 1780AUC    AUC 1696   1.747  25.923   7.503
 1781AUC    AUC 1697   1.992  25.923   7.351
 1782AUC    AUC 1698   1.992  25.923   7.654
 1783AUC    AUC 1699   1.502  25.923   7.351
 1784AUC    AUC 1700   1.502  25.923   7.654
 1785AUC    AUC 1701   1.595  26.169   7.503
 1786AUC    AUC 1702   1.899  26.169   7.503
 1787AUC    AUC 1703   1.595  25.678   7.503
 1788AUC    AUC 1704   1.899  25.678   7.503
 1789AUC    AUC 1705   1.747  25.772   7.748
 1790AUC    AUC 1706   1.747  26.075   7.748
 1791AUC    AUC 1707   1.747  25.772   7.257
 1792AUC    AUC 1708   1.747  26.075   7.257
 1793AUC    AUC 1709   2.238  25.923   7.199
 1794AUC    AUC 1710   2.238  25.923   7.503
 1795AUC    AUC 1711   2.238  25.923   7.806
 1796AUC    AUC 1712   1.256  25.923   7.199
 1797AUC    AUC 1713   1.256  25.923   7.503
 1798AUC    AUC 1714   1.256  25.923   7.806
 1799AUC    AUC 1715   1.444  26.414   7.503
 1800AUC    AUC 1716   1.747  26.414   7.503
 1801AUC    AUC 1717   2.050  26.414   7.503
 1802AUC    AUC 1718   1.444  25.433   7.503
 1803AUC    AUC 1719   1.747  25.433   7.503
 1804AUC    AUC 1720   2.050  25.433   7.503
 1805AUC    AUC 1721   1.747  25.620   7.993
 1806AUC    AUC 1722   1.747  25.923   7.993
 1807AUC    AUC 1723   1.747  26.227   7.993
 1808AUC    AUC 1724   1.747  25.620   7.012
 1809AUC    AUC 1725   1.747  25.923   7.012
 1810AUC    AUC 1726   1.747  26.227   7.012
 1811AUC    AUC 1727   1.992  25.772   7.900
 1812AUC    AUC 1728   1.992  26.075   7.900
 1813AUC    AUC 1729   1.992  25.772   7.106
 1814AUC    AUC 1730   1.992  26.075   7.106
 1815AUC    AUC 1731   1.502  25.772   7.900
 1816AUC    AUC 1732   1.502  26.075   7.900
 1817AUC    AUC 1733   1.502  25.772   7.106
 1818AUC    AUC 1734   1.502  26.075   7.106
 1819AUC    AUC 1735   2.144  26.169   7.351
 1820AUC    AUC 1736   2.144  26.169   7.654
 1821AUC    AUC 1737   1.350  26.169   7.351
 1822AUC    AUC 1738   1.350  26.169   7.654
 1823AUC    AUC 1739   2.144  25.678   7.351
 1824AUC    AUC 1740   2.144  25.678   7.654
 1825AUC    AUC 1741   1.350  25.678   7.351
 1826AUC    AUC 1742   1.350  25.678   7.654
 1827AUC    AUC 1743   1.595  26.321   7.748
 1828AUC    AUC 1744   1.899  26.321   7.748
 1829AUC    AUC 1745   1.595  25.526   7.748
 1830AUC    AUC 1746   1.899  25.526   7.748
 1831AUC    AUC 1747   1.595  26.321   7.257
 1832AUC    AUC 1748   1.899  26.321   7.257
 1833AUC    AUC 1749   1.595  25.526   7.257
 1834AUC    AUC 1750   1.899  25.526   7.257
 1835AUSL   AUS 1751   2.156  25.923   8.083
 1836AUSL   AUS 1752   2.012  25.507   8.013
 1837AUL    AUL 1753   2.238  25.620   8.297
 1838THSLK    S 1754   2.122  25.320   8.153
 1839ETHY    C1 1755   2.158  24.921   8.368
 1840ETHY    C1 1756   2.268  24.491   8.665
 1841ETHY    C1 1757   2.446  24.127   9.000
 1842ETHY    C1 1758   2.680  23.831   9.364
 1843ETHY    C1 1759   2.966  23.614   9.752
 1844ETHY    C1 1760   3.297  23.481  10.156
 1845THSLK    S 1761   2.249  25.871   8.324
 1846ETHY    C1 1762   2.453  25.651   8.665
 1847ETHY    C1 1763   2.717  25.474   9.094
 1848ETHY    C1 1764   2.993  25.398   9.535
 1849ETHY    C1 1765   3.270  25.415   9.980
 1850ETHY    C1 1766   3.540  25.528  10.419
 1851ETHY    C1 1767   3.799  25.737  10.845
 1852AUSL   AUS 1768   1.911  25.772   8.176
 1853AUSL   AUS 1769   1.583  26.075   8.176
 1854AUL    AUL 1770   1.747  25.923   8.484
 1855THSLK    S 1771   1.986  25.717   8.413
 1856ETHY    C1 1772   2.050  25.437   8.765
 1857ETHY    C1 1773   2.153  25.182   9.223
 1858ETHY    C1 1774   2.280  25.023   9.708
 1859ETHY    C1 1775   2.422  24.954  10.208
 1860ETHY    C1 1776   2.576  24.982  10.713
 1861ETHY    C1 1777   2.736  25.106  11.212
 1862THSLK    S 1778   1.498  26.029   8.428
 1863ETHY    C1 1779   1.424  25.879   8.850
 1864ETHY    C1 1780   1.319  25.791   9.367
 1865ETHY    C1 1781   1.197  25.803   9.878
 1866ETHY    C1 1782   1.059  25.904  10.373
 1867ETHY    C1 1783   0.904  26.097  10.840
 1868ETHY    C1 1784   0.735  26.378  11.268
 1869AUSL   AUS 1785   1.911  26.075   8.176
 1870AUSL   AUS 1786   2.257  26.188   7.919
 1871AUL    AUL 1787   2.238  26.227   8.297
 1872THSLK    S 1788   1.996  26.131   8.410
 1873ETHY    C1 1789   2.070  26.412   8.759
 1874ETHY    C1 1790   2.175  26.667   9.217
 1875ETHY    C1 1791   2.297  26.826   9.703
 1876ETHY    C1 1792   2.436  26.895  10.204
 1877ETHY    C1 1793   2.590  26.868  10.708
 1878ETHY    C1 1794   2.759  26.744  11.206
 1879THSLK    S 1795   2.429  26.286   8.080
 1880ETHY    C1 1796   2.792  26.257   8.350
 1881ETHY    C1 1797   3.214  26.313   8.673
 1882ETHY    C1 1798   3.606  26.467   8.989
 1883ETHY    C1 1799   3.960  26.705   9.293
 1884ETHY    C1 1800   4.267  27.026   9.580
 1885ETHY    C1 1801   4.518  27.423   9.844
 1886AUSL   AUS 1802   2.156  25.923   6.923
 1887AUSL   AUS 1803   2.012  26.340   6.992
 1888AUL    AUL 1804   2.238  26.227   6.708
 1889THSLK    S 1805   2.258  25.871   6.687
 1890ETHY    C1 1806   2.471  25.651   6.351
 1891ETHY    C1 1807   2.736  25.474   5.923
 1892ETHY    C1 1808   3.008  25.398   5.479
 1893ETHY    C1 1809   3.282  25.415   5.033
 1894ETHY    C1 1810   3.553  25.528   4.594
 1895ETHY    C1 1811   3.818  25.737   4.173
 1896THSLK    S 1812   2.190  26.451   6.829
 1897ETHY    C1 1813   2.492  26.519   6.497
 1898ETHY    C1 1814   2.811  26.682   6.100
 1899ETHY    C1 1815   3.076  26.929   5.719
 1900ETHY    C1 1816   3.288  27.249   5.362
 1901ETHY    C1 1817   3.441  27.639   5.039
 1902ETHY    C1 1818   3.532  28.091   4.759
 1903AUSL   AUS 1819   1.911  25.772   6.829
 1904AUSL   AUS 1820   2.257  25.659   7.086
 1905AUL    AUL 1821   2.238  25.620   6.708
 1906THSLK    S 1822   2.390  25.467   6.949
 1907ETHY    C1 1823   2.573  25.100   6.752
 1908ETHY    C1 1824   2.845  24.728   6.483
 1909ETHY    C1 1825   3.170  24.439   6.186
 1910ETHY    C1 1826   3.536  24.232   5.874
 1911ETHY    C1 1827   3.940  24.113   5.555
 1912ETHY    C1 1828   4.373  24.088   5.235
 1913THSLK    S 1829   1.996  25.716   6.596
 1914ETHY    C1 1830   2.070  25.435   6.246
 1915ETHY    C1 1831   2.175  25.179   5.788
 1916ETHY    C1 1832   2.297  25.021   5.302
 1917ETHY    C1 1833   2.436  24.952   4.801
 1918ETHY    C1 1834   2.590  24.979   4.297
 1919ETHY    C1 1835   2.759  25.103   3.799
 1920AUSL   AUS 1836   1.911  26.075   6.829
 1921AUSL   AUS 1837   1.583  25.772   6.829
 1922AUL    AUL 1838   1.747  25.923   6.521
 1923THSLK    S 1839   1.491  25.716   6.597
 1924ETHY    C1 1840   1.356  25.438   6.264
 1925ETHY    C1 1841   1.195  25.185   5.822
 1926ETHY    C1 1842   1.043  25.028   5.343
 1927ETHY    C1 1843   0.907  24.959   4.842
 1928ETHY    C1 1844   0.790  24.985   4.328
 1929ETHY    C1 1845   0.697  25.104   3.810
 1930THSLK    S 1846   2.013  26.029   6.583
 1931ETHY    C1 1847   2.159  25.879   6.179
 1932ETHY    C1 1848   2.321  25.788   5.678
 1933ETHY    C1 1849   2.468  25.798   5.173
 1934ETHY    C1 1850   2.601  25.899   4.677
 1935ETHY    C1 1851   2.718  26.094   4.200
 1936ETHY    C1 1852   2.819  26.380   3.754
 1937AUSL   AUS 1853   1.338  25.923   8.083
 1938AUSL   AUS 1854   1.482  26.340   8.013
 1939AUL    AUL 1855   1.256  26.227   8.297
 1940THSLK    S 1856   1.236  25.871   8.319
 1941ETHY    C1 1857   1.024  25.651   8.654
 1942ETHY    C1 1858   0.758  25.474   9.082
 1943ETHY    C1 1859   0.486  25.398   9.526
 1944ETHY    C1 1860   0.212  25.415   9.973
 1945ETHY    C1 1861  -0.059  25.528  10.411
 1946ETHY    C1 1862  -0.324  25.737  10.832
 1947THSLK    S 1863   1.365  26.464   8.202
 1948ETHY    C1 1864   1.322  26.607   8.632
 1949ETHY    C1 1865   1.211  26.832   9.104
 1950ETHY    C1 1866   1.035  27.109   9.515
 1951ETHY    C1 1867   0.804  27.425   9.863
 1952ETHY    C1 1868   0.518  27.773  10.138
 1953ETHY    C1 1869   0.181  28.146  10.334
 1954AUSL   AUS 1870   1.583  25.772   8.176
 1955AUSL   AUS 1871   1.237  25.659   7.919
 1956AUL    AUL 1872   1.256  25.620   8.297
 1957THSLK    S 1873   1.060  25.496   8.026
 1958ETHY    C1 1874   0.689  25.239   8.082
 1959ETHY    C1 1875   0.267  24.951   8.237
 1960ETHY    C1 1876  -0.123  24.696   8.482
 1961ETHY    C1 1877  -0.475  24.479   8.803
 1962ETHY    C1 1878  -0.781  24.308   9.198
 1963ETHY    C1 1879  -1.038  24.187   9.657
 1964THSLK    S 1880   1.481  25.718   8.406
 1965ETHY    C1 1881   1.335  25.442   8.736
 1966ETHY    C1 1882   1.173  25.190   9.178
 1967ETHY    C1 1883   1.026  25.032   9.658
 1968ETHY    C1 1884   0.893  24.962  10.160
 1969ETHY    C1 1885   0.776  24.988  10.674
 1970ETHY    C1 1886   0.675  25.109  11.190
 1971AUSL   AUS 1887   1.338  25.923   6.923
 1972AUSL   AUS 1888   1.482  25.507   6.992
 1973AUL    AUL 1889   1.256  25.620   6.708
 1974THSLK    S 1890   1.245  25.871   6.681
 1975ETHY    C1 1891   1.041  25.651   6.341
 1976ETHY    C1 1892   0.777  25.474   5.911
 1977ETHY    C1 1893   0.501  25.398   5.470
 1978ETHY    C1 1894   0.224  25.415   5.025
 1979ETHY    C1 1895  -0.046  25.528   4.586
 1980ETHY    C1 1896  -0.305  25.737   4.161
 1981THSLK    S 1897   1.311  25.334   6.878
 1982ETHY    C1 1898   1.016  25.008   6.760
 1983ETHY    C1 1899   0.698  24.641   6.538
 1984ETHY    C1 1900   0.430  24.306   6.233
 1985ETHY    C1 1901   0.216  24.006   5.861
 1986ETHY    C1 1902   0.064  23.748   5.426
 1987ETHY    C1 1903  -0.022  23.536   4.937
 1988AUSL   AUS 1904   1.583  26.075   6.829
 1989AUSL   AUS 1905   1.237  26.188   7.086
 1990AUL    AUL 1906   1.256  26.227   6.708
 1991THSLK    S 1907   1.110  26.315   6.895
 1992ETHY    C1 1908   0.933  26.396   6.484
 1993ETHY    C1 1909   0.662  26.536   6.046
 1994ETHY    C1 1910   0.335  26.724   5.679
 1995ETHY    C1 1911  -0.034  26.953   5.385
 1996ETHY    C1 1912  -0.436  27.220   5.173
 1997ETHY    C1 1913  -0.865  27.522   5.047
 1998THSLK    S 1914   1.508  26.031   6.576
 1999ETHY    C1 1915   1.444  25.884   6.150
 2000ETHY    C1 1916   1.341  25.795   5.634
 2001ETHY    C1 1917   1.214  25.806   5.123
 2002ETHY    C1 1918   1.072  25.907   4.629
 2003ETHY    C1 1919   0.919  26.100   4.162
 2004ETHY    C1 1920   0.758  26.383   3.732
 2005AUSL   AUS 1921   2.327  26.332   7.503
 2006AUSL   AUS 1922   2.257  26.188   7.086
 2007AUL    AUL 1923   2.541  26.414   7.199
 2008THSLK    S 1924   2.435  26.287   6.934
 2009ETHY    C1 1925   2.805  26.260   6.671
 2010ETHY    C1 1926   3.227  26.316   6.349
 2011ETHY    C1 1927   3.617  26.470   6.030
 2012ETHY    C1 1928   3.969  26.707   5.724
 2013ETHY    C1 1929   4.276  27.028   5.438
 2014ETHY    C1 1930   4.532  27.427   5.179
 2015THSLK    S 1931   2.593  26.385   7.508
 2016ETHY    C1 1932   3.047  26.407   7.513
 2017ETHY    C1 1933   3.569  26.521   7.514
 2018ETHY    C1 1934   4.052  26.730   7.511
 2019ETHY    C1 1935   4.488  27.020   7.510
 2020ETHY    C1 1936   4.867  27.387   7.510
 2021ETHY    C1 1937   5.181  27.827   7.514
 2022AUSL   AUS 1938   2.421  26.087   7.351
 2023AUSL   AUS 1939   2.421  25.760   7.654
 2024AUL    AUL 1940   2.729  25.923   7.503
 2025THSLK    S 1941   2.677  26.126   7.350
 2026ETHY    C1 1942   3.113  26.018   7.286
 2027ETHY    C1 1943   3.639  25.980   7.201
 2028ETHY    C1 1944   4.154  26.044   7.113
 2029ETHY    C1 1945   4.648  26.198   7.026
 2030ETHY    C1 1946   5.108  26.443   6.945
 2031ETHY    C1 1947   5.527  26.775   6.873
 2032THSLK    S 1948   2.648  25.620   7.663
 2033ETHY    C1 1949   2.967  25.304   7.728
 2034ETHY    C1 1950   3.400  25.000   7.807
 2035ETHY    C1 1951   3.875  24.790   7.887
 2036ETHY    C1 1952   4.378  24.669   7.971
 2037ETHY    C1 1953   4.898  24.643   8.058
 2038ETHY    C1 1954   5.426  24.713   8.147
 2039AUSL   AUS 1955   2.421  26.087   7.654
 2040AUSL   AUS 1956   2.163  26.434   7.767
 2041AUL    AUL 1957   2.541  26.414   7.806
 2042THSLK    S 1958   2.346  26.548   7.926
 2043ETHY    C1 1959   2.729  26.666   8.140
 2044ETHY    C1 1960   3.147  26.889   8.388
 2045ETHY    C1 1961   3.506  27.194   8.622
 2046ETHY    C1 1962   3.803  27.567   8.840
 2047ETHY    C1 1963   4.028  28.001   9.038
 2048ETHY    C1 1964   4.175  28.489   9.215
 2049THSLK    S 1965   2.675  26.126   7.665
 2050ETHY    C1 1966   3.110  26.018   7.740
 2051ETHY    C1 1967   3.636  25.980   7.826
 2052ETHY    C1 1968   4.151  26.043   7.910
 2053ETHY    C1 1969   4.645  26.197   7.993
 2054ETHY    C1 1970   5.106  26.442   8.075
 2055ETHY    C1 1971   5.523  26.774   8.155
 2056AUSL   AUS 1972   1.167  26.332   7.503
 2057AUSL   AUS 1973   1.237  26.188   7.919
 2058AUL    AUL 1974   0.953  26.414   7.806
 2059THSLK    S 1975   1.104  26.307   8.109
 2060ETHY    C1 1976   0.921  26.379   8.519
 2061ETHY    C1 1977   0.649  26.519   8.957
 2062ETHY    C1 1978   0.324  26.710   9.324
 2063ETHY    C1 1979  -0.042  26.941   9.619
 2064ETHY    C1 1980  -0.445  27.208   9.831
 2065ETHY    C1 1981  -0.879  27.504   9.956
 2066THSLK    S 1982   0.956  26.473   7.508
 2067ETHY    C1 1983   0.734  26.870   7.513
 2068ETHY    C1 1984   0.398  27.285   7.514
 2069ETHY    C1 1985  -0.005  27.624   7.511
 2070ETHY    C1 1986  -0.459  27.885   7.510
 2071ETHY    C1 1987  -0.958  28.059   7.510
 2072ETHY    C1 1988  -1.491  28.143   7.514
 2073AUSL   AUS 1989   1.073  26.087   7.351
 2074AUSL   AUS 1990   1.331  26.434   7.238
 2075AUL    AUL 1991   0.953  26.414   7.199
 2076THSLK    S 1992   0.846  26.202   7.303
 2077ETHY    C1 1993   0.527  26.402   7.049
 2078ETHY    C1 1994   0.094  26.608   6.813
 2079ETHY    C1 1995  -0.381  26.774   6.661
 2080ETHY    C1 1996  -0.884  26.903   6.590
 2081ETHY    C1 1997  -1.404  26.993   6.605
 2082ETHY    C1 1998  -1.932  27.041   6.708
 2083THSLK    S 1999   1.219  26.597   7.060
 2084ETHY    C1 2000   1.140  26.907   6.737
 2085ETHY    C1 2001   0.965  27.281   6.397
 2086ETHY    C1 2002   0.711  27.649   6.120
 2087ETHY    C1 2003   0.391  28.006   5.909
 2088ETHY    C1 2004   0.010  28.344   5.770
 2089ETHY    C1 2005  -0.425  28.658   5.709
 2090AUSL   AUS 2006   1.073  26.087   7.654
 2091AUSL   AUS 2007   1.073  25.760   7.351
 2092AUL    AUL 2008   0.765  25.923   7.503
 2093THSLK    S 2009   0.819  25.687   7.394
 2094ETHY    C1 2010   0.384  25.669   7.524
 2095ETHY    C1 2011  -0.142  25.609   7.597
 2096ETHY    C1 2012  -0.657  25.505   7.578
 2097ETHY    C1 2013  -1.151  25.362   7.477
 2098ETHY    C1 2014  -1.611  25.179   7.294
 2099ETHY    C1 2015  -2.029  24.959   7.034
 2100THSLK    S 2016   0.845  26.193   7.707
 2101ETHY    C1 2017   0.524  26.384   7.966
 2102ETHY    C1 2018   0.091  26.588   8.202
 2103ETHY    C1 2019  -0.384  26.759   8.352
 2104ETHY    C1 2020  -0.886  26.891   8.422
 2105ETHY    C1 2021  -1.406  26.979   8.407
 2106ETHY    C1 2022  -1.935  27.020   8.308
 2107AUSL   AUS 2023   2.327  25.514   7.503
 2108AUSL   AUS 2024   2.257  25.659   7.919
 2109AUL    AUL 2025   2.541  25.433   7.806
 2110THSLK    S 2026   2.538  25.373   7.508
 2111ETHY    C1 2027   2.760  24.977   7.513
 2112ETHY    C1 2028   3.096  24.562   7.514
 2113ETHY    C1 2029   3.499  24.223   7.511
 2114ETHY    C1 2030   3.953  23.962   7.510
 2115ETHY    C1 2031   4.452  23.788   7.510
 2116ETHY    C1 2032   4.985  23.704   7.514
 2117THSLK    S 2033   2.384  25.468   8.064
 2118ETHY    C1 2034   2.561  25.103   8.270
 2119ETHY    C1 2035   2.832  24.731   8.540
 2120ETHY    C1 2036   3.159  24.442   8.834
 2121ETHY    C1 2037   3.528  24.234   9.142
 2122ETHY    C1 2038   3.930  24.116   9.462
 2123ETHY    C1 2039   4.359  24.091   9.789
 2124AUSL   AUS 2040   2.421  25.760   7.351
 2125AUSL   AUS 2041   2.163  25.413   7.238
 2126AUL    AUL 2042   2.541  25.433   7.199
 2127THSLK    S 2043   2.649  25.620   7.353
 2128ETHY    C1 2044   2.970  25.303   7.298
 2129ETHY    C1 2045   3.403  25.000   7.221
 2130ETHY    C1 2046   3.878  24.790   7.136
 2131ETHY    C1 2047   4.380  24.669   7.048
 2132ETHY    C1 2048   4.900  24.642   6.963
 2133ETHY    C1 2049   5.429  24.713   6.881
 2134THSLK    S 2050   2.279  25.224   7.108
 2135ETHY    C1 2051   2.363  24.795   6.984
 2136ETHY    C1 2052   2.538  24.323   6.803
 2137ETHY    C1 2053   2.791  23.912   6.593
 2138ETHY    C1 2054   3.109  23.564   6.366
 2139ETHY    C1 2055   3.491  23.289   6.126
 2140ETHY    C1 2056   3.929  23.092   5.880
 2141AUSL   AUS 2057   1.167  25.514   7.503
 2142AUSL   AUS 2058   1.237  25.659   7.086
 2143AUL    AUL 2059   0.953  25.433   7.199
 2144THSLK    S 2060   1.066  25.488   6.978
 2145ETHY    C1 2061   0.702  25.223   6.921
 2146ETHY    C1 2062   0.280  24.933   6.766
 2147ETHY    C1 2063  -0.112  24.681   6.521
 2148ETHY    C1 2064  -0.466  24.468   6.200
 2149ETHY    C1 2065  -0.773  24.295   5.806
 2150ETHY    C1 2066  -1.024  24.168   5.346
 2151THSLK    S 2067   0.901  25.462   7.508
 2152ETHY    C1 2068   0.447  25.440   7.513
 2153ETHY    C1 2069  -0.075  25.326   7.514
 2154ETHY    C1 2070  -0.557  25.117   7.511
 2155ETHY    C1 2071  -0.994  24.827   7.510
 2156ETHY    C1 2072  -1.373  24.460   7.510
 2157ETHY    C1 2073  -1.686  24.020   7.514
 2158AUSL   AUS 2074   1.073  25.760   7.654
 2159AUSL   AUS 2075   1.331  25.413   7.767
 2160AUL    AUL 2076   0.953  25.433   7.806
 2161THSLK    S 2077   1.143  25.273   7.878
 2162ETHY    C1 2078   0.756  25.036   7.893
 2163ETHY    C1 2079   0.338  24.716   7.982
 2164ETHY    C1 2080  -0.020  24.367   8.149
 2165ETHY    C1 2081  -0.315  24.003   8.382
 2166ETHY    C1 2082  -0.540  23.632   8.683
 2167ETHY    C1 2083  -0.691  23.261   9.045
 2168THSLK    S 2084   0.817  25.697   7.616
 2169ETHY    C1 2085   0.381  25.687   7.491
 2170ETHY    C1 2086  -0.145  25.628   7.419
 2171ETHY    C1 2087  -0.660  25.521   7.436
 2172ETHY    C1 2088  -1.154  25.375   7.535
 2173ETHY    C1 2089  -1.614  25.193   7.718
 2174ETHY    C1 2090  -2.033  24.980   7.983
 2175AUSL   AUS 2091   1.747  26.503   7.912
 2176AUSL   AUS 2092   1.331  26.434   7.767
 2177AUL    AUL 2093   1.444  26.718   7.993
 2178THSLK    S 2094   1.215  26.590   7.952
 2179ETHY    C1 2095   1.131  26.892   8.280
 2180ETHY    C1 2096   0.956  27.265   8.621
 2181ETHY    C1 2097   0.703  27.636   8.895
 2182ETHY    C1 2098   0.385  27.995   9.105
 2183ETHY    C1 2099   0.003  28.333   9.244
 2184ETHY    C1 2100  -0.435  28.641   9.309
 2185THSLK    S 2101   1.789  26.725   8.035
 2186ETHY    C1 2102   1.973  27.000   8.347
 2187ETHY    C1 2103   2.123  27.380   8.691
 2188ETHY    C1 2104   2.189  27.803   8.998
 2189ETHY    C1 2105   2.176  28.254   9.264
 2190ETHY    C1 2106   2.079  28.723   9.485
 2191ETHY    C1 2107   1.899  29.202   9.656
 2192AUSL   AUS 2108   1.595  26.597   7.666
 2193AUSL   AUS 2109   1.899  26.597   7.339
 2194AUL    AUL 2110   1.747  26.905   7.503
 2195THSLK    S 2111   1.638  26.841   7.776
 2196ETHY    C1 2112   1.782  27.235   7.951
 2197ETHY    C1 2113   1.869  27.729   8.137
 2198ETHY    C1 2114   1.857  28.230   8.294
 2199ETHY    C1 2115   1.756  28.728   8.425
 2200ETHY    C1 2116   1.564  29.209   8.527
 2201ETHY    C1 2117   1.284  29.664   8.600
 2202THSLK    S 2118   1.954  26.828   7.243
 2203ETHY    C1 2119   2.230  27.158   7.096
 2204ETHY    C1 2120   2.480  27.599   6.927
 2205ETHY    C1 2121   2.636  28.076   6.771
 2206ETHY    C1 2122   2.705  28.578   6.635
 2207ETHY    C1 2123   2.681  29.094   6.525
 2208ETHY    C1 2124   2.564  29.614   6.443
 2209AUSL   AUS 2125   1.899  26.597   7.666
 2210AUSL   AUS 2126   2.012  26.340   8.013
 2211AUL    AUL 2127   2.050  26.718   7.993
 2212THSLK    S 2128   2.183  26.448   8.183
 2213ETHY    C1 2129   2.478  26.513   8.523
 2214ETHY    C1 2130   2.796  26.675   8.920
 2215ETHY    C1 2131   3.064  26.924   9.298
 2216ETHY    C1 2132   3.278  27.246   9.653
 2217ETHY    C1 2133   3.430  27.634   9.976
 2218ETHY    C1 2134   3.516  28.084  10.262
 2219THSLK    S 2135   1.952  26.826   7.772
 2220ETHY    C1 2136   2.224  27.154   7.929
 2221ETHY    C1 2137   2.474  27.594   8.100
 2222ETHY    C1 2138   2.632  28.073   8.251
 2223ETHY    C1 2139   2.701  28.575   8.383
 2224ETHY    C1 2140   2.677  29.090   8.494
 2225ETHY    C1 2141   2.558  29.609   8.585
 2226AUSL   AUS 2142   1.747  25.343   7.912
 2227AUSL   AUS 2143   2.163  25.413   7.767
 2228AUL    AUL 2144   2.050  25.129   7.993
 2229THSLK    S 2145   1.700  25.093   7.989
 2230ETHY    C1 2146   1.510  24.697   8.103
 2231ETHY    C1 2147   1.359  24.219   8.289
 2232ETHY    C1 2148   1.296  23.754   8.528
 2233ETHY    C1 2149   1.311  23.312   8.809
 2234ETHY    C1 2150   1.407  22.905   9.132
 2235ETHY    C1 2151   1.582  22.542   9.489
 2236THSLK    S 2152   2.275  25.226   7.907
 2237ETHY    C1 2153   2.354  24.798   8.040
 2238ETHY    C1 2154   2.529  24.328   8.222
 2239ETHY    C1 2155   2.783  23.916   8.428
 2240ETHY    C1 2156   3.103  23.567   8.652
 2241ETHY    C1 2157   3.484  23.292   8.893
 2242ETHY    C1 2158   3.919  23.096   9.147
 2243AUSL   AUS 2159   1.595  25.250   7.666
 2244AUSL   AUS 2160   1.482  25.507   8.013
 2245AUL    AUL 2161   1.444  25.129   7.993
 2246THSLK    S 2162   1.540  25.014   7.745
 2247ETHY    C1 2163   1.265  24.655   7.788
 2248ETHY    C1 2164   1.014  24.190   7.869
 2249ETHY    C1 2165   0.858  23.700   7.981
 2250ETHY    C1 2166   0.789  23.201   8.122
 2251ETHY    C1 2167   0.813  22.701   8.292
 2252ETHY    C1 2168   0.930  22.213   8.489
 2253THSLK    S 2169   1.304  25.341   8.129
 2254ETHY    C1 2170   1.002  25.023   8.248
 2255ETHY    C1 2171   0.683  24.656   8.471
 2256ETHY    C1 2172   0.418  24.319   8.776
 2257ETHY    C1 2173   0.206  24.017   9.147
 2258ETHY    C1 2174   0.053  23.759   9.582
 2259ETHY    C1 2175  -0.038  23.552  10.072
 2260AUSL   AUS 2176   1.899  25.250   7.666
 2261AUSL   AUS 2177   1.595  25.250   7.339
 2262AUL    AUL 2178   1.747  24.942   7.503
 2263THSLK    S 2179   1.542  25.011   7.270
 2264ETHY    C1 2180   1.270  24.649   7.236
 2265ETHY    C1 2181   1.020  24.184   7.157
 2266ETHY    C1 2182   0.863  23.695   7.041
 2267ETHY    C1 2183   0.793  23.196   6.896
 2268ETHY    C1 2184   0.817  22.697   6.727
 2269ETHY    C1 2185   0.936  22.206   6.538
 2270THSLK    S 2186   1.853  24.998   7.749
 2271ETHY    C1 2187   1.706  24.572   7.811
 2272ETHY    C1 2188   1.620  24.054   7.906
 2273ETHY    C1 2189   1.632  23.541   8.025
 2274ETHY    C1 2190   1.734  23.046   8.165
 2275ETHY    C1 2191   1.926  22.581   8.325
 2276ETHY    C1 2192   2.204  22.155   8.504
 2277AUSL   AUS 2193   1.747  26.503   7.094
 2278AUSL   AUS 2194   2.163  26.434   7.238
 2279AUL    AUL 2195   2.050  26.718   7.012
 2280THSLK    S 2196   1.794  26.730   6.977
 2281ETHY    C1 2197   1.984  27.009   6.674
 2282ETHY    C1 2198   2.135  27.390   6.330
 2283ETHY    C1 2199   2.199  27.810   6.021
 2284ETHY    C1 2200   2.183  28.260   5.752
 2285ETHY    C1 2201   2.087  28.730   5.532
 2286ETHY    C1 2202   1.912  29.213   5.366
 2287THSLK    S 2203   2.351  26.550   7.089
 2288ETHY    C1 2204   2.738  26.670   6.883
 2289ETHY    C1 2205   3.156  26.893   6.637
 2290ETHY    C1 2206   3.514  27.197   6.400
 2291ETHY    C1 2207   3.809  27.569   6.178
 2292ETHY    C1 2208   4.034  28.004   5.981
 2293ETHY    C1 2209   4.185  28.493   5.811
 2294AUSL   AUS 2210   1.595  26.597   7.339
 2295AUSL   AUS 2211   1.482  26.340   6.992
 2296AUL    AUL 2212   1.444  26.718   7.012
 2297THSLK    S 2213   1.641  26.844   7.239
 2298ETHY    C1 2214   1.788  27.241   7.074
 2299ETHY    C1 2215   1.874  27.735   6.889
 2300ETHY    C1 2216   1.862  28.236   6.727
 2301ETHY    C1 2217   1.760  28.732   6.593
 2302ETHY    C1 2218   1.568  29.213   6.492
 2303ETHY    C1 2219   1.290  29.671   6.427
 2304THSLK    S 2220   1.372  26.472   6.805
 2305ETHY    C1 2221   1.336  26.621   6.377
 2306ETHY    C1 2222   1.226  26.847   5.906
 2307ETHY    C1 2223   1.048  27.122   5.494
 2308ETHY    C1 2224   0.814  27.435   5.145
 2309ETHY    C1 2225   0.528  27.784   4.870
 2310ETHY    C1 2226   0.197  28.162   4.675
 2311AUSL   AUS 2227   1.747  25.343   7.094
 2312AUSL   AUS 2228   1.331  25.413   7.238
 2313AUL    AUL 2229   1.444  25.129   7.012
 2314THSLK    S 2230   1.148  25.265   7.134
 2315ETHY    C1 2231   0.765  25.021   7.124
 2316ETHY    C1 2232   0.347  24.700   7.035
 2317ETHY    C1 2233  -0.012  24.354   6.866
 2318ETHY    C1 2234  -0.309  23.993   6.631
 2319ETHY    C1 2235  -0.534  23.621   6.331
 2320ETHY    C1 2236  -0.681  23.244   5.974
 2321THSLK    S 2237   1.705  25.088   7.024
 2322ETHY    C1 2238   1.521  24.687   6.917
 2323ETHY    C1 2239   1.371  24.209   6.732
 2324ETHY    C1 2240   1.305  23.746   6.491
 2325ETHY    C1 2241   1.318  23.306   6.206
 2326ETHY    C1 2242   1.415  22.899   5.885
 2327ETHY    C1 2243   1.595  22.531   5.533
 2328AUSL   AUS 2244   1.899  25.250   7.339
 2329AUSL   AUS 2245   2.012  25.507   6.992
 2330AUL    AUL 2246   2.050  25.129   7.012
 2331THSLK    S 2247   1.856  24.996   7.266
 2332ETHY    C1 2248   1.712  24.568   7.213
 2333ETHY    C1 2249   1.625  24.049   7.120
 2334ETHY    C1 2250   1.637  23.537   6.997
 2335ETHY    C1 2251   1.738  23.043   6.854
 2336ETHY    C1 2252   1.930  22.578   6.695
 2337ETHY    C1 2253   2.210  22.150   6.523
 2338THSLK    S 2254   2.129  25.317   6.859
 2339ETHY    C1 2255   2.173  24.915   6.651
 2340ETHY    C1 2256   2.283  24.484   6.355
 2341ETHY    C1 2257   2.459  24.121   6.017
 2342ETHY    C1 2258   2.690  23.827   5.651
 2343ETHY    C1 2259   2.976  23.610   5.264
 2344ETHY    C1 2260   3.313  23.474   4.865
 2345AUC    AUC 2261   9.410  27.007   7.503
 2346AUC    AUC 2262   9.655  27.007   7.351
 2347AUC    AUC 2263   9.655  27.007   7.654
 2348AUC    AUC 2264   9.165  27.007   7.351
 2349AUC    AUC 2265   9.165  27.007   7.654
 2350AUC    AUC 2266   9.258  27.253   7.503
 2351AUC    AUC 2267   9.562  27.253   7.503
 2352AUC    AUC 2268   9.258  26.762   7.503
 2353AUC    AUC 2269   9.562  26.762   7.503
 2354AUC    AUC 2270   9.410  26.856   7.748
 2355AUC    AUC 2271   9.410  27.159   7.748
 2356AUC    AUC 2272   9.410  26.856   7.257
 2357AUC    AUC 2273   9.410  27.159   7.257
 2358AUC    AUC 2274   9.901  27.007   7.199
 2359AUC    AUC 2275   9.901  27.007   7.503
 2360AUC    AUC 2276   9.901  27.007   7.806
 2361AUC    AUC 2277   8.919  27.007   7.199
 2362AUC    AUC 2278   8.919  27.007   7.503
 2363AUC    AUC 2279   8.919  27.007   7.806
 2364AUC    AUC 2280   9.107  27.498   7.503
 2365AUC    AUC 2281   9.410  27.498   7.503
 2366AUC    AUC 2282   9.713  27.498   7.503
 2367AUC    AUC 2283   9.107  26.517   7.503
 2368AUC    AUC 2284   9.410  26.517   7.503
 2369AUC    AUC 2285   9.713  26.517   7.503
 2370AUC    AUC 2286   9.410  26.704   7.993
 2371AUC    AUC 2287   9.410  27.007   7.993
 2372AUC    AUC 2288   9.410  27.311   7.993
 2373AUC    AUC 2289   9.410  26.704   7.012
 2374AUC    AUC 2290   9.410  27.007   7.012
 2375AUC    AUC 2291   9.410  27.311   7.012
 2376AUC    AUC 2292   9.655  26.856   7.900
 2377AUC    AUC 2293   9.655  27.159   7.900
 2378AUC    AUC 2294   9.655  26.856   7.106
 2379AUC    AUC 2295   9.655  27.159   7.106
 2380AUC    AUC 2296   9.165  26.856   7.900
 2381AUC    AUC 2297   9.165  27.159   7.900
 2382AUC    AUC 2298   9.165  26.856   7.106
 2383AUC    AUC 2299   9.165  27.159   7.106
 2384AUC    AUC 2300   9.807  27.253   7.351
 2385AUC    AUC 2301   9.807  27.253   7.654
 2386AUC    AUC 2302   9.013  27.253   7.351
 2387AUC    AUC 2303   9.013  27.253   7.654
 2388AUC    AUC 2304   9.807  26.762   7.351
 2389AUC    AUC 2305   9.807  26.762   7.654
 2390AUC    AUC 2306   9.013  26.762   7.351
 2391AUC    AUC 2307   9.013  26.762   7.654
 2392AUC    AUC 2308   9.258  27.405   7.748
 2393AUC    AUC 2309   9.562  27.405   7.748
 2394AUC    AUC 2310   9.258  26.610   7.748
 2395AUC    AUC 2311   9.562  26.610   7.748
 2396AUC    AUC 2312   9.258  27.405   7.257
 2397AUC    AUC 2313   9.562  27.405   7.257
 2398AUC    AUC 2314   9.258  26.610   7.257
 2399AUC    AUC 2315   9.562  26.610   7.257
 2400AUSL   AUS 2316   9.819  27.007   8.083
 2401AUSL   AUS 2317   9.675  26.591   8.013
 2402AUL    AUL 2318   9.901  26.704   8.297
 2403THSLK    S 2319   9.785  26.404   8.153
 2404ETHY    C1 2320   9.821  26.005   8.368
 2405ETHY    C1 2321   9.931  25.575   8.665
 2406ETHY    C1 2322  10.109  25.211   9.000
 2407ETHY    C1 2323  10.343  24.915   9.364
 2408ETHY    C1 2324  10.629  24.698   9.752
 2409ETHY    C1 2325  10.960  24.565  10.156
 2410THSLK    S 2326   9.912  26.955   8.324
 2411ETHY    C1 2327  10.116  26.735   8.665
 2412ETHY    C1 2328  10.380  26.558   9.094
 2413ETHY    C1 2329  10.656  26.482   9.535
 2414ETHY    C1 2330  10.933  26.499   9.980
 2415ETHY    C1 2331  11.203  26.612  10.419
 2416ETHY    C1 2332  11.462  26.821  10.845
 2417AUSL   AUS 2333   9.574  26.856   8.176
 2418AUSL   AUS 2334   9.246  27.159   8.176
 2419AUL    AUL 2335   9.410  27.007   8.484
 2420THSLK    S 2336   9.649  26.801   8.413
 2421ETHY    C1 2337   9.713  26.521   8.765
 2422ETHY    C1 2338   9.816  26.266   9.223
 2423ETHY    C1 2339   9.943  26.107   9.708
 2424ETHY    C1 2340  10.085  26.038  10.208
 2425ETHY    C1 2341  10.239  26.066  10.713
 2426ETHY    C1 2342  10.399  26.190  11.212
 2427THSLK    S 2343   9.161  27.113   8.428
 2428ETHY    C1 2344   9.087  26.963   8.850
 2429ETHY    C1 2345   8.982  26.875   9.367
 2430ETHY    C1 2346   8.860  26.887   9.878
 2431ETHY    C1 2347   8.722  26.988  10.373
 2432ETHY    C1 2348   8.567  27.181  10.840
 2433ETHY    C1 2349   8.398  27.462  11.268
 2434AUSL   AUS 2350   9.574  27.159   8.176
 2435AUSL   AUS 2351   9.920  27.272   7.919
 2436AUL    AUL 2352   9.901  27.311   8.297
 2437THSLK    S 2353   9.659  27.215   8.410
 2438ETHY    C1 2354   9.733  27.496   8.759
 2439ETHY    C1 2355   9.838  27.751   9.217
 2440ETHY    C1 2356   9.960  27.910   9.703
 2441ETHY    C1 2357  10.099  27.979  10.204
 2442ETHY    C1 2358  10.253  27.952  10.708
 2443ETHY    C1 2359  10.422  27.828  11.206
 2444THSLK    S 2360  10.092  27.370   8.080
 2445ETHY    C1 2361  10.455  27.341   8.350
 2446ETHY    C1 2362  10.877  27.397   8.673
 2447ETHY    C1 2363  11.269  27.551   8.989
 2448ETHY    C1 2364  11.623  27.789   9.293
 2449ETHY    C1 2365  11.930  28.110   9.580
 2450ETHY    C1 2366  12.181  28.507   9.844
 2451AUSL   AUS 2367   9.819  27.007   6.923
 2452AUSL   AUS 2368   9.675  27.424   6.992
 2453AUL    AUL 2369   9.901  27.311   6.708
 2454THSLK    S 2370   9.921  26.955   6.687
 2455ETHY    C1 2371  10.134  26.735   6.351
 2456ETHY    C1 2372  10.399  26.558   5.923
 2457ETHY    C1 2373  10.671  26.482   5.479
 2458ETHY    C1 2374  10.945  26.499   5.033
 2459ETHY    C1 2375  11.216  26.612   4.594
 2460ETHY    C1 2376  11.481  26.821   4.173
 2461THSLK    S 2377   9.853  27.535   6.829
 2462ETHY    C1 2378  10.155  27.603   6.497
 2463ETHY    C1 2379  10.474  27.766   6.100
 2464ETHY    C1 2380  10.739  28.013   5.719
 2465ETHY    C1 2381  10.951  28.333   5.362
 2466ETHY    C1 2382  11.104  28.723   5.039
 2467ETHY    C1 2383  11.195  29.175   4.759
 2468AUSL   AUS 2384   9.574  26.856   6.829
 2469AUSL   AUS 2385   9.920  26.743   7.086
 2470AUL    AUL 2386   9.901  26.704   6.708
 2471THSLK    S 2387  10.053  26.551   6.949
 2472ETHY    C1 2388  10.236  26.184   6.752
 2473ETHY    C1 2389  10.508  25.812   6.483
 2474ETHY    C1 2390  10.833  25.523   6.186
 2475ETHY    C1 2391  11.199  25.316   5.874
 2476ETHY    C1 2392  11.603  25.197   5.555
 2477ETHY    C1 2393  12.036  25.172   5.235
 2478THSLK    S 2394   9.659  26.800   6.596
 2479ETHY    C1 2395   9.733  26.519   6.246
 2480ETHY    C1 2396   9.838  26.263   5.788
 2481ETHY    C1 2397   9.960  26.105   5.302
 2482ETHY    C1 2398  10.099  26.036   4.801
 2483ETHY    C1 2399  10.253  26.063   4.297
 2484ETHY    C1 2400  10.422  26.187   3.799
 2485AUSL   AUS 2401   9.574  27.159   6.829
 2486AUSL   AUS 2402   9.246  26.856   6.829
 2487AUL    AUL 2403   9.410  27.007   6.521
 2488THSLK    S 2404   9.154  26.800   6.597
 2489ETHY    C1 2405   9.019  26.522   6.264
 2490ETHY    C1 2406   8.858  26.269   5.822
 2491ETHY    C1 2407   8.706  26.112   5.343
 2492ETHY    C1 2408   8.570  26.043   4.842
 2493ETHY    C1 2409   8.453  26.069   4.328
 2494ETHY    C1 2410   8.360  26.188   3.810
 2495THSLK    S 2411   9.676  27.113   6.583
 2496ETHY    C1 2412   9.822  26.963   6.179
 2497ETHY    C1 2413   9.984  26.872   5.678
 2498ETHY    C1 2414  10.131  26.882   5.173
 2499ETHY    C1 2415  10.264  26.983   4.677
 2500ETHY    C1 2416  10.381  27.178   4.200
 2501ETHY    C1 2417  10.482  27.464   3.754
 2502AUSL   AUS 2418   9.001  27.007   8.083
 2503AUSL   AUS 2419   9.145  27.424   8.013
 2504AUL    AUL 2420   8.919  27.311   8.297
 2505THSLK    S 2421   8.899  26.955   8.319
 2506ETHY    C1 2422   8.687  26.735   8.654
 2507ETHY    C1 2423   8.421  26.558   9.082
 2508ETHY    C1 2424   8.149  26.482   9.526
 2509ETHY    C1 2425   7.875  26.499   9.973
 2510ETHY    C1 2426   7.604  26.612  10.411
 2511ETHY    C1 2427   7.339  26.821  10.832
 2512THSLK    S 2428   9.028  27.548   8.202
 2513ETHY    C1 2429   8.985  27.691   8.632
 2514ETHY    C1 2430   8.874  27.916   9.104
 2515ETHY    C1 2431   8.698  28.193   9.515
 2516ETHY    C1 2432   8.467  28.509   9.863
 2517ETHY    C1 2433   8.181  28.857  10.138
 2518ETHY    C1 2434   7.844  29.230  10.334
 2519AUSL   AUS 2435   9.246  26.856   8.176
 2520AUSL   AUS 2436   8.900  26.743   7.919
 2521AUL    AUL 2437   8.919  26.704   8.297
 2522THSLK    S 2438   8.723  26.580   8.026
 2523ETHY    C1 2439   8.352  26.323   8.082
 2524ETHY    C1 2440   7.930  26.035   8.237
 2525ETHY    C1 2441   7.540  25.780   8.482
 2526ETHY    C1 2442   7.188  25.563   8.803
 2527ETHY    C1 2443   6.882  25.392   9.198
 2528ETHY    C1 2444   6.625  25.271   9.657
 2529THSLK    S 2445   9.144  26.802   8.406
 2530ETHY    C1 2446   8.998  26.526   8.736
 2531ETHY    C1 2447   8.836  26.274   9.178
 2532ETHY    C1 2448   8.689  26.116   9.658
 2533ETHY    C1 2449   8.556  26.046  10.160
 2534ETHY    C1 2450   8.439  26.072  10.674
 2535ETHY    C1 2451   8.338  26.193  11.190
 2536AUSL   AUS 2452   9.001  27.007   6.923
 2537AUSL   AUS 2453   9.145  26.591   6.992
 2538AUL    AUL 2454   8.919  26.704   6.708
 2539THSLK    S 2455   8.908  26.955   6.681
 2540ETHY    C1 2456   8.704  26.735   6.341
 2541ETHY    C1 2457   8.440  26.558   5.911
 2542ETHY    C1 2458   8.164  26.482   5.470
 2543ETHY    C1 2459   7.887  26.499   5.025
 2544ETHY    C1 2460   7.617  26.612   4.586
 2545ETHY    C1 2461   7.358  26.821   4.161
 2546THSLK    S 2462   8.974  26.418   6.878
 2547ETHY    C1 2463   8.679  26.092   6.760
 2548ETHY    C1 2464   8.361  25.725   6.538
 2549ETHY    C1 2465   8.093  25.390   6.233
 2550ETHY    C1 2466   7.879  25.090   5.861
 2551ETHY    C1 2467   7.727  24.832   5.426
 2552ETHY    C1 2468   7.641  24.620   4.937
 2553AUSL   AUS 2469   9.246  27.159   6.829
 2554AUSL   AUS 2470   8.900  27.272   7.086
 2555AUL    AUL 2471   8.919  27.311   6.708
 2556THSLK    S 2472   8.773  27.399   6.895
 2557ETHY    C1 2473   8.596  27.480   6.484
 2558ETHY    C1 2474   8.325  27.620   6.046
 2559ETHY    C1 2475   7.998  27.808   5.679
 2560ETHY    C1 2476   7.629  28.037   5.385
 2561ETHY    C1 2477   7.227  28.304   5.173
 2562ETHY    C1 2478   6.798  28.606   5.047
 2563THSLK    S 2479   9.171  27.115   6.576
 2564ETHY    C1 2480   9.107  26.968   6.150
 2565ETHY    C1 2481   9.004  26.879   5.634
 2566ETHY    C1 2482   8.877  26.890   5.123
 2567ETHY    C1 2483   8.735  26.991   4.629
 2568ETHY    C1 2484   8.582  27.184   4.162
 2569ETHY    C1 2485   8.421  27.467   3.732
 2570AUSL   AUS 2486   9.990  27.416   7.503
 2571AUSL   AUS 2487   9.920  27.272   7.086
 2572AUL    AUL 2488  10.204  27.498   7.199
 2573THSLK    S 2489  10.098  27.371   6.934
 2574ETHY    C1 2490  10.468  27.344   6.671
 2575ETHY    C1 2491  10.890  27.400   6.349
 2576ETHY    C1 2492  11.280  27.554   6.030
 2577ETHY    C1 2493  11.632  27.791   5.724
 2578ETHY    C1 2494  11.939  28.112   5.438
 2579ETHY    C1 2495  12.195  28.511   5.179
 2580THSLK    S 2496  10.256  27.469   7.508
 2581ETHY    C1 2497  10.710  27.491   7.513
 2582ETHY    C1 2498  11.232  27.605   7.514
 2583ETHY    C1 2499  11.715  27.814   7.511
 2584ETHY    C1 2500  12.151  28.104   7.510
 2585ETHY    C1 2501  12.530  28.471   7.510
 2586ETHY    C1 2502  12.844  28.911   7.514
 2587AUSL   AUS 2503  10.084  27.171   7.351
 2588AUSL   AUS 2504  10.084  26.844   7.654
 2589AUL    AUL 2505  10.392  27.007   7.503
 2590THSLK    S 2506  10.340  27.210   7.350
 2591ETHY    C1 2507  10.776  27.102   7.286
 2592ETHY    C1 2508  11.302  27.064   7.201
 2593ETHY    C1 2509  11.817  27.128   7.113
 2594ETHY    C1 2510  12.311  27.282   7.026
 2595ETHY    C1 2511  12.771  27.527   6.945
 2596ETHY    C1 2512  13.190  27.859   6.873
 2597THSLK    S 2513  10.311  26.704   7.663
 2598ETHY    C1 2514  10.630  26.388   7.728
 2599ETHY    C1 2515  11.063  26.084   7.807
 2600ETHY    C1 2516  11.538  25.874   7.887
 2601ETHY    C1 2517  12.041  25.753   7.971
 2602ETHY    C1 2518  12.561  25.727   8.058
 2603ETHY    C1 2519  13.089  25.797   8.147
 2604AUSL   AUS 2520  10.084  27.171   7.654
 2605AUSL   AUS 2521   9.826  27.518   7.767
 2606AUL    AUL 2522  10.204  27.498   7.806
 2607THSLK    S 2523  10.009  27.632   7.926
 2608ETHY    C1 2524  10.392  27.750   8.140
 2609ETHY    C1 2525  10.810  27.973   8.388
 2610ETHY    C1 2526  11.169  28.278   8.622
 2611ETHY    C1 2527  11.466  28.651   8.840
 2612ETHY    C1 2528  11.691  29.085   9.038
 2613ETHY    C1 2529  11.838  29.573   9.215
 2614THSLK    S 2530  10.338  27.210   7.665
 2615ETHY    C1 2531  10.773  27.102   7.740
 2616ETHY    C1 2532  11.299  27.064   7.826
 2617ETHY    C1 2533  11.814  27.127   7.910
 2618ETHY    C1 2534  12.308  27.281   7.993
 2619ETHY    C1 2535  12.769  27.526   8.075
 2620ETHY    C1 2536  13.186  27.858   8.155
 2621AUSL   AUS 2537   8.830  27.416   7.503
 2622AUSL   AUS 2538   8.900  27.272   7.919
 2623AUL    AUL 2539   8.616  27.498   7.806
 2624THSLK    S 2540   8.767  27.391   8.109
 2625ETHY    C1 2541   8.584  27.463   8.519
 2626ETHY    C1 2542   8.312  27.603   8.957
 2627ETHY    C1 2543   7.987  27.794   9.324
 2628ETHY    C1 2544   7.621  28.025   9.619
 2629ETHY    C1 2545   7.218  28.292   9.831
 2630ETHY    C1 2546   6.784  28.588   9.956
 2631THSLK    S 2547   8.619  27.557   7.508
 2632ETHY    C1 2548   8.397  27.954   7.513
 2633ETHY    C1 2549   8.061  28.369   7.514
 2634ETHY    C1 2550   7.658  28.708   7.511
 2635ETHY    C1 2551   7.204  28.969   7.510
 2636ETHY    C1 2552   6.705  29.143   7.510
 2637ETHY    C1 2553   6.172  29.227   7.514
 2638AUSL   AUS 2554   8.736  27.171   7.351
 2639AUSL   AUS 2555   8.994  27.518   7.238
 2640AUL    AUL 2556   8.616  27.498   7.199
 2641THSLK    S 2557   8.509  27.286   7.303
 2642ETHY    C1 2558   8.190  27.486   7.049
 2643ETHY    C1 2559   7.757  27.692   6.813
 2644ETHY    C1 2560   7.282  27.858   6.661
 2645ETHY    C1 2561   6.779  27.987   6.590
 2646ETHY    C1 2562   6.259  28.077   6.605
 2647ETHY    C1 2563   5.731  28.125   6.708
 2648THSLK    S 2564   8.882  27.681   7.060
 2649ETHY    C1 2565   8.803  27.991   6.737
 2650ETHY    C1 2566   8.628  28.365   6.397
 2651ETHY    C1 2567   8.374  28.733   6.120
 2652ETHY    C1 2568   8.054  29.090   5.909
 2653ETHY    C1 2569   7.673  29.428   5.770
 2654ETHY    C1 2570   7.238  29.742   5.709
 2655AUSL   AUS 2571   8.736  27.171   7.654
 2656AUSL   AUS 2572   8.736  26.844   7.351
 2657AUL    AUL 2573   8.428  27.007   7.503
 2658THSLK    S 2574   8.482  26.771   7.394
 2659ETHY    C1 2575   8.047  26.753   7.524
 2660ETHY    C1 2576   7.521  26.693   7.597
 2661ETHY    C1 2577   7.006  26.589   7.578
 2662ETHY    C1 2578   6.512  26.446   7.477
 2663ETHY    C1 2579   6.052  26.263   7.294
 2664ETHY    C1 2580   5.634  26.043   7.034
 2665THSLK    S 2581   8.508  27.277   7.707
 2666ETHY    C1 2582   8.187  27.468   7.966
 2667ETHY    C1 2583   7.754  27.672   8.202
 2668ETHY    C1 2584   7.279  27.843   8.352
 2669ETHY    C1 2585   6.777  27.975   8.422
 2670ETHY    C1 2586   6.257  28.063   8.407
 2671ETHY    C1 2587   5.728  28.104   8.308
 2672AUSL   AUS 2588   9.990  26.598   7.503
 2673AUSL   AUS 2589   9.920  26.743   7.919
 2674AUL    AUL 2590  10.204  26.517   7.806
 2675THSLK    S 2591  10.201  26.457   7.508
 2676ETHY    C1 2592  10.423  26.061   7.513
 2677ETHY    C1 2593  10.759  25.646   7.514
 2678ETHY    C1 2594  11.162  25.307   7.511
 2679ETHY    C1 2595  11.616  25.046   7.510
 2680ETHY    C1 2596  12.115  24.872   7.510
 2681ETHY    C1 2597  12.648  24.788   7.514
 2682THSLK    S 2598  10.047  26.552   8.064
 2683ETHY    C1 2599  10.224  26.187   8.270
 2684ETHY    C1 2600  10.495  25.815   8.540
 2685ETHY    C1 2601  10.822  25.526   8.834
 2686ETHY    C1 2602  11.191  25.318   9.142
 2687ETHY    C1 2603  11.593  25.200   9.462
 2688ETHY    C1 2604  12.022  25.175   9.789
 2689AUSL   AUS 2605  10.084  26.844   7.351
 2690AUSL   AUS 2606   9.826  26.497   7.238
 2691AUL    AUL 2607  10.204  26.517   7.199
 2692THSLK    S 2608  10.312  26.704   7.353
 2693ETHY    C1 2609  10.633  26.387   7.298
 2694ETHY    C1 2610  11.066  26.084   7.221
 2695ETHY    C1 2611  11.541  25.874   7.136
 2696ETHY    C1 2612  12.043  25.753   7.048
 2697ETHY    C1 2613  12.563  25.726   6.963
 2698ETHY    C1 2614  13.092  25.797   6.881
 2699THSLK    S 2615   9.942  26.308   7.108
 2700ETHY    C1 2616  10.026  25.879   6.984
 2701ETHY    C1 2617  10.201  25.407   6.803
 2702ETHY    C1 2618  10.454  24.996   6.593
 2703ETHY    C1 2619  10.772  24.648   6.366
 2704ETHY    C1 2620  11.154  24.373   6.126
 2705ETHY    C1 2621  11.592  24.176   5.880
 2706AUSL   AUS 2622   8.830  26.598   7.503
 2707AUSL   AUS 2623   8.900  26.743   7.086
 2708AUL    AUL 2624   8.616  26.517   7.199
 2709THSLK    S 2625   8.729  26.572   6.978
 2710ETHY    C1 2626   8.365  26.307   6.921
 2711ETHY    C1 2627   7.943  26.017   6.766
 2712ETHY    C1 2628   7.551  25.765   6.521
 2713ETHY    C1 2629   7.197  25.552   6.200
 2714ETHY    C1 2630   6.890  25.379   5.806
 2715ETHY    C1 2631   6.639  25.252   5.346
 2716THSLK    S 2632   8.564  26.546   7.508
 2717ETHY    C1 2633   8.110  26.524   7.513
 2718ETHY    C1 2634   7.588  26.410   7.514
 2719ETHY    C1 2635   7.106  26.201   7.511
 2720ETHY    C1 2636   6.669  25.911   7.510
 2721ETHY    C1 2637   6.290  25.544   7.510
 2722ETHY    C1 2638   5.977  25.104   7.514
 2723AUSL   AUS 2639   8.736  26.844   7.654
 2724AUSL   AUS 2640   8.994  26.497   7.767
 2725AUL    AUL 2641   8.616  26.517   7.806
 2726THSLK    S 2642   8.806  26.357   7.878
 2727ETHY    C1 2643   8.419  26.120   7.893
 2728ETHY    C1 2644   8.001  25.800   7.982
 2729ETHY    C1 2645   7.643  25.451   8.149
 2730ETHY    C1 2646   7.348  25.087   8.382
 2731ETHY    C1 2647   7.123  24.716   8.683
 2732ETHY    C1 2648   6.972  24.345   9.045
 2733THSLK    S 2649   8.480  26.781   7.616
 2734ETHY    C1 2650   8.044  26.771   7.491
 2735ETHY    C1 2651   7.518  26.712   7.419
 2736ETHY    C1 2652   7.003  26.605   7.436
 2737ETHY    C1 2653   6.509  26.459   7.535
 2738ETHY    C1 2654   6.049  26.277   7.718
 2739ETHY    C1 2655   5.630  26.064   7.983
 2740AUSL   AUS 2656   9.410  27.587   7.912
 2741AUSL   AUS 2657   8.994  27.518   7.767
 2742AUL    AUL 2658   9.107  27.802   7.993
 2743THSLK    S 2659   8.878  27.674   7.952
 2744ETHY    C1 2660   8.794  27.976   8.280
 2745ETHY    C1 2661   8.619  28.349   8.621
 2746ETHY    C1 2662   8.366  28.720   8.895
 2747ETHY    C1 2663   8.048  29.079   9.105
 2748ETHY    C1 2664   7.666  29.417   9.244
 2749ETHY    C1 2665   7.228  29.725   9.309
 2750THSLK    S 2666   9.452  27.809   8.035
 2751ETHY    C1 2667   9.636  28.084   8.347
 2752ETHY    C1 2668   9.786  28.464   8.691
 2753ETHY    C1 2669   9.852  28.887   8.998
 2754ETHY    C1 2670   9.839  29.338   9.264
 2755ETHY    C1 2671   9.742  29.807   9.485
 2756ETHY    C1 2672   9.562  30.286   9.656
 2757AUSL   AUS 2673   9.258  27.681   7.666
 2758AUSL   AUS 2674   9.562  27.681   7.339
 2759AUL    AUL 2675   9.410  27.989   7.503
 2760THSLK    S 2676   9.301  27.925   7.776
 2761ETHY    C1 2677   9.445  28.319   7.951
 2762ETHY    C1 2678   9.532  28.813   8.137
 2763ETHY    C1 2679   9.520  29.314   8.294
 2764ETHY    C1 2680   9.419  29.812   8.425
 2765ETHY    C1 2681   9.227  30.293   8.527
 2766ETHY    C1 2682   8.947  30.748   8.600
 2767THSLK    S 2683   9.617  27.912   7.243
 2768ETHY    C1 2684   9.893  28.242   7.096
 2769ETHY    C1 2685  10.143  28.683   6.927
 2770ETHY    C1 2686  10.299  29.160   6.771
 2771ETHY    C1 2687  10.368  29.662   6.635
 2772ETHY    C1 2688  10.344  30.178   6.525
 2773ETHY    C1 2689  10.227  30.698   6.443
 2774AUSL   AUS 2690   9.562  27.681   7.666
 2775AUSL   AUS 2691   9.675  27.424   8.013
 2776AUL    AUL 2692   9.713  27.802   7.993
 2777THSLK    S 2693   9.846  27.532   8.183
 2778ETHY    C1 2694  10.141  27.597   8.523
 2779ETHY    C1 2695  10.459  27.759   8.920
 2780ETHY    C1 2696  10.727  28.008   9.298
 2781ETHY    C1 2697  10.941  28.330   9.653
 2782ETHY    C1 2698  11.093  28.718   9.976
 2783ETHY    C1 2699  11.179  29.168  10.262
 2784THSLK    S 2700   9.615  27.910   7.772
 2785ETHY    C1 2701   9.887  28.238   7.929
 2786ETHY    C1 2702  10.137  28.678   8.100
 2787ETHY    C1 2703  10.295  29.157   8.251
 2788ETHY    C1 2704  10.364  29.659   8.383
 2789ETHY    C1 2705  10.340  30.174   8.494
 2790ETHY    C1 2706  10.221  30.693   8.585
 2791AUSL   AUS 2707   9.410  26.427   7.912
 2792AUSL   AUS 2708   9.826  26.497   7.767
 2793AUL    AUL 2709   9.713  26.213   7.993
 2794THSLK    S 2710   9.363  26.177   7.989
 2795ETHY    C1 2711   9.173  25.781   8.103
 2796ETHY    C1 2712   9.022  25.303   8.289
 2797ETHY    C1 2713   8.959  24.838   8.528
 2798ETHY    C1 2714   8.974  24.396   8.809
 2799ETHY    C1 2715   9.070  23.989   9.132
 2800ETHY    C1 2716   9.245  23.626   9.489
 2801THSLK    S 2717   9.938  26.310   7.907
 2802ETHY    C1 2718  10.017  25.882   8.040
 2803ETHY    C1 2719  10.192  25.412   8.222
 2804ETHY    C1 2720  10.446  25.000   8.428
 2805ETHY    C1 2721  10.766  24.651   8.652
 2806ETHY    C1 2722  11.147  24.376   8.893
 2807ETHY    C1 2723  11.582  24.180   9.147
 2808AUSL   AUS 2724   9.258  26.334   7.666
 2809AUSL   AUS 2725   9.145  26.591   8.013
 2810AUL    AUL 2726   9.107  26.213   7.993
 2811THSLK    S 2727   9.203  26.098   7.745
 2812ETHY    C1 2728   8.928  25.739   7.788
 2813ETHY    C1 2729   8.677  25.274   7.869
 2814ETHY    C1 2730   8.521  24.784   7.981
 2815ETHY    C1 2731   8.452  24.285   8.122
 2816ETHY    C1 2732   8.476  23.785   8.292
 2817ETHY    C1 2733   8.593  23.297   8.489
 2818THSLK    S 2734   8.967  26.425   8.129
 2819ETHY    C1 2735   8.665  26.107   8.248
 2820ETHY    C1 2736   8.346  25.740   8.471
 2821ETHY    C1 2737   8.081  25.403   8.776
 2822ETHY    C1 2738   7.869  25.101   9.147
 2823ETHY    C1 2739   7.716  24.843   9.582
 2824ETHY    C1 2740   7.625  24.636  10.072
 2825AUSL   AUS 2741   9.562  26.334   7.666
 2826AUSL   AUS 2742   9.258  26.334   7.339
 2827AUL    AUL 2743   9.410  26.026   7.503
 2828THSLK    S 2744   9.205  26.095   7.270
 2829ETHY    C1 2745   8.933  25.733   7.236
 2830ETHY    C1 2746   8.683  25.268   7.157
 2831ETHY    C1 2747   8.526  24.779   7.041
 2832ETHY    C1 2748   8.456  24.280   6.896
 2833ETHY    C1 2749   8.480  23.781   6.727
 2834ETHY    C1 2750   8.599  23.290   6.538
 2835THSLK    S 2751   9.516  26.082   7.749
 2836ETHY    C1 2752   9.369  25.656   7.811
 2837ETHY    C1 2753   9.283  25.138   7.906
 2838ETHY    C1 2754   9.295  24.625   8.025
 2839ETHY    C1 2755   9.397  24.130   8.165
 2840ETHY    C1 2756   9.589  23.665   8.325
 2841ETHY    C1 2757   9.867  23.239   8.504
 2842AUSL   AUS 2758   9.410  27.587   7.094
 2843AUSL   AUS 2759   9.826  27.518   7.238
 2844AUL    AUL 2760   9.713  27.802   7.012
 2845THSLK    S 2761   9.457  27.814   6.977
 2846ETHY    C1 2762   9.647  28.093   6.674
 2847ETHY    C1 2763   9.798  28.474   6.330
 2848ETHY    C1 2764   9.862  28.894   6.021
 2849ETHY    C1 2765   9.846  29.344   5.752
 2850ETHY    C1 2766   9.750  29.814   5.532
 2851ETHY    C1 2767   9.575  30.297   5.366
 2852THSLK    S 2768  10.014  27.634   7.089
 2853ETHY    C1 2769  10.401  27.754   6.883
 2854ETHY    C1 2770  10.819  27.977   6.637
 2855ETHY    C1 2771  11.177  28.281   6.400
 2856ETHY    C1 2772  11.472  28.653   6.178
 2857ETHY    C1 2773  11.697  29.088   5.981
 2858ETHY    C1 2774  11.848  29.577   5.811
 2859AUSL   AUS 2775   9.258  27.681   7.339
 2860AUSL   AUS 2776   9.145  27.424   6.992
 2861AUL    AUL 2777   9.107  27.802   7.012
 2862THSLK    S 2778   9.304  27.928   7.239
 2863ETHY    C1 2779   9.451  28.325   7.074
 2864ETHY    C1 2780   9.537  28.819   6.889
 2865ETHY    C1 2781   9.525  29.320   6.727
 2866ETHY    C1 2782   9.423  29.816   6.593
 2867ETHY    C1 2783   9.231  30.297   6.492
 2868ETHY    C1 2784   8.953  30.755   6.427
 2869THSLK    S 2785   9.035  27.556   6.805
 2870ETHY    C1 2786   8.999  27.705   6.377
 2871ETHY    C1 2787   8.889  27.931   5.906
 2872ETHY    C1 2788   8.711  28.206   5.494
 2873ETHY    C1 2789   8.477  28.519   5.145
 2874ETHY    C1 2790   8.191  28.868   4.870
 2875ETHY    C1 2791   7.860  29.246   4.675
 2876AUSL   AUS 2792   9.410  26.427   7.094
 2877AUSL   AUS 2793   8.994  26.497   7.238
 2878AUL    AUL 2794   9.107  26.213   7.012
 2879THSLK    S 2795   8.811  26.349   7.134
 2880ETHY    C1 2796   8.428  26.105   7.124
 2881ETHY    C1 2797   8.010  25.784   7.035
 2882ETHY    C1 2798   7.651  25.438   6.866
 2883ETHY    C1 2799   7.354  25.077   6.631
 2884ETHY    C1 2800   7.129  24.705   6.331
 2885ETHY    C1 2801   6.982  24.328   5.974
 2886THSLK    S 2802   9.368  26.172   7.024
 2887ETHY    C1 2803   9.184  25.771   6.917
 2888ETHY    C1 2804   9.034  25.293   6.732
 2889ETHY    C1 2805   8.968  24.830   6.491
 2890ETHY    C1 2806   8.981  24.390   6.206
 2891ETHY    C1 2807   9.078  23.983   5.885
 2892ETHY    C1 2808   9.258  23.615   5.533
 2893AUSL   AUS 2809   9.562  26.334   7.339
 2894AUSL   AUS 2810   9.675  26.591   6.992
 2895AUL    AUL 2811   9.713  26.213   7.012
 2896THSLK    S 2812   9.519  26.080   7.266
 2897ETHY    C1 2813   9.375  25.652   7.213
 2898ETHY    C1 2814   9.288  25.133   7.120
 2899ETHY    C1 2815   9.300  24.621   6.997
 2900ETHY    C1 2816   9.401  24.127   6.854
 2901ETHY    C1 2817   9.593  23.662   6.695
 2902ETHY    C1 2818   9.873  23.234   6.523
 2903THSLK    S 2819   9.792  26.401   6.859
 2904ETHY    C1 2820   9.836  25.999   6.651
 2905ETHY    C1 2821   9.946  25.568   6.355
 2906ETHY    C1 2822  10.122  25.205   6.017
 2907ETHY    C1 2823  10.353  24.911   5.651
 2908ETHY    C1 2824  10.639  24.694   5.264
 2909ETHY    C1 2825  10.976  24.558   4.865
 2910AUC    AUC 2826  37.048  46.602   7.503
 2911AUC    AUC 2827  37.293  46.602   7.351
 2912AUC    AUC 2828  37.293  46.602   7.654
 2913AUC    AUC 2829  36.803  46.602   7.351
 2914AUC    AUC 2830  36.803  46.602   7.654
 2915AUC    AUC 2831  36.896  46.848   7.503
 2916AUC    AUC 2832  37.200  46.848   7.503
 2917AUC    AUC 2833  36.896  46.357   7.503
 2918AUC    AUC 2834  37.200  46.357   7.503
 2919AUC    AUC 2835  37.048  46.451   7.748
 2920AUC    AUC 2836  37.048  46.754   7.748
 2921AUC    AUC 2837  37.048  46.451   7.257
 2922AUC    AUC 2838  37.048  46.754   7.257
 2923AUC    AUC 2839  37.539  46.602   7.199
 2924AUC    AUC 2840  37.539  46.602   7.503
 2925AUC    AUC 2841  37.539  46.602   7.806
 2926AUC    AUC 2842  36.557  46.602   7.199
 2927AUC    AUC 2843  36.557  46.602   7.503
 2928AUC    AUC 2844  36.557  46.602   7.806
 2929AUC    AUC 2845  36.745  47.093   7.503
 2930AUC    AUC 2846  37.048  47.093   7.503
 2931AUC    AUC 2847  37.351  47.093   7.503
 2932AUC    AUC 2848  36.745  46.112   7.503
 2933AUC    AUC 2849  37.048  46.112   7.503
 2934AUC    AUC 2850  37.351  46.112   7.503
 2935AUC    AUC 2851  37.048  46.299   7.993
 2936AUC    AUC 2852  37.048  46.602   7.993
 2937AUC    AUC 2853  37.048  46.906   7.993
 2938AUC    AUC 2854  37.048  46.299   7.012
 2939AUC    AUC 2855  37.048  46.602   7.012
 2940AUC    AUC 2856  37.048  46.906   7.012
 2941AUC    AUC 2857  37.293  46.451   7.900
 2942AUC    AUC 2858  37.293  46.754   7.900
 2943AUC    AUC 2859  37.293  46.451   7.106
 2944AUC    AUC 2860  37.293  46.754   7.106
 2945AUC    AUC 2861  36.803  46.451   7.900
 2946AUC    AUC 2862  36.803  46.754   7.900
 2947AUC    AUC 2863  36.803  46.451   7.106
 2948AUC    AUC 2864  36.803  46.754   7.106
 2949AUC    AUC 2865  37.445  46.848   7.351
 2950AUC    AUC 2866  37.445  46.848   7.654
 2951AUC    AUC 2867  36.651  46.848   7.351
 2952AUC    AUC 2868  36.651  46.848   7.654
 2953AUC    AUC 2869  37.445  46.357   7.351
 2954AUC    AUC 2870  37.445  46.357   7.654
 2955AUC    AUC 2871  36.651  46.357   7.351
 2956AUC    AUC 2872  36.651  46.357   7.654
 2957AUC    AUC 2873  36.896  47.000   7.748
 2958AUC    AUC 2874  37.200  47.000   7.748
 2959AUC    AUC 2875  36.896  46.205   7.748
 2960AUC    AUC 2876  37.200  46.205   7.748
 2961AUC    AUC 2877  36.896  47.000   7.257
 2962AUC    AUC 2878  37.200  47.000   7.257
 2963AUC    AUC 2879  36.896  46.205   7.257
 2964AUC    AUC 2880  37.200  46.205   7.257
 2965AUSL   AUS 2881  37.457  46.602   8.083
 2966AUSL   AUS 2882  37.313  46.186   8.013
 2967AUL    AUL 2883  37.539  46.299   8.297
 2968THSLK    S 2884  37.423  45.999   8.153
 2969ETHY    C1 2885  37.459  45.600   8.368
 2970ETHY    C1 2886  37.569  45.170   8.665
 2971ETHY    C1 2887  37.747  44.806   9.000
 2972ETHY    C1 2888  37.981  44.510   9.364
 2973ETHY    C1 2889  38.267  44.293   9.752
 2974ETHY    C1 2890  38.598  44.160  10.156
 2975THSLK    S 2891  37.550  46.550   8.324
 2976ETHY    C1 2892  37.754  46.330   8.665
 2977ETHY    C1 2893  38.018  46.153   9.094
 2978ETHY    C1 2894  38.294  46.077   9.535
 2979ETHY    C1 2895  38.571  46.094   9.980
 2980ETHY    C1 2896  38.841  46.207  10.419
 2981ETHY    C1 2897  39.100  46.416  10.845
 2982AUSL   AUS 2898  37.212  46.451   8.176
 2983AUSL   AUS 2899  36.884  46.754   8.176
 2984AUL    AUL 2900  37.048  46.602   8.484
 2985THSLK    S 2901  37.287  46.396   8.413
 2986ETHY    C1 2902  37.351  46.116   8.765
 2987ETHY    C1 2903  37.454  45.861   9.223
 2988ETHY    C1 2904  37.581  45.702   9.708
 2989ETHY    C1 2905  37.723  45.633  10.208
 2990ETHY    C1 2906  37.877  45.661  10.713
 2991ETHY    C1 2907  38.037  45.785  11.212
 2992THSLK    S 2908  36.799  46.708   8.428
 2993ETHY    C1 2909  36.725  46.558   8.850
 2994ETHY    C1 2910  36.620  46.470   9.367
 2995ETHY    C1 2911  36.498  46.482   9.878
 2996ETHY    C1 2912  36.360  46.583  10.373
 2997ETHY    C1 2913  36.205  46.776  10.840
 2998ETHY    C1 2914  36.036  47.057  11.268
 2999AUSL   AUS 2915  37.212  46.754   8.176
 3000AUSL   AUS 2916  37.558  46.867   7.919
 3001AUL    AUL 2917  37.539  46.906   8.297
 3002THSLK    S 2918  37.297  46.810   8.410
 3003ETHY    C1 2919  37.371  47.091   8.759
 3004ETHY    C1 2920  37.476  47.346   9.217
 3005ETHY    C1 2921  37.598  47.505   9.703
 3006ETHY    C1 2922  37.737  47.574  10.204
 3007ETHY    C1 2923  37.891  47.547  10.708
 3008ETHY    C1 2924  38.060  47.423  11.206
 3009THSLK    S 2925  37.730  46.965   8.080
 3010ETHY    C1 2926  38.093  46.936   8.350
 3011ETHY    C1 2927  38.515  46.992   8.673
 3012ETHY    C1 2928  38.907  47.146   8.989
 3013ETHY    C1 2929  39.261  47.384   9.293
 3014ETHY    C1 2930  39.568  47.705   9.580
 3015ETHY    C1 2931  39.819  48.102   9.844
 3016AUSL   AUS 2932  37.457  46.602   6.923
 3017AUSL   AUS 2933  37.313  47.019   6.992
 3018AUL    AUL 2934  37.539  46.906   6.708
 3019THSLK    S 2935  37.559  46.550   6.687
 3020ETHY    C1 2936  37.772  46.330   6.351
 3021ETHY    C1 2937  38.037  46.153   5.923
 3022ETHY    C1 2938  38.309  46.077   5.479
 3023ETHY    C1 2939  38.583  46.094   5.033
 3024ETHY    C1 2940  38.854  46.207   4.594
 3025ETHY    C1 2941  39.119  46.416   4.173
 3026THSLK    S 2942  37.491  47.130   6.829
 3027ETHY    C1 2943  37.793  47.198   6.497
 3028ETHY    C1 2944  38.112  47.361   6.100
 3029ETHY    C1 2945  38.377  47.608   5.719
 3030ETHY    C1 2946  38.589  47.928   5.362
 3031ETHY    C1 2947  38.742  48.318   5.039
 3032ETHY    C1 2948  38.833  48.770   4.759
 3033AUSL   AUS 2949  37.212  46.451   6.829
 3034AUSL   AUS 2950  37.558  46.338   7.086
 3035AUL    AUL 2951  37.539  46.299   6.708
 3036THSLK    S 2952  37.691  46.146   6.949
 3037ETHY    C1 2953  37.874  45.779   6.752
 3038ETHY    C1 2954  38.146  45.407   6.483
 3039ETHY    C1 2955  38.471  45.118   6.186
 3040ETHY    C1 2956  38.837  44.911   5.874
 3041ETHY    C1 2957  39.241  44.792   5.555
 3042ETHY    C1 2958  39.674  44.767   5.235
 3043THSLK    S 2959  37.297  46.395   6.596
 3044ETHY    C1 2960  37.371  46.114   6.246
 3045ETHY    C1 2961  37.476  45.858   5.788
 3046ETHY    C1 2962  37.598  45.700   5.302
 3047ETHY    C1 2963  37.737  45.631   4.801
 3048ETHY    C1 2964  37.891  45.658   4.297
 3049ETHY    C1 2965  38.060  45.782   3.799
 3050AUSL   AUS 2966  37.212  46.754   6.829
 3051AUSL   AUS 2967  36.884  46.451   6.829
 3052AUL    AUL 2968  37.048  46.602   6.521
 3053THSLK    S 2969  36.792  46.395   6.597
 3054ETHY    C1 2970  36.657  46.117   6.264
 3055ETHY    C1 2971  36.496  45.864   5.822
 3056ETHY    C1 2972  36.344  45.707   5.343
 3057ETHY    C1 2973  36.208  45.638   4.842
 3058ETHY    C1 2974  36.091  45.664   4.328
 3059ETHY    C1 2975  35.998  45.783   3.810
 3060THSLK    S 2976  37.314  46.708   6.583
 3061ETHY    C1 2977  37.460  46.558   6.179
 3062ETHY    C1 2978  37.622  46.467   5.678
 3063ETHY    C1 2979  37.769  46.477   5.173
 3064ETHY    C1 2980  37.902  46.578   4.677
 3065ETHY    C1 2981  38.019  46.773   4.200
 3066ETHY    C1 2982  38.120  47.059   3.754
 3067AUSL   AUS 2983  36.639  46.602   8.083
 3068AUSL   AUS 2984  36.783  47.019   8.013
 3069AUL    AUL 2985  36.557  46.906   8.297
 3070THSLK    S 2986  36.537  46.550   8.319
 3071ETHY    C1 2987  36.325  46.330   8.654
 3072ETHY    C1 2988  36.059  46.153   9.082
 3073ETHY    C1 2989  35.787  46.077   9.526
 3074ETHY    C1 2990  35.513  46.094   9.973
 3075ETHY    C1 2991  35.242  46.207  10.411
 3076ETHY    C1 2992  34.977  46.416  10.832
 3077THSLK    S 2993  36.666  47.143   8.202
 3078ETHY    C1 2994  36.623  47.286   8.632
 3079ETHY    C1 2995  36.512  47.511   9.104
 3080ETHY    C1 2996  36.336  47.788   9.515
 3081ETHY    C1 2997  36.105  48.104   9.863
 3082ETHY    C1 2998  35.819  48.452  10.138
 3083ETHY    C1 2999  35.482  48.825  10.334
 3084AUSL   AUS 3000  36.884  46.451   8.176
 3085AUSL   AUS 3001  36.538  46.338   7.919
 3086AUL    AUL 3002  36.557  46.299   8.297
 3087THSLK    S 3003  36.361  46.175   8.026
 3088ETHY    C1 3004  35.990  45.918   8.082
 3089ETHY    C1 3005  35.568  45.630   8.237
 3090ETHY    C1 3006  35.178  45.375   8.482
 3091ETHY    C1 3007  34.826  45.158   8.803
 3092ETHY    C1 3008  34.520  44.987   9.198
 3093ETHY    C1 3009  34.263  44.866   9.657
 3094THSLK    S 3010  36.782  46.397   8.406
 3095ETHY    C1 3011  36.636  46.121   8.736
 3096ETHY    C1 3012  36.474  45.869   9.178
 3097ETHY    C1 3013  36.327  45.711   9.658
 3098ETHY    C1 3014  36.194  45.641  10.160
 3099ETHY    C1 3015  36.077  45.667  10.674
 3100ETHY    C1 3016  35.976  45.788  11.190
 3101AUSL   AUS 3017  36.639  46.602   6.923
 3102AUSL   AUS 3018  36.783  46.186   6.992
 3103AUL    AUL 3019  36.557  46.299   6.708
 3104THSLK    S 3020  36.546  46.550   6.681
 3105ETHY    C1 3021  36.342  46.330   6.341
 3106ETHY    C1 3022  36.078  46.153   5.911
 3107ETHY    C1 3023  35.802  46.077   5.470
 3108ETHY    C1 3024  35.525  46.094   5.025
 3109ETHY    C1 3025  35.255  46.207   4.586
 3110ETHY    C1 3026  34.996  46.416   4.161
 3111THSLK    S 3027  36.612  46.013   6.878
 3112ETHY    C1 3028  36.317  45.687   6.760
 3113ETHY    C1 3029  35.999  45.320   6.538
 3114ETHY    C1 3030  35.731  44.985   6.233
 3115ETHY    C1 3031  35.517  44.685   5.861
 3116ETHY    C1 3032  35.365  44.427   5.426
 3117ETHY    C1 3033  35.279  44.215   4.937
 3118AUSL   AUS 3034  36.884  46.754   6.829
 3119AUSL   AUS 3035  36.538  46.867   7.086
 3120AUL    AUL 3036  36.557  46.906   6.708
 3121THSLK    S 3037  36.411  46.994   6.895
 3122ETHY    C1 3038  36.234  47.075   6.484
 3123ETHY    C1 3039  35.963  47.215   6.046
 3124ETHY    C1 3040  35.636  47.403   5.679
 3125ETHY    C1 3041  35.267  47.632   5.385
 3126ETHY    C1 3042  34.865  47.899   5.173
 3127ETHY    C1 3043  34.436  48.201   5.047
 3128THSLK    S 3044  36.809  46.710   6.576
 3129ETHY    C1 3045  36.745  46.563   6.150
 3130ETHY    C1 3046  36.642  46.474   5.634
 3131ETHY    C1 3047  36.515  46.485   5.123
 3132ETHY    C1 3048  36.373  46.586   4.629
 3133ETHY    C1 3049  36.220  46.779   4.162
 3134ETHY    C1 3050  36.059  47.062   3.732
 3135AUSL   AUS 3051  37.628  47.011   7.503
 3136AUSL   AUS 3052  37.558  46.867   7.086
 3137AUL    AUL 3053  37.842  47.093   7.199
 3138THSLK    S 3054  37.736  46.966   6.934
 3139ETHY    C1 3055  38.106  46.939   6.671
 3140ETHY    C1 3056  38.528  46.995   6.349
 3141ETHY    C1 3057  38.918  47.149   6.030
 3142ETHY    C1 3058  39.270  47.386   5.724
 3143ETHY    C1 3059  39.577  47.707   5.438
 3144ETHY    C1 3060  39.833  48.106   5.179
 3145THSLK    S 3061  37.894  47.064   7.508
 3146ETHY    C1 3062  38.348  47.086   7.513
 3147ETHY    C1 3063  38.870  47.200   7.514
 3148ETHY    C1 3064  39.353  47.409   7.511
 3149ETHY    C1 3065  39.789  47.699   7.510
 3150ETHY    C1 3066  40.168  48.066   7.510
 3151ETHY    C1 3067  40.482  48.506   7.514
 3152AUSL   AUS 3068  37.722  46.766   7.351
 3153AUSL   AUS 3069  37.722  46.439   7.654
 3154AUL    AUL 3070  38.030  46.602   7.503
 3155THSLK    S 3071  37.978  46.805   7.350
 3156ETHY    C1 3072  38.414  46.697   7.286
 3157ETHY    C1 3073  38.940  46.659   7.201
 3158ETHY    C1 3074  39.455  46.723   7.113
 3159ETHY    C1 3075  39.949  46.877   7.026
 3160ETHY    C1 3076  40.409  47.122   6.945
 3161ETHY    C1 3077  40.828  47.454   6.873
 3162THSLK    S 3078  37.949  46.299   7.663
 3163ETHY    C1 3079  38.268  45.983   7.728
 3164ETHY    C1 3080  38.701  45.679   7.807
 3165ETHY    C1 3081  39.176  45.469   7.887
 3166ETHY    C1 3082  39.679  45.348   7.971
 3167ETHY    C1 3083  40.199  45.322   8.058
 3168ETHY    C1 3084  40.727  45.392   8.147
 3169AUSL   AUS 3085  37.722  46.766   7.654
 3170AUSL   AUS 3086  37.464  47.113   7.767
 3171AUL    AUL 3087  37.842  47.093   7.806
 3172THSLK    S 3088  37.647  47.227   7.926
 3173ETHY    C1 3089  38.030  47.345   8.140
 3174ETHY    C1 3090  38.448  47.568   8.388
 3175ETHY    C1 3091  38.807  47.873   8.622
 3176ETHY    C1 3092  39.104  48.246   8.840
 3177ETHY    C1 3093  39.329  48.680   9.038
 3178ETHY    C1 3094  39.476  49.168   9.215
 3179THSLK    S 3095  37.976  46.805   7.665
 3180ETHY    C1 3096  38.411  46.697   7.740
 3181ETHY    C1 3097  38.937  46.659   7.826
 3182ETHY    C1 3098  39.452  46.722   7.910
 3183ETHY    C1 3099  39.946  46.876   7.993
 3184ETHY    C1 3100  40.407  47.121   8.075
 3185ETHY    C1 3101  40.824  47.453   8.155
 3186AUSL   AUS 3102  36.468  47.011   7.503
 3187AUSL   AUS 3103  36.538  46.867   7.919
 3188AUL    AUL 3104  36.254  47.093   7.806
 3189THSLK    S 3105  36.405  46.986   8.109
 3190ETHY    C1 3106  36.222  47.058   8.519
 3191ETHY    C1 3107  35.950  47.198   8.957
 3192ETHY    C1 3108  35.625  47.389   9.324
 3193ETHY    C1 3109  35.259  47.620   9.619
 3194ETHY    C1 3110  34.856  47.887   9.831
 3195ETHY    C1 3111  34.422  48.183   9.956
 3196THSLK    S 3112  36.257  47.152   7.508
 3197ETHY    C1 3113  36.035  47.549   7.513
 3198ETHY    C1 3114  35.699  47.964   7.514
 3199ETHY    C1 3115  35.296  48.303   7.511
 3200ETHY    C1 3116  34.842  48.564   7.510
 3201ETHY    C1 3117  34.343  48.738   7.510
 3202ETHY    C1 3118  33.810  48.822   7.514
 3203AUSL   AUS 3119  36.374  46.766   7.351
 3204AUSL   AUS 3120  36.632  47.113   7.238
 3205AUL    AUL 3121  36.254  47.093   7.199
 3206THSLK    S 3122  36.147  46.881   7.303
 3207ETHY    C1 3123  35.828  47.081   7.049
 3208ETHY    C1 3124  35.395  47.287   6.813
 3209ETHY    C1 3125  34.920  47.453   6.661
 3210ETHY    C1 3126  34.417  47.582   6.590
 3211ETHY    C1 3127  33.897  47.672   6.605
 3212ETHY    C1 3128  33.369  47.720   6.708
 3213THSLK    S 3129  36.520  47.276   7.060
 3214ETHY    C1 3130  36.441  47.586   6.737
 3215ETHY    C1 3131  36.266  47.960   6.397
 3216ETHY    C1 3132  36.012  48.328   6.120
 3217ETHY    C1 3133  35.692  48.685   5.909
 3218ETHY    C1 3134  35.311  49.023   5.770
 3219ETHY    C1 3135  34.876  49.337   5.709
 3220AUSL   AUS 3136  36.374  46.766   7.654
 3221AUSL   AUS 3137  36.374  46.439   7.351
 3222AUL    AUL 3138  36.066  46.602   7.503
 3223THSLK    S 3139  36.120  46.366   7.394
 3224ETHY    C1 3140  35.685  46.348   7.524
 3225ETHY    C1 3141  35.159  46.288   7.597
 3226ETHY    C1 3142  34.644  46.184   7.578
 3227ETHY    C1 3143  34.150  46.041   7.477
 3228ETHY    C1 3144  33.690  45.858   7.294
 3229ETHY    C1 3145  33.272  45.638   7.034
 3230THSLK    S 3146  36.146  46.872   7.707
 3231ETHY    C1 3147  35.825  47.063   7.966
 3232ETHY    C1 3148  35.392  47.267   8.202
 3233ETHY    C1 3149  34.917  47.438   8.352
 3234ETHY    C1 3150  34.415  47.570   8.422
 3235ETHY    C1 3151  33.895  47.658   8.407
 3236ETHY    C1 3152  33.366  47.699   8.308
 3237AUSL   AUS 3153  37.628  46.193   7.503
 3238AUSL   AUS 3154  37.558  46.338   7.919
 3239AUL    AUL 3155  37.842  46.112   7.806
 3240THSLK    S 3156  37.839  46.052   7.508
 3241ETHY    C1 3157  38.061  45.656   7.513
 3242ETHY    C1 3158  38.397  45.241   7.514
 3243ETHY    C1 3159  38.800  44.902   7.511
 3244ETHY    C1 3160  39.254  44.641   7.510
 3245ETHY    C1 3161  39.753  44.467   7.510
 3246ETHY    C1 3162  40.286  44.383   7.514
 3247THSLK    S 3163  37.685  46.147   8.064
 3248ETHY    C1 3164  37.862  45.782   8.270
 3249ETHY    C1 3165  38.133  45.410   8.540
 3250ETHY    C1 3166  38.460  45.121   8.834
 3251ETHY    C1 3167  38.829  44.913   9.142
 3252ETHY    C1 3168  39.231  44.795   9.462
 3253ETHY    C1 3169  39.660  44.770   9.789
 3254AUSL   AUS 3170  37.722  46.439   7.351
 3255AUSL   AUS 3171  37.464  46.092   7.238
 3256AUL    AUL 3172  37.842  46.112   7.199
 3257THSLK    S 3173  37.950  46.299   7.353
 3258ETHY    C1 3174  38.271  45.982   7.298
 3259ETHY    C1 3175  38.704  45.679   7.221
 3260ETHY    C1 3176  39.179  45.469   7.136
 3261ETHY    C1 3177  39.681  45.348   7.048
 3262ETHY    C1 3178  40.201  45.321   6.963
 3263ETHY    C1 3179  40.730  45.392   6.881
 3264THSLK    S 3180  37.580  45.903   7.108
 3265ETHY    C1 3181  37.664  45.474   6.984
 3266ETHY    C1 3182  37.839  45.002   6.803
 3267ETHY    C1 3183  38.092  44.591   6.593
 3268ETHY    C1 3184  38.410  44.243   6.366
 3269ETHY    C1 3185  38.792  43.968   6.126
 3270ETHY    C1 3186  39.230  43.771   5.880
 3271AUSL   AUS 3187  36.468  46.193   7.503
 3272AUSL   AUS 3188  36.538  46.338   7.086
 3273AUL    AUL 3189  36.254  46.112   7.199
 3274THSLK    S 3190  36.367  46.167   6.978
 3275ETHY    C1 3191  36.003  45.902   6.921
 3276ETHY    C1 3192  35.581  45.612   6.766
 3277ETHY    C1 3193  35.189  45.360   6.521
 3278ETHY    C1 3194  34.835  45.147   6.200
 3279ETHY    C1 3195  34.528  44.974   5.806
 3280ETHY    C1 3196  34.277  44.847   5.346
 3281THSLK    S 3197  36.202  46.141   7.508
 3282ETHY    C1 3198  35.748  46.119   7.513
 3283ETHY    C1 3199  35.226  46.005   7.514
 3284ETHY    C1 3200  34.744  45.796   7.511
 3285ETHY    C1 3201  34.307  45.506   7.510
 3286ETHY    C1 3202  33.928  45.139   7.510
 3287ETHY    C1 3203  33.615  44.699   7.514
 3288AUSL   AUS 3204  36.374  46.439   7.654
 3289AUSL   AUS 3205  36.632  46.092   7.767
 3290AUL    AUL 3206  36.254  46.112   7.806
 3291THSLK    S 3207  36.444  45.952   7.878
 3292ETHY    C1 3208  36.057  45.715   7.893
 3293ETHY    C1 3209  35.639  45.395   7.982
 3294ETHY    C1 3210  35.281  45.046   8.149
 3295ETHY    C1 3211  34.986  44.682   8.382
 3296ETHY    C1 3212  34.761  44.311   8.683
 3297ETHY    C1 3213  34.610  43.940   9.045
 3298THSLK    S 3214  36.118  46.376   7.616
 3299ETHY    C1 3215  35.682  46.366   7.491
 3300ETHY    C1 3216  35.156  46.307   7.419
 3301ETHY    C1 3217  34.641  46.200   7.436
 3302ETHY    C1 3218  34.147  46.054   7.535
 3303ETHY    C1 3219  33.687  45.872   7.718
 3304ETHY    C1 3220  33.268  45.659   7.983
 3305AUSL   AUS 3221  37.048  47.182   7.912
 3306AUSL   AUS 3222  36.632  47.113   7.767
 3307AUL    AUL 3223  36.745  47.397   7.993
 3308THSLK    S 3224  36.516  47.269   7.952
 3309ETHY    C1 3225  36.432  47.571   8.280
 3310ETHY    C1 3226  36.257  47.944   8.621
 3311ETHY    C1 3227  36.004  48.315   8.895
 3312ETHY    C1 3228  35.686  48.674   9.105
 3313ETHY    C1 3229  35.304  49.012   9.244
 3314ETHY    C1 3230  34.866  49.320   9.309
 3315THSLK    S 3231  37.090  47.404   8.035
 3316ETHY    C1 3232  37.274  47.679   8.347
 3317ETHY    C1 3233  37.424  48.059   8.691
 3318ETHY    C1 3234  37.490  48.482   8.998
 3319ETHY    C1 3235  37.477  48.933   9.264
 3320ETHY    C1 3236  37.380  49.402   9.485
 3321ETHY    C1 3237  37.200  49.881   9.656
 3322AUSL   AUS 3238  36.896  47.276   7.666
 3323AUSL   AUS 3239  37.200  47.276   7.339
 3324AUL    AUL 3240  37.048  47.584   7.503
 3325THSLK    S 3241  36.939  47.520   7.776
 3326ETHY    C1 3242  37.083  47.914   7.951
 3327ETHY    C1 3243  37.170  48.408   8.137
 3328ETHY    C1 3244  37.158  48.909   8.294
 3329ETHY    C1 3245  37.057  49.407   8.425
 3330ETHY    C1 3246  36.865  49.888   8.527
 3331ETHY    C1 3247  36.585  50.343   8.600
 3332THSLK    S 3248  37.255  47.507   7.243
 3333ETHY    C1 3249  37.531  47.837   7.096
 3334ETHY    C1 3250  37.781  48.278   6.927
 3335ETHY    C1 3251  37.937  48.755   6.771
 3336ETHY    C1 3252  38.006  49.257   6.635
 3337ETHY    C1 3253  37.982  49.773   6.525
 3338ETHY    C1 3254  37.865  50.293   6.443
 3339AUSL   AUS 3255  37.200  47.276   7.666
 3340AUSL   AUS 3256  37.313  47.019   8.013
 3341AUL    AUL 3257  37.351  47.397   7.993
 3342THSLK    S 3258  37.484  47.127   8.183
 3343ETHY    C1 3259  37.779  47.192   8.523
 3344ETHY    C1 3260  38.097  47.354   8.920
 3345ETHY    C1 3261  38.365  47.603   9.298
 3346ETHY    C1 3262  38.579  47.925   9.653
 3347ETHY    C1 3263  38.731  48.313   9.976
 3348ETHY    C1 3264  38.817  48.763  10.262
 3349THSLK    S 3265  37.253  47.505   7.772
 3350ETHY    C1 3266  37.525  47.833   7.929
 3351ETHY    C1 3267  37.775  48.273   8.100
 3352ETHY    C1 3268  37.933  48.752   8.251
 3353ETHY    C1 3269  38.002  49.254   8.383
 3354ETHY    C1 3270  37.978  49.769   8.494
 3355ETHY    C1 3271  37.859  50.288   8.585
 3356AUSL   AUS 3272  37.048  46.022   7.912
 3357AUSL   AUS 3273  37.464  46.092   7.767
 3358AUL    AUL 3274  37.351  45.808   7.993
 3359THSLK    S 3275  37.001  45.772   7.989
 3360ETHY    C1 3276  36.811  45.376   8.103
 3361ETHY    C1 3277  36.660  44.898   8.289
 3362ETHY    C1 3278  36.597  44.433   8.528
 3363ETHY    C1 3279  36.612  43.991   8.809
 3364ETHY    C1 3280  36.708  43.584   9.132
 3365ETHY    C1 3281  36.883  43.221   9.489
 3366THSLK    S 3282  37.576  45.905   7.907
 3367ETHY    C1 3283  37.655  45.477   8.040
 3368ETHY    C1 3284  37.830  45.007   8.222
 3369ETHY    C1 3285  38.084  44.595   8.428
 3370ETHY    C1 3286  38.404  44.246   8.652
 3371ETHY    C1 3287  38.785  43.971   8.893
 3372ETHY    C1 3288  39.220  43.775   9.147
 3373AUSL   AUS 3289  36.896  45.929   7.666
 3374AUSL   AUS 3290  36.783  46.186   8.013
 3375AUL    AUL 3291  36.745  45.808   7.993
 3376THSLK    S 3292  36.841  45.693   7.745
 3377ETHY    C1 3293  36.566  45.334   7.788
 3378ETHY    C1 3294  36.315  44.869   7.869
 3379ETHY    C1 3295  36.159  44.379   7.981
 3380ETHY    C1 3296  36.090  43.880   8.122
 3381ETHY    C1 3297  36.114  43.380   8.292
 3382ETHY    C1 3298  36.231  42.892   8.489
 3383THSLK    S 3299  36.605  46.020   8.129
 3384ETHY    C1 3300  36.303  45.702   8.248
 3385ETHY    C1 3301  35.984  45.335   8.471
 3386ETHY    C1 3302  35.719  44.998   8.776
 3387ETHY    C1 3303  35.507  44.696   9.147
 3388ETHY    C1 3304  35.354  44.438   9.582
 3389ETHY    C1 3305  35.263  44.231  10.072
 3390AUSL   AUS 3306  37.200  45.929   7.666
 3391AUSL   AUS 3307  36.896  45.929   7.339
 3392AUL    AUL 3308  37.048  45.621   7.503
 3393THSLK    S 3309  36.843  45.690   7.270
 3394ETHY    C1 3310  36.571  45.328   7.236
 3395ETHY    C1 3311  36.321  44.863   7.157
 3396ETHY    C1 3312  36.164  44.374   7.041
 3397ETHY    C1 3313  36.094  43.875   6.896
 3398ETHY    C1 3314  36.118  43.376   6.727
 3399ETHY    C1 3315  36.237  42.885   6.538
 3400THSLK    S 3316  37.154  45.677   7.749
 3401ETHY    C1 3317  37.007  45.251   7.811
 3402ETHY    C1 3318  36.921  44.733   7.906
 3403ETHY    C1 3319  36.933  44.220   8.025
 3404ETHY    C1 3320  37.035  43.725   8.165
 3405ETHY    C1 3321  37.227  43.260   8.325
 3406ETHY    C1 3322  37.505  42.834   8.504
 3407AUSL   AUS 3323  37.048  47.182   7.094
 3408AUSL   AUS 3324  37.464  47.113   7.238
 3409AUL    AUL 3325  37.351  47.397   7.012
 3410THSLK    S 3326  37.095  47.409   6.977
 3411ETHY    C1 3327  37.285  47.688   6.674
 3412ETHY    C1 3328  37.436  48.069   6.330
 3413ETHY    C1 3329  37.500  48.489   6.021
 3414ETHY    C1 3330  37.484  48.939   5.752
 3415ETHY    C1 3331  37.388  49.409   5.532
 3416ETHY    C1 3332  37.213  49.892   5.366
 3417THSLK    S 3333  37.652  47.229   7.089
 3418ETHY    C1 3334  38.039  47.349   6.883
 3419ETHY    C1 3335  38.457  47.572   6.637
 3420ETHY    C1 3336  38.815  47.876   6.400
 3421ETHY    C1 3337  39.110  48.248   6.178
 3422ETHY    C1 3338  39.335  48.683   5.981
 3423ETHY    C1 3339  39.486  49.172   5.811
 3424AUSL   AUS 3340  36.896  47.276   7.339
 3425AUSL   AUS 3341  36.783  47.019   6.992
 3426AUL    AUL 3342  36.745  47.397   7.012
 3427THSLK    S 3343  36.942  47.523   7.239
 3428ETHY    C1 3344  37.089  47.920   7.074
 3429ETHY    C1 3345  37.175  48.414   6.889
 3430ETHY    C1 3346  37.163  48.915   6.727
 3431ETHY    C1 3347  37.061  49.411   6.593
 3432ETHY    C1 3348  36.869  49.892   6.492
 3433ETHY    C1 3349  36.591  50.350   6.427
 3434THSLK    S 3350  36.673  47.151   6.805
 3435ETHY    C1 3351  36.637  47.300   6.377
 3436ETHY    C1 3352  36.527  47.526   5.906
 3437ETHY    C1 3353  36.349  47.801   5.494
 3438ETHY    C1 3354  36.115  48.114   5.145
 3439ETHY    C1 3355  35.829  48.463   4.870
 3440ETHY    C1 3356  35.498  48.841   4.675
 3441AUSL   AUS 3357  37.048  46.022   7.094
 3442AUSL   AUS 3358  36.632  46.092   7.238
 3443AUL    AUL 3359  36.745  45.808   7.012
 3444THSLK    S 3360  36.449  45.944   7.134
 3445ETHY    C1 3361  36.066  45.700   7.124
 3446ETHY    C1 3362  35.648  45.379   7.035
 3447ETHY    C1 3363  35.289  45.033   6.866
 3448ETHY    C1 3364  34.992  44.672   6.631
 3449ETHY    C1 3365  34.767  44.300   6.331
 3450ETHY    C1 3366  34.620  43.923   5.974
 3451THSLK    S 3367  37.006  45.767   7.024
 3452ETHY    C1 3368  36.822  45.366   6.917
 3453ETHY    C1 3369  36.672  44.888   6.732
 3454ETHY    C1 3370  36.606  44.425   6.491
 3455ETHY    C1 3371  36.619  43.985   6.206
 3456ETHY    C1 3372  36.716  43.578   5.885
 3457ETHY    C1 3373  36.896  43.210   5.533
 3458AUSL   AUS 3374  37.200  45.929   7.339
 3459AUSL   AUS 3375  37.313  46.186   6.992
 3460AUL    AUL 3376  37.351  45.808   7.012
 3461THSLK    S 3377  37.157  45.675   7.266
 3462ETHY    C1 3378  37.013  45.247   7.213
 3463ETHY    C1 3379  36.926  44.728   7.120
 3464ETHY    C1 3380  36.938  44.216   6.997
 3465ETHY    C1 3381  37.039  43.722   6.854
 3466ETHY    C1 3382  37.231  43.257   6.695
 3467ETHY    C1 3383  37.511  42.829   6.523
 3468THSLK    S 3384  37.430  45.996   6.859
 3469ETHY    C1 3385  37.474  45.594   6.651
 3470ETHY    C1 3386  37.584  45.163   6.355
 3471ETHY    C1 3387  37.760  44.800   6.017
 3472ETHY    C1 3388  37.991  44.506   5.651
 3473ETHY    C1 3389  38.277  44.289   5.264
 3474ETHY    C1 3390  38.614  44.153   4.865
 3475AUC    AUC 3391  32.071  26.026   7.503
 3476AUC    AUC 3392  32.316  26.026   7.351
 3477AUC    AUC 3393  32.316  26.026   7.654
 3478AUC    AUC 3394  31.826  26.026   7.351
 3479AUC    AUC 3395  31.826  26.026   7.654
 3480AUC    AUC 3396  31.919  26.272   7.503
 3481AUC    AUC 3397  32.223  26.272   7.503
 3482AUC    AUC 3398  31.919  25.781   7.503
 3483AUC    AUC 3399  32.223  25.781   7.503
 3484AUC    AUC 3400  32.071  25.875   7.748
 3485AUC    AUC 3401  32.071  26.178   7.748
 3486AUC    AUC 3402  32.071  25.875   7.257
 3487AUC    AUC 3403  32.071  26.178   7.257
 3488AUC    AUC 3404  32.562  26.026   7.199
 3489AUC    AUC 3405  32.562  26.026   7.503
 3490AUC    AUC 3406  32.562  26.026   7.806
 3491AUC    AUC 3407  31.580  26.026   7.199
 3492AUC    AUC 3408  31.580  26.026   7.503
 3493AUC    AUC 3409  31.580  26.026   7.806
 3494AUC    AUC 3410  31.768  26.517   7.503
 3495AUC    AUC 3411  32.071  26.517   7.503
 3496AUC    AUC 3412  32.374  26.517   7.503
 3497AUC    AUC 3413  31.768  25.536   7.503
 3498AUC    AUC 3414  32.071  25.536   7.503
 3499AUC    AUC 3415  32.374  25.536   7.503
 3500AUC    AUC 3416  32.071  25.723   7.993
 3501AUC    AUC 3417  32.071  26.026   7.993
 3502AUC    AUC 3418  32.071  26.330   7.993
 3503AUC    AUC 3419  32.071  25.723   7.012
 3504AUC    AUC 3420  32.071  26.026   7.012
 3505AUC    AUC 3421  32.071  26.330   7.012
 3506AUC    AUC 3422  32.316  25.875   7.900
 3507AUC    AUC 3423  32.316  26.178   7.900
 3508AUC    AUC 3424  32.316  25.875   7.106
 3509AUC    AUC 3425  32.316  26.178   7.106
 3510AUC    AUC 3426  31.826  25.875   7.900
 3511AUC    AUC 3427  31.826  26.178   7.900
 3512AUC    AUC 3428  31.826  25.875   7.106
 3513AUC    AUC 3429  31.826  26.178   7.106
 3514AUC    AUC 3430  32.468  26.272   7.351
 3515AUC    AUC 3431  32.468  26.272   7.654
 3516AUC    AUC 3432  31.674  26.272   7.351
 3517AUC    AUC 3433  31.674  26.272   7.654
 3518AUC    AUC 3434  32.468  25.781   7.351
 3519AUC    AUC 3435  32.468  25.781   7.654
 3520AUC    AUC 3436  31.674  25.781   7.351
 3521AUC    AUC 3437  31.674  25.781   7.654
 3522AUC    AUC 3438  31.919  26.424   7.748
 3523AUC    AUC 3439  32.223  26.424   7.748
 3524AUC    AUC 3440  31.919  25.629   7.748
 3525AUC    AUC 3441  32.223  25.629   7.748
 3526AUC    AUC 3442  31.919  26.424   7.257
 3527AUC    AUC 3443  32.223  26.424   7.257
 3528AUC    AUC 3444  31.919  25.629   7.257
 3529AUC    AUC 3445  32.223  25.629   7.257
 3530AUSL   AUS 3446  32.480  26.026   8.083
 3531AUSL   AUS 3447  32.336  25.610   8.013
 3532AUL    AUL 3448  32.562  25.723   8.297
 3533THSLK    S 3449  32.446  25.423   8.153
 3534ETHY    C1 3450  32.482  25.024   8.368
 3535ETHY    C1 3451  32.592  24.594   8.665
 3536ETHY    C1 3452  32.770  24.230   9.000
 3537ETHY    C1 3453  33.004  23.934   9.364
 3538ETHY    C1 3454  33.290  23.717   9.752
 3539ETHY    C1 3455  33.621  23.584  10.156
 3540THSLK    S 3456  32.573  25.974   8.324
 3541ETHY    C1 3457  32.777  25.754   8.665
 3542ETHY    C1 3458  33.041  25.577   9.094
 3543ETHY    C1 3459  33.317  25.501   9.535
 3544ETHY    C1 3460  33.594  25.518   9.980
 3545ETHY    C1 3461  33.864  25.631  10.419
 3546ETHY    C1 3462  34.123  25.840  10.845
 3547AUSL   AUS 3463  32.235  25.875   8.176
 3548AUSL   AUS 3464  31.907  26.178   8.176
 3549AUL    AUL 3465  32.071  26.026   8.484
 3550THSLK    S 3466  32.310  25.820   8.413
 3551ETHY    C1 3467  32.374  25.540   8.765
 3552ETHY    C1 3468  32.477  25.285   9.223
 3553ETHY    C1 3469  32.604  25.126   9.708
 3554ETHY    C1 3470  32.746  25.057  10.208
 3555ETHY    C1 3471  32.900  25.085  10.713
 3556ETHY    C1 3472  33.060  25.209  11.212
 3557THSLK    S 3473  31.822  26.132   8.428
 3558ETHY    C1 3474  31.748  25.982   8.850
 3559ETHY    C1 3475  31.643  25.894   9.367
 3560ETHY    C1 3476  31.521  25.906   9.878
 3561ETHY    C1 3477  31.383  26.007  10.373
 3562ETHY    C1 3478  31.228  26.200  10.840
 3563ETHY    C1 3479  31.059  26.481  11.268
 3564AUSL   AUS 3480  32.235  26.178   8.176
 3565AUSL   AUS 3481  32.581  26.291   7.919
 3566AUL    AUL 3482  32.562  26.330   8.297
 3567THSLK    S 3483  32.320  26.234   8.410
 3568ETHY    C1 3484  32.394  26.515   8.759
 3569ETHY    C1 3485  32.499  26.770   9.217
 3570ETHY    C1 3486  32.621  26.929   9.703
 3571ETHY    C1 3487  32.760  26.998  10.204
 3572ETHY    C1 3488  32.914  26.971  10.708
 3573ETHY    C1 3489  33.083  26.847  11.206
 3574THSLK    S 3490  32.753  26.389   8.080
 3575ETHY    C1 3491  33.116  26.360   8.350
 3576ETHY    C1 3492  33.538  26.416   8.673
 3577ETHY    C1 3493  33.930  26.570   8.989
 3578ETHY    C1 3494  34.284  26.808   9.293
 3579ETHY    C1 3495  34.591  27.129   9.580
 3580ETHY    C1 3496  34.842  27.526   9.844
 3581AUSL   AUS 3497  32.480  26.026   6.923
 3582AUSL   AUS 3498  32.336  26.443   6.992
 3583AUL    AUL 3499  32.562  26.330   6.708
 3584THSLK    S 3500  32.582  25.974   6.687
 3585ETHY    C1 3501  32.795  25.754   6.351
 3586ETHY    C1 3502  33.060  25.577   5.923
 3587ETHY    C1 3503  33.332  25.501   5.479
 3588ETHY    C1 3504  33.606  25.518   5.033
 3589ETHY    C1 3505  33.877  25.631   4.594
 3590ETHY    C1 3506  34.142  25.840   4.173
 3591THSLK    S 3507  32.514  26.554   6.829
 3592ETHY    C1 3508  32.816  26.622   6.497
 3593ETHY    C1 3509  33.135  26.785   6.100
 3594ETHY    C1 3510  33.400  27.032   5.719
 3595ETHY    C1 3511  33.612  27.352   5.362
 3596ETHY    C1 3512  33.765  27.742   5.039
 3597ETHY    C1 3513  33.856  28.194   4.759
 3598AUSL   AUS 3514  32.235  25.875   6.829
 3599AUSL   AUS 3515  32.581  25.762   7.086
 3600AUL    AUL 3516  32.562  25.723   6.708
 3601THSLK    S 3517  32.714  25.570   6.949
 3602ETHY    C1 3518  32.897  25.203   6.752
 3603ETHY    C1 3519  33.169  24.831   6.483
 3604ETHY    C1 3520  33.494  24.542   6.186
 3605ETHY    C1 3521  33.860  24.335   5.874
 3606ETHY    C1 3522  34.264  24.216   5.555
 3607ETHY    C1 3523  34.697  24.191   5.235
 3608THSLK    S 3524  32.320  25.819   6.596
 3609ETHY    C1 3525  32.394  25.538   6.246
 3610ETHY    C1 3526  32.499  25.282   5.788
 3611ETHY    C1 3527  32.621  25.124   5.302
 3612ETHY    C1 3528  32.760  25.055   4.801
 3613ETHY    C1 3529  32.914  25.082   4.297
 3614ETHY    C1 3530  33.083  25.206   3.799
 3615AUSL   AUS 3531  32.235  26.178   6.829
 3616AUSL   AUS 3532  31.907  25.875   6.829
 3617AUL    AUL 3533  32.071  26.026   6.521
 3618THSLK    S 3534  31.815  25.819   6.597
 3619ETHY    C1 3535  31.680  25.541   6.264
 3620ETHY    C1 3536  31.519  25.288   5.822
 3621ETHY    C1 3537  31.367  25.131   5.343
 3622ETHY    C1 3538  31.231  25.062   4.842
 3623ETHY    C1 3539  31.114  25.088   4.328
 3624ETHY    C1 3540  31.021  25.207   3.810
 3625THSLK    S 3541  32.337  26.132   6.583
 3626ETHY    C1 3542  32.483  25.982   6.179
 3627ETHY    C1 3543  32.645  25.891   5.678
 3628ETHY    C1 3544  32.792  25.901   5.173
 3629ETHY    C1 3545  32.925  26.002   4.677
 3630ETHY    C1 3546  33.042  26.197   4.200
 3631ETHY    C1 3547  33.143  26.483   3.754
 3632AUSL   AUS 3548  31.662  26.026   8.083
 3633AUSL   AUS 3549  31.806  26.443   8.013
 3634AUL    AUL 3550  31.580  26.330   8.297
 3635THSLK    S 3551  31.560  25.974   8.319
 3636ETHY    C1 3552  31.348  25.754   8.654
 3637ETHY    C1 3553  31.082  25.577   9.082
 3638ETHY    C1 3554  30.810  25.501   9.526
 3639ETHY    C1 3555  30.536  25.518   9.973
 3640ETHY    C1 3556  30.265  25.631  10.411
 3641ETHY    C1 3557  30.000  25.840  10.832
 3642THSLK    S 3558  31.689  26.567   8.202
 3643ETHY    C1 3559  31.646  26.710   8.632
 3644ETHY    C1 3560  31.535  26.935   9.104
 3645ETHY    C1 3561  31.359  27.212   9.515
 3646ETHY    C1 3562  31.128  27.528   9.863
 3647ETHY    C1 3563  30.842  27.876  10.138
 3648ETHY    C1 3564  30.505  28.249  10.334
 3649AUSL   AUS 3565  31.907  25.875   8.176
 3650AUSL   AUS 3566  31.561  25.762   7.919
 3651AUL    AUL 3567  31.580  25.723   8.297
 3652THSLK    S 3568  31.384  25.599   8.026
 3653ETHY    C1 3569  31.013  25.342   8.082
 3654ETHY    C1 3570  30.591  25.054   8.237
 3655ETHY    C1 3571  30.201  24.799   8.482
 3656ETHY    C1 3572  29.849  24.582   8.803
 3657ETHY    C1 3573  29.543  24.411   9.198
 3658ETHY    C1 3574  29.286  24.290   9.657
 3659THSLK    S 3575  31.805  25.821   8.406
 3660ETHY    C1 3576  31.659  25.545   8.736
 3661ETHY    C1 3577  31.497  25.293   9.178
 3662ETHY    C1 3578  31.350  25.135   9.658
 3663ETHY    C1 3579  31.217  25.065  10.160
 3664ETHY    C1 3580  31.100  25.091  10.674
 3665ETHY    C1 3581  30.999  25.212  11.190
 3666AUSL   AUS 3582  31.662  26.026   6.923
 3667AUSL   AUS 3583  31.806  25.610   6.992
 3668AUL    AUL 3584  31.580  25.723   6.708
 3669THSLK    S 3585  31.569  25.974   6.681
 3670ETHY    C1 3586  31.365  25.754   6.341
 3671ETHY    C1 3587  31.101  25.577   5.911
 3672ETHY    C1 3588  30.825  25.501   5.470
 3673ETHY    C1 3589  30.548  25.518   5.025
 3674ETHY    C1 3590  30.278  25.631   4.586
 3675ETHY    C1 3591  30.019  25.840   4.161
 3676THSLK    S 3592  31.635  25.437   6.878
 3677ETHY    C1 3593  31.340  25.111   6.760
 3678ETHY    C1 3594  31.022  24.744   6.538
 3679ETHY    C1 3595  30.754  24.409   6.233
 3680ETHY    C1 3596  30.540  24.109   5.861
 3681ETHY    C1 3597  30.388  23.851   5.426
 3682ETHY    C1 3598  30.302  23.639   4.937
 3683AUSL   AUS 3599  31.907  26.178   6.829
 3684AUSL   AUS 3600  31.561  26.291   7.086
 3685AUL    AUL 3601  31.580  26.330   6.708
 3686THSLK    S 3602  31.434  26.418   6.895
 3687ETHY    C1 3603  31.257  26.499   6.484
 3688ETHY    C1 3604  30.986  26.639   6.046
 3689ETHY    C1 3605  30.659  26.827   5.679
 3690ETHY    C1 3606  30.290  27.056   5.385
 3691ETHY    C1 3607  29.888  27.323   5.173
 3692ETHY    C1 3608  29.459  27.625   5.047
 3693THSLK    S 3609  31.832  26.134   6.576
 3694ETHY    C1 3610  31.768  25.987   6.150
 3695ETHY    C1 3611  31.665  25.898   5.634
 3696ETHY    C1 3612  31.538  25.909   5.123
 3697ETHY    C1 3613  31.396  26.010   4.629
 3698ETHY    C1 3614  31.243  26.203   4.162
 3699ETHY    C1 3615  31.082  26.486   3.732
 3700AUSL   AUS 3616  32.651  26.435   7.503
 3701AUSL   AUS 3617  32.581  26.291   7.086
 3702AUL    AUL 3618  32.865  26.517   7.199
 3703THSLK    S 3619  32.759  26.390   6.934
 3704ETHY    C1 3620  33.129  26.363   6.671
 3705ETHY    C1 3621  33.551  26.419   6.349
 3706ETHY    C1 3622  33.941  26.573   6.030
 3707ETHY    C1 3623  34.293  26.810   5.724
 3708ETHY    C1 3624  34.600  27.131   5.438
 3709ETHY    C1 3625  34.856  27.530   5.179
 3710THSLK    S 3626  32.917  26.488   7.508
 3711ETHY    C1 3627  33.371  26.510   7.513
 3712ETHY    C1 3628  33.893  26.624   7.514
 3713ETHY    C1 3629  34.376  26.833   7.511
 3714ETHY    C1 3630  34.812  27.123   7.510
 3715ETHY    C1 3631  35.191  27.490   7.510
 3716ETHY    C1 3632  35.505  27.930   7.514
 3717AUSL   AUS 3633  32.745  26.190   7.351
 3718AUSL   AUS 3634  32.745  25.863   7.654
 3719AUL    AUL 3635  33.053  26.026   7.503
 3720THSLK    S 3636  33.001  26.229   7.350
 3721ETHY    C1 3637  33.437  26.121   7.286
 3722ETHY    C1 3638  33.963  26.083   7.201
 3723ETHY    C1 3639  34.478  26.147   7.113
 3724ETHY    C1 3640  34.972  26.301   7.026
 3725ETHY    C1 3641  35.432  26.546   6.945
 3726ETHY    C1 3642  35.851  26.878   6.873
 3727THSLK    S 3643  32.972  25.723   7.663
 3728ETHY    C1 3644  33.291  25.407   7.728
 3729ETHY    C1 3645  33.724  25.103   7.807
 3730ETHY    C1 3646  34.199  24.893   7.887
 3731ETHY    C1 3647  34.702  24.772   7.971
 3732ETHY    C1 3648  35.222  24.746   8.058
 3733ETHY    C1 3649  35.750  24.816   8.147
 3734AUSL   AUS 3650  32.745  26.190   7.654
 3735AUSL   AUS 3651  32.487  26.537   7.767
 3736AUL    AUL 3652  32.865  26.517   7.806
 3737THSLK    S 3653  32.670  26.651   7.926
 3738ETHY    C1 3654  33.053  26.769   8.140
 3739ETHY    C1 3655  33.471  26.992   8.388
 3740ETHY    C1 3656  33.830  27.297   8.622
 3741ETHY    C1 3657  34.127  27.670   8.840
 3742ETHY    C1 3658  34.352  28.104   9.038
 3743ETHY    C1 3659  34.499  28.592   9.215
 3744THSLK    S 3660  32.999  26.229   7.665
 3745ETHY    C1 3661  33.434  26.121   7.740
 3746ETHY    C1 3662  33.960  26.083   7.826
 3747ETHY    C1 3663  34.475  26.146   7.910
 3748ETHY    C1 3664  34.969  26.300   7.993
 3749ETHY    C1 3665  35.430  26.545   8.075
 3750ETHY    C1 3666  35.847  26.877   8.155
 3751AUSL   AUS 3667  31.491  26.435   7.503
 3752AUSL   AUS 3668  31.561  26.291   7.919
 3753AUL    AUL 3669  31.277  26.517   7.806
 3754THSLK    S 3670  31.428  26.410   8.109
 3755ETHY    C1 3671  31.245  26.482   8.519
 3756ETHY    C1 3672  30.973  26.622   8.957
 3757ETHY    C1 3673  30.648  26.813   9.324
 3758ETHY    C1 3674  30.282  27.044   9.619
 3759ETHY    C1 3675  29.879  27.311   9.831
 3760ETHY    C1 3676  29.445  27.607   9.956
 3761THSLK    S 3677  31.280  26.576   7.508
 3762ETHY    C1 3678  31.058  26.973   7.513
 3763ETHY    C1 3679  30.722  27.388   7.514
 3764ETHY    C1 3680  30.319  27.727   7.511
 3765ETHY    C1 3681  29.865  27.988   7.510
 3766ETHY    C1 3682  29.366  28.162   7.510
 3767ETHY    C1 3683  28.833  28.246   7.514
 3768AUSL   AUS 3684  31.397  26.190   7.351
 3769AUSL   AUS 3685  31.655  26.537   7.238
 3770AUL    AUL 3686  31.277  26.517   7.199
 3771THSLK    S 3687  31.170  26.305   7.303
 3772ETHY    C1 3688  30.851  26.505   7.049
 3773ETHY    C1 3689  30.418  26.711   6.813
 3774ETHY    C1 3690  29.943  26.877   6.661
 3775ETHY    C1 3691  29.440  27.006   6.590
 3776ETHY    C1 3692  28.920  27.096   6.605
 3777ETHY    C1 3693  28.392  27.144   6.708
 3778THSLK    S 3694  31.543  26.700   7.060
 3779ETHY    C1 3695  31.464  27.010   6.737
 3780ETHY    C1 3696  31.289  27.384   6.397
 3781ETHY    C1 3697  31.035  27.752   6.120
 3782ETHY    C1 3698  30.715  28.109   5.909
 3783ETHY    C1 3699  30.334  28.447   5.770
 3784ETHY    C1 3700  29.899  28.761   5.709
 3785AUSL   AUS 3701  31.397  26.190   7.654
 3786AUSL   AUS 3702  31.397  25.863   7.351
 3787AUL    AUL 3703  31.089  26.026   7.503
 3788THSLK    S 3704  31.143  25.790   7.394
 3789ETHY    C1 3705  30.708  25.772   7.524
 3790ETHY    C1 3706  30.182  25.712   7.597
 3791ETHY    C1 3707  29.667  25.608   7.578
 3792ETHY    C1 3708  29.173  25.465   7.477
 3793ETHY    C1 3709  28.713  25.282   7.294
 3794ETHY    C1 3710  28.295  25.062   7.034
 3795THSLK    S 3711  31.169  26.296   7.707
 3796ETHY    C1 3712  30.848  26.487   7.966
 3797ETHY    C1 3713  30.415  26.691   8.202
 3798ETHY    C1 3714  29.940  26.862   8.352
 3799ETHY    C1 3715  29.438  26.994   8.422
 3800ETHY    C1 3716  28.918  27.082   8.407
 3801ETHY    C1 3717  28.389  27.123   8.308
 3802AUSL   AUS 3718  32.651  25.617   7.503
 3803AUSL   AUS 3719  32.581  25.762   7.919
 3804AUL    AUL 3720  32.865  25.536   7.806
 3805THSLK    S 3721  32.862  25.476   7.508
 3806ETHY    C1 3722  33.084  25.080   7.513
 3807ETHY    C1 3723  33.420  24.665   7.514
 3808ETHY    C1 3724  33.823  24.326   7.511
 3809ETHY    C1 3725  34.277  24.065   7.510
 3810ETHY    C1 3726  34.776  23.891   7.510
 3811ETHY    C1 3727  35.309  23.807   7.514
 3812THSLK    S 3728  32.708  25.571   8.064
 3813ETHY    C1 3729  32.885  25.206   8.270
 3814ETHY    C1 3730  33.156  24.834   8.540
 3815ETHY    C1 3731  33.483  24.545   8.834
 3816ETHY    C1 3732  33.852  24.337   9.142
 3817ETHY    C1 3733  34.254  24.219   9.462
 3818ETHY    C1 3734  34.683  24.194   9.789
 3819AUSL   AUS 3735  32.745  25.863   7.351
 3820AUSL   AUS 3736  32.487  25.516   7.238
 3821AUL    AUL 3737  32.865  25.536   7.199
 3822THSLK    S 3738  32.973  25.723   7.353
 3823ETHY    C1 3739  33.294  25.406   7.298
 3824ETHY    C1 3740  33.727  25.103   7.221
 3825ETHY    C1 3741  34.202  24.893   7.136
 3826ETHY    C1 3742  34.704  24.772   7.048
 3827ETHY    C1 3743  35.224  24.745   6.963
 3828ETHY    C1 3744  35.753  24.816   6.881
 3829THSLK    S 3745  32.603  25.327   7.108
 3830ETHY    C1 3746  32.687  24.898   6.984
 3831ETHY    C1 3747  32.862  24.426   6.803
 3832ETHY    C1 3748  33.115  24.015   6.593
 3833ETHY    C1 3749  33.433  23.667   6.366
 3834ETHY    C1 3750  33.815  23.392   6.126
 3835ETHY    C1 3751  34.253  23.195   5.880
 3836AUSL   AUS 3752  31.491  25.617   7.503
 3837AUSL   AUS 3753  31.561  25.762   7.086
 3838AUL    AUL 3754  31.277  25.536   7.199
 3839THSLK    S 3755  31.390  25.591   6.978
 3840ETHY    C1 3756  31.026  25.326   6.921
 3841ETHY    C1 3757  30.604  25.036   6.766
 3842ETHY    C1 3758  30.212  24.784   6.521
 3843ETHY    C1 3759  29.858  24.571   6.200
 3844ETHY    C1 3760  29.551  24.398   5.806
 3845ETHY    C1 3761  29.300  24.271   5.346
 3846THSLK    S 3762  31.225  25.565   7.508
 3847ETHY    C1 3763  30.771  25.543   7.513
 3848ETHY    C1 3764  30.249  25.429   7.514
 3849ETHY    C1 3765  29.767  25.220   7.511
 3850ETHY    C1 3766  29.330  24.930   7.510
 3851ETHY    C1 3767  28.951  24.563   7.510
 3852ETHY    C1 3768  28.638  24.123   7.514
 3853AUSL   AUS 3769  31.397  25.863   7.654
 3854AUSL   AUS 3770  31.655  25.516   7.767
 3855AUL    AUL 3771  31.277  25.536   7.806
 3856THSLK    S 3772  31.467  25.376   7.878
 3857ETHY    C1 3773  31.080  25.139   7.893
 3858ETHY    C1 3774  30.662  24.819   7.982
 3859ETHY    C1 3775  30.304  24.470   8.149
 3860ETHY    C1 3776  30.009  24.106   8.382
 3861ETHY    C1 3777  29.784  23.735   8.683
 3862ETHY    C1 3778  29.633  23.364   9.045
 3863THSLK    S 3779  31.141  25.800   7.616
 3864ETHY    C1 3780  30.705  25.790   7.491
 3865ETHY    C1 3781  30.179  25.731   7.419
 3866ETHY    C1 3782  29.664  25.624   7.436
 3867ETHY    C1 3783  29.170  25.478   7.535
 3868ETHY    C1 3784  28.710  25.296   7.718
 3869ETHY    C1 3785  28.291  25.083   7.983
 3870AUSL   AUS 3786  32.071  26.606   7.912
 3871AUSL   AUS 3787  31.655  26.537   7.767
 3872AUL    AUL 3788  31.768  26.821   7.993
 3873THSLK    S 3789  31.539  26.693   7.952
 3874ETHY    C1 3790  31.455  26.995   8.280
 3875ETHY    C1 3791  31.280  27.368   8.621
 3876ETHY    C1 3792  31.027  27.739   8.895
 3877ETHY    C1 3793  30.709  28.098   9.105
 3878ETHY    C1 3794  30.327  28.436   9.244
 3879ETHY    C1 3795  29.889  28.744   9.309
 3880THSLK    S 3796  32.113  26.828   8.035
 3881ETHY    C1 3797  32.297  27.103   8.347
 3882ETHY    C1 3798  32.447  27.483   8.691
 3883ETHY    C1 3799  32.513  27.906   8.998
 3884ETHY    C1 3800  32.500  28.357   9.264
 3885ETHY    C1 3801  32.403  28.826   9.485
 3886ETHY    C1 3802  32.223  29.305   9.656
 3887AUSL   AUS 3803  31.919  26.700   7.666
 3888AUSL   AUS 3804  32.223  26.700   7.339
 3889AUL    AUL 3805  32.071  27.008   7.503
 3890THSLK    S 3806  31.962  26.944   7.776
 3891ETHY    C1 3807  32.106  27.338   7.951
 3892ETHY    C1 3808  32.193  27.832   8.137
 3893ETHY    C1 3809  32.181  28.333   8.294
 3894ETHY    C1 3810  32.080  28.831   8.425
 3895ETHY    C1 3811  31.888  29.312   8.527
 3896ETHY    C1 3812  31.608  29.767   8.600
 3897THSLK    S 3813  32.278  26.931   7.243
 3898ETHY    C1 3814  32.554  27.261   7.096
 3899ETHY    C1 3815  32.804  27.702   6.927
 3900ETHY    C1 3816  32.960  28.179   6.771
 3901ETHY    C1 3817  33.029  28.681   6.635
 3902ETHY    C1 3818  33.005  29.197   6.525
 3903ETHY    C1 3819  32.888  29.717   6.443
 3904AUSL   AUS 3820  32.223  26.700   7.666
 3905AUSL   AUS 3821  32.336  26.443   8.013
 3906AUL    AUL 3822  32.374  26.821   7.993
 3907THSLK    S 3823  32.507  26.551   8.183
 3908ETHY    C1 3824  32.802  26.616   8.523
 3909ETHY    C1 3825  33.120  26.778   8.920
 3910ETHY    C1 3826  33.388  27.027   9.298
 3911ETHY    C1 3827  33.602  27.349   9.653
 3912ETHY    C1 3828  33.754  27.737   9.976
 3913ETHY    C1 3829  33.840  28.187  10.262
 3914THSLK    S 3830  32.276  26.929   7.772
 3915ETHY    C1 3831  32.548  27.257   7.929
 3916ETHY    C1 3832  32.798  27.697   8.100
 3917ETHY    C1 3833  32.956  28.176   8.251
 3918ETHY    C1 3834  33.025  28.678   8.383
 3919ETHY    C1 3835  33.001  29.193   8.494
 3920ETHY    C1 3836  32.882  29.712   8.585
 3921AUSL   AUS 3837  32.071  25.446   7.912
 3922AUSL   AUS 3838  32.487  25.516   7.767
 3923AUL    AUL 3839  32.374  25.232   7.993
 3924THSLK    S 3840  32.024  25.196   7.989
 3925ETHY    C1 3841  31.834  24.800   8.103
 3926ETHY    C1 3842  31.683  24.322   8.289
 3927ETHY    C1 3843  31.620  23.857   8.528
 3928ETHY    C1 3844  31.635  23.415   8.809
 3929ETHY    C1 3845  31.731  23.008   9.132
 3930ETHY    C1 3846  31.906  22.645   9.489
 3931THSLK    S 3847  32.599  25.329   7.907
 3932ETHY    C1 3848  32.678  24.901   8.040
 3933ETHY    C1 3849  32.853  24.431   8.222
 3934ETHY    C1 3850  33.107  24.019   8.428
 3935ETHY    C1 3851  33.427  23.670   8.652
 3936ETHY    C1 3852  33.808  23.395   8.893
 3937ETHY    C1 3853  34.243  23.199   9.147
 3938AUSL   AUS 3854  31.919  25.353   7.666
 3939AUSL   AUS 3855  31.806  25.610   8.013
 3940AUL    AUL 3856  31.768  25.232   7.993
 3941THSLK    S 3857  31.864  25.117   7.745
 3942ETHY    C1 3858  31.589  24.758   7.788
 3943ETHY    C1 3859  31.338  24.293   7.869
 3944ETHY    C1 3860  31.182  23.803   7.981
 3945ETHY    C1 3861  31.113  23.304   8.122
 3946ETHY    C1 3862  31.137  22.804   8.292
 3947ETHY    C1 3863  31.254  22.316   8.489
 3948THSLK    S 3864  31.628  25.444   8.129
 3949ETHY    C1 3865  31.326  25.126   8.248
 3950ETHY    C1 3866  31.007  24.759   8.471
 3951ETHY    C1 3867  30.742  24.422   8.776
 3952ETHY    C1 3868  30.530  24.120   9.147
 3953ETHY    C1 3869  30.377  23.862   9.582
 3954ETHY    C1 3870  30.286  23.655  10.072
 3955AUSL   AUS 3871  32.223  25.353   7.666
 3956AUSL   AUS 3872  31.919  25.353   7.339
 3957AUL    AUL 3873  32.071  25.045   7.503
 3958THSLK    S 3874  31.866  25.114   7.270
 3959ETHY    C1 3875  31.594  24.752   7.236
 3960ETHY    C1 3876  31.344  24.287   7.157
 3961ETHY    C1 3877  31.187  23.798   7.041
 3962ETHY    C1 3878  31.117  23.299   6.896
 3963ETHY    C1 3879  31.141  22.800   6.727
 3964ETHY    C1 3880  31.260  22.309   6.538
 3965THSLK    S 3881  32.177  25.101   7.749
 3966ETHY    C1 3882  32.030  24.675   7.811
 3967ETHY    C1 3883  31.944  24.157   7.906
 3968ETHY    C1 3884  31.956  23.644   8.025
 3969ETHY    C1 3885  32.058  23.149   8.165
 3970ETHY    C1 3886  32.250  22.684   8.325
 3971ETHY    C1 3887  32.528  22.258   8.504
 3972AUSL   AUS 3888  32.071  26.606   7.094
 3973AUSL   AUS 3889  32.487  26.537   7.238
 3974AUL    AUL 3890  32.374  26.821   7.012
 3975THSLK    S 3891  32.118  26.833   6.977
 3976ETHY    C1 3892  32.308  27.112   6.674
 3977ETHY    C1 3893  32.459  27.493   6.330
 3978ETHY    C1 3894  32.523  27.913   6.021
 3979ETHY    C1 3895  32.507  28.363   5.752
 3980ETHY    C1 3896  32.411  28.833   5.532
 3981ETHY    C1 3897  32.236  29.316   5.366
 3982THSLK    S 3898  32.675  26.653   7.089
 3983ETHY    C1 3899  33.062  26.773   6.883
 3984ETHY    C1 3900  33.480  26.996   6.637
 3985ETHY    C1 3901  33.838  27.300   6.400
 3986ETHY    C1 3902  34.133  27.672   6.178
 3987ETHY    C1 3903  34.358  28.107   5.981
 3988ETHY    C1 3904  34.509  28.596   5.811
 3989AUSL   AUS 3905  31.919  26.700   7.339
 3990AUSL   AUS 3906  31.806  26.443   6.992
 3991AUL    AUL 3907  31.768  26.821   7.012
 3992THSLK    S 3908  31.965  26.947   7.239
 3993ETHY    C1 3909  32.112  27.344   7.074
 3994ETHY    C1 3910  32.198  27.838   6.889
 3995ETHY    C1 3911  32.186  28.339   6.727
 3996ETHY    C1 3912  32.084  28.835   6.593
 3997ETHY    C1 3913  31.892  29.316   6.492
 3998ETHY    C1 3914  31.614  29.774   6.427
 3999THSLK    S 3915  31.696  26.575   6.805
 4000ETHY    C1 3916  31.660  26.724   6.377
 4001ETHY    C1 3917  31.550  26.950   5.906
 4002ETHY    C1 3918  31.372  27.225   5.494
 4003ETHY    C1 3919  31.138  27.538   5.145
 4004ETHY    C1 3920  30.852  27.887   4.870
 4005ETHY    C1 3921  30.521  28.265   4.675
 4006AUSL   AUS 3922  32.071  25.446   7.094
 4007AUSL   AUS 3923  31.655  25.516   7.238
 4008AUL    AUL 3924  31.768  25.232   7.012
 4009THSLK    S 3925  31.472  25.368   7.134
 4010ETHY    C1 3926  31.089  25.124   7.124
 4011ETHY    C1 3927  30.671  24.803   7.035
 4012ETHY    C1 3928  30.312  24.457   6.866
 4013ETHY    C1 3929  30.015  24.096   6.631
 4014ETHY    C1 3930  29.790  23.724   6.331
 4015ETHY    C1 3931  29.643  23.347   5.974
 4016THSLK    S 3932  32.029  25.191   7.024
 4017ETHY    C1 3933  31.845  24.790   6.917
 4018ETHY    C1 3934  31.695  24.312   6.732
 4019ETHY    C1 3935  31.629  23.849   6.491
 4020ETHY    C1 3936  31.642  23.409   6.206
 4021ETHY    C1 3937  31.739  23.002   5.885
 4022ETHY    C1 3938  31.919  22.634   5.533
 4023AUSL   AUS 3939  32.223  25.353   7.339
 4024AUSL   AUS 3940  32.336  25.610   6.992
 4025AUL    AUL 3941  32.374  25.232   7.012
 4026THSLK    S 3942  32.180  25.099   7.266
 4027ETHY    C1 3943  32.036  24.671   7.213
 4028ETHY    C1 3944  31.949  24.152   7.120
 4029ETHY    C1 3945  31.961  23.640   6.997
 4030ETHY    C1 3946  32.062  23.146   6.854
 4031ETHY    C1 3947  32.254  22.681   6.695
 4032ETHY    C1 3948  32.534  22.253   6.523
 4033THSLK    S 3949  32.453  25.420   6.859
 4034ETHY    C1 3950  32.497  25.018   6.651
 4035ETHY    C1 3951  32.607  24.587   6.355
 4036ETHY    C1 3952  32.783  24.224   6.017
 4037ETHY    C1 3953  33.014  23.930   5.651
 4038ETHY    C1 3954  33.300  23.713   5.264
 4039ETHY    C1 3955  33.637  23.577   4.865
 4040AUC    AUC 3956  11.579   7.626   7.503
 4041AUC    AUC 3957  11.824   7.626   7.351
 4042AUC    AUC 3958  11.824   7.626   7.654
 4043AUC    AUC 3959  11.334   7.626   7.351
 4044AUC    AUC 3960  11.334   7.626   7.654
 4045AUC    AUC 3961  11.427   7.872   7.503
 4046AUC    AUC 3962  11.731   7.872   7.503
 4047AUC    AUC 3963  11.427   7.381   7.503
 4048AUC    AUC 3964  11.731   7.381   7.503
 4049AUC    AUC 3965  11.579   7.475   7.748
 4050AUC    AUC 3966  11.579   7.778   7.748
 4051AUC    AUC 3967  11.579   7.475   7.257
 4052AUC    AUC 3968  11.579   7.778   7.257
 4053AUC    AUC 3969  12.070   7.626   7.199
 4054AUC    AUC 3970  12.070   7.626   7.503
 4055AUC    AUC 3971  12.070   7.626   7.806
 4056AUC    AUC 3972  11.088   7.626   7.199
 4057AUC    AUC 3973  11.088   7.626   7.503
 4058AUC    AUC 3974  11.088   7.626   7.806
 4059AUC    AUC 3975  11.276   8.117   7.503
 4060AUC    AUC 3976  11.579   8.117   7.503
 4061AUC    AUC 3977  11.882   8.117   7.503
 4062AUC    AUC 3978  11.276   7.136   7.503
 4063AUC    AUC 3979  11.579   7.136   7.503
 4064AUC    AUC 3980  11.882   7.136   7.503
 4065AUC    AUC 3981  11.579   7.323   7.993
 4066AUC    AUC 3982  11.579   7.626   7.993
 4067AUC    AUC 3983  11.579   7.930   7.993
 4068AUC    AUC 3984  11.579   7.323   7.012
 4069AUC    AUC 3985  11.579   7.626   7.012
 4070AUC    AUC 3986  11.579   7.930   7.012
 4071AUC    AUC 3987  11.824   7.475   7.900
 4072AUC    AUC 3988  11.824   7.778   7.900
 4073AUC    AUC 3989  11.824   7.475   7.106
 4074AUC    AUC 3990  11.824   7.778   7.106
 4075AUC    AUC 3991  11.334   7.475   7.900
 4076AUC    AUC 3992  11.334   7.778   7.900
 4077AUC    AUC 3993  11.334   7.475   7.106
 4078AUC    AUC 3994  11.334   7.778   7.106
 4079AUC    AUC 3995  11.976   7.872   7.351
 4080AUC    AUC 3996  11.976   7.872   7.654
 4081AUC    AUC 3997  11.182   7.872   7.351
 4082AUC    AUC 3998  11.182   7.872   7.654
 4083AUC    AUC 3999  11.976   7.381   7.351
 4084AUC    AUC 4000  11.976   7.381   7.654
 4085AUC    AUC 4001  11.182   7.381   7.351
 4086AUC    AUC 4002  11.182   7.381   7.654
 4087AUC    AUC 4003  11.427   8.024   7.748
 4088AUC    AUC 4004  11.731   8.024   7.748
 4089AUC    AUC 4005  11.427   7.229   7.748
 4090AUC    AUC 4006  11.731   7.229   7.748
 4091AUC    AUC 4007  11.427   8.024   7.257
 4092AUC    AUC 4008  11.731   8.024   7.257
 4093AUC    AUC 4009  11.427   7.229   7.257
 4094AUC    AUC 4010  11.731   7.229   7.257
 4095AUSL   AUS 4011  11.988   7.626   8.083
 4096AUSL   AUS 4012  11.844   7.210   8.013
 4097AUL    AUL 4013  12.070   7.323   8.297
 4098THSLK    S 4014  11.954   7.023   8.153
 4099ETHY    C1 4015  11.990   6.624   8.368
 4100ETHY    C1 4016  12.100   6.194   8.665
 4101ETHY    C1 4017  12.278   5.830   9.000
 4102ETHY    C1 4018  12.512   5.534   9.364
 4103ETHY    C1 4019  12.798   5.317   9.752
 4104ETHY    C1 4020  13.129   5.184  10.156
 4105THSLK    S 4021  12.081   7.574   8.324
 4106ETHY    C1 4022  12.285   7.354   8.665
 4107ETHY    C1 4023  12.549   7.177   9.094
 4108ETHY    C1 4024  12.825   7.101   9.535
 4109ETHY    C1 4025  13.102   7.118   9.980
 4110ETHY    C1 4026  13.372   7.231  10.419
 4111ETHY    C1 4027  13.631   7.440  10.845
 4112AUSL   AUS 4028  11.743   7.475   8.176
 4113AUSL   AUS 4029  11.415   7.778   8.176
 4114AUL    AUL 4030  11.579   7.626   8.484
 4115THSLK    S 4031  11.818   7.420   8.413
 4116ETHY    C1 4032  11.882   7.140   8.765
 4117ETHY    C1 4033  11.985   6.885   9.223
 4118ETHY    C1 4034  12.112   6.726   9.708
 4119ETHY    C1 4035  12.254   6.657  10.208
 4120ETHY    C1 4036  12.408   6.685  10.713
 4121ETHY    C1 4037  12.568   6.809  11.212
 4122THSLK    S 4038  11.330   7.732   8.428
 4123ETHY    C1 4039  11.256   7.582   8.850
 4124ETHY    C1 4040  11.151   7.494   9.367
 4125ETHY    C1 4041  11.029   7.506   9.878
 4126ETHY    C1 4042  10.891   7.607  10.373
 4127ETHY    C1 4043  10.736   7.800  10.840
 4128ETHY    C1 4044  10.567   8.081  11.268
 4129AUSL   AUS 4045  11.743   7.778   8.176
 4130AUSL   AUS 4046  12.089   7.891   7.919
 4131AUL    AUL 4047  12.070   7.930   8.297
 4132THSLK    S 4048  11.828   7.834   8.410
 4133ETHY    C1 4049  11.902   8.115   8.759
 4134ETHY    C1 4050  12.007   8.370   9.217
 4135ETHY    C1 4051  12.129   8.529   9.703
 4136ETHY    C1 4052  12.268   8.598  10.204
 4137ETHY    C1 4053  12.422   8.571  10.708
 4138ETHY    C1 4054  12.591   8.447  11.206
 4139THSLK    S 4055  12.261   7.989   8.080
 4140ETHY    C1 4056  12.624   7.960   8.350
 4141ETHY    C1 4057  13.046   8.016   8.673
 4142ETHY    C1 4058  13.438   8.170   8.989
 4143ETHY    C1 4059  13.792   8.408   9.293
 4144ETHY    C1 4060  14.099   8.729   9.580
 4145ETHY    C1 4061  14.350   9.126   9.844
 4146AUSL   AUS 4062  11.988   7.626   6.923
 4147AUSL   AUS 4063  11.844   8.043   6.992
 4148AUL    AUL 4064  12.070   7.930   6.708
 4149THSLK    S 4065  12.090   7.574   6.687
 4150ETHY    C1 4066  12.303   7.354   6.351
 4151ETHY    C1 4067  12.568   7.177   5.923
 4152ETHY    C1 4068  12.840   7.101   5.479
 4153ETHY    C1 4069  13.114   7.118   5.033
 4154ETHY    C1 4070  13.385   7.231   4.594
 4155ETHY    C1 4071  13.650   7.440   4.173
 4156THSLK    S 4072  12.022   8.154   6.829
 4157ETHY    C1 4073  12.324   8.222   6.497
 4158ETHY    C1 4074  12.643   8.385   6.100
 4159ETHY    C1 4075  12.908   8.632   5.719
 4160ETHY    C1 4076  13.120   8.952   5.362
 4161ETHY    C1 4077  13.273   9.342   5.039
 4162ETHY    C1 4078  13.364   9.794   4.759
 4163AUSL   AUS 4079  11.743   7.475   6.829
 4164AUSL   AUS 4080  12.089   7.362   7.086
 4165AUL    AUL 4081  12.070   7.323   6.708
 4166THSLK    S 4082  12.222   7.170   6.949
 4167ETHY    C1 4083  12.405   6.803   6.752
 4168ETHY    C1 4084  12.677   6.431   6.483
 4169ETHY    C1 4085  13.002   6.142   6.186
 4170ETHY    C1 4086  13.368   5.935   5.874
 4171ETHY    C1 4087  13.772   5.816   5.555
 4172ETHY    C1 4088  14.205   5.791   5.235
 4173THSLK    S 4089  11.828   7.419   6.596
 4174ETHY    C1 4090  11.902   7.138   6.246
 4175ETHY    C1 4091  12.007   6.882   5.788
 4176ETHY    C1 4092  12.129   6.724   5.302
 4177ETHY    C1 4093  12.268   6.655   4.801
 4178ETHY    C1 4094  12.422   6.682   4.297
 4179ETHY    C1 4095  12.591   6.806   3.799
 4180AUSL   AUS 4096  11.743   7.778   6.829
 4181AUSL   AUS 4097  11.415   7.475   6.829
 4182AUL    AUL 4098  11.579   7.626   6.521
 4183THSLK    S 4099  11.323   7.419   6.597
 4184ETHY    C1 4100  11.188   7.141   6.264
 4185ETHY    C1 4101  11.027   6.888   5.822
 4186ETHY    C1 4102  10.875   6.731   5.343
 4187ETHY    C1 4103  10.739   6.662   4.842
 4188ETHY    C1 4104  10.622   6.688   4.328
 4189ETHY    C1 4105  10.529   6.807   3.810
 4190THSLK    S 4106  11.845   7.732   6.583
 4191ETHY    C1 4107  11.991   7.582   6.179
 4192ETHY    C1 4108  12.153   7.491   5.678
 4193ETHY    C1 4109  12.300   7.501   5.173
 4194ETHY    C1 4110  12.433   7.602   4.677
 4195ETHY    C1 4111  12.550   7.797   4.200
 4196ETHY    C1 4112  12.651   8.083   3.754
 4197AUSL   AUS 4113  11.170   7.626   8.083
 4198AUSL   AUS 4114  11.314   8.043   8.013
 4199AUL    AUL 4115  11.088   7.930   8.297
 4200THSLK    S 4116  11.068   7.574   8.319
 4201ETHY    C1 4117  10.856   7.354   8.654
 4202ETHY    C1 4118  10.590   7.177   9.082
 4203ETHY    C1 4119  10.318   7.101   9.526
 4204ETHY    C1 4120  10.044   7.118   9.973
 4205ETHY    C1 4121   9.773   7.231  10.411
 4206ETHY    C1 4122   9.508   7.440  10.832
 4207THSLK    S 4123  11.197   8.167   8.202
 4208ETHY    C1 4124  11.154   8.310   8.632
 4209ETHY    C1 4125  11.043   8.535   9.104
 4210ETHY    C1 4126  10.867   8.812   9.515
 4211ETHY    C1 4127  10.636   9.128   9.863
 4212ETHY    C1 4128  10.350   9.476  10.138
 4213ETHY    C1 4129  10.013   9.849  10.334
 4214AUSL   AUS 4130  11.415   7.475   8.176
 4215AUSL   AUS 4131  11.069   7.362   7.919
 4216AUL    AUL 4132  11.088   7.323   8.297
 4217THSLK    S 4133  10.892   7.199   8.026
 4218ETHY    C1 4134  10.521   6.942   8.082
 4219ETHY    C1 4135  10.099   6.654   8.237
 4220ETHY    C1 4136   9.709   6.399   8.482
 4221ETHY    C1 4137   9.357   6.182   8.803
 4222ETHY    C1 4138   9.051   6.011   9.198
 4223ETHY    C1 4139   8.794   5.890   9.657
 4224THSLK    S 4140  11.313   7.421   8.406
 4225ETHY    C1 4141  11.167   7.145   8.736
 4226ETHY    C1 4142  11.005   6.893   9.178
 4227ETHY    C1 4143  10.858   6.735   9.658
 4228ETHY    C1 4144  10.725   6.665  10.160
 4229ETHY    C1 4145  10.608   6.691  10.674
 4230ETHY    C1 4146  10.507   6.812  11.190
 4231AUSL   AUS 4147  11.170   7.626   6.923
 4232AUSL   AUS 4148  11.314   7.210   6.992
 4233AUL    AUL 4149  11.088   7.323   6.708
 4234THSLK    S 4150  11.077   7.574   6.681
 4235ETHY    C1 4151  10.873   7.354   6.341
 4236ETHY    C1 4152  10.609   7.177   5.911
 4237ETHY    C1 4153  10.333   7.101   5.470
 4238ETHY    C1 4154  10.056   7.118   5.025
 4239ETHY    C1 4155   9.786   7.231   4.586
 4240ETHY    C1 4156   9.527   7.440   4.161
 4241THSLK    S 4157  11.143   7.037   6.878
 4242ETHY    C1 4158  10.848   6.711   6.760
 4243ETHY    C1 4159  10.530   6.344   6.538
 4244ETHY    C1 4160  10.262   6.009   6.233
 4245ETHY    C1 4161  10.048   5.709   5.861
 4246ETHY    C1 4162   9.896   5.451   5.426
 4247ETHY    C1 4163   9.810   5.239   4.937
 4248AUSL   AUS 4164  11.415   7.778   6.829
 4249AUSL   AUS 4165  11.069   7.891   7.086
 4250AUL    AUL 4166  11.088   7.930   6.708
 4251THSLK    S 4167  10.942   8.018   6.895
 4252ETHY    C1 4168  10.765   8.099   6.484
 4253ETHY    C1 4169  10.494   8.239   6.046
 4254ETHY    C1 4170  10.167   8.427   5.679
 4255ETHY    C1 4171   9.798   8.656   5.385
 4256ETHY    C1 4172   9.396   8.923   5.173
 4257ETHY    C1 4173   8.967   9.225   5.047
 4258THSLK    S 4174  11.340   7.734   6.576
 4259ETHY    C1 4175  11.276   7.587   6.150
 4260ETHY    C1 4176  11.173   7.498   5.634
 4261ETHY    C1 4177  11.046   7.509   5.123
 4262ETHY    C1 4178  10.904   7.610   4.629
 4263ETHY    C1 4179  10.751   7.803   4.162
 4264ETHY    C1 4180  10.590   8.086   3.732
 4265AUSL   AUS 4181  12.159   8.035   7.503
 4266AUSL   AUS 4182  12.089   7.891   7.086
 4267AUL    AUL 4183  12.373   8.117   7.199
 4268THSLK    S 4184  12.267   7.990   6.934
 4269ETHY    C1 4185  12.637   7.963   6.671
 4270ETHY    C1 4186  13.059   8.019   6.349
 4271ETHY    C1 4187  13.449   8.173   6.030
 4272ETHY    C1 4188  13.801   8.410   5.724
 4273ETHY    C1 4189  14.108   8.731   5.438
 4274ETHY    C1 4190  14.364   9.130   5.179
 4275THSLK    S 4191  12.425   8.088   7.508
 4276ETHY    C1 4192  12.879   8.110   7.513
 4277ETHY    C1 4193  13.401   8.224   7.514
 4278ETHY    C1 4194  13.884   8.433   7.511
 4279ETHY    C1 4195  14.320   8.723   7.510
 4280ETHY    C1 4196  14.699   9.090   7.510
 4281ETHY    C1 4197  15.013   9.530   7.514
 4282AUSL   AUS 4198  12.253   7.790   7.351
 4283AUSL   AUS 4199  12.253   7.463   7.654
 4284AUL    AUL 4200  12.561   7.626   7.503
 4285THSLK    S 4201  12.509   7.829   7.350
 4286ETHY    C1 4202  12.945   7.721   7.286
 4287ETHY    C1 4203  13.471   7.683   7.201
 4288ETHY    C1 4204  13.986   7.747   7.113
 4289ETHY    C1 4205  14.480   7.901   7.026
 4290ETHY    C1 4206  14.940   8.146   6.945
 4291ETHY    C1 4207  15.359   8.478   6.873
 4292THSLK    S 4208  12.480   7.323   7.663
 4293ETHY    C1 4209  12.799   7.007   7.728
 4294ETHY    C1 4210  13.232   6.703   7.807
 4295ETHY    C1 4211  13.707   6.493   7.887
 4296ETHY    C1 4212  14.210   6.372   7.971
 4297ETHY    C1 4213  14.730   6.346   8.058
 4298ETHY    C1 4214  15.258   6.416   8.147
 4299AUSL   AUS 4215  12.253   7.790   7.654
 4300AUSL   AUS 4216  11.995   8.137   7.767
 4301AUL    AUL 4217  12.373   8.117   7.806
 4302THSLK    S 4218  12.178   8.251   7.926
 4303ETHY    C1 4219  12.561   8.369   8.140
 4304ETHY    C1 4220  12.979   8.592   8.388
 4305ETHY    C1 4221  13.338   8.897   8.622
 4306ETHY    C1 4222  13.635   9.270   8.840
 4307ETHY    C1 4223  13.860   9.704   9.038
 4308ETHY    C1 4224  14.007  10.192   9.215
 4309THSLK    S 4225  12.507   7.829   7.665
 4310ETHY    C1 4226  12.942   7.721   7.740
 4311ETHY    C1 4227  13.468   7.683   7.826
 4312ETHY    C1 4228  13.983   7.746   7.910
 4313ETHY    C1 4229  14.477   7.900   7.993
 4314ETHY    C1 4230  14.938   8.145   8.075
 4315ETHY    C1 4231  15.355   8.477   8.155
 4316AUSL   AUS 4232  10.999   8.035   7.503
 4317AUSL   AUS 4233  11.069   7.891   7.919
 4318AUL    AUL 4234  10.785   8.117   7.806
 4319THSLK    S 4235  10.936   8.010   8.109
 4320ETHY    C1 4236  10.753   8.082   8.519
 4321ETHY    C1 4237  10.481   8.222   8.957
 4322ETHY    C1 4238  10.156   8.413   9.324
 4323ETHY    C1 4239   9.790   8.644   9.619
 4324ETHY    C1 4240   9.387   8.911   9.831
 4325ETHY    C1 4241   8.953   9.207   9.956
 4326THSLK    S 4242  10.788   8.176   7.508
 4327ETHY    C1 4243  10.566   8.573   7.513
 4328ETHY    C1 4244  10.230   8.988   7.514
 4329ETHY    C1 4245   9.827   9.327   7.511
 4330ETHY    C1 4246   9.373   9.588   7.510
 4331ETHY    C1 4247   8.874   9.762   7.510
 4332ETHY    C1 4248   8.341   9.846   7.514
 4333AUSL   AUS 4249  10.905   7.790   7.351
 4334AUSL   AUS 4250  11.163   8.137   7.238
 4335AUL    AUL 4251  10.785   8.117   7.199
 4336THSLK    S 4252  10.678   7.905   7.303
 4337ETHY    C1 4253  10.359   8.105   7.049
 4338ETHY    C1 4254   9.926   8.311   6.813
 4339ETHY    C1 4255   9.451   8.477   6.661
 4340ETHY    C1 4256   8.948   8.606   6.590
 4341ETHY    C1 4257   8.428   8.696   6.605
 4342ETHY    C1 4258   7.900   8.744   6.708
 4343THSLK    S 4259  11.051   8.300   7.060
 4344ETHY    C1 4260  10.972   8.610   6.737
 4345ETHY    C1 4261  10.797   8.984   6.397
 4346ETHY    C1 4262  10.543   9.352   6.120
 4347ETHY    C1 4263  10.223   9.709   5.909
 4348ETHY    C1 4264   9.842  10.047   5.770
 4349ETHY    C1 4265   9.407  10.361   5.709
 4350AUSL   AUS 4266  10.905   7.790   7.654
 4351AUSL   AUS 4267  10.905   7.463   7.351
 4352AUL    AUL 4268  10.597   7.626   7.503
 4353THSLK    S 4269  10.651   7.390   7.394
 4354ETHY    C1 4270  10.216   7.372   7.524
 4355ETHY    C1 4271   9.690   7.312   7.597
 4356ETHY    C1 4272   9.175   7.208   7.578
 4357ETHY    C1 4273   8.681   7.065   7.477
 4358ETHY    C1 4274   8.221   6.882   7.294
 4359ETHY    C1 4275   7.803   6.662   7.034
 4360THSLK    S 4276  10.677   7.896   7.707
 4361ETHY    C1 4277  10.356   8.087   7.966
 4362ETHY    C1 4278   9.923   8.291   8.202
 4363ETHY    C1 4279   9.448   8.462   8.352
 4364ETHY    C1 4280   8.946   8.594   8.422
 4365ETHY    C1 4281   8.426   8.682   8.407
 4366ETHY    C1 4282   7.897   8.723   8.308
 4367AUSL   AUS 4283  12.159   7.217   7.503
 4368AUSL   AUS 4284  12.089   7.362   7.919
 4369AUL    AUL 4285  12.373   7.136   7.806
 4370THSLK    S 4286  12.370   7.076   7.508
 4371ETHY    C1 4287  12.592   6.680   7.513
 4372ETHY    C1 4288  12.928   6.265   7.514
 4373ETHY    C1 4289  13.331   5.926   7.511
 4374ETHY    C1 4290  13.785   5.665   7.510
 4375ETHY    C1 4291  14.284   5.491   7.510
 4376ETHY    C1 4292  14.817   5.407   7.514
 4377THSLK    S 4293  12.216   7.171   8.064
 4378ETHY    C1 4294  12.393   6.806   8.270
 4379ETHY    C1 4295  12.664   6.434   8.540
 4380ETHY    C1 4296  12.991   6.145   8.834
 4381ETHY    C1 4297  13.360   5.937   9.142
 4382ETHY    C1 4298  13.762   5.819   9.462
 4383ETHY    C1 4299  14.191   5.794   9.789
 4384AUSL   AUS 4300  12.253   7.463   7.351
 4385AUSL   AUS 4301  11.995   7.116   7.238
 4386AUL    AUL 4302  12.373   7.136   7.199
 4387THSLK    S 4303  12.481   7.323   7.353
 4388ETHY    C1 4304  12.802   7.006   7.298
 4389ETHY    C1 4305  13.235   6.703   7.221
 4390ETHY    C1 4306  13.710   6.493   7.136
 4391ETHY    C1 4307  14.212   6.372   7.048
 4392ETHY    C1 4308  14.732   6.345   6.963
 4393ETHY    C1 4309  15.261   6.416   6.881
 4394THSLK    S 4310  12.111   6.927   7.108
 4395ETHY    C1 4311  12.195   6.498   6.984
 4396ETHY    C1 4312  12.370   6.026   6.803
 4397ETHY    C1 4313  12.623   5.615   6.593
 4398ETHY    C1 4314  12.941   5.267   6.366
 4399ETHY    C1 4315  13.323   4.992   6.126
 4400ETHY    C1 4316  13.761   4.795   5.880
 4401AUSL   AUS 4317  10.999   7.217   7.503
 4402AUSL   AUS 4318  11.069   7.362   7.086
 4403AUL    AUL 4319  10.785   7.136   7.199
 4404THSLK    S 4320  10.898   7.191   6.978
 4405ETHY    C1 4321  10.534   6.926   6.921
 4406ETHY    C1 4322  10.112   6.636   6.766
 4407ETHY    C1 4323   9.720   6.384   6.521
 4408ETHY    C1 4324   9.366   6.171   6.200
 4409ETHY    C1 4325   9.059   5.998   5.806
 4410ETHY    C1 4326   8.808   5.871   5.346
 4411THSLK    S 4327  10.733   7.165   7.508
 4412ETHY    C1 4328  10.279   7.143   7.513
 4413ETHY    C1 4329   9.757   7.029   7.514
 4414ETHY    C1 4330   9.275   6.820   7.511
 4415ETHY    C1 4331   8.838   6.530   7.510
 4416ETHY    C1 4332   8.459   6.163   7.510
 4417ETHY    C1 4333   8.146   5.723   7.514
 4418AUSL   AUS 4334  10.905   7.463   7.654
 4419AUSL   AUS 4335  11.163   7.116   7.767
 4420AUL    AUL 4336  10.785   7.136   7.806
 4421THSLK    S 4337  10.975   6.976   7.878
 4422ETHY    C1 4338  10.588   6.739   7.893
 4423ETHY    C1 4339  10.170   6.419   7.982
 4424ETHY    C1 4340   9.812   6.070   8.149
 4425ETHY    C1 4341   9.517   5.706   8.382
 4426ETHY    C1 4342   9.292   5.335   8.683
 4427ETHY    C1 4343   9.141   4.964   9.045
 4428THSLK    S 4344  10.649   7.400   7.616
 4429ETHY    C1 4345  10.213   7.390   7.491
 4430ETHY    C1 4346   9.687   7.331   7.419
 4431ETHY    C1 4347   9.172   7.224   7.436
 4432ETHY    C1 4348   8.678   7.078   7.535
 4433ETHY    C1 4349   8.218   6.896   7.718
 4434ETHY    C1 4350   7.799   6.683   7.983
 4435AUSL   AUS 4351  11.579   8.206   7.912
 4436AUSL   AUS 4352  11.163   8.137   7.767
 4437AUL    AUL 4353  11.276   8.421   7.993
 4438THSLK    S 4354  11.047   8.293   7.952
 4439ETHY    C1 4355  10.963   8.595   8.280
 4440ETHY    C1 4356  10.788   8.968   8.621
 4441ETHY    C1 4357  10.535   9.339   8.895
 4442ETHY    C1 4358  10.217   9.698   9.105
 4443ETHY    C1 4359   9.835  10.036   9.244
 4444ETHY    C1 4360   9.397  10.344   9.309
 4445THSLK    S 4361  11.621   8.428   8.035
 4446ETHY    C1 4362  11.805   8.703   8.347
 4447ETHY    C1 4363  11.955   9.083   8.691
 4448ETHY    C1 4364  12.021   9.506   8.998
 4449ETHY    C1 4365  12.008   9.957   9.264
 4450ETHY    C1 4366  11.911  10.426   9.485
 4451ETHY    C1 4367  11.731  10.905   9.656
 4452AUSL   AUS 4368  11.427   8.300   7.666
 4453AUSL   AUS 4369  11.731   8.300   7.339
 4454AUL    AUL 4370  11.579   8.608   7.503
 4455THSLK    S 4371  11.470   8.544   7.776
 4456ETHY    C1 4372  11.614   8.938   7.951
 4457ETHY    C1 4373  11.701   9.432   8.137
 4458ETHY    C1 4374  11.689   9.933   8.294
 4459ETHY    C1 4375  11.588  10.431   8.425
 4460ETHY    C1 4376  11.396  10.912   8.527
 4461ETHY    C1 4377  11.116  11.367   8.600
 4462THSLK    S 4378  11.786   8.531   7.243
 4463ETHY    C1 4379  12.062   8.861   7.096
 4464ETHY    C1 4380  12.312   9.302   6.927
 4465ETHY    C1 4381  12.468   9.779   6.771
 4466ETHY    C1 4382  12.537  10.281   6.635
 4467ETHY    C1 4383  12.513  10.797   6.525
 4468ETHY    C1 4384  12.396  11.317   6.443
 4469AUSL   AUS 4385  11.731   8.300   7.666
 4470AUSL   AUS 4386  11.844   8.043   8.013
 4471AUL    AUL 4387  11.882   8.421   7.993
 4472THSLK    S 4388  12.015   8.151   8.183
 4473ETHY    C1 4389  12.310   8.216   8.523
 4474ETHY    C1 4390  12.628   8.378   8.920
 4475ETHY    C1 4391  12.896   8.627   9.298
 4476ETHY    C1 4392  13.110   8.949   9.653
 4477ETHY    C1 4393  13.262   9.337   9.976
 4478ETHY    C1 4394  13.348   9.787  10.262
 4479THSLK    S 4395  11.784   8.529   7.772
 4480ETHY    C1 4396  12.056   8.857   7.929
 4481ETHY    C1 4397  12.306   9.297   8.100
 4482ETHY    C1 4398  12.464   9.776   8.251
 4483ETHY    C1 4399  12.533  10.278   8.383
 4484ETHY    C1 4400  12.509  10.793   8.494
 4485ETHY    C1 4401  12.390  11.312   8.585
 4486AUSL   AUS 4402  11.579   7.046   7.912
 4487AUSL   AUS 4403  11.995   7.116   7.767
 4488AUL    AUL 4404  11.882   6.832   7.993
 4489THSLK    S 4405  11.532   6.796   7.989
 4490ETHY    C1 4406  11.342   6.400   8.103
 4491ETHY    C1 4407  11.191   5.922   8.289
 4492ETHY    C1 4408  11.128   5.457   8.528
 4493ETHY    C1 4409  11.143   5.015   8.809
 4494ETHY    C1 4410  11.239   4.608   9.132
 4495ETHY    C1 4411  11.414   4.245   9.489
 4496THSLK    S 4412  12.107   6.929   7.907
 4497ETHY    C1 4413  12.186   6.501   8.040
 4498ETHY    C1 4414  12.361   6.031   8.222
 4499ETHY    C1 4415  12.615   5.619   8.428
 4500ETHY    C1 4416  12.935   5.270   8.652
 4501ETHY    C1 4417  13.316   4.995   8.893
 4502ETHY    C1 4418  13.751   4.799   9.147
 4503AUSL   AUS 4419  11.427   6.953   7.666
 4504AUSL   AUS 4420  11.314   7.210   8.013
 4505AUL    AUL 4421  11.276   6.832   7.993
 4506THSLK    S 4422  11.372   6.717   7.745
 4507ETHY    C1 4423  11.097   6.358   7.788
 4508ETHY    C1 4424  10.846   5.893   7.869
 4509ETHY    C1 4425  10.690   5.403   7.981
 4510ETHY    C1 4426  10.621   4.904   8.122
 4511ETHY    C1 4427  10.645   4.404   8.292
 4512ETHY    C1 4428  10.762   3.916   8.489
 4513THSLK    S 4429  11.136   7.044   8.129
 4514ETHY    C1 4430  10.834   6.726   8.248
 4515ETHY    C1 4431  10.515   6.359   8.471
 4516ETHY    C1 4432  10.250   6.022   8.776
 4517ETHY    C1 4433  10.038   5.720   9.147
 4518ETHY    C1 4434   9.885   5.462   9.582
 4519ETHY    C1 4435   9.794   5.255  10.072
 4520AUSL   AUS 4436  11.731   6.953   7.666
 4521AUSL   AUS 4437  11.427   6.953   7.339
 4522AUL    AUL 4438  11.579   6.645   7.503
 4523THSLK    S 4439  11.374   6.714   7.270
 4524ETHY    C1 4440  11.102   6.352   7.236
 4525ETHY    C1 4441  10.852   5.887   7.157
 4526ETHY    C1 4442  10.695   5.398   7.041
 4527ETHY    C1 4443  10.625   4.899   6.896
 4528ETHY    C1 4444  10.649   4.400   6.727
 4529ETHY    C1 4445  10.768   3.909   6.538
 4530THSLK    S 4446  11.685   6.701   7.749
 4531ETHY    C1 4447  11.538   6.275   7.811
 4532ETHY    C1 4448  11.452   5.757   7.906
 4533ETHY    C1 4449  11.464   5.244   8.025
 4534ETHY    C1 4450  11.566   4.749   8.165
 4535ETHY    C1 4451  11.758   4.284   8.325
 4536ETHY    C1 4452  12.036   3.858   8.504
 4537AUSL   AUS 4453  11.579   8.206   7.094
 4538AUSL   AUS 4454  11.995   8.137   7.238
 4539AUL    AUL 4455  11.882   8.421   7.012
 4540THSLK    S 4456  11.626   8.433   6.977
 4541ETHY    C1 4457  11.816   8.712   6.674
 4542ETHY    C1 4458  11.967   9.093   6.330
 4543ETHY    C1 4459  12.031   9.513   6.021
 4544ETHY    C1 4460  12.015   9.963   5.752
 4545ETHY    C1 4461  11.919  10.433   5.532
 4546ETHY    C1 4462  11.744  10.916   5.366
 4547THSLK    S 4463  12.183   8.253   7.089
 4548ETHY    C1 4464  12.570   8.373   6.883
 4549ETHY    C1 4465  12.988   8.596   6.637
 4550ETHY    C1 4466  13.346   8.900   6.400
 4551ETHY    C1 4467  13.641   9.272   6.178
 4552ETHY    C1 4468  13.866   9.707   5.981
 4553ETHY    C1 4469  14.017  10.196   5.811
 4554AUSL   AUS 4470  11.427   8.300   7.339
 4555AUSL   AUS 4471  11.314   8.043   6.992
 4556AUL    AUL 4472  11.276   8.421   7.012
 4557THSLK    S 4473  11.473   8.547   7.239
 4558ETHY    C1 4474  11.620   8.944   7.074
 4559ETHY    C1 4475  11.706   9.438   6.889
 4560ETHY    C1 4476  11.694   9.939   6.727
 4561ETHY    C1 4477  11.592  10.435   6.593
 4562ETHY    C1 4478  11.400  10.916   6.492
 4563ETHY    C1 4479  11.122  11.374   6.427
 4564THSLK    S 4480  11.204   8.175   6.805
 4565ETHY    C1 4481  11.168   8.324   6.377
 4566ETHY    C1 4482  11.058   8.550   5.906
 4567ETHY    C1 4483  10.880   8.825   5.494
 4568ETHY    C1 4484  10.646   9.138   5.145
 4569ETHY    C1 4485  10.360   9.487   4.870
 4570ETHY    C1 4486  10.029   9.865   4.675
 4571AUSL   AUS 4487  11.579   7.046   7.094
 4572AUSL   AUS 4488  11.163   7.116   7.238
 4573AUL    AUL 4489  11.276   6.832   7.012
 4574THSLK    S 4490  10.980   6.968   7.134
 4575ETHY    C1 4491  10.597   6.724   7.124
 4576ETHY    C1 4492  10.179   6.403   7.035
 4577ETHY    C1 4493   9.820   6.057   6.866
 4578ETHY    C1 4494   9.523   5.696   6.631
 4579ETHY    C1 4495   9.298   5.324   6.331
 4580ETHY    C1 4496   9.151   4.947   5.974
 4581THSLK    S 4497  11.537   6.791   7.024
 4582ETHY    C1 4498  11.353   6.390   6.917
 4583ETHY    C1 4499  11.203   5.912   6.732
 4584ETHY    C1 4500  11.137   5.449   6.491
 4585ETHY    C1 4501  11.150   5.009   6.206
 4586ETHY    C1 4502  11.247   4.602   5.885
 4587ETHY    C1 4503  11.427   4.234   5.533
 4588AUSL   AUS 4504  11.731   6.953   7.339
 4589AUSL   AUS 4505  11.844   7.210   6.992
 4590AUL    AUL 4506  11.882   6.832   7.012
 4591THSLK    S 4507  11.688   6.699   7.266
 4592ETHY    C1 4508  11.544   6.271   7.213
 4593ETHY    C1 4509  11.457   5.752   7.120
 4594ETHY    C1 4510  11.469   5.240   6.997
 4595ETHY    C1 4511  11.570   4.746   6.854
 4596ETHY    C1 4512  11.762   4.281   6.695
 4597ETHY    C1 4513  12.042   3.853   6.523
 4598THSLK    S 4514  11.961   7.020   6.859
 4599ETHY    C1 4515  12.005   6.618   6.651
 4600ETHY    C1 4516  12.115   6.187   6.355
 4601ETHY    C1 4517  12.291   5.824   6.017
 4602ETHY    C1 4518  12.522   5.530   5.651
 4603ETHY    C1 4519  12.808   5.313   5.264
 4604ETHY    C1 4520  13.145   5.177   4.865
 4605AUC    AUC 4521  23.179   5.194   7.503
 4606AUC    AUC 4522  23.424   5.194   7.351
 4607AUC    AUC 4523  23.424   5.194   7.654
 4608AUC    AUC 4524  22.934   5.194   7.351
 4609AUC    AUC 4525  22.934   5.194   7.654
 4610AUC    AUC 4526  23.027   5.440   7.503
 4611AUC    AUC 4527  23.331   5.440   7.503
 4612AUC    AUC 4528  23.027   4.949   7.503
 4613AUC    AUC 4529  23.331   4.949   7.503
 4614AUC    AUC 4530  23.179   5.043   7.748
 4615AUC    AUC 4531  23.179   5.346   7.748
 4616AUC    AUC 4532  23.179   5.043   7.257
 4617AUC    AUC 4533  23.179   5.346   7.257
 4618AUC    AUC 4534  23.670   5.194   7.199
 4619AUC    AUC 4535  23.670   5.194   7.503
 4620AUC    AUC 4536  23.670   5.194   7.806
 4621AUC    AUC 4537  22.688   5.194   7.199
 4622AUC    AUC 4538  22.688   5.194   7.503
 4623AUC    AUC 4539  22.688   5.194   7.806
 4624AUC    AUC 4540  22.876   5.685   7.503
 4625AUC    AUC 4541  23.179   5.685   7.503
 4626AUC    AUC 4542  23.482   5.685   7.503
 4627AUC    AUC 4543  22.876   4.704   7.503
 4628AUC    AUC 4544  23.179   4.704   7.503
 4629AUC    AUC 4545  23.482   4.704   7.503
 4630AUC    AUC 4546  23.179   4.891   7.993
 4631AUC    AUC 4547  23.179   5.194   7.993
 4632AUC    AUC 4548  23.179   5.498   7.993
 4633AUC    AUC 4549  23.179   4.891   7.012
 4634AUC    AUC 4550  23.179   5.194   7.012
 4635AUC    AUC 4551  23.179   5.498   7.012
 4636AUC    AUC 4552  23.424   5.043   7.900
 4637AUC    AUC 4553  23.424   5.346   7.900
 4638AUC    AUC 4554  23.424   5.043   7.106
 4639AUC    AUC 4555  23.424   5.346   7.106
 4640AUC    AUC 4556  22.934   5.043   7.900
 4641AUC    AUC 4557  22.934   5.346   7.900
 4642AUC    AUC 4558  22.934   5.043   7.106
 4643AUC    AUC 4559  22.934   5.346   7.106
 4644AUC    AUC 4560  23.576   5.440   7.351
 4645AUC    AUC 4561  23.576   5.440   7.654
 4646AUC    AUC 4562  22.782   5.440   7.351
 4647AUC    AUC 4563  22.782   5.440   7.654
 4648AUC    AUC 4564  23.576   4.949   7.351
 4649AUC    AUC 4565  23.576   4.949   7.654
 4650AUC    AUC 4566  22.782   4.949   7.351
 4651AUC    AUC 4567  22.782   4.949   7.654
 4652AUC    AUC 4568  23.027   5.592   7.748
 4653AUC    AUC 4569  23.331   5.592   7.748
 4654AUC    AUC 4570  23.027   4.797   7.748
 4655AUC    AUC 4571  23.331   4.797   7.748
 4656AUC    AUC 4572  23.027   5.592   7.257
 4657AUC    AUC 4573  23.331   5.592   7.257
 4658AUC    AUC 4574  23.027   4.797   7.257
 4659AUC    AUC 4575  23.331   4.797   7.257
 4660AUSL   AUS 4576  23.588   5.194   8.083
 4661AUSL   AUS 4577  23.444   4.778   8.013
 4662AUL    AUL 4578  23.670   4.891   8.297
 4663THSLK    S 4579  23.554   4.591   8.153
 4664ETHY    C1 4580  23.590   4.192   8.368
 4665ETHY    C1 4581  23.700   3.762   8.665
 4666ETHY    C1 4582  23.878   3.398   9.000
 4667ETHY    C1 4583  24.112   3.102   9.364
 4668ETHY    C1 4584  24.398   2.885   9.752
 4669ETHY    C1 4585  24.729   2.752  10.156
 4670THSLK    S 4586  23.681   5.142   8.324
 4671ETHY    C1 4587  23.885   4.922   8.665
 4672ETHY    C1 4588  24.149   4.745   9.094
 4673ETHY    C1 4589  24.425   4.669   9.535
 4674ETHY    C1 4590  24.702   4.686   9.980
 4675ETHY    C1 4591  24.972   4.799  10.419
 4676ETHY    C1 4592  25.231   5.008  10.845
 4677AUSL   AUS 4593  23.343   5.043   8.176
 4678AUSL   AUS 4594  23.015   5.346   8.176
 4679AUL    AUL 4595  23.179   5.194   8.484
 4680THSLK    S 4596  23.418   4.988   8.413
 4681ETHY    C1 4597  23.482   4.708   8.765
 4682ETHY    C1 4598  23.585   4.453   9.223
 4683ETHY    C1 4599  23.712   4.294   9.708
 4684ETHY    C1 4600  23.854   4.225  10.208
 4685ETHY    C1 4601  24.008   4.253  10.713
 4686ETHY    C1 4602  24.168   4.377  11.212
 4687THSLK    S 4603  22.930   5.300   8.428
 4688ETHY    C1 4604  22.856   5.150   8.850
 4689ETHY    C1 4605  22.751   5.062   9.367
 4690ETHY    C1 4606  22.629   5.074   9.878
 4691ETHY    C1 4607  22.491   5.175  10.373
 4692ETHY    C1 4608  22.336   5.368  10.840
 4693ETHY    C1 4609  22.167   5.649  11.268
 4694AUSL   AUS 4610  23.343   5.346   8.176
 4695AUSL   AUS 4611  23.689   5.459   7.919
 4696AUL    AUL 4612  23.670   5.498   8.297
 4697THSLK    S 4613  23.428   5.402   8.410
 4698ETHY    C1 4614  23.502   5.683   8.759
 4699ETHY    C1 4615  23.607   5.938   9.217
 4700ETHY    C1 4616  23.729   6.097   9.703
 4701ETHY    C1 4617  23.868   6.166  10.204
 4702ETHY    C1 4618  24.022   6.139  10.708
 4703ETHY    C1 4619  24.191   6.015  11.206
 4704THSLK    S 4620  23.861   5.557   8.080
 4705ETHY    C1 4621  24.224   5.528   8.350
 4706ETHY    C1 4622  24.646   5.584   8.673
 4707ETHY    C1 4623  25.038   5.738   8.989
 4708ETHY    C1 4624  25.392   5.976   9.293
 4709ETHY    C1 4625  25.699   6.297   9.580
 4710ETHY    C1 4626  25.950   6.694   9.844
 4711AUSL   AUS 4627  23.588   5.194   6.923
 4712AUSL   AUS 4628  23.444   5.611   6.992
 4713AUL    AUL 4629  23.670   5.498   6.708
 4714THSLK    S 4630  23.690   5.142   6.687
 4715ETHY    C1 4631  23.903   4.922   6.351
 4716ETHY    C1 4632  24.168   4.745   5.923
 4717ETHY    C1 4633  24.440   4.669   5.479
 4718ETHY    C1 4634  24.714   4.686   5.033
 4719ETHY    C1 4635  24.985   4.799   4.594
 4720ETHY    C1 4636  25.250   5.008   4.173
 4721THSLK    S 4637  23.622   5.722   6.829
 4722ETHY    C1 4638  23.924   5.790   6.497
 4723ETHY    C1 4639  24.243   5.953   6.100
 4724ETHY    C1 4640  24.508   6.200   5.719
 4725ETHY    C1 4641  24.720   6.520   5.362
 4726ETHY    C1 4642  24.873   6.910   5.039
 4727ETHY    C1 4643  24.964   7.362   4.759
 4728AUSL   AUS 4644  23.343   5.043   6.829
 4729AUSL   AUS 4645  23.689   4.930   7.086
 4730AUL    AUL 4646  23.670   4.891   6.708
 4731THSLK    S 4647  23.822   4.738   6.949
 4732ETHY    C1 4648  24.005   4.371   6.752
 4733ETHY    C1 4649  24.277   3.999   6.483
 4734ETHY    C1 4650  24.602   3.710   6.186
 4735ETHY    C1 4651  24.968   3.503   5.874
 4736ETHY    C1 4652  25.372   3.384   5.555
 4737ETHY    C1 4653  25.805   3.359   5.235
 4738THSLK    S 4654  23.428   4.987   6.596
 4739ETHY    C1 4655  23.502   4.706   6.246
 4740ETHY    C1 4656  23.607   4.450   5.788
 4741ETHY    C1 4657  23.729   4.292   5.302
 4742ETHY    C1 4658  23.868   4.223   4.801
 4743ETHY    C1 4659  24.022   4.250   4.297
 4744ETHY    C1 4660  24.191   4.374   3.799
 4745AUSL   AUS 4661  23.343   5.346   6.829
 4746AUSL   AUS 4662  23.015   5.043   6.829
 4747AUL    AUL 4663  23.179   5.194   6.521
 4748THSLK    S 4664  22.923   4.987   6.597
 4749ETHY    C1 4665  22.788   4.709   6.264
 4750ETHY    C1 4666  22.627   4.456   5.822
 4751ETHY    C1 4667  22.475   4.299   5.343
 4752ETHY    C1 4668  22.339   4.230   4.842
 4753ETHY    C1 4669  22.222   4.256   4.328
 4754ETHY    C1 4670  22.129   4.375   3.810
 4755THSLK    S 4671  23.445   5.300   6.583
 4756ETHY    C1 4672  23.591   5.150   6.179
 4757ETHY    C1 4673  23.753   5.059   5.678
 4758ETHY    C1 4674  23.900   5.069   5.173
 4759ETHY    C1 4675  24.033   5.170   4.677
 4760ETHY    C1 4676  24.150   5.365   4.200
 4761ETHY    C1 4677  24.251   5.651   3.754
 4762AUSL   AUS 4678  22.770   5.194   8.083
 4763AUSL   AUS 4679  22.914   5.611   8.013
 4764AUL    AUL 4680  22.688   5.498   8.297
 4765THSLK    S 4681  22.668   5.142   8.319
 4766ETHY    C1 4682  22.456   4.922   8.654
 4767ETHY    C1 4683  22.190   4.745   9.082
 4768ETHY    C1 4684  21.918   4.669   9.526
 4769ETHY    C1 4685  21.644   4.686   9.973
 4770ETHY    C1 4686  21.373   4.799  10.411
 4771ETHY    C1 4687  21.108   5.008  10.832
 4772THSLK    S 4688  22.797   5.735   8.202
 4773ETHY    C1 4689  22.754   5.878   8.632
 4774ETHY    C1 4690  22.643   6.103   9.104
 4775ETHY    C1 4691  22.467   6.380   9.515
 4776ETHY    C1 4692  22.236   6.696   9.863
 4777ETHY    C1 4693  21.950   7.044  10.138
 4778ETHY    C1 4694  21.613   7.417  10.334
 4779AUSL   AUS 4695  23.015   5.043   8.176
 4780AUSL   AUS 4696  22.669   4.930   7.919
 4781AUL    AUL 4697  22.688   4.891   8.297
 4782THSLK    S 4698  22.492   4.767   8.026
 4783ETHY    C1 4699  22.121   4.510   8.082
 4784ETHY    C1 4700  21.699   4.222   8.237
 4785ETHY    C1 4701  21.309   3.967   8.482
 4786ETHY    C1 4702  20.957   3.750   8.803
 4787ETHY    C1 4703  20.651   3.579   9.198
 4788ETHY    C1 4704  20.394   3.458   9.657
 4789THSLK    S 4705  22.913   4.989   8.406
 4790ETHY    C1 4706  22.767   4.713   8.736
 4791ETHY    C1 4707  22.605   4.461   9.178
 4792ETHY    C1 4708  22.458   4.303   9.658
 4793ETHY    C1 4709  22.325   4.233  10.160
 4794ETHY    C1 4710  22.208   4.259  10.674
 4795ETHY    C1 4711  22.107   4.380  11.190
 4796AUSL   AUS 4712  22.770   5.194   6.923
 4797AUSL   AUS 4713  22.914   4.778   6.992
 4798AUL    AUL 4714  22.688   4.891   6.708
 4799THSLK    S 4715  22.677   5.142   6.681
 4800ETHY    C1 4716  22.473   4.922   6.341
 4801ETHY    C1 4717  22.209   4.745   5.911
 4802ETHY    C1 4718  21.933   4.669   5.470
 4803ETHY    C1 4719  21.656   4.686   5.025
 4804ETHY    C1 4720  21.386   4.799   4.586
 4805ETHY    C1 4721  21.127   5.008   4.161
 4806THSLK    S 4722  22.743   4.605   6.878
 4807ETHY    C1 4723  22.448   4.279   6.760
 4808ETHY    C1 4724  22.130   3.912   6.538
 4809ETHY    C1 4725  21.862   3.577   6.233
 4810ETHY    C1 4726  21.648   3.277   5.861
 4811ETHY    C1 4727  21.496   3.019   5.426
 4812ETHY    C1 4728  21.410   2.807   4.937
 4813AUSL   AUS 4729  23.015   5.346   6.829
 4814AUSL   AUS 4730  22.669   5.459   7.086
 4815AUL    AUL 4731  22.688   5.498   6.708
 4816THSLK    S 4732  22.542   5.586   6.895
 4817ETHY    C1 4733  22.365   5.667   6.484
 4818ETHY    C1 4734  22.094   5.807   6.046
 4819ETHY    C1 4735  21.767   5.995   5.679
 4820ETHY    C1 4736  21.398   6.224   5.385
 4821ETHY    C1 4737  20.996   6.491   5.173
 4822ETHY    C1 4738  20.567   6.793   5.047
 4823THSLK    S 4739  22.940   5.302   6.576
 4824ETHY    C1 4740  22.876   5.155   6.150
 4825ETHY    C1 4741  22.773   5.066   5.634
 4826ETHY    C1 4742  22.646   5.077   5.123
 4827ETHY    C1 4743  22.504   5.178   4.629
 4828ETHY    C1 4744  22.351   5.371   4.162
 4829ETHY    C1 4745  22.190   5.654   3.732
 4830AUSL   AUS 4746  23.759   5.603   7.503
 4831AUSL   AUS 4747  23.689   5.459   7.086
 4832AUL    AUL 4748  23.973   5.685   7.199
 4833THSLK    S 4749  23.867   5.558   6.934
 4834ETHY    C1 4750  24.237   5.531   6.671
 4835ETHY    C1 4751  24.659   5.587   6.349
 4836ETHY    C1 4752  25.049   5.741   6.030
 4837ETHY    C1 4753  25.401   5.978   5.724
 4838ETHY    C1 4754  25.708   6.299   5.438
 4839ETHY    C1 4755  25.964   6.698   5.179
 4840THSLK    S 4756  24.025   5.656   7.508
 4841ETHY    C1 4757  24.479   5.678   7.513
 4842ETHY    C1 4758  25.001   5.792   7.514
 4843ETHY    C1 4759  25.484   6.001   7.511
 4844ETHY    C1 4760  25.920   6.291   7.510
 4845ETHY    C1 4761  26.299   6.658   7.510
 4846ETHY    C1 4762  26.613   7.098   7.514
 4847AUSL   AUS 4763  23.853   5.358   7.351
 4848AUSL   AUS 4764  23.853   5.031   7.654
 4849AUL    AUL 4765  24.161   5.194   7.503
 4850THSLK    S 4766  24.109   5.397   7.350
 4851ETHY    C1 4767  24.545   5.289   7.286
 4852ETHY    C1 4768  25.071   5.251   7.201
 4853ETHY    C1 4769  25.586   5.315   7.113
 4854ETHY    C1 4770  26.080   5.469   7.026
 4855ETHY    C1 4771  26.540   5.714   6.945
 4856ETHY    C1 4772  26.959   6.046   6.873
 4857THSLK    S 4773  24.080   4.891   7.663
 4858ETHY    C1 4774  24.399   4.575   7.728
 4859ETHY    C1 4775  24.832   4.271   7.807
 4860ETHY    C1 4776  25.307   4.061   7.887
 4861ETHY    C1 4777  25.810   3.940   7.971
 4862ETHY    C1 4778  26.330   3.914   8.058
 4863ETHY    C1 4779  26.858   3.984   8.147
 4864AUSL   AUS 4780  23.853   5.358   7.654
 4865AUSL   AUS 4781  23.595   5.705   7.767
 4866AUL    AUL 4782  23.973   5.685   7.806
 4867THSLK    S 4783  23.778   5.819   7.926
 4868ETHY    C1 4784  24.161   5.937   8.140
 4869ETHY    C1 4785  24.579   6.160   8.388
 4870ETHY    C1 4786  24.938   6.465   8.622
 4871ETHY    C1 4787  25.235   6.838   8.840
 4872ETHY    C1 4788  25.460   7.272   9.038
 4873ETHY    C1 4789  25.607   7.760   9.215
 4874THSLK    S 4790  24.107   5.397   7.665
 4875ETHY    C1 4791  24.542   5.289   7.740
 4876ETHY    C1 4792  25.068   5.251   7.826
 4877ETHY    C1 4793  25.583   5.314   7.910
 4878ETHY    C1 4794  26.077   5.468   7.993
 4879ETHY    C1 4795  26.538   5.713   8.075
 4880ETHY    C1 4796  26.955   6.045   8.155
 4881AUSL   AUS 4797  22.599   5.603   7.503
 4882AUSL   AUS 4798  22.669   5.459   7.919
 4883AUL    AUL 4799  22.385   5.685   7.806
 4884THSLK    S 4800  22.536   5.578   8.109
 4885ETHY    C1 4801  22.353   5.650   8.519
 4886ETHY    C1 4802  22.081   5.790   8.957
 4887ETHY    C1 4803  21.756   5.981   9.324
 4888ETHY    C1 4804  21.390   6.212   9.619
 4889ETHY    C1 4805  20.987   6.479   9.831
 4890ETHY    C1 4806  20.553   6.775   9.956
 4891THSLK    S 4807  22.388   5.744   7.508
 4892ETHY    C1 4808  22.166   6.141   7.513
 4893ETHY    C1 4809  21.830   6.556   7.514
 4894ETHY    C1 4810  21.427   6.895   7.511
 4895ETHY    C1 4811  20.973   7.156   7.510
 4896ETHY    C1 4812  20.474   7.330   7.510
 4897ETHY    C1 4813  19.941   7.414   7.514
 4898AUSL   AUS 4814  22.505   5.358   7.351
 4899AUSL   AUS 4815  22.763   5.705   7.238
 4900AUL    AUL 4816  22.385   5.685   7.199
 4901THSLK    S 4817  22.278   5.473   7.303
 4902ETHY    C1 4818  21.959   5.673   7.049
 4903ETHY    C1 4819  21.526   5.879   6.813
 4904ETHY    C1 4820  21.051   6.045   6.661
 4905ETHY    C1 4821  20.548   6.174   6.590
 4906ETHY    C1 4822  20.028   6.264   6.605
 4907ETHY    C1 4823  19.500   6.312   6.708
 4908THSLK    S 4824  22.651   5.868   7.060
 4909ETHY    C1 4825  22.572   6.178   6.737
 4910ETHY    C1 4826  22.397   6.552   6.397
 4911ETHY    C1 4827  22.143   6.920   6.120
 4912ETHY    C1 4828  21.823   7.277   5.909
 4913ETHY    C1 4829  21.442   7.615   5.770
 4914ETHY    C1 4830  21.007   7.929   5.709
 4915AUSL   AUS 4831  22.505   5.358   7.654
 4916AUSL   AUS 4832  22.505   5.031   7.351
 4917AUL    AUL 4833  22.197   5.194   7.503
 4918THSLK    S 4834  22.251   4.958   7.394
 4919ETHY    C1 4835  21.816   4.940   7.524
 4920ETHY    C1 4836  21.290   4.880   7.597
 4921ETHY    C1 4837  20.775   4.776   7.578
 4922ETHY    C1 4838  20.281   4.633   7.477
 4923ETHY    C1 4839  19.821   4.450   7.294
 4924ETHY    C1 4840  19.403   4.230   7.034
 4925THSLK    S 4841  22.277   5.464   7.707
 4926ETHY    C1 4842  21.956   5.655   7.966
 4927ETHY    C1 4843  21.523   5.859   8.202
 4928ETHY    C1 4844  21.048   6.030   8.352
 4929ETHY    C1 4845  20.546   6.162   8.422
 4930ETHY    C1 4846  20.026   6.250   8.407
 4931ETHY    C1 4847  19.497   6.291   8.308
 4932AUSL   AUS 4848  23.759   4.785   7.503
 4933AUSL   AUS 4849  23.689   4.930   7.919
 4934AUL    AUL 4850  23.973   4.704   7.806
 4935THSLK    S 4851  23.970   4.644   7.508
 4936ETHY    C1 4852  24.192   4.248   7.513
 4937ETHY    C1 4853  24.528   3.833   7.514
 4938ETHY    C1 4854  24.931   3.494   7.511
 4939ETHY    C1 4855  25.385   3.233   7.510
 4940ETHY    C1 4856  25.884   3.059   7.510
 4941ETHY    C1 4857  26.417   2.975   7.514
 4942THSLK    S 4858  23.816   4.739   8.064
 4943ETHY    C1 4859  23.993   4.374   8.270
 4944ETHY    C1 4860  24.264   4.002   8.540
 4945ETHY    C1 4861  24.591   3.713   8.834
 4946ETHY    C1 4862  24.960   3.505   9.142
 4947ETHY    C1 4863  25.362   3.387   9.462
 4948ETHY    C1 4864  25.791   3.362   9.789
 4949AUSL   AUS 4865  23.853   5.031   7.351
 4950AUSL   AUS 4866  23.595   4.684   7.238
 4951AUL    AUL 4867  23.973   4.704   7.199
 4952THSLK    S 4868  24.081   4.891   7.353
 4953ETHY    C1 4869  24.402   4.574   7.298
 4954ETHY    C1 4870  24.835   4.271   7.221
 4955ETHY    C1 4871  25.310   4.061   7.136
 4956ETHY    C1 4872  25.812   3.940   7.048
 4957ETHY    C1 4873  26.332   3.913   6.963
 4958ETHY    C1 4874  26.861   3.984   6.881
 4959THSLK    S 4875  23.711   4.495   7.108
 4960ETHY    C1 4876  23.795   4.066   6.984
 4961ETHY    C1 4877  23.970   3.594   6.803
 4962ETHY    C1 4878  24.223   3.183   6.593
 4963ETHY    C1 4879  24.541   2.835   6.366
 4964ETHY    C1 4880  24.923   2.560   6.126
 4965ETHY    C1 4881  25.361   2.363   5.880
 4966AUSL   AUS 4882  22.599   4.785   7.503
 4967AUSL   AUS 4883  22.669   4.930   7.086
 4968AUL    AUL 4884  22.385   4.704   7.199
 4969THSLK    S 4885  22.498   4.759   6.978
 4970ETHY    C1 4886  22.134   4.494   6.921
 4971ETHY    C1 4887  21.712   4.204   6.766
 4972ETHY    C1 4888  21.320   3.952   6.521
 4973ETHY    C1 4889  20.966   3.739   6.200
 4974ETHY    C1 4890  20.659   3.566   5.806
 4975ETHY    C1 4891  20.408   3.439   5.346
 4976THSLK    S 4892  22.333   4.733   7.508
 4977ETHY    C1 4893  21.879   4.711   7.513
 4978ETHY    C1 4894  21.357   4.597   7.514
 4979ETHY    C1 4895  20.875   4.388   7.511
 4980ETHY    C1 4896  20.438   4.098   7.510
 4981ETHY    C1 4897  20.059   3.731   7.510
 4982ETHY    C1 4898  19.746   3.291   7.514
 4983AUSL   AUS 4899  22.505   5.031   7.654
 4984AUSL   AUS 4900  22.763   4.684   7.767
 4985AUL    AUL 4901  22.385   4.704   7.806
 4986THSLK    S 4902  22.575   4.544   7.878
 4987ETHY    C1 4903  22.188   4.307   7.893
 4988ETHY    C1 4904  21.770   3.987   7.982
 4989ETHY    C1 4905  21.412   3.638   8.149
 4990ETHY    C1 4906  21.117   3.274   8.382
 4991ETHY    C1 4907  20.892   2.903   8.683
 4992ETHY    C1 4908  20.741   2.532   9.045
 4993THSLK    S 4909  22.249   4.968   7.616
 4994ETHY    C1 4910  21.813   4.958   7.491
 4995ETHY    C1 4911  21.287   4.899   7.419
 4996ETHY    C1 4912  20.772   4.792   7.436
 4997ETHY    C1 4913  20.278   4.646   7.535
 4998ETHY    C1 4914  19.818   4.464   7.718
 4999ETHY    C1 4915  19.399   4.251   7.983
 5000AUSL   AUS 4916  23.179   5.774   7.912
 5001AUSL   AUS 4917  22.763   5.705   7.767
 5002AUL    AUL 4918  22.876   5.989   7.993
 5003THSLK    S 4919  22.647   5.861   7.952
 5004ETHY    C1 4920  22.563   6.163   8.280
 5005ETHY    C1 4921  22.388   6.536   8.621
 5006ETHY    C1 4922  22.135   6.907   8.895
 5007ETHY    C1 4923  21.817   7.266   9.105
 5008ETHY    C1 4924  21.435   7.604   9.244
 5009ETHY    C1 4925  20.997   7.912   9.309
 5010THSLK    S 4926  23.221   5.996   8.035
 5011ETHY    C1 4927  23.405   6.271   8.347
 5012ETHY    C1 4928  23.555   6.651   8.691
 5013ETHY    C1 4929  23.621   7.074   8.998
 5014ETHY    C1 4930  23.608   7.525   9.264
 5015ETHY    C1 4931  23.511   7.994   9.485
 5016ETHY    C1 4932  23.331   8.473   9.656
 5017AUSL   AUS 4933  23.027   5.868   7.666
 5018AUSL   AUS 4934  23.331   5.868   7.339
 5019AUL    AUL 4935  23.179   6.176   7.503
 5020THSLK    S 4936  23.070   6.112   7.776
 5021ETHY    C1 4937  23.214   6.506   7.951
 5022ETHY    C1 4938  23.301   7.000   8.137
 5023ETHY    C1 4939  23.289   7.501   8.294
 5024ETHY    C1 4940  23.188   7.999   8.425
 5025ETHY    C1 4941  22.996   8.480   8.527
 5026ETHY    C1 4942  22.716   8.935   8.600
 5027THSLK    S 4943  23.386   6.099   7.243
 5028ETHY    C1 4944  23.662   6.429   7.096
 5029ETHY    C1 4945  23.912   6.870   6.927
 5030ETHY    C1 4946  24.068   7.347   6.771
 5031ETHY    C1 4947  24.137   7.849   6.635
 5032ETHY    C1 4948  24.113   8.365   6.525
 5033ETHY    C1 4949  23.996   8.885   6.443
 5034AUSL   AUS 4950  23.331   5.868   7.666
 5035AUSL   AUS 4951  23.444   5.611   8.013
 5036AUL    AUL 4952  23.482   5.989   7.993
 5037THSLK    S 4953  23.615   5.719   8.183
 5038ETHY    C1 4954  23.910   5.784   8.523
 5039ETHY    C1 4955  24.228   5.946   8.920
 5040ETHY    C1 4956  24.496   6.195   9.298
 5041ETHY    C1 4957  24.710   6.517   9.653
 5042ETHY    C1 4958  24.862   6.905   9.976
 5043ETHY    C1 4959  24.948   7.355  10.262
 5044THSLK    S 4960  23.384   6.097   7.772
 5045ETHY    C1 4961  23.656   6.425   7.929
 5046ETHY    C1 4962  23.906   6.865   8.100
 5047ETHY    C1 4963  24.064   7.344   8.251
 5048ETHY    C1 4964  24.133   7.846   8.383
 5049ETHY    C1 4965  24.109   8.361   8.494
 5050ETHY    C1 4966  23.990   8.880   8.585
 5051AUSL   AUS 4967  23.179   4.614   7.912
 5052AUSL   AUS 4968  23.595   4.684   7.767
 5053AUL    AUL 4969  23.482   4.400   7.993
 5054THSLK    S 4970  23.132   4.364   7.989
 5055ETHY    C1 4971  22.942   3.968   8.103
 5056ETHY    C1 4972  22.791   3.490   8.289
 5057ETHY    C1 4973  22.728   3.025   8.528
 5058ETHY    C1 4974  22.743   2.583   8.809
 5059ETHY    C1 4975  22.839   2.176   9.132
 5060ETHY    C1 4976  23.014   1.813   9.489
 5061THSLK    S 4977  23.707   4.497   7.907
 5062ETHY    C1 4978  23.786   4.069   8.040
 5063ETHY    C1 4979  23.961   3.599   8.222
 5064ETHY    C1 4980  24.215   3.187   8.428
 5065ETHY    C1 4981  24.535   2.838   8.652
 5066ETHY    C1 4982  24.916   2.563   8.893
 5067ETHY    C1 4983  25.351   2.367   9.147
 5068AUSL   AUS 4984  23.027   4.521   7.666
 5069AUSL   AUS 4985  22.914   4.778   8.013
 5070AUL    AUL 4986  22.876   4.400   7.993
 5071THSLK    S 4987  22.972   4.285   7.745
 5072ETHY    C1 4988  22.697   3.926   7.788
 5073ETHY    C1 4989  22.446   3.461   7.869
 5074ETHY    C1 4990  22.290   2.971   7.981
 5075ETHY    C1 4991  22.221   2.472   8.122
 5076ETHY    C1 4992  22.245   1.972   8.292
 5077ETHY    C1 4993  22.362   1.484   8.489
 5078THSLK    S 4994  22.736   4.612   8.129
 5079ETHY    C1 4995  22.434   4.294   8.248
 5080ETHY    C1 4996  22.115   3.927   8.471
 5081ETHY    C1 4997  21.850   3.590   8.776
 5082ETHY    C1 4998  21.638   3.288   9.147
 5083ETHY    C1 4999  21.485   3.030   9.582
 5084ETHY    C1 5000  21.394   2.823  10.072
 5085AUSL   AUS 5001  23.331   4.521   7.666
 5086AUSL   AUS 5002  23.027   4.521   7.339
 5087AUL    AUL 5003  23.179   4.213   7.503
 5088THSLK    S 5004  22.974   4.282   7.270
 5089ETHY    C1 5005  22.702   3.920   7.236
 5090ETHY    C1 5006  22.452   3.455   7.157
 5091ETHY    C1 5007  22.295   2.966   7.041
 5092ETHY    C1 5008  22.225   2.467   6.896
 5093ETHY    C1 5009  22.249   1.968   6.727
 5094ETHY    C1 5010  22.368   1.477   6.538
 5095THSLK    S 5011  23.285   4.269   7.749
 5096ETHY    C1 5012  23.138   3.843   7.811
 5097ETHY    C1 5013  23.052   3.325   7.906
 5098ETHY    C1 5014  23.064   2.812   8.025
 5099ETHY    C1 5015  23.166   2.317   8.165
 5100ETHY    C1 5016  23.358   1.852   8.325
 5101ETHY    C1 5017  23.636   1.426   8.504
 5102AUSL   AUS 5018  23.179   5.774   7.094
 5103AUSL   AUS 5019  23.595   5.705   7.238
 5104AUL    AUL 5020  23.482   5.989   7.012
 5105THSLK    S 5021  23.226   6.001   6.977
 5106ETHY    C1 5022  23.416   6.280   6.674
 5107ETHY    C1 5023  23.567   6.661   6.330
 5108ETHY    C1 5024  23.631   7.081   6.021
 5109ETHY    C1 5025  23.615   7.531   5.752
 5110ETHY    C1 5026  23.519   8.001   5.532
 5111ETHY    C1 5027  23.344   8.484   5.366
 5112THSLK    S 5028  23.783   5.821   7.089
 5113ETHY    C1 5029  24.170   5.941   6.883
 5114ETHY    C1 5030  24.588   6.164   6.637
 5115ETHY    C1 5031  24.946   6.468   6.400
 5116ETHY    C1 5032  25.241   6.840   6.178
 5117ETHY    C1 5033  25.466   7.275   5.981
 5118ETHY    C1 5034  25.617   7.764   5.811
 5119AUSL   AUS 5035  23.027   5.868   7.339
 5120AUSL   AUS 5036  22.914   5.611   6.992
 5121AUL    AUL 5037  22.876   5.989   7.012
 5122THSLK    S 5038  23.073   6.115   7.239
 5123ETHY    C1 5039  23.220   6.512   7.074
 5124ETHY    C1 5040  23.306   7.006   6.889
 5125ETHY    C1 5041  23.294   7.507   6.727
 5126ETHY    C1 5042  23.192   8.003   6.593
 5127ETHY    C1 5043  23.000   8.484   6.492
 5128ETHY    C1 5044  22.722   8.942   6.427
 5129THSLK    S 5045  22.804   5.743   6.805
 5130ETHY    C1 5046  22.768   5.892   6.377
 5131ETHY    C1 5047  22.658   6.118   5.906
 5132ETHY    C1 5048  22.480   6.393   5.494
 5133ETHY    C1 5049  22.246   6.706   5.145
 5134ETHY    C1 5050  21.960   7.055   4.870
 5135ETHY    C1 5051  21.629   7.433   4.675
 5136AUSL   AUS 5052  23.179   4.614   7.094
 5137AUSL   AUS 5053  22.763   4.684   7.238
 5138AUL    AUL 5054  22.876   4.400   7.012
 5139THSLK    S 5055  22.580   4.536   7.134
 5140ETHY    C1 5056  22.197   4.292   7.124
 5141ETHY    C1 5057  21.779   3.971   7.035
 5142ETHY    C1 5058  21.420   3.625   6.866
 5143ETHY    C1 5059  21.123   3.264   6.631
 5144ETHY    C1 5060  20.898   2.892   6.331
 5145ETHY    C1 5061  20.751   2.515   5.974
 5146THSLK    S 5062  23.137   4.359   7.024
 5147ETHY    C1 5063  22.953   3.958   6.917
 5148ETHY    C1 5064  22.803   3.480   6.732
 5149ETHY    C1 5065  22.737   3.017   6.491
 5150ETHY    C1 5066  22.750   2.577   6.206
 5151ETHY    C1 5067  22.847   2.170   5.885
 5152ETHY    C1 5068  23.027   1.802   5.533
 5153AUSL   AUS 5069  23.331   4.521   7.339
 5154AUSL   AUS 5070  23.444   4.778   6.992
 5155AUL    AUL 5071  23.482   4.400   7.012
 5156THSLK    S 5072  23.288   4.267   7.266
 5157ETHY    C1 5073  23.144   3.839   7.213
 5158ETHY    C1 5074  23.057   3.320   7.120
 5159ETHY    C1 5075  23.069   2.808   6.997
 5160ETHY    C1 5076  23.170   2.314   6.854
 5161ETHY    C1 5077  23.362   1.849   6.695
 5162ETHY    C1 5078  23.642   1.421   6.523
 5163THSLK    S 5079  23.561   4.588   6.859
 5164ETHY    C1 5080  23.605   4.186   6.651
 5165ETHY    C1 5081  23.715   3.755   6.355
 5166ETHY    C1 5082  23.891   3.392   6.017
 5167ETHY    C1 5083  24.122   3.098   5.651
 5168ETHY    C1 5084  24.408   2.881   5.264
 5169ETHY    C1 5085  24.745   2.745   4.865
 5170AUC    AUC 5086  17.769  20.286   7.503
 5171AUC    AUC 5087  18.014  20.286   7.351
 5172AUC    AUC 5088  18.014  20.286   7.654
 5173AUC    AUC 5089  17.524  20.286   7.351
 5174AUC    AUC 5090  17.524  20.286   7.654
 5175AUC    AUC 5091  17.617  20.532   7.503
 5176AUC    AUC 5092  17.921  20.532   7.503
 5177AUC    AUC 5093  17.617  20.041   7.503
 5178AUC    AUC 5094  17.921  20.041   7.503
 5179AUC    AUC 5095  17.769  20.135   7.748
 5180AUC    AUC 5096  17.769  20.438   7.748
 5181AUC    AUC 5097  17.769  20.135   7.257
 5182AUC    AUC 5098  17.769  20.438   7.257
 5183AUC    AUC 5099  18.260  20.286   7.199
 5184AUC    AUC 5100  18.260  20.286   7.503
 5185AUC    AUC 5101  18.260  20.286   7.806
 5186AUC    AUC 5102  17.278  20.286   7.199
 5187AUC    AUC 5103  17.278  20.286   7.503
 5188AUC    AUC 5104  17.278  20.286   7.806
 5189AUC    AUC 5105  17.466  20.777   7.503
 5190AUC    AUC 5106  17.769  20.777   7.503
 5191AUC    AUC 5107  18.072  20.777   7.503
 5192AUC    AUC 5108  17.466  19.796   7.503
 5193AUC    AUC 5109  17.769  19.796   7.503
 5194AUC    AUC 5110  18.072  19.796   7.503
 5195AUC    AUC 5111  17.769  19.983   7.993
 5196AUC    AUC 5112  17.769  20.286   7.993
 5197AUC    AUC 5113  17.769  20.590   7.993
 5198AUC    AUC 5114  17.769  19.983   7.012
 5199AUC    AUC 5115  17.769  20.286   7.012
 5200AUC    AUC 5116  17.769  20.590   7.012
 5201AUC    AUC 5117  18.014  20.135   7.900
 5202AUC    AUC 5118  18.014  20.438   7.900
 5203AUC    AUC 5119  18.014  20.135   7.106
 5204AUC    AUC 5120  18.014  20.438   7.106
 5205AUC    AUC 5121  17.524  20.135   7.900
 5206AUC    AUC 5122  17.524  20.438   7.900
 5207AUC    AUC 5123  17.524  20.135   7.106
 5208AUC    AUC 5124  17.524  20.438   7.106
 5209AUC    AUC 5125  18.166  20.532   7.351
 5210AUC    AUC 5126  18.166  20.532   7.654
 5211AUC    AUC 5127  17.372  20.532   7.351
 5212AUC    AUC 5128  17.372  20.532   7.654
 5213AUC    AUC 5129  18.166  20.041   7.351
 5214AUC    AUC 5130  18.166  20.041   7.654
 5215AUC    AUC 5131  17.372  20.041   7.351
 5216AUC    AUC 5132  17.372  20.041   7.654
 5217AUC    AUC 5133  17.617  20.684   7.748
 5218AUC    AUC 5134  17.921  20.684   7.748
 5219AUC    AUC 5135  17.617  19.889   7.748
 5220AUC    AUC 5136  17.921  19.889   7.748
 5221AUC    AUC 5137  17.617  20.684   7.257
 5222AUC    AUC 5138  17.921  20.684   7.257
 5223AUC    AUC 5139  17.617  19.889   7.257
 5224AUC    AUC 5140  17.921  19.889   7.257
 5225AUSL   AUS 5141  18.178  20.286   8.083
 5226AUSL   AUS 5142  18.034  19.870   8.013
 5227AUL    AUL 5143  18.260  19.983   8.297
 5228THSLK    S 5144  18.144  19.683   8.153
 5229ETHY    C1 5145  18.180  19.284   8.368
 5230ETHY    C1 5146  18.290  18.854   8.665
 5231ETHY    C1 5147  18.468  18.490   9.000
 5232ETHY    C1 5148  18.702  18.194   9.364
 5233ETHY    C1 5149  18.988  17.977   9.752
 5234ETHY    C1 5150  19.319  17.844  10.156
 5235THSLK    S 5151  18.271  20.234   8.324
 5236ETHY    C1 5152  18.475  20.014   8.665
 5237ETHY    C1 5153  18.739  19.837   9.094
 5238ETHY    C1 5154  19.015  19.761   9.535
 5239ETHY    C1 5155  19.292  19.778   9.980
 5240ETHY    C1 5156  19.562  19.891  10.419
 5241ETHY    C1 5157  19.821  20.100  10.845
 5242AUSL   AUS 5158  17.933  20.135   8.176
 5243AUSL   AUS 5159  17.605  20.438   8.176
 5244AUL    AUL 5160  17.769  20.286   8.484
 5245THSLK    S 5161  18.008  20.080   8.413
 5246ETHY    C1 5162  18.072  19.800   8.765
 5247ETHY    C1 5163  18.175  19.545   9.223
 5248ETHY    C1 5164  18.302  19.386   9.708
 5249ETHY    C1 5165  18.444  19.317  10.208
 5250ETHY    C1 5166  18.598  19.345  10.713
 5251ETHY    C1 5167  18.758  19.469  11.212
 5252THSLK    S 5168  17.520  20.392   8.428
 5253ETHY    C1 5169  17.446  20.242   8.850
 5254ETHY    C1 5170  17.341  20.154   9.367
 5255ETHY    C1 5171  17.219  20.166   9.878
 5256ETHY    C1 5172  17.081  20.267  10.373
 5257ETHY    C1 5173  16.926  20.460  10.840
 5258ETHY    C1 5174  16.757  20.741  11.268
 5259AUSL   AUS 5175  17.933  20.438   8.176
 5260AUSL   AUS 5176  18.279  20.551   7.919
 5261AUL    AUL 5177  18.260  20.590   8.297
 5262THSLK    S 5178  18.018  20.494   8.410
 5263ETHY    C1 5179  18.092  20.775   8.759
 5264ETHY    C1 5180  18.197  21.030   9.217
 5265ETHY    C1 5181  18.319  21.189   9.703
 5266ETHY    C1 5182  18.458  21.258  10.204
 5267ETHY    C1 5183  18.612  21.231  10.708
 5268ETHY    C1 5184  18.781  21.107  11.206
 5269THSLK    S 5185  18.451  20.649   8.080
 5270ETHY    C1 5186  18.814  20.620   8.350
 5271ETHY    C1 5187  19.236  20.676   8.673
 5272ETHY    C1 5188  19.628  20.830   8.989
 5273ETHY    C1 5189  19.982  21.068   9.293
 5274ETHY    C1 5190  20.289  21.389   9.580
 5275ETHY    C1 5191  20.540  21.786   9.844
 5276AUSL   AUS 5192  18.178  20.286   6.923
 5277AUSL   AUS 5193  18.034  20.703   6.992
 5278AUL    AUL 5194  18.260  20.590   6.708
 5279THSLK    S 5195  18.280  20.234   6.687
 5280ETHY    C1 5196  18.493  20.014   6.351
 5281ETHY    C1 5197  18.758  19.837   5.923
 5282ETHY    C1 5198  19.030  19.761   5.479
 5283ETHY    C1 5199  19.304  19.778   5.033
 5284ETHY    C1 5200  19.575  19.891   4.594
 5285ETHY    C1 5201  19.840  20.100   4.173
 5286THSLK    S 5202  18.212  20.814   6.829
 5287ETHY    C1 5203  18.514  20.882   6.497
 5288ETHY    C1 5204  18.833  21.045   6.100
 5289ETHY    C1 5205  19.098  21.292   5.719
 5290ETHY    C1 5206  19.310  21.612   5.362
 5291ETHY    C1 5207  19.463  22.002   5.039
 5292ETHY    C1 5208  19.554  22.454   4.759
 5293AUSL   AUS 5209  17.933  20.135   6.829
 5294AUSL   AUS 5210  18.279  20.022   7.086
 5295AUL    AUL 5211  18.260  19.983   6.708
 5296THSLK    S 5212  18.412  19.830   6.949
 5297ETHY    C1 5213  18.595  19.463   6.752
 5298ETHY    C1 5214  18.867  19.091   6.483
 5299ETHY    C1 5215  19.192  18.802   6.186
 5300ETHY    C1 5216  19.558  18.595   5.874
 5301ETHY    C1 5217  19.962  18.476   5.555
 5302ETHY    C1 5218  20.395  18.451   5.235
 5303THSLK    S 5219  18.018  20.079   6.596
 5304ETHY    C1 5220  18.092  19.798   6.246
 5305ETHY    C1 5221  18.197  19.542   5.788
 5306ETHY    C1 5222  18.319  19.384   5.302
 5307ETHY    C1 5223  18.458  19.315   4.801
 5308ETHY    C1 5224  18.612  19.342   4.297
 5309ETHY    C1 5225  18.781  19.466   3.799
 5310AUSL   AUS 5226  17.933  20.438   6.829
 5311AUSL   AUS 5227  17.605  20.135   6.829
 5312AUL    AUL 5228  17.769  20.286   6.521
 5313THSLK    S 5229  17.513  20.079   6.597
 5314ETHY    C1 5230  17.378  19.801   6.264
 5315ETHY    C1 5231  17.217  19.548   5.822
 5316ETHY    C1 5232  17.065  19.391   5.343
 5317ETHY    C1 5233  16.929  19.322   4.842
 5318ETHY    C1 5234  16.812  19.348   4.328
 5319ETHY    C1 5235  16.719  19.467   3.810
 5320THSLK    S 5236  18.035  20.392   6.583
 5321ETHY    C1 5237  18.181  20.242   6.179
 5322ETHY    C1 5238  18.343  20.151   5.678
 5323ETHY    C1 5239  18.490  20.161   5.173
 5324ETHY    C1 5240  18.623  20.262   4.677
 5325ETHY    C1 5241  18.740  20.457   4.200
 5326ETHY    C1 5242  18.841  20.743   3.754
 5327AUSL   AUS 5243  17.360  20.286   8.083
 5328AUSL   AUS 5244  17.504  20.703   8.013
 5329AUL    AUL 5245  17.278  20.590   8.297
 5330THSLK    S 5246  17.258  20.234   8.319
 5331ETHY    C1 5247  17.046  20.014   8.654
 5332ETHY    C1 5248  16.780  19.837   9.082
 5333ETHY    C1 5249  16.508  19.761   9.526
 5334ETHY    C1 5250  16.234  19.778   9.973
 5335ETHY    C1 5251  15.963  19.891  10.411
 5336ETHY    C1 5252  15.698  20.100  10.832
 5337THSLK    S 5253  17.387  20.827   8.202
 5338ETHY    C1 5254  17.344  20.970   8.632
 5339ETHY    C1 5255  17.233  21.195   9.104
 5340ETHY    C1 5256  17.057  21.472   9.515
 5341ETHY    C1 5257  16.826  21.788   9.863
 5342ETHY    C1 5258  16.540  22.136  10.138
 5343ETHY    C1 5259  16.203  22.509  10.334
 5344AUSL   AUS 5260  17.605  20.135   8.176
 5345AUSL   AUS 5261  17.259  20.022   7.919
 5346AUL    AUL 5262  17.278  19.983   8.297
 5347THSLK    S 5263  17.082  19.859   8.026
 5348ETHY    C1 5264  16.711  19.602   8.082
 5349ETHY    C1 5265  16.289  19.314   8.237
 5350ETHY    C1 5266  15.899  19.059   8.482
 5351ETHY    C1 5267  15.547  18.842   8.803
 5352ETHY    C1 5268  15.241  18.671   9.198
 5353ETHY    C1 5269  14.984  18.550   9.657
 5354THSLK    S 5270  17.503  20.081   8.406
 5355ETHY    C1 5271  17.357  19.805   8.736
 5356ETHY    C1 5272  17.195  19.553   9.178
 5357ETHY    C1 5273  17.048  19.395   9.658
 5358ETHY    C1 5274  16.915  19.325  10.160
 5359ETHY    C1 5275  16.798  19.351  10.674
 5360ETHY    C1 5276  16.697  19.472  11.190
 5361AUSL   AUS 5277  17.360  20.286   6.923
 5362AUSL   AUS 5278  17.504  19.870   6.992
 5363AUL    AUL 5279  17.278  19.983   6.708
 5364THSLK    S 5280  17.267  20.234   6.681
 5365ETHY    C1 5281  17.063  20.014   6.341
 5366ETHY    C1 5282  16.799  19.837   5.911
 5367ETHY    C1 5283  16.523  19.761   5.470
 5368ETHY    C1 5284  16.246  19.778   5.025
 5369ETHY    C1 5285  15.976  19.891   4.586
 5370ETHY    C1 5286  15.717  20.100   4.161
 5371THSLK    S 5287  17.333  19.697   6.878
 5372ETHY    C1 5288  17.038  19.371   6.760
 5373ETHY    C1 5289  16.720  19.004   6.538
 5374ETHY    C1 5290  16.452  18.669   6.233
 5375ETHY    C1 5291  16.238  18.369   5.861
 5376ETHY    C1 5292  16.086  18.111   5.426
 5377ETHY    C1 5293  16.000  17.899   4.937
 5378AUSL   AUS 5294  17.605  20.438   6.829
 5379AUSL   AUS 5295  17.259  20.551   7.086
 5380AUL    AUL 5296  17.278  20.590   6.708
 5381THSLK    S 5297  17.132  20.678   6.895
 5382ETHY    C1 5298  16.955  20.759   6.484
 5383ETHY    C1 5299  16.684  20.899   6.046
 5384ETHY    C1 5300  16.357  21.087   5.679
 5385ETHY    C1 5301  15.988  21.316   5.385
 5386ETHY    C1 5302  15.586  21.583   5.173
 5387ETHY    C1 5303  15.157  21.885   5.047
 5388THSLK    S 5304  17.530  20.394   6.576
 5389ETHY    C1 5305  17.466  20.247   6.150
 5390ETHY    C1 5306  17.363  20.158   5.634
 5391ETHY    C1 5307  17.236  20.169   5.123
 5392ETHY    C1 5308  17.094  20.270   4.629
 5393ETHY    C1 5309  16.941  20.463   4.162
 5394ETHY    C1 5310  16.780  20.746   3.732
 5395AUSL   AUS 5311  18.349  20.695   7.503
 5396AUSL   AUS 5312  18.279  20.551   7.086
 5397AUL    AUL 5313  18.563  20.777   7.199
 5398THSLK    S 5314  18.457  20.650   6.934
 5399ETHY    C1 5315  18.827  20.623   6.671
 5400ETHY    C1 5316  19.249  20.679   6.349
 5401ETHY    C1 5317  19.639  20.833   6.030
 5402ETHY    C1 5318  19.991  21.070   5.724
 5403ETHY    C1 5319  20.298  21.391   5.438
 5404ETHY    C1 5320  20.554  21.790   5.179
 5405THSLK    S 5321  18.615  20.748   7.508
 5406ETHY    C1 5322  19.069  20.770   7.513
 5407ETHY    C1 5323  19.591  20.884   7.514
 5408ETHY    C1 5324  20.074  21.093   7.511
 5409ETHY    C1 5325  20.510  21.383   7.510
 5410ETHY    C1 5326  20.889  21.750   7.510
 5411ETHY    C1 5327  21.203  22.190   7.514
 5412AUSL   AUS 5328  18.443  20.450   7.351
 5413AUSL   AUS 5329  18.443  20.123   7.654
 5414AUL    AUL 5330  18.751  20.286   7.503
 5415THSLK    S 5331  18.699  20.489   7.350
 5416ETHY    C1 5332  19.135  20.381   7.286
 5417ETHY    C1 5333  19.661  20.343   7.201
 5418ETHY    C1 5334  20.176  20.407   7.113
 5419ETHY    C1 5335  20.670  20.561   7.026
 5420ETHY    C1 5336  21.130  20.806   6.945
 5421ETHY    C1 5337  21.549  21.138   6.873
 5422THSLK    S 5338  18.670  19.983   7.663
 5423ETHY    C1 5339  18.989  19.667   7.728
 5424ETHY    C1 5340  19.422  19.363   7.807
 5425ETHY    C1 5341  19.897  19.153   7.887
 5426ETHY    C1 5342  20.400  19.032   7.971
 5427ETHY    C1 5343  20.920  19.006   8.058
 5428ETHY    C1 5344  21.448  19.076   8.147
 5429AUSL   AUS 5345  18.443  20.450   7.654
 5430AUSL   AUS 5346  18.185  20.797   7.767
 5431AUL    AUL 5347  18.563  20.777   7.806
 5432THSLK    S 5348  18.368  20.911   7.926
 5433ETHY    C1 5349  18.751  21.029   8.140
 5434ETHY    C1 5350  19.169  21.252   8.388
 5435ETHY    C1 5351  19.528  21.557   8.622
 5436ETHY    C1 5352  19.825  21.930   8.840
 5437ETHY    C1 5353  20.050  22.364   9.038
 5438ETHY    C1 5354  20.197  22.852   9.215
 5439THSLK    S 5355  18.697  20.489   7.665
 5440ETHY    C1 5356  19.132  20.381   7.740
 5441ETHY    C1 5357  19.658  20.343   7.826
 5442ETHY    C1 5358  20.173  20.406   7.910
 5443ETHY    C1 5359  20.667  20.560   7.993
 5444ETHY    C1 5360  21.128  20.805   8.075
 5445ETHY    C1 5361  21.545  21.137   8.155
 5446AUSL   AUS 5362  17.189  20.695   7.503
 5447AUSL   AUS 5363  17.259  20.551   7.919
 5448AUL    AUL 5364  16.975  20.777   7.806
 5449THSLK    S 5365  17.126  20.670   8.109
 5450ETHY    C1 5366  16.943  20.742   8.519
 5451ETHY    C1 5367  16.671  20.882   8.957
 5452ETHY    C1 5368  16.346  21.073   9.324
 5453ETHY    C1 5369  15.980  21.304   9.619
 5454ETHY    C1 5370  15.577  21.571   9.831
 5455ETHY    C1 5371  15.143  21.867   9.956
 5456THSLK    S 5372  16.978  20.836   7.508
 5457ETHY    C1 5373  16.756  21.233   7.513
 5458ETHY    C1 5374  16.420  21.648   7.514
 5459ETHY    C1 5375  16.017  21.987   7.511
 5460ETHY    C1 5376  15.563  22.248   7.510
 5461ETHY    C1 5377  15.064  22.422   7.510
 5462ETHY    C1 5378  14.531  22.506   7.514
 5463AUSL   AUS 5379  17.095  20.450   7.351
 5464AUSL   AUS 5380  17.353  20.797   7.238
 5465AUL    AUL 5381  16.975  20.777   7.199
 5466THSLK    S 5382  16.868  20.565   7.303
 5467ETHY    C1 5383  16.549  20.765   7.049
 5468ETHY    C1 5384  16.116  20.971   6.813
 5469ETHY    C1 5385  15.641  21.137   6.661
 5470ETHY    C1 5386  15.138  21.266   6.590
 5471ETHY    C1 5387  14.618  21.356   6.605
 5472ETHY    C1 5388  14.090  21.404   6.708
 5473THSLK    S 5389  17.241  20.960   7.060
 5474ETHY    C1 5390  17.162  21.270   6.737
 5475ETHY    C1 5391  16.987  21.644   6.397
 5476ETHY    C1 5392  16.733  22.012   6.120
 5477ETHY    C1 5393  16.413  22.369   5.909
 5478ETHY    C1 5394  16.032  22.707   5.770
 5479ETHY    C1 5395  15.597  23.021   5.709
 5480AUSL   AUS 5396  17.095  20.450   7.654
 5481AUSL   AUS 5397  17.095  20.123   7.351
 5482AUL    AUL 5398  16.787  20.286   7.503
 5483THSLK    S 5399  16.841  20.050   7.394
 5484ETHY    C1 5400  16.406  20.032   7.524
 5485ETHY    C1 5401  15.880  19.972   7.597
 5486ETHY    C1 5402  15.365  19.868   7.578
 5487ETHY    C1 5403  14.871  19.725   7.477
 5488ETHY    C1 5404  14.411  19.542   7.294
 5489ETHY    C1 5405  13.993  19.322   7.034
 5490THSLK    S 5406  16.867  20.556   7.707
 5491ETHY    C1 5407  16.546  20.747   7.966
 5492ETHY    C1 5408  16.113  20.951   8.202
 5493ETHY    C1 5409  15.638  21.122   8.352
 5494ETHY    C1 5410  15.136  21.254   8.422
 5495ETHY    C1 5411  14.616  21.342   8.407
 5496ETHY    C1 5412  14.087  21.383   8.308
 5497AUSL   AUS 5413  18.349  19.877   7.503
 5498AUSL   AUS 5414  18.279  20.022   7.919
 5499AUL    AUL 5415  18.563  19.796   7.806
 5500THSLK    S 5416  18.560  19.736   7.508
 5501ETHY    C1 5417  18.782  19.340   7.513
 5502ETHY    C1 5418  19.118  18.925   7.514
 5503ETHY    C1 5419  19.521  18.586   7.511
 5504ETHY    C1 5420  19.975  18.325   7.510
 5505ETHY    C1 5421  20.474  18.151   7.510
 5506ETHY    C1 5422  21.007  18.067   7.514
 5507THSLK    S 5423  18.406  19.831   8.064
 5508ETHY    C1 5424  18.583  19.466   8.270
 5509ETHY    C1 5425  18.854  19.094   8.540
 5510ETHY    C1 5426  19.181  18.805   8.834
 5511ETHY    C1 5427  19.550  18.597   9.142
 5512ETHY    C1 5428  19.952  18.479   9.462
 5513ETHY    C1 5429  20.381  18.454   9.789
 5514AUSL   AUS 5430  18.443  20.123   7.351
 5515AUSL   AUS 5431  18.185  19.776   7.238
 5516AUL    AUL 5432  18.563  19.796   7.199
 5517THSLK    S 5433  18.671  19.983   7.353
 5518ETHY    C1 5434  18.992  19.666   7.298
 5519ETHY    C1 5435  19.425  19.363   7.221
 5520ETHY    C1 5436  19.900  19.153   7.136
 5521ETHY    C1 5437  20.402  19.032   7.048
 5522ETHY    C1 5438  20.922  19.005   6.963
 5523ETHY    C1 5439  21.451  19.076   6.881
 5524THSLK    S 5440  18.301  19.587   7.108
 5525ETHY    C1 5441  18.385  19.158   6.984
 5526ETHY    C1 5442  18.560  18.686   6.803
 5527ETHY    C1 5443  18.813  18.275   6.593
 5528ETHY    C1 5444  19.131  17.927   6.366
 5529ETHY    C1 5445  19.513  17.652   6.126
 5530ETHY    C1 5446  19.951  17.455   5.880
 5531AUSL   AUS 5447  17.189  19.877   7.503
 5532AUSL   AUS 5448  17.259  20.022   7.086
 5533AUL    AUL 5449  16.975  19.796   7.199
 5534THSLK    S 5450  17.088  19.851   6.978
 5535ETHY    C1 5451  16.724  19.586   6.921
 5536ETHY    C1 5452  16.302  19.296   6.766
 5537ETHY    C1 5453  15.910  19.044   6.521
 5538ETHY    C1 5454  15.556  18.831   6.200
 5539ETHY    C1 5455  15.249  18.658   5.806
 5540ETHY    C1 5456  14.998  18.531   5.346
 5541THSLK    S 5457  16.923  19.825   7.508
 5542ETHY    C1 5458  16.469  19.803   7.513
 5543ETHY    C1 5459  15.947  19.689   7.514
 5544ETHY    C1 5460  15.465  19.480   7.511
 5545ETHY    C1 5461  15.028  19.190   7.510
 5546ETHY    C1 5462  14.649  18.823   7.510
 5547ETHY    C1 5463  14.336  18.383   7.514
 5548AUSL   AUS 5464  17.095  20.123   7.654
 5549AUSL   AUS 5465  17.353  19.776   7.767
 5550AUL    AUL 5466  16.975  19.796   7.806
 5551THSLK    S 5467  17.165  19.636   7.878
 5552ETHY    C1 5468  16.778  19.399   7.893
 5553ETHY    C1 5469  16.360  19.079   7.982
 5554ETHY    C1 5470  16.002  18.730   8.149
 5555ETHY    C1 5471  15.707  18.366   8.382
 5556ETHY    C1 5472  15.482  17.995   8.683
 5557ETHY    C1 5473  15.331  17.624   9.045
 5558THSLK    S 5474  16.839  20.060   7.616
 5559ETHY    C1 5475  16.403  20.050   7.491
 5560ETHY    C1 5476  15.877  19.991   7.419
 5561ETHY    C1 5477  15.362  19.884   7.436
 5562ETHY    C1 5478  14.868  19.738   7.535
 5563ETHY    C1 5479  14.408  19.556   7.718
 5564ETHY    C1 5480  13.989  19.343   7.983
 5565AUSL   AUS 5481  17.769  20.866   7.912
 5566AUSL   AUS 5482  17.353  20.797   7.767
 5567AUL    AUL 5483  17.466  21.081   7.993
 5568THSLK    S 5484  17.237  20.953   7.952
 5569ETHY    C1 5485  17.153  21.255   8.280
 5570ETHY    C1 5486  16.978  21.628   8.621
 5571ETHY    C1 5487  16.725  21.999   8.895
 5572ETHY    C1 5488  16.407  22.358   9.105
 5573ETHY    C1 5489  16.025  22.696   9.244
 5574ETHY    C1 5490  15.587  23.004   9.309
 5575THSLK    S 5491  17.811  21.088   8.035
 5576ETHY    C1 5492  17.995  21.363   8.347
 5577ETHY    C1 5493  18.145  21.743   8.691
 5578ETHY    C1 5494  18.211  22.166   8.998
 5579ETHY    C1 5495  18.198  22.617   9.264
 5580ETHY    C1 5496  18.101  23.086   9.485
 5581ETHY    C1 5497  17.921  23.565   9.656
 5582AUSL   AUS 5498  17.617  20.960   7.666
 5583AUSL   AUS 5499  17.921  20.960   7.339
 5584AUL    AUL 5500  17.769  21.268   7.503
 5585THSLK    S 5501  17.660  21.204   7.776
 5586ETHY    C1 5502  17.804  21.598   7.951
 5587ETHY    C1 5503  17.891  22.092   8.137
 5588ETHY    C1 5504  17.879  22.593   8.294
 5589ETHY    C1 5505  17.778  23.091   8.425
 5590ETHY    C1 5506  17.586  23.572   8.527
 5591ETHY    C1 5507  17.306  24.027   8.600
 5592THSLK    S 5508  17.976  21.191   7.243
 5593ETHY    C1 5509  18.252  21.521   7.096
 5594ETHY    C1 5510  18.502  21.962   6.927
 5595ETHY    C1 5511  18.658  22.439   6.771
 5596ETHY    C1 5512  18.727  22.941   6.635
 5597ETHY    C1 5513  18.703  23.457   6.525
 5598ETHY    C1 5514  18.586  23.977   6.443
 5599AUSL   AUS 5515  17.921  20.960   7.666
 5600AUSL   AUS 5516  18.034  20.703   8.013
 5601AUL    AUL 5517  18.072  21.081   7.993
 5602THSLK    S 5518  18.205  20.811   8.183
 5603ETHY    C1 5519  18.500  20.876   8.523
 5604ETHY    C1 5520  18.818  21.038   8.920
 5605ETHY    C1 5521  19.086  21.287   9.298
 5606ETHY    C1 5522  19.300  21.609   9.653
 5607ETHY    C1 5523  19.452  21.997   9.976
 5608ETHY    C1 5524  19.538  22.447  10.262
 5609THSLK    S 5525  17.974  21.189   7.772
 5610ETHY    C1 5526  18.246  21.517   7.929
 5611ETHY    C1 5527  18.496  21.957   8.100
 5612ETHY    C1 5528  18.654  22.436   8.251
 5613ETHY    C1 5529  18.723  22.938   8.383
 5614ETHY    C1 5530  18.699  23.453   8.494
 5615ETHY    C1 5531  18.580  23.972   8.585
 5616AUSL   AUS 5532  17.769  19.706   7.912
 5617AUSL   AUS 5533  18.185  19.776   7.767
 5618AUL    AUL 5534  18.072  19.492   7.993
 5619THSLK    S 5535  17.722  19.456   7.989
 5620ETHY    C1 5536  17.532  19.060   8.103
 5621ETHY    C1 5537  17.381  18.582   8.289
 5622ETHY    C1 5538  17.318  18.117   8.528
 5623ETHY    C1 5539  17.333  17.675   8.809
 5624ETHY    C1 5540  17.429  17.268   9.132
 5625ETHY    C1 5541  17.604  16.905   9.489
 5626THSLK    S 5542  18.297  19.589   7.907
 5627ETHY    C1 5543  18.376  19.161   8.040
 5628ETHY    C1 5544  18.551  18.691   8.222
 5629ETHY    C1 5545  18.805  18.279   8.428
 5630ETHY    C1 5546  19.125  17.930   8.652
 5631ETHY    C1 5547  19.506  17.655   8.893
 5632ETHY    C1 5548  19.941  17.459   9.147
 5633AUSL   AUS 5549  17.617  19.613   7.666
 5634AUSL   AUS 5550  17.504  19.870   8.013
 5635AUL    AUL 5551  17.466  19.492   7.993
 5636THSLK    S 5552  17.562  19.377   7.745
 5637ETHY    C1 5553  17.287  19.018   7.788
 5638ETHY    C1 5554  17.036  18.553   7.869
 5639ETHY    C1 5555  16.880  18.063   7.981
 5640ETHY    C1 5556  16.811  17.564   8.122
 5641ETHY    C1 5557  16.835  17.064   8.292
 5642ETHY    C1 5558  16.952  16.576   8.489
 5643THSLK    S 5559  17.326  19.704   8.129
 5644ETHY    C1 5560  17.024  19.386   8.248
 5645ETHY    C1 5561  16.705  19.019   8.471
 5646ETHY    C1 5562  16.440  18.682   8.776
 5647ETHY    C1 5563  16.228  18.380   9.147
 5648ETHY    C1 5564  16.075  18.122   9.582
 5649ETHY    C1 5565  15.984  17.915  10.072
 5650AUSL   AUS 5566  17.921  19.613   7.666
 5651AUSL   AUS 5567  17.617  19.613   7.339
 5652AUL    AUL 5568  17.769  19.305   7.503
 5653THSLK    S 5569  17.564  19.374   7.270
 5654ETHY    C1 5570  17.292  19.012   7.236
 5655ETHY    C1 5571  17.042  18.547   7.157
 5656ETHY    C1 5572  16.885  18.058   7.041
 5657ETHY    C1 5573  16.815  17.559   6.896
 5658ETHY    C1 5574  16.839  17.060   6.727
 5659ETHY    C1 5575  16.958  16.569   6.538
 5660THSLK    S 5576  17.875  19.361   7.749
 5661ETHY    C1 5577  17.728  18.935   7.811
 5662ETHY    C1 5578  17.642  18.417   7.906
 5663ETHY    C1 5579  17.654  17.904   8.025
 5664ETHY    C1 5580  17.756  17.409   8.165
 5665ETHY    C1 5581  17.948  16.944   8.325
 5666ETHY    C1 5582  18.226  16.518   8.504
 5667AUSL   AUS 5583  17.769  20.866   7.094
 5668AUSL   AUS 5584  18.185  20.797   7.238
 5669AUL    AUL 5585  18.072  21.081   7.012
 5670THSLK    S 5586  17.816  21.093   6.977
 5671ETHY    C1 5587  18.006  21.372   6.674
 5672ETHY    C1 5588  18.157  21.753   6.330
 5673ETHY    C1 5589  18.221  22.173   6.021
 5674ETHY    C1 5590  18.205  22.623   5.752
 5675ETHY    C1 5591  18.109  23.093   5.532
 5676ETHY    C1 5592  17.934  23.576   5.366
 5677THSLK    S 5593  18.373  20.913   7.089
 5678ETHY    C1 5594  18.760  21.033   6.883
 5679ETHY    C1 5595  19.178  21.256   6.637
 5680ETHY    C1 5596  19.536  21.560   6.400
 5681ETHY    C1 5597  19.831  21.932   6.178
 5682ETHY    C1 5598  20.056  22.367   5.981
 5683ETHY    C1 5599  20.207  22.856   5.811
 5684AUSL   AUS 5600  17.617  20.960   7.339
 5685AUSL   AUS 5601  17.504  20.703   6.992
 5686AUL    AUL 5602  17.466  21.081   7.012
 5687THSLK    S 5603  17.663  21.207   7.239
 5688ETHY    C1 5604  17.810  21.604   7.074
 5689ETHY    C1 5605  17.896  22.098   6.889
 5690ETHY    C1 5606  17.884  22.599   6.727
 5691ETHY    C1 5607  17.782  23.095   6.593
 5692ETHY    C1 5608  17.590  23.576   6.492
 5693ETHY    C1 5609  17.312  24.034   6.427
 5694THSLK    S 5610  17.394  20.835   6.805
 5695ETHY    C1 5611  17.358  20.984   6.377
 5696ETHY    C1 5612  17.248  21.210   5.906
 5697ETHY    C1 5613  17.070  21.485   5.494
 5698ETHY    C1 5614  16.836  21.798   5.145
 5699ETHY    C1 5615  16.550  22.147   4.870
 5700ETHY    C1 5616  16.219  22.525   4.675
 5701AUSL   AUS 5617  17.769  19.706   7.094
 5702AUSL   AUS 5618  17.353  19.776   7.238
 5703AUL    AUL 5619  17.466  19.492   7.012
 5704THSLK    S 5620  17.170  19.628   7.134
 5705ETHY    C1 5621  16.787  19.384   7.124
 5706ETHY    C1 5622  16.369  19.063   7.035
 5707ETHY    C1 5623  16.010  18.717   6.866
 5708ETHY    C1 5624  15.713  18.356   6.631
 5709ETHY    C1 5625  15.488  17.984   6.331
 5710ETHY    C1 5626  15.341  17.607   5.974
 5711THSLK    S 5627  17.727  19.451   7.024
 5712ETHY    C1 5628  17.543  19.050   6.917
 5713ETHY    C1 5629  17.393  18.572   6.732
 5714ETHY    C1 5630  17.327  18.109   6.491
 5715ETHY    C1 5631  17.340  17.669   6.206
 5716ETHY    C1 5632  17.437  17.262   5.885
 5717ETHY    C1 5633  17.617  16.894   5.533
 5718AUSL   AUS 5634  17.921  19.613   7.339
 5719AUSL   AUS 5635  18.034  19.870   6.992
 5720AUL    AUL 5636  18.072  19.492   7.012
 5721THSLK    S 5637  17.878  19.359   7.266
 5722ETHY    C1 5638  17.734  18.931   7.213
 5723ETHY    C1 5639  17.647  18.412   7.120
 5724ETHY    C1 5640  17.659  17.900   6.997
 5725ETHY    C1 5641  17.760  17.406   6.854
 5726ETHY    C1 5642  17.952  16.941   6.695
 5727ETHY    C1 5643  18.232  16.513   6.523
 5728THSLK    S 5644  18.151  19.680   6.859
 5729ETHY    C1 5645  18.195  19.278   6.651
 5730ETHY    C1 5646  18.305  18.847   6.355
 5731ETHY    C1 5647  18.481  18.484   6.017
 5732ETHY    C1 5648  18.712  18.190   5.651
 5733ETHY    C1 5649  18.998  17.973   5.264
 5734ETHY    C1 5650  19.335  17.837   4.865
 5735POPC   NC3 5651   2.765  41.515   9.455
 5735POPC   PO4 5652   2.720  41.587   9.155
 5735POPC   GL1 5653   2.779  41.568   8.855
 5735POPC   GL2 5654   2.647  41.676   8.855
 5735POPC   C1A 5655   2.762  41.513   8.555
 5735POPC   D2A 5656   2.790  41.576   8.255
 5735POPC   C3A 5657   2.749  41.605   7.955
 5735POPC   C4A 5658   2.725  41.600   7.655
 5735POPC   C1B 5659   2.543  41.729   8.555
 5735POPC   C2B 5660   2.607  41.700   8.255
 5735POPC   C3B 5661   2.584  41.688   7.955
 5735POPC   C4B 5662   2.532  41.688   7.655
 5736POPC   NC3 5663   5.851  34.612   9.455
 5736POPC   PO4 5664   5.824  34.621   9.155
 5736POPC   GL1 5665   5.893  34.603   8.855
 5736POPC   GL2 5666   5.987  34.555   8.855
 5736POPC   C1A 5667   5.864  34.561   8.555
 5736POPC   D2A 5668   5.879  34.568   8.255
 5736POPC   C3A 5669   5.838  34.620   7.955
 5736POPC   C4A 5670   5.843  34.588   7.655
 5736POPC   C1B 5671   6.050  34.429   8.555
 5736POPC   C2B 5672   6.116  34.395   8.255
 5736POPC   C3B 5673   6.104  34.490   7.955
 5736POPC   C4B 5674   6.114  34.482   7.655
 5737POPC   NC3 5675   7.457   8.994   9.455
 5737POPC   PO4 5676   7.417   9.001   9.155
 5737POPC   GL1 5677   7.431   8.981   8.855
 5737POPC   GL2 5678   7.523   8.892   8.855
 5737POPC   C1A 5679   7.461   9.014   8.555
 5737POPC   D2A 5680   7.459   9.016   8.255
 5737POPC   C3A 5681   7.435   8.929   7.955
 5737POPC   C4A 5682   7.449   8.951   7.655
 5737POPC   C1B 5683   7.574   8.754   8.555
 5737POPC   C2B 5684   7.625   8.783   8.255
 5737POPC   C3B 5685   7.596   8.806   7.955
 5737POPC   C4B 5686   7.590   8.751   7.655
 5738POPC   NC3 5687   8.155   1.263   9.455
 5738POPC   PO4 5688   8.208   1.260   9.155
 5738POPC   GL1 5689   8.173   1.185   8.855
 5738POPC   GL2 5690   8.203   1.042   8.855
 5738POPC   C1A 5691   8.166   1.166   8.555
 5738POPC   D2A 5692   8.234   1.208   8.255
 5738POPC   C3A 5693   8.176   1.225   7.955
 5738POPC   C4A 5694   8.182   1.194   7.655
 5738POPC   C1B 5695   8.175   0.960   8.555
 5738POPC   C2B 5696   8.212   0.967   8.255
 5738POPC   C3B 5697   8.240   0.980   7.955
 5738POPC   C4B 5698   8.181   0.975   7.655
 5739POPC   NC3 5699  23.692  13.582   9.455
 5739POPC   PO4 5700  23.679  13.674   9.155
 5739POPC   GL1 5701  23.681  13.590   8.855
 5739POPC   GL2 5702  23.691  13.487   8.855
 5739POPC   C1A 5703  23.685  13.596   8.555
 5739POPC   D2A 5704  23.737  13.662   8.255
 5739POPC   C3A 5705  23.740  13.638   7.955
 5739POPC   C4A 5706  23.760  13.659   7.655
 5739POPC   C1B 5707  23.639  13.343   8.555
 5739POPC   C2B 5708  23.718  13.394   8.255
 5739POPC   C3B 5709  23.639  13.355   7.955
 5739POPC   C4B 5710  23.693  13.356   7.655
 5740POPC   NC3 5711  32.996   3.535   9.455
 5740POPC   PO4 5712  33.013   3.529   9.155
 5740POPC   GL1 5713  32.976   3.575   8.855
 5740POPC   GL2 5714  32.953   3.650   8.855
 5740POPC   C1A 5715  33.042   3.557   8.555
 5740POPC   D2A 5716  33.051   3.547   8.255
 5740POPC   C3A 5717  32.975   3.494   7.955
 5740POPC   C4A 5718  32.983   3.516   7.655
 5740POPC   C1B 5719  32.849   3.758   8.555
 5740POPC   C2B 5720  32.880   3.696   8.255
 5740POPC   C3B 5721  32.827   3.704   7.955
 5740POPC   C4B 5722  32.842   3.690   7.655
 5741POPC   NC3 5723  32.266   8.234   9.455
 5741POPC   PO4 5724  32.225   8.195   9.155
 5741POPC   GL1 5725  32.293   8.243   8.855
 5741POPC   GL2 5726  32.354   8.099   8.855
 5741POPC   C1A 5727  32.284   8.230   8.555
 5741POPC   D2A 5728  32.240   8.204   8.255
 5741POPC   C3A 5729  32.203   8.176   7.955
 5741POPC   C4A 5730  32.268   8.221   7.655
 5741POPC   C1B 5731  32.453   8.055   8.555
 5741POPC   C2B 5732  32.405   8.039   8.255
 5741POPC   C3B 5733  32.450   7.989   7.955
 5741POPC   C4B 5734  32.488   7.991   7.655
 5742POPC   NC3 5735  41.539  17.553   9.455
 5742POPC   PO4 5736  41.564  17.516   9.155
 5742POPC   GL1 5737  41.519  17.489   8.855
 5742POPC   GL2 5738  41.482  17.625   8.855
 5742POPC   C1A 5739  41.544  17.514   8.555
 5742POPC   D2A 5740  41.515  17.525   8.255
 5742POPC   C3A 5741  41.553  17.497   7.955
 5742POPC   C4A 5742  41.592  17.492   7.655
 5742POPC   C1B 5743  41.368  17.686   8.555
 5742POPC   C2B 5744  41.389  17.717   8.255
 5742POPC   C3B 5745  41.400  17.654   7.955
 5742POPC   C4B 5746  41.346  17.703   7.655
 5743POPC   NC3 5747  15.213   3.548   9.455
 5743POPC   PO4 5748  15.217   3.508   9.155
 5743POPC   GL1 5749  15.214   3.548   8.855
 5743POPC   GL2 5750  15.273   3.511   8.855
 5743POPC   C1A 5751  15.153   3.510   8.555
 5743POPC   D2A 5752  15.223   3.580   8.255
 5743POPC   C3A 5753  15.152   3.575   7.955
 5743POPC   C4A 5754  15.214   3.557   7.655
 5743POPC   C1B 5755  15.356   3.409   8.555
 5743POPC   C2B 5756  15.368   3.432   8.255
 5743POPC   C3B 5757  15.394   3.419   7.955
 5743POPC   C4B 5758  15.417   3.423   7.655
 5744POPC   NC3 5759  28.369  26.003   9.455
 5744POPC   PO4 5760  28.356  26.024   9.155
 5744POPC   GL1 5761  28.358  26.085   8.855
 5744POPC   GL2 5762  28.375  25.963   8.855
 5744POPC   C1A 5763  28.403  26.003   8.555
 5744POPC   D2A 5764  28.385  26.059   8.255
 5744POPC   C3A 5765  28.386  26.039   7.955
 5744POPC   C4A 5766  28.398  26.048   7.655
 5744POPC   C1B 5767  28.395  25.759   8.555
 5744POPC   C2B 5768  28.345  25.817   8.255
 5744POPC   C3B 5769  28.321  25.746   7.955
 5744POPC   C4B 5770  28.373  25.798   7.655
 5745POPC   NC3 5771  19.853  10.487   9.455
 5745POPC   PO4 5772  19.852  10.534   9.155
 5745POPC   GL1 5773  19.871  10.487   8.855
 5745POPC   GL2 5774  19.979  10.515   8.855
 5745POPC   C1A 5775  19.852  10.557   8.555
 5745POPC   D2A 5776  19.824  10.480   8.255
 5745POPC   C3A 5777  19.818  10.529   7.955
 5745POPC   C4A 5778  19.853  10.494   7.655
 5745POPC   C1B 5779  20.076  10.483   8.555
 5745POPC   C2B 5780  20.046  10.483   8.255
 5745POPC   C3B 5781  20.093  10.532   7.955
 5745POPC   C4B 5782  20.052  10.495   7.655
 5746POPC   NC3 5783  41.542  41.573   9.455
 5746POPC   PO4 5784  41.558  41.574   9.155
 5746POPC   GL1 5785  41.563  41.604   8.855
 5746POPC   GL2 5786  41.453  41.670   8.855
 5746POPC   C1A 5787  41.538  41.607   8.555
 5746POPC   D2A 5788  41.601  41.605   8.255
 5746POPC   C3A 5789  41.577  41.540   7.955
 5746POPC   C4A 5790  41.526  41.535   7.655
 5746POPC   C1B 5791  41.385  41.657   8.555
 5746POPC   C2B 5792  41.306  41.691   8.255
 5746POPC   C3B 5793  41.307  41.697   7.955
 5746POPC   C4B 5794  41.362  41.743   7.655
 5747POPC   NC3 5795   5.098  20.591   9.455
 5747POPC   PO4 5796   5.057  20.567   9.155
 5747POPC   GL1 5797   5.085  20.573   8.855
 5747POPC   GL2 5798   5.227  20.612   8.855
 5747POPC   C1A 5799   5.132  20.564   8.555
 5747POPC   D2A 5800   5.062  20.599   8.255
 5747POPC   C3A 5801   5.044  20.565   7.955
 5747POPC   C4A 5802   5.106  20.588   7.655
 5747POPC   C1B 5803   5.327  20.620   8.555
 5747POPC   C2B 5804   5.350  20.617   8.255
 5747POPC   C3B 5805   5.346  20.617   7.955
 5747POPC   C4B 5806   5.383  20.621   7.655
 5748POPC   NC3 5807   4.301   3.527   9.455
 5748POPC   PO4 5808   4.359   3.507   9.155
 5748POPC   GL1 5809   4.361   3.535   8.855
 5748POPC   GL2 5810   4.265   3.475   8.855
 5748POPC   C1A 5811   4.299   3.517   8.555
 5748POPC   D2A 5812   4.319   3.507   8.255
 5748POPC   C3A 5813   4.331   3.554   7.955
 5748POPC   C4A 5814   4.314   3.589   7.655
 5748POPC   C1B 5815   4.175   3.299   8.555
 5748POPC   C2B 5816   4.208   3.385   8.255
 5748POPC   C3B 5817   4.149   3.379   7.955
 5748POPC   C4B 5818   4.160   3.385   7.655
 5749POPC   NC3 5819  17.464  15.908   9.455
 5749POPC   PO4 5820  17.473  15.976   9.155
 5749POPC   GL1 5821  17.540  15.926   8.855
 5749POPC   GL2 5822  17.541  16.075   8.855
 5749POPC   C1A 5823  17.532  15.951   8.555
 5749POPC   D2A 5824  17.500  15.940   8.255
 5749POPC   C3A 5825  17.508  15.937   7.955
 5749POPC   C4A 5826  17.504  15.973   7.655
 5749POPC   C1B 5827  17.451  16.225   8.555
 5749POPC   C2B 5828  17.509  16.170   8.255
 5749POPC   C3B 5829  17.498  16.190   7.955
 5749POPC   C4B 5830  17.498  16.166   7.655
 5750POPC   NC3 5831   4.363  40.815   9.455
 5750POPC   PO4 5832   4.317  40.764   9.155
 5750POPC   GL1 5833   4.357  40.796   8.855
 5750POPC   GL2 5834   4.360  40.641   8.855
 5750POPC   C1A 5835   4.321  40.812   8.555
 5750POPC   D2A 5836   4.365  40.774   8.255
 5750POPC   C3A 5837   4.357  40.786   7.955
 5750POPC   C4A 5838   4.305  40.751   7.655
 5750POPC   C1B 5839   4.441  40.584   8.555
 5750POPC   C2B 5840   4.523  40.559   8.255
 5750POPC   C3B 5841   4.499  40.614   7.955
 5750POPC   C4B 5842   4.472  40.604   7.655
 5751POPC   NC3 5843   7.452   8.223   9.455
 5751POPC   PO4 5844   7.393   8.172   9.155
 5751POPC   GL1 5845   7.466   8.162   8.855
 5751POPC   GL2 5846   7.493   8.318   8.855
 5751POPC   C1A 5847   7.394   8.182   8.555
 5751POPC   D2A 5848   7.417   8.222   8.255
 5751POPC   C3A 5849   7.396   8.149   7.955
 5751POPC   C4A 5850   7.428   8.229   7.655
 5751POPC   C1B 5851   7.555   8.371   8.555
 5751POPC   C2B 5852   7.622   8.413   8.255
 5751POPC   C3B 5853   7.563   8.405   7.955
 5751POPC   C4B 5854   7.630   8.343   7.655
 5752POPC   NC3 5855   0.440  36.867   9.455
 5752POPC   PO4 5856   0.454  36.903   9.155
 5752POPC   GL1 5857   0.452  36.887   8.855
 5752POPC   GL2 5858   0.525  36.951   8.855
 5752POPC   C1A 5859   0.397  36.935   8.555
 5752POPC   D2A 5860   0.407  36.880   8.255
 5752POPC   C3A 5861   0.416  36.884   7.955
 5752POPC   C4A 5862   0.437  36.905   7.655
 5752POPC   C1B 5863   0.659  36.896   8.555
 5752POPC   C2B 5864   0.671  36.918   8.255
 5752POPC   C3B 5865   0.670  36.903   7.955
 5752POPC   C4B 5866   0.693  36.952   7.655
 5753POPC   NC3 5867  14.422  36.173   9.455
 5753POPC   PO4 5868  14.355  36.143   9.155
 5753POPC   GL1 5869  14.359  36.159   8.855
 5753POPC   GL2 5870  14.478  36.267   8.855
 5753POPC   C1A 5871  14.384  36.147   8.555
 5753POPC   D2A 5872  14.423  36.092   8.255
 5753POPC   C3A 5873  14.398  36.089   7.955
 5753POPC   C4A 5874  14.412  36.131   7.655
 5753POPC   C1B 5875  14.551  36.315   8.555
 5753POPC   C2B 5876  14.545  36.264   8.255
 5753POPC   C3B 5877  14.550  36.314   7.955
 5753POPC   C4B 5878  14.579  36.291   7.655
 5754POPC   NC3 5879  28.382   6.666   9.455
 5754POPC   PO4 5880  28.405   6.667   9.155
 5754POPC   GL1 5881  28.344   6.611   8.855
 5754POPC   GL2 5882  28.294   6.649   8.855
 5754POPC   C1A 5883  28.369   6.677   8.555
 5754POPC   D2A 5884  28.375   6.685   8.255
 5754POPC   C3A 5885  28.332   6.648   7.955
 5754POPC   C4A 5886  28.321   6.605   7.655
 5754POPC   C1B 5887  28.157   6.726   8.555
 5754POPC   C2B 5888  28.114   6.749   8.255
 5754POPC   C3B 5889  28.092   6.707   7.955
 5754POPC   C4B 5890  28.094   6.688   7.655
 5755POPC   NC3 5891  33.063  12.059   9.455
 5755POPC   PO4 5892  33.043  12.042   9.155
 5755POPC   GL1 5893  33.000  12.073   8.855
 5755POPC   GL2 5894  32.917  12.192   8.855
 5755POPC   C1A 5895  33.069  12.099   8.555
 5755POPC   D2A 5896  33.021  12.064   8.255
 5755POPC   C3A 5897  33.030  12.067   7.955
 5755POPC   C4A 5898  33.032  12.031   7.655
 5755POPC   C1B 5899  32.861  12.216   8.555
 5755POPC   C2B 5900  32.802  12.259   8.255
 5755POPC   C3B 5901  32.840  12.220   7.955
 5755POPC   C4B 5902  32.880  12.294   7.655
 5756POPC   NC3 5903  15.943  32.984   9.455
 5756POPC   PO4 5904  15.975  32.974   9.155
 5756POPC   GL1 5905  15.939  33.065   8.855
 5756POPC   GL2 5906  16.012  33.132   8.855
 5756POPC   C1A 5907  16.004  33.068   8.555
 5756POPC   D2A 5908  15.948  32.975   8.255
 5756POPC   C3A 5909  15.960  32.991   7.955
 5756POPC   C4A 5910  15.945  33.016   7.655
 5756POPC   C1B 5911  16.199  33.211   8.555
 5756POPC   C2B 5912  16.170  33.138   8.255
 5756POPC   C3B 5913  16.180  33.140   7.955
 5756POPC   C4B 5914  16.133  33.149   7.655
 5757POPC   NC3 5915  30.733  38.418   9.455
 5757POPC   PO4 5916  30.712  38.419   9.155
 5757POPC   GL1 5917  30.662  38.435   8.855
 5757POPC   GL2 5918  30.616  38.500   8.855
 5757POPC   C1A 5919  30.693  38.445   8.555
 5757POPC   D2A 5920  30.745  38.494   8.255
 5757POPC   C3A 5921  30.682  38.429   7.955
 5757POPC   C4A 5922  30.695  38.426   7.655
 5757POPC   C1B 5923  30.509  38.605   8.555
 5757POPC   C2B 5924  30.463  38.535   8.255
 5757POPC   C3B 5925  30.478  38.527   7.955
 5757POPC   C4B 5926  30.485  38.598   7.655
 5758POPC   NC3 5927   5.909  20.571   9.455
 5758POPC   PO4 5928   5.874  20.626   9.155
 5758POPC   GL1 5929   5.874  20.611   8.855
 5758POPC   GL2 5930   5.916  20.676   8.855
 5758POPC   C1A 5931   5.827  20.647   8.555
 5758POPC   D2A 5932   5.898  20.602   8.255
 5758POPC   C3A 5933   5.836  20.600   7.955
 5758POPC   C4A 5934   5.904  20.601   7.655
 5758POPC   C1B 5935   6.010  20.849   8.555
 5758POPC   C2B 5936   5.982  20.832   8.255
 5758POPC   C3B 5937   6.032  20.791   7.955
 5758POPC   C4B 5938   6.017  20.830   7.655
 5759POPC   NC3 5939  40.753   5.079   9.455
 5759POPC   PO4 5940  40.797   5.066   9.155
 5759POPC   GL1 5941  40.766   5.143   8.855
 5759POPC   GL2 5942  40.820   5.042   8.855
 5759POPC   C1A 5943  40.807   5.134   8.555
 5759POPC   D2A 5944  40.783   5.074   8.255
 5759POPC   C3A 5945  40.811   5.091   7.955
 5759POPC   C4A 5946  40.734   5.084   7.655
 5759POPC   C1B 5947  40.955   4.885   8.555
 5759POPC   C2B 5948  40.941   4.921   8.255
 5759POPC   C3B 5949  40.959   4.886   7.955
 5759POPC   C4B 5950  40.930   4.909   7.655
 5760POPC   NC3 5951  13.604  22.893   9.455
 5760POPC   PO4 5952  13.665  22.925   9.155
 5760POPC   GL1 5953  13.588  22.923   8.855
 5760POPC   GL2 5954  13.546  22.992   8.855
 5760POPC   C1A 5955  13.670  22.977   8.555
 5760POPC   D2A 5956  13.618  22.889   8.255
 5760POPC   C3A 5957  13.636  22.949   7.955
 5760POPC   C4A 5958  13.586  22.899   7.655
 5760POPC   C1B 5959  13.353  22.991   8.555
 5760POPC   C2B 5960  13.397  22.917   8.255
 5760POPC   C3B 5961  13.379  22.930   7.955
 5760POPC   C4B 5962  13.420  22.962   7.655
 5761POPC   NC3 5963  31.471  39.990   9.455
 5761POPC   PO4 5964  31.480  40.019   9.155
 5761POPC   GL1 5965  31.428  40.035   8.855
 5761POPC   GL2 5966  31.395  39.918   8.855
 5761POPC   C1A 5967  31.448  40.016   8.555
 5761POPC   D2A 5968  31.510  40.027   8.255
 5761POPC   C3A 5969  31.438  39.989   7.955
 5761POPC   C4A 5970  31.500  40.041   7.655
 5761POPC   C1B 5971  31.332  39.784   8.555
 5761POPC   C2B 5972  31.315  39.768   8.255
 5761POPC   C3B 5973  31.359  39.768   7.955
 5761POPC   C4B 5974  31.353  39.791   7.655
 5762POPC   NC3 5975  29.912  15.965   9.455
 5762POPC   PO4 5976  29.934  15.987   9.155
 5762POPC   GL1 5977  29.953  15.957   8.855
 5762POPC   GL2 5978  29.865  15.820   8.855
 5762POPC   C1A 5979  29.938  16.002   8.555
 5762POPC   D2A 5980  29.955  15.917   8.255
 5762POPC   C3A 5981  29.898  15.920   7.955
 5762POPC   C4A 5982  29.952  15.942   7.655
 5762POPC   C1B 5983  29.763  15.797   8.555
 5762POPC   C2B 5984  29.802  15.770   8.255
 5762POPC   C3B 5985  29.726  15.727   7.955
 5762POPC   C4B 5986  29.750  15.760   7.655
 5763POPC   NC3 5987  38.424  38.423   9.455
 5763POPC   PO4 5988  38.410  38.492   9.155
 5763POPC   GL1 5989  38.448  38.457   8.855
 5763POPC   GL2 5990  38.360  38.490   8.855
 5763POPC   C1A 5991  38.409  38.410   8.555
 5763POPC   D2A 5992  38.491  38.441   8.255
 5763POPC   C3A 5993  38.468  38.501   7.955
 5763POPC   C4A 5994  38.423  38.497   7.655
 5763POPC   C1B 5995  38.246  38.616   8.555
 5763POPC   C2B 5996  38.212  38.646   8.255
 5763POPC   C3B 5997  38.286  38.589   7.955
 5763POPC   C4B 5998  38.237  38.554   7.655
 5764POPC   NC3 5999  22.146  12.833   9.455
 5764POPC   PO4 6000  22.164  12.815   9.155
 5764POPC   GL1 6001  22.126  12.883   8.855
 5764POPC   GL2 6002  22.060  12.901   8.855
 5764POPC   C1A 6003  22.143  12.830   8.555
 5764POPC   D2A 6004  22.144  12.882   8.255
 5764POPC   C3A 6005  22.149  12.888   7.955
 5764POPC   C4A 6006  22.122  12.846   7.655
 5764POPC   C1B 6007  21.921  12.833   8.555
 5764POPC   C2B 6008  21.918  12.845   8.255
 5764POPC   C3B 6009  21.910  12.909   7.955
 5764POPC   C4B 6010  21.912  12.844   7.655
 5765POPC   NC3 6011  14.399  40.791   9.455
 5765POPC   PO4 6012  14.386  40.769   9.155
 5765POPC   GL1 6013  14.358  40.739   8.855
 5765POPC   GL2 6014  14.568  40.814   8.855
 5765POPC   C1A 6015  14.419  40.781   8.555
 5765POPC   D2A 6016  14.370  40.789   8.255
 5765POPC   C3A 6017  14.380  40.782   7.955
 5765POPC   C4A 6018  14.440  40.756   7.655
 5765POPC   C1B 6019  14.608  40.777   8.555
 5765POPC   C2B 6020  14.625  40.742   8.255
 5765POPC   C3B 6021  14.634  40.820   7.955
 5765POPC   C4B 6022  14.679  40.755   7.655
 5766POPC   NC3 6023   5.131   4.310   9.455
 5766POPC   PO4 6024   5.052   4.328   9.155
 5766POPC   GL1 6025   5.126   4.272   8.855
 5766POPC   GL2 6026   5.197   4.215   8.855
 5766POPC   C1A 6027   5.081   4.334   8.555
 5766POPC   D2A 6028   5.095   4.312   8.255
 5766POPC   C3A 6029   5.050   4.338   7.955
 5766POPC   C4A 6030   5.139   4.267   7.655
 5766POPC   C1B 6031   5.252   4.144   8.555
 5766POPC   C2B 6032   5.262   4.136   8.255
 5766POPC   C3B 6033   5.204   4.145   7.955
 5766POPC   C4B 6034   5.226   4.074   7.655
 5767POPC   NC3 6035  16.718   4.304   9.455
 5767POPC   PO4 6036  16.709   4.338   9.155
 5767POPC   GL1 6037  16.768   4.318   8.855
 5767POPC   GL2 6038  16.627   4.275   8.855
 5767POPC   C1A 6039  16.737   4.354   8.555
 5767POPC   D2A 6040  16.681   4.358   8.255
 5767POPC   C3A 6041  16.756   4.283   7.955
 5767POPC   C4A 6042  16.722   4.332   7.655
 5767POPC   C1B 6043  16.465   4.228   8.555
 5767POPC   C2B 6044  16.499   4.236   8.255
 5767POPC   C3B 6045  16.530   4.148   7.955
 5767POPC   C4B 6046  16.552   4.195   7.655
 5768POPC   NC3 6047  36.124  17.546   9.455
 5768POPC   PO4 6048  36.136  17.495   9.155
 5768POPC   GL1 6049  36.111  17.486   8.855
 5768POPC   GL2 6050  36.129  17.356   8.855
 5768POPC   C1A 6051  36.160  17.524   8.555
 5768POPC   D2A 6052  36.092  17.462   8.255
 5768POPC   C3A 6053  36.129  17.487   7.955
 5768POPC   C4A 6054  36.171  17.476   7.655
 5768POPC   C1B 6055  36.199  17.230   8.555
 5768POPC   C2B 6056  36.128  17.219   8.255
 5768POPC   C3B 6057  36.194  17.224   7.955
 5768POPC   C4B 6058  36.187  17.282   7.655
 5769POPC   NC3 6059  39.275   6.641   9.455
 5769POPC   PO4 6060  39.204   6.663   9.155
 5769POPC   GL1 6061  39.216   6.662   8.855
 5769POPC   GL2 6062  39.226   6.767   8.855
 5769POPC   C1A 6063  39.237   6.598   8.555
 5769POPC   D2A 6064  39.184   6.660   8.255
 5769POPC   C3A 6065  39.239   6.601   7.955
 5769POPC   C4A 6066  39.274   6.604   7.655
 5769POPC   C1B 6067  39.227   6.881   8.555
 5769POPC   C2B 6068  39.222   6.916   8.255
 5769POPC   C3B 6069  39.299   6.910   7.955
 5769POPC   C4B 6070  39.211   6.849   7.655
 5770POPC   NC3 6071  14.388  36.939   9.455
 5770POPC   PO4 6072  14.401  36.916   9.155
 5770POPC   GL1 6073  14.391  36.929   8.855
 5770POPC   GL2 6074  14.309  37.063   8.855
 5770POPC   C1A 6075  14.406  36.911   8.555
 5770POPC   D2A 6076  14.442  36.859   8.255
 5770POPC   C3A 6077  14.401  36.940   7.955
 5770POPC   C4A 6078  14.446  36.943   7.655
 5770POPC   C1B 6079  14.342  37.128   8.555
 5770POPC   C2B 6080  14.276  37.119   8.255
 5770POPC   C3B 6081  14.321  37.101   7.955
 5770POPC   C4B 6082  14.360  37.150   7.655
 5771POPC   NC3 6083   1.991  40.056   9.455
 5771POPC   PO4 6084   1.967  40.020   9.155
 5771POPC   GL1 6085   1.981  40.040   8.855
 5771POPC   GL2 6086   2.105  39.963   8.855
 5771POPC   C1A 6087   1.968  40.056   8.555
 5771POPC   D2A 6088   2.000  40.019   8.255
 5771POPC   C3A 6089   1.992  40.034   7.955
 5771POPC   C4A 6090   2.034  40.043   7.655
 5771POPC   C1B 6091   2.182  39.918   8.555
 5771POPC   C2B 6092   2.256  39.927   8.255
 5771POPC   C3B 6093   2.223  39.952   7.955
 5771POPC   C4B 6094   2.183  39.913   7.655
 5772POPC   NC3 6095  41.557  22.970   9.455
 5772POPC   PO4 6096  41.566  22.918   9.155
 5772POPC   GL1 6097  41.520  22.923   8.855
 5772POPC   GL2 6098  41.487  22.900   8.855
 5772POPC   C1A 6099  41.527  22.893   8.555
 5772POPC   D2A 6100  41.527  22.923   8.255
 5772POPC   C3A 6101  41.538  22.937   7.955
 5772POPC   C4A 6102  41.576  22.936   7.655
 5772POPC   C1B 6103  41.356  22.855   8.555
 5772POPC   C2B 6104  41.334  22.780   8.255
 5772POPC   C3B 6105  41.362  22.783   7.955
 5772POPC   C4B 6106  41.299  22.811   7.655
 5773POPC   NC3 6107  39.205  41.575   9.455
 5773POPC   PO4 6108  39.190  41.553   9.155
 5773POPC   GL1 6109  39.193  41.539   8.855
 5773POPC   GL2 6110  39.387  41.555   8.855
 5773POPC   C1A 6111  39.197  41.559   8.555
 5773POPC   D2A 6112  39.239  41.572   8.255
 5773POPC   C3A 6113  39.241  41.604   7.955
 5773POPC   C4A 6114  39.222  41.595   7.655
 5773POPC   C1B 6115  39.465  41.643   8.555
 5773POPC   C2B 6116  39.487  41.653   8.255
 5773POPC   C3B 6117  39.488  41.628   7.955
 5773POPC   C4B 6118  39.481  41.644   7.655
 5774POPC   NC3 6119   1.226  34.609   9.455
 5774POPC   PO4 6120   1.242  34.605   9.155
 5774POPC   GL1 6121   1.240  34.600   8.855
 5774POPC   GL2 6122   1.376  34.574   8.855
 5774POPC   C1A 6123   1.230  34.536   8.555
 5774POPC   D2A 6124   1.257  34.544   8.255
 5774POPC   C3A 6125   1.196  34.605   7.955
 5774POPC   C4A 6126   1.256  34.596   7.655
 5774POPC   C1B 6127   1.490  34.463   8.555
 5774POPC   C2B 6128   1.432  34.435   8.255
 5774POPC   C3B 6129   1.469  34.524   7.955
 5774POPC   C4B 6130   1.474  34.437   7.655
 5775POPC   NC3 6131  19.024  37.690   9.455
 5775POPC   PO4 6132  19.100  37.641   9.155
 5775POPC   GL1 6133  19.048  37.644   8.855
 5775POPC   GL2 6134  19.149  37.735   8.855
 5775POPC   C1A 6135  19.094  37.638   8.555
 5775POPC   D2A 6136  19.089  37.694   8.255
 5775POPC   C3A 6137  19.061  37.654   7.955
 5775POPC   C4A 6138  19.065  37.661   7.655
 5775POPC   C1B 6139  19.206  37.839   8.555
 5775POPC   C2B 6140  19.249  37.868   8.255
 5775POPC   C3B 6141  19.211  37.859   7.955
 5775POPC   C4B 6142  19.295  37.837   7.655
 5776POPC   NC3 6143   5.118  14.402   9.455
 5776POPC   PO4 6144   5.052  14.449   9.155
 5776POPC   GL1 6145   5.114  14.385   8.855
 5776POPC   GL2 6146   4.994  14.462   8.855
 5776POPC   C1A 6147   5.133  14.432   8.555
 5776POPC   D2A 6148   5.082  14.408   8.255
 5776POPC   C3A 6149   5.125  14.450   7.955
 5776POPC   C4A 6150   5.143  14.381   7.655
 5776POPC   C1B 6151   4.897  14.627   8.555
 5776POPC   C2B 6152   4.986  14.613   8.255
 5776POPC   C3B 6153   4.959  14.638   7.955
 5776POPC   C4B 6154   4.901  14.557   7.655
 5777POPC   NC3 6155  12.107  21.408   9.455
 5777POPC   PO4 6156  12.028  21.386   9.155
 5777POPC   GL1 6157  12.101  21.339   8.855
 5777POPC   GL2 6158  11.937  21.302   8.855
 5777POPC   C1A 6159  12.082  21.366   8.555
 5777POPC   D2A 6160  12.029  21.358   8.255
 5777POPC   C3A 6161  12.037  21.416   7.955
 5777POPC   C4A 6162  12.104  21.365   7.655
 5777POPC   C1B 6163  11.828  21.284   8.555
 5777POPC   C2B 6164  11.833  21.272   8.255
 5777POPC   C3B 6165  11.826  21.221   7.955
 5777POPC   C4B 6166  11.876  21.255   7.655
 5778POPC   NC3 6167  15.916   7.382   9.455
 5778POPC   PO4 6168  15.987   7.431   9.155
 5778POPC   GL1 6169  15.952   7.468   8.855
 5778POPC   GL2 6170  16.062   7.559   8.855
 5778POPC   C1A 6171  15.931   7.469   8.555
 5778POPC   D2A 6172  15.921   7.471   8.255
 5778POPC   C3A 6173  15.927   7.419   7.955
 5778POPC   C4A 6174  15.941   7.407   7.655
 5778POPC   C1B 6175  16.106   7.680   8.555
 5778POPC   C2B 6176  16.062   7.681   8.255
 5778POPC   C3B 6177  16.100   7.664   7.955
 5778POPC   C4B 6178  16.078   7.604   7.655
 5779POPC   NC3 6179  39.998  12.892   9.455
 5779POPC   PO4 6180  40.016  12.851   9.155
 5779POPC   GL1 6181  39.977  12.813   8.855
 5779POPC   GL2 6182  40.070  12.732   8.855
 5779POPC   C1A 6183  39.960  12.881   8.555
 5779POPC   D2A 6184  40.016  12.829   8.255
 5779POPC   C3A 6185  39.987  12.820   7.955
 5779POPC   C4A 6186  40.030  12.852   7.655
 5779POPC   C1B 6187  40.067  12.600   8.555
 5779POPC   C2B 6188  40.085  12.626   8.255
 5779POPC   C3B 6189  40.040  12.620   7.955
 5779POPC   C4B 6190  40.018  12.630   7.655
 5780POPC   NC3 6191  31.521  39.250   9.455
 5780POPC   PO4 6192  31.455  39.268   9.155
 5780POPC   GL1 6193  31.510  39.198   8.855
 5780POPC   GL2 6194  31.447  39.347   8.855
 5780POPC   C1A 6195  31.508  39.183   8.555
 5780POPC   D2A 6196  31.451  39.265   8.255
 5780POPC   C3A 6197  31.457  39.214   7.955
 5780POPC   C4A 6198  31.427  39.225   7.655
 5780POPC   C1B 6199  31.341  39.406   8.555
 5780POPC   C2B 6200  31.399  39.452   8.255
 5780POPC   C3B 6201  31.386  39.490   7.955
 5780POPC   C4B 6202  31.382  39.495   7.655
 5781POPC   NC3 6203  28.367  12.844   9.455
 5781POPC   PO4 6204  28.351  12.822   9.155
 5781POPC   GL1 6205  28.345  12.896   8.855
 5781POPC   GL2 6206  28.399  13.012   8.855
 5781POPC   C1A 6207  28.379  12.859   8.555
 5781POPC   D2A 6208  28.367  12.862   8.255
 5781POPC   C3A 6209  28.344  12.883   7.955
 5781POPC   C4A 6210  28.419  12.806   7.655
 5781POPC   C1B 6211  28.412  13.129   8.555
 5781POPC   C2B 6212  28.493  13.115   8.255
 5781POPC   C3B 6213  28.452  13.113   7.955
 5781POPC   C4B 6214  28.505  13.074   7.655
 5782POPC   NC3 6215  40.789  25.310   9.455
 5782POPC   PO4 6216  40.823  25.283   9.155
 5782POPC   GL1 6217  40.823  25.291   8.855
 5782POPC   GL2 6218  40.883  25.198   8.855
 5782POPC   C1A 6219  40.768  25.311   8.555
 5782POPC   D2A 6220  40.783  25.237   8.255
 5782POPC   C3A 6221  40.804  25.249   7.955
 5782POPC   C4A 6222  40.757  25.295   7.655
 5782POPC   C1B 6223  40.990  25.203   8.555
 5782POPC   C2B 6224  41.025  25.192   8.255
 5782POPC   C3B 6225  40.976  25.159   7.955
 5782POPC   C4B 6226  40.997  25.183   7.655
 5783POPC   NC3 6227  36.917  33.820   9.455
 5783POPC   PO4 6228  36.899  33.843   9.155
 5783POPC   GL1 6229  36.940  33.808   8.855
 5783POPC   GL2 6230  37.037  33.815   8.855
 5783POPC   C1A 6231  36.868  33.795   8.555
 5783POPC   D2A 6232  36.916  33.751   8.255
 5783POPC   C3A 6233  36.906  33.783   7.955
 5783POPC   C4A 6234  36.885  33.783   7.655
 5783POPC   C1B 6235  37.147  33.775   8.555
 5783POPC   C2B 6236  37.163  33.834   8.255
 5783POPC   C3B 6237  37.110  33.862   7.955
 5783POPC   C4B 6238  37.110  33.806   7.655
 5784POPC   NC3 6239  36.111  22.139   9.455
 5784POPC   PO4 6240  36.125  22.195   9.155
 5784POPC   GL1 6241  36.092  22.158   8.855
 5784POPC   GL2 6242  36.191  22.283   8.855
 5784POPC   C1A 6243  36.140  22.209   8.555
 5784POPC   D2A 6244  36.133  22.182   8.255
 5784POPC   C3A 6245  36.096  22.121   7.955
 5784POPC   C4A 6246  36.106  22.154   7.655
 5784POPC   C1B 6247  36.198  22.391   8.555
 5784POPC   C2B 6248  36.280  22.407   8.255
 5784POPC   C3B 6249  36.281  22.396   7.955
 5784POPC   C4B 6250  36.201  22.429   7.655
 5785POPC   NC3 6251  21.399  12.865   9.455
 5785POPC   PO4 6252  21.392  12.900   9.155
 5785POPC   GL1 6253  21.359  12.807   8.855
 5785POPC   GL2 6254  21.503  12.903   8.855
 5785POPC   C1A 6255  21.365  12.874   8.555
 5785POPC   D2A 6256  21.428  12.810   8.255
 5785POPC   C3A 6257  21.425  12.885   7.955
 5785POPC   C4A 6258  21.411  12.811   7.655
 5785POPC   C1B 6259  21.538  13.061   8.555
 5785POPC   C2B 6260  21.568  13.067   8.255
 5785POPC   C3B 6261  21.526  13.005   7.955
 5785POPC   C4B 6262  21.602  12.984   7.655
 5786POPC   NC3 6263  14.371  44.642   9.455
 5786POPC   PO4 6264  14.375  44.644   9.155
 5786POPC   GL1 6265  14.440  44.652   8.855
 5786POPC   GL2 6266  14.384  44.606   8.855
 5786POPC   C1A 6267  14.403  44.622   8.555
 5786POPC   D2A 6268  14.398  44.624   8.255
 5786POPC   C3A 6269  14.389  44.637   7.955
 5786POPC   C4A 6270  14.427  44.696   7.655
 5786POPC   C1B 6271  14.248  44.434   8.555
 5786POPC   C2B 6272  14.226  44.415   8.255
 5786POPC   C3B 6273  14.246  44.479   7.955
 5786POPC   C4B 6274  14.246  44.469   7.655
 5787POPC   NC3 6275  28.385  15.907   9.455
 5787POPC   PO4 6276  28.389  15.974   9.155
 5787POPC   GL1 6277  28.364  15.954   8.855
 5787POPC   GL2 6278  28.220  15.883   8.855
 5787POPC   C1A 6279  28.328  15.983   8.555
 5787POPC   D2A 6280  28.398  15.913   8.255
 5787POPC   C3A 6281  28.406  15.977   7.955
 5787POPC   C4A 6282  28.353  16.001   7.655
 5787POPC   C1B 6283  28.111  15.890   8.555
 5787POPC   C2B 6284  28.191  15.840   8.255
 5787POPC   C3B 6285  28.128  15.852   7.955
 5787POPC   C4B 6286  28.092  15.812   7.655
 5788POPC   NC3 6287  40.004  39.972   9.455
 5788POPC   PO4 6288  39.981  39.977   9.155
 5788POPC   GL1 6289  39.997  39.984   8.855
 5788POPC   GL2 6290  40.001  40.151   8.855
 5788POPC   C1A 6291  39.987  39.957   8.555
 5788POPC   D2A 6292  40.018  40.005   8.255
 5788POPC   C3A 6293  39.978  39.982   7.955
 5788POPC   C4A 6294  40.040  39.977   7.655
 5788POPC   C1B 6295  40.001  40.261   8.555
 5788POPC   C2B 6296  39.976  40.269   8.255
 5788POPC   C3B 6297  39.948  40.269   7.955
 5788POPC   C4B 6298  39.907  40.291   7.655
 5789POPC   NC3 6299  15.960  38.484   9.455
 5789POPC   PO4 6300  16.002  38.475   9.155
 5789POPC   GL1 6301  15.973  38.448   8.855
 5789POPC   GL2 6302  15.859  38.415   8.855
 5789POPC   C1A 6303  15.986  38.418   8.555
 5789POPC   D2A 6304  15.986  38.440   8.255
 5789POPC   C3A 6305  15.922  38.428   7.955
 5789POPC   C4A 6306  16.003  38.451   7.655
 5789POPC   C1B 6307  15.684  38.426   8.555
 5789POPC   C2B 6308  15.709  38.392   8.255
 5789POPC   C3B 6309  15.740  38.369   7.955
 5789POPC   C4B 6310  15.709  38.402   7.655
 5790POPC   NC3 6311  33.028  22.914   9.455
 5790POPC   PO4 6312  33.066  22.970   9.155
 5790POPC   GL1 6313  33.067  22.935   8.855
 5790POPC   GL2 6314  32.991  22.856   8.855
 5790POPC   C1A 6315  33.020  22.890   8.555
 5790POPC   D2A 6316  32.989  22.980   8.255
 5790POPC   C3A 6317  32.990  22.919   7.955
 5790POPC   C4A 6318  33.029  22.933   7.655
 5790POPC   C1B 6319  32.867  22.707   8.555
 5790POPC   C2B 6320  32.911  22.729   8.255
 5790POPC   C3B 6321  32.885  22.786   7.955
 5790POPC   C4B 6322  32.885  22.778   7.655
 5791POPC   NC3 6323   0.431  29.902   9.455
 5791POPC   PO4 6324   0.433  29.905   9.155
 5791POPC   GL1 6325   0.427  29.871   8.855
 5791POPC   GL2 6326   0.551  29.886   8.855
 5791POPC   C1A 6327   0.428  29.881   8.555
 5791POPC   D2A 6328   0.412  29.874   8.255
 5791POPC   C3A 6329   0.389  29.905   7.955
 5791POPC   C4A 6330   0.465  29.925   7.655
 5791POPC   C1B 6331   0.656  29.922   8.555
 5791POPC   C2B 6332   0.679  29.853   8.255
 5791POPC   C3B 6333   0.640  29.883   7.955
 5791POPC   C4B 6334   0.675  29.917   7.655
 5792POPC   NC3 6335   3.524  19.785   9.455
 5792POPC   PO4 6336   3.513  19.799   9.155
 5792POPC   GL1 6337   3.496  19.829   8.855
 5792POPC   GL2 6338   3.443  19.844   8.855
 5792POPC   C1A 6339   3.530  19.842   8.555
 5792POPC   D2A 6340   3.550  19.861   8.255
 5792POPC   C3A 6341   3.496  19.843   7.955
 5792POPC   C4A 6342   3.588  19.797   7.655
 5792POPC   C1B 6343   3.326  19.942   8.555
 5792POPC   C2B 6344   3.289  19.891   8.255
 5792POPC   C3B 6345   3.328  19.961   7.955
 5792POPC   C4B 6346   3.272  19.932   7.655
 5793POPC   NC3 6347  14.392   1.954   9.455
 5793POPC   PO4 6348  14.370   1.957   9.155
 5793POPC   GL1 6349  14.439   1.985   8.855
 5793POPC   GL2 6350  14.496   2.032   8.855
 5793POPC   C1A 6351  14.420   1.961   8.555
 5793POPC   D2A 6352  14.393   2.002   8.255
 5793POPC   C3A 6353  14.444   1.960   7.955
 5793POPC   C4A 6354  14.405   2.010   7.655
 5793POPC   C1B 6355  14.641   2.081   8.555
 5793POPC   C2B 6356  14.675   2.052   8.255
 5793POPC   C3B 6357  14.621   2.119   7.955
 5793POPC   C4B 6358  14.678   2.091   7.655
 5794POPC   NC3 6359   2.768  36.164   9.455
 5794POPC   PO4 6360   2.782  36.101   9.155
 5794POPC   GL1 6361   2.744  36.126   8.855
 5794POPC   GL2 6362   2.919  36.129   8.855
 5794POPC   C1A 6363   2.768  36.124   8.555
 5794POPC   D2A 6364   2.759  36.148   8.255
 5794POPC   C3A 6365   2.785  36.108   7.955
 5794POPC   C4A 6366   2.719  36.136   7.655
 5794POPC   C1B 6367   3.005  36.138   8.555
 5794POPC   C2B 6368   3.049  36.155   8.255
 5794POPC   C3B 6369   3.038  36.093   7.955
 5794POPC   C4B 6370   2.984  36.085   7.655
 5795POPC   NC3 6371  32.236  44.617   9.455
 5795POPC   PO4 6372  32.258  44.698   9.155
 5795POPC   GL1 6373  32.214  44.676   8.855
 5795POPC   GL2 6374  32.097  44.734   8.855
 5795POPC   C1A 6375  32.241  44.700   8.555
 5795POPC   D2A 6376  32.232  44.628   8.255
 5795POPC   C3A 6377  32.233  44.702   7.955
 5795POPC   C4A 6378  32.226  44.649   7.655
 5795POPC   C1B 6379  31.977  44.692   8.555
 5795POPC   C2B 6380  32.042  44.709   8.255
 5795POPC   C3B 6381  32.036  44.719   7.955
 5795POPC   C4B 6382  32.027  44.761   7.655
 5796POPC   NC3 6383   8.157  42.292   9.455
 5796POPC   PO4 6384   8.167  42.295   9.155
 5796POPC   GL1 6385   8.148  42.306   8.855
 5796POPC   GL2 6386   8.123  42.300   8.855
 5796POPC   C1A 6387   8.189  42.350   8.555
 5796POPC   D2A 6388   8.225  42.309   8.255
 5796POPC   C3A 6389   8.160  42.324   7.955
 5796POPC   C4A 6390   8.209  42.287   7.655
 5796POPC   C1B 6391   8.001  42.240   8.555
 5796POPC   C2B 6392   7.969  42.208   8.255
 5796POPC   C3B 6393   7.960  42.234   7.955
 5796POPC   C4B 6394   7.929  42.204   7.655
 5797POPC   NC3 6395  42.382  22.953   9.455
 5797POPC   PO4 6396  42.372  22.927   9.155
 5797POPC   GL1 6397  42.289  22.978   8.855
 5797POPC   GL2 6398  42.295  22.841   8.855
 5797POPC   C1A 6399  42.291  22.956   8.555
 5797POPC   D2A 6400  42.300  22.955   8.255
 5797POPC   C3A 6401  42.383  22.953   7.955
 5797POPC   C4A 6402  42.373  22.913   7.655
 5797POPC   C1B 6403  42.177  22.769   8.555
 5797POPC   C2B 6404  42.212  22.713   8.255
 5797POPC   C3B 6405  42.230  22.694   7.955
 5797POPC   C4B 6406  42.209  22.698   7.655
 5798POPC   NC3 6407  20.570   8.943   9.455
 5798POPC   PO4 6408  20.639   8.953   9.155
 5798POPC   GL1 6409  20.585   9.018   8.855
 5798POPC   GL2 6410  20.717   9.053   8.855
 5798POPC   C1A 6411  20.599   8.943   8.555
 5798POPC   D2A 6412  20.636   8.986   8.255
 5798POPC   C3A 6413  20.561   8.926   7.955
 5798POPC   C4A 6414  20.652   9.013   7.655
 5798POPC   C1B 6415  20.764   9.174   8.555
 5798POPC   C2B 6416  20.731   9.118   8.255
 5798POPC   C3B 6417  20.773   9.160   7.955
 5798POPC   C4B 6418  20.763   9.180   7.655
 5799POPC   NC3 6419  30.673  36.144   9.455
 5799POPC   PO4 6420  30.722  36.145   9.155
 5799POPC   GL1 6421  30.694  36.099   8.855
 5799POPC   GL2 6422  30.752  36.045   8.855
 5799POPC   C1A 6423  30.652  36.141   8.555
 5799POPC   D2A 6424  30.710  36.154   8.255
 5799POPC   C3A 6425  30.727  36.156   7.955
 5799POPC   C4A 6426  30.654  36.118   7.655
 5799POPC   C1B 6427  30.853  36.013   8.555
 5799POPC   C2B 6428  30.887  35.975   8.255
 5799POPC   C3B 6429  30.887  35.993   7.955
 5799POPC   C4B 6430  30.873  35.998   7.655
 5800POPC   NC3 6431   3.576  31.450   9.455
 5800POPC   PO4 6432   3.529  31.450   9.155
 5800POPC   GL1 6433   3.586  31.461   8.855
 5800POPC   GL2 6434   3.479  31.335   8.855
 5800POPC   C1A 6435   3.555  31.492   8.555
 5800POPC   D2A 6436   3.583  31.427   8.255
 5800POPC   C3A 6437   3.525  31.474   7.955
 5800POPC   C4A 6438   3.530  31.482   7.655
 5800POPC   C1B 6439   3.437  31.221   8.555
 5800POPC   C2B 6440   3.380  31.222   8.255
 5800POPC   C3B 6441   3.402  31.272   7.955
 5800POPC   C4B 6442   3.373  31.224   7.655
 5801POPC   NC3 6443  19.807  12.061   9.455
 5801POPC   PO4 6444  19.866  12.065   9.155
 5801POPC   GL1 6445  19.793  12.101   8.855
 5801POPC   GL2 6446  19.802  12.160   8.855
 5801POPC   C1A 6447  19.801  12.111   8.555
 5801POPC   D2A 6448  19.867  12.091   8.255
 5801POPC   C3A 6449  19.835  12.118   7.955
 5801POPC   C4A 6450  19.800  12.075   7.655
 5801POPC   C1B 6451  19.777  12.275   8.555
 5801POPC   C2B 6452  19.769  12.340   8.255
 5801POPC   C3B 6453  19.758  12.288   7.955
 5801POPC   C4B 6454  19.763  12.327   7.655
 5802POPC   NC3 6455  29.898   0.477   9.455
 5802POPC   PO4 6456  29.931   0.441   9.155
 5802POPC   GL1 6457  29.948   0.461   8.855
 5802POPC   GL2 6458  29.799   0.392   8.855
 5802POPC   C1A 6459  29.883   0.416   8.555
 5802POPC   D2A 6460  29.901   0.462   8.255
 5802POPC   C3A 6461  29.882   0.389   7.955
 5802POPC   C4A 6462  29.907   0.390   7.655
 5802POPC   C1B 6463  29.629   0.424   8.555
 5802POPC   C2B 6464  29.655   0.391   8.255
 5802POPC   C3B 6465  29.668   0.420   7.955
 5802POPC   C4B 6466  29.649   0.465   7.655
 5803POPC   NC3 6467  12.049   2.789   9.455
 5803POPC   PO4 6468  12.044   2.776   9.155
 5803POPC   GL1 6469  12.066   2.778   8.855
 5803POPC   GL2 6470  12.240   2.708   8.855
 5803POPC   C1A 6471  12.050   2.720   8.555
 5803POPC   D2A 6472  12.064   2.757   8.255
 5803POPC   C3A 6473  12.108   2.747   7.955
 5803POPC   C4A 6474  12.109   2.770   7.655
 5803POPC   C1B 6475  12.345   2.715   8.555
 5803POPC   C2B 6476  12.358   2.709   8.255
 5803POPC   C3B 6477  12.275   2.764   7.955
 5803POPC   C4B 6478  12.315   2.733   7.655
 5804POPC   NC3 6479  14.393   1.217   9.455
 5804POPC   PO4 6480  14.390   1.216   9.155
 5804POPC   GL1 6481  14.410   1.227   8.855
 5804POPC   GL2 6482  14.515   1.294   8.855
 5804POPC   C1A 6483  14.360   1.252   8.555
 5804POPC   D2A 6484  14.389   1.223   8.255
 5804POPC   C3A 6485  14.433   1.249   7.955
 5804POPC   C4A 6486  14.434   1.239   7.655
 5804POPC   C1B 6487  14.687   1.273   8.555
 5804POPC   C2B 6488  14.632   1.309   8.255
 5804POPC   C3B 6489  14.675   1.276   7.955
 5804POPC   C4B 6490  14.637   1.328   7.655
 5805POPC   NC3 6491  43.886  41.562   9.455
 5805POPC   PO4 6492  43.926  41.565   9.155
 5805POPC   GL1 6493  43.921  41.547   8.855
 5805POPC   GL2 6494  43.795  41.524   8.855
 5805POPC   C1A 6495  43.935  41.571   8.555
 5805POPC   D2A 6496  43.920  41.525   8.255
 5805POPC   C3A 6497  43.897  41.515   7.955
 5805POPC   C4A 6498  43.866  41.565   7.655
 5805POPC   C1B 6499  43.594  41.515   8.555
 5805POPC   C2B 6500  43.606  41.564   8.255
 5805POPC   C3B 6501  43.613  41.585   7.955
 5805POPC   C4B 6502  43.665  41.522   7.655
 5806POPC   NC3 6503   3.547  10.538   9.455
 5806POPC   PO4 6504   3.528  10.509   9.155
 5806POPC   GL1 6505   3.496  10.548   8.855
 5806POPC   GL2 6506   3.656  10.425   8.855
 5806POPC   C1A 6507   3.549  10.502   8.555
 5806POPC   D2A 6508   3.560  10.547   8.255
 5806POPC   C3A 6509   3.532  10.491   7.955
 5806POPC   C4A 6510   3.508  10.554   7.655
 5806POPC   C1B 6511   3.748  10.334   8.555
 5806POPC   C2B 6512   3.744  10.349   8.255
 5806POPC   C3B 6513   3.725  10.366   7.955
 5806POPC   C4B 6514   3.723  10.355   7.655
 5807POPC   NC3 6515  12.060  43.863   9.455
 5807POPC   PO4 6516  12.090  43.840   9.155
 5807POPC   GL1 6517  12.099  43.903   8.855
 5807POPC   GL2 6518  12.189  43.758   8.855
 5807POPC   C1A 6519  12.053  43.852   8.555
 5807POPC   D2A 6520  12.101  43.897   8.255
 5807POPC   C3A 6521  12.053  43.868   7.955
 5807POPC   C4A 6522  12.030  43.885   7.655
 5807POPC   C1B 6523  12.290  43.726   8.555
 5807POPC   C2B 6524  12.224  43.747   8.255
 5807POPC   C3B 6525  12.220  43.702   7.955
 5807POPC   C4B 6526  12.288  43.723   7.655
 5808POPC   NC3 6527  42.321  18.285   9.455
 5808POPC   PO4 6528  42.333  18.261   9.155
 5808POPC   GL1 6529  42.327  18.281   8.855
 5808POPC   GL2 6530  42.439  18.250   8.855
 5808POPC   C1A 6531  42.344  18.246   8.555
 5808POPC   D2A 6532  42.343  18.286   8.255
 5808POPC   C3A 6533  42.330  18.306   7.955
 5808POPC   C4A 6534  42.366  18.266   7.655
 5808POPC   C1B 6535  42.546  18.340   8.555
 5808POPC   C2B 6536  42.542  18.274   8.255
 5808POPC   C3B 6537  42.605  18.274   7.955
 5808POPC   C4B 6538  42.605  18.306   7.655
 5809POPC   NC3 6539  23.700  10.534   9.455
 5809POPC   PO4 6540  23.724  10.542   9.155
 5809POPC   GL1 6541  23.695  10.513   8.855
 5809POPC   GL2 6542  23.854  10.445   8.855
 5809POPC   C1A 6543  23.674  10.555   8.555
 5809POPC   D2A 6544  23.740  10.519   8.255
 5809POPC   C3A 6545  23.758  10.511   7.955
 5809POPC   C4A 6546  23.682  10.522   7.655
 5809POPC   C1B 6547  23.918  10.480   8.555
 5809POPC   C2B 6548  23.965  10.478   8.255
 5809POPC   C3B 6549  23.994  10.471   7.955
 5809POPC   C4B 6550  23.896  10.430   7.655
 5810POPC   NC3 6551  37.708  36.164   9.455
 5810POPC   PO4 6552  37.643  36.112   9.155
 5810POPC   GL1 6553  37.703  36.152   8.855
 5810POPC   GL2 6554  37.586  36.102   8.855
 5810POPC   C1A 6555  37.724  36.154   8.555
 5810POPC   D2A 6556  37.666  36.177   8.255
 5810POPC   C3A 6557  37.632  36.156   7.955
 5810POPC   C4A 6558  37.667  36.157   7.655
 5810POPC   C1B 6559  37.455  36.087   8.555
 5810POPC   C2B 6560  37.455  36.088   8.255
 5810POPC   C3B 6561  37.433  36.074   7.955
 5810POPC   C4B 6562  37.445  36.134   7.655
 5811POPC   NC3 6563  33.011  43.088   9.455
 5811POPC   PO4 6564  33.045  43.070   9.155
 5811POPC   GL1 6565  33.028  43.060   8.855
 5811POPC   GL2 6566  32.946  43.077   8.855
 5811POPC   C1A 6567  33.019  43.136   8.555
 5811POPC   D2A 6568  32.976  43.131   8.255
 5811POPC   C3A 6569  33.017  43.135   7.955
 5811POPC   C4A 6570  33.030  43.112   7.655
 5811POPC   C1B 6571  32.790  43.087   8.555
 5811POPC   C2B 6572  32.825  43.015   8.255
 5811POPC   C3B 6573  32.833  43.050   7.955
 5811POPC   C4B 6574  32.771  43.057   7.655
 5812POPC   NC3 6575  43.117   5.848   9.455
 5812POPC   PO4 6576  43.084   5.904   9.155
 5812POPC   GL1 6577  43.114   5.861   8.855
 5812POPC   GL2 6578  43.198   5.801   8.855
 5812POPC   C1A 6579  43.136   5.821   8.555
 5812POPC   D2A 6580  43.115   5.854   8.255
 5812POPC   C3A 6581  43.073   5.850   7.955
 5812POPC   C4A 6582  43.065   5.873   7.655
 5812POPC   C1B 6583  43.352   5.728   8.555
 5812POPC   C2B 6584  43.322   5.686   8.255
 5812POPC   C3B 6585  43.321   5.779   7.955
 5812POPC   C4B 6586  43.355   5.695   7.655
 5813POPC   NC3 6587  15.181  13.670   9.455
 5813POPC   PO4 6588  15.134  13.610   9.155
 5813POPC   GL1 6589  15.160  13.585   8.855
 5813POPC   GL2 6590  15.226  13.461   8.855
 5813POPC   C1A 6591  15.176  13.636   8.555
 5813POPC   D2A 6592  15.178  13.602   8.255
 5813POPC   C3A 6593  15.181  13.593   7.955
 5813POPC   C4A 6594  15.184  13.611   7.655
 5813POPC   C1B 6595  15.232  13.426   8.555
 5813POPC   C2B 6596  15.164  13.362   8.255
 5813POPC   C3B 6597  15.225  13.396   7.955
 5813POPC   C4B 6598  15.168  13.416   7.655
 5814POPC   NC3 6599  41.572  36.101   9.455
 5814POPC   PO4 6600  41.609  36.081   9.155
 5814POPC   GL1 6601  41.562  36.153   8.855
 5814POPC   GL2 6602  41.599  36.266   8.855
 5814POPC   C1A 6603  41.527  36.122   8.555
 5814POPC   D2A 6604  41.572  36.135   8.255
 5814POPC   C3A 6605  41.588  36.163   7.955
 5814POPC   C4A 6606  41.555  36.085   7.655
 5814POPC   C1B 6607  41.616  36.369   8.555
 5814POPC   C2B 6608  41.673  36.403   8.255
 5814POPC   C3B 6609  41.665  36.363   7.955
 5814POPC   C4B 6610  41.613  36.394   7.655
 5815POPC   NC3 6611  23.685  12.825   9.455
 5815POPC   PO4 6612  23.675  12.866   9.155
 5815POPC   GL1 6613  23.695  12.818   8.855
 5815POPC   GL2 6614  23.718  12.966   8.855
 5815POPC   C1A 6615  23.665  12.872   8.555
 5815POPC   D2A 6616  23.740  12.899   8.255
 5815POPC   C3A 6617  23.676  12.848   7.955
 5815POPC   C4A 6618  23.726  12.841   7.655
 5815POPC   C1B 6619  23.626  13.076   8.555
 5815POPC   C2B 6620  23.640  13.057   8.255
 5815POPC   C3B 6621  23.659  13.062   7.955
 5815POPC   C4B 6622  23.645  13.085   7.655
 5816POPC   NC3 6623  14.370  26.865   9.455
 5816POPC   PO4 6624  14.373  26.808   9.155
 5816POPC   GL1 6625  14.429  26.796   8.855
 5816POPC   GL2 6626  14.462  26.949   8.855
 5816POPC   C1A 6627  14.392  26.802   8.555
 5816POPC   D2A 6628  14.436  26.842   8.255
 5816POPC   C3A 6629  14.360  26.833   7.955
 5816POPC   C4A 6630  14.421  26.831   7.655
 5816POPC   C1B 6631  14.528  27.004   8.555
 5816POPC   C2B 6632  14.601  26.991   8.255
 5816POPC   C3B 6633  14.507  27.044   7.955
 5816POPC   C4B 6634  14.575  26.970   7.655
 5817POPC   NC3 6635  10.480  44.694   9.455
 5817POPC   PO4 6636  10.527  44.660   9.155
 5817POPC   GL1 6637  10.547  44.673   8.855
 5817POPC   GL2 6638  10.409  44.638   8.855
 5817POPC   C1A 6639  10.489  44.686   8.555
 5817POPC   D2A 6640  10.568  44.654   8.255
 5817POPC   C3A 6641  10.513  44.688   7.955
 5817POPC   C4A 6642  10.564  44.707   7.655
 5817POPC   C1B 6643  10.322  44.667   8.555
 5817POPC   C2B 6644  10.276  44.656   8.255
 5817POPC   C3B 6645  10.324  44.642   7.955
 5817POPC   C4B 6646  10.269  44.710   7.655
 5818POPC   NC3 6647  17.512   2.731   9.455
 5818POPC   PO4 6648  17.541   2.737   9.155
 5818POPC   GL1 6649  17.514   2.781   8.855
 5818POPC   GL2 6650  17.392   2.813   8.855
 5818POPC   C1A 6651  17.556   2.720   8.555
 5818POPC   D2A 6652  17.519   2.731   8.255
 5818POPC   C3A 6653  17.542   2.791   7.955
 5818POPC   C4A 6654  17.545   2.730   7.655
 5818POPC   C1B 6655  17.313   2.814   8.555
 5818POPC   C2B 6656  17.288   2.819   8.255
 5818POPC   C3B 6657  17.246   2.812   7.955
 5818POPC   C4B 6658  17.248   2.840   7.655
 5819POPC   NC3 6659  34.545  35.384   9.455
 5819POPC   PO4 6660  34.582  35.397   9.155
 5819POPC   GL1 6661  34.552  35.351   8.855
 5819POPC   GL2 6662  34.553  35.200   8.855
 5819POPC   C1A 6663  34.615  35.325   8.555
 5819POPC   D2A 6664  34.619  35.343   8.255
 5819POPC   C3A 6665  34.610  35.382   7.955
 5819POPC   C4A 6666  34.542  35.317   7.655
 5819POPC   C1B 6667  34.520  35.100   8.555
 5819POPC   C2B 6668  34.513  35.134   8.255
 5819POPC   C3B 6669  34.512  35.157   7.955
 5819POPC   C4B 6670  34.497  35.123   7.655
 5820POPC   NC3 6671  15.984  29.124   9.455
 5820POPC   PO4 6672  15.966  29.101   9.155
 5820POPC   GL1 6673  15.964  29.166   8.855
 5820POPC   GL2 6674  15.921  29.198   8.855
 5820POPC   C1A 6675  15.916  29.163   8.555
 5820POPC   D2A 6676  15.938  29.104   8.255
 5820POPC   C3A 6677  16.001  29.153   7.955
 5820POPC   C4A 6678  15.967  29.183   7.655
 5820POPC   C1B 6679  15.820  29.365   8.555
 5820POPC   C2B 6680  15.844  29.364   8.255
 5820POPC   C3B 6681  15.814  29.297   7.955
 5820POPC   C4B 6682  15.839  29.376   7.655
 5821POPC   NC3 6683   5.830   1.967   9.455
 5821POPC   PO4 6684   5.874   2.004   9.155
 5821POPC   GL1 6685   5.904   1.982   8.855
 5821POPC   GL2 6686   5.773   2.087   8.855
 5821POPC   C1A 6687   5.910   2.033   8.555
 5821POPC   D2A 6688   5.884   1.959   8.255
 5821POPC   C3A 6689   5.887   2.033   7.955
 5821POPC   C4A 6690   5.905   2.015   7.655
 5821POPC   C1B 6691   5.793   2.195   8.555
 5821POPC   C2B 6692   5.740   2.189   8.255
 5821POPC   C3B 6693   5.758   2.253   7.955
 5821POPC   C4B 6694   5.742   2.248   7.655
 5822POPC   NC3 6695  42.335  37.713   9.455
 5822POPC   PO4 6696  42.363  37.657   9.155
 5822POPC   GL1 6697  42.302  37.652   8.855
 5822POPC   GL2 6698  42.294  37.576   8.855
 5822POPC   C1A 6699  42.292  37.729   8.555
 5822POPC   D2A 6700  42.333  37.653   8.255
 5822POPC   C3A 6701  42.325  37.725   7.955
 5822POPC   C4A 6702  42.334  37.670   7.655
 5822POPC   C1B 6703  42.207  37.469   8.555
 5822POPC   C2B 6704  42.232  37.431   8.255
 5822POPC   C3B 6705  42.208  37.444   7.955
 5822POPC   C4B 6706  42.196  37.414   7.655
 5823POPC   NC3 6707  22.968  44.694   9.455
 5823POPC   PO4 6708  22.923  44.691   9.155
 5823POPC   GL1 6709  22.976  44.634   8.855
 5823POPC   GL2 6710  22.960  44.557   8.855
 5823POPC   C1A 6711  22.957  44.676   8.555
 5823POPC   D2A 6712  22.964  44.637   8.255
 5823POPC   C3A 6713  22.967  44.687   7.955
 5823POPC   C4A 6714  22.924  44.666   7.655
 5823POPC   C1B 6715  23.024  44.430   8.555
 5823POPC   C2B 6716  23.056  44.428   8.255
 5823POPC   C3B 6717  23.062  44.452   7.955
 5823POPC   C4B 6718  23.070  44.393   7.655
 5824POPC   NC3 6719  10.548   3.589   9.455
 5824POPC   PO4 6720  10.482   3.539   9.155
 5824POPC   GL1 6721  10.548   3.493   8.855
 5824POPC   GL2 6722  10.678   3.550   8.855
 5824POPC   C1A 6723  10.545   3.550   8.555
 5824POPC   D2A 6724  10.483   3.528   8.255
 5824POPC   C3A 6725  10.565   3.496   7.955
 5824POPC   C4A 6726  10.519   3.550   7.655
 5824POPC   C1B 6727  10.744   3.513   8.555
 5824POPC   C2B 6728  10.741   3.540   8.255
 5824POPC   C3B 6729  10.769   3.508   7.955
 5824POPC   C4B 6730  10.800   3.548   7.655
 5825POPC   NC3 6731   0.401   1.239   9.455
 5825POPC   PO4 6732   0.480   1.206   9.155
 5825POPC   GL1 6733   0.396   1.251   8.855
 5825POPC   GL2 6734   0.526   1.133   8.855
 5825POPC   C1A 6735   0.390   1.210   8.555
 5825POPC   D2A 6736   0.429   1.230   8.255
 5825POPC   C3A 6737   0.416   1.251   7.955
 5825POPC   C4A 6738   0.403   1.221   7.655
 5825POPC   C1B 6739   0.536   1.028   8.555
 5825POPC   C2B 6740   0.560   1.023   8.255
 5825POPC   C3B 6741   0.563   0.980   7.955
 5825POPC   C4B 6742   0.511   0.998   7.655
 5826POPC   NC3 6743  19.880  11.316   9.455
 5826POPC   PO4 6744  19.841  11.285   9.155
 5826POPC   GL1 6745  19.848  11.328   8.855
 5826POPC   GL2 6746  19.783  11.395   8.855
 5826POPC   C1A 6747  19.862  11.349   8.555
 5826POPC   D2A 6748  19.846  11.291   8.255
 5826POPC   C3A 6749  19.864  11.333   7.955
 5826POPC   C4A 6750  19.793  11.286   7.655
 5826POPC   C1B 6751  19.741  11.579   8.555
 5826POPC   C2B 6752  19.791  11.553   8.255
 5826POPC   C3B 6753  19.816  11.571   7.955
 5826POPC   C4B 6754  19.723  11.508   7.655
 5827POPC   NC3 6755  25.264  40.778   9.455
 5827POPC   PO4 6756  25.263  40.823   9.155
 5827POPC   GL1 6757  25.265  40.827   8.855
 5827POPC   GL2 6758  25.421  40.811   8.855
 5827POPC   C1A 6759  25.223  40.796   8.555
 5827POPC   D2A 6760  25.254  40.806   8.255
 5827POPC   C3A 6761  25.288  40.770   7.955
 5827POPC   C4A 6762  25.294  40.758   7.655
 5827POPC   C1B 6763  25.555  40.860   8.555
 5827POPC   C2B 6764  25.465  40.823   8.255
 5827POPC   C3B 6765  25.488  40.831   7.955
 5827POPC   C4B 6766  25.559  40.811   7.655
 5828POPC   NC3 6767  17.534   8.190   9.455
 5828POPC   PO4 6768  17.503   8.224   9.155
 5828POPC   GL1 6769  17.464   8.202   8.855
 5828POPC   GL2 6770  17.446   8.316   8.855
 5828POPC   C1A 6771  17.545   8.156   8.555
 5828POPC   D2A 6772  17.517   8.175   8.255
 5828POPC   C3A 6773  17.458   8.153   7.955
 5828POPC   C4A 6774  17.487   8.242   7.655
 5828POPC   C1B 6775  17.411   8.418   8.555
 5828POPC   C2B 6776  17.403   8.473   8.255
 5828POPC   C3B 6777  17.361   8.428   7.955
 5828POPC   C4B 6778  17.417   8.454   7.655
 5829POPC   NC3 6779  17.516  22.173   9.455
 5829POPC   PO4 6780  17.537  22.117   9.155
 5829POPC   GL1 6781  17.513  22.169   8.855
 5829POPC   GL2 6782  17.629  22.202   8.855
 5829POPC   C1A 6783  17.540  22.186   8.555
 5829POPC   D2A 6784  17.514  22.193   8.255
 5829POPC   C3A 6785  17.553  22.209   7.955
 5829POPC   C4A 6786  17.515  22.172   7.655
 5829POPC   C1B 6787  17.766  22.321   8.555
 5829POPC   C2B 6788  17.719  22.322   8.255
 5829POPC   C3B 6789  17.774  22.277   7.955
 5829POPC   C4B 6790  17.715  22.287   7.655
 5830POPC   NC3 6791  37.685   9.750   9.455
 5830POPC   PO4 6792  37.724   9.699   9.155
 5830POPC   GL1 6793  37.728   9.730   8.855
 5830POPC   GL2 6794  37.691   9.889   8.855
 5830POPC   C1A 6795  37.722   9.792   8.555
 5830POPC   D2A 6796  37.652   9.786   8.255
 5830POPC   C3A 6797  37.641   9.761   7.955
 5830POPC   C4A 6798  37.662   9.732   7.655
 5830POPC   C1B 6799  37.734  10.013   8.555
 5830POPC   C2B 6800  37.748  10.010   8.255
 5830POPC   C3B 6801  37.778   9.996   7.955
 5830POPC   C4B 6802  37.683   9.995   7.655
 5831POPC   NC3 6803   7.392  18.297   9.455
 5831POPC   PO4 6804   7.454  18.265   9.155
 5831POPC   GL1 6805   7.452  18.249   8.855
 5831POPC   GL2 6806   7.547  18.268   8.855
 5831POPC   C1A 6807   7.392  18.282   8.555
 5831POPC   D2A 6808   7.405  18.298   8.255
 5831POPC   C3A 6809   7.466  18.292   7.955
 5831POPC   C4A 6810   7.467  18.314   7.655
 5831POPC   C1B 6811   7.618  18.190   8.555
 5831POPC   C2B 6812   7.685  18.162   8.255
 5831POPC   C3B 6813   7.628  18.197   7.955
 5831POPC   C4B 6814   7.689  18.197   7.655
 5832POPC   NC3 6815  12.116  15.170   9.455
 5832POPC   PO4 6816  12.026  15.151   9.155
 5832POPC   GL1 6817  12.110  15.139   8.855
 5832POPC   GL2 6818  12.078  15.020   8.855
 5832POPC   C1A 6819  12.086  15.135   8.555
 5832POPC   D2A 6820  12.091  15.189   8.255
 5832POPC   C3A 6821  12.116  15.205   7.955
 5832POPC   C4A 6822  12.037  15.161   7.655
 5832POPC   C1B 6823  11.999  14.968   8.555
 5832POPC   C2B 6824  12.046  14.928   8.255
 5832POPC   C3B 6825  12.076  14.978   7.955
 5832POPC   C4B 6826  12.024  14.883   7.655
 5833POPC   NC3 6827   9.016  40.015   9.455
 5833POPC   PO4 6828   9.010  39.990   9.155
 5833POPC   GL1 6829   8.996  39.960   8.855
 5833POPC   GL2 6830   8.931  39.880   8.855
 5833POPC   C1A 6831   8.932  40.035   8.555
 5833POPC   D2A 6832   8.987  39.960   8.255
 5833POPC   C3A 6833   8.997  39.965   7.955
 5833POPC   C4A 6834   8.972  40.043   7.655
 5833POPC   C1B 6835   8.880  39.714   8.555
 5833POPC   C2B 6836   8.961  39.803   8.255
 5833POPC   C3B 6837   8.893  39.743   7.955
 5833POPC   C4B 6838   8.946  39.779   7.655
 5834POPC   NC3 6839  31.517  36.936   9.455
 5834POPC   PO4 6840  31.508  36.905   9.155
 5834POPC   GL1 6841  31.453  36.931   8.855
 5834POPC   GL2 6842  31.579  36.847   8.855
 5834POPC   C1A 6843  31.453  36.874   8.555
 5834POPC   D2A 6844  31.474  36.935   8.255
 5834POPC   C3A 6845  31.422  36.951   7.955
 5834POPC   C4A 6846  31.435  36.865   7.655
 5834POPC   C1B 6847  31.669  36.747   8.555
 5834POPC   C2B 6848  31.669  36.755   8.255
 5834POPC   C3B 6849  31.616  36.748   7.955
 5834POPC   C4B 6850  31.611  36.697   7.655
 5835POPC   NC3 6851  27.588  14.386   9.455
 5835POPC   PO4 6852  27.550  14.401   9.155
 5835POPC   GL1 6853  27.559  14.397   8.855
 5835POPC   GL2 6854  27.604  14.245   8.855
 5835POPC   C1A 6855  27.564  14.369   8.555
 5835POPC   D2A 6856  27.612  14.400   8.255
 5835POPC   C3A 6857  27.632  14.358   7.955
 5835POPC   C4A 6858  27.603  14.432   7.655
 5835POPC   C1B 6859  27.537  14.179   8.555
 5835POPC   C2B 6860  27.594  14.109   8.255
 5835POPC   C3B 6861  27.556  14.196   7.955
 5835POPC   C4B 6862  27.547  14.108   7.655
 5836POPC   NC3 6863  14.430  43.895   9.455
 5836POPC   PO4 6864  14.436  43.853   9.155
 5836POPC   GL1 6865  14.449  43.930   8.855
 5836POPC   GL2 6866  14.289  43.772   8.855
 5836POPC   C1A 6867  14.399  43.871   8.555
 5836POPC   D2A 6868  14.392  43.846   8.255
 5836POPC   C3A 6869  14.384  43.917   7.955
 5836POPC   C4A 6870  14.446  43.910   7.655
 5836POPC   C1B 6871  14.254  43.721   8.555
 5836POPC   C2B 6872  14.259  43.708   8.255
 5836POPC   C3B 6873  14.188  43.744   7.955
 5836POPC   C4B 6874  14.221  43.676   7.655
 5837POPC   NC3 6875  16.688  41.541   9.455
 5837POPC   PO4 6876  16.763  41.566   9.155
 5837POPC   GL1 6877  16.744  41.536   8.855
 5837POPC   GL2 6878  16.879  41.570   8.855
 5837POPC   C1A 6879  16.776  41.604   8.555
 5837POPC   D2A 6880  16.752  41.537   8.255
 5837POPC   C3A 6881  16.774  41.592   7.955
 5837POPC   C4A 6882  16.684  41.550   7.655
 5837POPC   C1B 6883  16.962  41.486   8.555
 5837POPC   C2B 6884  16.935  41.483   8.255
 5837POPC   C3B 6885  17.017  41.537   7.955
 5837POPC   C4B 6886  17.014  41.546   7.655
 5838POPC   NC3 6887  43.888   1.199   9.455
 5838POPC   PO4 6888  43.924   1.253   9.155
 5838POPC   GL1 6889  43.910   1.199   8.855
 5838POPC   GL2 6890  43.971   1.128   8.855
 5838POPC   C1A 6891  43.928   1.255   8.555
 5838POPC   D2A 6892  43.899   1.210   8.255
 5838POPC   C3A 6893  43.919   1.182   7.955
 5838POPC   C4A 6894  43.847   1.165   7.655
 5838POPC   C1B 6895  44.059   1.001   8.555
 5838POPC   C2B 6896  44.066   1.073   8.255
 5838POPC   C3B 6897  44.073   1.068   7.955
 5838POPC   C4B 6898  44.088   1.007   7.655
 5839POPC   NC3 6899  30.679   3.545   9.455
 5839POPC   PO4 6900  30.732   3.504   9.155
 5839POPC   GL1 6901  30.706   3.560   8.855
 5839POPC   GL2 6902  30.853   3.554   8.855
 5839POPC   C1A 6903  30.685   3.515   8.555
 5839POPC   D2A 6904  30.708   3.573   8.255
 5839POPC   C3A 6905  30.744   3.545   7.955
 5839POPC   C4A 6906  30.740   3.556   7.655
 5839POPC   C1B 6907  30.935   3.530   8.555
 5839POPC   C2B 6908  30.942   3.520   8.255
 5839POPC   C3B 6909  30.954   3.443   7.955
 5839POPC   C4B 6910  30.907   3.527   7.655
 5840POPC   NC3 6911   4.280  11.316   9.455
 5840POPC   PO4 6912   4.269  11.271   9.155
 5840POPC   GL1 6913   4.327  11.257   8.855
 5840POPC   GL2 6914   4.222  11.301   8.855
 5840POPC   C1A 6915   4.362  11.328   8.555
 5840POPC   D2A 6916   4.288  11.299   8.255
 5840POPC   C3A 6917   4.323  11.271   7.955
 5840POPC   C4A 6918   4.364  11.285   7.655
 5840POPC   C1B 6919   4.096  11.207   8.555
 5840POPC   C2B 6920   4.123  11.235   8.255
 5840POPC   C3B 6921   4.050  11.190   7.955
 5840POPC   C4B 6922   4.046  11.173   7.655
 5841POPC   NC3 6923  17.509  41.581   9.455
 5841POPC   PO4 6924  17.474  41.513   9.155
 5841POPC   GL1 6925  17.521  41.570   8.855
 5841POPC   GL2 6926  17.648  41.487   8.855
 5841POPC   C1A 6927  17.521  41.576   8.555
 5841POPC   D2A 6928  17.492  41.588   8.255
 5841POPC   C3A 6929  17.464  41.585   7.955
 5841POPC   C4A 6930  17.504  41.567   7.655
 5841POPC   C1B 6931  17.725  41.423   8.555
 5841POPC   C2B 6932  17.788  41.440   8.255
 5841POPC   C3B 6933  17.706  41.484   7.955
 5841POPC   C4B 6934  17.751  41.450   7.655
 5842POPC   NC3 6935  29.100   6.595   9.455
 5842POPC   PO4 6936  29.147   6.605   9.155
 5842POPC   GL1 6937  29.178   6.664   8.855
 5842POPC   GL2 6938  29.272   6.571   8.855
 5842POPC   C1A 6939  29.174   6.601   8.555
 5842POPC   D2A 6940  29.115   6.678   8.255
 5842POPC   C3A 6941  29.153   6.656   7.955
 5842POPC   C4A 6942  29.125   6.648   7.655
 5842POPC   C1B 6943  29.305   6.417   8.555
 5842POPC   C2B 6944  29.301   6.451   8.255
 5842POPC   C3B 6945  29.352   6.424   7.955
 5842POPC   C4B 6946  29.288   6.466   7.655
 5843POPC   NC3 6947   7.442  12.857   9.455
 5843POPC   PO4 6948   7.413  12.827   9.155
 5843POPC   GL1 6949   7.438  12.887   8.855
 5843POPC   GL2 6950   7.352  12.967   8.855
 5843POPC   C1A 6951   7.460  12.850   8.555
 5843POPC   D2A 6952   7.393  12.856   8.255
 5843POPC   C3A 6953   7.391  12.809   7.955
 5843POPC   C4A 6954   7.447  12.893   7.655
 5843POPC   C1B 6955   7.266  12.974   8.555
 5843POPC   C2B 6956   7.266  13.052   8.255
 5843POPC   C3B 6957   7.228  13.027   7.955
 5843POPC   C4B 6958   7.205  13.056   7.655
 5844POPC   NC3 6959  19.873  28.328   9.455
 5844POPC   PO4 6960  19.868  28.354   9.155
 5844POPC   GL1 6961  19.806  28.319   8.855
 5844POPC   GL2 6962  19.989  28.374   8.855
 5844POPC   C1A 6963  19.791  28.341   8.555
 5844POPC   D2A 6964  19.810  28.326   8.255
 5844POPC   C3A 6965  19.813  28.358   7.955
 5844POPC   C4A 6966  19.853  28.376   7.655
 5844POPC   C1B 6967  20.111  28.484   8.555
 5844POPC   C2B 6968  20.106  28.463   8.255
 5844POPC   C3B 6969  20.025  28.417   7.955
 5844POPC   C4B 6970  20.110  28.428   7.655
 5845POPC   NC3 6971  22.126  42.354   9.455
 5845POPC   PO4 6972  22.154  42.293   9.155
 5845POPC   GL1 6973  22.184  42.295   8.855
 5845POPC   GL2 6974  22.151  42.443   8.855
 5845POPC   C1A 6975  22.165  42.338   8.555
 5845POPC   D2A 6976  22.183  42.300   8.255
 5845POPC   C3A 6977  22.126  42.374   7.955
 5845POPC   C4A 6978  22.157  42.321   7.655
 5845POPC   C1B 6979  22.172  42.579   8.555
 5845POPC   C2B 6980  22.187  42.553   8.255
 5845POPC   C3B 6981  22.109  42.632   7.955
 5845POPC   C4B 6982  22.117  42.600   7.655
 5846POPC   NC3 6983  34.580  10.544   9.455
 5846POPC   PO4 6984  34.562  10.488   9.155
 5846POPC   GL1 6985  34.574  10.500   8.855
 5846POPC   GL2 6986  34.575  10.699   8.855
 5846POPC   C1A 6987  34.598  10.570   8.555
 5846POPC   D2A 6988  34.591  10.563   8.255
 5846POPC   C3A 6989  34.592  10.503   7.955
 5846POPC   C4A 6990  34.611  10.534   7.655
 5846POPC   C1B 6991  34.579  10.779   8.555
 5846POPC   C2B 6992  34.549  10.744   8.255
 5846POPC   C3B 6993  34.606  10.801   7.955
 5846POPC   C4B 6994  34.617  10.724   7.655
 5847POPC   NC3 6995   9.722  36.898   9.455
 5847POPC   PO4 6996   9.754  36.863   9.155
 5847POPC   GL1 6997   9.788  36.859   8.855
 5847POPC   GL2 6998   9.588  36.867   8.855
 5847POPC   C1A 6999   9.737  36.908   8.555
 5847POPC   D2A 7000   9.700  36.880   8.255
 5847POPC   C3A 7001   9.722  36.921   7.955
 5847POPC   C4A 7002   9.703  36.859   7.655
 5847POPC   C1B 7003   9.519  36.833   8.555
 5847POPC   C2B 7004   9.534  36.901   8.255
 5847POPC   C3B 7005   9.523  36.825   7.955
 5847POPC   C4B 7006   9.484  36.836   7.655
 5848POPC   NC3 7007   0.468  41.553   9.455
 5848POPC   PO4 7008   0.446  41.594   9.155
 5848POPC   GL1 7009   0.468  41.559   8.855
 5848POPC   GL2 7010   0.427  41.668   8.855
 5848POPC   C1A 7011   0.405  41.537   8.555
 5848POPC   D2A 7012   0.428  41.540   8.255
 5848POPC   C3A 7013   0.459  41.511   7.955
 5848POPC   C4A 7014   0.402  41.515   7.655
 5848POPC   C1B 7015   0.287  41.819   8.555
 5848POPC   C2B 7016   0.351  41.773   8.255
 5848POPC   C3B 7017   0.290  41.773   7.955
 5848POPC   C4B 7018   0.362  41.790   7.655
 5849POPC   NC3 7019  26.770  30.701   9.455
 5849POPC   PO4 7020  26.817  30.689   9.155
 5849POPC   GL1 7021  26.800  30.717   8.855
 5849POPC   GL2 7022  26.672  30.771   8.855
 5849POPC   C1A 7023  26.856  30.700   8.555
 5849POPC   D2A 7024  26.854  30.723   8.255
 5849POPC   C3A 7025  26.828  30.690   7.955
 5849POPC   C4A 7026  26.820  30.700   7.655
 5849POPC   C1B 7027  26.600  30.797   8.555
 5849POPC   C2B 7028  26.575  30.821   8.255
 5849POPC   C3B 7029  26.616  30.777   7.955
 5849POPC   C4B 7030  26.649  30.785   7.655
 5850POPC   NC3 7031  26.042  27.632   9.455
 5850POPC   PO4 7032  26.087  27.617   9.155
 5850POPC   GL1 7033  26.091  27.635   8.855
 5850POPC   GL2 7034  26.122  27.634   8.855
 5850POPC   C1A 7035  26.027  27.575   8.555
 5850POPC   D2A 7036  26.084  27.596   8.255
 5850POPC   C3A 7037  26.070  27.552   7.955
 5850POPC   C4A 7038  26.057  27.638   7.655
 5850POPC   C1B 7039  26.294  27.575   8.555
 5850POPC   C2B 7040  26.261  27.572   8.255
 5850POPC   C3B 7041  26.320  27.636   7.955
 5850POPC   C4B 7042  26.335  27.565   7.655
 5851POPC   NC3 7043  33.062   9.008   9.455
 5851POPC   PO4 7044  33.023   8.968   9.155
 5851POPC   GL1 7045  33.036   8.928   8.855
 5851POPC   GL2 7046  33.017   9.050   8.855
 5851POPC   C1A 7047  33.072   8.995   8.555
 5851POPC   D2A 7048  33.029   8.997   8.255
 5851POPC   C3A 7049  33.040   8.934   7.955
 5851POPC   C4A 7050  33.040   9.001   7.655
 5851POPC   C1B 7051  32.981   9.269   8.555
 5851POPC   C2B 7052  33.017   9.262   8.255
 5851POPC   C3B 7053  32.945   9.196   7.955
 5851POPC   C4B 7054  32.971   9.230   7.655
 5852POPC   NC3 7055   6.633  17.459   9.455
 5852POPC   PO4 7056   6.668  17.492   9.155
 5852POPC   GL1 7057   6.666  17.531   8.855
 5852POPC   GL2 7058   6.536  17.497   8.855
 5852POPC   C1A 7059   6.692  17.506   8.555
 5852POPC   D2A 7060   6.680  17.539   8.255
 5852POPC   C3A 7061   6.613  17.543   7.955
 5852POPC   C4A 7062   6.682  17.530   7.655
 5852POPC   C1B 7063   6.377  17.471   8.555
 5852POPC   C2B 7064   6.406  17.451   8.255
 5852POPC   C3B 7065   6.359  17.476   7.955
 5852POPC   C4B 7066   6.366  17.452   7.655
 5853POPC   NC3 7067  30.745  31.511   9.455
 5853POPC   PO4 7068  30.724  31.467   9.155
 5853POPC   GL1 7069  30.664  31.438   8.855
 5853POPC   GL2 7070  30.761  31.625   8.855
 5853POPC   C1A 7071  30.652  31.452   8.555
 5853POPC   D2A 7072  30.718  31.442   8.255
 5853POPC   C3A 7073  30.736  31.457   7.955
 5853POPC   C4A 7074  30.667  31.441   7.655
 5853POPC   C1B 7075  30.766  31.682   8.555
 5853POPC   C2B 7076  30.826  31.681   8.255
 5853POPC   C3B 7077  30.818  31.674   7.955
 5853POPC   C4B 7078  30.804  31.669   7.655
 5854POPC   NC3 7079  43.857  24.515   9.455
 5854POPC   PO4 7080  43.874  24.496   9.155
 5854POPC   GL1 7081  43.891  24.457   8.855
 5854POPC   GL2 7082  43.934  24.642   8.855
 5854POPC   C1A 7083  43.893  24.492   8.555
 5854POPC   D2A 7084  43.845  24.519   8.255
 5854POPC   C3A 7085  43.849  24.522   7.955
 5854POPC   C4A 7086  43.888  24.506   7.655
 5854POPC   C1B 7087  43.987  24.687   8.555
 5854POPC   C2B 7088  44.044  24.762   8.255
 5854POPC   C3B 7089  44.003  24.692   7.955
 5854POPC   C4B 7090  43.962  24.678   7.655
 5855POPC   NC3 7091  38.433  29.139   9.455
 5855POPC   PO4 7092  38.439  29.178   9.155
 5855POPC   GL1 7093  38.460  29.119   8.855
 5855POPC   GL2 7094  38.465  29.048   8.855
 5855POPC   C1A 7095  38.485  29.164   8.555
 5855POPC   D2A 7096  38.406  29.101   8.255
 5855POPC   C3A 7097  38.432  29.182   7.955
 5855POPC   C4A 7098  38.407  29.111   7.655
 5855POPC   C1B 7099  38.550  28.868   8.555
 5855POPC   C2B 7100  38.590  28.900   8.255
 5855POPC   C3B 7101  38.568  28.901   7.955
 5855POPC   C4B 7102  38.511  28.880   7.655
 5856POPC   NC3 7103   5.079  34.620   9.455
 5856POPC   PO4 7104   5.087  34.555   9.155
 5856POPC   GL1 7105   5.099  34.610   8.855
 5856POPC   GL2 7106   5.150  34.657   8.855
 5856POPC   C1A 7107   5.125  34.579   8.555
 5856POPC   D2A 7108   5.070  34.573   8.255
 5856POPC   C3A 7109   5.126  34.527   7.955
 5856POPC   C4A 7110   5.072  34.614   7.655
 5856POPC   C1B 7111   5.193  34.780   8.555
 5856POPC   C2B 7112   5.138  34.828   8.255
 5856POPC   C3B 7113   5.109  34.857   7.955
 5856POPC   C4B 7114   5.124  34.802   7.655
 5857POPC   NC3 7115  29.165  10.516   9.455
 5857POPC   PO4 7116  29.164  10.554   9.155
 5857POPC   GL1 7117  29.104  10.538   8.855
 5857POPC   GL2 7118  29.068  10.447   8.855
 5857POPC   C1A 7119  29.176  10.482   8.555
 5857POPC   D2A 7120  29.135  10.570   8.255
 5857POPC   C3A 7121  29.154  10.530   7.955
 5857POPC   C4A 7122  29.100  10.508   7.655
 5857POPC   C1B 7123  28.992  10.329   8.555
 5857POPC   C2B 7124  29.009  10.280   8.255
 5857POPC   C3B 7125  29.025  10.329   7.955
 5857POPC   C4B 7126  28.950  10.311   7.655
 5858POPC   NC3 7127  43.076  32.981   9.455
 5858POPC   PO4 7128  43.113  33.025   9.155
 5858POPC   GL1 7129  43.066  33.053   8.855
 5858POPC   GL2 7130  43.277  33.046   8.855
 5858POPC   C1A 7131  43.097  33.054   8.555
 5858POPC   D2A 7132  43.065  33.014   8.255
 5858POPC   C3A 7133  43.092  33.005   7.955
 5858POPC   C4A 7134  43.091  33.010   7.655
 5858POPC   C1B 7135  43.350  33.065   8.555
 5858POPC   C2B 7136  43.379  33.081   8.255
 5858POPC   C3B 7137  43.389  33.048   7.955
 5858POPC   C4B 7138  43.402  33.093   7.655
 5859POPC   NC3 7139  19.093  27.545   9.455
 5859POPC   PO4 7140  19.107  27.613   9.155
 5859POPC   GL1 7141  19.105  27.559   8.855
 5859POPC   GL2 7142  19.110  27.471   8.855
 5859POPC   C1A 7143  19.063  27.636   8.555
 5859POPC   D2A 7144  19.077  27.559   8.255
 5859POPC   C3A 7145  19.067  27.563   7.955
 5859POPC   C4A 7146  19.062  27.607   7.655
 5859POPC   C1B 7147  19.157  27.310   8.555
 5859POPC   C2B 7148  19.131  27.330   8.255
 5859POPC   C3B 7149  19.149  27.393   7.955
 5859POPC   C4B 7150  19.140  27.356   7.655
 5860POPC   NC3 7151  26.859  25.238   9.455
 5860POPC   PO4 7152  26.797  25.231   9.155
 5860POPC   GL1 7153  26.860  25.231   8.855
 5860POPC   GL2 7154  26.742  25.313   8.855
 5860POPC   C1A 7155  26.824  25.244   8.555
 5860POPC   D2A 7156  26.847  25.218   8.255
 5860POPC   C3A 7157  26.827  25.297   7.955
 5860POPC   C4A 7158  26.793  25.230   7.655
 5860POPC   C1B 7159  26.541  25.388   8.555
 5860POPC   C2B 7160  26.569  25.368   8.255
 5860POPC   C3B 7161  26.595  25.351   7.955
 5860POPC   C4B 7162  26.565  25.350   7.655
 5861POPC   NC3 7163  39.197  36.131   9.455
 5861POPC   PO4 7164  39.200  36.149   9.155
 5861POPC   GL1 7165  39.274  36.152   8.855
 5861POPC   GL2 7166  39.151  36.163   8.855
 5861POPC   C1A 7167  39.235  36.118   8.555
 5861POPC   D2A 7168  39.257  36.148   8.255
 5861POPC   C3A 7169  39.211  36.103   7.955
 5861POPC   C4A 7170  39.251  36.102   7.655
 5861POPC   C1B 7171  38.953  36.213   8.555
 5861POPC   C2B 7172  38.990  36.231   8.255
 5861POPC   C3B 7173  39.007  36.226   7.955
 5861POPC   C4B 7174  39.027  36.242   7.655
 5862POPC   NC3 7175   8.217  12.086   9.455
 5862POPC   PO4 7176   8.204  12.103   9.155
 5862POPC   GL1 7177   8.218  12.047   8.855
 5862POPC   GL2 7178   8.192  12.238   8.855
 5862POPC   C1A 7179   8.203  12.030   8.555
 5862POPC   D2A 7180   8.235  12.117   8.255
 5862POPC   C3A 7181   8.214  12.108   7.955
 5862POPC   C4A 7182   8.205  12.120   7.655
 5862POPC   C1B 7183   8.252  12.291   8.555
 5862POPC   C2B 7184   8.243  12.355   8.255
 5862POPC   C3B 7185   8.304  12.351   7.955
 5862POPC   C4B 7186   8.306  12.342   7.655
 5863POPC   NC3 7187   2.806  38.424   9.455
 5863POPC   PO4 7188   2.729  38.414   9.155
 5863POPC   GL1 7189   2.780  38.445   8.855
 5863POPC   GL2 7190   2.643  38.489   8.855
 5863POPC   C1A 7191   2.813  38.428   8.555
 5863POPC   D2A 7192   2.773  38.457   8.255
 5863POPC   C3A 7193   2.762  38.501   7.955
 5863POPC   C4A 7194   2.723  38.477   7.655
 5863POPC   C1B 7195   2.531  38.407   8.555
 5863POPC   C2B 7196   2.509  38.488   8.255
 5863POPC   C3B 7197   2.543  38.481   7.955
 5863POPC   C4B 7198   2.563  38.449   7.655
 5864POPC   NC3 7199  43.091  24.453   9.455
 5864POPC   PO4 7200  43.101  24.505   9.155
 5864POPC   GL1 7201  43.090  24.481   8.855
 5864POPC   GL2 7202  43.172  24.561   8.855
 5864POPC   C1A 7203  43.100  24.535   8.555
 5864POPC   D2A 7204  43.112  24.479   8.255
 5864POPC   C3A 7205  43.101  24.476   7.955
 5864POPC   C4A 7206  43.065  24.501   7.655
 5864POPC   C1B 7207  43.230  24.773   8.555
 5864POPC   C2B 7208  43.143  24.691   8.255
 5864POPC   C3B 7209  43.186  24.774   7.955
 5864POPC   C4B 7210  43.227  24.758   7.655
 5865POPC   NC3 7211   1.217  31.471   9.455
 5865POPC   PO4 7212   1.185  31.477   9.155
 5865POPC   GL1 7213   1.232  31.464   8.855
 5865POPC   GL2 7214   1.290  31.492   8.855
 5865POPC   C1A 7215   1.193  31.424   8.555
 5865POPC   D2A 7216   1.228  31.429   8.255
 5865POPC   C3A 7217   1.252  31.497   7.955
 5865POPC   C4A 7218   1.235  31.465   7.655
 5865POPC   C1B 7219   1.431  31.552   8.555
 5865POPC   C2B 7220   1.441  31.557   8.255
 5865POPC   C3B 7221   1.436  31.549   7.955
 5865POPC   C4B 7222   1.466  31.544   7.655
 5866POPC   NC3 7223   2.745   2.002   9.455
 5866POPC   PO4 7224   2.747   2.000   9.155
 5866POPC   GL1 7225   2.742   2.039   8.855
 5866POPC   GL2 7226   2.844   2.098   8.855
 5866POPC   C1A 7227   2.793   1.954   8.555
 5866POPC   D2A 7228   2.771   2.015   8.255
 5866POPC   C3A 7229   2.721   1.997   7.955
 5866POPC   C4A 7230   2.770   2.033   7.655
 5866POPC   C1B 7231   2.866   2.228   8.555
 5866POPC   C2B 7232   2.928   2.244   8.255
 5866POPC   C3B 7233   2.924   2.243   7.955
 5866POPC   C4B 7234   2.867   2.203   7.655
 5867POPC   NC3 7235  32.202  32.242   9.455
 5867POPC   PO4 7236  32.293  32.262   9.155
 5867POPC   GL1 7237  32.289  32.276   8.855
 5867POPC   GL2 7238  32.383  32.211   8.855
 5867POPC   C1A 7239  32.202  32.207   8.555
 5867POPC   D2A 7240  32.236  32.249   8.255
 5867POPC   C3A 7241  32.249  32.292   7.955
 5867POPC   C4A 7242  32.269  32.286   7.655
 5867POPC   C1B 7243  32.494  32.181   8.555
 5867POPC   C2B 7244  32.521  32.172   8.255
 5867POPC   C3B 7245  32.500  32.259   7.955
 5867POPC   C4B 7246  32.524  32.251   7.655
 5868POPC   NC3 7247  42.356  33.774   9.455
 5868POPC   PO4 7248  42.337  33.824   9.155
 5868POPC   GL1 7249  42.344  33.798   8.855
 5868POPC   GL2 7250  42.291  33.882   8.855
 5868POPC   C1A 7251  42.364  33.833   8.555
 5868POPC   D2A 7252  42.342  33.772   8.255
 5868POPC   C3A 7253  42.323  33.843   7.955
 5868POPC   C4A 7254  42.308  33.769   7.655
 5868POPC   C1B 7255  42.170  34.026   8.555
 5868POPC   C2B 7256  42.162  33.969   8.255
 5868POPC   C3B 7257  42.126  33.973   7.955
 5868POPC   C4B 7258  42.128  33.947   7.655
 5869POPC   NC3 7259  40.782  17.556   9.455
 5869POPC   PO4 7260  40.753  17.484   9.155
 5869POPC   GL1 7261  40.791  17.493   8.855
 5869POPC   GL2 7262  40.828  17.397   8.855
 5869POPC   C1A 7263  40.762  17.537   8.555
 5869POPC   D2A 7264  40.830  17.514   8.255
 5869POPC   C3A 7265  40.801  17.547   7.955
 5869POPC   C4A 7266  40.789  17.555   7.655
 5869POPC   C1B 7267  40.833  17.309   8.555
 5869POPC   C2B 7268  40.857  17.319   8.255
 5869POPC   C3B 7269  40.862  17.236   7.955
 5869POPC   C4B 7270  40.849  17.266   7.655
 5870POPC   NC3 7271   2.756  39.992   9.455
 5870POPC   PO4 7272   2.768  39.999   9.155
 5870POPC   GL1 7273   2.742  39.961   8.855
 5870POPC   GL2 7274   2.842  39.881   8.855
 5870POPC   C1A 7275   2.743  40.020   8.555
 5870POPC   D2A 7276   2.756  40.005   8.255
 5870POPC   C3A 7277   2.723  40.010   7.955
 5870POPC   C4A 7278   2.749  39.963   7.655
 5870POPC   C1B 7279   2.950  39.819   8.555
 5870POPC   C2B 7280   2.895  39.782   8.255
 5870POPC   C3B 7281   2.957  39.764   7.955
 5870POPC   C4B 7282   2.969  39.781   7.655
 5871POPC   NC3 7283  23.762  22.933   9.455
 5871POPC   PO4 7284  23.741  22.938   9.155
 5871POPC   GL1 7285  23.692  22.903   8.855
 5871POPC   GL2 7286  23.589  22.987   8.855
 5871POPC   C1A 7287  23.726  22.964   8.555
 5871POPC   D2A 7288  23.672  22.968   8.255
 5871POPC   C3A 7289  23.710  22.952   7.955
 5871POPC   C4A 7290  23.665  22.957   7.655
 5871POPC   C1B 7291  23.448  22.985   8.555
 5871POPC   C2B 7292  23.452  23.030   8.255
 5871POPC   C3B 7293  23.456  23.037   7.955
 5871POPC   C4B 7294  23.520  22.956   7.655
 5872POPC   NC3 7295  33.799   5.078   9.455
 5872POPC   PO4 7296  33.800   5.122   9.155
 5872POPC   GL1 7297  33.816   5.138   8.855
 5872POPC   GL2 7298  33.902   5.027   8.855
 5872POPC   C1A 7299  33.789   5.140   8.555
 5872POPC   D2A 7300  33.782   5.067   8.255
 5872POPC   C3A 7301  33.791   5.102   7.955
 5872POPC   C4A 7302  33.796   5.060   7.655
 5872POPC   C1B 7303  34.010   4.932   8.555
 5872POPC   C2B 7304  33.971   4.965   8.255
 5872POPC   C3B 7305  34.051   4.960   7.955
 5872POPC   C4B 7306  34.053   4.972   7.655
 5873POPC   NC3 7307  39.969  27.635   9.455
 5873POPC   PO4 7308  40.021  27.637   9.155
 5873POPC   GL1 7309  39.988  27.574   8.855
 5873POPC   GL2 7310  39.930  27.499   8.855
 5873POPC   C1A 7311  40.024  27.577   8.555
 5873POPC   D2A 7312  40.013  27.593   8.255
 5873POPC   C3A 7313  40.005  27.624   7.955
 5873POPC   C4A 7314  40.046  27.626   7.655
 5873POPC   C1B 7315  39.816  27.382   8.555
 5873POPC   C2B 7316  39.786  27.468   8.255
 5873POPC   C3B 7317  39.856  27.369   7.955
 5873POPC   C4B 7318  39.820  27.401   7.655
 5874POPC   NC3 7319   8.943  43.084   9.455
 5874POPC   PO4 7320   8.959  43.128   9.155
 5874POPC   GL1 7321   9.004  43.121   8.855
 5874POPC   GL2 7322   8.807  43.133   8.855
 5874POPC   C1A 7323   8.954  43.072   8.555
 5874POPC   D2A 7324   8.940  43.155   8.255
 5874POPC   C3A 7325   8.968  43.126   7.955
 5874POPC   C4A 7326   8.999  43.123   7.655
 5874POPC   C1B 7327   8.726  43.129   8.555
 5874POPC   C2B 7328   8.744  43.114   8.255
 5874POPC   C3B 7329   8.704  43.125   7.955
 5874POPC   C4B 7330   8.753  43.054   7.655
 5875POPC   NC3 7331  40.794   6.681   9.455
 5875POPC   PO4 7332  40.797   6.608   9.155
 5875POPC   GL1 7333  40.802   6.605   8.855
 5875POPC   GL2 7334  40.844   6.523   8.855
 5875POPC   C1A 7335  40.784   6.600   8.555
 5875POPC   D2A 7336  40.791   6.670   8.255
 5875POPC   C3A 7337  40.786   6.654   7.955
 5875POPC   C4A 7338  40.783   6.629   7.655
 5875POPC   C1B 7339  40.924   6.441   8.555
 5875POPC   C2B 7340  40.958   6.462   8.255
 5875POPC   C3B 7341  40.903   6.401   7.955
 5875POPC   C4B 7342  40.874   6.418   7.655
 5876POPC   NC3 7343  18.321  11.307   9.455
 5876POPC   PO4 7344  18.267  11.255   9.155
 5876POPC   GL1 7345  18.330  11.284   8.855
 5876POPC   GL2 7346  18.157  11.309   8.855
 5876POPC   C1A 7347  18.287  11.280   8.555
 5876POPC   D2A 7348  18.270  11.349   8.255
 5876POPC   C3A 7349  18.274  11.274   7.955
 5876POPC   C4A 7350  18.301  11.252   7.655
 5876POPC   C1B 7351  17.984  11.266   8.555
 5876POPC   C2B 7352  18.026  11.302   8.255
 5876POPC   C3B 7353  18.040  11.258   7.955
 5876POPC   C4B 7354  18.065  11.252   7.655
 5877POPC   NC3 7355  12.815  16.733   9.455
 5877POPC   PO4 7356  12.854  16.775   9.155
 5877POPC   GL1 7357  12.853  16.720   8.855
 5877POPC   GL2 7358  12.799  16.664   8.855
 5877POPC   C1A 7359  12.802  16.704   8.555
 5877POPC   D2A 7360  12.854  16.773   8.255
 5877POPC   C3A 7361  12.834  16.705   7.955
 5877POPC   C4A 7362  12.876  16.736   7.655
 5877POPC   C1B 7363  12.774  16.547   8.555
 5877POPC   C2B 7364  12.751  16.493   8.255
 5877POPC   C3B 7365  12.784  16.529   7.955
 5877POPC   C4B 7366  12.790  16.542   7.655
 5878POPC   NC3 7367  19.015  14.376   9.455
 5878POPC   PO4 7368  19.022  14.420   9.155
 5878POPC   GL1 7369  19.061  14.412   8.855
 5878POPC   GL2 7370  19.127  14.531   8.855
 5878POPC   C1A 7371  19.100  14.413   8.555
 5878POPC   D2A 7372  19.043  14.366   8.255
 5878POPC   C3A 7373  19.043  14.412   7.955
 5878POPC   C4A 7374  19.054  14.414   7.655
 5878POPC   C1B 7375  19.205  14.509   8.555
 5878POPC   C2B 7376  19.217  14.514   8.255
 5878POPC   C3B 7377  19.265  14.560   7.955
 5878POPC   C4B 7378  19.272  14.603   7.655
 5879POPC   NC3 7379  37.687  29.881   9.455
 5879POPC   PO4 7380  37.691  29.933   9.155
 5879POPC   GL1 7381  37.661  29.901   8.855
 5879POPC   GL2 7382  37.654  30.020   8.855
 5879POPC   C1A 7383  37.676  29.896   8.555
 5879POPC   D2A 7384  37.675  29.871   8.255
 5879POPC   C3A 7385  37.657  29.930   7.955
 5879POPC   C4A 7386  37.665  29.905   7.655
 5879POPC   C1B 7387  37.701  30.142   8.555
 5879POPC   C2B 7388  37.663  30.216   8.255
 5879POPC   C3B 7389  37.675  30.162   7.955
 5879POPC   C4B 7390  37.656  30.171   7.655
 5880POPC   NC3 7391  26.784   3.533   9.455
 5880POPC   PO4 7392  26.776   3.545   9.155
 5880POPC   GL1 7393  26.827   3.557   8.855
 5880POPC   GL2 7394  26.680   3.458   8.855
 5880POPC   C1A 7395  26.852   3.557   8.555
 5880POPC   D2A 7396  26.867   3.513   8.255
 5880POPC   C3A 7397  26.854   3.518   7.955
 5880POPC   C4A 7398  26.818   3.589   7.655
 5880POPC   C1B 7399  26.573   3.396   8.555
 5880POPC   C2B 7400  26.584   3.406   8.255
 5880POPC   C3B 7401  26.627   3.468   7.955
 5880POPC   C4B 7402  26.586   3.456   7.655
 5881POPC   NC3 7403  31.505  32.998   9.455
 5881POPC   PO4 7404  31.482  33.059   9.155
 5881POPC   GL1 7405  31.522  33.054   8.855
 5881POPC   GL2 7406  31.444  33.170   8.855
 5881POPC   C1A 7407  31.439  33.035   8.555
 5881POPC   D2A 7408  31.451  33.038   8.255
 5881POPC   C3A 7409  31.494  33.027   7.955
 5881POPC   C4A 7410  31.482  33.054   7.655
 5881POPC   C1B 7411  31.437  33.235   8.555
 5881POPC   C2B 7412  31.501  33.244   8.255
 5881POPC   C3B 7413  31.489  33.236   7.955
 5881POPC   C4B 7414  31.438  33.324   7.655
 5882POPC   NC3 7415   1.982   5.061   9.455
 5882POPC   PO4 7416   1.974   5.059   9.155
 5882POPC   GL1 7417   2.028   5.060   8.855
 5882POPC   GL2 7418   2.084   5.093   8.855
 5882POPC   C1A 7419   1.974   5.073   8.555
 5882POPC   D2A 7420   1.970   5.047   8.255
 5882POPC   C3A 7421   1.958   5.085   7.955
 5882POPC   C4A 7422   2.016   5.136   7.655
 5882POPC   C1B 7423   2.196   4.950   8.555
 5882POPC   C2B 7424   2.212   4.948   8.255
 5882POPC   C3B 7425   2.236   5.037   7.955
 5882POPC   C4B 7426   2.253   4.989   7.655
 5883POPC   NC3 7427  15.983  15.922   9.455
 5883POPC   PO4 7428  15.931  15.968   9.155
 5883POPC   GL1 7429  15.927  15.989   8.855
 5883POPC   GL2 7430  16.018  16.081   8.855
 5883POPC   C1A 7431  15.906  15.933   8.555
 5883POPC   D2A 7432  15.969  15.950   8.255
 5883POPC   C3A 7433  15.928  15.984   7.955
 5883POPC   C4A 7434  15.914  15.945   7.655
 5883POPC   C1B 7435  15.994  16.216   8.555
 5883POPC   C2B 7436  16.056  16.199   8.255
 5883POPC   C3B 7437  15.986  16.202   7.955
 5883POPC   C4B 7438  15.999  16.156   7.655
 5884POPC   NC3 7439  44.692  43.084   9.455
 5884POPC   PO4 7440  44.686  43.144   9.155
 5884POPC   GL1 7441  44.637  43.139   8.855
 5884POPC   GL2 7442  44.601  43.064   8.855
 5884POPC   C1A 7443  44.706  43.151   8.555
 5884POPC   D2A 7444  44.697  43.119   8.255
 5884POPC   C3A 7445  44.642  43.143   7.955
 5884POPC   C4A 7446  44.614  43.126   7.655
 5884POPC   C1B 7447  44.432  42.909   8.555
 5884POPC   C2B 7448  44.456  42.938   8.255
 5884POPC   C3B 7449  44.479  42.936   7.955
 5884POPC   C4B 7450  44.490  42.899   7.655
 5885POPC   NC3 7451  44.654  32.235   9.455
 5885POPC   PO4 7452  44.709  32.240   9.155
 5885POPC   GL1 7453  44.654  32.256   8.855
 5885POPC   GL2 7454  44.822  32.285   8.855
 5885POPC   C1A 7455  44.654  32.275   8.555
 5885POPC   D2A 7456  44.707  32.233   8.255
 5885POPC   C3A 7457  44.707  32.286   7.955
 5885POPC   C4A 7458  44.650  32.232   7.655
 5885POPC   C1B 7459  44.957  32.220   8.555
 5885POPC   C2B 7460  44.936  32.216   8.255
 5885POPC   C3B 7461  44.926  32.216   7.955
 5885POPC   C4B 7462  44.929  32.255   7.655
 5886POPC   NC3 7463   5.919  38.409   9.455
 5886POPC   PO4 7464   5.819  38.460   9.155
 5886POPC   GL1 7465   5.826  38.437   8.855
 5886POPC   GL2 7466   5.965  38.388   8.855
 5886POPC   C1A 7467   5.859  38.469   8.555
 5886POPC   D2A 7468   5.833  38.467   8.255
 5886POPC   C3A 7469   5.876  38.410   7.955
 5886POPC   C4A 7470   5.863  38.433   7.655
 5886POPC   C1B 7471   6.126  38.410   8.555
 5886POPC   C2B 7472   6.143  38.364   8.255
 5886POPC   C3B 7473   6.105  38.352   7.955
 5886POPC   C4B 7474   6.096  38.340   7.655
 5887POPC   NC3 7475  15.933   4.304   9.455
 5887POPC   PO4 7476  15.917   4.362   9.155
 5887POPC   GL1 7477  15.969   4.273   8.855
 5887POPC   GL2 7478  16.115   4.391   8.855
 5887POPC   C1A 7479  15.954   4.307   8.555
 5887POPC   D2A 7480  15.985   4.316   8.255
 5887POPC   C3A 7481  15.935   4.318   7.955
 5887POPC   C4A 7482  15.983   4.294   7.655
 5887POPC   C1B 7483  16.166   4.403   8.555
 5887POPC   C2B 7484  16.180   4.444   8.255
 5887POPC   C3B 7485  16.182   4.449   7.955
 5887POPC   C4B 7486  16.164   4.395   7.655
 5888POPC   NC3 7487  38.468  10.511   9.455
 5888POPC   PO4 7488  38.488  10.538   9.155
 5888POPC   GL1 7489  38.428  10.512   8.855
 5888POPC   GL2 7490  38.366  10.395   8.855
 5888POPC   C1A 7491  38.430  10.540   8.555
 5888POPC   D2A 7492  38.425  10.487   8.255
 5888POPC   C3A 7493  38.423  10.573   7.955
 5888POPC   C4A 7494  38.479  10.499   7.655
 5888POPC   C1B 7495  38.321  10.337   8.555
 5888POPC   C2B 7496  38.263  10.395   8.255
 5888POPC   C3B 7497  38.270  10.336   7.955
 5888POPC   C4B 7498  38.239  10.373   7.655
 5889POPC   NC3 7499  29.922  18.248   9.455
 5889POPC   PO4 7500  29.944  18.260   9.155
 5889POPC   GL1 7501  29.954  18.305   8.855
 5889POPC   GL2 7502  29.957  18.188   8.855
 5889POPC   C1A 7503  29.884  18.257   8.555
 5889POPC   D2A 7504  29.959  18.321   8.255
 5889POPC   C3A 7505  29.928  18.248   7.955
 5889POPC   C4A 7506  29.923  18.285   7.655
 5889POPC   C1B 7507  29.898  18.065   8.555
 5889POPC   C2B 7508  29.954  18.018   8.255
 5889POPC   C3B 7509  29.882  18.082   7.955
 5889POPC   C4B 7510  29.913  18.013   7.655
 5890POPC   NC3 7511  24.493  10.523   9.455
 5890POPC   PO4 7512  24.496  10.515   9.155
 5890POPC   GL1 7513  24.480  10.491   8.855
 5890POPC   GL2 7514  24.383  10.539   8.855
 5890POPC   C1A 7515  24.497  10.520   8.555
 5890POPC   D2A 7516  24.520  10.525   8.255
 5890POPC   C3A 7517  24.505  10.503   7.955
 5890POPC   C4A 7518  24.488  10.521   7.655
 5890POPC   C1B 7519  24.290  10.649   8.555
 5890POPC   C2B 7520  24.310  10.667   8.255
 5890POPC   C3B 7521  24.258  10.593   7.955
 5890POPC   C4B 7522  24.286  10.613   7.655
 5891POPC   NC3 7523  43.936  36.909   9.455
 5891POPC   PO4 7524  43.853  36.861   9.155
 5891POPC   GL1 7525  43.924  36.929   8.855
 5891POPC   GL2 7526  43.818  37.017   8.855
 5891POPC   C1A 7527  43.902  36.891   8.555
 5891POPC   D2A 7528  43.892  36.930   8.255
 5891POPC   C3A 7529  43.877  36.870   7.955
 5891POPC   C4A 7530  43.924  36.864   7.655
 5891POPC   C1B 7531  43.836  37.115   8.555
 5891POPC   C2B 7532  43.787  37.142   8.255
 5891POPC   C3B 7533  43.854  37.106   7.955
 5891POPC   C4B 7534  43.859  37.109   7.655
 5892POPC   NC3 7535  39.245  38.452   9.455
 5892POPC   PO4 7536  39.249  38.486   9.155
 5892POPC   GL1 7537  39.280  38.455   8.855
 5892POPC   GL2 7538  39.267  38.569   8.855
 5892POPC   C1A 7539  39.192  38.504   8.555
 5892POPC   D2A 7540  39.231  38.439   8.255
 5892POPC   C3A 7541  39.196  38.445   7.955
 5892POPC   C4A 7542  39.239  38.499   7.655
 5892POPC   C1B 7543  39.395  38.719   8.555
 5892POPC   C2B 7544  39.335  38.636   8.255
 5892POPC   C3B 7545  39.405  38.704   7.955
 5892POPC   C4B 7546  39.381  38.662   7.655
 5893POPC   NC3 7547   1.223  33.013   9.455
 5893POPC   PO4 7548   1.248  33.036   9.155
 5893POPC   GL1 7549   1.176  33.034   8.855
 5893POPC   GL2 7550   1.072  33.082   8.855
 5893POPC   C1A 7551   1.174  33.037   8.555
 5893POPC   D2A 7552   1.217  32.989   8.255
 5893POPC   C3A 7553   1.190  33.016   7.955
 5893POPC   C4A 7554   1.224  33.026   7.655
 5893POPC   C1B 7555   0.925  33.035   8.555
 5893POPC   C2B 7556   0.964  33.131   8.255
 5893POPC   C3B 7557   0.966  33.040   7.955
 5893POPC   C4B 7558   0.993  33.079   7.655
 5894POPC   NC3 7559  27.626  23.716   9.455
 5894POPC   PO4 7560  27.569  23.760   9.155
 5894POPC   GL1 7561  27.616  23.730   8.855
 5894POPC   GL2 7562  27.443  23.688   8.855
 5894POPC   C1A 7563  27.592  23.707   8.555
 5894POPC   D2A 7564  27.643  23.707   8.255
 5894POPC   C3A 7565  27.628  23.730   7.955
 5894POPC   C4A 7566  27.606  23.675   7.655
 5894POPC   C1B 7567  27.316  23.655   8.555
 5894POPC   C2B 7568  27.305  23.674   8.255
 5894POPC   C3B 7569  27.353  23.619   7.955
 5894POPC   C4B 7570  27.302  23.679   7.655
 5895POPC   NC3 7571   6.659  23.709   9.455
 5895POPC   PO4 7572   6.675  23.731   9.155
 5895POPC   GL1 7573   6.634  23.673   8.855
 5895POPC   GL2 7574   6.715  23.861   8.855
 5895POPC   C1A 7575   6.685  23.699   8.555
 5895POPC   D2A 7576   6.661  23.714   8.255
 5895POPC   C3A 7577   6.674  23.713   7.955
 5895POPC   C4A 7578   6.634  23.758   7.655
 5895POPC   C1B 7579   6.710  23.996   8.555
 5895POPC   C2B 7580   6.677  23.956   8.255
 5895POPC   C3B 7581   6.676  23.934   7.955
 5895POPC   C4B 7582   6.773  23.965   7.655
 5896POPC   NC3 7583   6.619   4.354   9.455
 5896POPC   PO4 7584   6.676   4.304   9.155
 5896POPC   GL1 7585   6.640   4.298   8.855
 5896POPC   GL2 7586   6.683   4.452   8.855
 5896POPC   C1A 7587   6.649   4.281   8.555
 5896POPC   D2A 7588   6.597   4.313   8.255
 5896POPC   C3A 7589   6.694   4.313   7.955
 5896POPC   C4A 7590   6.622   4.305   7.655
 5896POPC   C1B 7591   6.755   4.502   8.555
 5896POPC   C2B 7592   6.818   4.511   8.255
 5896POPC   C3B 7593   6.747   4.522   7.955
 5896POPC   C4B 7594   6.796   4.539   7.655
 5897POPC   NC3 7595  28.408  39.260   9.455
 5897POPC   PO4 7596  28.383  39.225   9.155
 5897POPC   GL1 7597  28.412  39.184   8.855
 5897POPC   GL2 7598  28.496  39.285   8.855
 5897POPC   C1A 7599  28.361  39.187   8.555
 5897POPC   D2A 7600  28.364  39.246   8.255
 5897POPC   C3A 7601  28.407  39.276   7.955
 5897POPC   C4A 7602  28.361  39.231   7.655
 5897POPC   C1B 7603  28.595  39.264   8.555
 5897POPC   C2B 7604  28.661  39.289   8.255
 5897POPC   C3B 7605  28.634  39.253   7.955
 5897POPC   C4B 7606  28.568  39.277   7.655
 5898POPC   NC3 7607  36.116  10.491   9.455
 5898POPC   PO4 7608  36.169  10.487   9.155
 5898POPC   GL1 7609  36.162  10.574   8.855
 5898POPC   GL2 7610  36.014  10.499   8.855
 5898POPC   C1A 7611  36.120  10.477   8.555
 5898POPC   D2A 7612  36.175  10.518   8.255
 5898POPC   C3A 7613  36.140  10.533   7.955
 5898POPC   C4A 7614  36.164  10.542   7.655
 5898POPC   C1B 7615  35.886  10.391   8.555
 5898POPC   C2B 7616  35.943  10.406   8.255
 5898POPC   C3B 7617  35.871  10.378   7.955
 5898POPC   C4B 7618  35.880  10.443   7.655
 5899POPC   NC3 7619  23.734  42.350   9.455
 5899POPC   PO4 7620  23.752  42.287   9.155
 5899POPC   GL1 7621  23.736  42.319   8.855
 5899POPC   GL2 7622  23.610  42.344   8.855
 5899POPC   C1A 7623  23.759  42.333   8.555
 5899POPC   D2A 7624  23.709  42.321   8.255
 5899POPC   C3A 7625  23.671  42.292   7.955
 5899POPC   C4A 7626  23.708  42.330   7.655
 5899POPC   C1B 7627  23.503  42.288   8.555
 5899POPC   C2B 7628  23.505  42.292   8.255
 5899POPC   C3B 7629  23.481  42.345   7.955
 5899POPC   C4B 7630  23.425  42.281   7.655
 5900POPC   NC3 7631  36.126  35.365   9.455
 5900POPC   PO4 7632  36.152  35.364   9.155
 5900POPC   GL1 7633  36.078  35.316   8.855
 5900POPC   GL2 7634  36.186  35.276   8.855
 5900POPC   C1A 7635  36.132  35.340   8.555
 5900POPC   D2A 7636  36.103  35.324   8.255
 5900POPC   C3A 7637  36.136  35.321   7.955
 5900POPC   C4A 7638  36.138  35.303   7.655
 5900POPC   C1B 7639  36.131  35.111   8.555
 5900POPC   C2B 7640  36.199  35.108   8.255
 5900POPC   C3B 7641  36.178  35.152   7.955
 5900POPC   C4B 7642  36.167  35.058   7.655
 5901POPC   NC3 7643   8.217  44.627   9.455
 5901POPC   PO4 7644   8.219  44.691   9.155
 5901POPC   GL1 7645   8.203  44.687   8.855
 5901POPC   GL2 7646   8.081  44.622   8.855
 5901POPC   C1A 7647   8.191  44.631   8.555
 5901POPC   D2A 7648   8.181  44.639   8.255
 5901POPC   C3A 7649   8.162  44.670   7.955
 5901POPC   C4A 7650   8.190  44.639   7.655
 5901POPC   C1B 7651   7.937  44.668   8.555
 5901POPC   C2B 7652   7.995  44.694   8.255
 5901POPC   C3B 7653   7.915  44.724   7.955
 5901POPC   C4B 7654   7.959  44.653   7.655
 5902POPC   NC3 7655   4.286  14.378   9.455
 5902POPC   PO4 7656   4.332  14.452   9.155
 5902POPC   GL1 7657   4.286  14.429   8.855
 5902POPC   GL2 7658   4.271  14.265   8.855
 5902POPC   C1A 7659   4.276  14.354   8.555
 5902POPC   D2A 7660   4.313  14.419   8.255
 5902POPC   C3A 7661   4.294  14.410   7.955
 5902POPC   C4A 7662   4.332  14.443   7.655
 5902POPC   C1B 7663   4.195  14.246   8.555
 5902POPC   C2B 7664   4.157  14.185   8.255
 5902POPC   C3B 7665   4.151  14.153   7.955
 5902POPC   C4B 7666   4.216  14.230   7.655
 5903POPC   NC3 7667   3.497  37.667   9.455
 5903POPC   PO4 7668   3.565  37.654   9.155
 5903POPC   GL1 7669   3.538  37.725   8.855
 5903POPC   GL2 7670   3.425  37.613   8.855
 5903POPC   C1A 7671   3.533  37.637   8.555
 5903POPC   D2A 7672   3.535  37.634   8.255
 5903POPC   C3A 7673   3.560  37.633   7.955
 5903POPC   C4A 7674   3.505  37.683   7.655
 5903POPC   C1B 7675   3.404  37.471   8.555
 5903POPC   C2B 7676   3.423  37.452   8.255
 5903POPC   C3B 7677   3.407  37.515   7.955
 5903POPC   C4B 7678   3.370  37.476   7.655
 5904POPC   NC3 7679  38.482  36.905   9.455
 5904POPC   PO4 7680  38.472  36.875   9.155
 5904POPC   GL1 7681  38.435  36.906   8.855
 5904POPC   GL2 7682  38.379  37.056   8.855
 5904POPC   C1A 7683  38.478  36.889   8.555
 5904POPC   D2A 7684  38.480  36.896   8.255
 5904POPC   C3A 7685  38.407  36.859   7.955
 5904POPC   C4A 7686  38.460  36.860   7.655
 5904POPC   C1B 7687  38.418  37.185   8.555
 5904POPC   C2B 7688  38.358  37.139   8.255
 5904POPC   C3B 7689  38.422  37.130   7.955
 5904POPC   C4B 7690  38.440  37.136   7.655
 5905POPC   NC3 7691  40.004  26.025   9.455
 5905POPC   PO4 7692  39.981  26.074   9.155
 5905POPC   GL1 7693  39.998  26.016   8.855
 5905POPC   GL2 7694  39.849  26.009   8.855
 5905POPC   C1A 7695  40.011  26.010   8.555
 5905POPC   D2A 7696  39.999  26.032   8.255
 5905POPC   C3A 7697  39.974  26.022   7.955
 5905POPC   C4A 7698  39.960  26.028   7.655
 5905POPC   C1B 7699  39.713  26.076   8.555
 5905POPC   C2B 7700  39.708  26.024   8.255
 5905POPC   C3B 7701  39.785  26.010   7.955
 5905POPC   C4B 7702  39.754  26.085   7.655
 5906POPC   NC3 7703   5.846  13.637   9.455
 5906POPC   PO4 7704   5.889  13.632   9.155
 5906POPC   GL1 7705   5.896  13.599   8.855
 5906POPC   GL2 7706   5.835  13.471   8.855
 5906POPC   C1A 7707   5.882  13.676   8.555
 5906POPC   D2A 7708   5.871  13.616   8.255
 5906POPC   C3A 7709   5.890  13.588   7.955
 5906POPC   C4A 7710   5.858  13.659   7.655
 5906POPC   C1B 7711   5.842  13.416   8.555
 5906POPC   C2B 7712   5.834  13.418   8.255
 5906POPC   C3B 7713   5.837  13.402   7.955
 5906POPC   C4B 7714   5.796  13.347   7.655
 5907POPC   NC3 7715  33.043  30.725   9.455
 5907POPC   PO4 7716  33.046  30.743   9.155
 5907POPC   GL1 7717  32.995  30.655   8.855
 5907POPC   GL2 7718  32.928  30.720   8.855
 5907POPC   C1A 7719  33.055  30.742   8.555
 5907POPC   D2A 7720  33.036  30.655   8.255
 5907POPC   C3A 7721  33.042  30.676   7.955
 5907POPC   C4A 7722  32.983  30.681   7.655
 5907POPC   C1B 7723  32.786  30.647   8.555
 5907POPC   C2B 7724  32.778  30.646   8.255
 5907POPC   C3B 7725  32.824  30.649   7.955
 5907POPC   C4B 7726  32.781  30.622   7.655
 5908POPC   NC3 7727  37.710  15.993   9.455
 5908POPC   PO4 7728  37.690  15.939   9.155
 5908POPC   GL1 7729  37.704  15.927   8.855
 5908POPC   GL2 7730  37.810  15.945   8.855
 5908POPC   C1A 7731  37.645  15.976   8.555
 5908POPC   D2A 7732  37.645  15.950   8.255
 5908POPC   C3A 7733  37.716  15.968   7.955
 5908POPC   C4A 7734  37.640  15.976   7.655
 5908POPC   C1B 7735  37.907  16.044   8.555
 5908POPC   C2B 7736  37.917  15.983   8.255
 5908POPC   C3B 7737  37.957  16.008   7.955
 5908POPC   C4B 7738  37.915  16.011   7.655
 5909POPC   NC3 7739  20.575   6.617   9.455
 5909POPC   PO4 7740  20.645   6.618   9.155
 5909POPC   GL1 7741  20.630   6.683   8.855
 5909POPC   GL2 7742  20.661   6.761   8.855
 5909POPC   C1A 7743  20.581   6.694   8.555
 5909POPC   D2A 7744  20.601   6.623   8.255
 5909POPC   C3A 7745  20.584   6.670   7.955
 5909POPC   C4A 7746  20.626   6.655   7.655
 5909POPC   C1B 7747  20.657   6.876   8.555
 5909POPC   C2B 7748  20.578   6.884   8.255
 5909POPC   C3B 7749  20.660   6.912   7.955
 5909POPC   C4B 7750  20.616   6.854   7.655
 5910POPC   NC3 7751  32.243   2.009   9.455
 5910POPC   PO4 7752  32.260   2.004   9.155
 5910POPC   GL1 7753  32.259   2.028   8.855
 5910POPC   GL2 7754  32.324   1.927   8.855
 5910POPC   C1A 7755  32.241   2.007   8.555
 5910POPC   D2A 7756  32.241   2.037   8.255
 5910POPC   C3A 7757  32.293   1.979   7.955
 5910POPC   C4A 7758  32.295   2.019   7.655
 5910POPC   C1B 7759  32.389   1.851   8.555
 5910POPC   C2B 7760  32.408   1.806   8.255
 5910POPC   C3B 7761  32.402   1.867   7.955
 5910POPC   C4B 7762  32.443   1.860   7.655
 5911POPC   NC3 7763  12.823  43.150   9.455
 5911POPC   PO4 7764  12.837  43.095   9.155
 5911POPC   GL1 7765  12.877  43.084   8.855
 5911POPC   GL2 7766  12.882  43.009   8.855
 5911POPC   C1A 7767  12.870  43.061   8.555
 5911POPC   D2A 7768  12.807  43.089   8.255
 5911POPC   C3A 7769  12.809  43.117   7.955
 5911POPC   C4A 7770  12.860  43.094   7.655
 5911POPC   C1B 7771  12.942  42.839   8.555
 5911POPC   C2B 7772  12.956  42.831   8.255
 5911POPC   C3B 7773  12.920  42.844   7.955
 5911POPC   C4B 7774  12.926  42.894   7.655
 5912POPC   NC3 7775  18.305   6.599   9.455
 5912POPC   PO4 7776  18.240   6.626   9.155
 5912POPC   GL1 7777  18.301   6.627   8.855
 5912POPC   GL2 7778  18.258   6.504   8.855
 5912POPC   C1A 7779  18.265   6.626   8.555
 5912POPC   D2A 7780  18.291   6.693   8.255
 5912POPC   C3A 7781  18.308   6.646   7.955
 5912POPC   C4A 7782  18.236   6.669   7.655
 5912POPC   C1B 7783  18.166   6.442   8.555
 5912POPC   C2B 7784  18.124   6.431   8.255
 5912POPC   C3B 7785  18.155   6.434   7.955
 5912POPC   C4B 7786  18.155   6.401   7.655
 5913POPC   NC3 7787  19.881  13.582   9.455
 5913POPC   PO4 7788  19.854  13.647   9.155
 5913POPC   GL1 7789  19.875  13.620   8.855
 5913POPC   GL2 7790  19.927  13.546   8.855
 5913POPC   C1A 7791  19.850  13.654   8.555
 5913POPC   D2A 7792  19.878  13.580   8.255
 5913POPC   C3A 7793  19.788  13.671   7.955
 5913POPC   C4A 7794  19.850  13.630   7.655
 5913POPC   C1B 7795  19.896  13.424   8.555
 5913POPC   C2B 7796  19.986  13.449   8.255
 5913POPC   C3B 7797  19.965  13.401   7.955
 5913POPC   C4B 7798  19.964  13.428   7.655
 5914POPC   NC3 7799   1.972   6.601   9.455
 5914POPC   PO4 7800   1.991   6.599   9.155
 5914POPC   GL1 7801   2.038   6.605   8.855
 5914POPC   GL2 7802   2.023   6.521   8.855
 5914POPC   C1A 7803   1.967   6.604   8.555
 5914POPC   D2A 7804   1.982   6.643   8.255
 5914POPC   C3A 7805   2.022   6.684   7.955
 5914POPC   C4A 7806   1.968   6.602   7.655
 5914POPC   C1B 7807   1.983   6.410   8.555
 5914POPC   C2B 7808   1.969   6.366   8.255
 5914POPC   C3B 7809   1.940   6.444   7.955
 5914POPC   C4B 7810   2.004   6.440   7.655
 5915POPC   NC3 7811  33.840  33.062   9.455
 5915POPC   PO4 7812  33.822  33.037   9.155
 5915POPC   GL1 7813  33.783  33.074   8.855
 5915POPC   GL2 7814  33.916  33.030   8.855
 5915POPC   C1A 7815  33.787  33.055   8.555
 5915POPC   D2A 7816  33.848  33.051   8.255
 5915POPC   C3A 7817  33.750  33.011   7.955
 5915POPC   C4A 7818  33.836  33.009   7.655
 5915POPC   C1B 7819  34.035  32.915   8.555
 5915POPC   C2B 7820  33.987  32.913   8.255
 5915POPC   C3B 7821  34.038  32.909   7.955
 5915POPC   C4B 7822  34.005  32.937   7.655
 5916POPC   NC3 7823  32.985  37.725   9.455
 5916POPC   PO4 7824  33.050  37.681   9.155
 5916POPC   GL1 7825  33.009  37.667   8.855
 5916POPC   GL2 7826  32.933  37.577   8.855
 5916POPC   C1A 7827  33.015  37.713   8.555
 5916POPC   D2A 7828  33.027  37.668   8.255
 5916POPC   C3A 7829  33.053  37.715   7.955
 5916POPC   C4A 7830  33.010  37.670   7.655
 5916POPC   C1B 7831  32.897  37.505   8.555
 5916POPC   C2B 7832  32.888  37.450   8.255
 5916POPC   C3B 7833  32.818  37.510   7.955
 5916POPC   C4B 7834  32.823  37.471   7.655
 5917POPC   NC3 7835  40.042   1.262   9.455
 5917POPC   PO4 7836  40.008   1.260   9.155
 5917POPC   GL1 7837  40.037   1.181   8.855
 5917POPC   GL2 7838  40.040   1.098   8.855
 5917POPC   C1A 7839  39.996   1.169   8.555
 5917POPC   D2A 7840  40.014   1.213   8.255
 5917POPC   C3A 7841  40.040   1.233   7.955
 5917POPC   C4A 7842  40.054   1.217   7.655
 5917POPC   C1B 7843  40.087   0.989   8.555
 5917POPC   C2B 7844  40.084   0.952   8.255
 5917POPC   C3B 7845  40.105   0.951   7.955
 5917POPC   C4B 7846  40.055   1.019   7.655
 5918POPC   NC3 7847  16.724   1.258   9.455
 5918POPC   PO4 7848  16.708   1.204   9.155
 5918POPC   GL1 7849  16.755   1.255   8.855
 5918POPC   GL2 7850  16.610   1.256   8.855
 5918POPC   C1A 7851  16.744   1.195   8.555
 5918POPC   D2A 7852  16.707   1.201   8.255
 5918POPC   C3A 7853  16.716   1.253   7.955
 5918POPC   C4A 7854  16.697   1.233   7.655
 5918POPC   C1B 7855  16.560   1.394   8.555
 5918POPC   C2B 7856  16.560   1.365   8.255
 5918POPC   C3B 7857  16.515   1.355   7.955
 5918POPC   C4B 7858  16.588   1.384   7.655
 5919POPC   NC3 7859   9.014   2.809   9.455
 5919POPC   PO4 7860   9.007   2.773   9.155
 5919POPC   GL1 7861   9.011   2.782   8.855
 5919POPC   GL2 7862   9.062   2.652   8.855
 5919POPC   C1A 7863   8.964   2.794   8.555
 5919POPC   D2A 7864   8.926   2.775   8.255
 5919POPC   C3A 7865   8.944   2.790   7.955
 5919POPC   C4A 7866   8.947   2.796   7.655
 5919POPC   C1B 7867   9.189   2.611   8.555
 5919POPC   C2B 7868   9.166   2.597   8.255
 5919POPC   C3B 7869   9.172   2.625   7.955
 5919POPC   C4B 7870   9.129   2.654   7.655
 5920POPC   NC3 7871   5.129   6.616   9.455
 5920POPC   PO4 7872   5.111   6.678   9.155
 5920POPC   GL1 7873   5.135   6.627   8.855
 5920POPC   GL2 7874   5.026   6.488   8.855
 5920POPC   C1A 7875   5.115   6.666   8.555
 5920POPC   D2A 7876   5.109   6.647   8.255
 5920POPC   C3A 7877   5.132   6.678   7.955
 5920POPC   C4A 7878   5.093   6.674   7.655
 5920POPC   C1B 7879   5.038   6.358   8.555
 5920POPC   C2B 7880   5.001   6.391   8.255
 5920POPC   C3B 7881   5.063   6.359   7.955
 5920POPC   C4B 7882   5.009   6.382   7.655
 5921POPC   NC3 7883  29.171  35.319   9.455
 5921POPC   PO4 7884  29.148  35.375   9.155
 5921POPC   GL1 7885  29.155  35.382   8.855
 5921POPC   GL2 7886  28.999  35.377   8.855
 5921POPC   C1A 7887  29.170  35.306   8.555
 5921POPC   D2A 7888  29.193  35.354   8.255
 5921POPC   C3A 7889  29.099  35.316   7.955
 5921POPC   C4A 7890  29.122  35.338   7.655
 5921POPC   C1B 7891  28.886  35.329   8.555
 5921POPC   C2B 7892  28.858  35.333   8.255
 5921POPC   C3B 7893  28.917  35.355   7.955
 5921POPC   C4B 7894  28.874  35.424   7.655
 5922POPC   NC3 7895  12.075  36.098   9.455
 5922POPC   PO4 7896  12.062  36.138   9.155
 5922POPC   GL1 7897  12.099  36.172   8.855
 5922POPC   GL2 7898  12.177  36.159   8.855
 5922POPC   C1A 7899  12.118  36.141   8.555
 5922POPC   D2A 7900  12.079  36.078   8.255
 5922POPC   C3A 7901  12.061  36.152   7.955
 5922POPC   C4A 7902  12.037  36.123   7.655
 5922POPC   C1B 7903  12.342  36.099   8.555
 5922POPC   C2B 7904  12.332  36.101   8.255
 5922POPC   C3B 7905  12.310  36.060   7.955
 5922POPC   C4B 7906  12.368  36.067   7.655
 5923POPC   NC3 7907  11.347  43.895   9.455
 5923POPC   PO4 7908  11.345  43.916   9.155
 5923POPC   GL1 7909  11.274  43.908   8.855
 5923POPC   GL2 7910  11.160  43.921   8.855
 5923POPC   C1A 7911  11.260  43.876   8.555
 5923POPC   D2A 7912  11.273  43.840   8.255
 5923POPC   C3A 7913  11.313  43.905   7.955
 5923POPC   C4A 7914  11.305  43.871   7.655
 5923POPC   C1B 7915  11.083  43.999   8.555
 5923POPC   C2B 7916  11.013  43.960   8.255
 5923POPC   C3B 7917  11.083  43.979   7.955
 5923POPC   C4B 7918  11.088  43.926   7.655
 5924POPC   NC3 7919  33.069  31.518   9.455
 5924POPC   PO4 7920  33.049  31.492   9.155
 5924POPC   GL1 7921  32.988  31.424   8.855
 5924POPC   GL2 7922  33.110  31.460   8.855
 5924POPC   C1A 7923  33.025  31.512   8.555
 5924POPC   D2A 7924  33.008  31.499   8.255
 5924POPC   C3A 7925  33.029  31.517   7.955
 5924POPC   C4A 7926  33.028  31.453   7.655
 5924POPC   C1B 7927  33.283  31.523   8.555
 5924POPC   C2B 7928  33.261  31.491   8.255
 5924POPC   C3B 7929  33.240  31.497   7.955
 5924POPC   C4B 7930  33.288  31.540   7.655
 5925POPC   NC3 7931  25.281   1.165   9.455
 5925POPC   PO4 7932  25.244   1.240   9.155
 5925POPC   GL1 7933  25.265   1.255   8.855
 5925POPC   GL2 7934  25.343   1.248   8.855
 5925POPC   C1A 7935  25.305   1.177   8.555
 5925POPC   D2A 7936  25.250   1.246   8.255
 5925POPC   C3A 7937  25.282   1.220   7.955
 5925POPC   C4A 7938  25.220   1.170   7.655
 5925POPC   C1B 7939  25.524   1.283   8.555
 5925POPC   C2B 7940  25.534   1.268   8.255
 5925POPC   C3B 7941  25.553   1.286   7.955
 5925POPC   C4B 7942  25.525   1.216   7.655
 5926POPC   NC3 7943  15.194  22.902   9.455
 5926POPC   PO4 7944  15.200  22.980   9.155
 5926POPC   GL1 7945  15.181  22.963   8.855
 5926POPC   GL2 7946  15.158  23.088   8.855
 5926POPC   C1A 7947  15.142  22.908   8.555
 5926POPC   D2A 7948  15.131  22.952   8.255
 5926POPC   C3A 7949  15.158  22.938   7.955
 5926POPC   C4A 7950  15.161  22.967   7.655
 5926POPC   C1B 7951  15.027  23.161   8.555
 5926POPC   C2B 7952  15.069  23.189   8.255
 5926POPC   C3B 7953  15.065  23.117   7.955
 5926POPC   C4B 7954  15.006  23.145   7.655
 5927POPC   NC3 7955  36.087  20.607   9.455
 5927POPC   PO4 7956  36.160  20.611   9.155
 5927POPC   GL1 7957  36.125  20.578   8.855
 5927POPC   GL2 7958  36.036  20.452   8.855
 5927POPC   C1A 7959  36.093  20.600   8.555
 5927POPC   D2A 7960  36.166  20.615   8.255
 5927POPC   C3A 7961  36.093  20.618   7.955
 5927POPC   C4A 7962  36.137  20.587   7.655
 5927POPC   C1B 7963  36.046  20.381   8.555
 5927POPC   C2B 7964  36.067  20.398   8.255
 5927POPC   C3B 7965  36.084  20.347   7.955
 5927POPC   C4B 7966  36.052  20.354   7.655
 5928POPC   NC3 7967  37.704  15.196   9.455
 5928POPC   PO4 7968  37.647  15.135   9.155
 5928POPC   GL1 7969  37.695  15.130   8.855
 5928POPC   GL2 7970  37.724  15.057   8.855
 5928POPC   C1A 7971  37.677  15.145   8.555
 5928POPC   D2A 7972  37.657  15.224   8.255
 5928POPC   C3A 7973  37.705  15.185   7.955
 5928POPC   C4A 7974  37.659  15.202   7.655
 5928POPC   C1B 7975  37.889  15.013   8.555
 5928POPC   C2B 7976  37.878  14.975   8.255
 5928POPC   C3B 7977  37.801  15.002   7.955
 5928POPC   C4B 7978  37.865  15.044   7.655
 5929POPC   NC3 7979   3.514  22.123   9.455
 5929POPC   PO4 7980   3.561  22.158   9.155
 5929POPC   GL1 7981   3.564  22.144   8.855
 5929POPC   GL2 7982   3.516  22.258   8.855
 5929POPC   C1A 7983   3.494  22.206   8.555
 5929POPC   D2A 7984   3.500  22.127   8.255
 5929POPC   C3A 7985   3.585  22.162   7.955
 5929POPC   C4A 7986   3.538  22.179   7.655
 5929POPC   C1B 7987   3.612  22.395   8.555
 5929POPC   C2B 7988   3.541  22.444   8.255
 5929POPC   C3B 7989   3.558  22.417   7.955
 5929POPC   C4B 7990   3.519  22.367   7.655
 5930POPC   NC3 7991  19.009  33.801   9.455
 5930POPC   PO4 7992  19.019  33.787   9.155
 5930POPC   GL1 7993  19.055  33.799   8.855
 5930POPC   GL2 7994  19.107  33.683   8.855
 5930POPC   C1A 7995  19.105  33.816   8.555
 5930POPC   D2A 7996  19.023  33.795   8.255
 5930POPC   C3A 7997  19.075  33.787   7.955
 5930POPC   C4A 7998  19.101  33.841   7.655
 5930POPC   C1B 7999  19.228  33.614   8.555
 5930POPC   C2B 8000  19.157  33.560   8.255
 5930POPC   C3B 8001  19.157  33.631   7.955
 5930POPC   C4B 8002  19.200  33.559   7.655
 5931POPC   NC3 8003  36.167  42.340   9.455
 5931POPC   PO4 8004  36.138  42.333   9.155
 5931POPC   GL1 8005  36.106  42.369   8.855
 5931POPC   GL2 8006  36.109  42.219   8.855
 5931POPC   C1A 8007  36.104  42.363   8.555
 5931POPC   D2A 8008  36.161  42.354   8.255
 5931POPC   C3A 8009  36.142  42.357   7.955
 5931POPC   C4A 8010  36.087  42.329   7.655
 5931POPC   C1B 8011  36.165  42.066   8.555
 5931POPC   C2B 8012  36.118  42.107   8.255
 5931POPC   C3B 8013  36.134  42.125   7.955
 5931POPC   C4B 8014  36.105  42.056   7.655
 5932POPC   NC3 8015  12.123  20.648   9.455
 5932POPC   PO4 8016  12.037  20.568   9.155
 5932POPC   GL1 8017  12.077  20.595   8.855
 5932POPC   GL2 8018  11.909  20.608   8.855
 5932POPC   C1A 8019  12.051  20.574   8.555
 5932POPC   D2A 8020  12.085  20.580   8.255
 5932POPC   C3A 8021  12.119  20.643   7.955
 5932POPC   C4A 8022  12.060  20.564   7.655
 5932POPC   C1B 8023  11.857  20.600   8.555
 5932POPC   C2B 8024  11.864  20.662   8.255
 5932POPC   C3B 8025  11.845  20.652   7.955
 5932POPC   C4B 8026  11.825  20.666   7.655
 5933POPC   NC3 8027  31.427  33.752   9.455
 5933POPC   PO4 8028  31.479  33.778   9.155
 5933POPC   GL1 8029  31.440  33.826   8.855
 5933POPC   GL2 8030  31.404  33.868   8.855
 5933POPC   C1A 8031  31.518  33.784   8.555
 5933POPC   D2A 8032  31.494  33.843   8.255
 5933POPC   C3A 8033  31.484  33.786   7.955
 5933POPC   C4A 8034  31.448  33.803   7.655
 5933POPC   C1B 8035  31.375  33.996   8.555
 5933POPC   C2B 8036  31.339  34.081   8.255
 5933POPC   C3B 8037  31.380  34.048   7.955
 5933POPC   C4B 8038  31.359  34.083   7.655
 5934POPC   NC3 8039   1.172  42.288   9.455
 5934POPC   PO4 8040   1.247  42.383   9.155
 5934POPC   GL1 8041   1.166  42.356   8.855
 5934POPC   GL2 8042   1.085  42.347   8.855
 5934POPC   C1A 8043   1.185  42.322   8.555
 5934POPC   D2A 8044   1.263  42.353   8.255
 5934POPC   C3A 8045   1.187  42.340   7.955
 5934POPC   C4A 8046   1.199  42.379   7.655
 5934POPC   C1B 8047   0.985  42.347   8.555
 5934POPC   C2B 8048   1.013  42.367   8.255
 5934POPC   C3B 8049   0.933  42.426   7.955
 5934POPC   C4B 8050   0.980  42.376   7.655
 5935POPC   NC3 8051  36.089  36.873   9.455
 5935POPC   PO4 8052  36.081  36.908   9.155
 5935POPC   GL1 8053  36.176  36.928   8.855
 5935POPC   GL2 8054  36.220  36.805   8.855
 5935POPC   C1A 8055  36.132  36.902   8.555
 5935POPC   D2A 8056  36.175  36.892   8.255
 5935POPC   C3A 8057  36.147  36.914   7.955
 5935POPC   C4A 8058  36.125  36.895   7.655
 5935POPC   C1B 8059  36.391  36.841   8.555
 5935POPC   C2B 8060  36.352  36.797   8.255
 5935POPC   C3B 8061  36.378  36.830   7.955
 5935POPC   C4B 8062  36.355  36.774   7.655
 5936POPC   NC3 8063  36.085  14.381   9.455
 5936POPC   PO4 8064  36.170  14.386   9.155
 5936POPC   GL1 8065  36.157  14.369   8.855
 5936POPC   GL2 8066  35.992  14.435   8.855
 5936POPC   C1A 8067  36.173  14.443   8.555
 5936POPC   D2A 8068  36.159  14.419   8.255
 5936POPC   C3A 8069  36.109  14.353   7.955
 5936POPC   C4A 8070  36.170  14.433   7.655
 5936POPC   C1B 8071  35.910  14.454   8.555
 5936POPC   C2B 8072  35.854  14.447   8.255
 5936POPC   C3B 8073  35.874  14.448   7.955
 5936POPC   C4B 8074  35.848  14.406   7.655
 5937POPC   NC3 8075  26.781  10.519   9.455
 5937POPC   PO4 8076  26.830  10.508   9.155
 5937POPC   GL1 8077  26.820  10.509   8.855
 5937POPC   GL2 8078  26.877  10.437   8.855
 5937POPC   C1A 8079  26.850  10.547   8.555
 5937POPC   D2A 8080  26.843  10.481   8.255
 5937POPC   C3A 8081  26.849  10.518   7.955
 5937POPC   C4A 8082  26.796  10.534   7.655
 5937POPC   C1B 8083  26.897  10.327   8.555
 5937POPC   C2B 8084  26.876  10.245   8.255
 5937POPC   C3B 8085  26.921  10.238   7.955
 5937POPC   C4B 8086  26.929  10.247   7.655
 5938POPC   NC3 8087  26.004  11.326   9.455
 5938POPC   PO4 8088  26.007  11.340   9.155
 5938POPC   GL1 8089  26.030  11.314   8.855
 5938POPC   GL2 8090  26.035  11.174   8.855
 5938POPC   C1A 8091  26.011  11.251   8.555
 5938POPC   D2A 8092  26.044  11.328   8.255
 5938POPC   C3A 8093  26.034  11.330   7.955
 5938POPC   C4A 8094  26.011  11.251   7.655
 5938POPC   C1B 8095  26.044  11.099   8.555
 5938POPC   C2B 8096  26.112  11.085   8.255
 5938POPC   C3B 8097  26.081  11.039   7.955
 5938POPC   C4B 8098  26.103  11.007   7.655
 5939POPC   NC3 8099   4.343  41.524   9.455
 5939POPC   PO4 8100   4.328  41.584   9.155
 5939POPC   GL1 8101   4.290  41.554   8.855
 5939POPC   GL2 8102   4.334  41.425   8.855
 5939POPC   C1A 8103   4.300  41.521   8.555
 5939POPC   D2A 8104   4.354  41.599   8.255
 5939POPC   C3A 8105   4.350  41.553   7.955
 5939POPC   C4A 8106   4.281  41.515   7.655
 5939POPC   C1B 8107   4.280  41.342   8.555
 5939POPC   C2B 8108   4.273  41.329   8.255
 5939POPC   C3B 8109   4.298  41.335   7.955
 5939POPC   C4B 8110   4.330  41.348   7.655
 5940POPC   NC3 8111  33.073  33.056   9.455
 5940POPC   PO4 8112  32.991  33.016   9.155
 5940POPC   GL1 8113  33.000  33.000   8.855
 5940POPC   GL2 8114  32.877  32.960   8.855
 5940POPC   C1A 8115  33.052  32.988   8.555
 5940POPC   D2A 8116  33.031  33.019   8.255
 5940POPC   C3A 8117  33.017  32.989   7.955
 5940POPC   C4A 8118  32.986  33.062   7.655
 5940POPC   C1B 8119  32.740  32.959   8.555
 5940POPC   C2B 8120  32.755  32.976   8.255
 5940POPC   C3B 8121  32.810  32.959   7.955
 5940POPC   C4B 8122  32.768  32.976   7.655
 5941POPC   NC3 8123  37.726  36.886   9.455
 5941POPC   PO4 8124  37.656  36.892   9.155
 5941POPC   GL1 8125  37.722  36.940   8.855
 5941POPC   GL2 8126  37.739  36.815   8.855
 5941POPC   C1A 8127  37.653  36.923   8.555
 5941POPC   D2A 8128  37.708  36.869   8.255
 5941POPC   C3A 8129  37.665  36.884   7.955
 5941POPC   C4A 8130  37.670  36.902   7.655
 5941POPC   C1B 8131  37.791  36.627   8.555
 5941POPC   C2B 8132  37.738  36.705   8.255
 5941POPC   C3B 8133  37.710  36.658   7.955
 5941POPC   C4B 8134  37.794  36.687   7.655
 5942POPC   NC3 8135  27.632  37.717   9.455
 5942POPC   PO4 8136  27.601  37.722   9.155
 5942POPC   GL1 8137  27.642  37.672   8.855
 5942POPC   GL2 8138  27.590  37.542   8.855
 5942POPC   C1A 8139  27.562  37.640   8.555
 5942POPC   D2A 8140  27.594  37.715   8.255
 5942POPC   C3A 8141  27.554  37.652   7.955
 5942POPC   C4A 8142  27.599  37.707   7.655
 5942POPC   C1B 8143  27.593  37.414   8.555
 5942POPC   C2B 8144  27.526  37.461   8.255
 5942POPC   C3B 8145  27.544  37.434   7.955
 5942POPC   C4B 8146  27.568  37.440   7.655
 5943POPC   NC3 8147  41.575  18.300   9.455
 5943POPC   PO4 8148  41.551  18.294   9.155
 5943POPC   GL1 8149  41.577  18.273   8.855
 5943POPC   GL2 8150  41.430  18.397   8.855
 5943POPC   C1A 8151  41.574  18.242   8.555
 5943POPC   D2A 8152  41.543  18.242   8.255
 5943POPC   C3A 8153  41.530  18.316   7.955
 5943POPC   C4A 8154  41.527  18.265   7.655
 5943POPC   C1B 8155  41.322  18.473   8.555
 5943POPC   C2B 8156  41.364  18.441   8.255
 5943POPC   C3B 8157  41.313  18.458   7.955
 5943POPC   C4B 8158  41.376  18.398   7.655
 5944POPC   NC3 8159  31.484   1.204   9.455
 5944POPC   PO4 8160  31.455   1.186   9.155
 5944POPC   GL1 8161  31.473   1.176   8.855
 5944POPC   GL2 8162  31.360   1.210   8.855
 5944POPC   C1A 8163  31.516   1.226   8.555
 5944POPC   D2A 8164  31.452   1.240   8.255
 5944POPC   C3A 8165  31.489   1.242   7.955
 5944POPC   C4A 8166  31.490   1.188   7.655
 5944POPC   C1B 8167  31.189   1.205   8.555
 5944POPC   C2B 8168  31.191   1.235   8.255
 5944POPC   C3B 8169  31.240   1.263   7.955
 5944POPC   C4B 8170  31.236   1.237   7.655
 5945POPC   NC3 8171  10.520  36.154   9.455
 5945POPC   PO4 8172  10.534  36.125   9.155
 5945POPC   GL1 8173  10.507  36.119   8.855
 5945POPC   GL2 8174  10.573  36.196   8.855
 5945POPC   C1A 8175  10.524  36.146   8.555
 5945POPC   D2A 8176  10.485  36.082   8.255
 5945POPC   C3A 8177  10.476  36.164   7.955
 5945POPC   C4A 8178  10.567  36.154   7.655
 5945POPC   C1B 8179  10.660  36.313   8.555
 5945POPC   C2B 8180  10.675  36.368   8.255
 5945POPC   C3B 8181  10.628  36.305   7.955
 5945POPC   C4B 8182  10.635  36.340   7.655
 5946POPC   NC3 8183  34.608  34.609   9.455
 5946POPC   PO4 8184  34.575  34.555   9.155
 5946POPC   GL1 8185  34.543  34.620   8.855
 5946POPC   GL2 8186  34.590  34.475   8.855
 5946POPC   C1A 8187  34.589  34.616   8.555
 5946POPC   D2A 8188  34.570  34.569   8.255
 5946POPC   C3A 8189  34.549  34.551   7.955
 5946POPC   C4A 8190  34.574  34.621   7.655
 5946POPC   C1B 8191  34.660  34.349   8.555
 5946POPC   C2B 8192  34.607  34.373   8.255
 5946POPC   C3B 8193  34.695  34.339   7.955
 5946POPC   C4B 8194  34.697  34.339   7.655
 5947POPC   NC3 8195  10.546  34.533   9.455
 5947POPC   PO4 8196  10.475  34.598   9.155
 5947POPC   GL1 8197  10.521  34.530   8.855
 5947POPC   GL2 8198  10.462  34.491   8.855
 5947POPC   C1A 8199  10.498  34.570   8.555
 5947POPC   D2A 8200  10.551  34.550   8.255
 5947POPC   C3A 8201  10.511  34.567   7.955
 5947POPC   C4A 8202  10.487  34.563   7.655
 5947POPC   C1B 8203  10.501  34.318   8.555
 5947POPC   C2B 8204  10.483  34.351   8.255
 5947POPC   C3B 8205  10.504  34.284   7.955
 5947POPC   C4B 8206  10.497  34.331   7.655
 5948POPC   NC3 8207   9.790  13.609   9.455
 5948POPC   PO4 8208   9.750  13.595   9.155
 5948POPC   GL1 8209   9.723  13.591   8.855
 5948POPC   GL2 8210   9.755  13.544   8.855
 5948POPC   C1A 8211   9.795  13.601   8.555
 5948POPC   D2A 8212   9.773  13.643   8.255
 5948POPC   C3A 8213   9.724  13.625   7.955
 5948POPC   C4A 8214   9.708  13.655   7.655
 5948POPC   C1B 8215   9.731  13.385   8.555
 5948POPC   C2B 8216   9.725  13.393   8.255
 5948POPC   C3B 8217   9.712  13.379   7.955
 5948POPC   C4B 8218   9.732  13.397   7.655
 5949POPC   NC3 8219  38.492   8.206   9.455
 5949POPC   PO4 8220  38.444   8.220   9.155
 5949POPC   GL1 8221  38.462   8.193   8.855
 5949POPC   GL2 8222  38.312   8.211   8.855
 5949POPC   C1A 8223  38.419   8.189   8.555
 5949POPC   D2A 8224  38.492   8.220   8.255
 5949POPC   C3A 8225  38.477   8.217   7.955
 5949POPC   C4A 8226  38.486   8.168   7.655
 5949POPC   C1B 8227  38.156   8.177   8.555
 5949POPC   C2B 8228  38.190   8.159   8.255
 5949POPC   C3B 8229  38.225   8.138   7.955
 5949POPC   C4B 8230  38.225   8.216   7.655
 5950POPC   NC3 8231  34.594  38.469   9.455
 5950POPC   PO4 8232  34.617  38.482   9.155
 5950POPC   GL1 8233  34.580  38.412   8.855
 5950POPC   GL2 8234  34.721  38.465   8.855
 5950POPC   C1A 8235  34.621  38.438   8.555
 5950POPC   D2A 8236  34.624  38.432   8.255
 5950POPC   C3A 8237  34.606  38.476   7.955
 5950POPC   C4A 8238  34.545  38.447   7.655
 5950POPC   C1B 8239  34.846  38.554   8.555
 5950POPC   C2B 8240  34.852  38.521   8.255
 5950POPC   C3B 8241  34.831  38.470   7.955
 5950POPC   C4B 8242  34.782  38.508   7.655
 5951POPC   NC3 8243  16.682  15.146   9.455
 5951POPC   PO4 8244  16.717  15.225   9.155
 5951POPC   GL1 8245  16.689  15.174   8.855
 5951POPC   GL2 8246  16.812  15.040   8.855
 5951POPC   C1A 8247  16.693  15.208   8.555
 5951POPC   D2A 8248  16.725  15.185   8.255
 5951POPC   C3A 8249  16.739  15.219   7.955
 5951POPC   C4A 8250  16.740  15.132   7.655
 5951POPC   C1B 8251  16.780  14.967   8.555
 5951POPC   C2B 8252  16.812  14.984   8.255
 5951POPC   C3B 8253  16.816  14.982   7.955
 5951POPC   C4B 8254  16.787  14.978   7.655
 5952POPC   NC3 8255  37.665  12.079   9.455
 5952POPC   PO4 8256  37.683  12.120   9.155
 5952POPC   GL1 8257  37.654  12.108   8.855
 5952POPC   GL2 8258  37.558  12.210   8.855
 5952POPC   C1A 8259  37.664  12.027   8.555
 5952POPC   D2A 8260  37.696  12.124   8.255
 5952POPC   C3A 8261  37.652  12.073   7.955
 5952POPC   C4A 8262  37.727  12.125   7.655
 5952POPC   C1B 8263  37.532  12.235   8.555
 5952POPC   C2B 8264  37.503  12.268   8.255
 5952POPC   C3B 8265  37.490  12.224   7.955
 5952POPC   C4B 8266  37.531  12.306   7.655
 5953POPC   NC3 8267  26.843   8.243   9.455
 5953POPC   PO4 8268  26.783   8.181   9.155
 5953POPC   GL1 8269  26.801   8.209   8.855
 5953POPC   GL2 8270  26.663   8.096   8.855
 5953POPC   C1A 8271  26.803   8.161   8.555
 5953POPC   D2A 8272  26.811   8.242   8.255
 5953POPC   C3A 8273  26.823   8.210   7.955
 5953POPC   C4A 8274  26.844   8.225   7.655
 5953POPC   C1B 8275  26.588   8.112   8.555
 5953POPC   C2B 8276  26.616   8.108   8.255
 5953POPC   C3B 8277  26.639   8.078   7.955
 5953POPC   C4B 8278  26.621   8.095   7.655
 5954POPC   NC3 8279  33.824  43.137   9.455
 5954POPC   PO4 8280  33.757  43.100   9.155
 5954POPC   GL1 8281  33.780  43.132   8.855
 5954POPC   GL2 8282  33.732  43.017   8.855
 5954POPC   C1A 8283  33.807  43.158   8.555
 5954POPC   D2A 8284  33.777  43.136   8.255
 5954POPC   C3A 8285  33.845  43.134   7.955
 5954POPC   C4A 8286  33.819  43.143   7.655
 5954POPC   C1B 8287  33.686  42.877   8.555
 5954POPC   C2B 8288  33.774  42.837   8.255
 5954POPC   C3B 8289  33.747  42.831   7.955
 5954POPC   C4B 8290  33.733  42.901   7.655
 5955POPC   NC3 8291   1.231  33.850   9.455
 5955POPC   PO4 8292   1.171  33.810   9.155
 5955POPC   GL1 8293   1.251  33.788   8.855
 5955POPC   GL2 8294   1.190  33.922   8.855
 5955POPC   C1A 8295   1.247  33.778   8.555
 5955POPC   D2A 8296   1.170  33.757   8.255
 5955POPC   C3A 8297   1.197  33.767   7.955
 5955POPC   C4A 8298   1.195  33.785   7.655
 5955POPC   C1B 8299   1.125  34.072   8.555
 5955POPC   C2B 8300   1.193  34.055   8.255
 5955POPC   C3B 8301   1.178  34.079   7.955
 5955POPC   C4B 8302   1.179  34.036   7.655
 5956POPC   NC3 8303  36.141  26.024   9.455
 5956POPC   PO4 8304  36.092  26.064   9.155
 5956POPC   GL1 8305  36.132  26.072   8.855
 5956POPC   GL2 8306  36.268  26.104   8.855
 5956POPC   C1A 8307  36.160  26.006   8.555
 5956POPC   D2A 8308  36.168  26.070   8.255
 5956POPC   C3A 8309  36.151  26.029   7.955
 5956POPC   C4A 8310  36.091  25.993   7.655
 5956POPC   C1B 8311  36.309  26.149   8.555
 5956POPC   C2B 8312  36.346  26.146   8.255
 5956POPC   C3B 8313  36.341  26.144   7.955
 5956POPC   C4B 8314  36.367  26.137   7.655
 5957POPC   NC3 8315  18.327  10.522   9.455
 5957POPC   PO4 8316  18.236  10.532   9.155
 5957POPC   GL1 8317  18.246  10.481   8.855
 5957POPC   GL2 8318  18.332  10.623   8.855
 5957POPC   C1A 8319  18.328  10.561   8.555
 5957POPC   D2A 8320  18.282  10.572   8.255
 5957POPC   C3A 8321  18.292  10.515   7.955
 5957POPC   C4A 8322  18.235  10.521   7.655
 5957POPC   C1B 8323  18.413  10.700   8.555
 5957POPC   C2B 8324  18.384  10.739   8.255
 5957POPC   C3B 8325  18.355  10.708   7.955
 5957POPC   C4B 8326  18.429  10.789   7.655
 5958POPC   NC3 8327  33.050   9.714   9.455
 5958POPC   PO4 8328  33.006   9.755   9.155
 5958POPC   GL1 8329  33.041   9.729   8.855
 5958POPC   GL2 8330  32.997   9.838   8.855
 5958POPC   C1A 8331  33.069   9.722   8.555
 5958POPC   D2A 8332  33.048   9.781   8.255
 5958POPC   C3A 8333  32.992   9.740   7.955
 5958POPC   C4A 8334  32.984   9.727   7.655
 5958POPC   C1B 8335  32.905  10.018   8.555
 5958POPC   C2B 8336  32.952  10.023   8.255
 5958POPC   C3B 8337  32.911   9.978   7.955
 5958POPC   C4B 8338  32.960   9.956   7.655
 5959POPC   NC3 8339  33.065  18.285   9.455
 5959POPC   PO4 8340  33.024  18.253   9.155
 5959POPC   GL1 8341  33.059  18.300   8.855
 5959POPC   GL2 8342  32.989  18.397   8.855
 5959POPC   C1A 8343  32.986  18.276   8.555
 5959POPC   D2A 8344  32.993  18.322   8.255
 5959POPC   C3A 8345  33.032  18.251   7.955
 5959POPC   C4A 8346  33.022  18.297   7.655
 5959POPC   C1B 8347  33.012  18.498   8.555
 5959POPC   C2B 8348  32.968  18.550   8.255
 5959POPC   C3B 8349  33.000  18.531   7.955
 5959POPC   C4B 8350  33.041  18.535   7.655
 5960POPC   NC3 8351  14.363   5.068   9.455
 5960POPC   PO4 8352  14.412   5.134   9.155
 5960POPC   GL1 8353  14.408   5.097   8.855
 5960POPC   GL2 8354  14.321   5.216   8.855
 5960POPC   C1A 8355  14.405   5.113   8.555
 5960POPC   D2A 8356  14.439   5.128   8.255
 5960POPC   C3A 8357  14.428   5.143   7.955
 5960POPC   C4A 8358  14.373   5.142   7.655
 5960POPC   C1B 8359  14.189   5.257   8.555
 5960POPC   C2B 8360  14.255   5.305   8.255
 5960POPC   C3B 8361  14.190   5.268   7.955
 5960POPC   C4B 8362  14.241   5.283   7.655
 5961POPC   NC3 8363   4.282  32.243   9.455
 5961POPC   PO4 8364   4.282  32.255   9.155
 5961POPC   GL1 8365   4.284  32.254   8.855
 5961POPC   GL2 8366   4.273  32.386   8.855
 5961POPC   C1A 8367   4.328  32.294   8.555
 5961POPC   D2A 8368   4.274  32.252   8.255
 5961POPC   C3A 8369   4.302  32.209   7.955
 5961POPC   C4A 8370   4.349  32.281   7.655
 5961POPC   C1B 8371   4.155  32.489   8.555
 5961POPC   C2B 8372   4.131  32.475   8.255
 5961POPC   C3B 8373   4.165  32.423   7.955
 5961POPC   C4B 8374   4.196  32.455   7.655
 5962POPC   NC3 8375   3.514  22.982   9.455
 5962POPC   PO4 8376   3.502  22.897   9.155
 5962POPC   GL1 8377   3.542  22.963   8.855
 5962POPC   GL2 8378   3.658  22.933   8.855
 5962POPC   C1A 8379   3.501  22.900   8.555
 5962POPC   D2A 8380   3.515  22.961   8.255
 5962POPC   C3A 8381   3.521  22.890   7.955
 5962POPC   C4A 8382   3.553  22.899   7.655
 5962POPC   C1B 8383   3.735  22.844   8.555
 5962POPC   C2B 8384   3.827  22.903   8.255
 5962POPC   C3B 8385   3.812  22.869   7.955
 5962POPC   C4B 8386   3.758  22.889   7.655
 5963POPC   NC3 8387  31.431  19.105   9.455
 5963POPC   PO4 8388  31.500  19.101   9.155
 5963POPC   GL1 8389  31.521  19.093   8.855
 5963POPC   GL2 8390  31.344  19.012   8.855
 5963POPC   C1A 8391  31.517  19.034   8.555
 5963POPC   D2A 8392  31.484  19.050   8.255
 5963POPC   C3A 8393  31.435  19.101   7.955
 5963POPC   C4A 8394  31.488  19.060   7.655
 5963POPC   C1B 8395  31.288  18.934   8.555
 5963POPC   C2B 8396  31.242  18.846   8.255
 5963POPC   C3B 8397  31.329  18.892   7.955
 5963POPC   C4B 8398  31.335  18.930   7.655
 5964POPC   NC3 8399  36.160   7.405   9.455
 5964POPC   PO4 8400  36.120   7.468   9.155
 5964POPC   GL1 8401  36.164   7.392   8.855
 5964POPC   GL2 8402  36.045   7.328   8.855
 5964POPC   C1A 8403  36.087   7.382   8.555
 5964POPC   D2A 8404  36.100   7.468   8.255
 5964POPC   C3A 8405  36.138   7.403   7.955
 5964POPC   C4A 8406  36.085   7.460   7.655
 5964POPC   C1B 8407  36.096   7.168   8.555
 5964POPC   C2B 8408  36.080   7.156   8.255
 5964POPC   C3B 8409  36.084   7.166   7.955
 5964POPC   C4B 8410  36.073   7.139   7.655
 5965POPC   NC3 8411   2.741  35.331   9.455
 5965POPC   PO4 8412   2.801  35.303   9.155
 5965POPC   GL1 8413   2.788  35.328   8.855
 5965POPC   GL2 8414   2.646  35.470   8.855
 5965POPC   C1A 8415   2.756  35.392   8.555
 5965POPC   D2A 8416   2.724  35.318   8.255
 5965POPC   C3A 8417   2.755  35.313   7.955
 5965POPC   C4A 8418   2.758  35.316   7.655
 5965POPC   C1B 8419   2.558  35.474   8.555
 5965POPC   C2B 8420   2.604  35.514   8.255
 5965POPC   C3B 8421   2.610  35.503   7.955
 5965POPC   C4B 8422   2.600  35.514   7.655
 5966POPC   NC3 8423  29.909   8.949   9.455
 5966POPC   PO4 8424  29.930   8.987   9.155
 5966POPC   GL1 8425  29.955   8.949   8.855
 5966POPC   GL2 8426  30.018   9.062   8.855
 5966POPC   C1A 8427  29.905   8.947   8.555
 5966POPC   D2A 8428  29.928   8.936   8.255
 5966POPC   C3A 8429  29.930   9.000   7.955
 5966POPC   C4A 8430  29.961   8.938   7.655
 5966POPC   C1B 8431  30.168   9.079   8.555
 5966POPC   C2B 8432  30.196   9.055   8.255
 5966POPC   C3B 8433  30.106   9.048   7.955
 5966POPC   C4B 8434  30.150   9.078   7.655
 5967POPC   NC3 8435   0.445  32.291   9.455
 5967POPC   PO4 8436   0.478  32.216   9.155
 5967POPC   GL1 8437   0.433  32.233   8.855
 5967POPC   GL2 8438   0.380  32.161   8.855
 5967POPC   C1A 8439   0.420  32.238   8.555
 5967POPC   D2A 8440   0.410  32.214   8.255
 5967POPC   C3A 8441   0.477  32.238   7.955
 5967POPC   C4A 8442   0.487  32.237   7.655
 5967POPC   C1B 8443   0.338  31.982   8.555
 5967POPC   C2B 8444   0.299  31.996   8.255
 5967POPC   C3B 8445   0.358  32.019   7.955
 5967POPC   C4B 8446   0.379  32.055   7.655
 5968POPC   NC3 8447  28.404  11.304   9.455
 5968POPC   PO4 8448  28.380  11.303   9.155
 5968POPC   GL1 8449  28.336  11.292   8.855
 5968POPC   GL2 8450  28.400  11.233   8.855
 5968POPC   C1A 8451  28.331  11.267   8.555
 5968POPC   D2A 8452  28.412  11.275   8.255
 5968POPC   C3A 8453  28.342  11.338   7.955
 5968POPC   C4A 8454  28.376  11.270   7.655
 5968POPC   C1B 8455  28.434  11.055   8.555
 5968POPC   C2B 8456  28.471  11.093   8.255
 5968POPC   C3B 8457  28.517  11.096   7.955
 5968POPC   C4B 8458  28.473  11.039   7.655
 5969POPC   NC3 8459  31.448  36.120   9.455
 5969POPC   PO4 8460  31.439  36.080   9.155
 5969POPC   GL1 8461  31.483  36.080   8.855
 5969POPC   GL2 8462  31.361  36.102   8.855
 5969POPC   C1A 8463  31.467  36.174   8.555
 5969POPC   D2A 8464  31.475  36.171   8.255
 5969POPC   C3A 8465  31.457  36.118   7.955
 5969POPC   C4A 8466  31.506  36.141   7.655
 5969POPC   C1B 8467  31.299  36.002   8.555
 5969POPC   C2B 8468  31.237  36.016   8.255
 5969POPC   C3B 8469  31.282  35.939   7.955
 5969POPC   C4B 8470  31.304  35.983   7.655
 5970POPC   NC3 8471  33.751   7.430   9.455
 5970POPC   PO4 8472  33.768   7.454   9.155
 5970POPC   GL1 8473  33.848   7.374   8.855
 5970POPC   GL2 8474  33.924   7.426   8.855
 5970POPC   C1A 8475  33.772   7.423   8.555
 5970POPC   D2A 8476  33.769   7.394   8.255
 5970POPC   C3A 8477  33.778   7.390   7.955
 5970POPC   C4A 8478  33.753   7.387   7.655
 5970POPC   C1B 8479  33.986   7.489   8.555
 5970POPC   C2B 8480  33.987   7.566   8.255
 5970POPC   C3B 8481  34.067   7.571   7.955
 5970POPC   C4B 8482  34.071   7.479   7.655
 5971POPC   NC3 8483  17.549  33.015   9.455
 5971POPC   PO4 8484  17.549  32.981   9.155
 5971POPC   GL1 8485  17.459  33.019   8.855
 5971POPC   GL2 8486  17.491  33.158   8.855
 5971POPC   C1A 8487  17.536  33.050   8.555
 5971POPC   D2A 8488  17.480  32.998   8.255
 5971POPC   C3A 8489  17.485  32.985   7.955
 5971POPC   C4A 8490  17.544  33.030   7.655
 5971POPC   C1B 8491  17.445  33.307   8.555
 5971POPC   C2B 8492  17.464  33.235   8.255
 5971POPC   C3B 8493  17.451  33.296   7.955
 5971POPC   C4B 8494  17.440  33.228   7.655
 5972POPC   NC3 8495  22.957  24.473   9.455
 5972POPC   PO4 8496  22.934  24.495   9.155
 5972POPC   GL1 8497  22.912  24.481   8.855
 5972POPC   GL2 8498  22.799  24.438   8.855
 5972POPC   C1A 8499  22.889  24.465   8.555
 5972POPC   D2A 8500  22.898  24.499   8.255
 5972POPC   C3A 8501  22.947  24.444   7.955
 5972POPC   C4A 8502  22.890  24.470   7.655
 5972POPC   C1B 8503  22.720  24.375   8.555
 5972POPC   C2B 8504  22.722  24.394   8.255
 5972POPC   C3B 8505  22.763  24.338   7.955
 5972POPC   C4B 8506  22.694  24.321   7.655
 5973POPC   NC3 8507  41.604  24.512   9.455
 5973POPC   PO4 8508  41.575  24.492   9.155
 5973POPC   GL1 8509  41.565  24.459   8.855
 5973POPC   GL2 8510  41.625  24.590   8.855
 5973POPC   C1A 8511  41.579  24.461   8.555
 5973POPC   D2A 8512  41.585  24.444   8.255
 5973POPC   C3A 8513  41.572  24.521   7.955
 5973POPC   C4A 8514  41.598  24.470   7.655
 5973POPC   C1B 8515  41.769  24.628   8.555
 5973POPC   C2B 8516  41.747  24.620   8.255
 5973POPC   C3B 8517  41.795  24.577   7.955
 5973POPC   C4B 8518  41.812  24.593   7.655
 5974POPC   NC3 8519  19.071  29.876   9.455
 5974POPC   PO4 8520  19.038  29.960   9.155
 5974POPC   GL1 8521  19.069  29.932   8.855
 5974POPC   GL2 8522  19.219  29.981   8.855
 5974POPC   C1A 8523  19.082  29.933   8.555
 5974POPC   D2A 8524  19.040  29.923   8.255
 5974POPC   C3A 8525  19.013  29.884   7.955
 5974POPC   C4A 8526  19.087  29.880   7.655
 5974POPC   C1B 8527  19.337  29.998   8.555
 5974POPC   C2B 8528  19.260  30.009   8.255
 5974POPC   C3B 8529  19.277  30.037   7.955
 5974POPC   C4B 8530  19.278  30.030   7.655
 5975POPC   NC3 8531   1.183  37.663   9.455
 5975POPC   PO4 8532   1.261  37.712   9.155
 5975POPC   GL1 8533   1.186  37.673   8.855
 5975POPC   GL2 8534   1.369  37.684   8.855
 5975POPC   C1A 8535   1.215  37.698   8.555
 5975POPC   D2A 8536   1.189  37.636   8.255
 5975POPC   C3A 8537   1.167  37.695   7.955
 5975POPC   C4A 8538   1.222  37.650   7.655
 5975POPC   C1B 8539   1.485  37.656   8.555
 5975POPC   C2B 8540   1.472  37.723   8.255
 5975POPC   C3B 8541   1.508  37.706   7.955
 5975POPC   C4B 8542   1.423  37.725   7.655
 5976POPC   NC3 8543  29.949  20.604   9.455
 5976POPC   PO4 8544  29.936  20.645   9.155
 5976POPC   GL1 8545  29.954  20.604   8.855
 5976POPC   GL2 8546  29.814  20.697   8.855
 5976POPC   C1A 8547  29.903  20.600   8.555
 5976POPC   D2A 8548  29.898  20.611   8.255
 5976POPC   C3A 8549  29.940  20.575   7.955
 5976POPC   C4A 8550  29.921  20.570   7.655
 5976POPC   C1B 8551  29.759  20.855   8.555
 5976POPC   C2B 8552  29.829  20.850   8.255
 5976POPC   C3B 8553  29.765  20.845   7.955
 5976POPC   C4B 8554  29.772  20.832   7.655
 5977POPC   NC3 8555  19.051   5.097   9.455
 5977POPC   PO4 8556  19.101   5.045   9.155
 5977POPC   GL1 8557  19.042   5.060   8.855
 5977POPC   GL2 8558  19.079   5.015   8.855
 5977POPC   C1A 8559  19.068   5.089   8.555
 5977POPC   D2A 8560  19.023   5.050   8.255
 5977POPC   C3A 8561  19.085   5.045   7.955
 5977POPC   C4A 8562  19.032   5.099   7.655
 5977POPC   C1B 8563  18.969   4.893   8.555
 5977POPC   C2B 8564  19.032   4.872   8.255
 5977POPC   C3B 8565  19.014   4.819   7.955
 5977POPC   C4B 8566  19.001   4.855   7.655
 5978POPC   NC3 8567  12.040  18.285   9.455
 5978POPC   PO4 8568  12.084  18.271   9.155
 5978POPC   GL1 8569  12.029  18.308   8.855
 5978POPC   GL2 8570  12.092  18.126   8.855
 5978POPC   C1A 8571  12.097  18.322   8.555
 5978POPC   D2A 8572  12.050  18.267   8.255
 5978POPC   C3A 8573  12.033  18.320   7.955
 5978POPC   C4A 8574  12.116  18.251   7.655
 5978POPC   C1B 8575  12.041  17.990   8.555
 5978POPC   C2B 8576  12.058  17.998   8.255
 5978POPC   C3B 8577  12.091  18.039   7.955
 5978POPC   C4B 8578  12.051  18.069   7.655
 5979POPC   NC3 8579   8.963  40.794   9.455
 5979POPC   PO4 8580   8.947  40.819   9.155
 5979POPC   GL1 8581   8.951  40.804   8.855
 5979POPC   GL2 8582   8.925  40.865   8.855
 5979POPC   C1A 8583   8.946  40.792   8.555
 5979POPC   D2A 8584   8.965  40.749   8.255
 5979POPC   C3A 8585   8.995  40.802   7.955
 5979POPC   C4A 8586   9.019  40.799   7.655
 5979POPC   C1B 8587   8.791  40.977   8.555
 5979POPC   C2B 8588   8.800  40.972   8.255
 5979POPC   C3B 8589   8.820  40.914   7.955
 5979POPC   C4B 8590   8.761  40.909   7.655
 5980POPC   NC3 8591  26.859  24.533   9.455
 5980POPC   PO4 8592  26.805  24.440   9.155
 5980POPC   GL1 8593  26.783  24.510   8.855
 5980POPC   GL2 8594  26.929  24.594   8.855
 5980POPC   C1A 8595  26.784  24.471   8.555
 5980POPC   D2A 8596  26.799  24.446   8.255
 5980POPC   C3A 8597  26.807  24.501   7.955
 5980POPC   C4A 8598  26.828  24.463   7.655
 5980POPC   C1B 8599  26.972  24.705   8.555
 5980POPC   C2B 8600  27.012  24.723   8.255
 5980POPC   C3B 8601  27.010  24.678   7.955
 5980POPC   C4B 8602  26.976  24.682   7.655
 5981POPC   NC3 8603  18.291  31.453   9.455
 5981POPC   PO4 8604  18.249  31.427   9.155
 5981POPC   GL1 8605  18.251  31.488   8.855
 5981POPC   GL2 8606  18.277  31.340   8.855
 5981POPC   C1A 8607  18.287  31.495   8.555
 5981POPC   D2A 8608  18.259  31.514   8.255
 5981POPC   C3A 8609  18.332  31.513   7.955
 5981POPC   C4A 8610  18.242  31.433   7.655
 5981POPC   C1B 8611  18.301  31.182   8.555
 5981POPC   C2B 8612  18.380  31.208   8.255
 5981POPC   C3B 8613  18.365  31.274   7.955
 5981POPC   C4B 8614  18.351  31.188   7.655
 5982POPC   NC3 8615  22.987  13.667   9.455
 5982POPC   PO4 8616  22.922  13.670   9.155
 5982POPC   GL1 8617  22.944  13.655   8.855
 5982POPC   GL2 8618  23.029  13.567   8.855
 5982POPC   C1A 8619  22.941  13.594   8.555
 5982POPC   D2A 8620  22.896  13.663   8.255
 5982POPC   C3A 8621  22.935  13.627   7.955
 5982POPC   C4A 8622  22.933  13.654   7.655
 5982POPC   C1B 8623  23.211  13.543   8.555
 5982POPC   C2B 8624  23.180  13.537   8.255
 5982POPC   C3B 8625  23.182  13.559   7.955
 5982POPC   C4B 8626  23.136  13.547   7.655
 5983POPC   NC3 8627  34.592  15.950   9.455
 5983POPC   PO4 8628  34.580  15.999   9.155
 5983POPC   GL1 8629  34.596  15.906   8.855
 5983POPC   GL2 8630  34.605  16.054   8.855
 5983POPC   C1A 8631  34.531  16.003   8.555
 5983POPC   D2A 8632  34.539  15.946   8.255
 5983POPC   C3A 8633  34.605  15.940   7.955
 5983POPC   C4A 8634  34.571  15.920   7.655
 5983POPC   C1B 8635  34.721  16.174   8.555
 5983POPC   C2B 8636  34.657  16.157   8.255
 5983POPC   C3B 8637  34.667  16.172   7.955
 5983POPC   C4B 8638  34.695  16.191   7.655
 5984POPC   NC3 8639  33.008   5.844   9.455
 5984POPC   PO4 8640  33.033   5.851   9.155
 5984POPC   GL1 8641  33.069   5.845   8.855
 5984POPC   GL2 8642  32.890   5.971   8.855
 5984POPC   C1A 8643  32.998   5.871   8.555
 5984POPC   D2A 8644  33.006   5.896   8.255
 5984POPC   C3A 8645  33.005   5.821   7.955
 5984POPC   C4A 8646  33.062   5.882   7.655
 5984POPC   C1B 8647  32.802   5.982   8.555
 5984POPC   C2B 8648  32.779   5.998   8.255
 5984POPC   C3B 8649  32.840   5.977   7.955
 5984POPC   C4B 8650  32.805   5.938   7.655
 5985POPC   NC3 8651  23.751  22.160   9.455
 5985POPC   PO4 8652  23.718  22.123   9.155
 5985POPC   GL1 8653  23.733  22.131   8.855
 5985POPC   GL2 8654  23.557  22.122   8.855
 5985POPC   C1A 8655  23.710  22.143   8.555
 5985POPC   D2A 8656  23.692  22.181   8.255
 5985POPC   C3A 8657  23.739  22.126   7.955
 5985POPC   C4A 8658  23.748  22.190   7.655
 5985POPC   C1B 8659  23.512  22.059   8.555
 5985POPC   C2B 8660  23.445  22.116   8.255
 5985POPC   C3B 8661  23.455  22.029   7.955
 5985POPC   C4B 8662  23.481  22.032   7.655
 5986POPC   NC3 8663  38.471  33.845   9.455
 5986POPC   PO4 8664  38.436  33.787   9.155
 5986POPC   GL1 8665  38.490  33.758   8.855
 5986POPC   GL2 8666  38.459  33.635   8.855
 5986POPC   C1A 8667  38.458  33.779   8.555
 5986POPC   D2A 8668  38.431  33.784   8.255
 5986POPC   C3A 8669  38.447  33.780   7.955
 5986POPC   C4A 8670  38.419  33.817   7.655
 5986POPC   C1B 8671  38.586  33.589   8.555
 5986POPC   C2B 8672  38.499  33.589   8.255
 5986POPC   C3B 8673  38.488  33.545   7.955
 5986POPC   C4B 8674  38.530  33.596   7.655
 5987POPC   NC3 8675  22.193  39.975   9.455
 5987POPC   PO4 8676  22.148  40.056   9.155
 5987POPC   GL1 8677  22.152  40.027   8.855
 5987POPC   GL2 8678  22.249  40.164   8.855
 5987POPC   C1A 8679  22.148  40.054   8.555
 5987POPC   D2A 8680  22.165  40.004   8.255
 5987POPC   C3A 8681  22.192  40.027   7.955
 5987POPC   C4A 8682  22.160  39.980   7.655
 5987POPC   C1B 8683  22.319  40.227   8.555
 5987POPC   C2B 8684  22.239  40.276   8.255
 5987POPC   C3B 8685  22.243  40.226   7.955
 5987POPC   C4B 8686  22.244  40.182   7.655
 5988POPC   NC3 8687  27.597   1.950   9.455
 5988POPC   PO4 8688  27.570   2.018   9.155
 5988POPC   GL1 8689  27.638   1.987   8.855
 5988POPC   GL2 8690  27.432   2.029   8.855
 5988POPC   C1A 8691  27.624   2.035   8.555
 5988POPC   D2A 8692  27.620   1.990   8.255
 5988POPC   C3A 8693  27.642   1.965   7.955
 5988POPC   C4A 8694  27.582   2.021   7.655
 5988POPC   C1B 8695  27.326   2.051   8.555
 5988POPC   C2B 8696  27.355   2.093   8.255
 5988POPC   C3B 8697  27.317   2.052   7.955
 5988POPC   C4B 8698  27.330   2.062   7.655
 5989POPC   NC3 8699  41.556  16.691   9.455
 5989POPC   PO4 8700  41.588  16.701   9.155
 5989POPC   GL1 8701  41.601  16.707   8.855
 5989POPC   GL2 8702  41.670  16.609   8.855
 5989POPC   C1A 8703  41.605  16.746   8.555
 5989POPC   D2A 8704  41.523  16.777   8.255
 5989POPC   C3A 8705  41.555  16.731   7.955
 5989POPC   C4A 8706  41.548  16.717   7.655
 5989POPC   C1B 8707  41.686  16.516   8.555
 5989POPC   C2B 8708  41.731  16.581   8.255
 5989POPC   C3B 8709  41.702  16.589   7.955
 5989POPC   C4B 8710  41.695  16.538   7.655
 5990POPC   NC3 8711  15.147  40.740   9.455
 5990POPC   PO4 8712  15.154  40.798   9.155
 5990POPC   GL1 8713  15.178  40.810   8.855
 5990POPC   GL2 8714  15.259  40.673   8.855
 5990POPC   C1A 8715  15.178  40.774   8.555
 5990POPC   D2A 8716  15.178  40.736   8.255
 5990POPC   C3A 8717  15.171  40.810   7.955
 5990POPC   C4A 8718  15.223  40.734   7.655
 5990POPC   C1B 8719  15.285  40.621   8.555
 5990POPC   C2B 8720  15.306  40.609   8.255
 5990POPC   C3B 8721  15.281  40.616   7.955
 5990POPC   C4B 8722  15.320  40.545   7.655
 5991POPC   NC3 8723  10.555   2.754   9.455
 5991POPC   PO4 8724  10.482   2.722   9.155
 5991POPC   GL1 8725  10.529   2.767   8.855
 5991POPC   GL2 8726  10.496   2.656   8.855
 5991POPC   C1A 8727  10.544   2.736   8.555
 5991POPC   D2A 8728  10.500   2.738   8.255
 5991POPC   C3A 8729  10.530   2.731   7.955
 5991POPC   C4A 8730  10.500   2.768   7.655
 5991POPC   C1B 8731  10.481   2.538   8.555
 5991POPC   C2B 8732  10.482   2.493   8.255
 5991POPC   C3B 8733  10.482   2.561   7.955
 5991POPC   C4B 8734  10.449   2.539   7.655
 5992POPC   NC3 8735  22.905  29.192   9.455
 5992POPC   PO4 8736  22.900  29.107   9.155
 5992POPC   GL1 8737  22.940  29.180   8.855
 5992POPC   GL2 8738  23.026  29.072   8.855
 5992POPC   C1A 8739  22.928  29.154   8.555
 5992POPC   D2A 8740  22.888  29.163   8.255
 5992POPC   C3A 8741  22.965  29.177   7.955
 5992POPC   C4A 8742  22.917  29.122   7.655
 5992POPC   C1B 8743  23.095  28.945   8.555
 5992POPC   C2B 8744  23.110  28.894   8.255
 5992POPC   C3B 8745  23.107  28.969   7.955
 5992POPC   C4B 8746  23.118  28.942   7.655
 5993POPC   NC3 8747  44.620   1.189   9.455
 5993POPC   PO4 8748  44.695   1.240   9.155
 5993POPC   GL1 8749  44.704   1.182   8.855
 5993POPC   GL2 8750  44.546   1.278   8.855
 5993POPC   C1A 8751  44.676   1.181   8.555
 5993POPC   D2A 8752  44.614   1.186   8.255
 5993POPC   C3A 8753  44.708   1.188   7.955
 5993POPC   C4A 8754  44.640   1.257   7.655
 5993POPC   C1B 8755  44.503   1.435   8.555
 5993POPC   C2B 8756  44.497   1.382   8.255
 5993POPC   C3B 8757  44.569   1.397   7.955
 5993POPC   C4B 8758  44.546   1.392   7.655
 5994POPC   NC3 8759  13.654  44.643   9.455
 5994POPC   PO4 8760  13.652  44.696   9.155
 5994POPC   GL1 8761  13.645  44.642   8.855
 5994POPC   GL2 8762  13.727  44.746   8.855
 5994POPC   C1A 8763  13.647  44.646   8.555
 5994POPC   D2A 8764  13.656  44.649   8.255
 5994POPC   C3A 8765  13.587  44.697   7.955
 5994POPC   C4A 8766  13.666  44.662   7.655
 5994POPC   C1B 8767  13.859  44.847   8.555
 5994POPC   C2B 8768  13.810  44.836   8.255
 5994POPC   C3B 8769  13.840  44.827   7.955
 5994POPC   C4B 8770  13.858  44.806   7.655
 5995POPC   NC3 8771  27.639  12.116   9.455
 5995POPC   PO4 8772  27.612  12.103   9.155
 5995POPC   GL1 8773  27.631  12.033   8.855
 5995POPC   GL2 8774  27.558  11.964   8.855
 5995POPC   C1A 8775  27.619  12.093   8.555
 5995POPC   D2A 8776  27.633  12.072   8.255
 5995POPC   C3A 8777  27.552  12.077   7.955
 5995POPC   C4A 8778  27.619  12.095   7.655
 5995POPC   C1B 8779  27.389  11.915   8.555
 5995POPC   C2B 8780  27.476  11.884   8.255
 5995POPC   C3B 8781  27.411  11.897   7.955
 5995POPC   C4B 8782  27.436  11.897   7.655
 5996POPC   NC3 8783  37.690   5.844   9.455
 5996POPC   PO4 8784  37.655   5.906   9.155
 5996POPC   GL1 8785  37.648   5.889   8.855
 5996POPC   GL2 8786  37.666   5.956   8.855
 5996POPC   C1A 8787  37.636   5.910   8.555
 5996POPC   D2A 8788  37.712   5.871   8.255
 5996POPC   C3A 8789  37.697   5.870   7.955
 5996POPC   C4A 8790  37.634   5.883   7.655
 5996POPC   C1B 8791  37.568   6.078   8.555
 5996POPC   C2B 8792  37.630   6.142   8.255
 5996POPC   C3B 8793  37.580   6.142   7.955
 5996POPC   C4B 8794  37.591   6.051   7.655
 5997POPC   NC3 8795  17.516   6.683   9.455
 5997POPC   PO4 8796  17.499   6.654   9.155
 5997POPC   GL1 8797  17.478   6.606   8.855
 5997POPC   GL2 8798  17.370   6.566   8.855
 5997POPC   C1A 8799  17.521   6.625   8.555
 5997POPC   D2A 8800  17.525   6.658   8.255
 5997POPC   C3A 8801  17.544   6.655   7.955
 5997POPC   C4A 8802  17.470   6.636   7.655
 5997POPC   C1B 8803  17.319   6.522   8.555
 5997POPC   C2B 8804  17.284   6.423   8.255
 5997POPC   C3B 8805  17.360   6.488   7.955
 5997POPC   C4B 8806  17.324   6.432   7.655
 5998POPC   NC3 8807  43.918  29.876   9.455
 5998POPC   PO4 8808  43.888  29.912   9.155
 5998POPC   GL1 8809  43.838  29.899   8.855
 5998POPC   GL2 8810  43.711  29.930   8.855
 5998POPC   C1A 8811  43.865  29.969   8.555
 5998POPC   D2A 8812  43.855  29.871   8.255
 5998POPC   C3A 8813  43.854  29.906   7.955
 5998POPC   C4A 8814  43.859  29.913   7.655
 5998POPC   C1B 8815  43.680  29.876   8.555
 5998POPC   C2B 8816  43.622  29.944   8.255
 5998POPC   C3B 8817  43.594  29.873   7.955
 5998POPC   C4B 8818  43.612  29.935   7.655
 5999POPC   NC3 8819  20.645   8.200   9.455
 5999POPC   PO4 8820  20.592   8.198   9.155
 5999POPC   GL1 8821  20.593   8.200   8.855
 5999POPC   GL2 8822  20.555   8.295   8.855
 5999POPC   C1A 8823  20.617   8.157   8.555
 5999POPC   D2A 8824  20.593   8.219   8.255
 5999POPC   C3A 8825  20.611   8.201   7.955
 5999POPC   C4A 8826  20.630   8.185   7.655
 5999POPC   C1B 8827  20.583   8.491   8.555
 5999POPC   C2B 8828  20.544   8.434   8.255
 5999POPC   C3B 8829  20.546   8.460   7.955
 5999POPC   C4B 8830  20.577   8.491   7.655
 6000POPC   NC3 8831  41.570  19.088   9.455
 6000POPC   PO4 8832  41.567  19.019   9.155
 6000POPC   GL1 8833  41.524  19.021   8.855
 6000POPC   GL2 8834  41.650  19.160   8.855
 6000POPC   C1A 8835  41.600  19.082   8.555
 6000POPC   D2A 8836  41.591  19.091   8.255
 6000POPC   C3A 8837  41.554  19.108   7.955
 6000POPC   C4A 8838  41.516  19.039   7.655
 6000POPC   C1B 8839  41.646  19.262   8.555
 6000POPC   C2B 8840  41.662  19.287   8.255
 6000POPC   C3B 8841  41.639  19.294   7.955
 6000POPC   C4B 8842  41.660  19.234   7.655
 6001POPC   NC3 8843  43.877  22.908   9.455
 6001POPC   PO4 8844  43.881  22.951   9.155
 6001POPC   GL1 8845  43.850  22.934   8.855
 6001POPC   GL2 8846  43.998  23.044   8.855
 6001POPC   C1A 8847  43.881  22.916   8.555
 6001POPC   D2A 8848  43.882  22.972   8.255
 6001POPC   C3A 8849  43.904  22.965   7.955
 6001POPC   C4A 8850  43.887  22.889   7.655
 6001POPC   C1B 8851  44.065  23.120   8.555
 6001POPC   C2B 8852  44.113  23.044   8.255
 6001POPC   C3B 8853  44.089  23.053   7.955
 6001POPC   C4B 8854  44.070  23.093   7.655
 6002POPC   NC3 8855  11.301  32.993   9.455
 6002POPC   PO4 8856  11.328  33.021   9.155
 6002POPC   GL1 8857  11.263  33.027   8.855
 6002POPC   GL2 8858  11.192  32.991   8.855
 6002POPC   C1A 8859  11.253  33.017   8.555
 6002POPC   D2A 8860  11.334  33.023   8.255
 6002POPC   C3A 8861  11.334  32.974   7.955
 6002POPC   C4A 8862  11.324  33.037   7.655
 6002POPC   C1B 8863  11.051  32.894   8.555
 6002POPC   C2B 8864  11.072  32.865   8.255
 6002POPC   C3B 8865  11.111  32.852   7.955
 6002POPC   C4B 8866  11.103  32.876   7.655
 6003POPC   NC3 8867  19.109  13.620   9.455
 6003POPC   PO4 8868  19.108  13.677   9.155
 6003POPC   GL1 8869  19.042  13.642   8.855
 6003POPC   GL2 8870  19.094  13.725   8.855
 6003POPC   C1A 8871  19.102  13.667   8.555
 6003POPC   D2A 8872  19.108  13.583   8.255
 6003POPC   C3A 8873  19.020  13.589   7.955
 6003POPC   C4A 8874  19.017  13.602   7.655
 6003POPC   C1B 8875  19.140  13.810   8.555
 6003POPC   C2B 8876  19.175  13.861   8.255
 6003POPC   C3B 8877  19.185  13.822   7.955
 6003POPC   C4B 8878  19.179  13.854   7.655
 6004POPC   NC3 8879  25.292  22.963   9.455
 6004POPC   PO4 8880  25.234  22.918   9.155
 6004POPC   GL1 8881  25.276  22.966   8.855
 6004POPC   GL2 8882  25.394  22.931   8.855
 6004POPC   C1A 8883  25.312  22.978   8.555
 6004POPC   D2A 8884  25.256  22.890   8.255
 6004POPC   C3A 8885  25.227  22.937   7.955
 6004POPC   C4A 8886  25.240  22.904   7.655
 6004POPC   C1B 8887  25.513  22.965   8.555
 6004POPC   C2B 8888  25.503  22.989   8.255
 6004POPC   C3B 8889  25.514  22.997   7.955
 6004POPC   C4B 8890  25.505  22.981   7.655
 6005POPC   NC3 8891  14.419  15.155   9.455
 6005POPC   PO4 8892  14.421  15.185   9.155
 6005POPC   GL1 8893  14.370  15.207   8.855
 6005POPC   GL2 8894  14.323  15.231   8.855
 6005POPC   C1A 8895  14.405  15.210   8.555
 6005POPC   D2A 8896  14.395  15.143   8.255
 6005POPC   C3A 8897  14.442  15.151   7.955
 6005POPC   C4A 8898  14.395  15.229   7.655
 6005POPC   C1B 8899  14.186  15.334   8.555
 6005POPC   C2B 8900  14.155  15.275   8.255
 6005POPC   C3B 8901  14.144  15.277   7.955
 6005POPC   C4B 8902  14.145  15.277   7.655
 6006POPC   NC3 8903  26.010  36.093   9.455
 6006POPC   PO4 8904  26.037  36.093   9.155
 6006POPC   GL1 8905  26.040  36.168   8.855
 6006POPC   GL2 8906  25.901  36.191   8.855
 6006POPC   C1A 8907  26.049  36.174   8.555
 6006POPC   D2A 8908  26.029  36.160   8.255
 6006POPC   C3A 8909  26.030  36.147   7.955
 6006POPC   C4A 8910  26.002  36.102   7.655
 6006POPC   C1B 8911  25.817  36.193   8.555
 6006POPC   C2B 8912  25.761  36.198   8.255
 6006POPC   C3B 8913  25.809  36.150   7.955
 6006POPC   C4B 8914  25.791  36.155   7.655
 6007POPC   NC3 8915  41.548   7.445   9.455
 6007POPC   PO4 8916  41.580   7.467   9.155
 6007POPC   GL1 8917  41.511   7.398   8.855
 6007POPC   GL2 8918  41.633   7.464   8.855
 6007POPC   C1A 8919  41.557   7.454   8.555
 6007POPC   D2A 8920  41.510   7.398   8.255
 6007POPC   C3A 8921  41.570   7.416   7.955
 6007POPC   C4A 8922  41.546   7.397   7.655
 6007POPC   C1B 8923  41.783   7.504   8.555
 6007POPC   C2B 8924  41.806   7.501   8.255
 6007POPC   C3B 8925  41.762   7.554   7.955
 6007POPC   C4B 8926  41.761   7.570   7.655
 6008POPC   NC3 8927  27.556  29.968   9.455
 6008POPC   PO4 8928  27.557  29.887   9.155
 6008POPC   GL1 8929  27.633  29.926   8.855
 6008POPC   GL2 8930  27.505  29.850   8.855
 6008POPC   C1A 8931  27.566  29.940   8.555
 6008POPC   D2A 8932  27.607  29.939   8.255
 6008POPC   C3A 8933  27.618  29.892   7.955
 6008POPC   C4A 8934  27.602  29.964   7.655
 6008POPC   C1B 8935  27.363  29.792   8.555
 6008POPC   C2B 8936  27.367  29.809   8.255
 6008POPC   C3B 8937  27.372  29.768   7.955
 6008POPC   C4B 8938  27.426  29.736   7.655
 6009POPC   NC3 8939  30.729  32.268   9.455
 6009POPC   PO4 8940  30.689  32.215   9.155
 6009POPC   GL1 8941  30.682  32.201   8.855
 6009POPC   GL2 8942  30.738  32.323   8.855
 6009POPC   C1A 8943  30.653  32.286   8.555
 6009POPC   D2A 8944  30.733  32.237   8.255
 6009POPC   C3A 8945  30.682  32.270   7.955
 6009POPC   C4A 8946  30.727  32.285   7.655
 6009POPC   C1B 8947  30.778  32.422   8.555
 6009POPC   C2B 8948  30.776  32.498   8.255
 6009POPC   C3B 8949  30.801  32.464   7.955
 6009POPC   C4B 8950  30.816  32.439   7.655
 6010POPC   NC3 8951   5.120  36.915   9.455
 6010POPC   PO4 8952   5.092  36.934   9.155
 6010POPC   GL1 8953   5.078  36.912   8.855
 6010POPC   GL2 8954   5.017  36.921   8.855
 6010POPC   C1A 8955   5.118  36.874   8.555
 6010POPC   D2A 8956   5.068  36.886   8.255
 6010POPC   C3A 8957   5.049  36.901   7.955
 6010POPC   C4A 8958   5.111  36.929   7.655
 6010POPC   C1B 8959   4.903  37.008   8.555
 6010POPC   C2B 8960   4.834  36.933   8.255
 6010POPC   C3B 8961   4.806  37.018   7.955
 6010POPC   C4B 8962   4.847  37.006   7.655
 6011POPC   NC3 8963   4.296   9.752   9.455
 6011POPC   PO4 8964   4.331   9.769   9.155
 6011POPC   GL1 8965   4.339   9.717   8.855
 6011POPC   GL2 8966   4.233   9.896   8.855
 6011POPC   C1A 8967   4.325   9.789   8.555
 6011POPC   D2A 8968   4.353   9.787   8.255
 6011POPC   C3A 8969   4.363   9.712   7.955
 6011POPC   C4A 8970   4.282   9.792   7.655
 6011POPC   C1B 8971   4.244   9.973   8.555
 6011POPC   C2B 8972   4.231   9.927   8.255
 6011POPC   C3B 8973   4.242   9.989   7.955
 6011POPC   C4B 8974   4.183   9.957   7.655
 6012POPC   NC3 8975   3.534   8.152   9.455
 6012POPC   PO4 8976   3.531   8.162   9.155
 6012POPC   GL1 8977   3.552   8.223   8.855
 6012POPC   GL2 8978   3.410   8.197   8.855
 6012POPC   C1A 8979   3.502   8.238   8.555
 6012POPC   D2A 8980   3.529   8.245   8.255
 6012POPC   C3A 8981   3.566   8.165   7.955
 6012POPC   C4A 8982   3.542   8.152   7.655
 6012POPC   C1B 8983   3.337   8.261   8.555
 6012POPC   C2B 8984   3.286   8.308   8.255
 6012POPC   C3B 8985   3.287   8.309   7.955
 6012POPC   C4B 8986   3.328   8.257   7.655
 6013POPC   NC3 8987  42.306  36.128   9.455
 6013POPC   PO4 8988  42.332  36.108   9.155
 6013POPC   GL1 8989  42.327  36.127   8.855
 6013POPC   GL2 8990  42.265  36.153   8.855
 6013POPC   C1A 8991  42.340  36.105   8.555
 6013POPC   D2A 8992  42.368  36.093   8.255
 6013POPC   C3A 8993  42.312  36.142   7.955
 6013POPC   C4A 8994  42.330  36.149   7.655
 6013POPC   C1B 8995  42.081  36.262   8.555
 6013POPC   C2B 8996  42.153  36.306   8.255
 6013POPC   C3B 8997  42.162  36.279   7.955
 6013POPC   C4B 8998  42.157  36.312   7.655
 6014POPC   NC3 8999  37.681  22.906   9.455
 6014POPC   PO4 9000  37.664  22.900   9.155
 6014POPC   GL1 9001  37.701  22.987   8.855
 6014POPC   GL2 9002  37.776  22.948   8.855
 6014POPC   C1A 9003  37.651  22.936   8.555
 6014POPC   D2A 9004  37.631  22.963   8.255
 6014POPC   C3A 9005  37.644  22.961   7.955
 6014POPC   C4A 9006  37.638  22.986   7.655
 6014POPC   C1B 9007  37.884  22.980   8.555
 6014POPC   C2B 9008  37.924  22.983   8.255
 6014POPC   C3B 9009  37.907  22.958   7.955
 6014POPC   C4B 9010  37.927  22.940   7.655
 6015POPC   NC3 9011  11.332  40.777   9.455
 6015POPC   PO4 9012  11.256  40.774   9.155
 6015POPC   GL1 9013  11.257  40.795   8.855
 6015POPC   GL2 9014  11.366  40.861   8.855
 6015POPC   C1A 9015  11.308  40.770   8.555
 6015POPC   D2A 9016  11.304  40.777   8.255
 6015POPC   C3A 9017  11.301  40.744   7.955
 6015POPC   C4A 9018  11.285  40.816   7.655
 6015POPC   C1B 9019  11.404  41.014   8.555
 6015POPC   C2B 9020  11.446  40.971   8.255
 6015POPC   C3B 9021  11.452  40.977   7.955
 6015POPC   C4B 9022  11.481  41.023   7.655
 6016POPC   NC3 9023  33.815  13.635   9.455
 6016POPC   PO4 9024  33.806  13.619   9.155
 6016POPC   GL1 9025  33.839  13.658   8.855
 6016POPC   GL2 9026  33.746  13.770   8.855
 6016POPC   C1A 9027  33.801  13.637   8.555
 6016POPC   D2A 9028  33.800  13.636   8.255
 6016POPC   C3A 9029  33.846  13.618   7.955
 6016POPC   C4A 9030  33.823  13.675   7.655
 6016POPC   C1B 9031  33.693  13.823   8.555
 6016POPC   C2B 9032  33.686  13.890   8.255
 6016POPC   C3B 9033  33.719  13.819   7.955
 6016POPC   C4B 9034  33.720  13.841   7.655
 6017POPC   NC3 9035  19.107   1.995   9.455
 6017POPC   PO4 9036  19.038   1.942   9.155
 6017POPC   GL1 9037  19.048   2.023   8.855
 6017POPC   GL2 9038  19.033   2.061   8.855
 6017POPC   C1A 9039  19.089   1.963   8.555
 6017POPC   D2A 9040  19.094   2.016   8.255
 6017POPC   C3A 9041  19.047   2.012   7.955
 6017POPC   C4A 9042  19.100   2.025   7.655
 6017POPC   C1B 9043  18.947   2.234   8.555
 6017POPC   C2B 9044  18.959   2.215   8.255
 6017POPC   C3B 9045  18.962   2.244   7.955
 6017POPC   C4B 9046  18.985   2.231   7.655
 6018POPC   NC3 9047  28.354  18.282   9.455
 6018POPC   PO4 9048  28.358  18.306   9.155
 6018POPC   GL1 9049  28.331  18.308   8.855
 6018POPC   GL2 9050  28.408  18.183   8.855
 6018POPC   C1A 9051  28.353  18.255   8.555
 6018POPC   D2A 9052  28.329  18.324   8.255
 6018POPC   C3A 9053  28.407  18.239   7.955
 6018POPC   C4A 9054  28.363  18.296   7.655
 6018POPC   C1B 9055  28.351  18.027   8.555
 6018POPC   C2B 9056  28.426  18.058   8.255
 6018POPC   C3B 9057  28.367  18.018   7.955
 6018POPC   C4B 9058  28.372  18.082   7.655
 6019POPC   NC3 9059  13.583  40.036   9.455
 6019POPC   PO4 9060  13.658  39.969   9.155
 6019POPC   GL1 9061  13.672  40.051   8.855
 6019POPC   GL2 9062  13.553  40.076   8.855
 6019POPC   C1A 9063  13.596  40.045   8.555
 6019POPC   D2A 9064  13.602  39.981   8.255
 6019POPC   C3A 9065  13.603  39.976   7.955
 6019POPC   C4A 9066  13.579  40.036   7.655
 6019POPC   C1B 9067  13.546  40.197   8.555
 6019POPC   C2B 9068  13.460  40.237   8.255
 6019POPC   C3B 9069  13.519  40.185   7.955
 6019POPC   C4B 9070  13.489  40.265   7.655
 6020POPC   NC3 9071  11.285  22.117   9.455
 6020POPC   PO4 9072  11.254  22.171   9.155
 6020POPC   GL1 9073  11.291  22.175   8.855
 6020POPC   GL2 9074  11.255  22.277   8.855
 6020POPC   C1A 9075  11.289  22.182   8.555
 6020POPC   D2A 9076  11.310  22.144   8.255
 6020POPC   C3A 9077  11.313  22.188   7.955
 6020POPC   C4A 9078  11.343  22.127   7.655
 6020POPC   C1B 9079  11.140  22.388   8.555
 6020POPC   C2B 9080  11.117  22.327   8.255
 6020POPC   C3B 9081  11.175  22.332   7.955
 6020POPC   C4B 9082  11.118  22.331   7.655
 6021POPC   NC3 9083  44.710  17.515   9.455
 6021POPC   PO4 9084  44.620  17.477   9.155
 6021POPC   GL1 9085  44.663  17.514   8.855
 6021POPC   GL2 9086  44.516  17.504   8.855
 6021POPC   C1A 9087  44.679  17.471   8.555
 6021POPC   D2A 9088  44.647  17.552   8.255
 6021POPC   C3A 9089  44.617  17.518   7.955
 6021POPC   C4A 9090  44.704  17.497   7.655
 6021POPC   C1B 9091  44.430  17.488   8.555
 6021POPC   C2B 9092  44.439  17.439   8.255
 6021POPC   C3B 9093  44.462  17.475   7.955
 6021POPC   C4B 9094  44.442  17.430   7.655
 6022POPC   NC3 9095  12.813  29.933   9.455
 6022POPC   PO4 9096  12.901  29.954   9.155
 6022POPC   GL1 9097  12.812  29.947   8.855
 6022POPC   GL2 9098  12.832  29.847   8.855
 6022POPC   C1A 9099  12.880  29.956   8.555
 6022POPC   D2A 9100  12.867  29.900   8.255
 6022POPC   C3A 9101  12.826  29.932   7.955
 6022POPC   C4A 9102  12.824  29.941   7.655
 6022POPC   C1B 9103  12.762  29.745   8.555
 6022POPC   C2B 9104  12.735  29.694   8.255
 6022POPC   C3B 9105  12.692  29.675   7.955
 6022POPC   C4B 9106  12.771  29.736   7.655
 6023POPC   NC3 9107  43.893  36.125   9.455
 6023POPC   PO4 9108  43.855  36.107   9.155
 6023POPC   GL1 9109  43.902  36.133   8.855
 6023POPC   GL2 9110  43.934  36.232   8.855
 6023POPC   C1A 9111  43.840  36.119   8.555
 6023POPC   D2A 9112  43.910  36.126   8.255
 6023POPC   C3A 9113  43.897  36.092   7.955
 6023POPC   C4A 9114  43.926  36.134   7.655
 6023POPC   C1B 9115  44.085  36.343   8.555
 6023POPC   C2B 9116  44.024  36.269   8.255
 6023POPC   C3B 9117  44.040  36.287   7.955
 6023POPC   C4B 9118  44.065  36.335   7.655
 6024POPC   NC3 9119  29.873  21.380   9.455
 6024POPC   PO4 9120  29.970  21.423   9.155
 6024POPC   GL1 9121  29.888  21.355   8.855
 6024POPC   GL2 9122  29.966  21.259   8.855
 6024POPC   C1A 9123  29.901  21.390   8.555
 6024POPC   D2A 9124  29.939  21.368   8.255
 6024POPC   C3A 9125  29.896  21.353   7.955
 6024POPC   C4A 9126  29.913  21.392   7.655
 6024POPC   C1B 9127  30.055  21.137   8.555
 6024POPC   C2B 9128  30.098  21.197   8.255
 6024POPC   C3B 9129  30.104  21.128   7.955
 6024POPC   C4B 9130  30.011  21.192   7.655
 6025POPC   NC3 9131  13.586  29.173   9.455
 6025POPC   PO4 9132  13.666  29.163   9.155
 6025POPC   GL1 9133  13.677  29.116   8.855
 6025POPC   GL2 9134  13.631  29.238   8.855
 6025POPC   C1A 9135  13.619  29.119   8.555
 6025POPC   D2A 9136  13.587  29.128   8.255
 6025POPC   C3A 9137  13.617  29.166   7.955
 6025POPC   C4A 9138  13.581  29.182   7.655
 6025POPC   C1B 9139  13.558  29.345   8.555
 6025POPC   C2B 9140  13.492  29.414   8.255
 6025POPC   C3B 9141  13.496  29.392   7.955
 6025POPC   C4B 9142  13.570  29.342   7.655
 6026POPC   NC3 9143  16.771  38.481   9.455
 6026POPC   PO4 9144  16.753  38.456   9.155
 6026POPC   GL1 9145  16.759  38.456   8.855
 6026POPC   GL2 9146  16.657  38.435   8.855
 6026POPC   C1A 9147  16.762  38.419   8.555
 6026POPC   D2A 9148  16.713  38.472   8.255
 6026POPC   C3A 9149  16.734  38.456   7.955
 6026POPC   C4A 9150  16.770  38.477   7.655
 6026POPC   C1B 9151  16.534  38.333   8.555
 6026POPC   C2B 9152  16.490  38.334   8.255
 6026POPC   C3B 9153  16.513  38.414   7.955
 6026POPC   C4B 9154  16.534  38.406   7.655
 6027POPC   NC3 9155   8.180  22.155   9.455
 6027POPC   PO4 9156   8.233  22.181   9.155
 6027POPC   GL1 9157   8.238  22.136   8.855
 6027POPC   GL2 9158   8.243  22.067   8.855
 6027POPC   C1A 9159   8.195  22.130   8.555
 6027POPC   D2A 9160   8.180  22.150   8.255
 6027POPC   C3A 9161   8.243  22.130   7.955
 6027POPC   C4A 9162   8.218  22.195   7.655
 6027POPC   C1B 9163   8.338  21.923   8.555
 6027POPC   C2B 9164   8.377  21.921   8.255
 6027POPC   C3B 9165   8.387  21.919   7.955
 6027POPC   C4B 9166   8.379  21.993   7.655
 6028POPC   NC3 9167  15.189  31.466   9.455
 6028POPC   PO4 9168  15.208  31.468   9.155
 6028POPC   GL1 9169  15.183  31.493   8.855
 6028POPC   GL2 9170  15.243  31.390   8.855
 6028POPC   C1A 9171  15.207  31.521   8.555
 6028POPC   D2A 9172  15.229  31.510   8.255
 6028POPC   C3A 9173  15.158  31.496   7.955
 6028POPC   C4A 9174  15.205  31.497   7.655
 6028POPC   C1B 9175  15.387  31.325   8.555
 6028POPC   C2B 9176  15.314  31.290   8.255
 6028POPC   C3B 9177  15.310  31.247   7.955
 6028POPC   C4B 9178  15.366  31.315   7.655
 6029POPC   NC3 9179  11.336  42.285   9.455
 6029POPC   PO4 9180  11.322  42.319   9.155
 6029POPC   GL1 9181  11.321  42.372   8.855
 6029POPC   GL2 9182  11.162  42.350   8.855
 6029POPC   C1A 9183  11.295  42.349   8.555
 6029POPC   D2A 9184  11.278  42.309   8.255
 6029POPC   C3A 9185  11.250  42.351   7.955
 6029POPC   C4A 9186  11.316  42.315   7.655
 6029POPC   C1B 9187  11.095  42.384   8.555
 6029POPC   C2B 9188  11.023  42.351   8.255
 6029POPC   C3B 9189  11.008  42.327   7.955
 6029POPC   C4B 9190  11.020  42.367   7.655
 6030POPC   NC3 9191  43.138  40.803   9.455
 6030POPC   PO4 9192  43.149  40.758   9.155
 6030POPC   GL1 9193  43.106  40.777   8.855
 6030POPC   GL2 9194  43.191  40.930   8.855
 6030POPC   C1A 9195  43.131  40.788   8.555
 6030POPC   D2A 9196  43.069  40.811   8.255
 6030POPC   C3A 9197  43.105  40.767   7.955
 6030POPC   C4A 9198  43.140  40.798   7.655
 6030POPC   C1B 9199  43.216  41.044   8.555
 6030POPC   C2B 9200  43.230  41.027   8.255
 6030POPC   C3B 9201  43.158  41.037   7.955
 6030POPC   C4B 9202  43.155  41.050   7.655
 6031POPC   NC3 9203  26.058   5.107   9.455
 6031POPC   PO4 9204  26.011   5.139   9.155
 6031POPC   GL1 9205  26.000   5.107   8.855
 6031POPC   GL2 9206  26.117   5.208   8.855
 6031POPC   C1A 9207  26.086   5.093   8.555
 6031POPC   D2A 9208  25.996   5.134   8.255
 6031POPC   C3A 9209  26.048   5.054   7.955
 6031POPC   C4A 9210  25.996   5.049   7.655
 6031POPC   C1B 9211  26.205   5.255   8.555
 6031POPC   C2B 9212  26.263   5.276   8.255
 6031POPC   C3B 9213  26.172   5.284   7.955
 6031POPC   C4B 9214  26.177   5.301   7.655
 6032POPC   NC3 9215   9.018  43.881   9.455
 6032POPC   PO4 9216   8.938  43.892   9.155
 6032POPC   GL1 9217   8.966  43.883   8.855
 6032POPC   GL2 9218   9.034  43.807   8.855
 6032POPC   C1A 9219   8.959  43.936   8.555
 6032POPC   D2A 9220   8.925  43.865   8.255
 6032POPC   C3A 9221   8.940  43.901   7.955
 6032POPC   C4A 9222   8.929  43.891   7.655
 6032POPC   C1B 9223   9.046  43.614   8.555
 6032POPC   C2B 9224   9.062  43.646   8.255
 6032POPC   C3B 9225   9.047  43.677   7.955
 6032POPC   C4B 9226   9.080  43.649   7.655
 6033POPC   NC3 9227  22.960  23.764   9.455
 6033POPC   PO4 9228  22.986  23.747   9.155
 6033POPC   GL1 9229  22.984  23.680   8.855
 6033POPC   GL2 9230  22.859  23.821   8.855
 6033POPC   C1A 9231  22.988  23.762   8.555
 6033POPC   D2A 9232  22.984  23.722   8.255
 6033POPC   C3A 9233  22.979  23.750   7.955
 6033POPC   C4A 9234  22.935  23.666   7.655
 6033POPC   C1B 9235  22.835  23.969   8.555
 6033POPC   C2B 9236  22.895  23.991   8.255
 6033POPC   C3B 9237  22.851  23.948   7.955
 6033POPC   C4B 9238  22.872  23.947   7.655
 6034POPC   NC3 9239  30.710  18.309   9.455
 6034POPC   PO4 9240  30.661  18.261   9.155
 6034POPC   GL1 9241  30.735  18.329   8.855
 6034POPC   GL2 9242  30.653  18.197   8.855
 6034POPC   C1A 9243  30.695  18.296   8.555
 6034POPC   D2A 9244  30.702  18.267   8.255
 6034POPC   C3A 9245  30.699  18.279   7.955
 6034POPC   C4A 9246  30.737  18.255   7.655
 6034POPC   C1B 9247  30.620  18.094   8.555
 6034POPC   C2B 9248  30.614  18.078   8.255
 6034POPC   C3B 9249  30.582  18.072   7.955
 6034POPC   C4B 9250  30.614  18.084   7.655
 6035POPC   NC3 9251  22.114  25.263   9.455
 6035POPC   PO4 9252  22.177  25.244   9.155
 6035POPC   GL1 9253  22.191  25.254   8.855
 6035POPC   GL2 9254  22.132  25.171   8.855
 6035POPC   C1A 9255  22.193  25.224   8.555
 6035POPC   D2A 9256  22.161  25.302   8.255
 6035POPC   C3A 9257  22.173  25.252   7.955
 6035POPC   C4A 9258  22.154  25.233   7.655
 6035POPC   C1B 9259  22.069  25.068   8.555
 6035POPC   C2B 9260  22.057  25.053   8.255
 6035POPC   C3B 9261  21.989  25.066   7.955
 6035POPC   C4B 9262  22.065  25.096   7.655
 6036POPC   NC3 9263  25.998  42.351   9.455
 6036POPC   PO4 9264  26.074  42.332   9.155
 6036POPC   GL1 9265  26.023  42.330   8.855
 6036POPC   GL2 9266  26.003  42.491   8.855
 6036POPC   C1A 9267  26.021  42.359   8.555
 6036POPC   D2A 9268  26.064  42.347   8.255
 6036POPC   C3A 9269  26.058  42.296   7.955
 6036POPC   C4A 9270  26.021  42.364   7.655
 6036POPC   C1B 9271  25.919  42.574   8.555
 6036POPC   C2B 9272  25.953  42.541   8.255
 6036POPC   C3B 9273  25.997  42.593   7.955
 6036POPC   C4B 9274  25.956  42.535   7.655
 6037POPC   NC3 9275  32.273  36.167   9.455
 6037POPC   PO4 9276  32.227  36.116   9.155
 6037POPC   GL1 9277  32.275  36.107   8.855
 6037POPC   GL2 9278  32.261  36.023   8.855
 6037POPC   C1A 9279  32.290  36.147   8.555
 6037POPC   D2A 9280  32.256  36.141   8.255
 6037POPC   C3A 9281  32.202  36.154   7.955
 6037POPC   C4A 9282  32.207  36.156   7.655
 6037POPC   C1B 9283  32.260  35.834   8.555
 6037POPC   C2B 9284  32.227  35.863   8.255
 6037POPC   C3B 9285  32.255  35.905   7.955
 6037POPC   C4B 9286  32.317  35.875   7.655
 6038POPC   NC3 9287  31.477  42.293   9.455
 6038POPC   PO4 9288  31.508  42.364   9.155
 6038POPC   GL1 9289  31.475  42.322   8.855
 6038POPC   GL2 9290  31.536  42.187   8.855
 6038POPC   C1A 9291  31.446  42.293   8.555
 6038POPC   D2A 9292  31.452  42.315   8.255
 6038POPC   C3A 9293  31.440  42.377   7.955
 6038POPC   C4A 9294  31.460  42.326   7.655
 6038POPC   C1B 9295  31.520  42.077   8.555
 6038POPC   C2B 9296  31.477  42.120   8.255
 6038POPC   C3B 9297  31.504  42.042   7.955
 6038POPC   C4B 9298  31.521  42.081   7.655
 6039POPC   NC3 9299  41.528  21.400   9.455
 6039POPC   PO4 9300  41.532  21.369   9.155
 6039POPC   GL1 9301  41.585  21.344   8.855
 6039POPC   GL2 9302  41.502  21.326   8.855
 6039POPC   C1A 9303  41.510  21.397   8.555
 6039POPC   D2A 9304  41.513  21.381   8.255
 6039POPC   C3A 9305  41.520  21.398   7.955
 6039POPC   C4A 9306  41.518  21.421   7.655
 6039POPC   C1B 9307  41.449  21.195   8.555
 6039POPC   C2B 9308  41.433  21.197   8.255
 6039POPC   C3B 9309  41.396  21.144   7.955
 6039POPC   C4B 9310  41.398  21.140   7.655
 6040POPC   NC3 9311  32.273  15.952   9.455
 6040POPC   PO4 9312  32.246  15.997   9.155
 6040POPC   GL1 9313  32.213  15.970   8.855
 6040POPC   GL2 9314  32.101  16.021   8.855
 6040POPC   C1A 9315  32.237  15.978   8.555
 6040POPC   D2A 9316  32.233  15.981   8.255
 6040POPC   C3A 9317  32.245  15.957   7.955
 6040POPC   C4A 9318  32.238  15.908   7.655
 6040POPC   C1B 9319  32.061  16.055   8.555
 6040POPC   C2B 9320  32.037  16.054   8.255
 6040POPC   C3B 9321  32.041  16.063   7.955
 6040POPC   C4B 9322  32.010  16.001   7.655
 6041POPC   NC3 9323   2.003   0.394   9.455
 6041POPC   PO4 9324   2.032   0.474   9.155
 6041POPC   GL1 9325   1.974   0.465   8.855
 6041POPC   GL2 9326   1.987   0.326   8.855
 6041POPC   C1A 9327   2.032   0.430   8.555
 6041POPC   D2A 9328   1.993   0.443   8.255
 6041POPC   C3A 9329   1.940   0.422   7.955
 6041POPC   C4A 9330   1.973   0.441   7.655
 6041POPC   C1B 9331   1.999   0.218   8.555
 6041POPC   C2B 9332   1.926   0.165   8.255
 6041POPC   C3B 9333   1.957   0.197   7.955
 6041POPC   C4B 9334   1.954   0.232   7.655
 6042POPC   NC3 9335  28.375  33.836   9.455
 6042POPC   PO4 9336  28.375  33.824   9.155
 6042POPC   GL1 9337  28.374  33.782   8.855
 6042POPC   GL2 9338  28.313  33.902   8.855
 6042POPC   C1A 9339  28.399  33.787   8.555
 6042POPC   D2A 9340  28.381  33.846   8.255
 6042POPC   C3A 9341  28.372  33.831   7.955
 6042POPC   C4A 9342  28.372  33.842   7.655
 6042POPC   C1B 9343  28.293  34.064   8.555
 6042POPC   C2B 9344  28.302  34.074   8.255
 6042POPC   C3B 9345  28.322  34.004   7.955
 6042POPC   C4B 9346  28.328  34.088   7.655
 6043POPC   NC3 9347  15.179   7.388   9.455
 6043POPC   PO4 9348  15.193   7.394   9.155
 6043POPC   GL1 9349  15.169   7.443   8.855
 6043POPC   GL2 9350  15.251   7.284   8.855
 6043POPC   C1A 9351  15.165   7.461   8.555
 6043POPC   D2A 9352  15.151   7.444   8.255
 6043POPC   C3A 9353  15.146   7.454   7.955
 6043POPC   C4A 9354  15.194   7.416   7.655
 6043POPC   C1B 9355  15.288   7.223   8.555
 6043POPC   C2B 9356  15.331   7.220   8.255
 6043POPC   C3B 9357  15.308   7.229   7.955
 6043POPC   C4B 9358  15.324   7.168   7.655
 6044POPC   NC3 9359  32.297   1.223   9.455
 6044POPC   PO4 9360  32.234   1.227   9.155
 6044POPC   GL1 9361  32.249   1.239   8.855
 6044POPC   GL2 9362  32.306   1.110   8.855
 6044POPC   C1A 9363  32.274   1.183   8.555
 6044POPC   D2A 9364  32.293   1.194   8.255
 6044POPC   C3A 9365  32.212   1.182   7.955
 6044POPC   C4A 9366  32.226   1.203   7.655
 6044POPC   C1B 9367  32.339   0.927   8.555
 6044POPC   C2B 9368  32.310   1.022   8.255
 6044POPC   C3B 9369  32.314   1.002   7.955
 6044POPC   C4B 9370  32.282   0.977   7.655
 6045POPC   NC3 9371  15.212  10.561   9.455
 6045POPC   PO4 9372  15.156  10.514   9.155
 6045POPC   GL1 9373  15.210  10.487   8.855
 6045POPC   GL2 9374  15.102  10.393   8.855
 6045POPC   C1A 9375  15.179  10.503   8.555
 6045POPC   D2A 9376  15.134  10.546   8.255
 6045POPC   C3A 9377  15.142  10.524   7.955
 6045POPC   C4A 9378  15.196  10.539   7.655
 6045POPC   C1B 9379  15.072  10.307   8.555
 6045POPC   C2B 9380  15.066  10.301   8.255
 6045POPC   C3B 9381  15.080  10.273   7.955
 6045POPC   C4B 9382  15.074  10.329   7.655
 6046POPC   NC3 9383  44.694  22.192   9.455
 6046POPC   PO4 9384  44.711  22.121   9.155
 6046POPC   GL1 9385  44.659  22.149   8.855
 6046POPC   GL2 9386  44.579  22.075   8.855
 6046POPC   C1A 9387  44.613  22.208   8.555
 6046POPC   D2A 9388  44.648  22.122   8.255
 6046POPC   C3A 9389  44.672  22.211   7.955
 6046POPC   C4A 9390  44.680  22.172   7.655
 6046POPC   C1B 9391  44.424  22.018   8.555
 6046POPC   C2B 9392  44.477  22.057   8.255
 6046POPC   C3B 9393  44.498  22.069   7.955
 6046POPC   C4B 9394  44.481  21.983   7.655
 6047POPC   NC3 9395  36.938  40.798   9.455
 6047POPC   PO4 9396  36.904  40.774   9.155
 6047POPC   GL1 9397  36.862  40.783   8.855
 6047POPC   GL2 9398  36.843  40.646   8.855
 6047POPC   C1A 9399  36.887  40.804   8.555
 6047POPC   D2A 9400  36.896  40.828   8.255
 6047POPC   C3A 9401  36.920  40.778   7.955
 6047POPC   C4A 9402  36.870  40.740   7.655
 6047POPC   C1B 9403  36.808  40.518   8.555
 6047POPC   C2B 9404  36.735  40.601   8.255
 6047POPC   C3B 9405  36.807  40.532   7.955
 6047POPC   C4B 9406  36.781  40.530   7.655
 6048POPC   NC3 9407  14.422   9.730   9.455
 6048POPC   PO4 9408  14.445   9.713   9.155
 6048POPC   GL1 9409  14.411   9.773   8.855
 6048POPC   GL2 9410  14.481   9.722   8.855
 6048POPC   C1A 9411  14.424   9.793   8.555
 6048POPC   D2A 9412  14.407   9.744   8.255
 6048POPC   C3A 9413  14.373   9.726   7.955
 6048POPC   C4A 9414  14.378   9.735   7.655
 6048POPC   C1B 9415  14.658   9.716   8.555
 6048POPC   C2B 9416  14.605   9.717   8.255
 6048POPC   C3B 9417  14.686   9.684   7.955
 6048POPC   C4B 9418  14.598   9.651   7.655
 6049POPC   NC3 9419  43.914  39.263   9.455
 6049POPC   PO4 9420  43.931  39.226   9.155
 6049POPC   GL1 9421  43.927  39.275   8.855
 6049POPC   GL2 9422  43.926  39.099   8.855
 6049POPC   C1A 9423  43.857  39.218   8.555
 6049POPC   D2A 9424  43.850  39.245   8.255
 6049POPC   C3A 9425  43.851  39.219   7.955
 6049POPC   C4A 9426  43.889  39.212   7.655
 6049POPC   C1B 9427  43.913  38.956   8.555
 6049POPC   C2B 9428  43.861  38.963   8.255
 6049POPC   C3B 9429  43.932  39.010   7.955
 6049POPC   C4B 9430  43.919  38.956   7.655
 6050POPC   NC3 9431  33.070  21.345   9.455
 6050POPC   PO4 9432  32.994  21.338   9.155
 6050POPC   GL1 9433  33.059  21.391   8.855
 6050POPC   GL2 9434  33.071  21.250   8.855
 6050POPC   C1A 9435  33.046  21.373   8.555
 6050POPC   D2A 9436  33.020  21.434   8.255
 6050POPC   C3A 9437  33.024  21.435   7.955
 6050POPC   C4A 9438  33.037  21.346   7.655
 6050POPC   C1B 9439  33.121  21.189   8.555
 6050POPC   C2B 9440  33.131  21.162   8.255
 6050POPC   C3B 9441  33.106  21.164   7.955
 6050POPC   C4B 9442  33.115  21.216   7.655
 6051POPC   NC3 9443  29.103   5.093   9.455
 6051POPC   PO4 9444  29.101   5.141   9.155
 6051POPC   GL1 9445  29.123   5.118   8.855
 6051POPC   GL2 9446  28.995   5.056   8.855
 6051POPC   C1A 9447  29.124   5.130   8.555
 6051POPC   D2A 9448  29.140   5.117   8.255
 6051POPC   C3A 9449  29.106   5.065   7.955
 6051POPC   C4A 9450  29.127   5.095   7.655
 6051POPC   C1B 9451  28.867   5.032   8.555
 6051POPC   C2B 9452  28.920   5.001   8.255
 6051POPC   C3B 9453  28.940   5.022   7.955
 6051POPC   C4B 9454  28.947   5.065   7.655
 6052POPC   NC3 9455   9.711  41.576   9.455
 6052POPC   PO4 9456   9.774  41.528   9.155
 6052POPC   GL1 9457   9.732  41.520   8.855
 6052POPC   GL2 9458   9.865  41.664   8.855
 6052POPC   C1A 9459   9.785  41.579   8.555
 6052POPC   D2A 9460   9.761  41.565   8.255
 6052POPC   C3A 9461   9.701  41.545   7.955
 6052POPC   C4A 9462   9.774  41.557   7.655
 6052POPC   C1B 9463   9.995  41.688   8.555
 6052POPC   C2B 9464   9.969  41.726   8.255
 6052POPC   C3B 9465   9.948  41.710   7.955
 6052POPC   C4B 9466   9.951  41.675   7.655
 6053POPC   NC3 9467   4.314  13.622   9.455
 6053POPC   PO4 9468   4.329  13.653   9.155
 6053POPC   GL1 9469   4.347  13.629   8.855
 6053POPC   GL2 9470   4.345  13.466   8.855
 6053POPC   C1A 9471   4.267  13.581   8.555
 6053POPC   D2A 9472   4.346  13.603   8.255
 6053POPC   C3A 9473   4.272  13.666   7.955
 6053POPC   C4A 9474   4.325  13.602   7.655
 6053POPC   C1B 9475   4.265  13.336   8.555
 6053POPC   C2B 9476   4.297  13.395   8.255
 6053POPC   C3B 9477   4.347  13.340   7.955
 6053POPC   C4B 9478   4.260  13.363   7.655
 6054POPC   NC3 9479  34.588   7.437   9.455
 6054POPC   PO4 9480  34.569   7.377   9.155
 6054POPC   GL1 9481  34.564   7.439   8.855
 6054POPC   GL2 9482  34.481   7.428   8.855
 6054POPC   C1A 9483  34.618   7.457   8.555
 6054POPC   D2A 9484  34.565   7.387   8.255
 6054POPC   C3A 9485  34.560   7.440   7.955
 6054POPC   C4A 9486  34.561   7.381   7.655
 6054POPC   C1B 9487  34.363   7.447   8.555
 6054POPC   C2B 9488  34.317   7.500   8.255
 6054POPC   C3B 9489  34.369   7.465   7.955
 6054POPC   C4B 9490  34.343   7.510   7.655
 6055POPC   NC3 9491  24.472  30.695   9.455
 6055POPC   PO4 9492  24.475  30.695   9.155
 6055POPC   GL1 9493  24.535  30.742   8.855
 6055POPC   GL2 9494  24.577  30.655   8.855
 6055POPC   C1A 9495  24.483  30.703   8.555
 6055POPC   D2A 9496  24.492  30.667   8.255
 6055POPC   C3A 9497  24.451  30.744   7.955
 6055POPC   C4A 9498  24.513  30.678   7.655
 6055POPC   C1B 9499  24.747  30.597   8.555
 6055POPC   C2B 9500  24.740  30.581   8.255
 6055POPC   C3B 9501  24.713  30.618   7.955
 6055POPC   C4B 9502  24.686  30.593   7.655
 6056POPC   NC3 9503  43.149  31.433   9.455
 6056POPC   PO4 9504  43.125  31.488   9.155
 6056POPC   GL1 9505  43.115  31.490   8.855
 6056POPC   GL2 9506  43.193  31.492   8.855
 6056POPC   C1A 9507  43.067  31.492   8.555
 6056POPC   D2A 9508  43.115  31.512   8.255
 6056POPC   C3A 9509  43.099  31.455   7.955
 6056POPC   C4A 9510  43.066  31.495   7.655
 6056POPC   C1B 9511  43.315  31.552   8.555
 6056POPC   C2B 9512  43.317  31.583   8.255
 6056POPC   C3B 9513  43.325  31.594   7.955
 6056POPC   C4B 9514  43.343  31.574   7.655
 6057POPC   NC3 9515   1.239   7.463   9.455
 6057POPC   PO4 9516   1.181   7.448   9.155
 6057POPC   GL1 9517   1.258   7.435   8.855
 6057POPC   GL2 9518   1.077   7.437   8.855
 6057POPC   C1A 9519   1.189   7.399   8.555
 6057POPC   D2A 9520   1.197   7.437   8.255
 6057POPC   C3A 9521   1.259   7.431   7.955
 6057POPC   C4A 9522   1.215   7.390   7.655
 6057POPC   C1B 9523   0.962   7.431   8.555
 6057POPC   C2B 9524   0.977   7.430   8.255
 6057POPC   C3B 9525   1.014   7.426   7.955
 6057POPC   C4B 9526   0.944   7.373   7.655
 6058POPC   NC3 9527  29.928  12.049   9.455
 6058POPC   PO4 9528  29.969  12.067   9.155
 6058POPC   GL1 9529  29.933  12.078   8.855
 6058POPC   GL2 9530  29.853  12.155   8.855
 6058POPC   C1A 9531  29.953  12.125   8.555
 6058POPC   D2A 9532  29.876  12.077   8.255
 6058POPC   C3A 9533  29.872  12.044   7.955
 6058POPC   C4A 9534  29.943  12.033   7.655
 6058POPC   C1B 9535  29.793  12.240   8.555
 6058POPC   C2B 9536  29.796  12.235   8.255
 6058POPC   C3B 9537  29.742  12.274   7.955
 6058POPC   C4B 9538  29.781  12.255   7.655
 6059POPC   NC3 9539  21.412  14.429   9.455
 6059POPC   PO4 9540  21.384  14.362   9.155
 6059POPC   GL1 9541  21.396  14.450   8.855
 6059POPC   GL2 9542  21.279  14.512   8.855
 6059POPC   C1A 9543  21.364  14.451   8.555
 6059POPC   D2A 9544  21.370  14.367   8.255
 6059POPC   C3A 9545  21.342  14.360   7.955
 6059POPC   C4A 9546  21.412  14.413   7.655
 6059POPC   C1B 9547  21.204  14.558   8.555
 6059POPC   C2B 9548  21.214  14.611   8.255
 6059POPC   C3B 9549  21.188  14.558   7.955
 6059POPC   C4B 9550  21.176  14.595   7.655
 6060POPC   NC3 9551  32.281  14.363   9.455
 6060POPC   PO4 9552  32.259  14.373   9.155
 6060POPC   GL1 9553  32.242  14.416   8.855
 6060POPC   GL2 9554  32.297  14.319   8.855
 6060POPC   C1A 9555  32.289  14.400   8.555
 6060POPC   D2A 9556  32.249  14.367   8.255
 6060POPC   C3A 9557  32.215  14.444   7.955
 6060POPC   C4A 9558  32.247  14.372   7.655
 6060POPC   C1B 9559  32.353  14.148   8.555
 6060POPC   C2B 9560  32.407  14.154   8.255
 6060POPC   C3B 9561  32.347  14.187   7.955
 6060POPC   C4B 9562  32.317  14.152   7.655
 6061POPC   NC3 9563  16.779   5.856   9.455
 6061POPC   PO4 9564  16.688   5.845   9.155
 6061POPC   GL1 9565  16.687   5.842   8.855
 6061POPC   GL2 9566  16.816   5.883   8.855
 6061POPC   C1A 9567  16.747   5.829   8.555
 6061POPC   D2A 9568  16.717   5.898   8.255
 6061POPC   C3A 9569  16.685   5.826   7.955
 6061POPC   C4A 9570  16.758   5.823   7.655
 6061POPC   C1B 9571  16.974   5.842   8.555
 6061POPC   C2B 9572  16.946   5.772   8.255
 6061POPC   C3B 9573  16.984   5.770   7.955
 6061POPC   C4B 9574  16.946   5.772   7.655
 6062POPC   NC3 9575   8.181  22.987   9.455
 6062POPC   PO4 9576   8.245  22.939   9.155
 6062POPC   GL1 9577   8.234  22.907   8.855
 6062POPC   GL2 9578   8.243  22.797   8.855
 6062POPC   C1A 9579   8.197  22.906   8.555
 6062POPC   D2A 9580   8.184  22.958   8.255
 6062POPC   C3A 9581   8.238  22.901   7.955
 6062POPC   C4A 9582   8.188  22.924   7.655
 6062POPC   C1B 9583   8.212  22.728   8.555
 6062POPC   C2B 9584   8.212  22.716   8.255
 6062POPC   C3B 9585   8.270  22.685   7.955
 6062POPC   C4B 9586   8.286  22.662   7.655
 6063POPC   NC3 9587   3.512   9.782   9.455
 6063POPC   PO4 9588   3.518   9.741   9.155
 6063POPC   GL1 9589   3.536   9.795   8.855
 6063POPC   GL2 9590   3.646   9.876   8.855
 6063POPC   C1A 9591   3.583   9.798   8.555
 6063POPC   D2A 9592   3.560   9.744   8.255
 6063POPC   C3A 9593   3.532   9.737   7.955
 6063POPC   C4A 9594   3.576   9.739   7.655
 6063POPC   C1B 9595   3.748   9.914   8.555
 6063POPC   C2B 9596   3.692   9.942   8.255
 6063POPC   C3B 9597   3.730   9.929   7.955
 6063POPC   C4B 9598   3.677   9.970   7.655
 6064POPC   NC3 9599  39.960  29.912   9.455
 6064POPC   PO4 9600  39.965  29.929   9.155
 6064POPC   GL1 9601  40.011  29.906   8.855
 6064POPC   GL2 9602  40.136  29.842   8.855
 6064POPC   C1A 9603  40.010  29.880   8.555
 6064POPC   D2A 9604  40.051  29.900   8.255
 6064POPC   C3A 9605  40.040  29.910   7.955
 6064POPC   C4A 9606  39.973  29.968   7.655
 6064POPC   C1B 9607  40.241  29.730   8.555
 6064POPC   C2B 9608  40.199  29.789   8.255
 6064POPC   C3B 9609  40.167  29.769   7.955
 6064POPC   C4B 9610  40.173  29.796   7.655
 6065POPC   NC3 9611  28.324  32.278   9.455
 6065POPC   PO4 9612  28.412  32.230   9.155
 6065POPC   GL1 9613  28.412  32.249   8.855
 6065POPC   GL2 9614  28.489  32.354   8.855
 6065POPC   C1A 9615  28.348  32.292   8.555
 6065POPC   D2A 9616  28.371  32.275   8.255
 6065POPC   C3A 9617  28.409  32.206   7.955
 6065POPC   C4A 9618  28.365  32.268   7.655
 6065POPC   C1B 9619  28.593  32.423   8.555
 6065POPC   C2B 9620  28.596  32.431   8.255
 6065POPC   C3B 9621  28.543  32.426   7.955
 6065POPC   C4B 9622  28.607  32.378   7.655
 6066POPC   NC3 9623  43.109  27.599   9.455
 6066POPC   PO4 9624  43.101  27.624   9.155
 6066POPC   GL1 9625  43.139  27.580   8.855
 6066POPC   GL2 9626  43.147  27.689   8.855
 6066POPC   C1A 9627  43.136  27.585   8.555
 6066POPC   D2A 9628  43.069  27.639   8.255
 6066POPC   C3A 9629  43.078  27.546   7.955
 6066POPC   C4A 9630  43.118  27.585   7.655
 6066POPC   C1B 9631  43.141  27.814   8.555
 6066POPC   C2B 9632  43.146  27.838   8.255
 6066POPC   C3B 9633  43.126  27.817   7.955
 6066POPC   C4B 9634  43.124  27.879   7.655
 6067POPC   NC3 9635   0.463  42.317   9.455
 6067POPC   PO4 9636   0.471  42.358   9.155
 6067POPC   GL1 9637   0.422  42.288   8.855
 6067POPC   GL2 9638   0.501  42.411   8.855
 6067POPC   C1A 9639   0.458  42.383   8.555
 6067POPC   D2A 9640   0.412  42.337   8.255
 6067POPC   C3A 9641   0.394  42.364   7.955
 6067POPC   C4A 9642   0.464  42.365   7.655
 6067POPC   C1B 9643   0.601  42.502   8.555
 6067POPC   C2B 9644   0.673  42.489   8.255
 6067POPC   C3B 9645   0.678  42.526   7.955
 6067POPC   C4B 9646   0.672  42.524   7.655
 6068POPC   NC3 9647  28.379  41.573   9.455
 6068POPC   PO4 9648  28.371  41.548   9.155
 6068POPC   GL1 9649  28.402  41.552   8.855
 6068POPC   GL2 9650  28.500  41.589   8.855
 6068POPC   C1A 9651  28.321  41.602   8.555
 6068POPC   D2A 9652  28.390  41.582   8.255
 6068POPC   C3A 9653  28.417  41.582   7.955
 6068POPC   C4A 9654  28.338  41.607   7.655
 6068POPC   C1B 9655  28.562  41.709   8.555
 6068POPC   C2B 9656  28.580  41.663   8.255
 6068POPC   C3B 9657  28.554  41.673   7.955
 6068POPC   C4B 9658  28.630  41.660   7.655
 6069POPC   NC3 9659  36.910   5.858   9.455
 6069POPC   PO4 9660  36.864   5.862   9.155
 6069POPC   GL1 9661  36.951   5.886   8.855
 6069POPC   GL2 9662  36.797   5.769   8.855
 6069POPC   C1A 9663  36.953   5.841   8.555
 6069POPC   D2A 9664  36.913   5.899   8.255
 6069POPC   C3A 9665  36.864   5.890   7.955
 6069POPC   C4A 9666  36.862   5.913   7.655
 6069POPC   C1B 9667  36.769   5.687   8.555
 6069POPC   C2B 9668  36.740   5.670   8.255
 6069POPC   C3B 9669  36.775   5.706   7.955
 6069POPC   C4B 9670  36.808   5.664   7.655
 6070POPC   NC3 9671  35.377   9.736   9.455
 6070POPC   PO4 9672  35.320   9.727   9.155
 6070POPC   GL1 9673  35.354   9.723   8.855
 6070POPC   GL2 9674  35.236   9.663   8.855
 6070POPC   C1A 9675  35.362   9.715   8.555
 6070POPC   D2A 9676  35.345   9.709   8.255
 6070POPC   C3A 9677  35.390   9.770   7.955
 6070POPC   C4A 9678  35.303   9.788   7.655
 6070POPC   C1B 9679  35.094   9.619   8.555
 6070POPC   C2B 9680  35.176   9.589   8.255
 6070POPC   C3B 9681  35.118   9.634   7.955
 6070POPC   C4B 9682  35.108   9.613   7.655
 6071POPC   NC3 9683  14.408  39.275   9.455
 6071POPC   PO4 9684  14.420  39.204   9.155
 6071POPC   GL1 9685  14.409  39.236   8.855
 6071POPC   GL2 9686  14.292  39.228   8.855
 6071POPC   C1A 9687  14.396  39.217   8.555
 6071POPC   D2A 9688  14.419  39.229   8.255
 6071POPC   C3A 9689  14.410  39.183   7.955
 6071POPC   C4A 9690  14.413  39.222   7.655
 6071POPC   C1B 9691  14.189  39.287   8.555
 6071POPC   C2B 9692  14.116  39.285   8.255
 6071POPC   C3B 9693  14.141  39.234   7.955
 6071POPC   C4B 9694  14.204  39.278   7.655
 6072POPC   NC3 9695   3.572  12.887   9.455
 6072POPC   PO4 9696   3.554  12.836   9.155
 6072POPC   GL1 9697   3.544  12.831   8.855
 6072POPC   GL2 9698   3.457  12.947   8.855
 6072POPC   C1A 9699   3.577  12.881   8.555
 6072POPC   D2A 9700   3.496  12.837   8.255
 6072POPC   C3A 9701   3.532  12.898   7.955
 6072POPC   C4A 9702   3.540  12.820   7.655
 6072POPC   C1B 9703   3.356  12.996   8.555
 6072POPC   C2B 9704   3.353  12.960   8.255
 6072POPC   C3B 9705   3.330  13.001   7.955
 6072POPC   C4B 9706   3.300  13.005   7.655
 6073POPC   NC3 9707  17.490  28.389   9.455
 6073POPC   PO4 9708  17.530  28.367   9.155
 6073POPC   GL1 9709  17.531  28.346   8.855
 6073POPC   GL2 9710  17.629  28.401   8.855
 6073POPC   C1A 9711  17.553  28.408   8.555
 6073POPC   D2A 9712  17.526  28.373   8.255
 6073POPC   C3A 9713  17.488  28.377   7.955
 6073POPC   C4A 9714  17.533  28.355   7.655
 6073POPC   C1B 9715  17.691  28.528   8.555
 6073POPC   C2B 9716  17.669  28.544   8.255
 6073POPC   C3B 9717  17.708  28.551   7.955
 6073POPC   C4B 9718  17.726  28.547   7.655
 6074POPC   NC3 9719  21.435  44.629   9.455
 6074POPC   PO4 9720  21.386  44.709   9.155
 6074POPC   GL1 9721  21.350  44.648   8.855
 6074POPC   GL2 9722  21.421  44.753   8.855
 6074POPC   C1A 9723  21.369  44.662   8.555
 6074POPC   D2A 9724  21.381  44.670   8.255
 6074POPC   C3A 9725  21.341  44.688   7.955
 6074POPC   C4A 9726  21.418  44.649   7.655
 6074POPC   C1B 9727  21.516  44.827   8.555
 6074POPC   C2B 9728  21.582  44.819   8.255
 6074POPC   C3B 9729  21.527  44.839   7.955
 6074POPC   C4B 9730  21.558  44.892   7.655
 6075POPC   NC3 9731  29.939  40.050   9.455
 6075POPC   PO4 9732  29.902  39.968   9.155
 6075POPC   GL1 9733  29.907  39.976   8.855
 6075POPC   GL2 9734  30.042  40.088   8.855
 6075POPC   C1A 9735  29.949  40.002   8.555
 6075POPC   D2A 9736  29.875  39.957   8.255
 6075POPC   C3A 9737  29.916  40.049   7.955
 6075POPC   C4A 9738  29.920  40.002   7.655
 6075POPC   C1B 9739  30.139  40.053   8.555
 6075POPC   C2B 9740  30.144  40.085   8.255
 6075POPC   C3B 9741  30.194  40.041   7.955
 6075POPC   C4B 9742  30.145  40.095   7.655
 6076POPC   NC3 9743  17.539  14.447   9.455
 6076POPC   PO4 9744  17.505  14.417   9.155
 6076POPC   GL1 9745  17.515  14.449   8.855
 6076POPC   GL2 9746  17.431  14.343   8.855
 6076POPC   C1A 9747  17.498  14.383   8.555
 6076POPC   D2A 9748  17.507  14.360   8.255
 6076POPC   C3A 9749  17.498  14.358   7.955
 6076POPC   C4A 9750  17.465  14.388   7.655
 6076POPC   C1B 9751  17.239  14.326   8.555
 6076POPC   C2B 9752  17.238  14.282   8.255
 6076POPC   C3B 9753  17.254  14.298   7.955
 6076POPC   C4B 9754  17.235  14.329   7.655
 6077POPC   NC3 9755  44.692  40.011   9.455
 6077POPC   PO4 9756  44.622  39.965   9.155
 6077POPC   GL1 9757  44.673  40.023   8.855
 6077POPC   GL2 9758  44.743  39.970   8.855
 6077POPC   C1A 9759  44.680  39.993   8.555
 6077POPC   D2A 9760  44.651  40.035   8.255
 6077POPC   C3A 9761  44.667  40.023   7.955
 6077POPC   C4A 9762  44.645  39.966   7.655
 6077POPC   C1B 9763  44.861  39.903   8.555
 6077POPC   C2B 9764  44.875  39.919   8.255
 6077POPC   C3B 9765  44.863  39.893   7.955
 6077POPC   C4B 9766  44.905  39.912   7.655
 6078POPC   NC3 9767  16.700   8.984   9.455
 6078POPC   PO4 9768  16.775   9.005   9.155
 6078POPC   GL1 9769  16.706   9.014   8.855
 6078POPC   GL2 9770  16.673   8.811   8.855
 6078POPC   C1A 9771  16.737   8.971   8.555
 6078POPC   D2A 9772  16.753   8.987   8.255
 6078POPC   C3A 9773  16.744   8.966   7.955
 6078POPC   C4A 9774  16.712   8.926   7.655
 6078POPC   C1B 9775  16.688   8.759   8.555
 6078POPC   C2B 9776  16.684   8.701   8.255
 6078POPC   C3B 9777  16.667   8.683   7.955
 6078POPC   C4B 9778  16.640   8.693   7.655
 6079POPC   NC3 9779  30.732  17.556   9.455
 6079POPC   PO4 9780  30.734  17.502   9.155
 6079POPC   GL1 9781  30.677  17.511   8.855
 6079POPC   GL2 9782  30.609  17.600   8.855
 6079POPC   C1A 9783  30.728  17.549   8.555
 6079POPC   D2A 9784  30.712  17.481   8.255
 6079POPC   C3A 9785  30.703  17.475   7.955
 6079POPC   C4A 9786  30.711  17.529   7.655
 6079POPC   C1B 9787  30.556  17.685   8.555
 6079POPC   C2B 9788  30.564  17.732   8.255
 6079POPC   C3B 9789  30.529  17.690   7.955
 6079POPC   C4B 9790  30.505  17.669   7.655
 6080POPC   NC3 9791  23.720  24.534   9.455
 6080POPC   PO4 9792  23.701  24.485   9.155
 6080POPC   GL1 9793  23.725  24.477   8.855
 6080POPC   GL2 9794  23.865  24.487   8.855
 6080POPC   C1A 9795  23.694  24.507   8.555
 6080POPC   D2A 9796  23.723  24.442   8.255
 6080POPC   C3A 9797  23.718  24.517   7.955
 6080POPC   C4A 9798  23.727  24.458   7.655
 6080POPC   C1B 9799  23.913  24.522   8.555
 6080POPC   C2B 9800  23.993  24.539   8.255
 6080POPC   C3B 9801  23.910  24.545   7.955
 6080POPC   C4B 9802  23.937  24.548   7.655
 6081POPC   NC3 9803  38.429   7.391   9.455
 6081POPC   PO4 9804  38.424   7.452   9.155
 6081POPC   GL1 9805  38.454   7.446   8.855
 6081POPC   GL2 9806  38.542   7.369   8.855
 6081POPC   C1A 9807  38.487   7.437   8.555
 6081POPC   D2A 9808  38.474   7.457   8.255
 6081POPC   C3A 9809  38.495   7.405   7.955
 6081POPC   C4A 9810  38.504   7.435   7.655
 6081POPC   C1B 9811  38.694   7.269   8.555
 6081POPC   C2B 9812  38.673   7.317   8.255
 6081POPC   C3B 9813  38.622   7.263   7.955
 6081POPC   C4B 9814  38.701   7.250   7.655
 6082POPC   NC3 9815  14.451  28.378   9.455
 6082POPC   PO4 9816  14.379  28.412   9.155
 6082POPC   GL1 9817  14.408  28.391   8.855
 6082POPC   GL2 9818  14.350  28.433   8.855
 6082POPC   C1A 9819  14.414  28.360   8.555
 6082POPC   D2A 9820  14.424  28.412   8.255
 6082POPC   C3A 9821  14.402  28.332   7.955
 6082POPC   C4A 9822  14.369  28.330   7.655
 6082POPC   C1B 9823  14.231  28.534   8.555
 6082POPC   C2B 9824  14.286  28.569   8.255
 6082POPC   C3B 9825  14.280  28.561   7.955
 6082POPC   C4B 9826  14.200  28.543   7.655
 6083POPC   NC3 9827  14.422  23.695   9.455
 6083POPC   PO4 9828  14.437  23.730   9.155
 6083POPC   GL1 9829  14.366  23.753   8.855
 6083POPC   GL2 9830  14.398  23.785   8.855
 6083POPC   C1A 9831  14.436  23.727   8.555
 6083POPC   D2A 9832  14.389  23.755   8.255
 6083POPC   C3A 9833  14.434  23.728   7.955
 6083POPC   C4A 9834  14.438  23.716   7.655
 6083POPC   C1B 9835  14.515  23.905   8.555
 6083POPC   C2B 9836  14.501  23.964   8.255
 6083POPC   C3B 9837  14.506  23.940   7.955
 6083POPC   C4B 9838  14.482  23.960   7.655
 6084POPC   NC3 9839  35.323  13.673   9.455
 6084POPC   PO4 9840  35.304  13.628   9.155
 6084POPC   GL1 9841  35.302  13.598   8.855
 6084POPC   GL2 9842  35.364  13.496   8.855
 6084POPC   C1A 9843  35.399  13.627   8.555
 6084POPC   D2A 9844  35.382  13.583   8.255
 6084POPC   C3A 9845  35.351  13.585   7.955
 6084POPC   C4A 9846  35.314  13.597   7.655
 6084POPC   C1B 9847  35.418  13.427   8.555
 6084POPC   C2B 9848  35.402  13.413   8.255
 6084POPC   C3B 9849  35.412  13.402   7.955
 6084POPC   C4B 9850  35.397  13.376   7.655
 6085POPC   NC3 9851   1.257  29.151   9.455
 6085POPC   PO4 9852   1.213  29.150   9.155
 6085POPC   GL1 9853   1.232  29.099   8.855
 6085POPC   GL2 9854   1.252  29.281   8.855
 6085POPC   C1A 9855   1.233  29.129   8.555
 6085POPC   D2A 9856   1.202  29.103   8.255
 6085POPC   C3A 9857   1.257  29.110   7.955
 6085POPC   C4A 9858   1.201  29.175   7.655
 6085POPC   C1B 9859   1.313  29.341   8.555
 6085POPC   C2B 9860   1.377  29.338   8.255
 6085POPC   C3B 9861   1.364  29.336   7.955
 6085POPC   C4B 9862   1.320  29.368   7.655
 6086POPC   NC3 9863   9.705  18.319   9.455
 6086POPC   PO4 9864   9.797  18.243   9.155
 6086POPC   GL1 9865   9.774  18.306   8.855
 6086POPC   GL2 9866   9.645  18.227   8.855
 6086POPC   C1A 9867   9.772  18.285   8.555
 6086POPC   D2A 9868   9.792  18.236   8.255
 6086POPC   C3A 9869   9.718  18.280   7.955
 6086POPC   C4A 9870   9.757  18.333   7.655
 6086POPC   C1B 9871   9.465  18.207   8.555
 6086POPC   C2B 9872   9.485  18.199   8.255
 6086POPC   C3B 9873   9.552  18.216   7.955
 6086POPC   C4B 9874   9.507  18.202   7.655
 6087POPC   NC3 9875   5.089  22.127   9.455
 6087POPC   PO4 9876   5.092  22.122   9.155
 6087POPC   GL1 9877   5.093  22.171   8.855
 6087POPC   GL2 9878   5.090  22.033   8.855
 6087POPC   C1A 9879   5.050  22.135   8.555
 6087POPC   D2A 9880   5.053  22.176   8.255
 6087POPC   C3A 9881   5.143  22.148   7.955
 6087POPC   C4A 9882   5.093  22.124   7.655
 6087POPC   C1B 9883   4.943  21.935   8.555
 6087POPC   C2B 9884   5.009  21.984   8.255
 6087POPC   C3B 9885   4.994  21.934   7.955
 6087POPC   C4B 9886   4.993  21.887   7.655
 6088POPC   NC3 9887  44.677  23.708   9.455
 6088POPC   PO4 9888  44.681  23.668   9.155
 6088POPC   GL1 9889  44.711  23.762   8.855
 6088POPC   GL2 9890  44.619  23.568   8.855
 6088POPC   C1A 9891  44.664  23.741   8.555
 6088POPC   D2A 9892  44.652  23.720   8.255
 6088POPC   C3A 9893  44.692  23.698   7.955
 6088POPC   C4A 9894  44.613  23.722   7.655
 6088POPC   C1B 9895  44.644  23.509   8.555
 6088POPC   C2B 9896  44.656  23.488   8.255
 6088POPC   C3B 9897  44.593  23.512   7.955
 6088POPC   C4B 9898  44.622  23.453   7.655
 6089POPC   NC3 9899   0.460  29.116   9.455
 6089POPC   PO4 9900   0.403  29.171   9.155
 6089POPC   GL1 9901   0.438  29.195   8.855
 6089POPC   GL2 9902   0.475  29.243   8.855
 6089POPC   C1A 9903   0.433  29.101   8.555
 6089POPC   D2A 9904   0.414  29.109   8.255
 6089POPC   C3A 9905   0.429  29.132   7.955
 6089POPC   C4A 9906   0.474  29.180   7.655
 6089POPC   C1B 9907   0.452  29.373   8.555
 6089POPC   C2B 9908   0.490  29.355   8.255
 6089POPC   C3B 9909   0.509  29.366   7.955
 6089POPC   C4B 9910   0.463  29.354   7.655
 6090POPC   NC3 9911  19.859  16.771   9.455
 6090POPC   PO4 9912  19.826  16.723   9.155
 6090POPC   GL1 9913  19.844  16.775   8.855
 6090POPC   GL2 9914  19.979  16.748   8.855
 6090POPC   C1A 9915  19.865  16.727   8.555
 6090POPC   D2A 9916  19.821  16.691   8.255
 6090POPC   C3A 9917  19.830  16.779   7.955
 6090POPC   C4A 9918  19.793  16.717   7.655
 6090POPC   C1B 9919  20.048  16.816   8.555
 6090POPC   C2B 9920  20.098  16.862   8.255
 6090POPC   C3B 9921  20.104  16.804   7.955
 6090POPC   C4B 9922  20.093  16.806   7.655
 6091POPC   NC3 9923   8.157   2.722   9.455
 6091POPC   PO4 9924   8.176   2.754   9.155
 6091POPC   GL1 9925   8.160   2.777   8.855
 6091POPC   GL2 9926   8.281   2.829   8.855
 6091POPC   C1A 9927   8.211   2.789   8.555
 6091POPC   D2A 9928   8.241   2.777   8.255
 6091POPC   C3A 9929   8.147   2.751   7.955
 6091POPC   C4A 9930   8.192   2.740   7.655
 6091POPC   C1B 9931   8.344   3.015   8.555
 6091POPC   C2B 9932   8.350   2.984   8.255
 6091POPC   C3B 9933   8.338   2.998   7.955
 6091POPC   C4B 9934   8.313   3.007   7.655
 6092POPC   NC3 9935   2.750  33.063   9.455
 6092POPC   PO4 9936   2.800  33.053   9.155
 6092POPC   GL1 9937   2.814  32.988   8.855
 6092POPC   GL2 9938   2.754  33.093   8.855
 6092POPC   C1A 9939   2.717  33.022   8.555
 6092POPC   D2A 9940   2.737  32.998   8.255
 6092POPC   C3A 9941   2.790  32.998   7.955
 6092POPC   C4A 9942   2.716  33.027   7.655
 6092POPC   C1B 9943   2.695  33.271   8.555
 6092POPC   C2B 9944   2.675  33.260   8.255
 6092POPC   C3B 9945   2.711  33.265   7.955
 6092POPC   C4B 9946   2.669  33.262   7.655
 6093POPC   NC3 9947  35.342  21.435   9.455
 6093POPC   PO4 9948  35.376  21.345   9.155
 6093POPC   GL1 9949  35.314  21.429   8.855
 6093POPC   GL2 9950  35.297  21.482   8.855
 6093POPC   C1A 9951  35.314  21.370   8.555
 6093POPC   D2A 9952  35.390  21.356   8.255
 6093POPC   C3A 9953  35.397  21.434   7.955
 6093POPC   C4A 9954  35.364  21.435   7.655
 6093POPC   C1B 9955  35.232  21.665   8.555
 6093POPC   C2B 9956  35.306  21.588   8.255
 6093POPC   C3B 9957  35.285  21.593   7.955
 6093POPC   C4B 9958  35.310  21.636   7.655
 6094POPC   NC3 9959  26.036  26.782   9.455
 6094POPC   PO4 9960  26.085  26.771   9.155
 6094POPC   GL1 9961  26.036  26.823   8.855
 6094POPC   GL2 9962  26.119  26.929   8.855
 6094POPC   C1A 9963  26.034  26.780   8.555
 6094POPC   D2A 9964  25.991  26.811   8.255
 6094POPC   C3A 9965  26.037  26.793   7.955
 6094POPC   C4A 9966  26.049  26.792   7.655
 6094POPC   C1B 9967  26.169  27.034   8.555
 6094POPC   C2B 9968  26.171  27.014   8.255
 6094POPC   C3B 9969  26.193  27.040   7.955
 6094POPC   C4B 9970  26.193  27.065   7.655
 6095POPC   NC3 9971  36.140  41.549   9.455
 6095POPC   PO4 9972  36.132  41.538   9.155
 6095POPC   GL1 9973  36.085  41.602   8.855
 6095POPC   GL2 9974  35.970  41.561   8.855
 6095POPC   C1A 9975  36.133  41.510   8.555
 6095POPC   D2A 9976  36.144  41.581   8.255
 6095POPC   C3A 9977  36.108  41.522   7.955
 6095POPC   C4A 9978  36.127  41.593   7.655
 6095POPC   C1B 9979  35.927  41.614   8.555
 6095POPC   C2B 9980  35.894  41.571   8.255
 6095POPC   C3B 9981  35.877  41.584   7.955
 6095POPC   C4B 9982  35.906  41.592   7.655
 6096POPC   NC3 9983  23.673  26.787   9.455
 6096POPC   PO4 9984  23.740  26.803   9.155
 6096POPC   GL1 9985  23.674  26.820   8.855
 6096POPC   GL2 9986  23.868  26.769   8.855
 6096POPC   C1A 9987  23.736  26.866   8.555
 6096POPC   D2A 9988  23.701  26.806   8.255
 6096POPC   C3A 9989  23.675  26.806   7.955
 6096POPC   C4A 9990  23.674  26.809   7.655
 6096POPC   C1B 9991  23.968  26.729   8.555
 6096POPC   C2B 9992  23.967  26.778   8.255
 6096POPC   C3B 9993  24.005  26.760   7.955
 6096POPC   C4B 9994  23.981  26.793   7.655
 6097POPC   NC3 9995   9.712   1.248   9.455
 6097POPC   PO4 9996   9.744   1.258   9.155
 6097POPC   GL1 9997   9.707   1.260   8.855
 6097POPC   GL2 9998   9.899   1.146   8.855
 6097POPC   C1A 9999   9.736   1.240   8.555
 6097POPC   D2A10000   9.774   1.175   8.255
 6097POPC   C3A10001   9.724   1.233   7.955
 6097POPC   C4A10002   9.729   1.175   7.655
 6097POPC   C1B10003   9.916   1.027   8.555
 6097POPC   C2B10004   9.955   1.069   8.255
 6097POPC   C3B10005   9.975   1.024   7.955
 6097POPC   C4B10006   9.954   1.022   7.655
 6098POPC   NC310007  24.495  44.710   9.455
 6098POPC   PO410008  24.484  44.631   9.155
 6098POPC   GL110009  24.467  44.658   8.855
 6098POPC   GL210010  24.588  44.671   8.855
 6098POPC   C1A10011  24.467  44.625   8.555
 6098POPC   D2A10012  24.496  44.636   8.255
 6098POPC   C3A10013  24.480  44.629   7.955
 6098POPC   C4A10014  24.486  44.647   7.655
 6098POPC   C1B10015  24.739  44.753   8.555
 6098POPC   C2B10016  24.710  44.746   8.255
 6098POPC   C3B10017  24.769  44.754   7.955
 6098POPC   C4B10018  24.726  44.717   7.655
 6099POPC   NC310019  18.252  32.269   9.455
 6099POPC   PO410020  18.255  32.209   9.155
 6099POPC   GL110021  18.322  32.241   8.855
 6099POPC   GL210022  18.217  32.157   8.855
 6099POPC   C1A10023  18.272  32.204   8.555
 6099POPC   D2A10024  18.332  32.227   8.255
 6099POPC   C3A10025  18.270  32.297   7.955
 6099POPC   C4A10026  18.264  32.297   7.655
 6099POPC   C1B10027  18.277  32.006   8.555
 6099POPC   C2B10028  18.267  31.959   8.255
 6099POPC   C3B10029  18.274  31.976   7.955
 6099POPC   C4B10030  18.270  32.049   7.655
 6100POPC   NC310031  30.655  21.402   9.455
 6100POPC   PO410032  30.733  21.412   9.155
 6100POPC   GL110033  30.730  21.346   8.855
 6100POPC   GL210034  30.760  21.498   8.855
 6100POPC   C1A10035  30.736  21.355   8.555
 6100POPC   D2A10036  30.745  21.425   8.255
 6100POPC   C3A10037  30.747  21.338   7.955
 6100POPC   C4A10038  30.728  21.398   7.655
 6100POPC   C1B10039  30.818  21.639   8.555
 6100POPC   C2B10040  30.826  21.622   8.255
 6100POPC   C3B10041  30.746  21.633   7.955
 6100POPC   C4B10042  30.829  21.652   7.655
 6101POPC   NC310043  21.379  30.648   9.455
 6101POPC   PO410044  21.359  30.710   9.155
 6101POPC   GL110045  21.400  30.734   8.855
 6101POPC   GL210046  21.489  30.698   8.855
 6101POPC   C1A10047  21.339  30.661   8.555
 6101POPC   D2A10048  21.366  30.736   8.255
 6101POPC   C3A10049  21.426  30.660   7.955
 6101POPC   C4A10050  21.423  30.708   7.655
 6101POPC   C1B10051  21.580  30.581   8.555
 6101POPC   C2B10052  21.633  30.646   8.255
 6101POPC   C3B10053  21.605  30.596   7.955
 6101POPC   C4B10054  21.598  30.604   7.655
 6102POPC   NC310055   5.833  22.906   9.455
 6102POPC   PO410056   5.908  22.968   9.155
 6102POPC   GL110057   5.850  22.975   8.855
 6102POPC   GL210058   5.836  22.835   8.855
 6102POPC   C1A10059   5.888  22.905   8.555
 6102POPC   D2A10060   5.888  22.896   8.255
 6102POPC   C3A10061   5.838  22.955   7.955
 6102POPC   C4A10062   5.822  22.913   7.655
 6102POPC   C1B10063   5.764  22.660   8.555
 6102POPC   C2B10064   5.767  22.726   8.255
 6102POPC   C3B10065   5.853  22.650   7.955
 6102POPC   C4B10066   5.816  22.729   7.655
 6103POPC   NC310067  12.866  33.830   9.455
 6103POPC   PO410068  12.862  33.846   9.155
 6103POPC   GL110069  12.846  33.846   8.855
 6103POPC   GL210070  12.932  33.892   8.855
 6103POPC   C1A10071  12.854  33.795   8.555
 6103POPC   D2A10072  12.889  33.814   8.255
 6103POPC   C3A10073  12.876  33.845   7.955
 6103POPC   C4A10074  12.806  33.786   7.655
 6103POPC   C1B10075  13.047  33.901   8.555
 6103POPC   C2B10076  13.117  33.934   8.255
 6103POPC   C3B10077  13.046  33.888   7.955
 6103POPC   C4B10078  13.103  33.929   7.655
 6104POPC   NC310079   3.533  33.045   9.455
 6104POPC   PO410080   3.517  33.004   9.155
 6104POPC   GL110081   3.514  33.040   8.855
 6104POPC   GL210082   3.536  33.147   8.855
 6104POPC   C1A10083   3.590  33.066   8.555
 6104POPC   D2A10084   3.511  33.058   8.255
 6104POPC   C3A10085   3.514  33.058   7.955
 6104POPC   C4A10086   3.498  33.047   7.655
 6104POPC   C1B10087   3.560  33.220   8.555
 6104POPC   C2B10088   3.587  33.259   8.255
 6104POPC   C3B10089   3.564  33.283   7.955
 6104POPC   C4B10090   3.552  33.303   7.655
 6105POPC   NC310091  25.240  31.481   9.455
 6105POPC   PO410092  25.308  31.493   9.155
 6105POPC   GL110093  25.267  31.456   8.855
 6105POPC   GL210094  25.418  31.538   8.855
 6105POPC   C1A10095  25.303  31.440   8.555
 6105POPC   D2A10096  25.291  31.424   8.255
 6105POPC   C3A10097  25.268  31.496   7.955
 6105POPC   C4A10098  25.261  31.504   7.655
 6105POPC   C1B10099  25.477  31.618   8.555
 6105POPC   C2B10100  25.466  31.553   8.255
 6105POPC   C3B10101  25.458  31.592   7.955
 6105POPC   C4B10102  25.489  31.536   7.655
 6106POPC   NC310103  21.423   1.252   9.455
 6106POPC   PO410104  21.402   1.264   9.155
 6106POPC   GL110105  21.428   1.235   8.855
 6106POPC   GL210106  21.228   1.193   8.855
 6106POPC   C1A10107  21.393   1.226   8.555
 6106POPC   D2A10108  21.394   1.185   8.255
 6106POPC   C3A10109  21.418   1.235   7.955
 6106POPC   C4A10110  21.435   1.209   7.655
 6106POPC   C1B10111  21.161   1.202   8.555
 6106POPC   C2B10112  21.124   1.253   8.255
 6106POPC   C3B10113  21.146   1.241   7.955
 6106POPC   C4B10114  21.139   1.185   7.655
 6107POPC   NC310115   6.643  19.814   9.455
 6107POPC   PO410116   6.679  19.873   9.155
 6107POPC   GL110117   6.686  19.836   8.855
 6107POPC   GL210118   6.679  19.957   8.855
 6107POPC   C1A10119   6.681  19.785   8.555
 6107POPC   D2A10120   6.631  19.801   8.255
 6107POPC   C3A10121   6.663  19.849   7.955
 6107POPC   C4A10122   6.646  19.834   7.655
 6107POPC   C1B10123   6.751  20.050   8.555
 6107POPC   C2B10124   6.688  20.051   8.255
 6107POPC   C3B10125   6.708  20.088   7.955
 6107POPC   C4B10126   6.745  20.062   7.655
 6108POPC   NC310127  28.366   1.998   9.455
 6108POPC   PO410128  28.370   1.945   9.155
 6108POPC   GL110129  28.346   2.031   8.855
 6108POPC   GL210130  28.346   2.140   8.855
 6108POPC   C1A10131  28.390   2.026   8.555
 6108POPC   D2A10132  28.366   2.021   8.255
 6108POPC   C3A10133  28.347   2.037   7.955
 6108POPC   C4A10134  28.389   2.000   7.655
 6108POPC   C1B10135  28.360   2.216   8.555
 6108POPC   C2B10136  28.412   2.192   8.255
 6108POPC   C3B10137  28.392   2.271   7.955
 6108POPC   C4B10138  28.430   2.283   7.655
 6109POPC   NC310139  13.646  16.714   9.455
 6109POPC   PO410140  13.625  16.690   9.155
 6109POPC   GL110141  13.661  16.721   8.855
 6109POPC   GL210142  13.615  16.617   8.855
 6109POPC   C1A10143  13.610  16.712   8.555
 6109POPC   D2A10144  13.635  16.735   8.255
 6109POPC   C3A10145  13.617  16.713   7.955
 6109POPC   C4A10146  13.638  16.718   7.655
 6109POPC   C1B10147  13.513  16.472   8.555
 6109POPC   C2B10148  13.508  16.485   8.255
 6109POPC   C3B10149  13.480  16.508   7.955
 6109POPC   C4B10150  13.501  16.533   7.655
 6110POPC   NC310151  28.408   7.412   9.455
 6110POPC   PO410152  28.361   7.432   9.155
 6110POPC   GL110153  28.340   7.385   8.855
 6110POPC   GL210154  28.419   7.486   8.855
 6110POPC   C1A10155  28.329   7.403   8.555
 6110POPC   D2A10156  28.359   7.419   8.255
 6110POPC   C3A10157  28.326   7.443   7.955
 6110POPC   C4A10158  28.390   7.468   7.655
 6110POPC   C1B10159  28.495   7.647   8.555
 6110POPC   C2B10160  28.510   7.683   8.255
 6110POPC   C3B10161  28.502   7.612   7.955
 6110POPC   C4B10162  28.488   7.646   7.655
 6111POPC   NC310163   9.700   2.031   9.455
 6111POPC   PO410164   9.760   2.029   9.155
 6111POPC   GL110165   9.754   1.981   8.855
 6111POPC   GL210166   9.589   1.979   8.855
 6111POPC   C1A10167   9.754   1.976   8.555
 6111POPC   D2A10168   9.779   1.959   8.255
 6111POPC   C3A10169   9.728   1.957   7.955
 6111POPC   C4A10170   9.739   2.018   7.655
 6111POPC   C1B10171   9.525   2.001   8.555
 6111POPC   C2B10172   9.544   2.020   8.255
 6111POPC   C3B10173   9.466   2.016   7.955
 6111POPC   C4B10174   9.514   2.035   7.655
 6112POPC   NC310175  24.505   8.954   9.455
 6112POPC   PO410176  24.536   8.975   9.155
 6112POPC   GL110177  24.467   8.984   8.855
 6112POPC   GL210178  24.498   8.825   8.855
 6112POPC   C1A10179  24.500   9.003   8.555
 6112POPC   D2A10180  24.517   9.018   8.255
 6112POPC   C3A10181  24.459   8.970   7.955
 6112POPC   C4A10182  24.462   8.927   7.655
 6112POPC   C1B10183  24.475   8.720   8.555
 6112POPC   C2B10184  24.504   8.757   8.255
 6112POPC   C3B10185  24.467   8.690   7.955
 6112POPC   C4B10186  24.497   8.749   7.655
 6113POPC   NC310187   7.455  39.251   9.455
 6113POPC   PO410188   7.447  39.191   9.155
 6113POPC   GL110189   7.428  39.198   8.855
 6113POPC   GL210190   7.313  39.299   8.855
 6113POPC   C1A10191   7.381  39.245   8.555
 6113POPC   D2A10192   7.427  39.269   8.255
 6113POPC   C3A10193   7.377  39.257   7.955
 6113POPC   C4A10194   7.400  39.247   7.655
 6113POPC   C1B10195   7.132  39.322   8.555
 6113POPC   C2B10196   7.172  39.330   8.255
 6113POPC   C3B10197   7.151  39.268   7.955
 6113POPC   C4B10198   7.149  39.347   7.655
 6114POPC   NC310199   4.300   4.360   9.455
 6114POPC   PO410200   4.294   4.317   9.155
 6114POPC   GL110201   4.282   4.331   8.855
 6114POPC   GL210202   4.332   4.429   8.855
 6114POPC   C1A10203   4.272   4.302   8.555
 6114POPC   D2A10204   4.275   4.283   8.255
 6114POPC   C3A10205   4.332   4.300   7.955
 6114POPC   C4A10206   4.361   4.286   7.655
 6114POPC   C1B10207   4.266   4.546   8.555
 6114POPC   C2B10208   4.343   4.577   8.255
 6114POPC   C3B10209   4.273   4.616   7.955
 6114POPC   C4B10210   4.285   4.535   7.655
 6115POPC   NC310211  37.699  25.282   9.455
 6115POPC   PO410212  37.635  25.244   9.155
 6115POPC   GL110213  37.656  25.264   8.855
 6115POPC   GL210214  37.556  25.275   8.855
 6115POPC   C1A10215  37.710  25.306   8.555
 6115POPC   D2A10216  37.708  25.228   8.255
 6115POPC   C3A10217  37.683  25.234   7.955
 6115POPC   C4A10218  37.690  25.301   7.655
 6115POPC   C1B10219  37.426  25.386   8.555
 6115POPC   C2B10220  37.406  25.355   8.255
 6115POPC   C3B10221  37.419  25.390   7.955
 6115POPC   C4B10222  37.483  25.390   7.655
 6116POPC   NC310223  39.958   9.794   9.455
 6116POPC   PO410224  39.994   9.699   9.155
 6116POPC   GL110225  40.003   9.745   8.855
 6116POPC   GL210226  40.078   9.880   8.855
 6116POPC   C1A10227  39.992   9.769   8.555
 6116POPC   D2A10228  40.053   9.715   8.255
 6116POPC   C3A10229  40.016   9.719   7.955
 6116POPC   C4A10230  39.970   9.783   7.655
 6116POPC   C1B10231  40.192   9.951   8.555
 6116POPC   C2B10232  40.227   9.940   8.255
 6116POPC   C3B10233  40.147   9.955   7.955
 6116POPC   C4B10234  40.201   9.872   7.655
 6117POPC   NC310235  41.564  23.743   9.455
 6117POPC   PO410236  41.607  23.761   9.155
 6117POPC   GL110237  41.592  23.680   8.855
 6117POPC   GL210238  41.524  23.816   8.855
 6117POPC   C1A10239  41.597  23.683   8.555
 6117POPC   D2A10240  41.599  23.759   8.255
 6117POPC   C3A10241  41.556  23.722   7.955
 6117POPC   C4A10242  41.601  23.729   7.655
 6117POPC   C1B10243  41.430  23.909   8.555
 6117POPC   C2B10244  41.447  23.911   8.255
 6117POPC   C3B10245  41.379  23.943   7.955
 6117POPC   C4B10246  41.446  23.925   7.655
 6118POPC   NC310247  17.499  29.943   9.455
 6118POPC   PO410248  17.462  29.944   9.155
 6118POPC   GL110249  17.481  29.946   8.855
 6118POPC   GL210250  17.617  30.044   8.855
 6118POPC   C1A10251  17.551  29.899   8.555
 6118POPC   D2A10252  17.539  29.875   8.255
 6118POPC   C3A10253  17.515  29.900   7.955
 6118POPC   C4A10254  17.521  29.970   7.655
 6118POPC   C1B10255  17.723  30.077   8.555
 6118POPC   C2B10256  17.729  30.070   8.255
 6118POPC   C3B10257  17.655  30.089   7.955
 6118POPC   C4B10258  17.666  30.058   7.655
 6119POPC   NC310259  13.664  15.993   9.455
 6119POPC   PO410260  13.660  15.999   9.155
 6119POPC   GL110261  13.663  15.933   8.855
 6119POPC   GL210262  13.727  16.000   8.855
 6119POPC   C1A10263  13.624  15.987   8.555
 6119POPC   D2A10264  13.617  15.908   8.255
 6119POPC   C3A10265  13.589  15.939   7.955
 6119POPC   C4A10266  13.605  15.987   7.655
 6119POPC   C1B10267  13.837  16.097   8.555
 6119POPC   C2B10268  13.824  16.131   8.255
 6119POPC   C3B10269  13.800  16.081   7.955
 6119POPC   C4B10270  13.875  16.130   7.655
 6120POPC   NC310271  12.892  11.320   9.455
 6120POPC   PO410272  12.819  11.297   9.155
 6120POPC   GL110273  12.894  11.321   8.855
 6120POPC   GL210274  12.687  11.293   8.855
 6120POPC   C1A10275  12.880  11.349   8.555
 6120POPC   D2A10276  12.840  11.315   8.255
 6120POPC   C3A10277  12.871  11.267   7.955
 6120POPC   C4A10278  12.861  11.344   7.655
 6120POPC   C1B10279  12.650  11.245   8.555
 6120POPC   C2B10280  12.597  11.293   8.255
 6120POPC   C3B10281  12.629  11.243   7.955
 6120POPC   C4B10282  12.637  11.258   7.655
 6121POPC   NC310283  29.900  36.860   9.455
 6121POPC   PO410284  29.875  36.878   9.155
 6121POPC   GL110285  29.931  36.939   8.855
 6121POPC   GL210286  30.043  36.828   8.855
 6121POPC   C1A10287  29.909  36.942   8.555
 6121POPC   D2A10288  29.895  36.859   8.255
 6121POPC   C3A10289  29.957  36.877   7.955
 6121POPC   C4A10290  29.928  36.924   7.655
 6121POPC   C1B10291  30.132  36.819   8.555
 6121POPC   C2B10292  30.167  36.792   8.255
 6121POPC   C3B10293  30.142  36.759   7.955
 6121POPC   C4B10294  30.174  36.761   7.655
 6122POPC   NC310295   5.917  22.170   9.455
 6122POPC   PO410296   5.902  22.162   9.155
 6122POPC   GL110297   5.912  22.131   8.855
 6122POPC   GL210298   6.011  22.223   8.855
 6122POPC   C1A10299   5.892  22.171   8.555
 6122POPC   D2A10300   5.861  22.152   8.255
 6122POPC   C3A10301   5.883  22.115   7.955
 6122POPC   C4A10302   5.829  22.196   7.655
 6122POPC   C1B10303   6.114  22.325   8.555
 6122POPC   C2B10304   6.044  22.342   8.255
 6122POPC   C3B10305   6.072  22.268   7.955
 6122POPC   C4B10306   6.084  22.298   7.655
 6123POPC   NC310307  27.560  22.135   9.455
 6123POPC   PO410308  27.570  22.174   9.155
 6123POPC   GL110309  27.544  22.208   8.855
 6123POPC   GL210310  27.441  22.140   8.855
 6123POPC   C1A10311  27.599  22.150   8.555
 6123POPC   D2A10312  27.553  22.126   8.255
 6123POPC   C3A10313  27.568  22.150   7.955
 6123POPC   C4A10314  27.588  22.156   7.655
 6123POPC   C1B10315  27.321  22.159   8.555
 6123POPC   C2B10316  27.321  22.201   8.255
 6123POPC   C3B10317  27.313  22.156   7.955
 6123POPC   C4B10318  27.343  22.144   7.655
 6124POPC   NC310319  31.461   2.764   9.455
 6124POPC   PO410320  31.441   2.803   9.155
 6124POPC   GL110321  31.423   2.758   8.855
 6124POPC   GL210322  31.496   2.846   8.855
 6124POPC   C1A10323  31.480   2.730   8.555
 6124POPC   D2A10324  31.483   2.800   8.255
 6124POPC   C3A10325  31.490   2.806   7.955
 6124POPC   C4A10326  31.490   2.774   7.655
 6124POPC   C1B10327  31.518   2.986   8.555
 6124POPC   C2B10328  31.587   2.958   8.255
 6124POPC   C3B10329  31.500   2.965   7.955
 6124POPC   C4B10330  31.579   3.026   7.655
 6125POPC   NC310331  26.791  22.917   9.455
 6125POPC   PO410332  26.778  22.936   9.155
 6125POPC   GL110333  26.829  22.892   8.855
 6125POPC   GL210334  26.724  22.886   8.855
 6125POPC   C1A10335  26.836  22.902   8.555
 6125POPC   D2A10336  26.778  22.944   8.255
 6125POPC   C3A10337  26.775  22.898   7.955
 6125POPC   C4A10338  26.801  22.900   7.655
 6125POPC   C1B10339  26.617  22.877   8.555
 6125POPC   C2B10340  26.525  22.902   8.255
 6125POPC   C3B10341  26.570  22.959   7.955
 6125POPC   C4B10342  26.587  22.904   7.655
 6126POPC   NC310343  40.815  26.022   9.455
 6126POPC   PO410344  40.788  26.072   9.155
 6126POPC   GL110345  40.735  26.041   8.855
 6126POPC   GL210346  40.706  25.875   8.855
 6126POPC   C1A10347  40.822  26.046   8.555
 6126POPC   D2A10348  40.771  26.076   8.255
 6126POPC   C3A10349  40.746  26.009   7.955
 6126POPC   C4A10350  40.752  26.025   7.655
 6126POPC   C1B10351  40.678  25.810   8.555
 6126POPC   C2B10352  40.713  25.850   8.255
 6126POPC   C3B10353  40.702  25.838   7.955
 6126POPC   C4B10354  40.760  25.836   7.655
 6127POPC   NC310355  43.895  33.758   9.455
 6127POPC   PO410356  43.914  33.826   9.155
 6127POPC   GL110357  43.876  33.843   8.855
 6127POPC   GL210358  44.023  33.841   8.855
 6127POPC   C1A10359  43.896  33.778   8.555
 6127POPC   D2A10360  43.860  33.821   8.255
 6127POPC   C3A10361  43.881  33.831   7.955
 6127POPC   C4A10362  43.921  33.751   7.655
 6127POPC   C1B10363  44.111  33.844   8.555
 6127POPC   C2B10364  44.149  33.820   8.255
 6127POPC   C3B10365  44.159  33.854   7.955
 6127POPC   C4B10366  44.107  33.893   7.655
 6128POPC   NC310367  41.516   8.938   9.455
 6128POPC   PO410368  41.570   8.925   9.155
 6128POPC   GL110369  41.582   8.983   8.855
 6128POPC   GL210370  41.499   8.868   8.855
 6128POPC   C1A10371  41.596   9.008   8.555
 6128POPC   D2A10372  41.578   8.955   8.255
 6128POPC   C3A10373  41.553   8.978   7.955
 6128POPC   C4A10374  41.514   8.972   7.655
 6128POPC   C1B10375  41.505   8.687   8.555
 6128POPC   C2B10376  41.554   8.766   8.255
 6128POPC   C3B10377  41.489   8.756   7.955
 6128POPC   C4B10378  41.572   8.769   7.655
 6129POPC   NC310379  43.125  26.084   9.455
 6129POPC   PO410380  43.140  26.079   9.155
 6129POPC   GL110381  43.103  26.055   8.855
 6129POPC   GL210382  43.163  25.918   8.855
 6129POPC   C1A10383  43.066  26.068   8.555
 6129POPC   D2A10384  43.147  26.024   8.255
 6129POPC   C3A10385  43.090  26.069   7.955
 6129POPC   C4A10386  43.084  26.047   7.655
 6129POPC   C1B10387  43.131  25.816   8.555
 6129POPC   C2B10388  43.178  25.799   8.255
 6129POPC   C3B10389  43.117  25.822   7.955
 6129POPC   C4B10390  43.196  25.817   7.655
 6130POPC   NC310391  40.030  10.550   9.455
 6130POPC   PO410392  39.974  10.560   9.155
 6130POPC   GL110393  39.968  10.513   8.855
 6130POPC   GL210394  39.953  10.611   8.855
 6130POPC   C1A10395  39.988  10.518   8.555
 6130POPC   D2A10396  40.044  10.499   8.255
 6130POPC   C3A10397  40.034  10.560   7.955
 6130POPC   C4A10398  40.017  10.555   7.655
 6130POPC   C1B10399  39.836  10.726   8.555
 6130POPC   C2B10400  39.865  10.737   8.255
 6130POPC   C3B10401  39.836  10.720   7.955
 6130POPC   C4B10402  39.855  10.728   7.655
 6131POPC   NC310403   0.450  22.180   9.455
 6131POPC   PO410404   0.410  22.119   9.155
 6131POPC   GL110405   0.415  22.174   8.855
 6131POPC   GL210406   0.459  22.034   8.855
 6131POPC   C1A10407   0.427  22.121   8.555
 6131POPC   D2A10408   0.413  22.141   8.255
 6131POPC   C3A10409   0.410  22.148   7.955
 6131POPC   C4A10410   0.400  22.157   7.655
 6131POPC   C1B10411   0.414  21.879   8.555
 6131POPC   C2B10412   0.399  21.952   8.255
 6131POPC   C3B10413   0.401  21.926   7.955
 6131POPC   C4B10414   0.374  21.923   7.655
 6132POPC   NC310415   4.301  29.901   9.455
 6132POPC   PO410416   4.346  29.878   9.155
 6132POPC   GL110417   4.301  29.896   8.855
 6132POPC   GL210418   4.185  29.853   8.855
 6132POPC   C1A10419   4.298  29.940   8.555
 6132POPC   D2A10420   4.321  29.948   8.255
 6132POPC   C3A10421   4.339  29.922   7.955
 6132POPC   C4A10422   4.353  29.930   7.655
 6132POPC   C1B10423   4.126  29.706   8.555
 6132POPC   C2B10424   4.123  29.793   8.255
 6132POPC   C3B10425   4.150  29.734   7.955
 6132POPC   C4B10426   4.189  29.775   7.655
 6133POPC   NC310427  12.070  40.761   9.455
 6133POPC   PO410428  12.080  40.802   9.155
 6133POPC   GL110429  12.045  40.829   8.855
 6133POPC   GL210430  12.171  40.690   8.855
 6133POPC   C1A10431  12.115  40.744   8.555
 6133POPC   D2A10432  12.048  40.761   8.255
 6133POPC   C3A10433  12.058  40.771   7.955
 6133POPC   C4A10434  12.046  40.824   7.655
 6133POPC   C1B10435  12.283  40.654   8.555
 6133POPC   C2B10436  12.344  40.660   8.255
 6133POPC   C3B10437  12.273  40.630   7.955
 6133POPC   C4B10438  12.294  40.655   7.655
 6134POPC   NC310439  34.625  41.576   9.455
 6134POPC   PO410440  34.592  41.513   9.155
 6134POPC   GL110441  34.614  41.597   8.855
 6134POPC   GL210442  34.678  41.477   8.855
 6134POPC   C1A10443  34.546  41.545   8.555
 6134POPC   D2A10444  34.618  41.601   8.255
 6134POPC   C3A10445  34.585  41.608   7.955
 6134POPC   C4A10446  34.574  41.588   7.655
 6134POPC   C1B10447  34.793  41.435   8.555
 6134POPC   C2B10448  34.812  41.488   8.255
 6134POPC   C3B10449  34.795  41.475   7.955
 6134POPC   C4B10450  34.812  41.473   7.655
 6135POPC   NC310451  25.228   8.179   9.455
 6135POPC   PO410452  25.238   8.175   9.155
 6135POPC   GL110453  25.273   8.221   8.855
 6135POPC   GL210454  25.288   8.288   8.855
 6135POPC   C1A10455  25.295   8.174   8.555
 6135POPC   D2A10456  25.229   8.180   8.255
 6135POPC   C3A10457  25.251   8.182   7.955
 6135POPC   C4A10458  25.276   8.225   7.655
 6135POPC   C1B10459  25.315   8.435   8.555
 6135POPC   C2B10460  25.365   8.470   8.255
 6135POPC   C3B10461  25.306   8.487   7.955
 6135POPC   C4B10462  25.370   8.401   7.655
 6136POPC   NC310463  12.817  19.837   9.455
 6136POPC   PO410464  12.837  19.864   9.155
 6136POPC   GL110465  12.839  19.832   8.855
 6136POPC   GL210466  12.788  19.908   8.855
 6136POPC   C1A10467  12.827  19.841   8.555
 6136POPC   D2A10468  12.814  19.861   8.255
 6136POPC   C3A10469  12.873  19.808   7.955
 6136POPC   C4A10470  12.871  19.805   7.655
 6136POPC   C1B10471  12.711  19.996   8.555
 6136POPC   C2B10472  12.701  19.989   8.255
 6136POPC   C3B10473  12.695  19.988   7.955
 6136POPC   C4B10474  12.664  20.001   7.655
 6137POPC   NC310475  28.320  29.147   9.455
 6137POPC   PO410476  28.328  29.153   9.155
 6137POPC   GL110477  28.364  29.106   8.855
 6137POPC   GL210478  28.283  29.208   8.855
 6137POPC   C1A10479  28.408  29.110   8.555
 6137POPC   D2A10480  28.332  29.130   8.255
 6137POPC   C3A10481  28.334  29.131   7.955
 6137POPC   C4A10482  28.332  29.132   7.655
 6137POPC   C1B10483  28.145  29.189   8.555
 6137POPC   C2B10484  28.076  29.159   8.255
 6137POPC   C3B10485  28.146  29.149   7.955
 6137POPC   C4B10486  28.096  29.137   7.655
 6138POPC   NC310487  14.358  41.521   9.455
 6138POPC   PO410488  14.421  41.520   9.155
 6138POPC   GL110489  14.404  41.545   8.855
 6138POPC   GL210490  14.565  41.553   8.855
 6138POPC   C1A10491  14.409  41.590   8.555
 6138POPC   D2A10492  14.436  41.544   8.255
 6138POPC   C3A10493  14.428  41.606   7.955
 6138POPC   C4A10494  14.364  41.580   7.655
 6138POPC   C1B10495  14.622  41.582   8.555
 6138POPC   C2B10496  14.675  41.544   8.255
 6138POPC   C3B10497  14.626  41.570   7.955
 6138POPC   C4B10498  14.695  41.521   7.655
 6139POPC   NC310499  41.591  25.246   9.455
 6139POPC   PO410500  41.574  25.266   9.155
 6139POPC   GL110501  41.581  25.278   8.855
 6139POPC   GL210502  41.719  25.273   8.855
 6139POPC   C1A10503  41.532  25.300   8.555
 6139POPC   D2A10504  41.600  25.304   8.255
 6139POPC   C3A10505  41.596  25.299   7.955
 6139POPC   C4A10506  41.589  25.281   7.655
 6139POPC   C1B10507  41.833  25.284   8.555
 6139POPC   C2B10508  41.804  25.283   8.255
 6139POPC   C3B10509  41.793  25.235   7.955
 6139POPC   C4B10510  41.780  25.246   7.655
 6140POPC   NC310511  12.061  39.974   9.455
 6140POPC   PO410512  12.113  39.982   9.155
 6140POPC   GL110513  12.109  39.983   8.855
 6140POPC   GL210514  12.039  40.147   8.855
 6140POPC   C1A10515  12.076  39.962   8.555
 6140POPC   D2A10516  12.033  39.996   8.255
 6140POPC   C3A10517  12.034  40.040   7.955
 6140POPC   C4A10518  12.096  39.988   7.655
 6140POPC   C1B10519  12.067  40.207   8.555
 6140POPC   C2B10520  12.108  40.280   8.255
 6140POPC   C3B10521  12.077  40.269   7.955
 6140POPC   C4B10522  12.093  40.259   7.655
 6141POPC   NC310523  18.248  12.874   9.455
 6141POPC   PO410524  18.267  12.879   9.155
 6141POPC   GL110525  18.333  12.869   8.855
 6141POPC   GL210526  18.195  12.977   8.855
 6141POPC   C1A10527  18.234  12.802   8.555
 6141POPC   D2A10528  18.326  12.889   8.255
 6141POPC   C3A10529  18.235  12.889   7.955
 6141POPC   C4A10530  18.261  12.842   7.655
 6141POPC   C1B10531  18.172  13.045   8.555
 6141POPC   C2B10532  18.207  13.046   8.255
 6141POPC   C3B10533  18.140  13.084   7.955
 6141POPC   C4B10534  18.172  13.061   7.655
 6142POPC   NC310535  18.265  40.006   9.455
 6142POPC   PO410536  18.310  39.981   9.155
 6142POPC   GL110537  18.241  40.027   8.855
 6142POPC   GL210538  18.170  40.099   8.855
 6142POPC   C1A10539  18.269  39.981   8.555
 6142POPC   D2A10540  18.272  40.011   8.255
 6142POPC   C3A10541  18.297  39.994   7.955
 6142POPC   C4A10542  18.248  40.027   7.655
 6142POPC   C1B10543  18.108  40.221   8.555
 6142POPC   C2B10544  18.130  40.187   8.255
 6142POPC   C3B10545  18.137  40.173   7.955
 6142POPC   C4B10546  18.111  40.224   7.655
 6143POPC   NC310547  21.340   0.408   9.455
 6143POPC   PO410548  21.365   0.432   9.155
 6143POPC   GL110549  21.425   0.415   8.855
 6143POPC   GL210550  21.358   0.346   8.855
 6143POPC   C1A10551  21.355   0.477   8.555
 6143POPC   D2A10552  21.395   0.391   8.255
 6143POPC   C3A10553  21.362   0.410   7.955
 6143POPC   C4A10554  21.396   0.390   7.655
 6143POPC   C1B10555  21.339   0.185   8.555
 6143POPC   C2B10556  21.290   0.146   8.255
 6143POPC   C3B10557  21.381   0.231   7.955
 6143POPC   C4B10558  21.333   0.163   7.655
 6144POPC   NC310559  16.700  44.651   9.455
 6144POPC   PO410560  16.726  44.709   9.155
 6144POPC   GL110561  16.693  44.676   8.855
 6144POPC   GL210562  16.829  44.583   8.855
 6144POPC   C1A10563  16.732  44.667   8.555
 6144POPC   D2A10564  16.710  44.680   8.255
 6144POPC   C3A10565  16.770  44.656   7.955
 6144POPC   C4A10566  16.685  44.668   7.655
 6144POPC   C1B10567  17.007  44.563   8.555
 6144POPC   C2B10568  16.975  44.569   8.255
 6144POPC   C3B10569  16.971  44.580   7.955
 6144POPC   C4B10570  16.977  44.535   7.655
 6145POPC   NC310571  19.038  33.058   9.455
 6145POPC   PO410572  19.076  33.064   9.155
 6145POPC   GL110573  19.096  33.004   8.855
 6145POPC   GL210574  19.213  32.987   8.855
 6145POPC   C1A10575  19.057  32.999   8.555
 6145POPC   D2A10576  19.014  33.057   8.255
 6145POPC   C3A10577  19.071  33.016   7.955
 6145POPC   C4A10578  19.031  33.059   7.655
 6145POPC   C1B10579  19.241  32.917   8.555
 6145POPC   C2B10580  19.299  32.865   8.255
 6145POPC   C3B10581  19.306  32.878   7.955
 6145POPC   C4B10582  19.242  32.953   7.655
 6146POPC   NC310583  10.555  36.943   9.455
 6146POPC   PO410584  10.491  36.883   9.155
 6146POPC   GL110585  10.536  36.877   8.855
 6146POPC   GL210586  10.423  36.860   8.855
 6146POPC   C1A10587  10.475  36.890   8.555
 6146POPC   D2A10588  10.507  36.898   8.255
 6146POPC   C3A10589  10.509  36.891   7.955
 6146POPC   C4A10590  10.536  36.893   7.655
 6146POPC   C1B10591  10.323  36.760   8.555
 6146POPC   C2B10592  10.326  36.821   8.255
 6146POPC   C3B10593  10.269  36.755   7.955
 6146POPC   C4B10594  10.354  36.766   7.655
 6147POPC   NC310595  38.495  27.550   9.455
 6147POPC   PO410596  38.505  27.608   9.155
 6147POPC   GL110597  38.414  27.622   8.855
 6147POPC   GL210598  38.449  27.691   8.855
 6147POPC   C1A10599  38.460  27.582   8.555
 6147POPC   D2A10600  38.448  27.555   8.255
 6147POPC   C3A10601  38.484  27.640   7.955
 6147POPC   C4A10602  38.477  27.572   7.655
 6147POPC   C1B10603  38.517  27.848   8.555
 6147POPC   C2B10604  38.525  27.809   8.255
 6147POPC   C3B10605  38.455  27.801   7.955
 6147POPC   C4B10606  38.513  27.889   7.655
 6148POPC   NC310607   8.933  33.828   9.455
 6148POPC   PO410608   9.001  33.817   9.155
 6148POPC   GL110609   8.952  33.803   8.855
 6148POPC   GL210610   8.860  33.870   8.855
 6148POPC   C1A10611   8.985  33.803   8.555
 6148POPC   D2A10612   8.969  33.802   8.255
 6148POPC   C3A10613   9.001  33.758   7.955
 6148POPC   C4A10614   9.020  33.838   7.655
 6148POPC   C1B10615   8.816  33.985   8.555
 6148POPC   C2B10616   8.771  34.020   8.255
 6148POPC   C3B10617   8.786  34.019   7.955
 6148POPC   C4B10618   8.778  33.985   7.655
 6149POPC   NC310619  36.940   8.221   9.455
 6149POPC   PO410620  36.873   8.156   9.155
 6149POPC   GL110621  36.877   8.215   8.855
 6149POPC   GL210622  36.921   8.056   8.855
 6149POPC   C1A10623  36.940   8.186   8.555
 6149POPC   D2A10624  36.928   8.152   8.255
 6149POPC   C3A10625  36.948   8.179   7.955
 6149POPC   C4A10626  36.872   8.164   7.655
 6149POPC   C1B10627  36.960   7.936   8.555
 6149POPC   C2B10628  37.030   7.923   8.255
 6149POPC   C3B10629  37.013   8.003   7.955
 6149POPC   C4B10630  36.983   7.976   7.655
 6150POPC   NC310631  19.076  26.835   9.455
 6150POPC   PO410632  19.044  26.855   9.155
 6150POPC   GL110633  19.036  26.800   8.855
 6150POPC   GL210634  19.089  26.685   8.855
 6150POPC   C1A10635  19.099  26.789   8.555
 6150POPC   D2A10636  19.014  26.818   8.255
 6150POPC   C3A10637  19.066  26.860   7.955
 6150POPC   C4A10638  19.077  26.777   7.655
 6150POPC   C1B10639  19.164  26.537   8.555
 6150POPC   C2B10640  19.113  26.588   8.255
 6150POPC   C3B10641  19.081  26.603   7.955
 6150POPC   C4B10642  19.109  26.569   7.655
 6151POPC   NC310643  31.514   3.586   9.455
 6151POPC   PO410644  31.463   3.579   9.155
 6151POPC   GL110645  31.472   3.554   8.855
 6151POPC   GL210646  31.424   3.377   8.855
 6151POPC   C1A10647  31.504   3.535   8.555
 6151POPC   D2A10648  31.451   3.546   8.255
 6151POPC   C3A10649  31.488   3.528   7.955
 6151POPC   C4A10650  31.425   3.495   7.655
 6151POPC   C1B10651  31.440   3.297   8.555
 6151POPC   C2B10652  31.487   3.339   8.255
 6151POPC   C3B10653  31.447   3.319   7.955
 6151POPC   C4B10654  31.442   3.254   7.655
 6152POPC   NC310655  36.887  12.859   9.455
 6152POPC   PO410656  36.932  12.803   9.155
 6152POPC   GL110657  36.872  12.869   8.855
 6152POPC   GL210658  36.856  12.758   8.855
 6152POPC   C1A10659  36.936  12.813   8.555
 6152POPC   D2A10660  36.899  12.898   8.255
 6152POPC   C3A10661  36.931  12.838   7.955
 6152POPC   C4A10662  36.913  12.826   7.655
 6152POPC   C1B10663  36.783  12.712   8.555
 6152POPC   C2B10664  36.785  12.628   8.255
 6152POPC   C3B10665  36.758  12.641   7.955
 6152POPC   C4B10666  36.774  12.623   7.655
 6153POPC   NC310667  14.399  40.039   9.455
 6153POPC   PO410668  14.387  40.044   9.155
 6153POPC   GL110669  14.429  40.013   8.855
 6153POPC   GL210670  14.418  40.086   8.855
 6153POPC   C1A10671  14.442  40.018   8.555
 6153POPC   D2A10672  14.406  39.977   8.255
 6153POPC   C3A10673  14.354  39.963   7.955
 6153POPC   C4A10674  14.394  40.023   7.655
 6153POPC   C1B10675  14.415  40.234   8.555
 6153POPC   C2B10676  14.340  40.292   8.255
 6153POPC   C3B10677  14.387  40.277   7.955
 6153POPC   C4B10678  14.329  40.245   7.655
 6154POPC   NC310679  14.395  29.922   9.455
 6154POPC   PO410680  14.448  29.885   9.155
 6154POPC   GL110681  14.361  29.936   8.855
 6154POPC   GL210682  14.342  30.031   8.855
 6154POPC   C1A10683  14.408  29.930   8.555
 6154POPC   D2A10684  14.383  29.934   8.255
 6154POPC   C3A10685  14.367  29.923   7.955
 6154POPC   C4A10686  14.375  29.905   7.655
 6154POPC   C1B10687  14.412  30.126   8.555
 6154POPC   C2B10688  14.348  30.169   8.255
 6154POPC   C3B10689  14.340  30.173   7.955
 6154POPC   C4B10690  14.417  30.119   7.655
 6155POPC   NC310691  12.079  22.942   9.455
 6155POPC   PO410692  12.060  22.982   9.155
 6155POPC   GL110693  12.093  22.924   8.855
 6155POPC   GL210694  11.980  23.014   8.855
 6155POPC   C1A10695  12.084  22.926   8.555
 6155POPC   D2A10696  12.082  22.965   8.255
 6155POPC   C3A10697  12.110  22.972   7.955
 6155POPC   C4A10698  12.078  22.969   7.655
 6155POPC   C1B10699  11.847  23.017   8.555
 6155POPC   C2B10700  11.823  23.055   8.255
 6155POPC   C3B10701  11.834  23.068   7.955
 6155POPC   C4B10702  11.828  23.077   7.655
 6156POPC   NC310703  43.075  30.701   9.455
 6156POPC   PO410704  43.125  30.699   9.155
 6156POPC   GL110705  43.155  30.745   8.855
 6156POPC   GL210706  43.240  30.663   8.855
 6156POPC   C1A10707  43.082  30.650   8.555
 6156POPC   D2A10708  43.063  30.710   8.255
 6156POPC   C3A10709  43.135  30.723   7.955
 6156POPC   C4A10710  43.108  30.714   7.655
 6156POPC   C1B10711  43.336  30.674   8.555
 6156POPC   C2B10712  43.317  30.651   8.255
 6156POPC   C3B10713  43.397  30.728   7.955
 6156POPC   C4B10714  43.406  30.703   7.655
 6157POPC   NC310715  34.623  22.146   9.455
 6157POPC   PO410716  34.560  22.202   9.155
 6157POPC   GL110717  34.623  22.128   8.855
 6157POPC   GL210718  34.499  22.088   8.855
 6157POPC   C1A10719  34.548  22.162   8.555
 6157POPC   D2A10720  34.540  22.154   8.255
 6157POPC   C3A10721  34.548  22.210   7.955
 6157POPC   C4A10722  34.615  22.161   7.655
 6157POPC   C1B10723  34.452  21.956   8.555
 6157POPC   C2B10724  34.417  21.948   8.255
 6157POPC   C3B10725  34.396  21.982   7.955
 6157POPC   C4B10726  34.471  21.976   7.655
 6158POPC   NC310727  39.195  33.764   9.455
 6158POPC   PO410728  39.217  33.812   9.155
 6158POPC   GL110729  39.234  33.775   8.855
 6158POPC   GL210730  39.291  33.748   8.855
 6158POPC   C1A10731  39.214  33.811   8.555
 6158POPC   D2A10732  39.206  33.775   8.255
 6158POPC   C3A10733  39.254  33.837   7.955
 6158POPC   C4A10734  39.195  33.789   7.655
 6158POPC   C1B10735  39.380  33.591   8.555
 6158POPC   C2B10736  39.372  33.679   8.255
 6158POPC   C3B10737  39.398  33.626   7.955
 6158POPC   C4B10738  39.424  33.612   7.655
 6159POPC   NC310739  36.157  36.119   9.455
 6159POPC   PO410740  36.153  36.111   9.155
 6159POPC   GL110741  36.098  36.094   8.855
 6159POPC   GL210742  36.098  36.253   8.855
 6159POPC   C1A10743  36.164  36.119   8.555
 6159POPC   D2A10744  36.092  36.092   8.255
 6159POPC   C3A10745  36.099  36.082   7.955
 6159POPC   C4A10746  36.171  36.135   7.655
 6159POPC   C1B10747  36.057  36.392   8.555
 6159POPC   C2B10748  36.106  36.373   8.255
 6159POPC   C3B10749  36.107  36.342   7.955
 6159POPC   C4B10750  36.091  36.356   7.655
 6160POPC   NC310751  21.392  15.962   9.455
 6160POPC   PO410752  21.422  15.917   9.155
 6160POPC   GL110753  21.402  15.968   8.855
 6160POPC   GL210754  21.220  15.981   8.855
 6160POPC   C1A10755  21.404  15.950   8.555
 6160POPC   D2A10756  21.380  15.956   8.255
 6160POPC   C3A10757  21.422  15.961   7.955
 6160POPC   C4A10758  21.385  15.965   7.655
 6160POPC   C1B10759  21.178  15.899   8.555
 6160POPC   C2B10760  21.166  15.941   8.255
 6160POPC   C3B10761  21.160  15.964   7.955
 6160POPC   C4B10762  21.096  15.872   7.655
 6161POPC   NC310763  13.676  27.624   9.455
 6161POPC   PO410764  13.586  27.626   9.155
 6161POPC   GL110765  13.610  27.617   8.855
 6161POPC   GL210766  13.720  27.466   8.855
 6161POPC   C1A10767  13.600  27.612   8.555
 6161POPC   D2A10768  13.637  27.549   8.255
 6161POPC   C3A10769  13.669  27.604   7.955
 6161POPC   C4A10770  13.677  27.560   7.655
 6161POPC   C1B10771  13.707  27.380   8.555
 6161POPC   C2B10772  13.707  27.358   8.255
 6161POPC   C3B10773  13.763  27.400   7.955
 6161POPC   C4B10774  13.720  27.347   7.655
 6162POPC   NC310775  36.886  27.568   9.455
 6162POPC   PO410776  36.949  27.607   9.155
 6162POPC   GL110777  36.883  27.565   8.855
 6162POPC   GL210778  36.990  27.678   8.855
 6162POPC   C1A10779  36.918  27.643   8.555
 6162POPC   D2A10780  36.911  27.615   8.255
 6162POPC   C3A10781  36.949  27.612   7.955
 6162POPC   C4A10782  36.903  27.570   7.655
 6162POPC   C1B10783  37.139  27.724   8.555
 6162POPC   C2B10784  37.088  27.705   8.255
 6162POPC   C3B10785  37.176  27.696   7.955
 6162POPC   C4B10786  37.179  27.667   7.655
 6163POPC   NC310787  17.540  29.180   9.455
 6163POPC   PO410788  17.512  29.112   9.155
 6163POPC   GL110789  17.546  29.169   8.855
 6163POPC   GL210790  17.456  29.087   8.855
 6163POPC   C1A10791  17.462  29.148   8.555
 6163POPC   D2A10792  17.489  29.155   8.255
 6163POPC   C3A10793  17.497  29.132   7.955
 6163POPC   C4A10794  17.536  29.189   7.655
 6163POPC   C1B10795  17.358  28.932   8.555
 6163POPC   C2B10796  17.363  29.018   8.255
 6163POPC   C3B10797  17.316  28.976   7.955
 6163POPC   C4B10798  17.367  28.967   7.655
 6164POPC   NC310799  15.998  11.311   9.455
 6164POPC   PO410800  15.990  11.322   9.155
 6164POPC   GL110801  15.946  11.309   8.855
 6164POPC   GL210802  15.944  11.408   8.855
 6164POPC   C1A10803  15.956  11.254   8.555
 6164POPC   D2A10804  15.999  11.294   8.255
 6164POPC   C3A10805  15.991  11.342   7.955
 6164POPC   C4A10806  15.964  11.337   7.655
 6164POPC   C1B10807  16.036  11.577   8.555
 6164POPC   C2B10808  16.009  11.569   8.255
 6164POPC   C3B10809  15.950  11.566   7.955
 6164POPC   C4B10810  15.991  11.570   7.655
 6165POPC   NC310811   8.234  30.727   9.455
 6165POPC   PO410812   8.193  30.711   9.155
 6165POPC   GL110813   8.235  30.719   8.855
 6165POPC   GL210814   8.130  30.555   8.855
 6165POPC   C1A10815   8.173  30.725   8.555
 6165POPC   D2A10816   8.175  30.731   8.255
 6165POPC   C3A10817   8.190  30.700   7.955
 6165POPC   C4A10818   8.151  30.681   7.655
 6165POPC   C1B10819   8.156  30.411   8.555
 6165POPC   C2B10820   8.197  30.406   8.255
 6165POPC   C3B10821   8.200  30.490   7.955
 6165POPC   C4B10822   8.143  30.411   7.655
 6166POPC   NC310823  13.578  12.896   9.455
 6166POPC   PO410824  13.650  12.859   9.155
 6166POPC   GL110825  13.667  12.806   8.855
 6166POPC   GL210826  13.554  12.765   8.855
 6166POPC   C1A10827  13.675  12.892   8.555
 6166POPC   D2A10828  13.671  12.857   8.255
 6166POPC   C3A10829  13.673  12.864   7.955
 6166POPC   C4A10830  13.594  12.878   7.655
 6166POPC   C1B10831  13.463  12.735   8.555
 6166POPC   C2B10832  13.463  12.693   8.255
 6166POPC   C3B10833  13.423  12.716   7.955
 6166POPC   C4B10834  13.446  12.659   7.655
 6167POPC   NC310835  30.712   1.169   9.455
 6167POPC   PO410836  30.724   1.251   9.155
 6167POPC   GL110837  30.734   1.231   8.855
 6167POPC   GL210838  30.563   1.262   8.855
 6167POPC   C1A10839  30.684   1.164   8.555
 6167POPC   D2A10840  30.651   1.235   8.255
 6167POPC   C3A10841  30.674   1.242   7.955
 6167POPC   C4A10842  30.650   1.166   7.655
 6167POPC   C1B10843  30.436   1.340   8.555
 6167POPC   C2B10844  30.475   1.256   8.255
 6167POPC   C3B10845  30.483   1.302   7.955
 6167POPC   C4B10846  30.421   1.269   7.655
 6168POPC   NC310847  19.870  29.923   9.455
 6168POPC   PO410848  19.802  29.937   9.155
 6168POPC   GL110849  19.810  29.909   8.855
 6168POPC   GL210850  19.888  29.769   8.855
 6168POPC   C1A10851  19.857  29.952   8.555
 6168POPC   D2A10852  19.867  29.904   8.255
 6168POPC   C3A10853  19.799  29.969   7.955
 6168POPC   C4A10854  19.848  29.901   7.655
 6168POPC   C1B10855  19.854  29.683   8.555
 6168POPC   C2B10856  19.901  29.635   8.255
 6168POPC   C3B10857  19.835  29.687   7.955
 6168POPC   C4B10858  19.858  29.714   7.655
 6169POPC   NC310859  15.185  34.582   9.455
 6169POPC   PO410860  15.172  34.562   9.155
 6169POPC   GL110861  15.205  34.547   8.855
 6169POPC   GL210862  15.125  34.518   8.855
 6169POPC   C1A10863  15.143  34.616   8.555
 6169POPC   D2A10864  15.165  34.611   8.255
 6169POPC   C3A10865  15.183  34.605   7.955
 6169POPC   C4A10866  15.170  34.598   7.655
 6169POPC   C1B10867  14.957  34.442   8.555
 6169POPC   C2B10868  14.949  34.438   8.255
 6169POPC   C3B10869  15.000  34.374   7.955
 6169POPC   C4B10870  15.043  34.416   7.655
 6170POPC   NC310871  17.487  40.735   9.455
 6170POPC   PO410872  17.538  40.766   9.155
 6170POPC   GL110873  17.504  40.819   8.855
 6170POPC   GL210874  17.475  40.611   8.855
 6170POPC   C1A10875  17.489  40.774   8.555
 6170POPC   D2A10876  17.533  40.781   8.255
 6170POPC   C3A10877  17.503  40.749   7.955
 6170POPC   C4A10878  17.461  40.739   7.655
 6170POPC   C1B10879  17.420  40.538   8.555
 6170POPC   C2B10880  17.459  40.500   8.255
 6170POPC   C3B10881  17.487  40.554   7.955
 6170POPC   C4B10882  17.458  40.487   7.655
 6171POPC   NC310883   5.879  21.404   9.455
 6171POPC   PO410884   5.900  21.377   9.155
 6171POPC   GL110885   5.912  21.392   8.855
 6171POPC   GL210886   5.815  21.479   8.855
 6171POPC   C1A10887   5.854  21.409   8.555
 6171POPC   D2A10888   5.838  21.411   8.255
 6171POPC   C3A10889   5.829  21.365   7.955
 6171POPC   C4A10890   5.863  21.360   7.655
 6171POPC   C1B10891   5.685  21.582   8.555
 6171POPC   C2B10892   5.657  21.574   8.255
 6171POPC   C3B10893   5.695  21.507   7.955
 6171POPC   C4B10894   5.715  21.534   7.655
 6172POPC   NC310895  20.621  26.823   9.455
 6172POPC   PO410896  20.608  26.771   9.155
 6172POPC   GL110897  20.600  26.848   8.855
 6172POPC   GL210898  20.532  26.906   8.855
 6172POPC   C1A10899  20.640  26.801   8.555
 6172POPC   D2A10900  20.581  26.810   8.255
 6172POPC   C3A10901  20.571  26.796   7.955
 6172POPC   C4A10902  20.614  26.806   7.655
 6172POPC   C1B10903  20.398  26.923   8.555
 6172POPC   C2B10904  20.409  26.959   8.255
 6172POPC   C3B10905  20.429  26.882   7.955
 6172POPC   C4B10906  20.417  26.922   7.655
 6173POPC   NC310907  43.137  29.180   9.455
 6173POPC   PO410908  43.107  29.115   9.155
 6173POPC   GL110909  43.149  29.177   8.855
 6173POPC   GL210910  43.010  29.093   8.855
 6173POPC   C1A10911  43.069  29.174   8.555
 6173POPC   D2A10912  43.074  29.145   8.255
 6173POPC   C3A10913  43.090  29.111   7.955
 6173POPC   C4A10914  43.060  29.152   7.655
 6173POPC   C1B10915  42.883  28.953   8.555
 6173POPC   C2B10916  42.885  28.999   8.255
 6173POPC   C3B10917  42.928  29.016   7.955
 6173POPC   C4B10918  42.909  28.941   7.655
 6174POPC   NC310919  36.162  15.938   9.455
 6174POPC   PO410920  36.167  15.975   9.155
 6174POPC   GL110921  36.138  15.928   8.855
 6174POPC   GL210922  36.036  16.001   8.855
 6174POPC   C1A10923  36.120  15.940   8.555
 6174POPC   D2A10924  36.081  15.941   8.255
 6174POPC   C3A10925  36.115  15.946   7.955
 6174POPC   C4A10926  36.158  15.972   7.655
 6174POPC   C1B10927  35.833  15.970   8.555
 6174POPC   C2B10928  35.906  15.942   8.255
 6174POPC   C3B10929  35.835  16.034   7.955
 6174POPC   C4B10930  35.867  16.003   7.655
 6175POPC   NC310931   4.287  18.313   9.455
 6175POPC   PO410932   4.320  18.311   9.155
 6175POPC   GL110933   4.339  18.250   8.855
 6175POPC   GL210934   4.218  18.259   8.855
 6175POPC   C1A10935   4.338  18.316   8.555
 6175POPC   D2A10936   4.288  18.314   8.255
 6175POPC   C3A10937   4.280  18.259   7.955
 6175POPC   C4A10938   4.337  18.289   7.655
 6175POPC   C1B10939   4.036  18.277   8.555
 6175POPC   C2B10940   4.113  18.295   8.255
 6175POPC   C3B10941   4.045  18.276   7.955
 6175POPC   C4B10942   4.053  18.265   7.655
 6176POPC   NC310943   2.722  31.451   9.455
 6176POPC   PO410944   2.815  31.441   9.155
 6176POPC   GL110945   2.739  31.474   8.855
 6176POPC   GL210946   2.831  31.405   8.855
 6176POPC   C1A10947   2.751  31.442   8.555
 6176POPC   D2A10948   2.810  31.474   8.255
 6176POPC   C3A10949   2.811  31.425   7.955
 6176POPC   C4A10950   2.780  31.474   7.655
 6176POPC   C1B10951   2.985  31.391   8.555
 6176POPC   C2B10952   2.940  31.358   8.255
 6176POPC   C3B10953   3.023  31.366   7.955
 6176POPC   C4B10954   2.973  31.353   7.655
 6177POPC   NC310955  15.147  39.271   9.455
 6177POPC   PO410956  15.202  39.279   9.155
 6177POPC   GL110957  15.137  39.205   8.855
 6177POPC   GL210958  15.172  39.120   8.855
 6177POPC   C1A10959  15.176  39.265   8.555
 6177POPC   D2A10960  15.225  39.267   8.255
 6177POPC   C3A10961  15.138  39.182   7.955
 6177POPC   C4A10962  15.168  39.258   7.655
 6177POPC   C1B10963  15.124  38.946   8.555
 6177POPC   C2B10964  15.117  38.964   8.255
 6177POPC   C3B10965  15.141  38.951   7.955
 6177POPC   C4B10966  15.097  38.977   7.655
 6178POPC   NC310967  43.853  28.399   9.455
 6178POPC   PO410968  43.885  28.343   9.155
 6178POPC   GL110969  43.868  28.353   8.855
 6178POPC   GL210970  44.059  28.327   8.855
 6178POPC   C1A10971  43.904  28.380   8.555
 6178POPC   D2A10972  43.856  28.395   8.255
 6178POPC   C3A10973  43.857  28.408   7.955
 6178POPC   C4A10974  43.925  28.361   7.655
 6178POPC   C1B10975  44.174  28.298   8.555
 6178POPC   C2B10976  44.089  28.348   8.255
 6178POPC   C3B10977  44.126  28.361   7.955
 6178POPC   C4B10978  44.148  28.378   7.655
 6179POPC   NC310979  31.484   6.639   9.455
 6179POPC   PO410980  31.432   6.654   9.155
 6179POPC   GL110981  31.516   6.680   8.855
 6179POPC   GL210982  31.614   6.636   8.855
 6179POPC   C1A10983  31.461   6.621   8.555
 6179POPC   D2A10984  31.522   6.630   8.255
 6179POPC   C3A10985  31.434   6.632   7.955
 6179POPC   C4A10986  31.471   6.648   7.655
 6179POPC   C1B10987  31.754   6.613   8.555
 6179POPC   C2B10988  31.677   6.565   8.255
 6179POPC   C3B10989  31.730   6.575   7.955
 6179POPC   C4B10990  31.668   6.564   7.655
 6180POPC   NC310991  23.693   9.719   9.455
 6180POPC   PO410992  23.715   9.762   9.155
 6180POPC   GL110993  23.667   9.777   8.855
 6180POPC   GL210994  23.792   9.774   8.855
 6180POPC   C1A10995  23.713   9.703   8.555
 6180POPC   D2A10996  23.761   9.704   8.255
 6180POPC   C3A10997  23.705   9.725   7.955
 6180POPC   C4A10998  23.763   9.778   7.655
 6180POPC   C1B10999  23.932   9.834   8.555
 6180POPC   C2B11000  23.920   9.863   8.255
 6180POPC   C3B11001  23.969   9.874   7.955
 6180POPC   C4B11002  23.935   9.862   7.655
 6181POPC   NC311003  21.390  13.583   9.455
 6181POPC   PO411004  21.435  13.600   9.155
 6181POPC   GL111005  21.369  13.655   8.855
 6181POPC   GL211006  21.393  13.719   8.855
 6181POPC   C1A11007  21.360  13.634   8.555
 6181POPC   D2A11008  21.426  13.582   8.255
 6181POPC   C3A11009  21.400  13.583   7.955
 6181POPC   C4A11010  21.376  13.658   7.655
 6181POPC   C1B11011  21.489  13.863   8.555
 6181POPC   C2B11012  21.484  13.829   8.255
 6181POPC   C3B11013  21.507  13.875   7.955
 6181POPC   C4B11014  21.478  13.891   7.655
 6182POPC   NC311015  18.308   7.456   9.455
 6182POPC   PO411016  18.244   7.452   9.155
 6182POPC   GL111017  18.268   7.460   8.855
 6182POPC   GL211018  18.148   7.318   8.855
 6182POPC   C1A11019  18.237   7.413   8.555
 6182POPC   D2A11020  18.250   7.389   8.255
 6182POPC   C3A11021  18.284   7.447   7.955
 6182POPC   C4A11022  18.281   7.377   7.655
 6182POPC   C1B11023  18.049   7.216   8.555
 6182POPC   C2B11024  18.093   7.221   8.255
 6182POPC   C3B11025  18.041   7.286   7.955
 6182POPC   C4B11026  18.047   7.268   7.655
 6183POPC   NC311027  31.503  12.046   9.455
 6183POPC   PO411028  31.495  12.062   9.155
 6183POPC   GL111029  31.482  12.038   8.855
 6183POPC   GL211030  31.317  12.081   8.855
 6183POPC   C1A11031  31.431  12.114   8.555
 6183POPC   D2A11032  31.433  12.035   8.255
 6183POPC   C3A11033  31.489  12.039   7.955
 6183POPC   C4A11034  31.437  12.065   7.655
 6183POPC   C1B11035  31.214  12.091   8.555
 6183POPC   C2B11036  31.266  12.129   8.255
 6183POPC   C3B11037  31.240  12.053   7.955
 6183POPC   C4B11038  31.183  12.129   7.655
 6184POPC   NC311039  13.602  40.805   9.455
 6184POPC   PO411040  13.669  40.814   9.155
 6184POPC   GL111041  13.610  40.782   8.855
 6184POPC   GL211042  13.574  40.672   8.855
 6184POPC   C1A11043  13.625  40.795   8.555
 6184POPC   D2A11044  13.620  40.742   8.255
 6184POPC   C3A11045  13.620  40.791   7.955
 6184POPC   C4A11046  13.597  40.831   7.655
 6184POPC   C1B11047  13.522  40.545   8.555
 6184POPC   C2B11048  13.524  40.618   8.255
 6184POPC   C3B11049  13.438  40.630   7.955
 6184POPC   C4B11050  13.470  40.574   7.655
 6185POPC   NC311051  19.803  36.156   9.455
 6185POPC   PO411052  19.818  36.099   9.155
 6185POPC   GL111053  19.814  36.114   8.855
 6185POPC   GL211054  19.913  36.064   8.855
 6185POPC   C1A11055  19.817  36.175   8.555
 6185POPC   D2A11056  19.793  36.130   8.255
 6185POPC   C3A11057  19.821  36.123   7.955
 6185POPC   C4A11058  19.827  36.144   7.655
 6185POPC   C1B11059  20.036  36.025   8.555
 6185POPC   C2B11060  20.081  36.084   8.255
 6185POPC   C3B11061  20.087  36.032   7.955
 6185POPC   C4B11062  20.027  36.026   7.655
 6186POPC   NC311063  13.629   2.766   9.455
 6186POPC   PO411064  13.603   2.787   9.155
 6186POPC   GL111065  13.610   2.757   8.855
 6186POPC   GL211066  13.779   2.859   8.855
 6186POPC   C1A11067  13.632   2.812   8.555
 6186POPC   D2A11068  13.628   2.767   8.255
 6186POPC   C3A11069  13.605   2.736   7.955
 6186POPC   C4A11070  13.635   2.742   7.655
 6186POPC   C1B11071  13.856   2.888   8.555
 6186POPC   C2B11072  13.822   2.887   8.255
 6186POPC   C3B11073  13.821   2.887   7.955
 6186POPC   C4B11074  13.798   2.872   7.655
 6187POPC   NC311075   6.598  33.765   9.455
 6187POPC   PO411076   6.603  33.766   9.155
 6187POPC   GL111077   6.685  33.833   8.855
 6187POPC   GL211078   6.618  33.689   8.855
 6187POPC   C1A11079   6.628  33.776   8.555
 6187POPC   D2A11080   6.606  33.791   8.255
 6187POPC   C3A11081   6.617  33.772   7.955
 6187POPC   C4A11082   6.670  33.797   7.655
 6187POPC   C1B11083   6.582  33.612   8.555
 6187POPC   C2B11084   6.610  33.587   8.255
 6187POPC   C3B11085   6.609  33.574   7.955
 6187POPC   C4B11086   6.594  33.524   7.655
 6188POPC   NC311087  39.968  19.040   9.455
 6188POPC   PO411088  39.999  19.050   9.155
 6188POPC   GL111089  40.028  19.026   8.855
 6188POPC   GL211090  40.050  19.169   8.855
 6188POPC   C1A11091  40.043  19.044   8.555
 6188POPC   D2A11092  39.980  19.079   8.255
 6188POPC   C3A11093  40.027  19.054   7.955
 6188POPC   C4A11094  40.040  19.085   7.655
 6188POPC   C1B11095  40.012  19.261   8.555
 6188POPC   C2B11096  39.974  19.287   8.255
 6188POPC   C3B11097  39.963  19.348   7.955
 6188POPC   C4B11098  40.017  19.274   7.655
 6189POPC   NC311099  39.967  20.591   9.455
 6189POPC   PO411100  39.970  20.590   9.155
 6189POPC   GL111101  39.999  20.637   8.855
 6189POPC   GL211102  39.981  20.700   8.855
 6189POPC   C1A11103  40.021  20.630   8.555
 6189POPC   D2A11104  40.006  20.622   8.255
 6189POPC   C3A11105  39.977  20.564   7.955
 6189POPC   C4A11106  39.976  20.581   7.655
 6189POPC   C1B11107  39.962  20.802   8.555
 6189POPC   C2B11108  39.893  20.815   8.255
 6189POPC   C3B11109  39.892  20.891   7.955
 6189POPC   C4B11110  39.951  20.884   7.655
 6190POPC   NC311111   9.757  15.964   9.455
 6190POPC   PO411112   9.744  15.949   9.155
 6190POPC   GL111113   9.751  15.927   8.855
 6190POPC   GL211114   9.711  15.826   8.855
 6190POPC   C1A11115   9.785  15.932   8.555
 6190POPC   D2A11116   9.746  15.965   8.255
 6190POPC   C3A11117   9.714  15.944   7.955
 6190POPC   C4A11118   9.717  15.935   7.655
 6190POPC   C1B11119   9.721  15.679   8.555
 6190POPC   C2B11120   9.711  15.727   8.255
 6190POPC   C3B11121   9.718  15.679   7.955
 6190POPC   C4B11122   9.640  15.736   7.655
 6191POPC   NC311123  34.611  12.072   9.455
 6191POPC   PO411124  34.529  12.043   9.155
 6191POPC   GL111125  34.531  12.119   8.855
 6191POPC   GL211126  34.507  12.090   8.855
 6191POPC   C1A11127  34.592  12.053   8.555
 6191POPC   D2A11128  34.618  12.080   8.255
 6191POPC   C3A11129  34.538  12.059   7.955
 6191POPC   C4A11130  34.546  12.092   7.655
 6191POPC   C1B11131  34.308  12.167   8.555
 6191POPC   C2B11132  34.337  12.138   8.255
 6191POPC   C3B11133  34.370  12.161   7.955
 6191POPC   C4B11134  34.387  12.185   7.655
 6192POPC   NC311135   6.620  32.210   9.455
 6192POPC   PO411136   6.609  32.227   9.155
 6192POPC   GL111137   6.670  32.232   8.855
 6192POPC   GL211138   6.493  32.268   8.855
 6192POPC   C1A11139   6.633  32.236   8.555
 6192POPC   D2A11140   6.608  32.268   8.255
 6192POPC   C3A11141   6.651  32.264   7.955
 6192POPC   C4A11142   6.652  32.263   7.655
 6192POPC   C1B11143   6.415  32.272   8.555
 6192POPC   C2B11144   6.355  32.230   8.255
 6192POPC   C3B11145   6.383  32.203   7.955
 6192POPC   C4B11146   6.402  32.204   7.655
 6193POPC   NC311147   4.291   5.094   9.455
 6193POPC   PO411148   4.336   5.123   9.155
 6193POPC   GL111149   4.312   5.086   8.855
 6193POPC   GL211150   4.337   5.221   8.855
 6193POPC   C1A11151   4.362   5.083   8.555
 6193POPC   D2A11152   4.352   5.116   8.255
 6193POPC   C3A11153   4.295   5.083   7.955
 6193POPC   C4A11154   4.293   5.056   7.655
 6193POPC   C1B11155   4.361   5.365   8.555
 6193POPC   C2B11156   4.396   5.361   8.255
 6193POPC   C3B11157   4.323   5.381   7.955
 6193POPC   C4B11158   4.350   5.311   7.655
 6194POPC   NC311159  17.554   5.082   9.455
 6194POPC   PO411160  17.513   5.103   9.155
 6194POPC   GL111161  17.555   5.112   8.855
 6194POPC   GL211162  17.434   5.258   8.855
 6194POPC   C1A11163  17.538   5.114   8.555
 6194POPC   D2A11164  17.555   5.060   8.255
 6194POPC   C3A11165  17.524   5.099   7.955
 6194POPC   C4A11166  17.477   5.055   7.655
 6194POPC   C1B11167  17.428   5.320   8.555
 6194POPC   C2B11168  17.459   5.352   8.255
 6194POPC   C3B11169  17.392   5.302   7.955
 6194POPC   C4B11170  17.468   5.329   7.655
 6195POPC   NC311171  27.606   3.563   9.455
 6195POPC   PO411172  27.626   3.509   9.155
 6195POPC   GL111173  27.594   3.579   8.855
 6195POPC   GL211174  27.457   3.519   8.855
 6195POPC   C1A11175  27.552   3.553   8.555
 6195POPC   D2A11176  27.566   3.525   8.255
 6195POPC   C3A11177  27.555   3.570   7.955
 6195POPC   C4A11178  27.569   3.523   7.655
 6195POPC   C1B11179  27.343   3.532   8.555
 6195POPC   C2B11180  27.319   3.546   8.255
 6195POPC   C3B11181  27.354   3.495   7.955
 6195POPC   C4B11182  27.299   3.497   7.655
 6196POPC   NC311183  18.265  34.614   9.455
 6196POPC   PO411184  18.263  34.582   9.155
 6196POPC   GL111185  18.269  34.556   8.855
 6196POPC   GL211186  18.445  34.577   8.855
 6196POPC   C1A11187  18.276  34.545   8.555
 6196POPC   D2A11188  18.319  34.603   8.255
 6196POPC   C3A11189  18.277  34.540   7.955
 6196POPC   C4A11190  18.328  34.607   7.655
 6196POPC   C1B11191  18.562  34.521   8.555
 6196POPC   C2B11192  18.549  34.558   8.255
 6196POPC   C3B11193  18.517  34.491   7.955
 6196POPC   C4B11194  18.486  34.498   7.655
 6197POPC   NC311195  37.650  37.645   9.455
 6197POPC   PO411196  37.691  37.676   9.155
 6197POPC   GL111197  37.712  37.666   8.855
 6197POPC   GL211198  37.570  37.771   8.855
 6197POPC   C1A11199  37.720  37.667   8.555
 6197POPC   D2A11200  37.703  37.702   8.255
 6197POPC   C3A11201  37.680  37.636   7.955
 6197POPC   C4A11202  37.651  37.720   7.655
 6197POPC   C1B11203  37.509  37.841   8.555
 6197POPC   C2B11204  37.516  37.824   8.255
 6197POPC   C3B11205  37.484  37.830   7.955
 6197POPC   C4B11206  37.420  37.797   7.655
 6198POPC   NC311207  19.095  15.906   9.455
 6198POPC   PO411208  19.090  15.913   9.155
 6198POPC   GL111209  19.074  15.991   8.855
 6198POPC   GL211210  18.978  15.818   8.855
 6198POPC   C1A11211  19.071  15.939   8.555
 6198POPC   D2A11212  19.015  15.966   8.255
 6198POPC   C3A11213  19.095  15.930   7.955
 6198POPC   C4A11214  19.020  15.992   7.655
 6198POPC   C1B11215  18.930  15.823   8.555
 6198POPC   C2B11216  18.842  15.772   8.255
 6198POPC   C3B11217  18.899  15.740   7.955
 6198POPC   C4B11218  18.840  15.783   7.655
 6199POPC   NC311219  29.958  31.438   9.455
 6199POPC   PO411220  29.895  31.456   9.155
 6199POPC   GL111221  29.952  31.479   8.855
 6199POPC   GL211222  29.779  31.433   8.855
 6199POPC   C1A11223  29.890  31.494   8.555
 6199POPC   D2A11224  29.901  31.434   8.255
 6199POPC   C3A11225  29.955  31.423   7.955
 6199POPC   C4A11226  29.957  31.501   7.655
 6199POPC   C1B11227  29.688  31.463   8.555
 6199POPC   C2B11228  29.639  31.460   8.255
 6199POPC   C3B11229  29.727  31.436   7.955
 6199POPC   C4B11230  29.693  31.451   7.655
 6200POPC   NC311231  29.914  19.884   9.455
 6200POPC   PO411232  29.889  19.874   9.155
 6200POPC   GL111233  29.904  19.853   8.855
 6200POPC   GL211234  30.088  19.862   8.855
 6200POPC   C1A11235  29.913  19.871   8.555
 6200POPC   D2A11236  29.956  19.828   8.255
 6200POPC   C3A11237  29.938  19.836   7.955
 6200POPC   C4A11238  29.898  19.864   7.655
 6200POPC   C1B11239  30.198  19.824   8.555
 6200POPC   C2B11240  30.190  19.852   8.255
 6200POPC   C3B11241  30.142  19.788   7.955
 6200POPC   C4B11242  30.166  19.819   7.655
 6201POPC   NC311243  40.013  33.753   9.455
 6201POPC   PO411244  40.044  33.798   9.155
 6201POPC   GL111245  39.984  33.771   8.855
 6201POPC   GL211246  40.113  33.761   8.855
 6201POPC   C1A11247  40.013  33.782   8.555
 6201POPC   D2A11248  39.972  33.809   8.255
 6201POPC   C3A11249  40.008  33.812   7.955
 6201POPC   C4A11250  40.029  33.830   7.655
 6201POPC   C1B11251  40.212  33.685   8.555
 6201POPC   C2B11252  40.212  33.693   8.255
 6201POPC   C3B11253  40.200  33.758   7.955
 6201POPC   C4B11254  40.260  33.675   7.655
 6202POPC   NC311255  31.467  17.490   9.455
 6202POPC   PO411256  31.450  17.463   9.155
 6202POPC   GL111257  31.506  17.477   8.855
 6202POPC   GL211258  31.473  17.355   8.855
 6202POPC   C1A11259  31.478  17.547   8.555
 6202POPC   D2A11260  31.465  17.544   8.255
 6202POPC   C3A11261  31.522  17.496   7.955
 6202POPC   C4A11262  31.448  17.458   7.655
 6202POPC   C1B11263  31.469  17.289   8.555
 6202POPC   C2B11264  31.446  17.259   8.255
 6202POPC   C3B11265  31.485  17.290   7.955
 6202POPC   C4B11266  31.463  17.273   7.655
 6203POPC   NC311267   0.407   8.970   9.455
 6203POPC   PO411268   0.464   8.937   9.155
 6203POPC   GL111269   0.477   8.993   8.855
 6203POPC   GL211270   0.543   9.095   8.855
 6203POPC   C1A11271   0.440   8.963   8.555
 6203POPC   D2A11272   0.459   8.934   8.255
 6203POPC   C3A11273   0.480   9.005   7.955
 6203POPC   C4A11274   0.480   8.980   7.655
 6203POPC   C1B11275   0.616   9.161   8.555
 6203POPC   C2B11276   0.614   9.132   8.255
 6203POPC   C3B11277   0.585   9.127   7.955
 6203POPC   C4B11278   0.603   9.168   7.655
 6204POPC   NC311279   0.421  40.807   9.455
 6204POPC   PO411280   0.435  40.752   9.155
 6204POPC   GL111281   0.446  40.777   8.855
 6204POPC   GL211282   0.276  40.771   8.855
 6204POPC   C1A11283   0.487  40.735   8.555
 6204POPC   D2A11284   0.473  40.812   8.255
 6204POPC   C3A11285   0.466  40.795   7.955
 6204POPC   C4A11286   0.485  40.740   7.655
 6204POPC   C1B11287   0.228  40.674   8.555
 6204POPC   C2B11288   0.244  40.695   8.255
 6204POPC   C3B11289   0.177  40.704   7.955
 6204POPC   C4B11290   0.168  40.747   7.655
 6205POPC   NC311291   0.429  39.245   9.455
 6205POPC   PO411292   0.463  39.243   9.155
 6205POPC   GL111293   0.469  39.240   8.855
 6205POPC   GL211294   0.324  39.148   8.855
 6205POPC   C1A11295   0.430  39.215   8.555
 6205POPC   D2A11296   0.414  39.185   8.255
 6205POPC   C3A11297   0.401  39.204   7.955
 6205POPC   C4A11298   0.426  39.222   7.655
 6205POPC   C1B11299   0.286  39.031   8.555
 6205POPC   C2B11300   0.259  39.078   8.255
 6205POPC   C3B11301   0.303  39.052   7.955
 6205POPC   C4B11302   0.235  39.023   7.655
 6206POPC   NC311303   6.598   5.142   9.455
 6206POPC   PO411304   6.695   5.096   9.155
 6206POPC   GL111305   6.603   5.054   8.855
 6206POPC   GL211306   6.778   5.064   8.855
 6206POPC   C1A11307   6.637   5.126   8.555
 6206POPC   D2A11308   6.670   5.096   8.255
 6206POPC   C3A11309   6.605   5.133   7.955
 6206POPC   C4A11310   6.655   5.096   7.655
 6206POPC   C1B11311   6.873   4.990   8.555
 6206POPC   C2B11312   6.818   4.959   8.255
 6206POPC   C3B11313   6.848   4.958   7.955
 6206POPC   C4B11314   6.831   4.935   7.655
 6207POPC   NC311315  29.153  23.697   9.455
 6207POPC   PO411316  29.172  23.701   9.155
 6207POPC   GL111317  29.167  23.692   8.855
 6207POPC   GL211318  29.080  23.645   8.855
 6207POPC   C1A11319  29.185  23.755   8.555
 6207POPC   D2A11320  29.113  23.699   8.255
 6207POPC   C3A11321  29.156  23.763   7.955
 6207POPC   C4A11322  29.124  23.759   7.655
 6207POPC   C1B11323  28.978  23.568   8.555
 6207POPC   C2B11324  28.930  23.497   8.255
 6207POPC   C3B11325  28.997  23.569   7.955
 6207POPC   C4B11326  28.951  23.555   7.655
 6208POPC   NC311327  20.614  10.550   9.455
 6208POPC   PO411328  20.617  10.535   9.155
 6208POPC   GL111329  20.644  10.555   8.855
 6208POPC   GL211330  20.769  10.549   8.855
 6208POPC   C1A11331  20.617  10.546   8.555
 6208POPC   D2A11332  20.561  10.482   8.255
 6208POPC   C3A11333  20.576  10.516   7.955
 6208POPC   C4A11334  20.647  10.521   7.655
 6208POPC   C1B11335  20.842  10.597   8.555
 6208POPC   C2B11336  20.817  10.617   8.255
 6208POPC   C3B11337  20.834  10.597   7.955
 6208POPC   C4B11338  20.831  10.611   7.655
 6209POPC   NC311339   9.767   2.722   9.455
 6209POPC   PO411340   9.778   2.745   9.155
 6209POPC   GL111341   9.793   2.801   8.855
 6209POPC   GL211342   9.681   2.632   8.855
 6209POPC   C1A11343   9.757   2.757   8.555
 6209POPC   D2A11344   9.771   2.741   8.255
 6209POPC   C3A11345   9.769   2.753   7.955
 6209POPC   C4A11346   9.758   2.809   7.655
 6209POPC   C1B11347   9.599   2.522   8.555
 6209POPC   C2B11348   9.650   2.515   8.255
 6209POPC   C3B11349   9.646   2.527   7.955
 6209POPC   C4B11350   9.666   2.585   7.655
 6210POPC   NC311351  27.590  36.871   9.455
 6210POPC   PO411352  27.550  36.889   9.155
 6210POPC   GL111353  27.565  36.925   8.855
 6210POPC   GL211354  27.552  37.032   8.855
 6210POPC   C1A11355  27.618  36.923   8.555
 6210POPC   D2A11356  27.583  36.881   8.255
 6210POPC   C3A11357  27.613  36.893   7.955
 6210POPC   C4A11358  27.556  36.903   7.655
 6210POPC   C1B11359  27.520  37.152   8.555
 6210POPC   C2B11360  27.546  37.132   8.255
 6210POPC   C3B11361  27.488  37.160   7.955
 6210POPC   C4B11362  27.488  37.170   7.655
 6211POPC   NC311363  34.587  30.676   9.455
 6211POPC   PO411364  34.541  30.742   9.155
 6211POPC   GL111365  34.600  30.729   8.855
 6211POPC   GL211366  34.581  30.804   8.855
 6211POPC   C1A11367  34.533  30.702   8.555
 6211POPC   D2A11368  34.609  30.741   8.255
 6211POPC   C3A11369  34.562  30.650   7.955
 6211POPC   C4A11370  34.606  30.745   7.655
 6211POPC   C1B11371  34.630  30.953   8.555
 6211POPC   C2B11372  34.617  30.921   8.255
 6211POPC   C3B11373  34.574  30.968   7.955
 6211POPC   C4B11374  34.627  30.933   7.655
 6212POPC   NC311375   5.885   9.006   9.455
 6212POPC   PO411376   5.870   8.981   9.155
 6212POPC   GL111377   5.836   8.956   8.855
 6212POPC   GL211378   5.954   9.061   8.855
 6212POPC   C1A11379   5.828   9.005   8.555
 6212POPC   D2A11380   5.856   8.929   8.255
 6212POPC   C3A11381   5.893   8.970   7.955
 6212POPC   C4A11382   5.849   8.945   7.655
 6212POPC   C1B11383   5.989   9.221   8.555
 6212POPC   C2B11384   5.991   9.178   8.255
 6212POPC   C3B11385   5.978   9.161   7.955
 6212POPC   C4B11386   5.947   9.211   7.655
 6213POPC   NC311387   5.069  32.976   9.455
 6213POPC   PO411388   5.078  33.012   9.155
 6213POPC   GL111389   5.114  32.981   8.855
 6213POPC   GL211390   5.006  32.900   8.855
 6213POPC   C1A11391   5.072  33.051   8.555
 6213POPC   D2A11392   5.093  32.988   8.255
 6213POPC   C3A11393   5.092  33.068   7.955
 6213POPC   C4A11394   5.048  33.074   7.655
 6213POPC   C1B11395   4.905  32.882   8.555
 6213POPC   C2B11396   4.880  32.860   8.255
 6213POPC   C3B11397   4.864  32.900   7.955
 6213POPC   C4B11398   4.914  32.899   7.655
 6214POPC   NC311399  27.544  26.060   9.455
 6214POPC   PO411400  27.604  26.073   9.155
 6214POPC   GL111401  27.584  26.067   8.855
 6214POPC   GL211402  27.579  25.886   8.855
 6214POPC   C1A11403  27.639  26.017   8.555
 6214POPC   D2A11404  27.570  26.071   8.255
 6214POPC   C3A11405  27.571  26.026   7.955
 6214POPC   C4A11406  27.594  26.068   7.655
 6214POPC   C1B11407  27.663  25.842   8.555
 6214POPC   C2B11408  27.609  25.744   8.255
 6214POPC   C3B11409  27.600  25.758   7.955
 6214POPC   C4B11410  27.579  25.841   7.655
 6215POPC   NC311411  25.301  32.207   9.455
 6215POPC   PO411412  25.234  32.277   9.155
 6215POPC   GL111413  25.300  32.243   8.855
 6215POPC   GL211414  25.202  32.314   8.855
 6215POPC   C1A11415  25.225  32.237   8.555
 6215POPC   D2A11416  25.308  32.289   8.255
 6215POPC   C3A11417  25.279  32.253   7.955
 6215POPC   C4A11418  25.267  32.247   7.655
 6215POPC   C1B11419  25.063  32.406   8.555
 6215POPC   C2B11420  25.072  32.377   8.255
 6215POPC   C3B11421  25.102  32.434   7.955
 6215POPC   C4B11422  25.087  32.384   7.655
 6216POPC   NC311423  15.915  16.708   9.455
 6216POPC   PO411424  15.945  16.777   9.155
 6216POPC   GL111425  15.945  16.742   8.855
 6216POPC   GL211426  15.881  16.613   8.855
 6216POPC   C1A11427  15.943  16.710   8.555
 6216POPC   D2A11428  15.921  16.771   8.255
 6216POPC   C3A11429  15.914  16.717   7.955
 6216POPC   C4A11430  15.993  16.734   7.655
 6216POPC   C1B11431  15.769  16.559   8.555
 6216POPC   C2B11432  15.733  16.614   8.255
 6216POPC   C3B11433  15.753  16.525   7.955
 6216POPC   C4B11434  15.737  16.528   7.655
 6217POPC   NC311435  34.606  19.074   9.455
 6217POPC   PO411436  34.548  19.067   9.155
 6217POPC   GL111437  34.592  19.009   8.855
 6217POPC   GL211438  34.445  19.101   8.855
 6217POPC   C1A11439  34.569  19.081   8.555
 6217POPC   D2A11440  34.619  19.073   8.255
 6217POPC   C3A11441  34.582  19.099   7.955
 6217POPC   C4A11442  34.605  19.055   7.655
 6217POPC   C1B11443  34.345  19.244   8.555
 6217POPC   C2B11444  34.346  19.262   8.255
 6217POPC   C3B11445  34.428  19.200   7.955
 6217POPC   C4B11446  34.399  19.238   7.655
 6218POPC   NC311447  33.755  12.840   9.455
 6218POPC   PO411448  33.808  12.865   9.155
 6218POPC   GL111449  33.812  12.882   8.855
 6218POPC   GL211450  33.741  12.785   8.855
 6218POPC   C1A11451  33.803  12.813   8.555
 6218POPC   D2A11452  33.811  12.868   8.255
 6218POPC   C3A11453  33.795  12.826   7.955
 6218POPC   C4A11454  33.788  12.857   7.655
 6218POPC   C1B11455  33.603  12.671   8.555
 6218POPC   C2B11456  33.571  12.697   8.255
 6218POPC   C3B11457  33.612  12.671   7.955
 6218POPC   C4B11458  33.561  12.754   7.655
 6219POPC   NC311459  15.965  31.430   9.455
 6219POPC   PO411460  15.911  31.499   9.155
 6219POPC   GL111461  15.923  31.461   8.855
 6219POPC   GL211462  16.075  31.396   8.855
 6219POPC   C1A11463  15.940  31.467   8.555
 6219POPC   D2A11464  15.912  31.453   8.255
 6219POPC   C3A11465  15.921  31.498   7.955
 6219POPC   C4A11466  15.925  31.430   7.655
 6219POPC   C1B11467  16.234  31.457   8.555
 6219POPC   C2B11468  16.152  31.426   8.255
 6219POPC   C3B11469  16.222  31.399   7.955
 6219POPC   C4B11470  16.223  31.400   7.655
 6220POPC   NC311471  41.556  40.764   9.455
 6220POPC   PO411472  41.606  40.795   9.155
 6220POPC   GL111473  41.519  40.800   8.855
 6220POPC   GL211474  41.665  40.670   8.855
 6220POPC   C1A11475  41.577  40.767   8.555
 6220POPC   D2A11476  41.593  40.752   8.255
 6220POPC   C3A11477  41.564  40.816   7.955
 6220POPC   C4A11478  41.575  40.823   7.655
 6220POPC   C1B11479  41.745  40.548   8.555
 6220POPC   C2B11480  41.716  40.547   8.255
 6220POPC   C3B11481  41.720  40.553   7.955
 6220POPC   C4B11482  41.739  40.606   7.655
 6221POPC   NC311483  23.748  28.405   9.455
 6221POPC   PO411484  23.692  28.367   9.155
 6221POPC   GL111485  23.665  28.345   8.855
 6221POPC   GL211486  23.772  28.304   8.855
 6221POPC   C1A11487  23.687  28.365   8.555
 6221POPC   D2A11488  23.723  28.337   8.255
 6221POPC   C3A11489  23.763  28.338   7.955
 6221POPC   C4A11490  23.721  28.369   7.655
 6221POPC   C1B11491  23.860  28.159   8.555
 6221POPC   C2B11492  23.840  28.224   8.255
 6221POPC   C3B11493  23.835  28.128   7.955
 6221POPC   C4B11494  23.881  28.204   7.655
 6222POPC   NC311495  43.074  22.977   9.455
 6222POPC   PO411496  43.115  22.895   9.155
 6222POPC   GL111497  43.112  22.960   8.855
 6222POPC   GL211498  43.204  22.980   8.855
 6222POPC   C1A11499  43.120  22.958   8.555
 6222POPC   D2A11500  43.084  22.931   8.255
 6222POPC   C3A11501  43.085  22.939   7.955
 6222POPC   C4A11502  43.141  22.976   7.655
 6222POPC   C1B11503  43.332  22.981   8.555
 6222POPC   C2B11504  43.367  22.969   8.255
 6222POPC   C3B11505  43.397  22.976   7.955
 6222POPC   C4B11506  43.379  22.978   7.655
 6223POPC   NC311507  39.979  25.256   9.455
 6223POPC   PO411508  40.030  25.262   9.155
 6223POPC   GL111509  40.012  25.220   8.855
 6223POPC   GL211510  40.035  25.184   8.855
 6223POPC   C1A11511  40.001  25.306   8.555
 6223POPC   D2A11512  40.028  25.308   8.255
 6223POPC   C3A11513  40.056  25.294   7.955
 6223POPC   C4A11514  39.981  25.255   7.655
 6223POPC   C1B11515  40.116  25.080   8.555
 6223POPC   C2B11516  40.116  25.007   8.255
 6223POPC   C3B11517  40.117  25.042   7.955
 6223POPC   C4B11518  40.129  25.054   7.655
 6224POPC   NC311519  15.982  20.603   9.455
 6224POPC   PO411520  15.931  20.598   9.155
 6224POPC   GL111521  15.984  20.658   8.855
 6224POPC   GL211522  15.849  20.690   8.855
 6224POPC   C1A11523  15.980  20.636   8.555
 6224POPC   D2A11524  15.979  20.622   8.255
 6224POPC   C3A11525  15.958  20.597   7.955
 6224POPC   C4A11526  15.924  20.656   7.655
 6224POPC   C1B11527  15.726  20.793   8.555
 6224POPC   C2B11528  15.758  20.758   8.255
 6224POPC   C3B11529  15.759  20.706   7.955
 6224POPC   C4B11530  15.725  20.747   7.655
 6225POPC   NC311531  26.815  40.011   9.455
 6225POPC   PO411532  26.790  40.047   9.155
 6225POPC   GL111533  26.772  39.992   8.855
 6225POPC   GL211534  26.808  40.154   8.855
 6225POPC   C1A11535  26.779  40.057   8.555
 6225POPC   D2A11536  26.853  39.971   8.255
 6225POPC   C3A11537  26.810  39.997   7.955
 6225POPC   C4A11538  26.769  40.041   7.655
 6225POPC   C1B11539  26.843  40.275   8.555
 6225POPC   C2B11540  26.897  40.276   8.255
 6225POPC   C3B11541  26.865  40.278   7.955
 6225POPC   C4B11542  26.856  40.229   7.655
 6226POPC   NC311543  18.327  17.530   9.455
 6226POPC   PO411544  18.288  17.501   9.155
 6226POPC   GL111545  18.250  17.535   8.855
 6226POPC   GL211546  18.398  17.524   8.855
 6226POPC   C1A11547  18.251  17.524   8.555
 6226POPC   D2A11548  18.318  17.491   8.255
 6226POPC   C3A11549  18.234  17.546   7.955
 6226POPC   C4A11550  18.300  17.487   7.655
 6226POPC   C1B11551  18.503  17.443   8.555
 6226POPC   C2B11552  18.530  17.506   8.255
 6226POPC   C3B11553  18.541  17.531   7.955
 6226POPC   C4B11554  18.529  17.440   7.655
 6227POPC   NC311555  40.821  40.028   9.455
 6227POPC   PO411556  40.810  40.037   9.155
 6227POPC   GL111557  40.749  40.023   8.855
 6227POPC   GL211558  40.717  40.059   8.855
 6227POPC   C1A11559  40.764  40.005   8.555
 6227POPC   D2A11560  40.740  39.993   8.255
 6227POPC   C3A11561  40.761  40.044   7.955
 6227POPC   C4A11562  40.771  40.017   7.655
 6227POPC   C1B11563  40.593  40.176   8.555
 6227POPC   C2B11564  40.613  40.132   8.255
 6227POPC   C3B11565  40.587  40.121   7.955
 6227POPC   C4B11566  40.603  40.115   7.655
 6228POPC   NC311567  12.861  18.280   9.455
 6228POPC   PO411568  12.866  18.326   9.155
 6228POPC   GL111569  12.841  18.251   8.855
 6228POPC   GL211570  12.750  18.387   8.855
 6228POPC   C1A11571  12.804  18.281   8.555
 6228POPC   D2A11572  12.847  18.258   8.255
 6228POPC   C3A11573  12.838  18.306   7.955
 6228POPC   C4A11574  12.831  18.329   7.655
 6228POPC   C1B11575  12.700  18.450   8.555
 6228POPC   C2B11576  12.741  18.445   8.255
 6228POPC   C3B11577  12.727  18.438   7.955
 6228POPC   C4B11578  12.721  18.462   7.655
 6229POPC   NC311579  12.861  15.963   9.455
 6229POPC   PO411580  12.888  15.911   9.155
 6229POPC   GL111581  12.877  15.933   8.855
 6229POPC   GL211582  12.990  15.948   8.855
 6229POPC   C1A11583  12.875  15.931   8.555
 6229POPC   D2A11584  12.873  15.985   8.255
 6229POPC   C3A11585  12.878  15.941   7.955
 6229POPC   C4A11586  12.819  15.964   7.655
 6229POPC   C1B11587  13.091  15.975   8.555
 6229POPC   C2B11588  13.141  15.946   8.255
 6229POPC   C3B11589  13.067  15.926   7.955
 6229POPC   C4B11590  13.146  15.915   7.655
 6230POPC   NC311591  29.181  43.114   9.455
 6230POPC   PO411592  29.147  43.122   9.155
 6230POPC   GL111593  29.176  43.160   8.855
 6230POPC   GL211594  29.115  43.206   8.855
 6230POPC   C1A11595  29.152  43.160   8.555
 6230POPC   D2A11596  29.142  43.075   8.255
 6230POPC   C3A11597  29.099  43.136   7.955
 6230POPC   C4A11598  29.166  43.142   7.655
 6230POPC   C1B11599  28.985  43.297   8.555
 6230POPC   C2B11600  28.972  43.278   8.255
 6230POPC   C3B11601  29.037  43.262   7.955
 6230POPC   C4B11602  28.943  43.270   7.655
 6231POPC   NC311603  12.103  42.316   9.455
 6231POPC   PO411604  12.046  42.310   9.155
 6231POPC   GL111605  12.049  42.367   8.855
 6231POPC   GL211606  11.985  42.343   8.855
 6231POPC   C1A11607  12.038  42.295   8.555
 6231POPC   D2A11608  12.078  42.350   8.255
 6231POPC   C3A11609  12.118  42.294   7.955
 6231POPC   C4A11610  12.030  42.321   7.655
 6231POPC   C1B11611  11.816  42.354   8.555
 6231POPC   C2B11612  11.789  42.333   8.255
 6231POPC   C3B11613  11.814  42.339   7.955
 6231POPC   C4B11614  11.825  42.307   7.655
 6232POPC   NC311615   6.600   9.723   9.455
 6232POPC   PO411616   6.657   9.774   9.155
 6232POPC   GL111617   6.683   9.755   8.855
 6232POPC   GL211618   6.518   9.773   8.855
 6232POPC   C1A11619   6.668   9.749   8.555
 6232POPC   D2A11620   6.604   9.705   8.255
 6232POPC   C3A11621   6.669   9.792   7.955
 6232POPC   C4A11622   6.691   9.780   7.655
 6232POPC   C1B11623   6.403   9.805   8.555
 6232POPC   C2B11624   6.447   9.767   8.255
 6232POPC   C3B11625   6.394   9.811   7.955
 6232POPC   C4B11626   6.387   9.832   7.655
 6233POPC   NC311627   6.598  22.893   9.455
 6233POPC   PO411628   6.671  22.984   9.155
 6233POPC   GL111629   6.657  22.982   8.855
 6233POPC   GL211630   6.593  23.024   8.855
 6233POPC   C1A11631   6.691  22.927   8.555
 6233POPC   D2A11632   6.625  22.915   8.255
 6233POPC   C3A11633   6.652  22.946   7.955
 6233POPC   C4A11634   6.632  22.984   7.655
 6233POPC   C1B11635   6.485  23.088   8.555
 6233POPC   C2B11636   6.429  23.116   8.255
 6233POPC   C3B11637   6.443  23.067   7.955
 6233POPC   C4B11638   6.491  23.081   7.655
 6234POPC   NC311639  44.631  19.789   9.455
 6234POPC   PO411640  44.638  19.861   9.155
 6234POPC   GL111641  44.621  19.843   8.855
 6234POPC   GL211642  44.591  19.785   8.855
 6234POPC   C1A11643  44.638  19.786   8.555
 6234POPC   D2A11644  44.678  19.831   8.255
 6234POPC   C3A11645  44.664  19.805   7.955
 6234POPC   C4A11646  44.667  19.868   7.655
 6234POPC   C1B11647  44.418  19.764   8.555
 6234POPC   C2B11648  44.408  19.791   8.255
 6234POPC   C3B11649  44.430  19.713   7.955
 6234POPC   C4B11650  44.391  19.770   7.655
 6235POPC   NC311651  12.089  22.184   9.455
 6235POPC   PO411652  12.113  22.194   9.155
 6235POPC   GL111653  12.066  22.171   8.855
 6235POPC   GL211654  12.219  22.179   8.855
 6235POPC   C1A11655  12.063  22.165   8.555
 6235POPC   D2A11656  12.087  22.183   8.255
 6235POPC   C3A11657  12.036  22.134   7.955
 6235POPC   C4A11658  12.070  22.176   7.655
 6235POPC   C1B11659  12.306  22.224   8.555
 6235POPC   C2B11660  12.348  22.236   8.255
 6235POPC   C3B11661  12.330  22.195   7.955
 6235POPC   C4B11662  12.293  22.252   7.655
 6236POPC   NC311663   1.999  41.565   9.455
 6236POPC   PO411664   2.007  41.568   9.155
 6236POPC   GL111665   1.967  41.570   8.855
 6236POPC   GL211666   1.967  41.442   8.855
 6236POPC   C1A11667   1.963  41.529   8.555
 6236POPC   D2A11668   1.956  41.571   8.255
 6236POPC   C3A11669   1.994  41.589   7.955
 6236POPC   C4A11670   1.953  41.542   7.655
 6236POPC   C1B11671   1.917  41.290   8.555
 6236POPC   C2B11672   1.894  41.363   8.255
 6236POPC   C3B11673   1.961  41.352   7.955
 6236POPC   C4B11674   1.963  41.306   7.655
 6237POPC   NC311675  39.237  22.144   9.455
 6237POPC   PO411676  39.182  22.132   9.155
 6237POPC   GL111677  39.191  22.114   8.855
 6237POPC   GL211678  39.264  22.008   8.855
 6237POPC   C1A11679  39.263  22.190   8.555
 6237POPC   D2A11680  39.225  22.126   8.255
 6237POPC   C3A11681  39.250  22.159   7.955
 6237POPC   C4A11682  39.229  22.138   7.655
 6237POPC   C1B11683  39.295  21.976   8.555
 6237POPC   C2B11684  39.371  21.899   8.255
 6237POPC   C3B11685  39.285  21.906   7.955
 6237POPC   C4B11686  39.358  21.968   7.655
 6238POPC   NC311687  13.653  29.896   9.455
 6238POPC   PO411688  13.652  29.894   9.155
 6238POPC   GL111689  13.662  29.872   8.855
 6238POPC   GL211690  13.548  29.833   8.855
 6238POPC   C1A11691  13.616  29.946   8.555
 6238POPC   D2A11692  13.596  29.910   8.255
 6238POPC   C3A11693  13.605  29.904   7.955
 6238POPC   C4A11694  13.654  29.919   7.655
 6238POPC   C1B11695  13.469  29.755   8.555
 6238POPC   C2B11696  13.470  29.788   8.255
 6238POPC   C3B11697  13.441  29.806   7.955
 6238POPC   C4B11698  13.407  29.748   7.655
 6239POPC   NC311699  33.048   4.336   9.455
 6239POPC   PO411700  33.009   4.289   9.155
 6239POPC   GL111701  33.055   4.268   8.855
 6239POPC   GL211702  32.881   4.255   8.855
 6239POPC   C1A11703  33.057   4.319   8.555
 6239POPC   D2A11704  33.031   4.338   8.255
 6239POPC   C3A11705  33.062   4.311   7.955
 6239POPC   C4A11706  32.975   4.299   7.655
 6239POPC   C1B11707  32.818   4.149   8.555
 6239POPC   C2B11708  32.830   4.195   8.255
 6239POPC   C3B11709  32.810   4.146   7.955
 6239POPC   C4B11710  32.825   4.213   7.655
 6240POPC   NC311711   1.165  41.576   9.455
 6240POPC   PO411712   1.200  41.602   9.155
 6240POPC   GL111713   1.184  41.571   8.855
 6240POPC   GL211714   1.204  41.643   8.855
 6240POPC   C1A11715   1.252  41.566   8.555
 6240POPC   D2A11716   1.215  41.596   8.255
 6240POPC   C3A11717   1.221  41.582   7.955
 6240POPC   C4A11718   1.202  41.555   7.655
 6240POPC   C1B11719   1.118  41.831   8.555
 6240POPC   C2B11720   1.070  41.798   8.255
 6240POPC   C3B11721   1.121  41.793   7.955
 6240POPC   C4B11722   1.085  41.816   7.655
 6241POPC   NC311723   6.649  12.844   9.455
 6241POPC   PO411724   6.659  12.820   9.155
 6241POPC   GL111725   6.609  12.899   8.855
 6241POPC   GL211726   6.546  12.741   8.855
 6241POPC   C1A11727   6.631  12.868   8.555
 6241POPC   D2A11728   6.658  12.873   8.255
 6241POPC   C3A11729   6.687  12.825   7.955
 6241POPC   C4A11730   6.624  12.845   7.655
 6241POPC   C1B11731   6.564  12.676   8.555
 6241POPC   C2B11732   6.537  12.607   8.255
 6241POPC   C3B11733   6.542  12.642   7.955
 6241POPC   C4B11734   6.507  12.664   7.655
 6242POPC   NC311735   5.121  44.616   9.455
 6242POPC   PO411736   5.068  44.622   9.155
 6242POPC   GL111737   5.114  44.624   8.855
 6242POPC   GL211738   5.163  44.751   8.855
 6242POPC   C1A11739   5.070  44.643   8.555
 6242POPC   D2A11740   5.122  44.639   8.255
 6242POPC   C3A11741   5.119  44.679   7.955
 6242POPC   C4A11742   5.109  44.677   7.655
 6242POPC   C1B11743   5.151  44.874   8.555
 6242POPC   C2B11744   5.193  44.881   8.255
 6242POPC   C3B11745   5.164  44.931   7.955
 6242POPC   C4B11746   5.158  44.886   7.655
 6243POPC   NC311747  36.168  38.423   9.455
 6243POPC   PO411748  36.155  38.414   9.155
 6243POPC   GL111749  36.104  38.490   8.855
 6243POPC   GL211750  36.236  38.389   8.855
 6243POPC   C1A11751  36.114  38.468   8.555
 6243POPC   D2A11752  36.163  38.498   8.255
 6243POPC   C3A11753  36.096  38.499   7.955
 6243POPC   C4A11754  36.107  38.449   7.655
 6243POPC   C1B11755  36.235  38.243   8.555
 6243POPC   C2B11756  36.288  38.251   8.255
 6243POPC   C3B11757  36.253  38.237   7.955
 6243POPC   C4B11758  36.259  38.236   7.655
 6244POPC   NC311759  40.740  37.720   9.455
 6244POPC   PO411760  40.735  37.687   9.155
 6244POPC   GL111761  40.800  37.703   8.855
 6244POPC   GL211762  40.886  37.812   8.855
 6244POPC   C1A11763  40.825  37.639   8.555
 6244POPC   D2A11764  40.758  37.708   8.255
 6244POPC   C3A11765  40.757  37.677   7.955
 6244POPC   C4A11766  40.757  37.692   7.655
 6244POPC   C1B11767  40.987  37.839   8.555
 6244POPC   C2B11768  40.974  37.817   8.255
 6244POPC   C3B11769  40.955  37.869   7.955
 6244POPC   C4B11770  40.991  37.825   7.655
 6245POPC   NC311771  38.431  26.083   9.455
 6245POPC   PO411772  38.457  26.005   9.155
 6245POPC   GL111773  38.412  25.998   8.855
 6245POPC   GL211774  38.559  26.029   8.855
 6245POPC   C1A11775  38.462  26.062   8.555
 6245POPC   D2A11776  38.449  26.025   8.255
 6245POPC   C3A11777  38.406  26.086   7.955
 6245POPC   C4A11778  38.432  25.994   7.655
 6245POPC   C1B11779  38.737  26.063   8.555
 6245POPC   C2B11780  38.710  26.108   8.255
 6245POPC   C3B11781  38.720  26.071   7.955
 6245POPC   C4B11782  38.687  26.087   7.655
 6246POPC   NC311783  42.287  20.646   9.455
 6246POPC   PO411784  42.331  20.607   9.155
 6246POPC   GL111785  42.361  20.623   8.855
 6246POPC   GL211786  42.484  20.658   8.855
 6246POPC   C1A11787  42.346  20.649   8.555
 6246POPC   D2A11788  42.356  20.579   8.255
 6246POPC   C3A11789  42.308  20.603   7.955
 6246POPC   C4A11790  42.320  20.564   7.655
 6246POPC   C1B11791  42.585  20.769   8.555
 6246POPC   C2B11792  42.545  20.705   8.255
 6246POPC   C3B11793  42.580  20.712   7.955
 6246POPC   C4B11794  42.544  20.741   7.655
 6247POPC   NC311795  27.563  24.449   9.455
 6247POPC   PO411796  27.560  24.529   9.155
 6247POPC   GL111797  27.634  24.516   8.855
 6247POPC   GL211798  27.690  24.511   8.855
 6247POPC   C1A11799  27.602  24.453   8.555
 6247POPC   D2A11800  27.546  24.448   8.255
 6247POPC   C3A11801  27.620  24.474   7.955
 6247POPC   C4A11802  27.598  24.446   7.655
 6247POPC   C1B11803  27.796  24.622   8.555
 6247POPC   C2B11804  27.771  24.678   8.255
 6247POPC   C3B11805  27.812  24.638   7.955
 6247POPC   C4B11806  27.823  24.631   7.655
 6248POPC   NC311807  29.195  13.628   9.455
 6248POPC   PO411808  29.145  13.640   9.155
 6248POPC   GL111809  29.101  13.599   8.855
 6248POPC   GL211810  29.158  13.487   8.855
 6248POPC   C1A11811  29.159  13.598   8.555
 6248POPC   D2A11812  29.163  13.578   8.255
 6248POPC   C3A11813  29.149  13.637   7.955
 6248POPC   C4A11814  29.113  13.666   7.655
 6248POPC   C1B11815  29.068  13.371   8.555
 6248POPC   C2B11816  29.147  13.413   8.255
 6248POPC   C3B11817  29.122  13.367   7.955
 6248POPC   C4B11818  29.137  13.337   7.655
 6249POPC   NC311819  44.622   3.591   9.455
 6249POPC   PO411820  44.669   3.563   9.155
 6249POPC   GL111821  44.688   3.574   8.855
 6249POPC   GL211822  44.777   3.683   8.855
 6249POPC   C1A11823  44.638   3.557   8.555
 6249POPC   D2A11824  44.680   3.558   8.255
 6249POPC   C3A11825  44.637   3.527   7.955
 6249POPC   C4A11826  44.711   3.502   7.655
 6249POPC   C1B11827  44.799   3.725   8.555
 6249POPC   C2B11828  44.835   3.748   8.255
 6249POPC   C3B11829  44.857   3.695   7.955
 6249POPC   C4B11830  44.869   3.722   7.655
 6250POPC   NC311831   8.972  12.088   9.455
 6250POPC   PO411832   9.000  12.093   9.155
 6250POPC   GL111833   9.008  12.044   8.855
 6250POPC   GL211834   9.071  12.104   8.855
 6250POPC   C1A11835   8.990  12.049   8.555
 6250POPC   D2A11836   8.979  12.051   8.255
 6250POPC   C3A11837   9.004  12.121   7.955
 6250POPC   C4A11838   8.987  12.038   7.655
 6250POPC   C1B11839   9.182  12.043   8.555
 6250POPC   C2B11840   9.235  12.031   8.255
 6250POPC   C3B11841   9.253  12.077   7.955
 6250POPC   C4B11842   9.200  12.035   7.655
 6251POPC   NC311843  15.977  24.501   9.455
 6251POPC   PO411844  15.906  24.532   9.155
 6251POPC   GL111845  15.928  24.469   8.855
 6251POPC   GL211846  16.056  24.386   8.855
 6251POPC   C1A11847  15.938  24.494   8.555
 6251POPC   D2A11848  16.000  24.485   8.255
 6251POPC   C3A11849  15.961  24.487   7.955
 6251POPC   C4A11850  15.925  24.440   7.655
 6251POPC   C1B11851  16.083  24.282   8.555
 6251POPC   C2B11852  16.093  24.344   8.255
 6251POPC   C3B11853  16.090  24.325   7.955
 6251POPC   C4B11854  16.145  24.270   7.655
 6252POPC   NC311855  26.837  40.816   9.455
 6252POPC   PO411856  26.816  40.806   9.155
 6252POPC   GL111857  26.785  40.733   8.855
 6252POPC   GL211858  26.758  40.680   8.855
 6252POPC   C1A11859  26.799  40.773   8.555
 6252POPC   D2A11860  26.768  40.746   8.255
 6252POPC   C3A11861  26.834  40.781   7.955
 6252POPC   C4A11862  26.820  40.801   7.655
 6252POPC   C1B11863  26.592  40.693   8.555
 6252POPC   C2B11864  26.638  40.666   8.255
 6252POPC   C3B11865  26.615  40.690   7.955
 6252POPC   C4B11866  26.594  40.630   7.655
 6253POPC   NC311867  18.284  38.497   9.455
 6253POPC   PO411868  18.320  38.450   9.155
 6253POPC   GL111869  18.272  38.415   8.855
 6253POPC   GL211870  18.372  38.523   8.855
 6253POPC   C1A11871  18.285  38.426   8.555
 6253POPC   D2A11872  18.326  38.451   8.255
 6253POPC   C3A11873  18.240  38.497   7.955
 6253POPC   C4A11874  18.290  38.489   7.655
 6253POPC   C1B11875  18.560  38.469   8.555
 6253POPC   C2B11876  18.496  38.453   8.255
 6253POPC   C3B11877  18.491  38.457   7.955
 6253POPC   C4B11878  18.572  38.486   7.655
 6254POPC   NC311879  42.317  26.808   9.455
 6254POPC   PO411880  42.374  26.806   9.155
 6254POPC   GL111881  42.355  26.809   8.855
 6254POPC   GL211882  42.427  26.710   8.855
 6254POPC   C1A11883  42.363  26.824   8.555
 6254POPC   D2A11884  42.316  26.773   8.255
 6254POPC   C3A11885  42.362  26.838   7.955
 6254POPC   C4A11886  42.331  26.838   7.655
 6254POPC   C1B11887  42.564  26.683   8.555
 6254POPC   C2B11888  42.520  26.654   8.255
 6254POPC   C3B11889  42.495  26.622   7.955
 6254POPC   C4B11890  42.514  26.617   7.655
 6255POPC   NC311891  29.114  16.758   9.455
 6255POPC   PO411892  29.117  16.747   9.155
 6255POPC   GL111893  29.125  16.767   8.855
 6255POPC   GL211894  29.271  16.626   8.855
 6255POPC   C1A11895  29.164  16.765   8.555
 6255POPC   D2A11896  29.131  16.758   8.255
 6255POPC   C3A11897  29.191  16.754   7.955
 6255POPC   C4A11898  29.175  16.713   7.655
 6255POPC   C1B11899  29.339  16.559   8.555
 6255POPC   C2B11900  29.353  16.567   8.255
 6255POPC   C3B11901  29.352  16.566   7.955
 6255POPC   C4B11902  29.376  16.559   7.655
 6256POPC   NC311903  36.942   7.458   9.455
 6256POPC   PO411904  36.863   7.385   9.155
 6256POPC   GL111905  36.935   7.466   8.855
 6256POPC   GL211906  36.915   7.265   8.855
 6256POPC   C1A11907  36.868   7.466   8.555
 6256POPC   D2A11908  36.860   7.461   8.255
 6256POPC   C3A11909  36.924   7.469   7.955
 6256POPC   C4A11910  36.939   7.449   7.655
 6256POPC   C1B11911  36.841   7.197   8.555
 6256POPC   C2B11912  36.864   7.222   8.255
 6256POPC   C3B11913  36.856   7.164   7.955
 6256POPC   C4B11914  36.857   7.139   7.655
 6257POPC   NC311915   0.429  18.268   9.455
 6257POPC   PO411916   0.392  18.301   9.155
 6257POPC   GL111917   0.446  18.292   8.855
 6257POPC   GL211918   0.520  18.327   8.855
 6257POPC   C1A11919   0.448  18.291   8.555
 6257POPC   D2A11920   0.393  18.317   8.255
 6257POPC   C3A11921   0.442  18.241   7.955
 6257POPC   C4A11922   0.477  18.284   7.655
 6257POPC   C1B11923   0.631  18.369   8.555
 6257POPC   C2B11924   0.714  18.439   8.255
 6257POPC   C3B11925   0.617  18.354   7.955
 6257POPC   C4B11926   0.692  18.428   7.655
 6258POPC   NC311927  39.964  21.376   9.455
 6258POPC   PO411928  39.980  21.419   9.155
 6258POPC   GL111929  40.057  21.429   8.855
 6258POPC   GL211930  40.085  21.381   8.855
 6258POPC   C1A11931  40.005  21.405   8.555
 6258POPC   D2A11932  39.987  21.370   8.255
 6258POPC   C3A11933  39.995  21.383   7.955
 6258POPC   C4A11934  39.960  21.427   7.655
 6258POPC   C1B11935  40.268  21.347   8.555
 6258POPC   C2B11936  40.216  21.405   8.255
 6258POPC   C3B11937  40.289  21.336   7.955
 6258POPC   C4B11938  40.304  21.362   7.655
 6259POPC   NC311939   4.358   5.826   9.455
 6259POPC   PO411940   4.360   5.912   9.155
 6259POPC   GL111941   4.282   5.918   8.855
 6259POPC   GL211942   4.157   5.922   8.855
 6259POPC   C1A11943   4.295   5.905   8.555
 6259POPC   D2A11944   4.319   5.898   8.255
 6259POPC   C3A11945   4.288   5.870   7.955
 6259POPC   C4A11946   4.284   5.889   7.655
 6259POPC   C1B11947   4.093   5.984   8.555
 6259POPC   C2B11948   4.068   5.952   8.255
 6259POPC   C3B11949   4.104   6.009   7.955
 6259POPC   C4B11950   4.091   6.006   7.655
 6260POPC   NC311951  26.030  14.451   9.455
 6260POPC   PO411952  26.075  14.384   9.155
 6260POPC   GL111953  26.087  14.429   8.855
 6260POPC   GL211954  26.123  14.420   8.855
 6260POPC   C1A11955  26.008  14.435   8.555
 6260POPC   D2A11956  26.044  14.445   8.255
 6260POPC   C3A11957  26.054  14.432   7.955
 6260POPC   C4A11958  26.090  14.408   7.655
 6260POPC   C1B11959  26.334  14.390   8.555
 6260POPC   C2B11960  26.300  14.443   8.255
 6260POPC   C3B11961  26.250  14.475   7.955
 6260POPC   C4B11962  26.286  14.470   7.655
 6261POPC   NC311963   3.525  28.355   9.455
 6261POPC   PO411964   3.523  28.362   9.155
 6261POPC   GL111965   3.573  28.418   8.855
 6261POPC   GL211966   3.455  28.243   8.855
 6261POPC   C1A11967   3.571  28.354   8.555
 6261POPC   D2A11968   3.518  28.403   8.255
 6261POPC   C3A11969   3.577  28.393   7.955
 6261POPC   C4A11970   3.524  28.343   7.655
 6261POPC   C1B11971   3.495  28.153   8.555
 6261POPC   C2B11972   3.459  28.180   8.255
 6261POPC   C3B11973   3.407  28.091   7.955
 6261POPC   C4B11974   3.485  28.103   7.655
 6262POPC   NC311975  39.211  22.966   9.455
 6262POPC   PO411976  39.279  22.923   9.155
 6262POPC   GL111977  39.189  22.935   8.855
 6262POPC   GL211978  39.146  23.025   8.855
 6262POPC   C1A11979  39.250  22.890   8.555
 6262POPC   D2A11980  39.260  22.975   8.255
 6262POPC   C3A11981  39.214  22.890   7.955
 6262POPC   C4A11982  39.187  22.908   7.655
 6262POPC   C1B11983  39.036  23.005   8.555
 6262POPC   C2B11984  39.026  23.056   8.255
 6262POPC   C3B11985  38.956  23.008   7.955
 6262POPC   C4B11986  39.036  22.993   7.655
 6263POPC   NC311987  26.019  30.705   9.455
 6263POPC   PO411988  25.997  30.660   9.155
 6263POPC   GL111989  26.068  30.740   8.855
 6263POPC   GL211990  25.994  30.782   8.855
 6263POPC   C1A11991  26.052  30.696   8.555
 6263POPC   D2A11992  26.010  30.703   8.255
 6263POPC   C3A11993  25.999  30.705   7.955
 6263POPC   C4A11994  26.047  30.677   7.655
 6263POPC   C1B11995  25.917  30.936   8.555
 6263POPC   C2B11996  25.858  30.863   8.255
 6263POPC   C3B11997  25.926  30.912   7.955
 6263POPC   C4B11998  25.852  30.887   7.655
 6264POPC   NC311999   5.827  37.633   9.455
 6264POPC   PO412000   5.877  37.641   9.155
 6264POPC   GL112001   5.832  37.664   8.855
 6264POPC   GL212002   5.916  37.552   8.855
 6264POPC   C1A12003   5.841  37.728   8.555
 6264POPC   D2A12004   5.847  37.719   8.255
 6264POPC   C3A12005   5.821  37.632   7.955
 6264POPC   C4A12006   5.918  37.710   7.655
 6264POPC   C1B12007   5.957  37.402   8.555
 6264POPC   C2B12008   5.964  37.436   8.255
 6264POPC   C3B12009   5.899  37.473   7.955
 6264POPC   C4B12010   5.952  37.470   7.655
 6265POPC   NC312011  40.788  32.226   9.455
 6265POPC   PO412012  40.820  32.236   9.155
 6265POPC   GL112013  40.774  32.236   8.855
 6265POPC   GL212014  40.691  32.201   8.855
 6265POPC   C1A12015  40.808  32.280   8.555
 6265POPC   D2A12016  40.753  32.276   8.255
 6265POPC   C3A12017  40.733  32.207   7.955
 6265POPC   C4A12018  40.742  32.241   7.655
 6265POPC   C1B12019  40.590  32.122   8.555
 6265POPC   C2B12020  40.592  32.069   8.255
 6265POPC   C3B12021  40.566  32.086   7.955
 6265POPC   C4B12022  40.636  32.090   7.655
 6266POPC   NC312023  29.874  33.772   9.455
 6266POPC   PO412024  29.887  33.816   9.155
 6266POPC   GL112025  29.892  33.825   8.855
 6266POPC   GL212026  30.079  33.696   8.855
 6266POPC   C1A12027  29.889  33.818   8.555
 6266POPC   D2A12028  29.874  33.785   8.255
 6266POPC   C3A12029  29.883  33.787   7.955
 6266POPC   C4A12030  29.950  33.780   7.655
 6266POPC   C1B12031  30.112  33.666   8.555
 6266POPC   C2B12032  30.095  33.659   8.255
 6266POPC   C3B12033  30.089  33.713   7.955
 6266POPC   C4B12034  30.094  33.712   7.655
 6267POPC   NC312035  14.447  35.397   9.455
 6267POPC   PO412036  14.375  35.335   9.155
 6267POPC   GL112037  14.375  35.361   8.855
 6267POPC   GL212038  14.478  35.390   8.855
 6267POPC   C1A12039  14.447  35.341   8.555
 6267POPC   D2A12040  14.396  35.342   8.255
 6267POPC   C3A12041  14.450  35.379   7.955
 6267POPC   C4A12042  14.403  35.307   7.655
 6267POPC   C1B12043  14.579  35.529   8.555
 6267POPC   C2B12044  14.577  35.515   8.255
 6267POPC   C3B12045  14.601  35.541   7.955
 6267POPC   C4B12046  14.599  35.532   7.655
 6268POPC   NC312047  38.487   9.740   9.455
 6268POPC   PO412048  38.498   9.750   9.155
 6268POPC   GL112049  38.420   9.793   8.855
 6268POPC   GL212050  38.339   9.632   8.855
 6268POPC   C1A12051  38.438   9.785   8.555
 6268POPC   D2A12052  38.473   9.739   8.255
 6268POPC   C3A12053  38.411   9.746   7.955
 6268POPC   C4A12054  38.488   9.779   7.655
 6268POPC   C1B12055  38.261   9.597   8.555
 6268POPC   C2B12056  38.240   9.580   8.255
 6268POPC   C3B12057  38.217   9.635   7.955
 6268POPC   C4B12058  38.273   9.584   7.655
 6269POPC   NC312059   8.160  43.920   9.455
 6269POPC   PO412060   8.204  43.891   9.155
 6269POPC   GL112061   8.207  43.924   8.855
 6269POPC   GL212062   8.267  43.810   8.855
 6269POPC   C1A12063   8.241  43.909   8.555
 6269POPC   D2A12064   8.174  43.843   8.255
 6269POPC   C3A12065   8.208  43.878   7.955
 6269POPC   C4A12066   8.197  43.932   7.655
 6269POPC   C1B12067   8.383  43.769   8.555
 6269POPC   C2B12068   8.382  43.773   8.255
 6269POPC   C3B12069   8.360  43.782   7.955
 6269POPC   C4B12070   8.424  43.761   7.655
 6270POPC   NC312071  28.346   5.123   9.455
 6270POPC   PO412072  28.411   5.128   9.155
 6270POPC   GL112073  28.369   5.097   8.855
 6270POPC   GL212074  28.354   5.192   8.855
 6270POPC   C1A12075  28.395   5.085   8.555
 6270POPC   D2A12076  28.369   5.049   8.255
 6270POPC   C3A12077  28.372   5.044   7.955
 6270POPC   C4A12078  28.418   5.062   7.655
 6270POPC   C1B12079  28.322   5.338   8.555
 6270POPC   C2B12080  28.277   5.319   8.255
 6270POPC   C3B12081  28.317   5.287   7.955
 6270POPC   C4B12082  28.274   5.300   7.655
 6271POPC   NC312083  27.621  13.646   9.455
 6271POPC   PO412084  27.572  13.640   9.155
 6271POPC   GL112085  27.600  13.587   8.855
 6271POPC   GL212086  27.443  13.516   8.855
 6271POPC   C1A12087  27.585  13.583   8.555
 6271POPC   D2A12088  27.627  13.631   8.255
 6271POPC   C3A12089  27.579  13.618   7.955
 6271POPC   C4A12090  27.624  13.655   7.655
 6271POPC   C1B12091  27.345  13.473   8.555
 6271POPC   C2B12092  27.338  13.537   8.255
 6271POPC   C3B12093  27.356  13.484   7.955
 6271POPC   C4B12094  27.336  13.454   7.655
 6272POPC   NC312095  29.892  19.073   9.455
 6272POPC   PO412096  29.958  19.030   9.155
 6272POPC   GL112097  29.914  19.062   8.855
 6272POPC   GL212098  29.997  19.206   8.855
 6272POPC   C1A12099  29.935  19.088   8.555
 6272POPC   D2A12100  29.956  19.082   8.255
 6272POPC   C3A12101  29.875  19.057   7.955
 6272POPC   C4A12102  29.923  19.098   7.655
 6272POPC   C1B12103  30.095  19.235   8.555
 6272POPC   C2B12104  30.040  19.214   8.255
 6272POPC   C3B12105  30.026  19.298   7.955
 6272POPC   C4B12106  30.097  19.216   7.655
 6273POPC   NC312107  20.572  19.818   9.455
 6273POPC   PO412108  20.608  19.785   9.155
 6273POPC   GL112109  20.583  19.874   8.855
 6273POPC   GL212110  20.590  19.993   8.855
 6273POPC   C1A12111  20.658  19.824   8.555
 6273POPC   D2A12112  20.564  19.823   8.255
 6273POPC   C3A12113  20.621  19.869   7.955
 6273POPC   C4A12114  20.565  19.787   7.655
 6273POPC   C1B12115  20.486  20.083   8.555
 6273POPC   C2B12116  20.464  20.079   8.255
 6273POPC   C3B12117  20.557  20.104   7.955
 6273POPC   C4B12118  20.503  20.020   7.655
 6274POPC   NC312119  17.551  36.126   9.455
 6274POPC   PO412120  17.496  36.084   9.155
 6274POPC   GL112121  17.478  36.160   8.855
 6274POPC   GL212122  17.534  36.201   8.855
 6274POPC   C1A12123  17.533  36.174   8.555
 6274POPC   D2A12124  17.480  36.078   8.255
 6274POPC   C3A12125  17.500  36.120   7.955
 6274POPC   C4A12126  17.484  36.120   7.655
 6274POPC   C1B12127  17.621  36.335   8.555
 6274POPC   C2B12128  17.570  36.354   8.255
 6274POPC   C3B12129  17.592  36.357   7.955
 6274POPC   C4B12130  17.547  36.330   7.655
 6275POPC   NC312131  13.647  43.062   9.455
 6275POPC   PO412132  13.638  43.132   9.155
 6275POPC   GL112133  13.670  43.111   8.855
 6275POPC   GL212134  13.702  43.061   8.855
 6275POPC   C1A12135  13.624  43.153   8.555
 6275POPC   D2A12136  13.611  43.065   8.255
 6275POPC   C3A12137  13.667  43.079   7.955
 6275POPC   C4A12138  13.582  43.067   7.655
 6275POPC   C1B12139  13.907  43.043   8.555
 6275POPC   C2B12140  13.887  43.068   8.255
 6275POPC   C3B12141  13.916  43.069   7.955
 6275POPC   C4B12142  13.847  43.033   7.655
 6276POPC   NC312143   1.194  38.492   9.455
 6276POPC   PO412144   1.237  38.460   9.155
 6276POPC   GL112145   1.211  38.425   8.855
 6276POPC   GL212146   1.057  38.486   8.855
 6276POPC   C1A12147   1.188  38.490   8.555
 6276POPC   D2A12148   1.174  38.453   8.255
 6276POPC   C3A12149   1.242  38.461   7.955
 6276POPC   C4A12150   1.262  38.408   7.655
 6276POPC   C1B12151   1.025  38.520   8.555
 6276POPC   C2B12152   0.969  38.541   8.255
 6276POPC   C3B12153   0.981  38.578   7.955
 6276POPC   C4B12154   1.025  38.606   7.655
 6277POPC   NC312155  40.010  23.737   9.455
 6277POPC   PO412156  40.017  23.734   9.155
 6277POPC   GL112157  40.038  23.677   8.855
 6277POPC   GL212158  40.109  23.801   8.855
 6277POPC   C1A12159  39.960  23.712   8.555
 6277POPC   D2A12160  39.987  23.741   8.255
 6277POPC   C3A12161  40.010  23.753   7.955
 6277POPC   C4A12162  40.048  23.725   7.655
 6277POPC   C1B12163  40.129  23.914   8.555
 6277POPC   C2B12164  40.117  23.964   8.255
 6277POPC   C3B12165  40.197  23.914   7.955
 6277POPC   C4B12166  40.160  23.870   7.655
 6278POPC   NC312167  29.930   5.109   9.455
 6278POPC   PO412168  29.886   5.048   9.155
 6278POPC   GL112169  29.895   5.109   8.855
 6278POPC   GL212170  30.052   5.106   8.855
 6278POPC   C1A12171  29.916   5.049   8.555
 6278POPC   D2A12172  29.915   5.058   8.255
 6278POPC   C3A12173  29.871   5.066   7.955
 6278POPC   C4A12174  29.912   5.109   7.655
 6278POPC   C1B12175  30.135   5.157   8.555
 6278POPC   C2B12176  30.101   5.151   8.255
 6278POPC   C3B12177  30.155   5.228   7.955
 6278POPC   C4B12178  30.130   5.225   7.655
 6279POPC   NC312179   0.390   5.908   9.455
 6279POPC   PO412180   0.473   5.918   9.155
 6279POPC   GL112181   0.423   5.832   8.855
 6279POPC   GL212182   0.494   5.956   8.855
 6279POPC   C1A12183   0.392   5.859   8.555
 6279POPC   D2A12184   0.434   5.864   8.255
 6279POPC   C3A12185   0.400   5.842   7.955
 6279POPC   C4A12186   0.477   5.869   7.655
 6279POPC   C1B12187   0.413   6.111   8.555
 6279POPC   C2B12188   0.504   6.160   8.255
 6279POPC   C3B12189   0.421   6.167   7.955
 6279POPC   C4B12190   0.430   6.084   7.655
 6280POPC   NC312191   1.176  18.277   9.455
 6280POPC   PO412192   1.199  18.249   9.155
 6280POPC   GL112193   1.180  18.322   8.855
 6280POPC   GL212194   1.340  18.331   8.855
 6280POPC   C1A12195   1.186  18.325   8.555
 6280POPC   D2A12196   1.229  18.286   8.255
 6280POPC   C3A12197   1.250  18.250   7.955
 6280POPC   C4A12198   1.261  18.275   7.655
 6280POPC   C1B12199   1.459  18.346   8.555
 6280POPC   C2B12200   1.445  18.389   8.255
 6280POPC   C3B12201   1.483  18.321   7.955
 6280POPC   C4B12202   1.491  18.350   7.655
 6281POPC   NC312203   8.958  32.272   9.455
 6281POPC   PO412204   9.019  32.223   9.155
 6281POPC   GL112205   8.973  32.289   8.855
 6281POPC   GL212206   8.935  32.407   8.855
 6281POPC   C1A12207   8.964  32.215   8.555
 6281POPC   D2A12208   8.989  32.228   8.255
 6281POPC   C3A12209   9.017  32.287   7.955
 6281POPC   C4A12210   8.942  32.230   7.655
 6281POPC   C1B12211   8.866  32.437   8.555
 6281POPC   C2B12212   8.895  32.480   8.255
 6281POPC   C3B12213   8.841  32.481   7.955
 6281POPC   C4B12214   8.827  32.495   7.655
 6282POPC   NC312215   3.506  42.314   9.455
 6282POPC   PO412216   3.495  42.323   9.155
 6282POPC   GL112217   3.531  42.296   8.855
 6282POPC   GL212218   3.442  42.249   8.855
 6282POPC   C1A12219   3.558  42.356   8.555
 6282POPC   D2A12220   3.517  42.336   8.255
 6282POPC   C3A12221   3.501  42.375   7.955
 6282POPC   C4A12222   3.574  42.342   7.655
 6282POPC   C1B12223   3.388  42.174   8.555
 6282POPC   C2B12224   3.434  42.157   8.255
 6282POPC   C3B12225   3.349  42.102   7.955
 6282POPC   C4B12226   3.372  42.161   7.655
 6283POPC   NC312227  12.803  33.068   9.455
 6283POPC   PO412228  12.874  32.986   9.155
 6283POPC   GL112229  12.817  33.067   8.855
 6283POPC   GL212230  12.763  33.100   8.855
 6283POPC   C1A12231  12.829  33.039   8.555
 6283POPC   D2A12232  12.809  32.979   8.255
 6283POPC   C3A12233  12.887  33.017   7.955
 6283POPC   C4A12234  12.856  33.028   7.655
 6283POPC   C1B12235  12.612  33.108   8.555
 6283POPC   C2B12236  12.667  33.146   8.255
 6283POPC   C3B12237  12.602  33.165   7.955
 6283POPC   C4B12238  12.628  33.116   7.655
 6284POPC   NC312239  19.093  39.232   9.455
 6284POPC   PO412240  19.030  39.249   9.155
 6284POPC   GL112241  19.050  39.217   8.855
 6284POPC   GL212242  18.985  39.320   8.855
 6284POPC   C1A12243  19.064  39.196   8.555
 6284POPC   D2A12244  19.038  39.189   8.255
 6284POPC   C3A12245  19.058  39.217   7.955
 6284POPC   C4A12246  19.077  39.277   7.655
 6284POPC   C1B12247  18.903  39.392   8.555
 6284POPC   C2B12248  18.841  39.364   8.255
 6284POPC   C3B12249  18.915  39.396   7.955
 6284POPC   C4B12250  18.842  39.426   7.655
 6285POPC   NC312251  43.114  32.276   9.455
 6285POPC   PO412252  43.060  32.292   9.155
 6285POPC   GL112253  43.152  32.238   8.855
 6285POPC   GL212254  42.994  32.186   8.855
 6285POPC   C1A12255  43.145  32.290   8.555
 6285POPC   D2A12256  43.062  32.269   8.255
 6285POPC   C3A12257  43.069  32.212   7.955
 6285POPC   C4A12258  43.098  32.207   7.655
 6285POPC   C1B12259  42.850  32.126   8.555
 6285POPC   C2B12260  42.902  32.184   8.255
 6285POPC   C3B12261  42.902  32.097   7.955
 6285POPC   C4B12262  42.927  32.145   7.655
 6286POPC   NC312263   8.164  15.190   9.455
 6286POPC   PO412264   8.227  15.199   9.155
 6286POPC   GL112265   8.180  15.219   8.855
 6286POPC   GL212266   8.043  15.186   8.855
 6286POPC   C1A12267   8.229  15.144   8.555
 6286POPC   D2A12268   8.182  15.198   8.255
 6286POPC   C3A12269   8.174  15.188   7.955
 6286POPC   C4A12270   8.201  15.156   7.655
 6286POPC   C1B12271   7.924  15.227   8.555
 6286POPC   C2B12272   7.979  15.272   8.255
 6286POPC   C3B12273   7.978  15.233   7.955
 6286POPC   C4B12274   7.988  15.278   7.655
 6287POPC   NC312275  43.865  38.455   9.455
 6287POPC   PO412276  43.839  38.409   9.155
 6287POPC   GL112277  43.916  38.458   8.855
 6287POPC   GL212278  43.737  38.410   8.855
 6287POPC   C1A12279  43.905  38.416   8.555
 6287POPC   D2A12280  43.900  38.489   8.255
 6287POPC   C3A12281  43.839  38.463   7.955
 6287POPC   C4A12282  43.903  38.471   7.655
 6287POPC   C1B12283  43.670  38.355   8.555
 6287POPC   C2B12284  43.693  38.284   8.255
 6287POPC   C3B12285  43.643  38.321   7.955
 6287POPC   C4B12286  43.669  38.302   7.655
 6288POPC   NC312287  37.699  16.700   9.455
 6288POPC   PO412288  37.722  16.685   9.155
 6288POPC   GL112289  37.656  16.751   8.855
 6288POPC   GL212290  37.688  16.613   8.855
 6288POPC   C1A12291  37.716  16.746   8.555
 6288POPC   D2A12292  37.680  16.752   8.255
 6288POPC   C3A12293  37.656  16.747   7.955
 6288POPC   C4A12294  37.632  16.775   7.655
 6288POPC   C1B12295  37.708  16.516   8.555
 6288POPC   C2B12296  37.708  16.441   8.255
 6288POPC   C3B12297  37.683  16.526   7.955
 6288POPC   C4B12298  37.670  16.472   7.655
 6289POPC   NC312299  22.127   8.946   9.455
 6289POPC   PO412300  22.206   8.977   9.155
 6289POPC   GL112301  22.186   9.006   8.855
 6289POPC   GL212302  22.200   8.901   8.855
 6289POPC   C1A12303  22.181   9.004   8.555
 6289POPC   D2A12304  22.130   8.981   8.255
 6289POPC   C3A12305  22.212   8.939   7.955
 6289POPC   C4A12306  22.198   8.928   7.655
 6289POPC   C1B12307  22.324   8.753   8.555
 6289POPC   C2B12308  22.330   8.723   8.255
 6289POPC   C3B12309  22.327   8.791   7.955
 6289POPC   C4B12310  22.298   8.816   7.655
 6290POPC   NC312311   6.688   3.550   9.455
 6290POPC   PO412312   6.640   3.554   9.155
 6290POPC   GL112313   6.604   3.559   8.855
 6290POPC   GL212314   6.515   3.634   8.855
 6290POPC   C1A12315   6.681   3.554   8.555
 6290POPC   D2A12316   6.664   3.498   8.255
 6290POPC   C3A12317   6.692   3.494   7.955
 6290POPC   C4A12318   6.667   3.534   7.655
 6290POPC   C1B12319   6.440   3.685   8.555
 6290POPC   C2B12320   6.460   3.641   8.255
 6290POPC   C3B12321   6.426   3.712   7.955
 6290POPC   C4B12322   6.449   3.655   7.655
 6291POPC   NC312323  36.866  25.265   9.455
 6291POPC   PO412324  36.935  25.308   9.155
 6291POPC   GL112325  36.939  25.303   8.855
 6291POPC   GL212326  36.998  25.180   8.855
 6291POPC   C1A12327  36.862  25.265   8.555
 6291POPC   D2A12328  36.919  25.287   8.255
 6291POPC   C3A12329  36.880  25.291   7.955
 6291POPC   C4A12330  36.939  25.292   7.655
 6291POPC   C1B12331  37.014  25.024   8.555
 6291POPC   C2B12332  36.986  25.090   8.255
 6291POPC   C3B12333  37.007  25.057   7.955
 6291POPC   C4B12334  37.084  25.068   7.655
 6292POPC   NC312335  43.876  26.021   9.455
 6292POPC   PO412336  43.841  26.036   9.155
 6292POPC   GL112337  43.917  26.062   8.855
 6292POPC   GL212338  43.978  26.024   8.855
 6292POPC   C1A12339  43.906  25.993   8.555
 6292POPC   D2A12340  43.921  26.069   8.255
 6292POPC   C3A12341  43.866  26.035   7.955
 6292POPC   C4A12342  43.902  26.033   7.655
 6292POPC   C1B12343  44.142  25.959   8.555
 6292POPC   C2B12344  44.097  25.949   8.255
 6292POPC   C3B12345  44.109  25.940   7.955
 6292POPC   C4B12346  44.108  25.966   7.655
 6293POPC   NC312347  37.705  32.254   9.455
 6293POPC   PO412348  37.651  32.291   9.155
 6293POPC   GL112349  37.652  32.230   8.855
 6293POPC   GL212350  37.666  32.131   8.855
 6293POPC   C1A12351  37.646  32.271   8.555
 6293POPC   D2A12352  37.631  32.228   8.255
 6293POPC   C3A12353  37.699  32.295   7.955
 6293POPC   C4A12354  37.723  32.292   7.655
 6293POPC   C1B12355  37.662  32.014   8.555
 6293POPC   C2B12356  37.615  31.986   8.255
 6293POPC   C3B12357  37.587  32.038   7.955
 6293POPC   C4B12358  37.654  32.044   7.655
 6294POPC   NC312359  42.369  15.198   9.455
 6294POPC   PO412360  42.379  15.229   9.155
 6294POPC   GL112361  42.361  15.163   8.855
 6294POPC   GL212362  42.464  15.186   8.855
 6294POPC   C1A12363  42.302  15.152   8.555
 6294POPC   D2A12364  42.314  15.215   8.255
 6294POPC   C3A12365  42.384  15.226   7.955
 6294POPC   C4A12366  42.354  15.159   7.655
 6294POPC   C1B12367  42.568  15.117   8.555
 6294POPC   C2B12368  42.590  15.135   8.255
 6294POPC   C3B12369  42.589  15.090   7.955
 6294POPC   C4B12370  42.533  15.091   7.655
 6295POPC   NC312371  36.947  22.905   9.455
 6295POPC   PO412372  36.930  22.904   9.155
 6295POPC   GL112373  36.923  22.919   8.855
 6295POPC   GL212374  36.875  22.842   8.855
 6295POPC   C1A12375  36.950  22.972   8.555
 6295POPC   D2A12376  36.905  22.985   8.255
 6295POPC   C3A12377  36.916  22.890   7.955
 6295POPC   C4A12378  36.928  22.952   7.655
 6295POPC   C1B12379  36.894  22.710   8.555
 6295POPC   C2B12380  36.967  22.671   8.255
 6295POPC   C3B12381  36.982  22.702   7.955
 6295POPC   C4B12382  36.986  22.688   7.655
 6296POPC   NC312383  32.984   2.742   9.455
 6296POPC   PO412384  32.983   2.733   9.155
 6296POPC   GL112385  33.069   2.791   8.855
 6296POPC   GL212386  33.173   2.742   8.855
 6296POPC   C1A12387  33.067   2.802   8.555
 6296POPC   D2A12388  32.978   2.716   8.255
 6296POPC   C3A12389  33.031   2.781   7.955
 6296POPC   C4A12390  32.982   2.809   7.655
 6296POPC   C1B12391  33.261   2.692   8.555
 6296POPC   C2B12392  33.299   2.680   8.255
 6296POPC   C3B12393  33.279   2.641   7.955
 6296POPC   C4B12394  33.233   2.671   7.655
 6297POPC   NC312395  19.841   8.989   9.455
 6297POPC   PO412396  19.812   8.936   9.155
 6297POPC   GL112397  19.848   8.989   8.855
 6297POPC   GL212398  19.710   8.942   8.855
 6297POPC   C1A12399  19.881   8.978   8.555
 6297POPC   D2A12400  19.856   9.005   8.255
 6297POPC   C3A12401  19.838   8.963   7.955
 6297POPC   C4A12402  19.787   8.940   7.655
 6297POPC   C1B12403  19.607   8.840   8.555
 6297POPC   C2B12404  19.621   8.792   8.255
 6297POPC   C3B12405  19.597   8.807   7.955
 6297POPC   C4B12406  19.679   8.849   7.655
 6298POPC   NC312407  22.944  15.218   9.455
 6298POPC   PO412408  22.962  15.199   9.155
 6298POPC   GL112409  22.902  15.146   8.855
 6298POPC   GL212410  22.808  15.188   8.855
 6298POPC   C1A12411  22.898  15.181   8.555
 6298POPC   D2A12412  22.923  15.209   8.255
 6298POPC   C3A12413  22.923  15.138   7.955
 6298POPC   C4A12414  22.979  15.229   7.655
 6298POPC   C1B12415  22.736  15.193   8.555
 6298POPC   C2B12416  22.727  15.260   8.255
 6298POPC   C3B12417  22.735  15.257   7.955
 6298POPC   C4B12418  22.683  15.220   7.655
 6299POPC   NC312419  18.251   8.983   9.455
 6299POPC   PO412420  18.269   8.965   9.155
 6299POPC   GL112421  18.275   8.953   8.855
 6299POPC   GL212422  18.226   9.138   8.855
 6299POPC   C1A12423  18.320   8.992   8.555
 6299POPC   D2A12424  18.259   8.961   8.255
 6299POPC   C3A12425  18.296   8.977   7.955
 6299POPC   C4A12426  18.289   8.939   7.655
 6299POPC   C1B12427  18.257   9.252   8.555
 6299POPC   C2B12428  18.195   9.188   8.255
 6299POPC   C3B12429  18.181   9.252   7.955
 6299POPC   C4B12430  18.236   9.195   7.655
 6300POPC   NC312431  38.478  13.599   9.455
 6300POPC   PO412432  38.465  13.664   9.155
 6300POPC   GL112433  38.505  13.594   8.855
 6300POPC   GL212434  38.406  13.755   8.855
 6300POPC   C1A12435  38.461  13.637   8.555
 6300POPC   D2A12436  38.456  13.665   8.255
 6300POPC   C3A12437  38.495  13.589   7.955
 6300POPC   C4A12438  38.427  13.612   7.655
 6300POPC   C1B12439  38.303  13.805   8.555
 6300POPC   C2B12440  38.352  13.808   8.255
 6300POPC   C3B12441  38.369  13.853   7.955
 6300POPC   C4B12442  38.305  13.822   7.655
 6301POPC   NC312443  16.700   8.160   9.455
 6301POPC   PO412444  16.745   8.175   9.155
 6301POPC   GL112445  16.705   8.208   8.855
 6301POPC   GL212446  16.595   8.205   8.855
 6301POPC   C1A12447  16.749   8.187   8.555
 6301POPC   D2A12448  16.750   8.202   8.255
 6301POPC   C3A12449  16.776   8.171   7.955
 6301POPC   C4A12450  16.682   8.148   7.655
 6301POPC   C1B12451  16.508   8.204   8.555
 6301POPC   C2B12452  16.469   8.270   8.255
 6301POPC   C3B12453  16.522   8.232   7.955
 6301POPC   C4B12454  16.516   8.268   7.655
 6302POPC   NC312455   3.495  14.398   9.455
 6302POPC   PO412456   3.525  14.424   9.155
 6302POPC   GL112457   3.541  14.364   8.855
 6302POPC   GL212458   3.474  14.467   8.855
 6302POPC   C1A12459   3.539  14.389   8.555
 6302POPC   D2A12460   3.534  14.418   8.255
 6302POPC   C3A12461   3.495  14.366   7.955
 6302POPC   C4A12462   3.548  14.414   7.655
 6302POPC   C1B12463   3.448  14.635   8.555
 6302POPC   C2B12464   3.462  14.628   8.255
 6302POPC   C3B12465   3.387  14.601   7.955
 6302POPC   C4B12466   3.400  14.645   7.655
 6303POPC   NC312467   7.422  37.694   9.455
 6303POPC   PO412468   7.415  37.655   9.155
 6303POPC   GL112469   7.374  37.680   8.855
 6303POPC   GL212470   7.418  37.604   8.855
 6303POPC   C1A12471   7.374  37.679   8.555
 6303POPC   D2A12472   7.402  37.703   8.255
 6303POPC   C3A12473   7.400  37.662   7.955
 6303POPC   C4A12474   7.456  37.691   7.655
 6303POPC   C1B12475   7.439  37.466   8.555
 6303POPC   C2B12476   7.418  37.390   8.255
 6303POPC   C3B12477   7.371  37.451   7.955
 6303POPC   C4B12478   7.399  37.400   7.655
 6304POPC   NC312479  27.612  31.437   9.455
 6304POPC   PO412480  27.633  31.488   9.155
 6304POPC   GL112481  27.553  31.482   8.855
 6304POPC   GL212482  27.754  31.444   8.855
 6304POPC   C1A12483  27.636  31.423   8.555
 6304POPC   D2A12484  27.620  31.446   8.255
 6304POPC   C3A12485  27.576  31.515   7.955
 6304POPC   C4A12486  27.592  31.488   7.655
 6304POPC   C1B12487  27.846  31.398   8.555
 6304POPC   C2B12488  27.801  31.448   8.255
 6304POPC   C3B12489  27.800  31.445   7.955
 6304POPC   C4B12490  27.877  31.404   7.655
 6305POPC   NC312491  27.556  44.615   9.455
 6305POPC   PO412492  27.604  44.671   9.155
 6305POPC   GL112493  27.555  44.620   8.855
 6305POPC   GL212494  27.630  44.615   8.855
 6305POPC   C1A12495  27.551  44.615   8.555
 6305POPC   D2A12496  27.620  44.672   8.255
 6305POPC   C3A12497  27.585  44.658   7.955
 6305POPC   C4A12498  27.561  44.663   7.655
 6305POPC   C1B12499  27.703  44.482   8.555
 6305POPC   C2B12500  27.757  44.496   8.255
 6305POPC   C3B12501  27.741  44.494   7.955
 6305POPC   C4B12502  27.780  44.451   7.655
 6306POPC   NC312503  10.535  42.348   9.455
 6306POPC   PO412504  10.521  42.383   9.155
 6306POPC   GL112505  10.540  42.332   8.855
 6306POPC   GL212506  10.395  42.326   8.855
 6306POPC   C1A12507  10.558  42.348   8.555
 6306POPC   D2A12508  10.492  42.315   8.255
 6306POPC   C3A12509  10.524  42.298   7.955
 6306POPC   C4A12510  10.532  42.303   7.655
 6306POPC   C1B12511  10.269  42.354   8.555
 6306POPC   C2B12512  10.277  42.360   8.255
 6306POPC   C3B12513  10.310  42.339   7.955
 6306POPC   C4B12514  10.255  42.281   7.655
 6307POPC   NC312515  43.070  40.034   9.455
 6307POPC   PO412516  43.068  39.968   9.155
 6307POPC   GL112517  43.084  39.976   8.855
 6307POPC   GL212518  43.144  40.136   8.855
 6307POPC   C1A12519  43.154  40.048   8.555
 6307POPC   D2A12520  43.127  39.971   8.255
 6307POPC   C3A12521  43.063  40.043   7.955
 6307POPC   C4A12522  43.118  40.025   7.655
 6307POPC   C1B12523  43.052  40.283   8.555
 6307POPC   C2B12524  43.110  40.224   8.255
 6307POPC   C3B12525  43.060  40.299   7.955
 6307POPC   C4B12526  43.137  40.281   7.655
 6308POPC   NC312527  40.764  15.927   9.455
 6308POPC   PO412528  40.743  15.941   9.155
 6308POPC   GL112529  40.768  15.961   8.855
 6308POPC   GL212530  40.740  15.854   8.855
 6308POPC   C1A12531  40.733  15.949   8.555
 6308POPC   D2A12532  40.823  16.000   8.255
 6308POPC   C3A12533  40.774  15.955   7.955
 6308POPC   C4A12534  40.792  16.003   7.655
 6308POPC   C1B12535  40.609  15.813   8.555
 6308POPC   C2B12536  40.560  15.750   8.255
 6308POPC   C3B12537  40.563  15.809   7.955
 6308POPC   C4B12538  40.643  15.808   7.655
 6309POPC   NC312539  27.580  40.055   9.455
 6309POPC   PO412540  27.555  40.016   9.155
 6309POPC   GL112541  27.586  40.031   8.855
 6309POPC   GL212542  27.682  39.980   8.855
 6309POPC   C1A12543  27.635  40.029   8.555
 6309POPC   D2A12544  27.553  39.985   8.255
 6309POPC   C3A12545  27.617  40.019   7.955
 6309POPC   C4A12546  27.573  40.027   7.655
 6309POPC   C1B12547  27.820  39.981   8.555
 6309POPC   C2B12548  27.837  39.914   8.255
 6309POPC   C3B12549  27.831  39.979   7.955
 6309POPC   C4B12550  27.825  39.944   7.655
 6310POPC   NC312551  37.657  27.605   9.455
 6310POPC   PO412552  37.675  27.568   9.155
 6310POPC   GL112553  37.631  27.556   8.855
 6310POPC   GL212554  37.645  27.441   8.855
 6310POPC   C1A12555  37.721  27.559   8.555
 6310POPC   D2A12556  37.637  27.578   8.255
 6310POPC   C3A12557  37.650  27.608   7.955
 6310POPC   C4A12558  37.685  27.587   7.655
 6310POPC   C1B12559  37.597  27.321   8.555
 6310POPC   C2B12560  37.553  27.335   8.255
 6310POPC   C3B12561  37.551  27.374   7.955
 6310POPC   C4B12562  37.568  27.395   7.655
 6311POPC   NC312563  36.944  35.367   9.455
 6311POPC   PO412564  36.854  35.359   9.155
 6311POPC   GL112565  36.898  35.333   8.855
 6311POPC   GL212566  36.812  35.397   8.855
 6311POPC   C1A12567  36.892  35.338   8.555
 6311POPC   D2A12568  36.940  35.373   8.255
 6311POPC   C3A12569  36.876  35.307   7.955
 6311POPC   C4A12570  36.918  35.341   7.655
 6311POPC   C1B12571  36.760  35.504   8.555
 6311POPC   C2B12572  36.766  35.517   8.255
 6311POPC   C3B12573  36.775  35.547   7.955
 6311POPC   C4B12574  36.750  35.561   7.655
 6312POPC   NC312575  35.341  18.298   9.455
 6312POPC   PO412576  35.364  18.313   9.155
 6312POPC   GL112577  35.388  18.240   8.855
 6312POPC   GL212578  35.246  18.239   8.855
 6312POPC   C1A12579  35.306  18.293   8.555
 6312POPC   D2A12580  35.343  18.296   8.255
 6312POPC   C3A12581  35.346  18.308   7.955
 6312POPC   C4A12582  35.393  18.317   7.655
 6312POPC   C1B12583  35.078  18.186   8.555
 6312POPC   C2B12584  35.128  18.210   8.255
 6312POPC   C3B12585  35.154  18.199   7.955
 6312POPC   C4B12586  35.075  18.217   7.655
 6313POPC   NC312587   2.725  22.961   9.455
 6313POPC   PO412588   2.771  22.930   9.155
 6313POPC   GL112589   2.738  22.896   8.855
 6313POPC   GL212590   2.893  22.968   8.855
 6313POPC   C1A12591   2.743  22.970   8.555
 6313POPC   D2A12592   2.719  22.912   8.255
 6313POPC   C3A12593   2.792  22.963   7.955
 6313POPC   C4A12594   2.766  22.934   7.655
 6313POPC   C1B12595   3.022  22.927   8.555
 6313POPC   C2B12596   3.060  22.950   8.255
 6313POPC   C3B12597   3.009  23.016   7.955
 6313POPC   C4B12598   3.003  22.940   7.655
 6314POPC   NC312599  26.053  44.634   9.455
 6314POPC   PO412600  26.090  44.686   9.155
 6314POPC   GL112601  26.040  44.659   8.855
 6314POPC   GL212602  25.947  44.766   8.855
 6314POPC   C1A12603  26.010  44.682   8.555
 6314POPC   D2A12604  26.059  44.669   8.255
 6314POPC   C3A12605  26.021  44.659   7.955
 6314POPC   C4A12606  26.031  44.677   7.655
 6314POPC   C1B12607  25.902  44.920   8.555
 6314POPC   C2B12608  25.962  44.902   8.255
 6314POPC   C3B12609  25.883  44.836   7.955
 6314POPC   C4B12610  25.873  44.827   7.655
 6315POPC   NC312611  11.325  20.594   9.455
 6315POPC   PO412612  11.349  20.605   9.155
 6315POPC   GL112613  11.305  20.574   8.855
 6315POPC   GL212614  11.362  20.666   8.855
 6315POPC   C1A12615  11.299  20.643   8.555
 6315POPC   D2A12616  11.269  20.598   8.255
 6315POPC   C3A12617  11.337  20.619   7.955
 6315POPC   C4A12618  11.339  20.626   7.655
 6315POPC   C1B12619  11.510  20.782   8.555
 6315POPC   C2B12620  11.488  20.764   8.255
 6315POPC   C3B12621  11.467  20.744   7.955
 6315POPC   C4B12622  11.511  20.713   7.655
 6316POPC   NC312623  33.843  19.836   9.455
 6316POPC   PO412624  33.776  19.865   9.155
 6316POPC   GL112625  33.763  19.801   8.855
 6316POPC   GL212626  33.875  19.744   8.855
 6316POPC   C1A12627  33.776  19.854   8.555
 6316POPC   D2A12628  33.797  19.831   8.255
 6316POPC   C3A12629  33.789  19.816   7.955
 6316POPC   C4A12630  33.833  19.843   7.655
 6316POPC   C1B12631  33.919  19.613   8.555
 6316POPC   C2B12632  33.931  19.608   8.255
 6316POPC   C3B12633  33.982  19.619   7.955
 6316POPC   C4B12634  34.005  19.691   7.655
 6317POPC   NC312635  11.256  38.457   9.455
 6317POPC   PO412636  11.295  38.476   9.155
 6317POPC   GL112637  11.309  38.473   8.855
 6317POPC   GL212638  11.225  38.365   8.855
 6317POPC   C1A12639  11.289  38.422   8.555
 6317POPC   D2A12640  11.276  38.466   8.255
 6317POPC   C3A12641  11.348  38.431   7.955
 6317POPC   C4A12642  11.315  38.451   7.655
 6317POPC   C1B12643  11.014  38.417   8.555
 6317POPC   C2B12644  11.095  38.421   8.255
 6317POPC   C3B12645  11.091  38.376   7.955
 6317POPC   C4B12646  11.085  38.398   7.655
 6318POPC   NC312647  36.149  13.584   9.455
 6318POPC   PO412648  36.150  13.651   9.155
 6318POPC   GL112649  36.096  13.614   8.855
 6318POPC   GL212650  36.038  13.570   8.855
 6318POPC   C1A12651  36.130  13.598   8.555
 6318POPC   D2A12652  36.137  13.631   8.255
 6318POPC   C3A12653  36.109  13.655   7.955
 6318POPC   C4A12654  36.081  13.656   7.655
 6318POPC   C1B12655  35.902  13.561   8.555
 6318POPC   C2B12656  35.944  13.548   8.255
 6318POPC   C3B12657  35.904  13.511   7.955
 6318POPC   C4B12658  35.911  13.529   7.655
 6319POPC   NC312659  25.246   8.946   9.455
 6319POPC   PO412660  25.307   8.956   9.155
 6319POPC   GL112661  25.261   8.964   8.855
 6319POPC   GL212662  25.112   8.981   8.855
 6319POPC   C1A12663  25.299   8.940   8.555
 6319POPC   D2A12664  25.237   9.008   8.255
 6319POPC   C3A12665  25.218   8.967   7.955
 6319POPC   C4A12666  25.281   9.005   7.655
 6319POPC   C1B12667  25.011   8.928   8.555
 6319POPC   C2B12668  25.008   8.912   8.255
 6319POPC   C3B12669  25.040   8.985   7.955
 6319POPC   C4B12670  25.050   8.971   7.655
 6320POPC   NC312671   9.794  36.078   9.455
 6320POPC   PO412672   9.773  36.091   9.155
 6320POPC   GL112673   9.702  36.096   8.855
 6320POPC   GL212674   9.861  36.142   8.855
 6320POPC   C1A12675   9.754  36.134   8.555
 6320POPC   D2A12676   9.713  36.161   8.255
 6320POPC   C3A12677   9.792  36.153   7.955
 6320POPC   C4A12678   9.765  36.133   7.655
 6320POPC   C1B12679  10.011  36.078   8.555
 6320POPC   C2B12680   9.974  36.062   8.255
 6320POPC   C3B12681  10.010  36.043   7.955
 6320POPC   C4B12682  10.021  36.048   7.655
 6321POPC   NC312683   4.361  36.900   9.455
 6321POPC   PO412684   4.355  36.947   9.155
 6321POPC   GL112685   4.349  36.913   8.855
 6321POPC   GL212686   4.386  37.065   8.855
 6321POPC   C1A12687   4.325  36.896   8.555
 6321POPC   D2A12688   4.301  36.941   8.255
 6321POPC   C3A12689   4.302  36.904   7.955
 6321POPC   C4A12690   4.319  36.949   7.655
 6321POPC   C1B12691   4.319  37.133   8.555
 6321POPC   C2B12692   4.361  37.193   8.255
 6321POPC   C3B12693   4.403  37.117   7.955
 6321POPC   C4B12694   4.325  37.176   7.655
 6322POPC   NC312695   2.778   8.937   9.455
 6322POPC   PO412696   2.717   8.978   9.155
 6322POPC   GL112697   2.724   8.933   8.855
 6322POPC   GL212698   2.858   8.848   8.855
 6322POPC   C1A12699   2.792   8.989   8.555
 6322POPC   D2A12700   2.781   8.958   8.255
 6322POPC   C3A12701   2.736   9.004   7.955
 6322POPC   C4A12702   2.728   9.012   7.655
 6322POPC   C1B12703   2.934   8.727   8.555
 6322POPC   C2B12704   2.907   8.795   8.255
 6322POPC   C3B12705   2.921   8.786   7.955
 6322POPC   C4B12706   2.911   8.805   7.655
 6323POPC   NC312707  39.981   8.153   9.455
 6323POPC   PO412708  39.981   8.154   9.155
 6323POPC   GL112709  39.992   8.177   8.855
 6323POPC   GL212710  39.930   8.238   8.855
 6323POPC   C1A12711  40.055   8.158   8.555
 6323POPC   D2A12712  40.036   8.176   8.255
 6323POPC   C3A12713  40.017   8.230   7.955
 6323POPC   C4A12714  40.026   8.150   7.655
 6323POPC   C1B12715  39.735   8.224   8.555
 6323POPC   C2B12716  39.747   8.219   8.255
 6323POPC   C3B12717  39.727   8.222   7.955
 6323POPC   C4B12718  39.726   8.267   7.655
 6324POPC   NC312719  35.363  42.290   9.455
 6324POPC   PO412720  35.308  42.337   9.155
 6324POPC   GL112721  35.335  42.317   8.855
 6324POPC   GL212722  35.435  42.366   8.855
 6324POPC   C1A12723  35.347  42.288   8.555
 6324POPC   D2A12724  35.373  42.294   8.255
 6324POPC   C3A12725  35.386  42.285   7.955
 6324POPC   C4A12726  35.397  42.294   7.655
 6324POPC   C1B12727  35.553  42.476   8.555
 6324POPC   C2B12728  35.614  42.433   8.255
 6324POPC   C3B12729  35.559  42.422   7.955
 6324POPC   C4B12730  35.549  42.426   7.655
 6325POPC   NC312731  29.913  10.568   9.455
 6325POPC   PO412732  29.883  10.504   9.155
 6325POPC   GL112733  29.931  10.478   8.855
 6325POPC   GL212734  29.980  10.587   8.855
 6325POPC   C1A12735  29.960  10.553   8.555
 6325POPC   D2A12736  29.952  10.501   8.255
 6325POPC   C3A12737  29.951  10.554   7.955
 6325POPC   C4A12738  29.880  10.511   7.655
 6325POPC   C1B12739  30.084  10.682   8.555
 6325POPC   C2B12740  30.084  10.659   8.255
 6325POPC   C3B12741  30.134  10.680   7.955
 6325POPC   C4B12742  30.107  10.667   7.655
 6326POPC   NC312743  41.519  27.589   9.455
 6326POPC   PO412744  41.541  27.577   9.155
 6326POPC   GL112745  41.559  27.586   8.855
 6326POPC   GL212746  41.540  27.454   8.855
 6326POPC   C1A12747  41.522  27.601   8.555
 6326POPC   D2A12748  41.559  27.556   8.255
 6326POPC   C3A12749  41.565  27.556   7.955
 6326POPC   C4A12750  41.592  27.616   7.655
 6326POPC   C1B12751  41.428  27.370   8.555
 6326POPC   C2B12752  41.474  27.372   8.255
 6326POPC   C3B12753  41.442  27.417   7.955
 6326POPC   C4B12754  41.409  27.342   7.655
 6327POPC   NC312755  12.070   5.131   9.455
 6327POPC   PO412756  12.060   5.098   9.155
 6327POPC   GL112757  12.077   5.079   8.855
 6327POPC   GL212758  12.198   5.237   8.855
 6327POPC   C1A12759  12.036   5.128   8.555
 6327POPC   D2A12760  12.092   5.046   8.255
 6327POPC   C3A12761  12.069   5.054   7.955
 6327POPC   C4A12762  12.092   5.081   7.655
 6327POPC   C1B12763  12.222   5.242   8.555
 6327POPC   C2B12764  12.224   5.244   8.255
 6327POPC   C3B12765  12.200   5.286   7.955
 6327POPC   C4B12766  12.223   5.267   7.655
 6328POPC   NC312767  12.043  31.498   9.455
 6328POPC   PO412768  12.041  31.430   9.155
 6328POPC   GL112769  12.038  31.426   8.855
 6328POPC   GL212770  12.209  31.490   8.855
 6328POPC   C1A12771  12.027  31.433   8.555
 6328POPC   D2A12772  12.048  31.515   8.255
 6328POPC   C3A12773  12.087  31.476   7.955
 6328POPC   C4A12774  12.101  31.448   7.655
 6328POPC   C1B12775  12.282  31.462   8.555
 6328POPC   C2B12776  12.342  31.444   8.255
 6328POPC   C3B12777  12.307  31.383   7.955
 6328POPC   C4B12778  12.271  31.418   7.655
 6329POPC   NC312779  36.154  16.700   9.455
 6329POPC   PO412780  36.149  16.742   9.155
 6329POPC   GL112781  36.145  16.729   8.855
 6329POPC   GL212782  36.059  16.643   8.855
 6329POPC   C1A12783  36.169  16.691   8.555
 6329POPC   D2A12784  36.153  16.688   8.255
 6329POPC   C3A12785  36.113  16.761   7.955
 6329POPC   C4A12786  36.165  16.695   7.655
 6329POPC   C1B12787  36.001  16.530   8.555
 6329POPC   C2B12788  36.021  16.519   8.255
 6329POPC   C3B12789  35.940  16.511   7.955
 6329POPC   C4B12790  36.012  16.495   7.655
 6330POPC   NC312791   2.750   3.496   9.455
 6330POPC   PO412792   2.808   3.516   9.155
 6330POPC   GL112793   2.793   3.552   8.855
 6330POPC   GL212794   2.827   3.461   8.855
 6330POPC   C1A12795   2.767   3.574   8.555
 6330POPC   D2A12796   2.775   3.537   8.255
 6330POPC   C3A12797   2.773   3.545   7.955
 6330POPC   C4A12798   2.783   3.570   7.655
 6330POPC   C1B12799   3.031   3.388   8.555
 6330POPC   C2B12800   2.994   3.375   8.255
 6330POPC   C3B12801   2.974   3.456   7.955
 6330POPC   C4B12802   2.999   3.370   7.655
 6331POPC   NC312803  33.813  10.515   9.455
 6331POPC   PO412804  33.823  10.552   9.155
 6331POPC   GL112805  33.752  10.526   8.855
 6331POPC   GL212806  33.722  10.529   8.855
 6331POPC   C1A12807  33.763  10.519   8.555
 6331POPC   D2A12808  33.765  10.497   8.255
 6331POPC   C3A12809  33.813  10.521   7.955
 6331POPC   C4A12810  33.770  10.499   7.655
 6331POPC   C1B12811  33.583  10.485   8.555
 6331POPC   C2B12812  33.553  10.456   8.255
 6331POPC   C3B12813  33.540  10.505   7.955
 6331POPC   C4B12814  33.505  10.525   7.655
 6332POPC   NC312815  19.063  43.135   9.455
 6332POPC   PO412816  19.088  43.091   9.155
 6332POPC   GL112817  19.027  43.070   8.855
 6332POPC   GL212818  19.059  42.949   8.855
 6332POPC   C1A12819  19.084  43.098   8.555
 6332POPC   D2A12820  19.097  43.131   8.255
 6332POPC   C3A12821  19.068  43.143   7.955
 6332POPC   C4A12822  19.055  43.070   7.655
 6332POPC   C1B12823  19.140  42.885   8.555
 6332POPC   C2B12824  19.109  42.873   8.255
 6332POPC   C3B12825  19.157  42.908   7.955
 6332POPC   C4B12826  19.081  42.865   7.655
 6333POPC   NC312827  30.741   0.417   9.455
 6333POPC   PO412828  30.691   0.399   9.155
 6333POPC   GL112829  30.702   0.488   8.855
 6333POPC   GL212830  30.805   0.362   8.855
 6333POPC   C1A12831  30.698   0.435   8.555
 6333POPC   D2A12832  30.726   0.484   8.255
 6333POPC   C3A12833  30.742   0.483   7.955
 6333POPC   C4A12834  30.656   0.430   7.655
 6333POPC   C1B12835  30.915   0.394   8.555
 6333POPC   C2B12836  30.984   0.384   8.255
 6333POPC   C3B12837  30.898   0.330   7.955
 6333POPC   C4B12838  30.979   0.410   7.655
 6334POPC   NC312839  14.362  20.603   9.455
 6334POPC   PO412840  14.448  20.604   9.155
 6334POPC   GL112841  14.439  20.580   8.855
 6334POPC   GL212842  14.486  20.735   8.855
 6334POPC   C1A12843  14.379  20.635   8.555
 6334POPC   D2A12844  14.449  20.645   8.255
 6334POPC   C3A12845  14.388  20.607   7.955
 6334POPC   C4A12846  14.361  20.621   7.655
 6334POPC   C1B12847  14.578  20.828   8.555
 6334POPC   C2B12848  14.557  20.838   8.255
 6334POPC   C3B12849  14.558  20.805   7.955
 6334POPC   C4B12850  14.580  20.844   7.655
 6335POPC   NC312851  12.828  25.265   9.455
 6335POPC   PO412852  12.879  25.248   9.155
 6335POPC   GL112853  12.860  25.247   8.855
 6335POPC   GL212854  12.774  25.126   8.855
 6335POPC   C1A12855  12.878  25.247   8.555
 6335POPC   D2A12856  12.817  25.231   8.255
 6335POPC   C3A12857  12.845  25.276   7.955
 6335POPC   C4A12858  12.899  25.293   7.655
 6335POPC   C1B12859  12.662  25.036   8.555
 6335POPC   C2B12860  12.752  25.029   8.255
 6335POPC   C3B12861  12.655  25.057   7.955
 6335POPC   C4B12862  12.731  25.113   7.655
 6336POPC   NC312863   2.739   5.906   9.455
 6336POPC   PO412864   2.718   5.854   9.155
 6336POPC   GL112865   2.749   5.892   8.855
 6336POPC   GL212866   2.827   5.725   8.855
 6336POPC   C1A12867   2.725   5.890   8.555
 6336POPC   D2A12868   2.734   5.916   8.255
 6336POPC   C3A12869   2.721   5.825   7.955
 6336POPC   C4A12870   2.754   5.850   7.655
 6336POPC   C1B12871   2.893   5.629   8.555
 6336POPC   C2B12872   2.853   5.600   8.255
 6336POPC   C3B12873   2.834   5.673   7.955
 6336POPC   C4B12874   2.799   5.680   7.655
 6337POPC   NC312875  13.649  35.313   9.455
 6337POPC   PO412876  13.611  35.383   9.155
 6337POPC   GL112877  13.675  35.350   8.855
 6337POPC   GL212878  13.752  35.364   8.855
 6337POPC   C1A12879  13.581  35.372   8.555
 6337POPC   D2A12880  13.585  35.400   8.255
 6337POPC   C3A12881  13.626  35.397   7.955
 6337POPC   C4A12882  13.650  35.310   7.655
 6337POPC   C1B12883  13.875  35.285   8.555
 6337POPC   C2B12884  13.832  35.348   8.255
 6337POPC   C3B12885  13.912  35.269   7.955
 6337POPC   C4B12886  13.916  35.333   7.655
 6338POPC   NC312887  18.269  13.668   9.455
 6338POPC   PO412888  18.266  13.582   9.155
 6338POPC   GL112889  18.286  13.642   8.855
 6338POPC   GL212890  18.208  13.699   8.855
 6338POPC   C1A12891  18.276  13.656   8.555
 6338POPC   D2A12892  18.260  13.639   8.255
 6338POPC   C3A12893  18.234  13.667   7.955
 6338POPC   C4A12894  18.286  13.629   7.655
 6338POPC   C1B12895  18.173  13.822   8.555
 6338POPC   C2B12896  18.165  13.852   8.255
 6338POPC   C3B12897  18.118  13.830   7.955
 6338POPC   C4B12898  18.118  13.855   7.655
 6339POPC   NC312899  28.358  19.855   9.455
 6339POPC   PO412900  28.393  19.871   9.155
 6339POPC   GL112901  28.418  19.826   8.855
 6339POPC   GL212902  28.332  19.945   8.855
 6339POPC   C1A12903  28.375  19.823   8.555
 6339POPC   D2A12904  28.326  19.814   8.255
 6339POPC   C3A12905  28.397  19.851   7.955
 6339POPC   C4A12906  28.351  19.845   7.655
 6339POPC   C1B12907  28.269  20.095   8.555
 6339POPC   C2B12908  28.288  20.122   8.255
 6339POPC   C3B12909  28.282  20.054   7.955
 6339POPC   C4B12910  28.330  20.030   7.655
 6340POPC   NC312911   2.027  32.228   9.455
 6340POPC   PO412912   2.002  32.257   9.155
 6340POPC   GL112913   1.979  32.204   8.855
 6340POPC   GL212914   1.981  32.146   8.855
 6340POPC   C1A12915   1.973  32.225   8.555
 6340POPC   D2A12916   1.956  32.221   8.255
 6340POPC   C3A12917   1.950  32.290   7.955
 6340POPC   C4A12918   1.940  32.283   7.655
 6340POPC   C1B12919   1.877  32.013   8.555
 6340POPC   C2B12920   1.907  32.023   8.255
 6340POPC   C3B12921   1.932  31.985   7.955
 6340POPC   C4B12922   1.946  32.051   7.655
 6341POPC   NC312923  11.340  15.216   9.455
 6341POPC   PO412924  11.274  15.131   9.155
 6341POPC   GL112925  11.306  15.222   8.855
 6341POPC   GL212926  11.140  15.224   8.855
 6341POPC   C1A12927  11.315  15.190   8.555
 6341POPC   D2A12928  11.339  15.208   8.255
 6341POPC   C3A12929  11.335  15.184   7.955
 6341POPC   C4A12930  11.310  15.166   7.655
 6341POPC   C1B12931  11.069  15.189   8.555
 6341POPC   C2B12932  11.043  15.178   8.255
 6341POPC   C3B12933  11.095  15.235   7.955
 6341POPC   C4B12934  11.084  15.192   7.655
 6342POPC   NC312935   9.702   0.466   9.455
 6342POPC   PO412936   9.735   0.396   9.155
 6342POPC   GL112937   9.739   0.471   8.855
 6342POPC   GL212938   9.787   0.570   8.855
 6342POPC   C1A12939   9.729   0.477   8.555
 6342POPC   D2A12940   9.724   0.439   8.255
 6342POPC   C3A12941   9.797   0.451   7.955
 6342POPC   C4A12942   9.748   0.442   7.655
 6342POPC   C1B12943   9.839   0.701   8.555
 6342POPC   C2B12944   9.828   0.643   8.255
 6342POPC   C3B12945   9.806   0.651   7.955
 6342POPC   C4B12946   9.780   0.653   7.655
 6343POPC   NC312947  41.602  33.037   9.455
 6343POPC   PO412948  41.602  33.032   9.155
 6343POPC   GL112949  41.559  32.998   8.855
 6343POPC   GL212950  41.552  33.167   8.855
 6343POPC   C1A12951  41.562  33.020   8.555
 6343POPC   D2A12952  41.571  32.991   8.255
 6343POPC   C3A12953  41.586  33.018   7.955
 6343POPC   C4A12954  41.598  32.987   7.655
 6343POPC   C1B12955  41.625  33.224   8.555
 6343POPC   C2B12956  41.654  33.302   8.255
 6343POPC   C3B12957  41.648  33.298   7.955
 6343POPC   C4B12958  41.636  33.275   7.655
 6344POPC   NC312959  43.065  18.282   9.455
 6344POPC   PO412960  43.113  18.234   9.155
 6344POPC   GL112961  43.061  18.313   8.855
 6344POPC   GL212962  43.032  18.176   8.855
 6344POPC   C1A12963  43.153  18.300   8.555
 6344POPC   D2A12964  43.134  18.311   8.255
 6344POPC   C3A12965  43.092  18.241   7.955
 6344POPC   C4A12966  43.089  18.282   7.655
 6344POPC   C1B12967  42.942  18.058   8.555
 6344POPC   C2B12968  42.944  18.126   8.255
 6344POPC   C3B12969  42.973  18.116   7.955
 6344POPC   C4B12970  42.940  18.119   7.655
 6345POPC   NC312971   1.964   1.954   9.455
 6345POPC   PO412972   1.964   1.988   9.155
 6345POPC   GL112973   1.997   1.992   8.855
 6345POPC   GL212974   2.027   1.875   8.855
 6345POPC   C1A12975   2.039   1.993   8.555
 6345POPC   D2A12976   1.950   2.023   8.255
 6345POPC   C3A12977   1.985   1.979   7.955
 6345POPC   C4A12978   2.025   2.017   7.655
 6345POPC   C1B12979   2.000   1.706   8.555
 6345POPC   C2B12980   1.972   1.708   8.255
 6345POPC   C3B12981   1.992   1.773   7.955
 6345POPC   C4B12982   1.953   1.741   7.655
 6346POPC   NC312983  39.983  37.632   9.455
 6346POPC   PO412984  40.038  37.637   9.155
 6346POPC   GL112985  40.053  37.683   8.855
 6346POPC   GL212986  39.886  37.693   8.855
 6346POPC   C1A12987  40.018  37.709   8.555
 6346POPC   D2A12988  40.049  37.694   8.255
 6346POPC   C3A12989  40.000  37.725   7.955
 6346POPC   C4A12990  39.981  37.645   7.655
 6346POPC   C1B12991  39.759  37.751   8.555
 6346POPC   C2B12992  39.761  37.795   8.255
 6346POPC   C3B12993  39.794  37.814   7.955
 6346POPC   C4B12994  39.792  37.746   7.655
 6347POPC   NC312995  26.831   8.978   9.455
 6347POPC   PO412996  26.782   8.943   9.155
 6347POPC   GL112997  26.805   8.954   8.855
 6347POPC   GL212998  26.701   9.013   8.855
 6347POPC   C1A12999  26.813   9.000   8.555
 6347POPC   D2A13000  26.794   9.002   8.255
 6347POPC   C3A13001  26.778   8.994   7.955
 6347POPC   C4A13002  26.776   8.972   7.655
 6347POPC   C1B13003  26.652   9.100   8.555
 6347POPC   C2B13004  26.655   9.111   8.255
 6347POPC   C3B13005  26.645   9.160   7.955
 6347POPC   C4B13006  26.631   9.120   7.655
 6348POPC   NC313007  35.347  15.135   9.455
 6348POPC   PO413008  35.387  15.170   9.155
 6348POPC   GL113009  35.323  15.179   8.855
 6348POPC   GL213010  35.463  15.317   8.855
 6348POPC   C1A13011  35.397  15.193   8.555
 6348POPC   D2A13012  35.355  15.183   8.255
 6348POPC   C3A13013  35.396  15.139   7.955
 6348POPC   C4A13014  35.360  15.140   7.655
 6348POPC   C1B13015  35.516  15.397   8.555
 6348POPC   C2B13016  35.504  15.342   8.255
 6348POPC   C3B13017  35.471  15.428   7.955
 6348POPC   C4B13018  35.504  15.375   7.655
 6349POPC   NC313019  42.370  24.474   9.455
 6349POPC   PO413020  42.367  24.460   9.155
 6349POPC   GL113021  42.296  24.495   8.855
 6349POPC   GL213022  42.296  24.392   8.855
 6349POPC   C1A13023  42.301  24.457   8.555
 6349POPC   D2A13024  42.304  24.458   8.255
 6349POPC   C3A13025  42.350  24.446   7.955
 6349POPC   C4A13026  42.294  24.476   7.655
 6349POPC   C1B13027  42.245  24.274   8.555
 6349POPC   C2B13028  42.177  24.259   8.255
 6349POPC   C3B13029  42.231  24.304   7.955
 6349POPC   C4B13030  42.220  24.322   7.655
 6350POPC   NC313031  43.910  22.168   9.455
 6350POPC   PO413032  43.865  22.155   9.155
 6350POPC   GL113033  43.861  22.136   8.855
 6350POPC   GL213034  43.775  22.271   8.855
 6350POPC   C1A13035  43.862  22.121   8.555
 6350POPC   D2A13036  43.901  22.192   8.255
 6350POPC   C3A13037  43.928  22.204   7.955
 6350POPC   C4A13038  43.873  22.177   7.655
 6350POPC   C1B13039  43.768  22.377   8.555
 6350POPC   C2B13040  43.731  22.353   8.255
 6350POPC   C3B13041  43.737  22.409   7.955
 6350POPC   C4B13042  43.798  22.338   7.655
 6351POPC   NC313043  39.242   8.984   9.455
 6351POPC   PO413044  39.210   9.022   9.155
 6351POPC   GL113045  39.224   8.951   8.855
 6351POPC   GL213046  39.149   8.817   8.855
 6351POPC   C1A13047  39.239   8.950   8.555
 6351POPC   D2A13048  39.203   8.959   8.255
 6351POPC   C3A13049  39.251   8.938   7.955
 6351POPC   C4A13050  39.280   8.992   7.655
 6351POPC   C1B13051  39.164   8.783   8.555
 6351POPC   C2B13052  39.194   8.758   8.255
 6351POPC   C3B13053  39.188   8.764   7.955
 6351POPC   C4B13054  39.166   8.701   7.655
 6352POPC   NC313055   0.435   8.232   9.455
 6352POPC   PO413056   0.485   8.206   9.155
 6352POPC   GL113057   0.452   8.208   8.855
 6352POPC   GL213058   0.447   8.096   8.855
 6352POPC   C1A13059   0.456   8.172   8.555
 6352POPC   D2A13060   0.418   8.241   8.255
 6352POPC   C3A13061   0.431   8.222   7.955
 6352POPC   C4A13062   0.459   8.185   7.655
 6352POPC   C1B13063   0.466   7.943   8.555
 6352POPC   C2B13064   0.446   7.940   8.255
 6352POPC   C3B13065   0.436   7.897   7.955
 6352POPC   C4B13066   0.424   7.947   7.655
 6353POPC   NC313067  27.544   2.813   9.455
 6353POPC   PO413068  27.635   2.808   9.155
 6353POPC   GL113069  27.560   2.718   8.855
 6353POPC   GL213070  27.762   2.800   8.855
 6353POPC   C1A13071  27.560   2.781   8.555
 6353POPC   D2A13072  27.623   2.724   8.255
 6353POPC   C3A13073  27.569   2.757   7.955
 6353POPC   C4A13074  27.569   2.758   7.655
 6353POPC   C1B13075  27.890   2.757   8.555
 6353POPC   C2B13076  27.830   2.780   8.255
 6353POPC   C3B13077  27.887   2.725   7.955
 6353POPC   C4B13078  27.842   2.726   7.655
 6354POPC   NC313079  27.571   7.379   9.455
 6354POPC   PO413080  27.582   7.452   9.155
 6354POPC   GL113081  27.600   7.435   8.855
 6354POPC   GL213082  27.721   7.354   8.855
 6354POPC   C1A13083  27.565   7.409   8.555
 6354POPC   D2A13084  27.617   7.427   8.255
 6354POPC   C3A13085  27.595   7.462   7.955
 6354POPC   C4A13086  27.630   7.397   7.655
 6354POPC   C1B13087  27.816   7.303   8.555
 6354POPC   C2B13088  27.832   7.310   8.255
 6354POPC   C3B13089  27.819   7.242   7.955
 6354POPC   C4B13090  27.799   7.282   7.655
 6355POPC   NC313091  33.753  32.293   9.455
 6355POPC   PO413092  33.849  32.247   9.155
 6355POPC   GL113093  33.792  32.275   8.855
 6355POPC   GL213094  33.796  32.384   8.855
 6355POPC   C1A13095  33.830  32.268   8.555
 6355POPC   D2A13096  33.755  32.252   8.255
 6355POPC   C3A13097  33.797  32.297   7.955
 6355POPC   C4A13098  33.828  32.229   7.655
 6355POPC   C1B13099  33.712  32.509   8.555
 6355POPC   C2B13100  33.741  32.533   8.255
 6355POPC   C3B13101  33.717  32.497   7.955
 6355POPC   C4B13102  33.678  32.509   7.655
 6356POPC   NC313103  32.290  35.328   9.455
 6356POPC   PO413104  32.229  35.358   9.155
 6356POPC   GL113105  32.235  35.312   8.855
 6356POPC   GL213106  32.290  35.519   8.855
 6356POPC   C1A13107  32.295  35.344   8.555
 6356POPC   D2A13108  32.235  35.374   8.255
 6356POPC   C3A13109  32.214  35.350   7.955
 6356POPC   C4A13110  32.241  35.395   7.655
 6356POPC   C1B13111  32.273  35.576   8.555
 6356POPC   C2B13112  32.288  35.588   8.255
 6356POPC   C3B13113  32.356  35.626   7.955
 6356POPC   C4B13114  32.363  35.555   7.655
 6357POPC   NC313115   7.434  21.401   9.455
 6357POPC   PO413116   7.378  21.410   9.155
 6357POPC   GL113117   7.394  21.426   8.855
 6357POPC   GL213118   7.495  21.428   8.855
 6357POPC   C1A13119   7.415  21.391   8.555
 6357POPC   D2A13120   7.406  21.386   8.255
 6357POPC   C3A13121   7.456  21.366   7.955
 6357POPC   C4A13122   7.426  21.413   7.655
 6357POPC   C1B13123   7.600  21.482   8.555
 6357POPC   C2B13124   7.599  21.516   8.255
 6357POPC   C3B13125   7.638  21.509   7.955
 6357POPC   C4B13126   7.654  21.487   7.655
 6358POPC   NC313127   7.430  36.886   9.455
 6358POPC   PO413128   7.442  36.910   9.155
 6358POPC   GL113129   7.453  36.950   8.855
 6358POPC   GL213130   7.538  36.862   8.855
 6358POPC   C1A13131   7.398  36.938   8.555
 6358POPC   D2A13132   7.409  36.932   8.255
 6358POPC   C3A13133   7.444  36.910   7.955
 6358POPC   C4A13134   7.438  36.902   7.655
 6358POPC   C1B13135   7.614  36.821   8.555
 6358POPC   C2B13136   7.683  36.850   8.255
 6358POPC   C3B13137   7.690  36.795   7.955
 6358POPC   C4B13138   7.652  36.798   7.655
 6359POPC   NC313139  44.684  44.656   9.455
 6359POPC   PO413140  44.689  44.686   9.155
 6359POPC   GL113141  44.636  44.655   8.855
 6359POPC   GL213142  44.605  44.704   8.855
 6359POPC   C1A13143  44.629  44.634   8.555
 6359POPC   D2A13144  44.685  44.620   8.255
 6359POPC   C3A13145  44.678  44.617   7.955
 6359POPC   C4A13146  44.692  44.690   7.655
 6359POPC   C1B13147  44.436  44.778   8.555
 6359POPC   C2B13148  44.502  44.809   8.255
 6359POPC   C3B13149  44.468  44.809   7.955
 6359POPC   C4B13150  44.475  44.849   7.655
 6360POPC   NC313151  40.742  28.322   9.455
 6360POPC   PO413152  40.742  28.382   9.155
 6360POPC   GL113153  40.809  28.339   8.855
 6360POPC   GL213154  40.950  28.358   8.855
 6360POPC   C1A13155  40.757  28.402   8.555
 6360POPC   D2A13156  40.735  28.320   8.255
 6360POPC   C3A13157  40.736  28.396   7.955
 6360POPC   C4A13158  40.773  28.340   7.655
 6360POPC   C1B13159  41.060  28.333   8.555
 6360POPC   C2B13160  41.026  28.283   8.255
 6360POPC   C3B13161  41.042  28.284   7.955
 6360POPC   C4B13162  41.042  28.313   7.655
 6361POPC   NC313163  26.822  33.776   9.455
 6361POPC   PO413164  26.830  33.820   9.155
 6361POPC   GL113165  26.840  33.775   8.855
 6361POPC   GL213166  26.828  33.873   8.855
 6361POPC   C1A13167  26.802  33.770   8.555
 6361POPC   D2A13168  26.785  33.844   8.255
 6361POPC   C3A13169  26.799  33.826   7.955
 6361POPC   C4A13170  26.799  33.808   7.655
 6361POPC   C1B13171  26.718  34.013   8.555
 6361POPC   C2B13172  26.758  34.024   8.255
 6361POPC   C3B13173  26.705  34.029   7.955
 6361POPC   C4B13174  26.751  34.043   7.655
 6362POPC   NC313175  42.374  44.693   9.455
 6362POPC   PO413176  42.326  44.641   9.155
 6362POPC   GL113177  42.357  44.655   8.855
 6362POPC   GL213178  42.210  44.717   8.855
 6362POPC   C1A13179  42.336  44.669   8.555
 6362POPC   D2A13180  42.381  44.693   8.255
 6362POPC   C3A13181  42.354  44.630   7.955
 6362POPC   C4A13182  42.292  44.693   7.655
 6362POPC   C1B13183  42.178  44.873   8.555
 6362POPC   C2B13184  42.159  44.815   8.255
 6362POPC   C3B13185  42.190  44.868   7.955
 6362POPC   C4B13186  42.196  44.874   7.655
 6363POPC   NC313187  43.094  34.589   9.455
 6363POPC   PO413188  43.149  34.602   9.155
 6363POPC   GL113189  43.069  34.537   8.855
 6363POPC   GL213190  43.231  34.462   8.855
 6363POPC   C1A13191  43.110  34.606   8.555
 6363POPC   D2A13192  43.129  34.607   8.255
 6363POPC   C3A13193  43.087  34.587   7.955
 6363POPC   C4A13194  43.080  34.577   7.655
 6363POPC   C1B13195  43.323  34.401   8.555
 6363POPC   C2B13196  43.296  34.427   8.255
 6363POPC   C3B13197  43.356  34.443   7.955
 6363POPC   C4B13198  43.326  34.390   7.655
 6364POPC   NC313199  16.729  27.571   9.455
 6364POPC   PO413200  16.682  27.546   9.155
 6364POPC   GL113201  16.769  27.632   8.855
 6364POPC   GL213202  16.780  27.451   8.855
 6364POPC   C1A13203  16.689  27.617   8.555
 6364POPC   D2A13204  16.739  27.619   8.255
 6364POPC   C3A13205  16.737  27.593   7.955
 6364POPC   C4A13206  16.735  27.555   7.655
 6364POPC   C1B13207  16.757  27.366   8.555
 6364POPC   C2B13208  16.768  27.399   8.255
 6364POPC   C3B13209  16.784  27.310   7.955
 6364POPC   C4B13210  16.822  27.376   7.655
 6365POPC   NC313211  41.557  26.087   9.455
 6365POPC   PO413212  41.521  26.081   9.155
 6365POPC   GL113213  41.558  26.026   8.855
 6365POPC   GL213214  41.603  25.946   8.855
 6365POPC   C1A13215  41.566  26.051   8.555
 6365POPC   D2A13216  41.568  26.037   8.255
 6365POPC   C3A13217  41.544  26.007   7.955
 6365POPC   C4A13218  41.578  26.080   7.655
 6365POPC   C1B13219  41.640  25.837   8.555
 6365POPC   C2B13220  41.577  25.756   8.255
 6365POPC   C3B13221  41.660  25.761   7.955
 6365POPC   C4B13222  41.626  25.849   7.655
 6366POPC   NC313223  22.153  19.047   9.455
 6366POPC   PO413224  22.182  19.033   9.155
 6366POPC   GL113225  22.201  19.047   8.855
 6366POPC   GL213226  22.046  19.126   8.855
 6366POPC   C1A13227  22.131  19.102   8.555
 6366POPC   D2A13228  22.129  19.013   8.255
 6366POPC   C3A13229  22.164  19.031   7.955
 6366POPC   C4A13230  22.166  19.058   7.655
 6366POPC   C1B13231  21.949  19.239   8.555
 6366POPC   C2B13232  21.940  19.210   8.255
 6366POPC   C3B13233  21.942  19.206   7.955
 6366POPC   C4B13234  21.980  19.258   7.655
 6367POPC   NC313235   6.609  29.934   9.455
 6367POPC   PO413236   6.683  29.905   9.155
 6367POPC   GL113237   6.682  29.958   8.855
 6367POPC   GL213238   6.787  29.993   8.855
 6367POPC   C1A13239   6.603  29.951   8.555
 6367POPC   D2A13240   6.694  29.937   8.255
 6367POPC   C3A13241   6.693  29.921   7.955
 6367POPC   C4A13242   6.632  29.944   7.655
 6367POPC   C1B13243   6.831  30.048   8.555
 6367POPC   C2B13244   6.889  30.073   8.255
 6367POPC   C3B13245   6.830  30.062   7.955
 6367POPC   C4B13246   6.827  30.003   7.655
 6368POPC   NC313247  34.618  36.177   9.455
 6368POPC   PO413248  34.573  36.149   9.155
 6368POPC   GL113249  34.569  36.151   8.855
 6368POPC   GL213250  34.620  36.009   8.855
 6368POPC   C1A13251  34.537  36.177   8.555
 6368POPC   D2A13252  34.584  36.101   8.255
 6368POPC   C3A13253  34.532  36.113   7.955
 6368POPC   C4A13254  34.556  36.087   7.655
 6368POPC   C1B13255  34.670  35.864   8.555
 6368POPC   C2B13256  34.676  35.893   8.255
 6368POPC   C3B13257  34.669  35.836   7.955
 6368POPC   C4B13258  34.646  35.863   7.655
 6369POPC   NC313259  12.804  22.963   9.455
 6369POPC   PO413260  12.806  22.961   9.155
 6369POPC   GL113261  12.897  22.979   8.855
 6369POPC   GL213262  12.905  22.983   8.855
 6369POPC   C1A13263  12.849  22.929   8.555
 6369POPC   D2A13264  12.816  22.966   8.255
 6369POPC   C3A13265  12.868  22.988   7.955
 6369POPC   C4A13266  12.888  22.965   7.655
 6369POPC   C1B13267  13.008  23.068   8.555
 6369POPC   C2B13268  13.032  23.099   8.255
 6369POPC   C3B13269  13.019  23.114   7.955
 6369POPC   C4B13270  13.064  23.055   7.655
 6370POPC   NC313271  33.777  22.931   9.455
 6370POPC   PO413272  33.811  22.933   9.155
 6370POPC   GL113273  33.842  22.987   8.855
 6370POPC   GL213274  33.628  22.960   8.855
 6370POPC   C1A13275  33.781  22.895   8.555
 6370POPC   D2A13276  33.809  22.962   8.255
 6370POPC   C3A13277  33.758  22.974   7.955
 6370POPC   C4A13278  33.769  22.896   7.655
 6370POPC   C1B13279  33.549  22.953   8.555
 6370POPC   C2B13280  33.576  23.035   8.255
 6370POPC   C3B13281  33.539  22.969   7.955
 6370POPC   C4B13282  33.598  22.961   7.655
 6371POPC   NC313283  33.066  43.850   9.455
 6371POPC   PO413284  32.986  43.862   9.155
 6371POPC   GL113285  33.068  43.902   8.855
 6371POPC   GL213286  33.012  44.028   8.855
 6371POPC   C1A13287  33.000  43.862   8.555
 6371POPC   D2A13288  33.031  43.845   8.255
 6371POPC   C3A13289  33.011  43.842   7.955
 6371POPC   C4A13290  32.984  43.906   7.655
 6371POPC   C1B13291  33.008  44.178   8.555
 6371POPC   C2B13292  33.079  44.170   8.255
 6371POPC   C3B13293  33.047  44.146   7.955
 6371POPC   C4B13294  33.065  44.099   7.655
 6372POPC   NC313295   7.415  33.064   9.455
 6372POPC   PO413296   7.428  33.069   9.155
 6372POPC   GL113297   7.423  33.048   8.855
 6372POPC   GL213298   7.274  33.032   8.855
 6372POPC   C1A13299   7.399  33.054   8.555
 6372POPC   D2A13300   7.460  33.073   8.255
 6372POPC   C3A13301   7.375  33.038   7.955
 6372POPC   C4A13302   7.383  33.058   7.655
 6372POPC   C1B13303   7.139  33.060   8.555
 6372POPC   C2B13304   7.181  33.131   8.255
 6372POPC   C3B13305   7.138  33.059   7.955
 6372POPC   C4B13306   7.222  33.054   7.655
 6373POPC   NC313307   5.913  11.268   9.455
 6373POPC   PO413308   5.836  11.280   9.155
 6373POPC   GL113309   5.905  11.254   8.855
 6373POPC   GL213310   5.933  11.421   8.855
 6373POPC   C1A13311   5.910  11.263   8.555
 6373POPC   D2A13312   5.829  11.314   8.255
 6373POPC   C3A13313   5.901  11.337   7.955
 6373POPC   C4A13314   5.821  11.345   7.655
 6373POPC   C1B13315   5.926  11.522   8.555
 6373POPC   C2B13316   5.911  11.519   8.255
 6373POPC   C3B13317   5.914  11.508   7.955
 6373POPC   C4B13318   5.891  11.496   7.655
 6374POPC   NC313319  15.927  42.323   9.455
 6374POPC   PO413320  15.906  42.375   9.155
 6374POPC   GL113321  15.955  42.292   8.855
 6374POPC   GL213322  15.975  42.430   8.855
 6374POPC   C1A13323  15.988  42.302   8.555
 6374POPC   D2A13324  15.917  42.315   8.255
 6374POPC   C3A13325  15.967  42.359   7.955
 6374POPC   C4A13326  15.998  42.346   7.655
 6374POPC   C1B13327  15.867  42.539   8.555
 6374POPC   C2B13328  15.938  42.539   8.255
 6374POPC   C3B13329  15.865  42.540   7.955
 6374POPC   C4B13330  15.934  42.548   7.655
 6375POPC   NC313331  29.142  22.189   9.455
 6375POPC   PO413332  29.163  22.125   9.155
 6375POPC   GL113333  29.117  22.169   8.855
 6375POPC   GL213334  29.075  22.311   8.855
 6375POPC   C1A13335  29.127  22.129   8.555
 6375POPC   D2A13336  29.157  22.169   8.255
 6375POPC   C3A13337  29.098  22.196   7.955
 6375POPC   C4A13338  29.164  22.119   7.655
 6375POPC   C1B13339  29.082  22.417   8.555
 6375POPC   C2B13340  29.029  22.444   8.255
 6375POPC   C3B13341  29.088  22.404   7.955
 6375POPC   C4B13342  29.043  22.432   7.655
 6376POPC   NC313343  24.453  31.461   9.455
 6376POPC   PO413344  24.462  31.459   9.155
 6376POPC   GL113345  24.447  31.490   8.855
 6376POPC   GL213346  24.338  31.571   8.855
 6376POPC   C1A13347  24.475  31.423   8.555
 6376POPC   D2A13348  24.454  31.466   8.255
 6376POPC   C3A13349  24.533  31.446   7.955
 6376POPC   C4A13350  24.511  31.480   7.655
 6376POPC   C1B13351  24.259  31.650   8.555
 6376POPC   C2B13352  24.304  31.577   8.255
 6376POPC   C3B13353  24.233  31.616   7.955
 6376POPC   C4B13354  24.323  31.611   7.655
 6377POPC   NC313355  28.335  39.973   9.455
 6377POPC   PO413356  28.324  40.025   9.155
 6377POPC   GL113357  28.346  40.022   8.855
 6377POPC   GL213358  28.372  39.914   8.855
 6377POPC   C1A13359  28.385  39.969   8.555
 6377POPC   D2A13360  28.348  40.049   8.255
 6377POPC   C3A13361  28.399  39.986   7.955
 6377POPC   C4A13362  28.368  40.056   7.655
 6377POPC   C1B13363  28.340  39.771   8.555
 6377POPC   C2B13364  28.305  39.741   8.255
 6377POPC   C3B13365  28.320  39.744   7.955
 6377POPC   C4B13366  28.358  39.779   7.655
 6378POPC   NC313367  11.335  12.081   9.455
 6378POPC   PO413368  11.308  12.050   9.155
 6378POPC   GL113369  11.317  12.033   8.855
 6378POPC   GL213370  11.142  12.066   8.855
 6378POPC   C1A13371  11.263  12.082   8.555
 6378POPC   D2A13372  11.330  12.067   8.255
 6378POPC   C3A13373  11.313  12.083   7.955
 6378POPC   C4A13374  11.280  12.052   7.655
 6378POPC   C1B13375  11.098  12.048   8.555
 6378POPC   C2B13376  11.093  12.067   8.255
 6378POPC   C3B13377  11.098  12.070   7.955
 6378POPC   C4B13378  11.099  12.099   7.655
 6379POPC   NC313379  44.615  36.104   9.455
 6379POPC   PO413380  44.615  36.171   9.155
 6379POPC   GL113381  44.704  36.149   8.855
 6379POPC   GL213382  44.683  36.052   8.855
 6379POPC   C1A13383  44.704  36.158   8.555
 6379POPC   D2A13384  44.673  36.078   8.255
 6379POPC   C3A13385  44.631  36.081   7.955
 6379POPC   C4A13386  44.627  36.092   7.655
 6379POPC   C1B13387  44.582  35.886   8.555
 6379POPC   C2B13388  44.598  35.907   8.255
 6379POPC   C3B13389  44.665  35.928   7.955
 6379POPC   C4B13390  44.597  35.914   7.655
 6380POPC   NC313391  44.666  18.312   9.455
 6380POPC   PO413392  44.702  18.236   9.155
 6380POPC   GL113393  44.649  18.244   8.855
 6380POPC   GL213394  44.521  18.227   8.855
 6380POPC   C1A13395  44.640  18.324   8.555
 6380POPC   D2A13396  44.704  18.253   8.255
 6380POPC   C3A13397  44.666  18.254   7.955
 6380POPC   C4A13398  44.696  18.298   7.655
 6380POPC   C1B13399  44.392  18.117   8.555
 6380POPC   C2B13400  44.406  18.174   8.255
 6380POPC   C3B13401  44.431  18.192   7.955
 6380POPC   C4B13402  44.424  18.176   7.655
 6381POPC   NC313403  39.262   1.215   9.455
 6381POPC   PO413404  39.257   1.214   9.155
 6381POPC   GL113405  39.210   1.237   8.855
 6381POPC   GL213406  39.143   1.186   8.855
 6381POPC   C1A13407  39.270   1.231   8.555
 6381POPC   D2A13408  39.273   1.179   8.255
 6381POPC   C3A13409  39.195   1.259   7.955
 6381POPC   C4A13410  39.214   1.243   7.655
 6381POPC   C1B13411  39.013   1.130   8.555
 6381POPC   C2B13412  39.041   1.097   8.255
 6381POPC   C3B13413  39.041   1.109   7.955
 6381POPC   C4B13414  39.005   1.056   7.655
 6382POPC   NC313415  10.517  39.971   9.455
 6382POPC   PO413416  10.475  40.014   9.155
 6382POPC   GL113417  10.572  39.987   8.855
 6382POPC   GL213418  10.548  39.896   8.855
 6382POPC   C1A13419  10.527  40.039   8.555
 6382POPC   D2A13420  10.554  39.989   8.255
 6382POPC   C3A13421  10.562  40.042   7.955
 6382POPC   C4A13422  10.518  39.990   7.655
 6382POPC   C1B13423  10.636  39.825   8.555
 6382POPC   C2B13424  10.599  39.767   8.255
 6382POPC   C3B13425  10.608  39.763   7.955
 6382POPC   C4B13426  10.672  39.758   7.655
 6383POPC   NC313427  29.936   1.227   9.455
 6383POPC   PO413428  29.875   1.186   9.155
 6383POPC   GL113429  29.920   1.242   8.855
 6383POPC   GL213430  30.010   1.116   8.855
 6383POPC   C1A13431  29.871   1.248   8.555
 6383POPC   D2A13432  29.961   1.210   8.255
 6383POPC   C3A13433  29.873   1.228   7.955
 6383POPC   C4A13434  29.897   1.199   7.655
 6383POPC   C1B13435  30.068   1.004   8.555
 6383POPC   C2B13436  30.076   0.998   8.255
 6383POPC   C3B13437  30.079   1.043   7.955
 6383POPC   C4B13438  30.110   1.039   7.655
 6384POPC   NC313439  32.207  12.079   9.455
 6384POPC   PO413440  32.259  12.030   9.155
 6384POPC   GL113441  32.235  12.086   8.855
 6384POPC   GL213442  32.191  12.115   8.855
 6384POPC   C1A13443  32.245  12.032   8.555
 6384POPC   D2A13444  32.234  12.034   8.255
 6384POPC   C3A13445  32.260  12.094   7.955
 6384POPC   C4A13446  32.273  12.032   7.655
 6384POPC   C1B13447  32.022  12.274   8.555
 6384POPC   C2B13448  32.053  12.190   8.255
 6384POPC   C3B13449  32.095  12.243   7.955
 6384POPC   C4B13450  32.022  12.228   7.655
 6385POPC   NC313451  32.208   2.752   9.455
 6385POPC   PO413452  32.266   2.791   9.155
 6385POPC   GL113453  32.213   2.810   8.855
 6385POPC   GL213454  32.275   2.616   8.855
 6385POPC   C1A13455  32.216   2.752   8.555
 6385POPC   D2A13456  32.274   2.814   8.255
 6385POPC   C3A13457  32.207   2.756   7.955
 6385POPC   C4A13458  32.284   2.737   7.655
 6385POPC   C1B13459  32.331   2.530   8.555
 6385POPC   C2B13460  32.362   2.566   8.255
 6385POPC   C3B13461  32.357   2.565   7.955
 6385POPC   C4B13462  32.385   2.581   7.655
 6386POPC   NC313463  18.241  33.010   9.455
 6386POPC   PO413464  18.244  33.048   9.155
 6386POPC   GL113465  18.248  33.006   8.855
 6386POPC   GL213466  18.299  32.943   8.855
 6386POPC   C1A13467  18.300  33.035   8.555
 6386POPC   D2A13468  18.303  32.981   8.255
 6386POPC   C3A13469  18.312  33.059   7.955
 6386POPC   C4A13470  18.246  33.014   7.655
 6386POPC   C1B13471  18.297  32.733   8.555
 6386POPC   C2B13472  18.252  32.776   8.255
 6386POPC   C3B13473  18.241  32.786   7.955
 6386POPC   C4B13474  18.296  32.769   7.655
 6387POPC   NC313475  26.835  39.216   9.455
 6387POPC   PO413476  26.806  39.219   9.155
 6387POPC   GL113477  26.861  39.209   8.855
 6387POPC   GL213478  26.722  39.135   8.855
 6387POPC   C1A13479  26.830  39.220   8.555
 6387POPC   D2A13480  26.785  39.271   8.255
 6387POPC   C3A13481  26.827  39.243   7.955
 6387POPC   C4A13482  26.804  39.200   7.655
 6387POPC   C1B13483  26.610  39.040   8.555
 6387POPC   C2B13484  26.626  39.117   8.255
 6387POPC   C3B13485  26.651  39.071   7.955
 6387POPC   C4B13486  26.603  39.089   7.655
 6388POPC   NC313487  19.073  43.912   9.455
 6388POPC   PO413488  19.068  43.904   9.155
 6388POPC   GL113489  19.020  43.892   8.855
 6388POPC   GL213490  19.113  44.054   8.855
 6388POPC   C1A13491  19.061  43.847   8.555
 6388POPC   D2A13492  19.059  43.919   8.255
 6388POPC   C3A13493  19.044  43.901   7.955
 6388POPC   C4A13494  19.016  43.882   7.655
 6388POPC   C1B13495  19.104  44.124   8.555
 6388POPC   C2B13496  19.067  44.182   8.255
 6388POPC   C3B13497  19.050  44.134   7.955
 6388POPC   C4B13498  19.059  44.153   7.655
 6389POPC   NC313499   8.221  33.072   9.455
 6389POPC   PO413500   8.246  33.007   9.155
 6389POPC   GL113501   8.232  32.999   8.855
 6389POPC   GL213502   8.031  33.008   8.855
 6389POPC   C1A13503   8.195  32.990   8.555
 6389POPC   D2A13504   8.223  33.066   8.255
 6389POPC   C3A13505   8.150  33.048   7.955
 6389POPC   C4A13506   8.197  32.981   7.655
 6389POPC   C1B13507   7.959  33.013   8.555
 6389POPC   C2B13508   7.928  33.005   8.255
 6389POPC   C3B13509   7.999  32.941   7.955
 6389POPC   C4B13510   7.965  32.991   7.655
 6390POPC   NC313511   7.431  35.368   9.455
 6390POPC   PO413512   7.404  35.331   9.155
 6390POPC   GL113513   7.443  35.381   8.855
 6390POPC   GL213514   7.535  35.419   8.855
 6390POPC   C1A13515   7.414  35.368   8.555
 6390POPC   D2A13516   7.377  35.321   8.255
 6390POPC   C3A13517   7.420  35.380   7.955
 6390POPC   C4A13518   7.410  35.385   7.655
 6390POPC   C1B13519   7.707  35.446   8.555
 6390POPC   C2B13520   7.678  35.386   8.255
 6390POPC   C3B13521   7.623  35.450   7.955
 6390POPC   C4B13522   7.659  35.452   7.655
 6391POPC   NC313523   5.121   1.256   9.455
 6391POPC   PO413524   5.052   1.220   9.155
 6391POPC   GL113525   5.075   1.238   8.855
 6391POPC   GL213526   5.116   1.114   8.855
 6391POPC   C1A13527   5.066   1.164   8.555
 6391POPC   D2A13528   5.094   1.171   8.255
 6391POPC   C3A13529   5.052   1.243   7.955
 6391POPC   C4A13530   5.052   1.235   7.655
 6391POPC   C1B13531   5.244   1.037   8.555
 6391POPC   C2B13532   5.216   0.969   8.255
 6391POPC   C3B13533   5.177   1.032   7.955
 6391POPC   C4B13534   5.239   1.017   7.655
 6392POPC   NC313535  29.106   8.984   9.455
 6392POPC   PO413536  29.176   9.004   9.155
 6392POPC   GL113537  29.111   8.928   8.855
 6392POPC   GL213538  29.184   8.862   8.855
 6392POPC   C1A13539  29.102   8.931   8.555
 6392POPC   D2A13540  29.103   9.016   8.255
 6392POPC   C3A13541  29.157   8.979   7.955
 6392POPC   C4A13542  29.121   8.973   7.655
 6392POPC   C1B13543  29.145   8.755   8.555
 6392POPC   C2B13544  29.184   8.726   8.255
 6392POPC   C3B13545  29.185   8.772   7.955
 6392POPC   C4B13546  29.191   8.738   7.655
 6393POPC   NC313547  33.030  19.842   9.455
 6393POPC   PO413548  33.027  19.790   9.155
 6393POPC   GL113549  33.034  19.862   8.855
 6393POPC   GL213550  33.163  19.779   8.855
 6393POPC   C1A13551  33.073  19.830   8.555
 6393POPC   D2A13552  32.987  19.842   8.255
 6393POPC   C3A13553  33.068  19.791   7.955
 6393POPC   C4A13554  32.976  19.838   7.655
 6393POPC   C1B13555  33.226  19.736   8.555
 6393POPC   C2B13556  33.280  19.713   8.255
 6393POPC   C3B13557  33.217  19.685   7.955
 6393POPC   C4B13558  33.300  19.693   7.655
 6394POPC   NC313559  18.266  25.312   9.455
 6394POPC   PO413560  18.332  25.270   9.155
 6394POPC   GL113561  18.302  25.258   8.855
 6394POPC   GL213562  18.324  25.210   8.855
 6394POPC   C1A13563  18.297  25.260   8.555
 6394POPC   D2A13564  18.288  25.298   8.255
 6394POPC   C3A13565  18.258  25.228   7.955
 6394POPC   C4A13566  18.269  25.278   7.655
 6394POPC   C1B13567  18.486  25.037   8.555
 6394POPC   C2B13568  18.485  25.069   8.255
 6394POPC   C3B13569  18.474  25.120   7.955
 6394POPC   C4B13570  18.414  25.047   7.655
 6395POPC   NC313571  28.377   4.350   9.455
 6395POPC   PO413572  28.337   4.350   9.155
 6395POPC   GL113573  28.389   4.365   8.855
 6395POPC   GL213574  28.216   4.353   8.855
 6395POPC   C1A13575  28.357   4.358   8.555
 6395POPC   D2A13576  28.351   4.327   8.255
 6395POPC   C3A13577  28.375   4.312   7.955
 6395POPC   C4A13578  28.332   4.336   7.655
 6395POPC   C1B13579  28.109   4.411   8.555
 6395POPC   C2B13580  28.174   4.423   8.255
 6395POPC   C3B13581  28.094   4.333   7.955
 6395POPC   C4B13582  28.097   4.431   7.655
 6396POPC   NC313583  40.751   5.890   9.455
 6396POPC   PO413584  40.790   5.830   9.155
 6396POPC   GL113585  40.745   5.827   8.855
 6396POPC   GL213586  40.674   5.948   8.855
 6396POPC   C1A13587  40.753   5.874   8.555
 6396POPC   D2A13588  40.828   5.858   8.255
 6396POPC   C3A13589  40.760   5.864   7.955
 6396POPC   C4A13590  40.765   5.884   7.655
 6396POPC   C1B13591  40.592   6.120   8.555
 6396POPC   C2B13592  40.671   6.038   8.255
 6396POPC   C3B13593  40.683   6.051   7.955
 6396POPC   C4B13594  40.621   6.060   7.655
 6397POPC   NC313595  22.914  22.178   9.455
 6397POPC   PO413596  22.914  22.193   9.155
 6397POPC   GL113597  22.913  22.114   8.855
 6397POPC   GL213598  23.018  22.166   8.855
 6397POPC   C1A13599  22.951  22.188   8.555
 6397POPC   D2A13600  22.901  22.152   8.255
 6397POPC   C3A13601  22.914  22.127   7.955
 6397POPC   C4A13602  22.890  22.197   7.655
 6397POPC   C1B13603  23.176  22.181   8.555
 6397POPC   C2B13604  23.207  22.102   8.255
 6397POPC   C3B13605  23.161  22.156   7.955
 6397POPC   C4B13606  23.143  22.137   7.655
 6398POPC   NC313607  44.682  33.021   9.455
 6398POPC   PO413608  44.660  33.024   9.155
 6398POPC   GL113609  44.705  33.051   8.855
 6398POPC   GL213610  44.505  32.966   8.855
 6398POPC   C1A13611  44.659  32.977   8.555
 6398POPC   D2A13612  44.657  33.039   8.255
 6398POPC   C3A13613  44.709  33.065   7.955
 6398POPC   C4A13614  44.649  33.018   7.655
 6398POPC   C1B13615  44.443  32.966   8.555
 6398POPC   C2B13616  44.388  32.992   8.255
 6398POPC   C3B13617  44.410  32.916   7.955
 6398POPC   C4B13618  44.405  32.909   7.655
 6399POPC   NC313619   7.469   1.241   9.455
 6399POPC   PO413620   7.387   1.165   9.155
 6399POPC   GL113621   7.417   1.233   8.855
 6399POPC   GL213622   7.345   1.106   8.855
 6399POPC   C1A13623   7.453   1.239   8.555
 6399POPC   D2A13624   7.385   1.250   8.255
 6399POPC   C3A13625   7.389   1.244   7.955
 6399POPC   C4A13626   7.397   1.184   7.655
 6399POPC   C1B13627   7.386   1.007   8.555
 6399POPC   C2B13628   7.402   0.973   8.255
 6399POPC   C3B13629   7.369   0.934   7.955
 6399POPC   C4B13630   7.414   1.002   7.655
 6400POPC   NC313631  33.775  11.340   9.455
 6400POPC   PO413632  33.754  11.299   9.155
 6400POPC   GL113633  33.829  11.270   8.855
 6400POPC   GL213634  33.809  11.156   8.855
 6400POPC   C1A13635  33.758  11.272   8.555
 6400POPC   D2A13636  33.823  11.262   8.255
 6400POPC   C3A13637  33.836  11.341   7.955
 6400POPC   C4A13638  33.802  11.341   7.655
 6400POPC   C1B13639  33.782  11.021   8.555
 6400POPC   C2B13640  33.776  11.054   8.255
 6400POPC   C3B13641  33.779  11.018   7.955
 6400POPC   C4B13642  33.769  11.025   7.655
 6401POPC   NC313643  41.515  32.252   9.455
 6401POPC   PO413644  41.575  32.279   9.155
 6401POPC   GL113645  41.543  32.212   8.855
 6401POPC   GL213646  41.475  32.324   8.855
 6401POPC   C1A13647  41.566  32.293   8.555
 6401POPC   D2A13648  41.567  32.219   8.255
 6401POPC   C3A13649  41.588  32.259   7.955
 6401POPC   C4A13650  41.601  32.259   7.655
 6401POPC   C1B13651  41.351  32.351   8.555
 6401POPC   C2B13652  41.287  32.359   8.255
 6401POPC   C3B13653  41.377  32.359   7.955
 6401POPC   C4B13654  41.365  32.340   7.655
 6402POPC   NC313655  31.467  19.844   9.455
 6402POPC   PO413656  31.476  19.868   9.155
 6402POPC   GL113657  31.520  19.874   8.855
 6402POPC   GL213658  31.635  19.813   8.855
 6402POPC   C1A13659  31.424  19.881   8.555
 6402POPC   D2A13660  31.506  19.879   8.255
 6402POPC   C3A13661  31.509  19.870   7.955
 6402POPC   C4A13662  31.510  19.827   7.655
 6402POPC   C1B13663  31.689  19.813   8.555
 6402POPC   C2B13664  31.709  19.764   8.255
 6402POPC   C3B13665  31.732  19.769   7.955
 6402POPC   C4B13666  31.733  19.773   7.655
 6403POPC   NC313667  20.636  16.000   9.455
 6403POPC   PO413668  20.623  15.929   9.155
 6403POPC   GL113669  20.621  15.929   8.855
 6403POPC   GL213670  20.673  16.019   8.855
 6403POPC   C1A13671  20.654  15.938   8.555
 6403POPC   D2A13672  20.654  16.001   8.255
 6403POPC   C3A13673  20.597  15.918   7.955
 6403POPC   C4A13674  20.650  15.924   7.655
 6403POPC   C1B13675  20.701  16.126   8.555
 6403POPC   C2B13676  20.744  16.209   8.255
 6403POPC   C3B13677  20.717  16.198   7.955
 6403POPC   C4B13678  20.778  16.156   7.655
 6404POPC   NC313679  21.343  40.765   9.455
 6404POPC   PO413680  21.395  40.797   9.155
 6404POPC   GL113681  21.396  40.743   8.855
 6404POPC   GL213682  21.476  40.638   8.855
 6404POPC   C1A13683  21.395  40.807   8.555
 6404POPC   D2A13684  21.427  40.753   8.255
 6404POPC   C3A13685  21.408  40.811   7.955
 6404POPC   C4A13686  21.361  40.749   7.655
 6404POPC   C1B13687  21.464  40.577   8.555
 6404POPC   C2B13688  21.453  40.562   8.255
 6404POPC   C3B13689  21.462  40.505   7.955
 6404POPC   C4B13690  21.517  40.524   7.655
 6405POPC   NC313691   9.016  10.494   9.455
 6405POPC   PO413692   9.017  10.550   9.155
 6405POPC   GL113693   8.989  10.498   8.855
 6405POPC   GL213694   8.960  10.676   8.855
 6405POPC   C1A13695   8.962  10.551   8.555
 6405POPC   D2A13696   9.000  10.493   8.255
 6405POPC   C3A13697   8.971  10.513   7.955
 6405POPC   C4A13698   8.940  10.568   7.655
 6405POPC   C1B13699   8.966  10.790   8.555
 6405POPC   C2B13700   8.963  10.813   8.255
 6405POPC   C3B13701   9.024  10.807   7.955
 6405POPC   C4B13702   8.953  10.792   7.655
 6406POPC   NC313703  16.767  13.607   9.455
 6406POPC   PO413704  16.745  13.600   9.155
 6406POPC   GL113705  16.704  13.656   8.855
 6406POPC   GL213706  16.629  13.549   8.855
 6406POPC   C1A13707  16.761  13.613   8.555
 6406POPC   D2A13708  16.686  13.634   8.255
 6406POPC   C3A13709  16.703  13.592   7.955
 6406POPC   C4A13710  16.731  13.632   7.655
 6406POPC   C1B13711  16.525  13.561   8.555
 6406POPC   C2B13712  16.479  13.537   8.255
 6406POPC   C3B13713  16.474  13.530   7.955
 6406POPC   C4B13714  16.458  13.515   7.655
 6407POPC   NC313715   5.124  30.723   9.455
 6407POPC   PO413716   5.119  30.684   9.155
 6407POPC   GL113717   5.076  30.745   8.855
 6407POPC   GL213718   5.039  30.753   8.855
 6407POPC   C1A13719   5.086  30.665   8.555
 6407POPC   D2A13720   5.082  30.649   8.255
 6407POPC   C3A13721   5.129  30.670   7.955
 6407POPC   C4A13722   5.141  30.708   7.655
 6407POPC   C1B13723   4.893  30.890   8.555
 6407POPC   C2B13724   4.928  30.845   8.255
 6407POPC   C3B13725   4.849  30.858   7.955
 6407POPC   C4B13726   4.853  30.813   7.655
 6408POPC   NC313727  34.560  39.242   9.455
 6408POPC   PO413728  34.622  39.194   9.155
 6408POPC   GL113729  34.604  39.194   8.855
 6408POPC   GL213730  34.448  39.203   8.855
 6408POPC   C1A13731  34.596  39.247   8.555
 6408POPC   D2A13732  34.623  39.252   8.255
 6408POPC   C3A13733  34.601  39.244   7.955
 6408POPC   C4A13734  34.590  39.257   7.655
 6408POPC   C1B13735  34.367  39.156   8.555
 6408POPC   C2B13736  34.372  39.079   8.255
 6408POPC   C3B13737  34.361  39.124   7.955
 6408POPC   C4B13738  34.369  39.073   7.655
 6409POPC   NC313739  27.619  28.339   9.455
 6409POPC   PO413740  27.627  28.370   9.155
 6409POPC   GL113741  27.580  28.376   8.855
 6409POPC   GL213742  27.486  28.355   8.855
 6409POPC   C1A13743  27.546  28.356   8.555
 6409POPC   D2A13744  27.569  28.386   8.255
 6409POPC   C3A13745  27.596  28.338   7.955
 6409POPC   C4A13746  27.585  28.405   7.655
 6409POPC   C1B13747  27.371  28.431   8.555
 6409POPC   C2B13748  27.352  28.365   8.255
 6409POPC   C3B13749  27.332  28.368   7.955
 6409POPC   C4B13750  27.392  28.373   7.655
 6410POPC   NC313751  33.037  32.252   9.455
 6410POPC   PO413752  32.991  32.221   9.155
 6410POPC   GL113753  32.991  32.294   8.855
 6410POPC   GL213754  33.082  32.149   8.855
 6410POPC   C1A13755  33.029  32.274   8.555
 6410POPC   D2A13756  33.074  32.296   8.255
 6410POPC   C3A13757  33.013  32.260   7.955
 6410POPC   C4A13758  33.046  32.227   7.655
 6410POPC   C1B13759  33.265  32.114   8.555
 6410POPC   C2B13760  33.199  32.118   8.255
 6410POPC   C3B13761  33.249  32.090   7.955
 6410POPC   C4B13762  33.259  32.055   7.655
 6411POPC   NC313763   6.645  10.531   9.455
 6411POPC   PO413764   6.673  10.479   9.155
 6411POPC   GL113765   6.635  10.530   8.855
 6411POPC   GL213766   6.534  10.464   8.855
 6411POPC   C1A13767   6.632  10.527   8.555
 6411POPC   D2A13768   6.644  10.482   8.255
 6411POPC   C3A13769   6.664  10.485   7.955
 6411POPC   C4A13770   6.631  10.518   7.655
 6411POPC   C1B13771   6.507  10.305   8.555
 6411POPC   C2B13772   6.532  10.277   8.255
 6411POPC   C3B13773   6.547  10.361   7.955
 6411POPC   C4B13774   6.551  10.273   7.655
 6412POPC   NC313775  20.649  25.282   9.455
 6412POPC   PO413776  20.612  25.265   9.155
 6412POPC   GL113777  20.582  25.309   8.855
 6412POPC   GL213778  20.666  25.356   8.855
 6412POPC   C1A13779  20.648  25.223   8.555
 6412POPC   D2A13780  20.574  25.236   8.255
 6412POPC   C3A13781  20.637  25.292   7.955
 6412POPC   C4A13782  20.564  25.233   7.655
 6412POPC   C1B13783  20.850  25.407   8.555
 6412POPC   C2B13784  20.811  25.441   8.255
 6412POPC   C3B13785  20.834  25.380   7.955
 6412POPC   C4B13786  20.870  25.426   7.655
 6413POPC   NC313787  38.421  12.895   9.455
 6413POPC   PO413788  38.473  12.880   9.155
 6413POPC   GL113789  38.416  12.886   8.855
 6413POPC   GL213790  38.356  12.854   8.855
 6413POPC   C1A13791  38.495  12.834   8.555
 6413POPC   D2A13792  38.505  12.811   8.255
 6413POPC   C3A13793  38.433  12.889   7.955
 6413POPC   C4A13794  38.431  12.873   7.655
 6413POPC   C1B13795  38.257  12.934   8.555
 6413POPC   C2B13796  38.178  12.932   8.255
 6413POPC   C3B13797  38.183  12.874   7.955
 6413POPC   C4B13798  38.170  12.892   7.655
 6414POPC   NC313799  16.691   3.558   9.455
 6414POPC   PO413800  16.750   3.513   9.155
 6414POPC   GL113801  16.740   3.564   8.855
 6414POPC   GL213802  16.885   3.579   8.855
 6414POPC   C1A13803  16.707   3.504   8.555
 6414POPC   D2A13804  16.723   3.574   8.255
 6414POPC   C3A13805  16.767   3.529   7.955
 6414POPC   C4A13806  16.707   3.529   7.655
 6414POPC   C1B13807  17.003   3.508   8.555
 6414POPC   C2B13808  16.958   3.592   8.255
 6414POPC   C3B13809  17.016   3.564   7.955
 6414POPC   C4B13810  16.954   3.542   7.655
 6415POPC   NC313811  13.580  32.290   9.455
 6415POPC   PO413812  13.627  32.217   9.155
 6415POPC   GL113813  13.614  32.228   8.855
 6415POPC   GL213814  13.547  32.260   8.855
 6415POPC   C1A13815  13.632  32.218   8.555
 6415POPC   D2A13816  13.601  32.224   8.255
 6415POPC   C3A13817  13.635  32.256   7.955
 6415POPC   C4A13818  13.589  32.203   7.655
 6415POPC   C1B13819  13.395  32.232   8.555
 6415POPC   C2B13820  13.394  32.244   8.255
 6415POPC   C3B13821  13.359  32.230   7.955
 6415POPC   C4B13822  13.329  32.266   7.655
 6416POPC   NC313823   4.359   8.244   9.455
 6416POPC   PO413824   4.269   8.191   9.155
 6416POPC   GL113825   4.274   8.199   8.855
 6416POPC   GL213826   4.299   8.062   8.855
 6416POPC   C1A13827   4.271   8.202   8.555
 6416POPC   D2A13828   4.298   8.160   8.255
 6416POPC   C3A13829   4.311   8.195   7.955
 6416POPC   C4A13830   4.333   8.233   7.655
 6416POPC   C1B13831   4.274   7.930   8.555
 6416POPC   C2B13832   4.332   7.939   8.255
 6416POPC   C3B13833   4.292   7.995   7.955
 6416POPC   C4B13834   4.260   7.980   7.655
 6417POPC   NC313835  15.172  43.098   9.455
 6417POPC   PO413836  15.134  43.160   9.155
 6417POPC   GL113837  15.155  43.151   8.855
 6417POPC   GL213838  15.300  43.216   8.855
 6417POPC   C1A13839  15.173  43.094   8.555
 6417POPC   D2A13840  15.175  43.082   8.255
 6417POPC   C3A13841  15.155  43.096   7.955
 6417POPC   C4A13842  15.227  43.066   7.655
 6417POPC   C1B13843  15.394  43.288   8.555
 6417POPC   C2B13844  15.354  43.295   8.255
 6417POPC   C3B13845  15.336  43.298   7.955
 6417POPC   C4B13846  15.378  43.302   7.655
 6418POPC   NC313847   1.948  19.023   9.455
 6418POPC   PO413848   1.969  19.068   9.155
 6418POPC   GL113849   1.986  19.105   8.855
 6418POPC   GL213850   2.132  19.128   8.855
 6418POPC   C1A13851   2.011  19.064   8.555
 6418POPC   D2A13852   1.972  19.038   8.255
 6418POPC   C3A13853   1.966  19.057   7.955
 6418POPC   C4A13854   1.961  19.081   7.655
 6418POPC   C1B13855   2.231  19.219   8.555
 6418POPC   C2B13856   2.205  19.164   8.255
 6418POPC   C3B13857   2.201  19.194   7.955
 6418POPC   C4B13858   2.249  19.185   7.655
 6419POPC   NC313859  39.985  12.105   9.455
 6419POPC   PO413860  39.988  12.073   9.155
 6419POPC   GL113861  39.981  12.040   8.855
 6419POPC   GL213862  39.852  12.000   8.855
 6419POPC   C1A13863  40.047  12.093   8.555
 6419POPC   D2A13864  40.044  12.098   8.255
 6419POPC   C3A13865  40.040  12.107   7.955
 6419POPC   C4A13866  39.972  12.100   7.655
 6419POPC   C1B13867  39.741  11.970   8.555
 6419POPC   C2B13868  39.781  11.955   8.255
 6419POPC   C3B13869  39.756  11.972   7.955
 6419POPC   C4B13870  39.743  12.014   7.655
 6420POPC   NC313871  12.864  21.375   9.455
 6420POPC   PO413872  12.899  21.367   9.155
 6420POPC   GL113873  12.825  21.378   8.855
 6420POPC   GL213874  12.864  21.558   8.855
 6420POPC   C1A13875  12.869  21.421   8.555
 6420POPC   D2A13876  12.845  21.396   8.255
 6420POPC   C3A13877  12.844  21.357   7.955
 6420POPC   C4A13878  12.883  21.394   7.655
 6420POPC   C1B13879  12.868  21.585   8.555
 6420POPC   C2B13880  12.934  21.618   8.255
 6420POPC   C3B13881  12.885  21.598   7.955
 6420POPC   C4B13882  12.910  21.679   7.655
 6421POPC   NC313883  33.780  42.308   9.455
 6421POPC   PO413884  33.763  42.330   9.155
 6421POPC   GL113885  33.778  42.382   8.855
 6421POPC   GL213886  33.841  42.463   8.855
 6421POPC   C1A13887  33.771  42.296   8.555
 6421POPC   D2A13888  33.843  42.343   8.255
 6421POPC   C3A13889  33.825  42.345   7.955
 6421POPC   C4A13890  33.754  42.294   7.655
 6421POPC   C1B13891  33.792  42.633   8.555
 6421POPC   C2B13892  33.793  42.632   8.255
 6421POPC   C3B13893  33.766  42.567   7.955
 6421POPC   C4B13894  33.800  42.614   7.655
 6422POPC   NC313895  36.900   8.948   9.455
 6422POPC   PO413896  36.860   8.983   9.155
 6422POPC   GL113897  36.911   9.002   8.855
 6422POPC   GL213898  36.986   9.070   8.855
 6422POPC   C1A13899  36.951   8.997   8.555
 6422POPC   D2A13900  36.924   8.982   8.255
 6422POPC   C3A13901  36.938   9.004   7.955
 6422POPC   C4A13902  36.905   9.007   7.655
 6422POPC   C1B13903  37.105   9.173   8.555
 6422POPC   C2B13904  37.093   9.182   8.255
 6422POPC   C3B13905  37.030   9.199   7.955
 6422POPC   C4B13906  37.063   9.194   7.655
 6423POPC   NC313907  31.506  20.604   9.455
 6423POPC   PO413908  31.482  20.588   9.155
 6423POPC   GL113909  31.521  20.637   8.855
 6423POPC   GL213910  31.550  20.614   8.855
 6423POPC   C1A13911  31.510  20.566   8.555
 6423POPC   D2A13912  31.505  20.566   8.255
 6423POPC   C3A13913  31.509  20.605   7.955
 6423POPC   C4A13914  31.468  20.608   7.655
 6423POPC   C1B13915  31.765  20.567   8.555
 6423POPC   C2B13916  31.709  20.532   8.255
 6423POPC   C3B13917  31.768  20.562   7.955
 6423POPC   C4B13918  31.760  20.631   7.655
 6424POPC   NC313919  23.706  41.559   9.455
 6424POPC   PO413920  23.746  41.575   9.155
 6424POPC   GL113921  23.714  41.532   8.855
 6424POPC   GL213922  23.874  41.595   8.855
 6424POPC   C1A13923  23.681  41.561   8.555
 6424POPC   D2A13924  23.698  41.534   8.255
 6424POPC   C3A13925  23.750  41.583   7.955
 6424POPC   C4A13926  23.752  41.556   7.655
 6424POPC   C1B13927  23.945  41.722   8.555
 6424POPC   C2B13928  23.924  41.634   8.255
 6424POPC   C3B13929  23.956  41.647   7.955
 6424POPC   C4B13930  23.886  41.691   7.655
 6425POPC   NC313931  41.548  36.870   9.455
 6425POPC   PO413932  41.559  36.869   9.155
 6425POPC   GL113933  41.516  36.924   8.855
 6425POPC   GL213934  41.503  37.011   8.855
 6425POPC   C1A13935  41.562  36.913   8.555
 6425POPC   D2A13936  41.567  36.885   8.255
 6425POPC   C3A13937  41.601  36.904   7.955
 6425POPC   C4A13938  41.561  36.873   7.655
 6425POPC   C1B13939  41.427  37.077   8.555
 6425POPC   C2B13940  41.371  37.077   8.255
 6425POPC   C3B13941  41.422  37.141   7.955
 6425POPC   C4B13942  41.403  37.142   7.655
 6426POPC   NC313943   2.794  34.598   9.455
 6426POPC   PO413944   2.768  34.602   9.155
 6426POPC   GL113945   2.764  34.594   8.855
 6426POPC   GL213946   2.731  34.482   8.855
 6426POPC   C1A13947   2.813  34.565   8.555
 6426POPC   D2A13948   2.734  34.601   8.255
 6426POPC   C3A13949   2.727  34.595   7.955
 6426POPC   C4A13950   2.722  34.577   7.655
 6426POPC   C1B13951   2.755  34.340   8.555
 6426POPC   C2B13952   2.768  34.365   8.255
 6426POPC   C3B13953   2.726  34.296   7.955
 6426POPC   C4B13954   2.754  34.357   7.655
 6427POPC   NC313955   8.201   2.035   9.455
 6427POPC   PO413956   8.184   2.030   9.155
 6427POPC   GL113957   8.246   1.977   8.855
 6427POPC   GL213958   8.063   1.872   8.855
 6427POPC   C1A13959   8.160   1.966   8.555
 6427POPC   D2A13960   8.242   1.988   8.255
 6427POPC   C3A13961   8.175   1.982   7.955
 6427POPC   C4A13962   8.192   2.032   7.655
 6427POPC   C1B13963   7.985   1.773   8.555
 6427POPC   C2B13964   8.024   1.798   8.255
 6427POPC   C3B13965   8.019   1.841   7.955
 6427POPC   C4B13966   7.986   1.831   7.655
 6428POPC   NC313967  40.762  43.146   9.455
 6428POPC   PO413968  40.783  43.083   9.155
 6428POPC   GL113969  40.785  43.136   8.855
 6428POPC   GL213970  40.762  43.274   8.855
 6428POPC   C1A13971  40.824  43.122   8.555
 6428POPC   D2A13972  40.748  43.118   8.255
 6428POPC   C3A13973  40.739  43.116   7.955
 6428POPC   C4A13974  40.772  43.119   7.655
 6428POPC   C1B13975  40.738  43.382   8.555
 6428POPC   C2B13976  40.726  43.388   8.255
 6428POPC   C3B13977  40.759  43.329   7.955
 6428POPC   C4B13978  40.709  43.354   7.655
 6429POPC   NC313979   4.347  19.859   9.455
 6429POPC   PO413980   4.339  19.810   9.155
 6429POPC   GL113981   4.296  19.876   8.855
 6429POPC   GL213982   4.379  19.750   8.855
 6429POPC   C1A13983   4.349  19.878   8.555
 6429POPC   D2A13984   4.303  19.823   8.255
 6429POPC   C3A13985   4.308  19.882   7.955
 6429POPC   C4A13986   4.315  19.790   7.655
 6429POPC   C1B13987   4.579  19.745   8.555
 6429POPC   C2B13988   4.500  19.714   8.255
 6429POPC   C3B13989   4.555  19.713   7.955
 6429POPC   C4B13990   4.526  19.670   7.655
 6430POPC   NC313991  41.603  37.728   9.455
 6430POPC   PO413992  41.586  37.718   9.155
 6430POPC   GL113993  41.560  37.630   8.855
 6430POPC   GL213994  41.508  37.762   8.855
 6430POPC   C1A13995  41.538  37.691   8.555
 6430POPC   D2A13996  41.552  37.653   8.255
 6430POPC   C3A13997  41.558  37.648   7.955
 6430POPC   C4A13998  41.547  37.727   7.655
 6430POPC   C1B13999  41.505  37.895   8.555
 6430POPC   C2B14000  41.486  37.884   8.255
 6430POPC   C3B14001  41.442  37.871   7.955
 6430POPC   C4B14002  41.516  37.871   7.655
 6431POPC   NC314003   1.996  35.371   9.455
 6431POPC   PO414004   2.031  35.320   9.155
 6431POPC   GL114005   1.979  35.341   8.855
 6431POPC   GL214006   2.072  35.285   8.855
 6431POPC   C1A14007   2.025  35.305   8.555
 6431POPC   D2A14008   1.958  35.358   8.255
 6431POPC   C3A14009   2.029  35.305   7.955
 6431POPC   C4A14010   1.973  35.379   7.655
 6431POPC   C1B14011   2.087  35.090   8.555
 6431POPC   C2B14012   2.145  35.133   8.255
 6431POPC   C3B14013   2.130  35.150   7.955
 6431POPC   C4B14014   2.087  35.176   7.655
 6432POPC   NC314015   7.465   5.122   9.455
 6432POPC   PO414016   7.394   5.054   9.155
 6432POPC   GL114017   7.426   5.046   8.855
 6432POPC   GL214018   7.531   5.107   8.855
 6432POPC   C1A14019   7.431   5.082   8.555
 6432POPC   D2A14020   7.446   5.115   8.255
 6432POPC   C3A14021   7.389   5.121   7.955
 6432POPC   C4A14022   7.405   5.138   7.655
 6432POPC   C1B14023   7.615   5.166   8.555
 6432POPC   C2B14024   7.605   5.227   8.255
 6432POPC   C3B14025   7.612   5.154   7.955
 6432POPC   C4B14026   7.636   5.234   7.655
 6433POPC   NC314027   0.466   0.445   9.455
 6433POPC   PO414028   0.483   0.465   9.155
 6433POPC   GL114029   0.454   0.440   8.855
 6433POPC   GL214030   0.436   0.312   8.855
 6433POPC   C1A14031   0.456   0.411   8.555
 6433POPC   D2A14032   0.411   0.486   8.255
 6433POPC   C3A14033   0.440   0.414   7.955
 6433POPC   C4A14034   0.457   0.483   7.655
 6433POPC   C1B14035   0.507   0.198   8.555
 6433POPC   C2B14036   0.572   0.190   8.255
 6433POPC   C3B14037   0.576   0.243   7.955
 6433POPC   C4B14038   0.518   0.174   7.655
 6434POPC   NC314039  11.311  19.805   9.455
 6434POPC   PO414040  11.320  19.875   9.155
 6434POPC   GL114041  11.267  19.879   8.855
 6434POPC   GL214042  11.164  19.891   8.855
 6434POPC   C1A14043  11.279  19.840   8.555
 6434POPC   D2A14044  11.281  19.794   8.255
 6434POPC   C3A14045  11.284  19.850   7.955
 6434POPC   C4A14046  11.302  19.877   7.655
 6434POPC   C1B14047  11.077  19.916   8.555
 6434POPC   C2B14048  11.086  19.884   8.255
 6434POPC   C3B14049  11.091  19.964   7.955
 6434POPC   C4B14050  11.033  19.942   7.655
 6435POPC   NC314051  39.228  40.048   9.455
 6435POPC   PO414052  39.274  40.040   9.155
 6435POPC   GL114053  39.233  40.056   8.855
 6435POPC   GL214054  39.310  39.957   8.855
 6435POPC   C1A14055  39.262  39.986   8.555
 6435POPC   D2A14056  39.247  40.013   8.255
 6435POPC   C3A14057  39.277  39.995   7.955
 6435POPC   C4A14058  39.212  40.021   7.655
 6435POPC   C1B14059  39.406  39.859   8.555
 6435POPC   C2B14060  39.433  39.798   8.255
 6435POPC   C3B14061  39.463  39.854   7.955
 6435POPC   C4B14062  39.450  39.872   7.655
 6436POPC   NC314063  41.554   8.153   9.455
 6436POPC   PO414064  41.539   8.147   9.155
 6436POPC   GL114065  41.529   8.181   8.855
 6436POPC   GL214066  41.643   8.187   8.855
 6436POPC   C1A14067  41.531   8.219   8.555
 6436POPC   D2A14068  41.546   8.221   8.255
 6436POPC   C3A14069  41.575   8.176   7.955
 6436POPC   C4A14070  41.509   8.246   7.655
 6436POPC   C1B14071  41.777   8.103   8.555
 6436POPC   C2B14072  41.816   8.121   8.255
 6436POPC   C3B14073  41.782   8.105   7.955
 6436POPC   C4B14074  41.762   8.167   7.655
 6437POPC   NC314075  32.250   5.117   9.455
 6437POPC   PO414076  32.237   5.053   9.155
 6437POPC   GL114077  32.284   5.057   8.855
 6437POPC   GL214078  32.311   5.227   8.855
 6437POPC   C1A14079  32.294   5.055   8.555
 6437POPC   D2A14080  32.234   5.086   8.255
 6437POPC   C3A14081  32.292   5.098   7.955
 6437POPC   C4A14082  32.271   5.065   7.655
 6437POPC   C1B14083  32.412   5.359   8.555
 6437POPC   C2B14084  32.413   5.266   8.255
 6437POPC   C3B14085  32.374   5.356   7.955
 6437POPC   C4B14086  32.320   5.291   7.655
 6438POPC   NC314087   3.589  15.157   9.455
 6438POPC   PO414088   3.568  15.177   9.155
 6438POPC   GL114089   3.503  15.175   8.855
 6438POPC   GL214090   3.666  15.185   8.855
 6438POPC   C1A14091   3.541  15.208   8.555
 6438POPC   D2A14092   3.587  15.214   8.255
 6438POPC   C3A14093   3.512  15.170   7.955
 6438POPC   C4A14094   3.496  15.210   7.655
 6438POPC   C1B14095   3.794  15.244   8.555
 6438POPC   C2B14096   3.829  15.279   8.255
 6438POPC   C3B14097   3.814  15.236   7.955
 6438POPC   C4B14098   3.814  15.207   7.655
 6439POPC   NC314099  12.863  37.667   9.455
 6439POPC   PO414100  12.872  37.679   9.155
 6439POPC   GL114101  12.817  37.669   8.855
 6439POPC   GL214102  12.883  37.562   8.855
 6439POPC   C1A14103  12.826  37.639   8.555
 6439POPC   D2A14104  12.806  37.693   8.255
 6439POPC   C3A14105  12.821  37.690   7.955
 6439POPC   C4A14106  12.848  37.712   7.655
 6439POPC   C1B14107  13.002  37.442   8.555
 6439POPC   C2B14108  13.007  37.486   8.255
 6439POPC   C3B14109  13.009  37.443   7.955
 6439POPC   C4B14110  13.009  37.527   7.655
 6440POPC   NC314111  30.671   2.731   9.455
 6440POPC   PO414112  30.725   2.770   9.155
 6440POPC   GL114113  30.740   2.762   8.855
 6440POPC   GL214114  30.627   2.870   8.855
 6440POPC   C1A14115  30.727   2.768   8.555
 6440POPC   D2A14116  30.735   2.814   8.255
 6440POPC   C3A14117  30.711   2.781   7.955
 6440POPC   C4A14118  30.741   2.718   7.655
 6440POPC   C1B14119  30.511   2.994   8.555
 6440POPC   C2B14120  30.573   2.975   8.255
 6440POPC   C3B14121  30.542   3.002   7.955
 6440POPC   C4B14122  30.516   2.980   7.655
 6441POPC   NC314123   7.390  20.622   9.455
 6441POPC   PO414124   7.378  20.611   9.155
 6441POPC   GL114125   7.381  20.575   8.855
 6441POPC   GL214126   7.531  20.536   8.855
 6441POPC   C1A14127   7.433  20.646   8.555
 6441POPC   D2A14128   7.381  20.606   8.255
 6441POPC   C3A14129   7.405  20.567   7.955
 6441POPC   C4A14130   7.382  20.599   7.655
 6441POPC   C1B14131   7.629  20.591   8.555
 6441POPC   C2B14132   7.714  20.516   8.255
 6441POPC   C3B14133   7.669  20.568   7.955
 6441POPC   C4B14134   7.626  20.547   7.655
 6442POPC   NC314135   8.939  37.683   9.455
 6442POPC   PO414136   8.964  37.682   9.155
 6442POPC   GL114137   8.962  37.632   8.855
 6442POPC   GL214138   9.080  37.598   8.855
 6442POPC   C1A14139   8.982  37.664   8.555
 6442POPC   D2A14140   8.987  37.667   8.255
 6442POPC   C3A14141   9.013  37.725   7.955
 6442POPC   C4A14142   9.013  37.702   7.655
 6442POPC   C1B14143   9.162  37.515   8.555
 6442POPC   C2B14144   9.167  37.540   8.255
 6442POPC   C3B14145   9.167  37.462   7.955
 6442POPC   C4B14146   9.180  37.485   7.655
 6443POPC   NC314147  22.915  14.384   9.455
 6443POPC   PO414148  22.889  14.442   9.155
 6443POPC   GL114149  22.937  14.363   8.855
 6443POPC   GL214150  22.956  14.281   8.855
 6443POPC   C1A14151  22.969  14.419   8.555
 6443POPC   D2A14152  22.949  14.420   8.255
 6443POPC   C3A14153  22.937  14.403   7.955
 6443POPC   C4A14154  22.971  14.436   7.655
 6443POPC   C1B14155  23.080  14.151   8.555
 6443POPC   C2B14156  23.084  14.182   8.255
 6443POPC   C3B14157  23.031  14.201   7.955
 6443POPC   C4B14158  23.068  14.162   7.655
 6444POPC   NC314159  13.653  36.898   9.455
 6444POPC   PO414160  13.645  36.922   9.155
 6444POPC   GL114161  13.656  36.912   8.855
 6444POPC   GL214162  13.472  36.954   8.855
 6444POPC   C1A14163  13.626  36.936   8.555
 6444POPC   D2A14164  13.583  36.870   8.255
 6444POPC   C3A14165  13.583  36.908   7.955
 6444POPC   C4A14166  13.675  36.888   7.655
 6444POPC   C1B14167  13.450  37.011   8.555
 6444POPC   C2B14168  13.359  37.059   8.255
 6444POPC   C3B14169  13.377  37.016   7.955
 6444POPC   C4B14170  13.406  37.045   7.655
 6445POPC   NC314171   6.681   6.629   9.455
 6445POPC   PO414172   6.654   6.691   9.155
 6445POPC   GL114173   6.658   6.656   8.855
 6445POPC   GL214174   6.631   6.773   8.855
 6445POPC   C1A14175   6.596   6.604   8.555
 6445POPC   D2A14176   6.671   6.659   8.255
 6445POPC   C3A14177   6.649   6.662   7.955
 6445POPC   C4A14178   6.671   6.662   7.655
 6445POPC   C1B14179   6.703   6.928   8.555
 6445POPC   C2B14180   6.643   6.876   8.255
 6445POPC   C3B14181   6.717   6.943   7.955
 6445POPC   C4B14182   6.637   6.907   7.655
 6446POPC   NC314183  36.116  31.483   9.455
 6446POPC   PO414184  36.096  31.456   9.155
 6446POPC   GL114185  36.122  31.507   8.855
 6446POPC   GL214186  36.260  31.543   8.855
 6446POPC   C1A14187  36.161  31.445   8.555
 6446POPC   D2A14188  36.079  31.518   8.255
 6446POPC   C3A14189  36.150  31.502   7.955
 6446POPC   C4A14190  36.103  31.490   7.655
 6446POPC   C1B14191  36.398  31.528   8.555
 6446POPC   C2B14192  36.386  31.531   8.255
 6446POPC   C3B14193  36.361  31.546   7.955
 6446POPC   C4B14194  36.374  31.530   7.655
 6447POPC   NC314195  14.428  15.929   9.455
 6447POPC   PO414196  14.371  15.999   9.155
 6447POPC   GL114197  14.354  15.917   8.855
 6447POPC   GL214198  14.298  16.022   8.855
 6447POPC   C1A14199  14.382  15.953   8.555
 6447POPC   D2A14200  14.399  15.916   8.255
 6447POPC   C3A14201  14.371  15.990   7.955
 6447POPC   C4A14202  14.370  15.930   7.655
 6447POPC   C1B14203  14.214  16.131   8.555
 6447POPC   C2B14204  14.255  16.133   8.255
 6447POPC   C3B14205  14.215  16.154   7.955
 6447POPC   C4B14206  14.259  16.138   7.655
 6448POPC   NC314207  43.912  27.636   9.455
 6448POPC   PO414208  43.908  27.564   9.155
 6448POPC   GL114209  43.891  27.559   8.855
 6448POPC   GL214210  43.801  27.626   8.855
 6448POPC   C1A14211  43.871  27.578   8.555
 6448POPC   D2A14212  43.894  27.572   8.255
 6448POPC   C3A14213  43.893  27.555   7.955
 6448POPC   C4A14214  43.933  27.581   7.655
 6448POPC   C1B14215  43.686  27.738   8.555
 6448POPC   C2B14216  43.657  27.787   8.255
 6448POPC   C3B14217  43.695  27.803   7.955
 6448POPC   C4B14218  43.651  27.772   7.655
 6449POPC   NC314219  33.016  40.766   9.455
 6449POPC   PO414220  32.983  40.795   9.155
 6449POPC   GL114221  33.048  40.762   8.855
 6449POPC   GL214222  32.993  40.638   8.855
 6449POPC   C1A14223  33.064  40.740   8.555
 6449POPC   D2A14224  33.033  40.754   8.255
 6449POPC   C3A14225  33.014  40.769   7.955
 6449POPC   C4A14226  32.993  40.823   7.655
 6449POPC   C1B14227  32.865  40.587   8.555
 6449POPC   C2B14228  32.862  40.582   8.255
 6449POPC   C3B14229  32.856  40.562   7.955
 6449POPC   C4B14230  32.843  40.572   7.655
 6450POPC   NC314231  38.471  22.136   9.455
 6450POPC   PO414232  38.449  22.143   9.155
 6450POPC   GL114233  38.488  22.127   8.855
 6450POPC   GL214234  38.601  22.088   8.855
 6450POPC   C1A14235  38.420  22.181   8.555
 6450POPC   D2A14236  38.443  22.176   8.255
 6450POPC   C3A14237  38.425  22.174   7.955
 6450POPC   C4A14238  38.503  22.167   7.655
 6450POPC   C1B14239  38.660  22.060   8.555
 6450POPC   C2B14240  38.731  22.115   8.255
 6450POPC   C3B14241  38.735  22.072   7.955
 6450POPC   C4B14242  38.734  22.130   7.655
 6451POPC   NC314243  21.376  10.555   9.455
 6451POPC   PO414244  21.414  10.502   9.155
 6451POPC   GL114245  21.420  10.507   8.855
 6451POPC   GL214246  21.460  10.403   8.855
 6451POPC   C1A14247  21.376  10.553   8.555
 6451POPC   D2A14248  21.425  10.568   8.255
 6451POPC   C3A14249  21.408  10.509   7.955
 6451POPC   C4A14250  21.382  10.507   7.655
 6451POPC   C1B14251  21.465  10.320   8.555
 6451POPC   C2B14252  21.506  10.332   8.255
 6451POPC   C3B14253  21.540  10.335   7.955
 6451POPC   C4B14254  21.494  10.277   7.655
 6452POPC   NC314255  11.255  31.425   9.455
 6452POPC   PO414256  11.252  31.438   9.155
 6452POPC   GL114257  11.313  31.447   8.855
 6452POPC   GL214258  11.219  31.413   8.855
 6452POPC   C1A14259  11.264  31.428   8.555
 6452POPC   D2A14260  11.272  31.500   8.255
 6452POPC   C3A14261  11.322  31.493   7.955
 6452POPC   C4A14262  11.310  31.520   7.655
 6452POPC   C1B14263  11.074  31.337   8.555
 6452POPC   C2B14264  11.085  31.400   8.255
 6452POPC   C3B14265  11.062  31.370   7.955
 6452POPC   C4B14266  11.054  31.393   7.655
 6453POPC   NC314267  42.377  19.827   9.455
 6453POPC   PO414268  42.340  19.810   9.155
 6453POPC   GL114269  42.366  19.871   8.855
 6453POPC   GL214270  42.436  19.735   8.855
 6453POPC   C1A14271  42.358  19.789   8.555
 6453POPC   D2A14272  42.303  19.880   8.255
 6453POPC   C3A14273  42.360  19.788   7.955
 6453POPC   C4A14274  42.322  19.840   7.655
 6453POPC   C1B14275  42.412  19.559   8.555
 6453POPC   C2B14276  42.431  19.581   8.255
 6453POPC   C3B14277  42.396  19.579   7.955
 6453POPC   C4B14278  42.424  19.598   7.655
 6454POPC   NC314279  33.793  39.267   9.455
 6454POPC   PO414280  33.816  39.188   9.155
 6454POPC   GL114281  33.812  39.269   8.855
 6454POPC   GL214282  33.820  39.289   8.855
 6454POPC   C1A14283  33.844  39.271   8.555
 6454POPC   D2A14284  33.764  39.223   8.255
 6454POPC   C3A14285  33.850  39.185   7.955
 6454POPC   C4A14286  33.840  39.233   7.655
 6454POPC   C1B14287  33.949  39.464   8.555
 6454POPC   C2B14288  33.963  39.394   8.255
 6454POPC   C3B14289  33.928  39.420   7.955
 6454POPC   C4B14290  33.951  39.401   7.655
 6455POPC   NC314291  12.061  41.555   9.455
 6455POPC   PO414292  12.072  41.557   9.155
 6455POPC   GL114293  12.076  41.548   8.855
 6455POPC   GL214294  11.930  41.568   8.855
 6455POPC   C1A14295  12.117  41.570   8.555
 6455POPC   D2A14296  12.096  41.584   8.255
 6455POPC   C3A14297  12.056  41.550   7.955
 6455POPC   C4A14298  12.081  41.574   7.655
 6455POPC   C1B14299  11.822  41.554   8.555
 6455POPC   C2B14300  11.800  41.534   8.255
 6455POPC   C3B14301  11.870  41.508   7.955
 6455POPC   C4B14302  11.793  41.507   7.655
 6456POPC   NC314303   9.012  44.661   9.455
 6456POPC   PO414304   8.946  44.645   9.155
 6456POPC   GL114305   8.947  44.661   8.855
 6456POPC   GL214306   9.021  44.552   8.855
 6456POPC   C1A14307   8.979  44.638   8.555
 6456POPC   D2A14308   9.019  44.667   8.255
 6456POPC   C3A14309   8.990  44.700   7.955
 6456POPC   C4A14310   8.939  44.693   7.655
 6456POPC   C1B14311   9.014  44.447   8.555
 6456POPC   C2B14312   9.048  44.452   8.255
 6456POPC   C3B14313   9.021  44.379   7.955
 6456POPC   C4B14314   9.010  44.375   7.655
 6457POPC   NC314315  30.739   7.449   9.455
 6457POPC   PO414316  30.671   7.431   9.155
 6457POPC   GL114317  30.671   7.378   8.855
 6457POPC   GL214318  30.796   7.519   8.855
 6457POPC   C1A14319  30.658   7.408   8.555
 6457POPC   D2A14320  30.716   7.458   8.255
 6457POPC   C3A14321  30.696   7.446   7.955
 6457POPC   C4A14322  30.647   7.439   7.655
 6457POPC   C1B14323  30.765   7.692   8.555
 6457POPC   C2B14324  30.765   7.674   8.255
 6457POPC   C3B14325  30.789   7.613   7.955
 6457POPC   C4B14326  30.789   7.613   7.655
 6458POPC   NC314327   2.030   3.524   9.455
 6458POPC   PO414328   2.001   3.539   9.155
 6458POPC   GL114329   1.995   3.537   8.855
 6458POPC   GL214330   1.884   3.682   8.855
 6458POPC   C1A14331   1.984   3.532   8.555
 6458POPC   D2A14332   1.982   3.536   8.255
 6458POPC   C3A14333   1.958   3.574   7.955
 6458POPC   C4A14334   1.989   3.505   7.655
 6458POPC   C1B14335   1.835   3.769   8.555
 6458POPC   C2B14336   1.886   3.734   8.255
 6458POPC   C3B14337   1.828   3.784   7.955
 6458POPC   C4B14338   1.832   3.794   7.655
 6459POPC   NC314339  29.124  38.486   9.455
 6459POPC   PO414340  29.173  38.445   9.155
 6459POPC   GL114341  29.123  38.416   8.855
 6459POPC   GL214342  29.116  38.617   8.855
 6459POPC   C1A14343  29.098  38.500   8.555
 6459POPC   D2A14344  29.134  38.466   8.255
 6459POPC   C3A14345  29.151  38.431   7.955
 6459POPC   C4A14346  29.154  38.441   7.655
 6459POPC   C1B14347  29.014  38.638   8.555
 6459POPC   C2B14348  29.021  38.705   8.255
 6459POPC   C3B14349  29.054  38.639   7.955
 6459POPC   C4B14350  29.029  38.633   7.655
 6460POPC   NC314351  36.865  24.486   9.455
 6460POPC   PO414352  36.918  24.489   9.155
 6460POPC   GL114353  36.953  24.480   8.855
 6460POPC   GL214354  36.999  24.582   8.855
 6460POPC   C1A14355  36.952  24.525   8.555
 6460POPC   D2A14356  36.869  24.451   8.255
 6460POPC   C3A14357  36.945  24.466   7.955
 6460POPC   C4A14358  36.893  24.476   7.655
 6460POPC   C1B14359  37.180  24.605   8.555
 6460POPC   C2B14360  37.141  24.576   8.255
 6460POPC   C3B14361  37.120  24.595   7.955
 6460POPC   C4B14362  37.136  24.564   7.655
 6461POPC   NC314363  33.772  29.941   9.455
 6461POPC   PO414364  33.821  29.960   9.155
 6461POPC   GL114365  33.845  29.911   8.855
 6461POPC   GL214366  33.686  29.813   8.855
 6461POPC   C1A14367  33.786  29.927   8.555
 6461POPC   D2A14368  33.778  29.953   8.255
 6461POPC   C3A14369  33.791  29.920   7.955
 6461POPC   C4A14370  33.826  29.931   7.655
 6461POPC   C1B14371  33.550  29.811   8.555
 6461POPC   C2B14372  33.627  29.820   8.255
 6461POPC   C3B14373  33.584  29.764   7.955
 6461POPC   C4B14374  33.624  29.828   7.655
 6462POPC   NC314375   6.691   2.813   9.455
 6462POPC   PO414376   6.641   2.735   9.155
 6462POPC   GL114377   6.623   2.728   8.855
 6462POPC   GL214378   6.801   2.751   8.855
 6462POPC   C1A14379   6.618   2.768   8.555
 6462POPC   D2A14380   6.609   2.738   8.255
 6462POPC   C3A14381   6.642   2.796   7.955
 6462POPC   C4A14382   6.639   2.743   7.655
 6462POPC   C1B14383   6.939   2.820   8.555
 6462POPC   C2B14384   6.856   2.794   8.255
 6462POPC   C3B14385   6.882   2.815   7.955
 6462POPC   C4B14386   6.892   2.743   7.655
 6463POPC   NC314387  44.692  31.423   9.455
 6463POPC   PO414388  44.613  31.487   9.155
 6463POPC   GL114389  44.626  31.460   8.855
 6463POPC   GL214390  44.738  31.542   8.855
 6463POPC   C1A14391  44.668  31.517   8.555
 6463POPC   D2A14392  44.704  31.466   8.255
 6463POPC   C3A14393  44.684  31.506   7.955
 6463POPC   C4A14394  44.703  31.496   7.655
 6463POPC   C1B14395  44.939  31.525   8.555
 6463POPC   C2B14396  44.922  31.569   8.255
 6463POPC   C3B14397  44.902  31.507   7.955
 6463POPC   C4B14398  44.882  31.535   7.655
 6464POPC   NC314399   5.058  15.223   9.455
 6464POPC   PO414400   5.045  15.140   9.155
 6464POPC   GL114401   5.100  15.217   8.855
 6464POPC   GL214402   5.101  15.305   8.855
 6464POPC   C1A14403   5.084  15.157   8.555
 6464POPC   D2A14404   5.068  15.146   8.255
 6464POPC   C3A14405   5.054  15.203   7.955
 6464POPC   C4A14406   5.092  15.187   7.655
 6464POPC   C1B14407   5.070  15.432   8.555
 6464POPC   C2B14408   5.082  15.453   8.255
 6464POPC   C3B14409   5.066  15.414   7.955
 6464POPC   C4B14410   5.070  15.396   7.655
 6465POPC   NC314411  36.876   6.679   9.455
 6465POPC   PO414412  36.923   6.657   9.155
 6465POPC   GL114413  36.941   6.599   8.855
 6465POPC   GL214414  36.821   6.628   8.855
 6465POPC   C1A14415  36.895   6.677   8.555
 6465POPC   D2A14416  36.902   6.613   8.255
 6465POPC   C3A14417  36.889   6.632   7.955
 6465POPC   C4A14418  36.945   6.680   7.655
 6465POPC   C1B14419  36.680   6.651   8.555
 6465POPC   C2B14420  36.665   6.727   8.255
 6465POPC   C3B14421  36.669   6.683   7.955
 6465POPC   C4B14422  36.639   6.704   7.655
 6466POPC   NC314423  42.377  33.022   9.455
 6466POPC   PO414424  42.308  32.988   9.155
 6466POPC   GL114425  42.379  33.052   8.855
 6466POPC   GL214426  42.394  32.943   8.855
 6466POPC   C1A14427  42.337  33.043   8.555
 6466POPC   D2A14428  42.307  33.065   8.255
 6466POPC   C3A14429  42.292  33.038   7.955
 6466POPC   C4A14430  42.362  33.057   7.655
 6466POPC   C1B14431  42.457  32.749   8.555
 6466POPC   C2B14432  42.378  32.809   8.255
 6466POPC   C3B14433  42.401  32.766   7.955
 6466POPC   C4B14434  42.406  32.754   7.655
 6467POPC   NC314435  11.284  29.959   9.455
 6467POPC   PO414436  11.279  29.913   9.155
 6467POPC   GL114437  11.308  29.902   8.855
 6467POPC   GL214438  11.337  30.048   8.855
 6467POPC   C1A14439  11.340  29.899   8.555
 6467POPC   D2A14440  11.258  29.899   8.255
 6467POPC   C3A14441  11.286  29.913   7.955
 6467POPC   C4A14442  11.312  29.915   7.655
 6467POPC   C1B14443  11.454  30.100   8.555
 6467POPC   C2B14444  11.446  30.090   8.255
 6467POPC   C3B14445  11.480  30.154   7.955
 6467POPC   C4B14446  11.430  30.161   7.655
 6468POPC   NC314447  27.573  11.286   9.455
 6468POPC   PO414448  27.581  11.290   9.155
 6468POPC   GL114449  27.643  11.267   8.855
 6468POPC   GL214450  27.536  11.237   8.855
 6468POPC   C1A14451  27.642  11.303   8.555
 6468POPC   D2A14452  27.617  11.334   8.255
 6468POPC   C3A14453  27.643  11.275   7.955
 6468POPC   C4A14454  27.581  11.257   7.655
 6468POPC   C1B14455  27.371  11.175   8.555
 6468POPC   C2B14456  27.431  11.159   8.255
 6468POPC   C3B14457  27.394  11.139   7.955
 6468POPC   C4B14458  27.375  11.200   7.655
 6469POPC   NC314459  42.338  30.742   9.455
 6469POPC   PO414460  42.306  30.673   9.155
 6469POPC   GL114461  42.373  30.728   8.855
 6469POPC   GL214462  42.397  30.592   8.855
 6469POPC   C1A14463  42.299  30.649   8.555
 6469POPC   D2A14464  42.301  30.663   8.255
 6469POPC   C3A14465  42.323  30.667   7.955
 6469POPC   C4A14466  42.306  30.715   7.655
 6469POPC   C1B14467  42.510  30.514   8.555
 6469POPC   C2B14468  42.518  30.517   8.255
 6469POPC   C3B14469  42.567  30.527   7.955
 6469POPC   C4B14470  42.559  30.525   7.655
 6470POPC   NC314471   5.075  12.815   9.455
 6470POPC   PO414472   5.081  12.816   9.155
 6470POPC   GL114473   5.060  12.864   8.855
 6470POPC   GL214474   5.098  12.997   8.855
 6470POPC   C1A14475   5.130  12.831   8.555
 6470POPC   D2A14476   5.114  12.805   8.255
 6470POPC   C3A14477   5.063  12.886   7.955
 6470POPC   C4A14478   5.105  12.832   7.655
 6470POPC   C1B14479   5.097  13.051   8.555
 6470POPC   C2B14480   5.110  13.070   8.255
 6470POPC   C3B14481   5.117  13.123   7.955
 6470POPC   C4B14482   5.072  13.130   7.655
 6471POPC   NC314483  32.246  11.260   9.455
 6471POPC   PO414484  32.223  11.315   9.155
 6471POPC   GL114485  32.242  11.285   8.855
 6471POPC   GL214486  32.361  11.319   8.855
 6471POPC   C1A14487  32.282  11.340   8.555
 6471POPC   D2A14488  32.247  11.250   8.255
 6471POPC   C3A14489  32.273  11.290   7.955
 6471POPC   C4A14490  32.255  11.259   7.655
 6471POPC   C1B14491  32.438  11.381   8.555
 6471POPC   C2B14492  32.465  11.425   8.255
 6471POPC   C3B14493  32.463  11.456   7.955
 6471POPC   C4B14494  32.423  11.442   7.655
 6472POPC   NC314495  19.060   8.147   9.455
 6472POPC   PO414496  19.014   8.156   9.155
 6472POPC   GL114497  19.103   8.203   8.855
 6472POPC   GL214498  18.972   8.132   8.855
 6472POPC   C1A14499  19.034   8.190   8.555
 6472POPC   D2A14500  19.100   8.225   8.255
 6472POPC   C3A14501  19.051   8.149   7.955
 6472POPC   C4A14502  19.076   8.174   7.655
 6472POPC   C1B14503  18.868   8.082   8.555
 6472POPC   C2B14504  18.835   8.084   8.255
 6472POPC   C3B14505  18.871   8.135   7.955
 6472POPC   C4B14506  18.858   8.056   7.655
 6473POPC   NC314507  15.974  37.728   9.455
 6473POPC   PO414508  15.906  37.702   9.155
 6473POPC   GL114509  15.961  37.709   8.855
 6473POPC   GL214510  16.040  37.765   8.855
 6473POPC   C1A14511  15.927  37.718   8.555
 6473POPC   D2A14512  15.944  37.658   8.255
 6473POPC   C3A14513  16.004  37.689   7.955
 6473POPC   C4A14514  15.909  37.711   7.655
 6473POPC   C1B14515  16.207  37.821   8.555
 6473POPC   C2B14516  16.170  37.758   8.255
 6473POPC   C3B14517  16.195  37.748   7.955
 6473POPC   C4B14518  16.178  37.783   7.655
 6474POPC   NC314519  17.509  38.417   9.455
 6474POPC   PO414520  17.547  38.500   9.155
 6474POPC   GL114521  17.547  38.465   8.855
 6474POPC   GL214522  17.615  38.383   8.855
 6474POPC   C1A14523  17.512  38.466   8.555
 6474POPC   D2A14524  17.516  38.448   8.255
 6474POPC   C3A14525  17.479  38.481   7.955
 6474POPC   C4A14526  17.552  38.451   7.655
 6474POPC   C1B14527  17.685  38.244   8.555
 6474POPC   C2B14528  17.687  38.253   8.255
 6474POPC   C3B14529  17.677  38.234   7.955
 6474POPC   C4B14530  17.676  38.248   7.655
 6475POPC   NC314531  31.474  29.185   9.455
 6475POPC   PO414532  31.500  29.149   9.155
 6475POPC   GL114533  31.495  29.161   8.855
 6475POPC   GL214534  31.464  29.281   8.855
 6475POPC   C1A14535  31.426  29.141   8.555
 6475POPC   D2A14536  31.440  29.169   8.255
 6475POPC   C3A14537  31.436  29.174   7.955
 6475POPC   C4A14538  31.466  29.098   7.655
 6475POPC   C1B14539  31.578  29.416   8.555
 6475POPC   C2B14540  31.550  29.425   8.255
 6475POPC   C3B14541  31.574  29.417   7.955
 6475POPC   C4B14542  31.534  29.367   7.655
 6476POPC   NC314543   7.429  30.714   9.455
 6476POPC   PO414544   7.468  30.675   9.155
 6476POPC   GL114545   7.381  30.745   8.855
 6476POPC   GL214546   7.559  30.629   8.855
 6476POPC   C1A14547   7.468  30.720   8.555
 6476POPC   D2A14548   7.389  30.701   8.255
 6476POPC   C3A14549   7.375  30.705   7.955
 6476POPC   C4A14550   7.386  30.739   7.655
 6476POPC   C1B14551   7.706  30.626   8.555
 6476POPC   C2B14552   7.693  30.666   8.255
 6476POPC   C3B14553   7.643  30.690   7.955
 6476POPC   C4B14554   7.642  30.619   7.655
 6477POPC   NC314555  41.552  39.990   9.455
 6477POPC   PO414556  41.599  40.014   9.155
 6477POPC   GL114557  41.550  40.020   8.855
 6477POPC   GL214558  41.601  39.940   8.855
 6477POPC   C1A14559  41.540  40.000   8.555
 6477POPC   D2A14560  41.587  40.020   8.255
 6477POPC   C3A14561  41.597  40.009   7.955
 6477POPC   C4A14562  41.603  40.039   7.655
 6477POPC   C1B14563  41.635  39.784   8.555
 6477POPC   C2B14564  41.638  39.751   8.255
 6477POPC   C3B14565  41.668  39.788   7.955
 6477POPC   C4B14566  41.649  39.775   7.655
 6478POPC   NC314567   7.405  12.070   9.455
 6478POPC   PO414568   7.462  12.092   9.155
 6478POPC   GL114569   7.453  12.052   8.855
 6478POPC   GL214570   7.424  11.949   8.855
 6478POPC   C1A14571   7.391  12.056   8.555
 6478POPC   D2A14572   7.383  12.096   8.255
 6478POPC   C3A14573   7.470  12.028   7.955
 6478POPC   C4A14574   7.428  12.119   7.655
 6478POPC   C1B14575   7.391  11.825   8.555
 6478POPC   C2B14576   7.458  11.823   8.255
 6478POPC   C3B14577   7.407  11.800   7.955
 6478POPC   C4B14578   7.411  11.834   7.655
 6479POPC   NC314579   3.565  18.307   9.455
 6479POPC   PO414580   3.591  18.274   9.155
 6479POPC   GL114581   3.520  18.297   8.855
 6479POPC   GL214582   3.599  18.176   8.855
 6479POPC   C1A14583   3.564  18.282   8.555
 6479POPC   D2A14584   3.565  18.310   8.255
 6479POPC   C3A14585   3.504  18.250   7.955
 6479POPC   C4A14586   3.568  18.292   7.655
 6479POPC   C1B14587   3.790  18.157   8.555
 6479POPC   C2B14588   3.743  18.158   8.255
 6479POPC   C3B14589   3.699  18.173   7.955
 6479POPC   C4B14590   3.709  18.187   7.655
 6480POPC   NC314591  33.803  14.397   9.455
 6480POPC   PO414592  33.830  14.430   9.155
 6480POPC   GL114593  33.838  14.431   8.855
 6480POPC   GL214594  33.900  14.481   8.855
 6480POPC   C1A14595  33.761  14.367   8.555
 6480POPC   D2A14596  33.778  14.429   8.255
 6480POPC   C3A14597  33.826  14.361   7.955
 6480POPC   C4A14598  33.810  14.367   7.655
 6480POPC   C1B14599  33.995  14.573   8.555
 6480POPC   C2B14600  33.967  14.554   8.255
 6480POPC   C3B14601  34.000  14.543   7.955
 6480POPC   C4B14602  33.995  14.510   7.655
 6481POPC   NC314603  28.411  10.542   9.455
 6481POPC   PO414604  28.356  10.510   9.155
 6481POPC   GL114605  28.388  10.571   8.855
 6481POPC   GL214606  28.254  10.495   8.855
 6481POPC   C1A14607  28.337  10.521   8.555
 6481POPC   D2A14608  28.344  10.552   8.255
 6481POPC   C3A14609  28.375  10.507   7.955
 6481POPC   C4A14610  28.405  10.565   7.655
 6481POPC   C1B14611  28.196  10.374   8.555
 6481POPC   C2B14612  28.158  10.365   8.255
 6481POPC   C3B14613  28.165  10.390   7.955
 6481POPC   C4B14614  28.209  10.326   7.655
 6482POPC   NC314615  44.648   9.713   9.455
 6482POPC   PO414616  44.684   9.776   9.155
 6482POPC   GL114617  44.641   9.739   8.855
 6482POPC   GL214618  44.659   9.917   8.855
 6482POPC   C1A14619  44.651   9.781   8.555
 6482POPC   D2A14620  44.693   9.708   8.255
 6482POPC   C3A14621  44.687   9.745   7.955
 6482POPC   C4A14622  44.642   9.704   7.655
 6482POPC   C1B14623  44.674  10.009   8.555
 6482POPC   C2B14624  44.582   9.953   8.255
 6482POPC   C3B14625  44.623   9.955   7.955
 6482POPC   C4B14626  44.650   9.989   7.655
 6483POPC   NC314627   3.588  41.581   9.455
 6483POPC   PO414628   3.530  41.580   9.155
 6483POPC   GL114629   3.551  41.594   8.855
 6483POPC   GL214630   3.415  41.623   8.855
 6483POPC   C1A14631   3.535  41.590   8.555
 6483POPC   D2A14632   3.500  41.541   8.255
 6483POPC   C3A14633   3.524  41.584   7.955
 6483POPC   C4A14634   3.589  41.574   7.655
 6483POPC   C1B14635   3.388  41.723   8.555
 6483POPC   C2B14636   3.368  41.738   8.255
 6483POPC   C3B14637   3.400  41.746   7.955
 6483POPC   C4B14638   3.333  41.790   7.655
 6484POPC   NC314639  13.592  41.587   9.455
 6484POPC   PO414640  13.652  41.602   9.155
 6484POPC   GL114641  13.602  41.585   8.855
 6484POPC   GL214642  13.632  41.402   8.855
 6484POPC   C1A14643  13.620  41.538   8.555
 6484POPC   D2A14644  13.587  41.543   8.255
 6484POPC   C3A14645  13.662  41.534   7.955
 6484POPC   C4A14646  13.627  41.600   7.655
 6484POPC   C1B14647  13.488  41.280   8.555
 6484POPC   C2B14648  13.501  41.304   8.255
 6484POPC   C3B14649  13.501  41.342   7.955
 6484POPC   C4B14650  13.555  41.316   7.655
 6485POPC   NC314651   5.085  26.087   9.455
 6485POPC   PO414652   5.081  26.060   9.155
 6485POPC   GL114653   5.052  26.002   8.855
 6485POPC   GL214654   5.175  26.114   8.855
 6485POPC   C1A14655   5.066  26.047   8.555
 6485POPC   D2A14656   5.141  26.065   8.255
 6485POPC   C3A14657   5.073  26.026   7.955
 6485POPC   C4A14658   5.138  26.019   7.655
 6485POPC   C1B14659   5.245  26.240   8.555
 6485POPC   C2B14660   5.255  26.224   8.255
 6485POPC   C3B14661   5.231  26.279   7.955
 6485POPC   C4B14662   5.266  26.275   7.655
 6486POPC   NC314663  36.110  15.229   9.455
 6486POPC   PO414664  36.100  15.171   9.155
 6486POPC   GL114665  36.118  15.194   8.855
 6486POPC   GL214666  36.081  15.260   8.855
 6486POPC   C1A14667  36.156  15.145   8.555
 6486POPC   D2A14668  36.174  15.193   8.255
 6486POPC   C3A14669  36.148  15.224   7.955
 6486POPC   C4A14670  36.173  15.163   7.655
 6486POPC   C1B14671  35.951  15.376   8.555
 6486POPC   C2B14672  35.955  15.379   8.255
 6486POPC   C3B14673  35.962  15.307   7.955
 6486POPC   C4B14674  35.944  15.337   7.655
 6487POPC   NC314675  29.170  22.937   9.455
 6487POPC   PO414676  29.109  22.965   9.155
 6487POPC   GL114677  29.157  22.959   8.855
 6487POPC   GL214678  29.235  22.925   8.855
 6487POPC   C1A14679  29.182  22.974   8.555
 6487POPC   D2A14680  29.134  22.952   8.255
 6487POPC   C3A14681  29.104  22.946   7.955
 6487POPC   C4A14682  29.183  22.967   7.655
 6487POPC   C1B14683  29.395  22.899   8.555
 6487POPC   C2B14684  29.399  22.884   8.255
 6487POPC   C3B14685  29.369  22.853   7.955
 6487POPC   C4B14686  29.365  22.880   7.655
 6488POPC   NC314687  29.113  12.847   9.455
 6488POPC   PO414688  29.171  12.891   9.155
 6488POPC   GL114689  29.134  12.887   8.855
 6488POPC   GL214690  28.995  12.842   8.855
 6488POPC   C1A14691  29.124  12.895   8.555
 6488POPC   D2A14692  29.191  12.825   8.255
 6488POPC   C3A14693  29.126  12.847   7.955
 6488POPC   C4A14694  29.132  12.802   7.655
 6488POPC   C1B14695  28.883  12.907   8.555
 6488POPC   C2B14696  28.901  12.839   8.255
 6488POPC   C3B14697  28.887  12.906   7.955
 6488POPC   C4B14698  28.919  12.902   7.655
 6489POPC   NC314699  17.511  24.454   9.455
 6489POPC   PO414700  17.472  24.454   9.155
 6489POPC   GL114701  17.502  24.524   8.855
 6489POPC   GL214702  17.385  24.421   8.855
 6489POPC   C1A14703  17.546  24.460   8.555
 6489POPC   D2A14704  17.508  24.479   8.255
 6489POPC   C3A14705  17.491  24.531   7.955
 6489POPC   C4A14706  17.496  24.529   7.655
 6489POPC   C1B14707  17.264  24.377   8.555
 6489POPC   C2B14708  17.323  24.423   8.255
 6489POPC   C3B14709  17.247  24.422   7.955
 6489POPC   C4B14710  17.238  24.376   7.655
 6490POPC   NC314711  34.581  29.887   9.455
 6490POPC   PO414712  34.548  29.894   9.155
 6490POPC   GL114713  34.560  29.901   8.855
 6490POPC   GL214714  34.589  30.001   8.855
 6490POPC   C1A14715  34.596  29.905   8.555
 6490POPC   D2A14716  34.595  29.895   8.255
 6490POPC   C3A14717  34.583  29.929   7.955
 6490POPC   C4A14718  34.615  29.923   7.655
 6490POPC   C1B14719  34.651  30.180   8.555
 6490POPC   C2B14720  34.654  30.196   8.255
 6490POPC   C3B14721  34.622  30.190   7.955
 6490POPC   C4B14722  34.619  30.194   7.655
 6491POPC   NC314723  15.931   5.856   9.455
 6491POPC   PO414724  15.943   5.877   9.155
 6491POPC   GL114725  15.912   5.915   8.855
 6491POPC   GL214726  16.075   5.750   8.855
 6491POPC   C1A14727  15.988   5.875   8.555
 6491POPC   D2A14728  15.995   5.902   8.255
 6491POPC   C3A14729  15.979   5.895   7.955
 6491POPC   C4A14730  15.911   5.852   7.655
 6491POPC   C1B14731  16.112   5.678   8.555
 6491POPC   C2B14732  16.072   5.679   8.255
 6491POPC   C3B14733  16.058   5.633   7.955
 6491POPC   C4B14734  16.088   5.626   7.655
 6492POPC   NC314735   5.108  18.330   9.455
 6492POPC   PO414736   5.080  18.240   9.155
 6492POPC   GL114737   5.048  18.314   8.855
 6492POPC   GL214738   5.048  18.216   8.855
 6492POPC   C1A14739   5.141  18.331   8.555
 6492POPC   D2A14740   5.105  18.283   8.255
 6492POPC   C3A14741   5.054  18.266   7.955
 6492POPC   C4A14742   5.075  18.303   7.655
 6492POPC   C1B14743   4.957  18.084   8.555
 6492POPC   C2B14744   4.962  18.108   8.255
 6492POPC   C3B14745   4.983  18.061   7.955
 6492POPC   C4B14746   4.992  18.020   7.655
 6493POPC   NC314747   5.823   1.228   9.455
 6493POPC   PO414748   5.889   1.186   9.155
 6493POPC   GL114749   5.836   1.194   8.855
 6493POPC   GL214750   5.795   1.106   8.855
 6493POPC   C1A14751   5.905   1.175   8.555
 6493POPC   D2A14752   5.829   1.225   8.255
 6493POPC   C3A14753   5.883   1.202   7.955
 6493POPC   C4A14754   5.884   1.170   7.655
 6493POPC   C1B14755   5.759   0.994   8.555
 6493POPC   C2B14756   5.763   0.975   8.255
 6493POPC   C3B14757   5.715   0.985   7.955
 6493POPC   C4B14758   5.762   1.002   7.655
 6494POPC   NC314759  38.480   4.346   9.455
 6494POPC   PO414760  38.422   4.276   9.155
 6494POPC   GL114761  38.465   4.268   8.855
 6494POPC   GL214762  38.342   4.375   8.855
 6494POPC   C1A14763  38.447   4.330   8.555
 6494POPC   D2A14764  38.418   4.319   8.255
 6494POPC   C3A14765  38.432   4.360   7.955
 6494POPC   C4A14766  38.445   4.306   7.655
 6494POPC   C1B14767  38.339   4.478   8.555
 6494POPC   C2B14768  38.272   4.488   8.255
 6494POPC   C3B14769  38.308   4.530   7.955
 6494POPC   C4B14770  38.303   4.506   7.655
 6495POPC   NC314771  19.829  23.709   9.455
 6495POPC   PO414772  19.796  23.710   9.155
 6495POPC   GL114773  19.853  23.678   8.855
 6495POPC   GL214774  19.725  23.635   8.855
 6495POPC   C1A14775  19.863  23.726   8.555
 6495POPC   D2A14776  19.810  23.755   8.255
 6495POPC   C3A14777  19.826  23.741   7.955
 6495POPC   C4A14778  19.790  23.695   7.655
 6495POPC   C1B14779  19.636  23.539   8.555
 6495POPC   C2B14780  19.589  23.543   8.255
 6495POPC   C3B14781  19.632  23.539   7.955
 6495POPC   C4B14782  19.628  23.612   7.655
 6496POPC   NC314783  26.020  32.235   9.455
 6496POPC   PO414784  26.026  32.242   9.155
 6496POPC   GL114785  26.052  32.280   8.855
 6496POPC   GL214786  26.210  32.220   8.855
 6496POPC   C1A14787  26.010  32.278   8.555
 6496POPC   D2A14788  26.065  32.273   8.255
 6496POPC   C3A14789  25.996  32.274   7.955
 6496POPC   C4A14790  26.068  32.292   7.655
 6496POPC   C1B14791  26.256  32.145   8.555
 6496POPC   C2B14792  26.301  32.224   8.255
 6496POPC   C3B14793  26.237  32.173   7.955
 6496POPC   C4B14794  26.299  32.156   7.655
 6497POPC   NC314795  30.654  12.806   9.455
 6497POPC   PO414796  30.692  12.881   9.155
 6497POPC   GL114797  30.652  12.836   8.855
 6497POPC   GL214798  30.578  12.978   8.855
 6497POPC   C1A14799  30.680  12.829   8.555
 6497POPC   D2A14800  30.707  12.897   8.255
 6497POPC   C3A14801  30.700  12.870   7.955
 6497POPC   C4A14802  30.647  12.826   7.655
 6497POPC   C1B14803  30.500  13.028   8.555
 6497POPC   C2B14804  30.520  13.019   8.255
 6497POPC   C3B14805  30.482  13.060   7.955
 6497POPC   C4B14806  30.474  12.978   7.655
 6498POPC   NC314807  11.279  18.313   9.455
 6498POPC   PO414808  11.276  18.324   9.155
 6498POPC   GL114809  11.282  18.308   8.855
 6498POPC   GL214810  11.229  18.248   8.855
 6498POPC   C1A14811  11.337  18.262   8.555
 6498POPC   D2A14812  11.322  18.261   8.255
 6498POPC   C3A14813  11.304  18.244   7.955
 6498POPC   C4A14814  11.312  18.326   7.655
 6498POPC   C1B14815  11.157  18.086   8.555
 6498POPC   C2B14816  11.098  18.162   8.255
 6498POPC   C3B14817  11.121  18.155   7.955
 6498POPC   C4B14818  11.119  18.148   7.655
 6499POPC   NC314819  30.716  34.582   9.455
 6499POPC   PO414820  30.744  34.613   9.155
 6499POPC   GL114821  30.714  34.610   8.855
 6499POPC   GL214822  30.616  34.680   8.855
 6499POPC   C1A14823  30.666  34.541   8.555
 6499POPC   D2A14824  30.652  34.584   8.255
 6499POPC   C3A14825  30.671  34.536   7.955
 6499POPC   C4A14826  30.654  34.613   7.655
 6499POPC   C1B14827  30.591  34.772   8.555
 6499POPC   C2B14828  30.563  34.750   8.255
 6499POPC   C3B14829  30.541  34.829   7.955
 6499POPC   C4B14830  30.607  34.766   7.655
 6500POPC   NC314831  23.742  44.651   9.455
 6500POPC   PO414832  23.679  44.644   9.155
 6500POPC   GL114833  23.762  44.675   8.855
 6500POPC   GL214834  23.594  44.733   8.855
 6500POPC   C1A14835  23.737  44.639   8.555
 6500POPC   D2A14836  23.756  44.674   8.255
 6500POPC   C3A14837  23.709  44.624   7.955
 6500POPC   C4A14838  23.692  44.708   7.655
 6500POPC   C1B14839  23.475  44.818   8.555
 6500POPC   C2B14840  23.487  44.825   8.255
 6500POPC   C3B14841  23.549  44.817   7.955
 6500POPC   C4B14842  23.530  44.818   7.655
 6501POPC   NC314843  31.489   7.404   9.455
 6501POPC   PO414844  31.435   7.449   9.155
 6501POPC   GL114845  31.436   7.386   8.855
 6501POPC   GL214846  31.478   7.520   8.855
 6501POPC   C1A14847  31.479   7.388   8.555
 6501POPC   D2A14848  31.423   7.428   8.255
 6501POPC   C3A14849  31.471   7.466   7.955
 6501POPC   C4A14850  31.485   7.445   7.655
 6501POPC   C1B14851  31.576   7.669   8.555
 6501POPC   C2B14852  31.545   7.604   8.255
 6501POPC   C3B14853  31.600   7.621   7.955
 6501POPC   C4B14854  31.577   7.686   7.655
 6502POPC   NC314855  21.398  41.561   9.455
 6502POPC   PO414856  21.342  41.586   9.155
 6502POPC   GL114857  21.341  41.517   8.855
 6502POPC   GL214858  21.518  41.631   8.855
 6502POPC   C1A14859  21.387  41.517   8.555
 6502POPC   D2A14860  21.426  41.598   8.255
 6502POPC   C3A14861  21.427  41.574   7.955
 6502POPC   C4A14862  21.342  41.569   7.655
 6502POPC   C1B14863  21.574  41.698   8.555
 6502POPC   C2B14864  21.571  41.711   8.255
 6502POPC   C3B14865  21.561  41.720   7.955
 6502POPC   C4B14866  21.602  41.730   7.655
 6503POPC   NC314867  35.349  39.218   9.455
 6503POPC   PO414868  35.370  39.219   9.155
 6503POPC   GL114869  35.340  39.256   8.855
 6503POPC   GL214870  35.226  39.253   8.855
 6503POPC   C1A14871  35.334  39.265   8.555
 6503POPC   D2A14872  35.396  39.219   8.255
 6503POPC   C3A14873  35.369  39.185   7.955
 6503POPC   C4A14874  35.401  39.248   7.655
 6503POPC   C1B14875  35.119  39.262   8.555
 6503POPC   C2B14876  35.080  39.231   8.255
 6503POPC   C3B14877  35.102  39.244   7.955
 6503POPC   C4B14878  35.078  39.268   7.655
 6504POPC   NC314879  15.167  25.228   9.455
 6504POPC   PO414880  15.211  25.217   9.155
 6504POPC   GL114881  15.193  25.289   8.855
 6504POPC   GL214882  15.145  25.174   8.855
 6504POPC   C1A14883  15.167  25.311   8.555
 6504POPC   D2A14884  15.164  25.221   8.255
 6504POPC   C3A14885  15.172  25.242   7.955
 6504POPC   C4A14886  15.159  25.217   7.655
 6504POPC   C1B14887  15.234  25.058   8.555
 6504POPC   C2B14888  15.156  25.026   8.255
 6504POPC   C3B14889  15.151  24.979   7.955
 6504POPC   C4B14890  15.197  25.045   7.655
 6505POPC   NC314891  37.705  43.886   9.455
 6505POPC   PO414892  37.723  43.918   9.155
 6505POPC   GL114893  37.715  43.856   8.855
 6505POPC   GL214894  37.687  43.730   8.855
 6505POPC   C1A14895  37.690  43.872   8.555
 6505POPC   D2A14896  37.659  43.904   8.255
 6505POPC   C3A14897  37.667  43.929   7.955
 6505POPC   C4A14898  37.662  43.880   7.655
 6505POPC   C1B14899  37.745  43.615   8.555
 6505POPC   C2B14900  37.693  43.653   8.255
 6505POPC   C3B14901  37.726  43.649   7.955
 6505POPC   C4B14902  37.719  43.656   7.655
 6506POPC   NC314903  14.439  29.174   9.455
 6506POPC   PO414904  14.363  29.116   9.155
 6506POPC   GL114905  14.393  29.116   8.855
 6506POPC   GL214906  14.523  29.021   8.855
 6506POPC   C1A14907  14.356  29.114   8.555
 6506POPC   D2A14908  14.389  29.151   8.255
 6506POPC   C3A14909  14.372  29.151   7.955
 6506POPC   C4A14910  14.355  29.102   7.655
 6506POPC   C1B14911  14.578  29.023   8.555
 6506POPC   C2B14912  14.587  28.957   8.255
 6506POPC   C3B14913  14.624  29.001   7.955
 6506POPC   C4B14914  14.628  29.010   7.655
 6507POPC   NC314915  30.681  12.123   9.455
 6507POPC   PO414916  30.701  12.035   9.155
 6507POPC   GL114917  30.673  12.096   8.855
 6507POPC   GL214918  30.538  12.068   8.855
 6507POPC   C1A14919  30.653  12.122   8.555
 6507POPC   D2A14920  30.738  12.040   8.255
 6507POPC   C3A14921  30.693  12.077   7.955
 6507POPC   C4A14922  30.691  12.051   7.655
 6507POPC   C1B14923  30.476  12.065   8.555
 6507POPC   C2B14924  30.495  12.026   8.255
 6507POPC   C3B14925  30.436  12.034   7.955
 6507POPC   C4B14926  30.440  12.065   7.655
 6508POPC   NC314927  36.869  36.867   9.455
 6508POPC   PO414928  36.902  36.893   9.155
 6508POPC   GL114929  36.933  36.920   8.855
 6508POPC   GL214930  36.741  36.958   8.855
 6508POPC   C1A14931  36.938  36.858   8.555
 6508POPC   D2A14932  36.892  36.914   8.255
 6508POPC   C3A14933  36.909  36.900   7.955
 6508POPC   C4A14934  36.854  36.865   7.655
 6508POPC   C1B14935  36.650  36.959   8.555
 6508POPC   C2B14936  36.701  37.048   8.255
 6508POPC   C3B14937  36.648  36.983   7.955
 6508POPC   C4B14938  36.697  36.989   7.655
 6509POPC   NC314939   2.011  36.148   9.455
 6509POPC   PO414940   2.022  36.172   9.155
 6509POPC   GL114941   1.988  36.098   8.855
 6509POPC   GL214942   2.096  36.237   8.855
 6509POPC   C1A14943   1.970  36.096   8.555
 6509POPC   D2A14944   2.018  36.083   8.255
 6509POPC   C3A14945   2.007  36.174   7.955
 6509POPC   C4A14946   1.971  36.096   7.655
 6509POPC   C1B14947   2.229  36.287   8.555
 6509POPC   C2B14948   2.224  36.274   8.255
 6509POPC   C3B14949   2.170  36.262   7.955
 6509POPC   C4B14950   2.240  36.219   7.655
 6510POPC   NC314951  22.964   9.700   9.455
 6510POPC   PO414952  22.927   9.700   9.155
 6510POPC   GL114953  22.928   9.713   8.855
 6510POPC   GL214954  22.889   9.639   8.855
 6510POPC   C1A14955  22.967   9.778   8.555
 6510POPC   D2A14956  22.898   9.706   8.255
 6510POPC   C3A14957  22.952   9.784   7.955
 6510POPC   C4A14958  22.934   9.794   7.655
 6510POPC   C1B14959  22.727   9.549   8.555
 6510POPC   C2B14960  22.732   9.574   8.255
 6510POPC   C3B14961  22.740   9.570   7.955
 6510POPC   C4B14962  22.740   9.562   7.655
 6511POPC   NC314963   5.857  32.985   9.455
 6511POPC   PO414964   5.869  32.979   9.155
 6511POPC   GL114965   5.894  33.054   8.855
 6511POPC   GL214966   5.872  33.122   8.855
 6511POPC   C1A14967   5.837  33.023   8.555
 6511POPC   D2A14968   5.830  33.002   8.255
 6511POPC   C3A14969   5.904  33.010   7.955
 6511POPC   C4A14970   5.847  33.058   7.655
 6511POPC   C1B14971   5.914  33.236   8.555
 6511POPC   C2B14972   5.904  33.256   8.255
 6511POPC   C3B14973   5.983  33.235   7.955
 6511POPC   C4B14974   5.911  33.275   7.655
 6512POPC   NC314975  40.789  27.547   9.455
 6512POPC   PO414976  40.762  27.588   9.155
 6512POPC   GL114977  40.767  27.590   8.855
 6512POPC   GL214978  40.730  27.542   8.855
 6512POPC   C1A14979  40.772  27.607   8.555
 6512POPC   D2A14980  40.770  27.562   8.255
 6512POPC   C3A14981  40.735  27.639   7.955
 6512POPC   C4A14982  40.814  27.622   7.655
 6512POPC   C1B14983  40.672  27.352   8.555
 6512POPC   C2B14984  40.596  27.416   8.255
 6512POPC   C3B14985  40.579  27.403   7.955
 6512POPC   C4B14986  40.672  27.366   7.655
 6513POPC   NC314987  13.650  21.432   9.455
 6513POPC   PO414988  13.596  21.372   9.155
 6513POPC   GL114989  13.656  21.397   8.855
 6513POPC   GL214990  13.635  21.501   8.855
 6513POPC   C1A14991  13.646  21.345   8.555
 6513POPC   D2A14992  13.638  21.346   8.255
 6513POPC   C3A14993  13.583  21.428   7.955
 6513POPC   C4A14994  13.608  21.397   7.655
 6513POPC   C1B14995  13.656  21.634   8.555
 6513POPC   C2B14996  13.664  21.587   8.255
 6513POPC   C3B14997  13.671  21.647   7.955
 6513POPC   C4B14998  13.699  21.679   7.655
 6514POPC   NC314999  17.546  37.665   9.455
 6514POPC   PO415000  17.482  37.707   9.155
 6514POPC   GL115001  17.471  37.714   8.855
 6514POPC   GL215002  17.502  37.807   8.855
 6514POPC   C1A15003  17.513  37.683   8.555
 6514POPC   D2A15004  17.490  37.729   8.255
 6514POPC   C3A15005  17.470  37.646   7.955
 6514POPC   C4A15006  17.543  37.704   7.655
 6514POPC   C1B15007  17.544  37.900   8.555
 6514POPC   C2B15008  17.509  37.893   8.255
 6514POPC   C3B15009  17.512  37.944   7.955
 6514POPC   C4B15010  17.489  37.901   7.655
 6515POPC   NC315011   2.784  39.198   9.455
 6515POPC   PO415012   2.737  39.202   9.155
 6515POPC   GL115013   2.719  39.189   8.855
 6515POPC   GL215014   2.746  39.150   8.855
 6515POPC   C1A15015   2.748  39.262   8.555
 6515POPC   D2A15016   2.736  39.207   8.255
 6515POPC   C3A15017   2.781  39.246   7.955
 6515POPC   C4A15018   2.783  39.268   7.655
 6515POPC   C1B15019   2.825  38.945   8.555
 6515POPC   C2B15020   2.805  39.010   8.255
 6515POPC   C3B15021   2.843  38.949   7.955
 6515POPC   C4B15022   2.798  38.987   7.655
 6516POPC   NC315023  26.857  41.605   9.455
 6516POPC   PO415024  26.799  41.597   9.155
 6516POPC   GL115025  26.831  41.607   8.855
 6516POPC   GL215026  26.888  41.504   8.855
 6516POPC   C1A15027  26.812  41.527   8.555
 6516POPC   D2A15028  26.858  41.518   8.255
 6516POPC   C3A15029  26.795  41.581   7.955
 6516POPC   C4A15030  26.825  41.526   7.655
 6516POPC   C1B15031  27.058  41.487   8.555
 6516POPC   C2B15032  27.095  41.500   8.255
 6516POPC   C3B15033  27.092  41.497   7.955
 6516POPC   C4B15034  27.036  41.451   7.655
 6517POPC   NC315035  43.070  42.345   9.455
 6517POPC   PO415036  43.152  42.367   9.155
 6517POPC   GL115037  43.158  42.300   8.855
 6517POPC   GL215038  43.118  42.229   8.855
 6517POPC   C1A15039  43.117  42.331   8.555
 6517POPC   D2A15040  43.062  42.330   8.255
 6517POPC   C3A15041  43.143  42.316   7.955
 6517POPC   C4A15042  43.154  42.320   7.655
 6517POPC   C1B15043  43.027  42.128   8.555
 6517POPC   C2B15044  43.024  42.106   8.255
 6517POPC   C3B15045  43.013  42.058   7.955
 6517POPC   C4B15046  43.019  42.112   7.655
 6518POPC   NC315047  35.383  36.924   9.455
 6518POPC   PO415048  35.390  36.921   9.155
 6518POPC   GL115049  35.308  36.922   8.855
 6518POPC   GL215050  35.313  36.754   8.855
 6518POPC   C1A15051  35.338  36.945   8.555
 6518POPC   D2A15052  35.327  36.872   8.255
 6518POPC   C3A15053  35.361  36.946   7.955
 6518POPC   C4A15054  35.381  36.918   7.655
 6518POPC   C1B15055  35.305  36.668   8.555
 6518POPC   C2B15056  35.340  36.625   8.255
 6518POPC   C3B15057  35.331  36.672   7.955
 6518POPC   C4B15058  35.367  36.607   7.655
 6519POPC   NC315059  42.349  43.844   9.455
 6519POPC   PO415060  42.355  43.884   9.155
 6519POPC   GL115061  42.297  43.895   8.855
 6519POPC   GL215062  42.248  43.905   8.855
 6519POPC   C1A15063  42.376  43.887   8.555
 6519POPC   D2A15064  42.378  43.934   8.255
 6519POPC   C3A15065  42.337  43.906   7.955
 6519POPC   C4A15066  42.369  43.896   7.655
 6519POPC   C1B15067  42.040  43.888   8.555
 6519POPC   C2B15068  42.089  43.902   8.255
 6519POPC   C3B15069  42.065  43.882   7.955
 6519POPC   C4B15070  42.135  43.810   7.655
 6520POPC   NC315071  20.626  13.660   9.455
 6520POPC   PO415072  20.575  13.585   9.155
 6520POPC   GL115073  20.654  13.667   8.855
 6520POPC   GL215074  20.521  13.623   8.855
 6520POPC   C1A15075  20.655  13.670   8.555
 6520POPC   D2A15076  20.657  13.601   8.255
 6520POPC   C3A15077  20.625  13.644   7.955
 6520POPC   C4A15078  20.617  13.652   7.655
 6520POPC   C1B15079  20.368  13.687   8.555
 6520POPC   C2B15080  20.396  13.682   8.255
 6520POPC   C3B15081  20.314  13.631   7.955
 6520POPC   C4B15082  20.382  13.622   7.655
 6521POPC   NC315083  20.594  42.336   9.455
 6521POPC   PO415084  20.631  42.316   9.155
 6521POPC   GL115085  20.579  42.317   8.855
 6521POPC   GL215086  20.718  42.445   8.855
 6521POPC   C1A15087  20.622  42.289   8.555
 6521POPC   D2A15088  20.618  42.376   8.255
 6521POPC   C3A15089  20.612  42.352   7.955
 6521POPC   C4A15090  20.606  42.380   7.655
 6521POPC   C1B15091  20.796  42.471   8.555
 6521POPC   C2B15092  20.793  42.470   8.255
 6521POPC   C3B15093  20.744  42.564   7.955
 6521POPC   C4B15094  20.779  42.504   7.655
 6522POPC   NC315095   6.608   1.167   9.455
 6522POPC   PO415096   6.668   1.174   9.155
 6522POPC   GL115097   6.655   1.167   8.855
 6522POPC   GL215098   6.500   1.177   8.855
 6522POPC   C1A15099   6.622   1.216   8.555
 6522POPC   D2A15100   6.692   1.185   8.255
 6522POPC   C3A15101   6.642   1.181   7.955
 6522POPC   C4A15102   6.656   1.170   7.655
 6522POPC   C1B15103   6.432   1.071   8.555
 6522POPC   C2B15104   6.420   1.035   8.255
 6522POPC   C3B15105   6.477   1.112   7.955
 6522POPC   C4B15106   6.425   1.081   7.655
 6523POPC   NC315107  24.465  43.840   9.455
 6523POPC   PO415108  24.505  43.921   9.155
 6523POPC   GL115109  24.467  43.858   8.855
 6523POPC   GL215110  24.437  44.054   8.855
 6523POPC   C1A15111  24.497  43.932   8.555
 6523POPC   D2A15112  24.496  43.844   8.255
 6523POPC   C3A15113  24.537  43.848   7.955
 6523POPC   C4A15114  24.524  43.907   7.655
 6523POPC   C1B15115  24.475  44.084   8.555
 6523POPC   C2B15116  24.458  44.130   8.255
 6523POPC   C3B15117  24.450  44.148   7.955
 6523POPC   C4B15118  24.380  44.140   7.655
 6524POPC   NC315119   8.195  32.247   9.455
 6524POPC   PO415120   8.186  32.212   9.155
 6524POPC   GL115121   8.227  32.215   8.855
 6524POPC   GL215122   8.274  32.182   8.855
 6524POPC   C1A15123   8.187  32.247   8.555
 6524POPC   D2A15124   8.204  32.221   8.255
 6524POPC   C3A15125   8.240  32.217   7.955
 6524POPC   C4A15126   8.191  32.279   7.655
 6524POPC   C1B15127   8.311  32.039   8.555
 6524POPC   C2B15128   8.294  32.063   8.255
 6524POPC   C3B15129   8.279  32.036   7.955
 6524POPC   C4B15130   8.319  32.026   7.655
 6525POPC   NC315131  18.269  41.585   9.455
 6525POPC   PO415132  18.267  41.560   9.155
 6525POPC   GL115133  18.322  41.569   8.855
 6525POPC   GL215134  18.335  41.449   8.855
 6525POPC   C1A15135  18.273  41.538   8.555
 6525POPC   D2A15136  18.325  41.564   8.255
 6525POPC   C3A15137  18.275  41.585   7.955
 6525POPC   C4A15138  18.236  41.569   7.655
 6525POPC   C1B15139  18.259  41.274   8.555
 6525POPC   C2B15140  18.264  41.354   8.255
 6525POPC   C3B15141  18.336  41.352   7.955
 6525POPC   C4B15142  18.343  41.301   7.655
 6526POPC   NC315143  41.551  43.062   9.455
 6526POPC   PO415144  41.519  43.098   9.155
 6526POPC   GL115145  41.594  43.121   8.855
 6526POPC   GL215146  41.441  43.051   8.855
 6526POPC   C1A15147  41.563  43.119   8.555
 6526POPC   D2A15148  41.557  43.120   8.255
 6526POPC   C3A15149  41.529  43.141   7.955
 6526POPC   C4A15150  41.580  43.102   7.655
 6526POPC   C1B15151  41.354  43.040   8.555
 6526POPC   C2B15152  41.360  43.041   8.255
 6526POPC   C3B15153  41.361  42.996   7.955
 6526POPC   C4B15154  41.366  43.051   7.655
 6527POPC   NC315155  22.190  31.497   9.455
 6527POPC   PO415156  22.131  31.473   9.155
 6527POPC   GL115157  22.164  31.490   8.855
 6527POPC   GL215158  22.092  31.530   8.855
 6527POPC   C1A15159  22.176  31.517   8.555
 6527POPC   D2A15160  22.199  31.471   8.255
 6527POPC   C3A15161  22.204  31.485   7.955
 6527POPC   C4A15162  22.116  31.508   7.655
 6527POPC   C1B15163  22.015  31.720   8.555
 6527POPC   C2B15164  22.048  31.643   8.255
 6527POPC   C3B15165  22.055  31.680   7.955
 6527POPC   C4B15166  22.016  31.722   7.655
 6528POPC   NC315167  26.055  40.802   9.455
 6528POPC   PO415168  26.059  40.829   9.155
 6528POPC   GL115169  26.079  40.742   8.855
 6528POPC   GL215170  25.922  40.667   8.855
 6528POPC   C1A15171  26.012  40.809   8.555
 6528POPC   D2A15172  26.048  40.762   8.255
 6528POPC   C3A15173  26.069  40.809   7.955
 6528POPC   C4A15174  26.024  40.756   7.655
 6528POPC   C1B15175  25.863  40.626   8.555
 6528POPC   C2B15176  25.849  40.571   8.255
 6528POPC   C3B15177  25.822  40.638   7.955
 6528POPC   C4B15178  25.820  40.561   7.655
 6529POPC   NC315179  33.757  34.550   9.455
 6529POPC   PO415180  33.770  34.586   9.155
 6529POPC   GL115181  33.814  34.558   8.855
 6529POPC   GL215182  33.689  34.672   8.855
 6529POPC   C1A15183  33.823  34.564   8.555
 6529POPC   D2A15184  33.816  34.600   8.255
 6529POPC   C3A15185  33.765  34.606   7.955
 6529POPC   C4A15186  33.778  34.618   7.655
 6529POPC   C1B15187  33.677  34.778   8.555
 6529POPC   C2B15188  33.608  34.785   8.255
 6529POPC   C3B15189  33.648  34.765   7.955
 6529POPC   C4B15190  33.661  34.733   7.655
 6530POPC   NC315191  33.795  37.674   9.455
 6530POPC   PO415192  33.765  37.647   9.155
 6530POPC   GL115193  33.820  37.651   8.855
 6530POPC   GL215194  33.948  37.660   8.855
 6530POPC   C1A15195  33.805  37.634   8.555
 6530POPC   D2A15196  33.810  37.714   8.255
 6530POPC   C3A15197  33.766  37.634   7.955
 6530POPC   C4A15198  33.848  37.695   7.655
 6530POPC   C1B15199  34.065  37.612   8.555
 6530POPC   C2B15200  34.000  37.618   8.255
 6530POPC   C3B15201  34.074  37.620   7.955
 6530POPC   C4B15202  34.012  37.609   7.655
 6531POPC   NC315203  40.764  38.414   9.455
 6531POPC   PO415204  40.830  38.421   9.155
 6531POPC   GL115205  40.797  38.480   8.855
 6531POPC   GL215206  40.625  38.426   8.855
 6531POPC   C1A15207  40.820  38.494   8.555
 6531POPC   D2A15208  40.767  38.501   8.255
 6531POPC   C3A15209  40.797  38.451   7.955
 6531POPC   C4A15210  40.739  38.422   7.655
 6531POPC   C1B15211  40.551  38.365   8.555
 6531POPC   C2B15212  40.513  38.443   8.255
 6531POPC   C3B15213  40.586  38.373   7.955
 6531POPC   C4B15214  40.541  38.375   7.655
 6532POPC   NC315215   8.229   8.193   9.455
 6532POPC   PO415216   8.197   8.158   9.155
 6532POPC   GL115217   8.180   8.227   8.855
 6532POPC   GL215218   8.038   8.192   8.855
 6532POPC   C1A15219   8.219   8.162   8.555
 6532POPC   D2A15220   8.199   8.188   8.255
 6532POPC   C3A15221   8.232   8.180   7.955
 6532POPC   C4A15222   8.178   8.183   7.655
 6532POPC   C1B15223   7.941   8.230   8.555
 6532POPC   C2B15224   7.953   8.162   8.255
 6532POPC   C3B15225   7.939   8.209   7.955
 6532POPC   C4B15226   7.956   8.161   7.655
 6533POPC   NC315227  12.030   1.218   9.455
 6533POPC   PO415228  12.027   1.249   9.155
 6533POPC   GL115229  12.101   1.245   8.855
 6533POPC   GL215230  12.136   1.364   8.855
 6533POPC   C1A15231  12.038   1.228   8.555
 6533POPC   D2A15232  12.076   1.251   8.255
 6533POPC   C3A15233  12.124   1.251   7.955
 6533POPC   C4A15234  12.101   1.240   7.655
 6533POPC   C1B15235  12.160   1.489   8.555
 6533POPC   C2B15236  12.078   1.434   8.255
 6533POPC   C3B15237  12.166   1.438   7.955
 6533POPC   C4B15238  12.137   1.414   7.655
 6534POPC   NC315239   1.184   6.653   9.455
 6534POPC   PO415240   1.167   6.651   9.155
 6534POPC   GL115241   1.215   6.620   8.855
 6534POPC   GL215242   1.095   6.634   8.855
 6534POPC   C1A15243   1.208   6.604   8.555
 6534POPC   D2A15244   1.221   6.597   8.255
 6534POPC   C3A15245   1.182   6.626   7.955
 6534POPC   C4A15246   1.247   6.638   7.655
 6534POPC   C1B15247   1.042   6.554   8.555
 6534POPC   C2B15248   1.008   6.506   8.255
 6534POPC   C3B15249   0.950   6.484   7.955
 6534POPC   C4B15250   0.958   6.567   7.655
 6535POPC   NC315251  24.471  33.037   9.455
 6535POPC   PO415252  24.514  33.021   9.155
 6535POPC   GL115253  24.464  33.074   8.855
 6535POPC   GL215254  24.343  33.022   8.855
 6535POPC   C1A15255  24.456  32.990   8.555
 6535POPC   D2A15256  24.529  33.011   8.255
 6535POPC   C3A15257  24.474  33.059   7.955
 6535POPC   C4A15258  24.522  33.048   7.655
 6535POPC   C1B15259  24.259  32.952   8.555
 6535POPC   C2B15260  24.273  32.952   8.255
 6535POPC   C3B15261  24.228  32.937   7.955
 6535POPC   C4B15262  24.230  32.951   7.655
 6536POPC   NC315263  15.224  33.815   9.455
 6536POPC   PO415264  15.147  33.819   9.155
 6536POPC   GL115265  15.200  33.751   8.855
 6536POPC   GL215266  15.096  33.746   8.855
 6536POPC   C1A15267  15.204  33.766   8.555
 6536POPC   D2A15268  15.184  33.811   8.255
 6536POPC   C3A15269  15.176  33.757   7.955
 6536POPC   C4A15270  15.185  33.827   7.655
 6536POPC   C1B15271  14.993  33.718   8.555
 6536POPC   C2B15272  14.971  33.640   8.255
 6536POPC   C3B15273  14.931  33.677   7.955
 6536POPC   C4B15274  14.980  33.670   7.655
 6537POPC   NC315275  36.854  20.601   9.455
 6537POPC   PO415276  36.947  20.648   9.155
 6537POPC   GL115277  36.951  20.642   8.855
 6537POPC   GL215278  36.935  20.684   8.855
 6537POPC   C1A15279  36.914  20.580   8.555
 6537POPC   D2A15280  36.900  20.641   8.255
 6537POPC   C3A15281  36.884  20.561   7.955
 6537POPC   C4A15282  36.911  20.612   7.655
 6537POPC   C1B15283  36.944  20.817   8.555
 6537POPC   C2B15284  36.962  20.819   8.255
 6537POPC   C3B15285  36.927  20.895   7.955
 6537POPC   C4B15286  36.944  20.847   7.655
 6538POPC   NC315287  41.512   2.769   9.455
 6538POPC   PO415288  41.533   2.729   9.155
 6538POPC   GL115289  41.583   2.785   8.855
 6538POPC   GL215290  41.581   2.846   8.855
 6538POPC   C1A15291  41.549   2.732   8.555
 6538POPC   D2A15292  41.579   2.778   8.255
 6538POPC   C3A15293  41.595   2.800   7.955
 6538POPC   C4A15294  41.574   2.760   7.655
 6538POPC   C1B15295  41.624   2.966   8.555
 6538POPC   C2B15296  41.617   3.010   8.255
 6538POPC   C3B15297  41.579   2.971   7.955
 6538POPC   C4B15298  41.563   3.033   7.655
 6539POPC   NC315299   8.956  38.465   9.455
 6539POPC   PO415300   8.983  38.410   9.155
 6539POPC   GL115301   8.997  38.454   8.855
 6539POPC   GL215302   8.875  38.515   8.855
 6539POPC   C1A15303   8.964  38.492   8.555
 6539POPC   D2A15304   8.948  38.462   8.255
 6539POPC   C3A15305   8.981  38.476   7.955
 6539POPC   C4A15306   9.018  38.447   7.655
 6539POPC   C1B15307   8.802  38.615   8.555
 6539POPC   C2B15308   8.769  38.660   8.255
 6539POPC   C3B15309   8.751  38.608   7.955
 6539POPC   C4B15310   8.810  38.633   7.655
 6540POPC   NC315311   8.998  31.506   9.455
 6540POPC   PO415312   9.022  31.431   9.155
 6540POPC   GL115313   8.994  31.521   8.855
 6540POPC   GL215314   9.051  31.373   8.855
 6540POPC   C1A15315   8.936  31.435   8.555
 6540POPC   D2A15316   9.011  31.498   8.255
 6540POPC   C3A15317   8.980  31.453   7.955
 6540POPC   C4A15318   8.986  31.433   7.655
 6540POPC   C1B15319   9.116  31.234   8.555
 6540POPC   C2B15320   9.037  31.258   8.255
 6540POPC   C3B15321   9.058  31.232   7.955
 6540POPC   C4B15322   9.087  31.236   7.655
 6541POPC   NC315323  10.553  38.498   9.455
 6541POPC   PO415324  10.494  38.472   9.155
 6541POPC   GL115325  10.569  38.428   8.855
 6541POPC   GL215326  10.583  38.612   8.855
 6541POPC   C1A15327  10.563  38.482   8.555
 6541POPC   D2A15328  10.535  38.416   8.255
 6541POPC   C3A15329  10.533  38.427   7.955
 6541POPC   C4A15330  10.538  38.422   7.655
 6541POPC   C1B15331  10.579  38.651   8.555
 6541POPC   C2B15332  10.612  38.719   8.255
 6541POPC   C3B15333  10.591  38.726   7.955
 6541POPC   C4B15334  10.625  38.737   7.655
 6542POPC   NC315335  33.067  10.481   9.455
 6542POPC   PO415336  32.979  10.566   9.155
 6542POPC   GL115337  33.053  10.537   8.855
 6542POPC   GL215338  33.079  10.358   8.855
 6542POPC   C1A15339  33.041  10.489   8.555
 6542POPC   D2A15340  33.019  10.504   8.255
 6542POPC   C3A15341  32.993  10.563   7.955
 6542POPC   C4A15342  32.977  10.499   7.655
 6542POPC   C1B15343  33.038  10.282   8.555
 6542POPC   C2B15344  33.037  10.298   8.255
 6542POPC   C3B15345  33.084  10.246   7.955
 6542POPC   C4B15346  33.097  10.258   7.655
 6543POPC   NC315347   0.427   6.692   9.455
 6543POPC   PO415348   0.440   6.669   9.155
 6543POPC   GL115349   0.391   6.604   8.855
 6543POPC   GL215350   0.510   6.645   8.855
 6543POPC   C1A15351   0.480   6.596   8.555
 6543POPC   D2A15352   0.431   6.654   8.255
 6543POPC   C3A15353   0.415   6.655   7.955
 6543POPC   C4A15354   0.469   6.684   7.655
 6543POPC   C1B15355   0.694   6.738   8.555
 6543POPC   C2B15356   0.705   6.726   8.255
 6543POPC   C3B15357   0.638   6.676   7.955
 6543POPC   C4B15358   0.702   6.715   7.655
 6544POPC   NC315359  17.531   1.192   9.455
 6544POPC   PO415360  17.468   1.184   9.155
 6544POPC   GL115361  17.485   1.209   8.855
 6544POPC   GL215362  17.639   1.312   8.855
 6544POPC   C1A15363  17.471   1.181   8.555
 6544POPC   D2A15364  17.504   1.169   8.255
 6544POPC   C3A15365  17.477   1.242   7.955
 6544POPC   C4A15366  17.517   1.199   7.655
 6544POPC   C1B15367  17.724   1.410   8.555
 6544POPC   C2B15368  17.658   1.364   8.255
 6544POPC   C3B15369  17.664   1.402   7.955
 6544POPC   C4B15370  17.718   1.424   7.655
 6545POPC   NC315371  15.944   9.017   9.455
 6545POPC   PO415372  15.928   8.997   9.155
 6545POPC   GL115373  15.947   8.956   8.855
 6545POPC   GL215374  16.021   9.119   8.855
 6545POPC   C1A15375  15.932   9.011   8.555
 6545POPC   D2A15376  15.945   8.938   8.255
 6545POPC   C3A15377  15.924   8.984   7.955
 6545POPC   C4A15378  15.916   8.946   7.655
 6545POPC   C1B15379  15.965   9.177   8.555
 6545POPC   C2B15380  16.044   9.243   8.255
 6545POPC   C3B15381  16.029   9.250   7.955
 6545POPC   C4B15382  15.977   9.227   7.655
 6546POPC   NC315383   2.729  20.629   9.455
 6546POPC   PO415384   2.742  20.652   9.155
 6546POPC   GL115385   2.805  20.568   8.855
 6546POPC   GL215386   2.882  20.550   8.855
 6546POPC   C1A15387   2.777  20.563   8.555
 6546POPC   D2A15388   2.802  20.579   8.255
 6546POPC   C3A15389   2.725  20.590   7.955
 6546POPC   C4A15390   2.734  20.585   7.655
 6546POPC   C1B15391   2.915  20.413   8.555
 6546POPC   C2B15392   2.942  20.449   8.255
 6546POPC   C3B15393   2.902  20.414   7.955
 6546POPC   C4B15394   2.953  20.484   7.655
 6547POPC   NC315395  25.271  33.034   9.455
 6547POPC   PO415396  25.229  33.055   9.155
 6547POPC   GL115397  25.305  32.985   8.855
 6547POPC   GL215398  25.280  32.861   8.855
 6547POPC   C1A15399  25.245  32.987   8.555
 6547POPC   D2A15400  25.291  33.038   8.255
 6547POPC   C3A15401  25.251  32.996   7.955
 6547POPC   C4A15402  25.305  33.071   7.655
 6547POPC   C1B15403  25.231  32.791   8.555
 6547POPC   C2B15404  25.206  32.772   8.255
 6547POPC   C3B15405  25.221  32.726   7.955
 6547POPC   C4B15406  25.211  32.803   7.655
 6548POPC   NC315407  33.021  12.867   9.455
 6548POPC   PO415408  33.026  12.810   9.155
 6548POPC   GL115409  32.983  12.817   8.855
 6548POPC   GL215410  32.923  12.917   8.855
 6548POPC   C1A15411  33.021  12.831   8.555
 6548POPC   D2A15412  33.058  12.858   8.255
 6548POPC   C3A15413  33.045  12.856   7.955
 6548POPC   C4A15414  33.020  12.890   7.655
 6548POPC   C1B15415  32.780  12.846   8.555
 6548POPC   C2B15416  32.779  12.906   8.255
 6548POPC   C3B15417  32.808  12.860   7.955
 6548POPC   C4B15418  32.751  12.858   7.655
 6549POPC   NC315419  33.816  18.265   9.455
 6549POPC   PO415420  33.752  18.280   9.155
 6549POPC   GL115421  33.800  18.254   8.855
 6549POPC   GL215422  33.881  18.366   8.855
 6549POPC   C1A15423  33.771  18.318   8.555
 6549POPC   D2A15424  33.834  18.285   8.255
 6549POPC   C3A15425  33.772  18.254   7.955
 6549POPC   C4A15426  33.807  18.322   7.655
 6549POPC   C1B15427  33.960  18.469   8.555
 6549POPC   C2B15428  33.916  18.507   8.255
 6549POPC   C3B15429  33.955  18.490   7.955
 6549POPC   C4B15430  33.883  18.476   7.655
 6550POPC   NC315431  24.515   0.475   9.455
 6550POPC   PO415432  24.473   0.462   9.155
 6550POPC   GL115433  24.482   0.435   8.855
 6550POPC   GL215434  24.656   0.476   8.855
 6550POPC   C1A15435  24.460   0.444   8.555
 6550POPC   D2A15436  24.511   0.459   8.255
 6550POPC   C3A15437  24.471   0.427   7.955
 6550POPC   C4A15438  24.477   0.405   7.655
 6550POPC   C1B15439  24.735   0.500   8.555
 6550POPC   C2B15440  24.728   0.509   8.255
 6550POPC   C3B15441  24.679   0.523   7.955
 6550POPC   C4B15442  24.713   0.514   7.655
 6551POPC   NC315443  39.996   7.401   9.455
 6551POPC   PO415444  40.010   7.400   9.155
 6551POPC   GL115445  40.050   7.447   8.855
 6551POPC   GL215446  39.898   7.358   8.855
 6551POPC   C1A15447  39.962   7.392   8.555
 6551POPC   D2A15448  40.030   7.469   8.255
 6551POPC   C3A15449  39.978   7.426   7.955
 6551POPC   C4A15450  39.984   7.469   7.655
 6551POPC   C1B15451  39.858   7.215   8.555
 6551POPC   C2B15452  39.894   7.223   8.255
 6551POPC   C3B15453  39.839   7.199   7.955
 6551POPC   C4B15454  39.843   7.217   7.655
 6552POPC   NC315455   3.571  39.190   9.455
 6552POPC   PO415456   3.575  39.246   9.155
 6552POPC   GL115457   3.580  39.269   8.855
 6552POPC   GL215458   3.566  39.148   8.855
 6552POPC   C1A15459   3.502  39.201   8.555
 6552POPC   D2A15460   3.590  39.228   8.255
 6552POPC   C3A15461   3.522  39.279   7.955
 6552POPC   C4A15462   3.521  39.194   7.655
 6552POPC   C1B15463   3.633  39.016   8.555
 6552POPC   C2B15464   3.664  39.051   8.255
 6552POPC   C3B15465   3.645  39.012   7.955
 6552POPC   C4B15466   3.673  38.966   7.655
 6553POPC   NC315467  28.348  21.403   9.455
 6553POPC   PO415468  28.335  21.412   9.155
 6553POPC   GL115469  28.389  21.381   8.855
 6553POPC   GL215470  28.445  21.416   8.855
 6553POPC   C1A15471  28.410  21.434   8.555
 6553POPC   D2A15472  28.322  21.415   8.255
 6553POPC   C3A15473  28.370  21.357   7.955
 6553POPC   C4A15474  28.387  21.430   7.655
 6553POPC   C1B15475  28.546  21.557   8.555
 6553POPC   C2B15476  28.602  21.513   8.255
 6553POPC   C3B15477  28.540  21.491   7.955
 6553POPC   C4B15478  28.576  21.491   7.655
 6554POPC   NC315479  27.544  15.934   9.455
 6554POPC   PO415480  27.577  16.004   9.155
 6554POPC   GL115481  27.568  15.999   8.855
 6554POPC   GL215482  27.435  15.948   8.855
 6554POPC   C1A15483  27.606  15.934   8.555
 6554POPC   D2A15484  27.622  15.990   8.255
 6554POPC   C3A15485  27.593  15.919   7.955
 6554POPC   C4A15486  27.591  15.988   7.655
 6554POPC   C1B15487  27.361  15.960   8.555
 6554POPC   C2B15488  27.340  15.936   8.255
 6554POPC   C3B15489  27.355  16.024   7.955
 6554POPC   C4B15490  27.320  15.988   7.655
 6555POPC   NC315491  35.382  40.832   9.455
 6555POPC   PO415492  35.354  40.761   9.155
 6555POPC   GL115493  35.370  40.764   8.855
 6555POPC   GL215494  35.311  40.901   8.855
 6555POPC   C1A15495  35.362  40.827   8.555
 6555POPC   D2A15496  35.371  40.828   8.255
 6555POPC   C3A15497  35.390  40.776   7.955
 6555POPC   C4A15498  35.332  40.745   7.655
 6555POPC   C1B15499  35.355  41.023   8.555
 6555POPC   C2B15500  35.364  41.068   8.255
 6555POPC   C3B15501  35.315  41.073   7.955
 6555POPC   C4B15502  35.309  41.041   7.655
 6556POPC   NC315503  12.036  19.799   9.455
 6556POPC   PO415504  12.068  19.851   9.155
 6556POPC   GL115505  12.117  19.864   8.855
 6556POPC   GL215506  12.001  19.922   8.855
 6556POPC   C1A15507  12.103  19.793   8.555
 6556POPC   D2A15508  12.099  19.882   8.255
 6556POPC   C3A15509  12.066  19.853   7.955
 6556POPC   C4A15510  12.054  19.812   7.655
 6556POPC   C1B15511  11.993  20.068   8.555
 6556POPC   C2B15512  11.951  20.104   8.255
 6556POPC   C3B15513  11.988  20.052   7.955
 6556POPC   C4B15514  12.023  20.075   7.655
 6557POPC   NC315515  37.713  14.387   9.455
 6557POPC   PO415516  37.638  14.405   9.155
 6557POPC   GL115517  37.726  14.382   8.855
 6557POPC   GL215518  37.765  14.394   8.855
 6557POPC   C1A15519  37.630  14.443   8.555
 6557POPC   D2A15520  37.724  14.376   8.255
 6557POPC   C3A15521  37.725  14.402   7.955
 6557POPC   C4A15522  37.662  14.354   7.655
 6557POPC   C1B15523  37.874  14.270   8.555
 6557POPC   C2B15524  37.886  14.308   8.255
 6557POPC   C3B15525  37.935  14.284   7.955
 6557POPC   C4B15526  37.917  14.296   7.655
 6558POPC   NC315527  36.930  26.016   9.455
 6558POPC   PO415528  36.907  26.066   9.155
 6558POPC   GL115529  36.928  25.996   8.855
 6558POPC   GL215530  36.802  26.097   8.855
 6558POPC   C1A15531  36.875  26.026   8.555
 6558POPC   D2A15532  36.890  26.077   8.255
 6558POPC   C3A15533  36.856  26.029   7.955
 6558POPC   C4A15534  36.886  26.023   7.655
 6558POPC   C1B15535  36.618  26.018   8.555
 6558POPC   C2B15536  36.702  26.092   8.255
 6558POPC   C3B15537  36.696  26.080   7.955
 6558POPC   C4B15538  36.699  26.097   7.655
 6559POPC   NC315539  44.618  30.662   9.455
 6559POPC   PO415540  44.698  30.672   9.155
 6559POPC   GL115541  44.697  30.715   8.855
 6559POPC   GL215542  44.791  30.633   8.855
 6559POPC   C1A15543  44.634  30.662   8.555
 6559POPC   D2A15544  44.635  30.659   8.255
 6559POPC   C3A15545  44.695  30.703   7.955
 6559POPC   C4A15546  44.662  30.708   7.655
 6559POPC   C1B15547  44.871  30.500   8.555
 6559POPC   C2B15548  44.837  30.547   8.255
 6559POPC   C3B15549  44.851  30.561   7.955
 6559POPC   C4B15550  44.903  30.497   7.655
 6560POPC   NC315551  38.500   5.130   9.455
 6560POPC   PO415552  38.461   5.104   9.155
 6560POPC   GL115553  38.500   5.077   8.855
 6560POPC   GL215554  38.555   5.088   8.855
 6560POPC   C1A15555  38.491   5.074   8.555
 6560POPC   D2A15556  38.415   5.112   8.255
 6560POPC   C3A15557  38.427   5.141   7.955
 6560POPC   C4A15558  38.448   5.088   7.655
 6560POPC   C1B15559  38.697   5.148   8.555
 6560POPC   C2B15560  38.691   5.135   8.255
 6560POPC   C3B15561  38.740   5.157   7.955
 6560POPC   C4B15562  38.701   5.128   7.655
 6561POPC   NC315563  10.536  16.713   9.455
 6561POPC   PO415564  10.524  16.717   9.155
 6561POPC   GL115565  10.512  16.774   8.855
 6561POPC   GL215566  10.455  16.768   8.855
 6561POPC   C1A15567  10.488  16.692   8.555
 6561POPC   D2A15568  10.485  16.744   8.255
 6561POPC   C3A15569  10.515  16.762   7.955
 6561POPC   C4A15570  10.479  16.762   7.655
 6561POPC   C1B15571  10.259  16.849   8.555
 6561POPC   C2B15572  10.305  16.811   8.255
 6561POPC   C3B15573  10.321  16.825   7.955
 6561POPC   C4B15574  10.258  16.857   7.655
 6562POPC   NC315575   1.968  29.885   9.455
 6562POPC   PO415576   2.040  29.879   9.155
 6562POPC   GL115577   1.946  29.885   8.855
 6562POPC   GL215578   2.031  29.837   8.855
 6562POPC   C1A15579   1.948  29.969   8.555
 6562POPC   D2A15580   2.028  29.936   8.255
 6562POPC   C3A15581   1.999  29.951   7.955
 6562POPC   C4A15582   1.981  29.921   7.655
 6562POPC   C1B15583   2.010  29.632   8.555
 6562POPC   C2B15584   1.994  29.702   8.255
 6562POPC   C3B15585   1.982  29.703   7.955
 6562POPC   C4B15586   1.998  29.709   7.655
 6563POPC   NC315587  39.969   9.021   9.455
 6563POPC   PO415588  40.052   9.009   9.155
 6563POPC   GL115589  39.988   8.976   8.855
 6563POPC   GL215590  40.106   8.894   8.855
 6563POPC   C1A15591  40.015   8.943   8.555
 6563POPC   D2A15592  40.030   8.972   8.255
 6563POPC   C3A15593  40.054   9.021   7.955
 6563POPC   C4A15594  40.046   8.999   7.655
 6563POPC   C1B15595  40.182   8.841   8.555
 6563POPC   C2B15596  40.182   8.844   8.255
 6563POPC   C3B15597  40.232   8.825   7.955
 6563POPC   C4B15598  40.228   8.823   7.655
 6564POPC   NC315599  22.210  44.618   9.455
 6564POPC   PO415600  22.142  44.698   9.155
 6564POPC   GL115601  22.148  44.689   8.855
 6564POPC   GL215602  22.115  44.819   8.855
 6564POPC   C1A15603  22.144  44.692   8.555
 6564POPC   D2A15604  22.198  44.696   8.255
 6564POPC   C3A15605  22.128  44.617   7.955
 6564POPC   C4A15606  22.149  44.703   7.655
 6564POPC   C1B15607  22.006  44.927   8.555
 6564POPC   C2B15608  22.091  44.921   8.255
 6564POPC   C3B15609  22.059  44.912   7.955
 6564POPC   C4B15610  22.041  44.898   7.655
 6565POPC   NC315611  20.578   1.167   9.455
 6565POPC   PO415612  20.612   1.211   9.155
 6565POPC   GL115613  20.628   1.210   8.855
 6565POPC   GL215614  20.442   1.188   8.855
 6565POPC   C1A15615  20.577   1.209   8.555
 6565POPC   D2A15616  20.646   1.248   8.255
 6565POPC   C3A15617  20.655   1.259   7.955
 6565POPC   C4A15618  20.633   1.202   7.655
 6565POPC   C1B15619  20.348   1.105   8.555
 6565POPC   C2B15620  20.343   1.104   8.255
 6565POPC   C3B15621  20.383   1.131   7.955
 6565POPC   C4B15622  20.351   1.183   7.655
 6566POPC   NC315623  25.295  29.873   9.455
 6566POPC   PO415624  25.235  29.873   9.155
 6566POPC   GL115625  25.260  29.961   8.855
 6566POPC   GL215626  25.233  30.055   8.855
 6566POPC   C1A15627  25.257  29.963   8.555
 6566POPC   D2A15628  25.220  29.922   8.255
 6566POPC   C3A15629  25.254  29.873   7.955
 6566POPC   C4A15630  25.314  29.910   7.655
 6566POPC   C1B15631  25.199  30.190   8.555
 6566POPC   C2B15632  25.190  30.126   8.255
 6566POPC   C3B15633  25.186  30.192   7.955
 6566POPC   C4B15634  25.178  30.136   7.655
 6567POPC   NC315635   2.740   5.050   9.455
 6567POPC   PO415636   2.786   5.127   9.155
 6567POPC   GL115637   2.740   5.064   8.855
 6567POPC   GL215638   2.748   5.218   8.855
 6567POPC   C1A15639   2.776   5.138   8.555
 6567POPC   D2A15640   2.773   5.081   8.255
 6567POPC   C3A15641   2.779   5.077   7.955
 6567POPC   C4A15642   2.785   5.098   7.655
 6567POPC   C1B15643   2.644   5.309   8.555
 6567POPC   C2B15644   2.685   5.337   8.255
 6567POPC   C3B15645   2.667   5.323   7.955
 6567POPC   C4B15646   2.599   5.321   7.655
 6568POPC   NC315647  26.020  40.056   9.455
 6568POPC   PO415648  26.073  40.024   9.155
 6568POPC   GL115649  26.005  39.971   8.855
 6568POPC   GL215650  26.147  40.101   8.855
 6568POPC   C1A15651  25.997  40.007   8.555
 6568POPC   D2A15652  26.055  40.041   8.255
 6568POPC   C3A15653  26.049  39.959   7.955
 6568POPC   C4A15654  26.004  39.967   7.655
 6568POPC   C1B15655  26.271  40.112   8.555
 6568POPC   C2B15656  26.191  40.208   8.255
 6568POPC   C3B15657  26.265  40.152   7.955
 6568POPC   C4B15658  26.275  40.111   7.655
 6569POPC   NC315659  33.807  22.197   9.455
 6569POPC   PO415660  33.849  22.137   9.155
 6569POPC   GL115661  33.775  22.121   8.855
 6569POPC   GL215662  33.686  22.046   8.855
 6569POPC   C1A15663  33.831  22.172   8.555
 6569POPC   D2A15664  33.792  22.203   8.255
 6569POPC   C3A15665  33.827  22.191   7.955
 6569POPC   C4A15666  33.819  22.147   7.655
 6569POPC   C1B15667  33.641  21.991   8.555
 6569POPC   C2B15668  33.628  22.028   8.255
 6569POPC   C3B15669  33.581  22.035   7.955
 6569POPC   C4B15670  33.575  21.986   7.655
 6570POPC   NC315671  17.546   5.901   9.455
 6570POPC   PO415672  17.537   5.850   9.155
 6570POPC   GL115673  17.537   5.853   8.855
 6570POPC   GL215674  17.480   5.738   8.855
 6570POPC   C1A15675  17.476   5.916   8.555
 6570POPC   D2A15676  17.459   5.862   8.255
 6570POPC   C3A15677  17.538   5.889   7.955
 6570POPC   C4A15678  17.500   5.888   7.655
 6570POPC   C1B15679  17.553   5.600   8.555
 6570POPC   C2B15680  17.531   5.620   8.255
 6570POPC   C3B15681  17.504   5.588   7.955
 6570POPC   C4B15682  17.516   5.621   7.655
 6571POPC   NC315683  33.778  38.425   9.455
 6571POPC   PO415684  33.791  38.478   9.155
 6571POPC   GL115685  33.753  38.433   8.855
 6571POPC   GL215686  33.797  38.373   8.855
 6571POPC   C1A15687  33.790  38.495   8.555
 6571POPC   D2A15688  33.811  38.410   8.255
 6571POPC   C3A15689  33.820  38.421   7.955
 6571POPC   C4A15690  33.844  38.456   7.655
 6571POPC   C1B15691  33.721  38.225   8.555
 6571POPC   C2B15692  33.691  38.207   8.255
 6571POPC   C3B15693  33.656  38.255   7.955
 6571POPC   C4B15694  33.650  38.258   7.655
 6572POPC   NC315695  29.135  44.632   9.455
 6572POPC   PO415696  29.106  44.625   9.155
 6572POPC   GL115697  29.141  44.705   8.855
 6572POPC   GL215698  29.296  44.645   8.855
 6572POPC   C1A15699  29.191  44.703   8.555
 6572POPC   D2A15700  29.157  44.635   8.255
 6572POPC   C3A15701  29.129  44.628   7.955
 6572POPC   C4A15702  29.130  44.698   7.655
 6572POPC   C1B15703  29.398  44.659   8.555
 6572POPC   C2B15704  29.422  44.698   8.255
 6572POPC   C3B15705  29.390  44.654   7.955
 6572POPC   C4B15706  29.427  44.657   7.655
 6573POPC   NC315707  10.502  12.895   9.455
 6573POPC   PO415708  10.503  12.862   9.155
 6573POPC   GL115709  10.547  12.828   8.855
 6573POPC   GL215710  10.579  12.686   8.855
 6573POPC   C1A15711  10.511  12.845   8.555
 6573POPC   D2A15712  10.571  12.892   8.255
 6573POPC   C3A15713  10.557  12.896   7.955
 6573POPC   C4A15714  10.479  12.816   7.655
 6573POPC   C1B15715  10.641  12.586   8.555
 6573POPC   C2B15716  10.595  12.574   8.255
 6573POPC   C3B15717  10.567  12.585   7.955
 6573POPC   C4B15718  10.607  12.592   7.655
 6574POPC   NC315719  33.788  33.811   9.455
 6574POPC   PO415720  33.817  33.768   9.155
 6574POPC   GL115721  33.780  33.808   8.855
 6574POPC   GL215722  33.762  33.889   8.855
 6574POPC   C1A15723  33.809  33.805   8.555
 6574POPC   D2A15724  33.778  33.807   8.255
 6574POPC   C3A15725  33.839  33.850   7.955
 6574POPC   C4A15726  33.755  33.827   7.655
 6574POPC   C1B15727  33.689  34.014   8.555
 6574POPC   C2B15728  33.631  33.994   8.255
 6574POPC   C3B15729  33.635  34.024   7.955
 6574POPC   C4B15730  33.638  33.949   7.655
 6575POPC   NC315731  10.557  19.814   9.455
 6575POPC   PO415732  10.513  19.849   9.155
 6575POPC   GL115733  10.517  19.805   8.855
 6575POPC   GL215734  10.398  19.805   8.855
 6575POPC   C1A15735  10.518  19.787   8.555
 6575POPC   D2A15736  10.556  19.825   8.255
 6575POPC   C3A15737  10.560  19.881   7.955
 6575POPC   C4A15738  10.567  19.812   7.655
 6575POPC   C1B15739  10.266  19.778   8.555
 6575POPC   C2B15740  10.277  19.788   8.255
 6575POPC   C3B15741  10.309  19.800   7.955
 6575POPC   C4B15742  10.310  19.854   7.655
 6576POPC   NC315743  29.108  18.244   9.455
 6576POPC   PO415744  29.097  18.299   9.155
 6576POPC   GL115745  29.131  18.312   8.855
 6576POPC   GL215746  29.216  18.452   8.855
 6576POPC   C1A15747  29.191  18.264   8.555
 6576POPC   D2A15748  29.193  18.273   8.255
 6576POPC   C3A15749  29.098  18.316   7.955
 6576POPC   C4A15750  29.149  18.245   7.655
 6576POPC   C1B15751  29.173  18.519   8.555
 6576POPC   C2B15752  29.189  18.511   8.255
 6576POPC   C3B15753  29.186  18.494   7.955
 6576POPC   C4B15754  29.186  18.483   7.655
 6577POPC   NC315755   4.321  38.413   9.455
 6577POPC   PO415756   4.306  38.444   9.155
 6577POPC   GL115757   4.315  38.499   8.855
 6577POPC   GL215758   4.395  38.522   8.855
 6577POPC   C1A15759   4.280  38.407   8.555
 6577POPC   D2A15760   4.305  38.430   8.255
 6577POPC   C3A15761   4.297  38.443   7.955
 6577POPC   C4A15762   4.347  38.473   7.655
 6577POPC   C1B15763   4.508  38.569   8.555
 6577POPC   C2B15764   4.571  38.529   8.255
 6577POPC   C3B15765   4.500  38.580   7.955
 6577POPC   C4B15766   4.572  38.615   7.655
 6578POPC   NC315767  22.914  27.560   9.455
 6578POPC   PO415768  22.905  27.544   9.155
 6578POPC   GL115769  22.934  27.642   8.855
 6578POPC   GL215770  22.815  27.677   8.855
 6578POPC   C1A15771  22.947  27.555   8.555
 6578POPC   D2A15772  22.916  27.575   8.255
 6578POPC   C3A15773  22.982  27.551   7.955
 6578POPC   C4A15774  22.932  27.610   7.655
 6578POPC   C1B15775  22.749  27.693   8.555
 6578POPC   C2B15776  22.681  27.701   8.255
 6578POPC   C3B15777  22.697  27.748   7.955
 6578POPC   C4B15778  22.715  27.680   7.655
 6579POPC   NC315779  19.106  12.879   9.455
 6579POPC   PO415780  19.032  12.885   9.155
 6579POPC   GL115781  19.025  12.877   8.855
 6579POPC   GL215782  18.999  12.795   8.855
 6579POPC   C1A15783  19.050  12.845   8.555
 6579POPC   D2A15784  19.059  12.849   8.255
 6579POPC   C3A15785  19.043  12.853   7.955
 6579POPC   C4A15786  19.091  12.829   7.655
 6579POPC   C1B15787  18.886  12.712   8.555
 6579POPC   C2B15788  18.911  12.686   8.255
 6579POPC   C3B15789  18.865  12.717   7.955
 6579POPC   C4B15790  18.831  12.679   7.655
 6580POPC   NC315791   4.299  35.386   9.455
 6580POPC   PO415792   4.321  35.369   9.155
 6580POPC   GL115793   4.356  35.398   8.855
 6580POPC   GL215794   4.349  35.465   8.855
 6580POPC   C1A15795   4.324  35.361   8.555
 6580POPC   D2A15796   4.362  35.394   8.255
 6580POPC   C3A15797   4.324  35.397   7.955
 6580POPC   C4A15798   4.272  35.401   7.655
 6580POPC   C1B15799   4.422  35.593   8.555
 6580POPC   C2B15800   4.386  35.589   8.255
 6580POPC   C3B15801   4.380  35.545   7.955
 6580POPC   C4B15802   4.379  35.562   7.655
 6581POPC   NC315803  37.679  21.410   9.455
 6581POPC   PO415804  37.719  21.345   9.155
 6581POPC   GL115805  37.693  21.341   8.855
 6581POPC   GL215806  37.595  21.458   8.855
 6581POPC   C1A15807  37.715  21.371   8.555
 6581POPC   D2A15808  37.685  21.338   8.255
 6581POPC   C3A15809  37.713  21.383   7.955
 6581POPC   C4A15810  37.681  21.379   7.655
 6581POPC   C1B15811  37.484  21.460   8.555
 6581POPC   C2B15812  37.411  21.474   8.255
 6581POPC   C3B15813  37.441  21.424   7.955
 6581POPC   C4B15814  37.406  21.510   7.655
 6582POPC   NC315815  23.707  14.452   9.455
 6582POPC   PO415816  23.674  14.439   9.155
 6582POPC   GL115817  23.704  14.419   8.855
 6582POPC   GL215818  23.847  14.382   8.855
 6582POPC   C1A15819  23.665  14.427   8.555
 6582POPC   D2A15820  23.672  14.435   8.255
 6582POPC   C3A15821  23.746  14.371   7.955
 6582POPC   C4A15822  23.758  14.389   7.655
 6582POPC   C1B15823  24.010  14.429   8.555
 6582POPC   C2B15824  24.006  14.365   8.255
 6582POPC   C3B15825  23.923  14.410   7.955
 6582POPC   C4B15826  23.966  14.385   7.655
 6583POPC   NC315827  15.143  26.070   9.455
 6583POPC   PO415828  15.141  26.001   9.155
 6583POPC   GL115829  15.158  26.023   8.855
 6583POPC   GL215830  15.081  25.936   8.855
 6583POPC   C1A15831  15.202  26.062   8.555
 6583POPC   D2A15832  15.150  26.008   8.255
 6583POPC   C3A15833  15.188  26.077   7.955
 6583POPC   C4A15834  15.164  26.035   7.655
 6583POPC   C1B15835  15.006  25.896   8.555
 6583POPC   C2B15836  14.953  25.906   8.255
 6583POPC   C3B15837  15.007  25.903   7.955
 6583POPC   C4B15838  14.973  25.910   7.655
 6584POPC   NC315839  18.298  24.522   9.455
 6584POPC   PO415840  18.294  24.471   9.155
 6584POPC   GL115841  18.263  24.535   8.855
 6584POPC   GL215842  18.137  24.457   8.855
 6584POPC   C1A15843  18.307  24.468   8.555
 6584POPC   D2A15844  18.256  24.520   8.255
 6584POPC   C3A15845  18.308  24.488   7.955
 6584POPC   C4A15846  18.284  24.463   7.655
 6584POPC   C1B15847  18.002  24.459   8.555
 6584POPC   C2B15848  18.066  24.380   8.255
 6584POPC   C3B15849  18.088  24.415   7.955
 6584POPC   C4B15850  18.040  24.398   7.655
 6585POPC   NC315851  42.369  29.949   9.455
 6585POPC   PO415852  42.373  29.904   9.155
 6585POPC   GL115853  42.311  29.963   8.855
 6585POPC   GL215854  42.268  29.972   8.855
 6585POPC   C1A15855  42.381  29.940   8.555
 6585POPC   D2A15856  42.310  29.925   8.255
 6585POPC   C3A15857  42.344  29.874   7.955
 6585POPC   C4A15858  42.287  29.926   7.655
 6585POPC   C1B15859  42.146  30.028   8.555
 6585POPC   C2B15860  42.153  30.032   8.255
 6585POPC   C3B15861  42.071  30.063   7.955
 6585POPC   C4B15862  42.067  30.020   7.655
 6586POPC   NC315863  27.552  39.267   9.455
 6586POPC   PO415864  27.639  39.185   9.155
 6586POPC   GL115865  27.562  39.208   8.855
 6586POPC   GL215866  27.610  39.371   8.855
 6586POPC   C1A15867  27.563  39.278   8.555
 6586POPC   D2A15868  27.549  39.252   8.255
 6586POPC   C3A15869  27.626  39.279   7.955
 6586POPC   C4A15870  27.575  39.242   7.655
 6586POPC   C1B15871  27.548  39.499   8.555
 6586POPC   C2B15872  27.551  39.481   8.255
 6586POPC   C3B15873  27.635  39.473   7.955
 6586POPC   C4B15874  27.593  39.473   7.655
 6587POPC   NC315875   5.052   9.787   9.455
 6587POPC   PO415876   5.047   9.715   9.155
 6587POPC   GL115877   5.054   9.749   8.855
 6587POPC   GL215878   5.036   9.641   8.855
 6587POPC   C1A15879   5.111   9.703   8.555
 6587POPC   D2A15880   5.083   9.713   8.255
 6587POPC   C3A15881   5.090   9.735   7.955
 6587POPC   C4A15882   5.054   9.789   7.655
 6587POPC   C1B15883   4.914   9.510   8.555
 6587POPC   C2B15884   4.885   9.547   8.255
 6587POPC   C3B15885   4.892   9.531   7.955
 6587POPC   C4B15886   4.916   9.569   7.655
 6588POPC   NC315887  19.823  39.980   9.455
 6588POPC   PO415888  19.868  39.968   9.155
 6588POPC   GL115889  19.832  40.019   8.855
 6588POPC   GL215890  19.800  39.927   8.855
 6588POPC   C1A15891  19.786  40.003   8.555
 6588POPC   D2A15892  19.785  40.039   8.255
 6588POPC   C3A15893  19.882  39.983   7.955
 6588POPC   C4A15894  19.850  40.048   7.655
 6588POPC   C1B15895  19.880  39.759   8.555
 6588POPC   C2B15896  19.827  39.733   8.255
 6588POPC   C3B15897  19.887  39.789   7.955
 6588POPC   C4B15898  19.834  39.749   7.655
 6589POPC   NC315899   5.913  27.609   9.455
 6589POPC   PO415900   5.886  27.573   9.155
 6589POPC   GL115901   5.843  27.632   8.855
 6589POPC   GL215902   5.971  27.673   8.855
 6589POPC   C1A15903   5.877  27.547   8.555
 6589POPC   D2A15904   5.870  27.589   8.255
 6589POPC   C3A15905   5.865  27.602   7.955
 6589POPC   C4A15906   5.861  27.623   7.655
 6589POPC   C1B15907   6.119  27.691   8.555
 6589POPC   C2B15908   6.119  27.736   8.255
 6589POPC   C3B15909   6.123  27.731   7.955
 6589POPC   C4B15910   6.050  27.716   7.655
 6590POPC   NC315911  35.312  43.095   9.455
 6590POPC   PO415912  35.395  43.103   9.155
 6590POPC   GL115913  35.331  43.156   8.855
 6590POPC   GL215914  35.201  43.068   8.855
 6590POPC   C1A15915  35.340  43.132   8.555
 6590POPC   D2A15916  35.314  43.146   8.255
 6590POPC   C3A15917  35.373  43.139   7.955
 6590POPC   C4A15918  35.393  43.065   7.655
 6590POPC   C1B15919  35.130  43.127   8.555
 6590POPC   C2B15920  35.133  43.113   8.255
 6590POPC   C3B15921  35.087  43.094   7.955
 6590POPC   C4B15922  35.128  43.142   7.655
 6591POPC   NC315923   8.975  21.362   9.455
 6591POPC   PO415924   8.925  21.410   9.155
 6591POPC   GL115925   8.941  21.359   8.855
 6591POPC   GL215926   9.060  21.362   8.855
 6591POPC   C1A15927   8.992  21.353   8.555
 6591POPC   D2A15928   9.007  21.410   8.255
 6591POPC   C3A15929   8.926  21.434   7.955
 6591POPC   C4A15930   8.957  21.409   7.655
 6591POPC   C1B15931   9.137  21.262   8.555
 6591POPC   C2B15932   9.208  21.235   8.255
 6591POPC   C3B15933   9.154  21.201   7.955
 6591POPC   C4B15934   9.174  21.209   7.655
 6592POPC   NC315935  40.797  35.305   9.455
 6592POPC   PO415936  40.746  35.349   9.155
 6592POPC   GL115937  40.778  35.359   8.855
 6592POPC   GL215938  40.908  35.462   8.855
 6592POPC   C1A15939  40.808  35.385   8.555
 6592POPC   D2A15940  40.778  35.307   8.255
 6592POPC   C3A15941  40.741  35.322   7.955
 6592POPC   C4A15942  40.798  35.340   7.655
 6592POPC   C1B15943  40.964  35.479   8.555
 6592POPC   C2B15944  40.992  35.473   8.255
 6592POPC   C3B15945  40.970  35.519   7.955
 6592POPC   C4B15946  41.023  35.470   7.655
 6593POPC   NC315947   5.901   8.218   9.455
 6593POPC   PO415948   5.909   8.162   9.155
 6593POPC   GL115949   5.831   8.178   8.855
 6593POPC   GL215950   5.728   8.100   8.855
 6593POPC   C1A15951   5.841   8.240   8.555
 6593POPC   D2A15952   5.907   8.158   8.255
 6593POPC   C3A15953   5.819   8.165   7.955
 6593POPC   C4A15954   5.846   8.209   7.655
 6593POPC   C1B15955   5.685   8.083   8.555
 6593POPC   C2B15956   5.637   8.060   8.255
 6593POPC   C3B15957   5.611   8.100   7.955
 6593POPC   C4B15958   5.634   8.039   7.655
 6594POPC   NC315959   4.317  16.707   9.455
 6594POPC   PO415960   4.345  16.717   9.155
 6594POPC   GL115961   4.324  16.766   8.855
 6594POPC   GL215962   4.207  16.798   8.855
 6594POPC   C1A15963   4.346  16.716   8.555
 6594POPC   D2A15964   4.282  16.779   8.255
 6594POPC   C3A15965   4.294  16.718   7.955
 6594POPC   C4A15966   4.314  16.774   7.655
 6594POPC   C1B15967   4.197  16.935   8.555
 6594POPC   C2B15968   4.186  16.930   8.255
 6594POPC   C3B15969   4.130  16.966   7.955
 6594POPC   C4B15970   4.114  16.897   7.655
 6595POPC   NC315971   6.664  43.064   9.455
 6595POPC   PO415972   6.651  43.078   9.155
 6595POPC   GL115973   6.675  43.142   8.855
 6595POPC   GL215974   6.534  43.017   8.855
 6595POPC   C1A15975   6.654  43.086   8.555
 6595POPC   D2A15976   6.693  43.118   8.255
 6595POPC   C3A15977   6.694  43.085   7.955
 6595POPC   C4A15978   6.681  43.121   7.655
 6595POPC   C1B15979   6.434  42.934   8.555
 6595POPC   C2B15980   6.509  42.935   8.255
 6595POPC   C3B15981   6.483  42.877   7.955
 6595POPC   C4B15982   6.473  42.911   7.655
 6596POPC   NC315983   8.201  15.972   9.455
 6596POPC   PO415984   8.240  15.914   9.155
 6596POPC   GL115985   8.175  15.939   8.855
 6596POPC   GL215986   8.082  16.073   8.855
 6596POPC   C1A15987   8.231  15.948   8.555
 6596POPC   D2A15988   8.183  15.963   8.255
 6596POPC   C3A15989   8.232  15.953   7.955
 6596POPC   C4A15990   8.227  15.972   7.655
 6596POPC   C1B15991   7.955  16.126   8.555
 6596POPC   C2B15992   8.022  16.094   8.255
 6596POPC   C3B15993   8.001  16.084   7.955
 6596POPC   C4B15994   8.018  16.058   7.655
 6597POPC   NC315995  19.094  36.093   9.455
 6597POPC   PO415996  19.056  36.151   9.155
 6597POPC   GL115997  19.082  36.146   8.855
 6597POPC   GL215998  19.119  36.241   8.855
 6597POPC   C1A15999  19.031  36.170   8.555
 6597POPC   D2A16000  19.083  36.163   8.255
 6597POPC   C3A16001  19.060  36.170   7.955
 6597POPC   C4A16002  19.027  36.132   7.655
 6597POPC   C1B16003  19.223  36.301   8.555
 6597POPC   C2B16004  19.243  36.248   8.255
 6597POPC   C3B16005  19.249  36.247   7.955
 6597POPC   C4B16006  19.293  36.303   7.655
 6598POPC   NC316007  31.444  13.589   9.455
 6598POPC   PO416008  31.463  13.605   9.155
 6598POPC   GL116009  31.519  13.631   8.855
 6598POPC   GL216010  31.393  13.673   8.855
 6598POPC   C1A16011  31.440  13.660   8.555
 6598POPC   D2A16012  31.432  13.608   8.255
 6598POPC   C3A16013  31.475  13.658   7.955
 6598POPC   C4A16014  31.487  13.611   7.655
 6598POPC   C1B16015  31.316  13.757   8.555
 6598POPC   C2B16016  31.260  13.821   8.255
 6598POPC   C3B16017  31.283  13.804   7.955
 6598POPC   C4B16018  31.247  13.737   7.655
 6599POPC   NC316019  22.180  43.927   9.455
 6599POPC   PO416020  22.144  43.918   9.155
 6599POPC   GL116021  22.208  43.917   8.855
 6599POPC   GL216022  22.268  43.903   8.855
 6599POPC   C1A16023  22.125  43.869   8.555
 6599POPC   D2A16024  22.189  43.846   8.255
 6599POPC   C3A16025  22.207  43.844   7.955
 6599POPC   C4A16026  22.160  43.856   7.655
 6599POPC   C1B16027  22.431  43.845   8.555
 6599POPC   C2B16028  22.424  43.850   8.255
 6599POPC   C3B16029  22.413  43.810   7.955
 6599POPC   C4B16030  22.407  43.802   7.655
 6600POPC   NC316031   3.587  44.632   9.455
 6600POPC   PO416032   3.570  44.640   9.155
 6600POPC   GL116033   3.585  44.643   8.855
 6600POPC   GL216034   3.428  44.573   8.855
 6600POPC   C1A16035   3.541  44.649   8.555
 6600POPC   D2A16036   3.506  44.628   8.255
 6600POPC   C3A16037   3.560  44.663   7.955
 6600POPC   C4A16038   3.571  44.613   7.655
 6600POPC   C1B16039   3.286  44.505   8.555
 6600POPC   C2B16040   3.324  44.512   8.255
 6600POPC   C3B16041   3.285  44.504   7.955
 6600POPC   C4B16042   3.315  44.545   7.655
 6601POPC   NC316043   5.088   5.882   9.455
 6601POPC   PO416044   5.115   5.911   9.155
 6601POPC   GL116045   5.047   5.865   8.855
 6601POPC   GL216046   5.195   5.834   8.855
 6601POPC   C1A16047   5.047   5.883   8.555
 6601POPC   D2A16048   5.048   5.825   8.255
 6601POPC   C3A16049   5.048   5.871   7.955
 6601POPC   C4A16050   5.142   5.873   7.655
 6601POPC   C1B16051   5.355   5.872   8.555
 6601POPC   C2B16052   5.317   5.880   8.255
 6601POPC   C3B16053   5.362   5.848   7.955
 6601POPC   C4B16054   5.384   5.889   7.655
 6602POPC   NC316055   8.981  41.569   9.455
 6602POPC   PO416056   8.922  41.547   9.155
 6602POPC   GL116057   8.968  41.533   8.855
 6602POPC   GL216058   8.904  41.706   8.855
 6602POPC   C1A16059   8.982  41.598   8.555
 6602POPC   D2A16060   8.991  41.547   8.255
 6602POPC   C3A16061   9.006  41.533   7.955
 6602POPC   C4A16062   8.963  41.534   7.655
 6602POPC   C1B16063   8.825  41.795   8.555
 6602POPC   C2B16064   8.818  41.802   8.255
 6602POPC   C3B16065   8.871  41.753   7.955
 6602POPC   C4B16066   8.865  41.739   7.655
 6603POPC   NC316067  38.457  39.982   9.455
 6603POPC   PO416068  38.458  40.050   9.155
 6603POPC   GL116069  38.437  40.004   8.855
 6603POPC   GL216070  38.520  40.108   8.855
 6603POPC   C1A16071  38.499  39.999   8.555
 6603POPC   D2A16072  38.472  40.033   8.255
 6603POPC   C3A16073  38.458  40.013   7.955
 6603POPC   C4A16074  38.425  40.028   7.655
 6603POPC   C1B16075  38.685  40.158   8.555
 6603POPC   C2B16076  38.695  40.078   8.255
 6603POPC   C3B16077  38.722  40.075   7.955
 6603POPC   C4B16078  38.647  40.150   7.655
 6604POPC   NC316079   5.819  24.483   9.455
 6604POPC   PO416080   5.842  24.454   9.155
 6604POPC   GL116081   5.824  24.465   8.855
 6604POPC   GL216082   5.773  24.562   8.855
 6604POPC   C1A16083   5.853  24.500   8.555
 6604POPC   D2A16084   5.913  24.462   8.255
 6604POPC   C3A16085   5.881  24.524   7.955
 6604POPC   C4A16086   5.825  24.484   7.655
 6604POPC   C1B16087   5.766  24.704   8.555
 6604POPC   C2B16088   5.769  24.676   8.255
 6604POPC   C3B16089   5.798  24.688   7.955
 6604POPC   C4B16090   5.751  24.705   7.655
 6605POPC   NC316091  37.715  30.730   9.455
 6605POPC   PO416092  37.707  30.665   9.155
 6605POPC   GL116093  37.706  30.675   8.855
 6605POPC   GL216094  37.560  30.650   8.855
 6605POPC   C1A16095  37.669  30.725   8.555
 6605POPC   D2A16096  37.682  30.734   8.255
 6605POPC   C3A16097  37.635  30.746   7.955
 6605POPC   C4A16098  37.689  30.737   7.655
 6605POPC   C1B16099  37.420  30.629   8.555
 6605POPC   C2B16100  37.439  30.683   8.255
 6605POPC   C3B16101  37.467  30.603   7.955
 6605POPC   C4B16102  37.468  30.665   7.655
 6606POPC   NC316103  18.292   9.729   9.455
 6606POPC   PO416104  18.264   9.764   9.155
 6606POPC   GL116105  18.322   9.718   8.855
 6606POPC   GL216106  18.406   9.702   8.855
 6606POPC   C1A16107  18.245   9.713   8.555
 6606POPC   D2A16108  18.312   9.792   8.255
 6606POPC   C3A16109  18.317   9.733   7.955
 6606POPC   C4A16110  18.294   9.708   7.655
 6606POPC   C1B16111  18.537   9.724   8.555
 6606POPC   C2B16112  18.476   9.690   8.255
 6606POPC   C3B16113  18.476   9.724   7.955
 6606POPC   C4B16114  18.560   9.638   7.655
 6607POPC   NC316115   1.205  21.388   9.455
 6607POPC   PO416116   1.230  21.374   9.155
 6607POPC   GL116117   1.196  21.356   8.855
 6607POPC   GL216118   1.306  21.458   8.855
 6607POPC   C1A16119   1.228  21.372   8.555
 6607POPC   D2A16120   1.262  21.412   8.255
 6607POPC   C3A16121   1.237  21.397   7.955
 6607POPC   C4A16122   1.249  21.376   7.655
 6607POPC   C1B16123   1.431  21.528   8.555
 6607POPC   C2B16124   1.385  21.531   8.255
 6607POPC   C3B16125   1.391  21.566   7.955
 6607POPC   C4B16126   1.359  21.534   7.655
 6608POPC   NC316127  26.811   0.477   9.455
 6608POPC   PO416128  26.825   0.466   9.155
 6608POPC   GL116129  26.831   0.399   8.855
 6608POPC   GL216130  26.700   0.458   8.855
 6608POPC   C1A16131  26.823   0.419   8.555
 6608POPC   D2A16132  26.795   0.443   8.255
 6608POPC   C3A16133  26.822   0.401   7.955
 6608POPC   C4A16134  26.789   0.449   7.655
 6608POPC   C1B16135  26.611   0.434   8.555
 6608POPC   C2B16136  26.578   0.421   8.255
 6608POPC   C3B16137  26.602   0.420   7.955
 6608POPC   C4B16138  26.555   0.475   7.655
 6609POPC   NC316139  38.414  11.295   9.455
 6609POPC   PO416140  38.424  11.325   9.155
 6609POPC   GL116141  38.418  11.309   8.855
 6609POPC   GL216142  38.425  11.154   8.855
 6609POPC   C1A16143  38.481  11.298   8.555
 6609POPC   D2A16144  38.454  11.261   8.255
 6609POPC   C3A16145  38.470  11.256   7.955
 6609POPC   C4A16146  38.416  11.301   7.655
 6609POPC   C1B16147  38.260  11.085   8.555
 6609POPC   C2B16148  38.264  11.063   8.255
 6609POPC   C3B16149  38.265  11.129   7.955
 6609POPC   C4B16150  38.280  11.098   7.655
 6610POPC   NC316151  22.907  26.072   9.455
 6610POPC   PO416152  22.896  25.993   9.155
 6610POPC   GL116153  22.970  26.039   8.855
 6610POPC   GL216154  23.081  25.965   8.855
 6610POPC   C1A16155  22.919  26.060   8.555
 6610POPC   D2A16156  22.914  26.077   8.255
 6610POPC   C3A16157  22.925  26.060   7.955
 6610POPC   C4A16158  22.896  26.045   7.655
 6610POPC   C1B16159  23.158  25.979   8.555
 6610POPC   C2B16160  23.169  26.022   8.255
 6610POPC   C3B16161  23.137  25.935   7.955
 6610POPC   C4B16162  23.203  25.955   7.655
 6611POPC   NC316163  30.735  15.996   9.455
 6611POPC   PO416164  30.723  15.936   9.155
 6611POPC   GL116165  30.722  15.958   8.855
 6611POPC   GL216166  30.716  15.834   8.855
 6611POPC   C1A16167  30.725  15.946   8.555
 6611POPC   D2A16168  30.662  15.910   8.255
 6611POPC   C3A16169  30.655  15.930   7.955
 6611POPC   C4A16170  30.721  15.959   7.655
 6611POPC   C1B16171  30.702  15.691   8.555
 6611POPC   C2B16172  30.711  15.714   8.255
 6611POPC   C3B16173  30.697  15.662   7.955
 6611POPC   C4B16174  30.755  15.663   7.655
 6612POPC   NC316175  37.718  10.523   9.455
 6612POPC   PO416176  37.651  10.486   9.155
 6612POPC   GL116177  37.640  10.559   8.855
 6612POPC   GL216178  37.696  10.353   8.855
 6612POPC   C1A16179  37.632  10.556   8.555
 6612POPC   D2A16180  37.726  10.529   8.255
 6612POPC   C3A16181  37.642  10.477   7.955
 6612POPC   C4A16182  37.655  10.566   7.655
 6612POPC   C1B16183  37.628  10.253   8.555
 6612POPC   C2B16184  37.597  10.274   8.255
 6612POPC   C3B16185  37.605  10.317   7.955
 6612POPC   C4B16186  37.616  10.250   7.655
 6613POPC   NC316187  15.931  17.512   9.455
 6613POPC   PO416188  15.939  17.490   9.155
 6613POPC   GL116189  16.002  17.516   8.855
 6613POPC   GL216190  16.082  17.423   8.855
 6613POPC   C1A16191  15.986  17.530   8.555
 6613POPC   D2A16192  15.921  17.519   8.255
 6613POPC   C3A16193  15.922  17.489   7.955
 6613POPC   C4A16194  15.973  17.480   7.655
 6613POPC   C1B16195  16.135  17.368   8.555
 6613POPC   C2B16196  16.136  17.389   8.255
 6613POPC   C3B16197  16.140  17.387   7.955
 6613POPC   C4B16198  16.181  17.356   7.655
 6614POPC   NC316199  20.597   2.008   9.455
 6614POPC   PO416200  20.589   1.997   9.155
 6614POPC   GL116201  20.587   1.952   8.855
 6614POPC   GL216202  20.672   1.920   8.855
 6614POPC   C1A16203  20.630   1.940   8.555
 6614POPC   D2A16204  20.601   2.013   8.255
 6614POPC   C3A16205  20.641   2.033   7.955
 6614POPC   C4A16206  20.645   1.956   7.655
 6614POPC   C1B16207  20.717   1.820   8.555
 6614POPC   C2B16208  20.705   1.818   8.255
 6614POPC   C3B16209  20.789   1.772   7.955
 6614POPC   C4B16210  20.722   1.742   7.655
 6615POPC   NC316211  26.858   9.795   9.455
 6615POPC   PO416212  26.863   9.781   9.155
 6615POPC   GL116213  26.813   9.745   8.855
 6615POPC   GL216214  26.924   9.748   8.855
 6615POPC   C1A16215  26.784   9.721   8.555
 6615POPC   D2A16216  26.852   9.764   8.255
 6615POPC   C3A16217  26.800   9.705   7.955
 6615POPC   C4A16218  26.783   9.777   7.655
 6615POPC   C1B16219  27.056   9.754   8.555
 6615POPC   C2B16220  27.070   9.722   8.255
 6615POPC   C3B16221  27.108   9.713   7.955
 6615POPC   C4B16222  27.033   9.769   7.655
 6616POPC   NC316223  43.929  35.376   9.455
 6616POPC   PO416224  43.890  35.339   9.155
 6616POPC   GL116225  43.892  35.347   8.855
 6616POPC   GL216226  43.760  35.452   8.855
 6616POPC   C1A16227  43.930  35.334   8.555
 6616POPC   D2A16228  43.891  35.314   8.255
 6616POPC   C3A16229  43.893  35.398   7.955
 6616POPC   C4A16230  43.926  35.330   7.655
 6616POPC   C1B16231  43.676  35.479   8.555
 6616POPC   C2B16232  43.655  35.502   8.255
 6616POPC   C3B16233  43.737  35.497   7.955
 6616POPC   C4B16234  43.721  35.549   7.655
 6617POPC   NC316235   4.279  20.614   9.455
 6617POPC   PO416236   4.298  20.561   9.155
 6617POPC   GL116237   4.334  20.561   8.855
 6617POPC   GL216238   4.297  20.756   8.855
 6617POPC   C1A16239   4.302  20.569   8.555
 6617POPC   D2A16240   4.287  20.581   8.255
 6617POPC   C3A16241   4.344  20.623   7.955
 6617POPC   C4A16242   4.280  20.654   7.655
 6617POPC   C1B16243   4.361  20.819   8.555
 6617POPC   C2B16244   4.315  20.821   8.255
 6617POPC   C3B16245   4.373  20.857   7.955
 6617POPC   C4B16246   4.392  20.808   7.655
 6618POPC   NC316247  28.414  43.871   9.455
 6618POPC   PO416248  28.321  43.926   9.155
 6618POPC   GL116249  28.415  43.902   8.855
 6618POPC   GL216250  28.428  44.003   8.855
 6618POPC   C1A16251  28.340  43.855   8.555
 6618POPC   D2A16252  28.404  43.898   8.255
 6618POPC   C3A16253  28.352  43.850   7.955
 6618POPC   C4A16254  28.380  43.883   7.655
 6618POPC   C1B16255  28.572  44.017   8.555
 6618POPC   C2B16256  28.541  44.097   8.255
 6618POPC   C3B16257  28.579  44.019   7.955
 6618POPC   C4B16258  28.536  44.086   7.655
 6619POPC   NC316259  27.549  38.499   9.455
 6619POPC   PO416260  27.593  38.458   9.155
 6619POPC   GL116261  27.642  38.409   8.855
 6619POPC   GL216262  27.738  38.382   8.855
 6619POPC   C1A16263  27.582  38.462   8.555
 6619POPC   D2A16264  27.602  38.437   8.255
 6619POPC   C3A16265  27.629  38.472   7.955
 6619POPC   C4A16266  27.604  38.428   7.655
 6619POPC   C1B16267  27.882  38.366   8.555
 6619POPC   C2B16268  27.796  38.396   8.255
 6619POPC   C3B16269  27.810  38.417   7.955
 6619POPC   C4B16270  27.791  38.336   7.655
 6620POPC   NC316271   6.687  22.119   9.455
 6620POPC   PO416272   6.640  22.135   9.155
 6620POPC   GL116273   6.599  22.129   8.855
 6620POPC   GL216274   6.501  22.110   8.855
 6620POPC   C1A16275   6.650  22.146   8.555
 6620POPC   D2A16276   6.657  22.134   8.255
 6620POPC   C3A16277   6.626  22.113   7.955
 6620POPC   C4A16278   6.618  22.183   7.655
 6620POPC   C1B16279   6.458  22.013   8.555
 6620POPC   C2B16280   6.457  22.040   8.255
 6620POPC   C3B16281   6.494  21.977   7.955
 6620POPC   C4B16282   6.436  22.007   7.655
 6621POPC   NC316283   1.261  40.750   9.455
 6621POPC   PO416284   1.205  40.805   9.155
 6621POPC   GL116285   1.219  40.787   8.855
 6621POPC   GL216286   1.113  40.780   8.855
 6621POPC   C1A16287   1.172  40.822   8.555
 6621POPC   D2A16288   1.195  40.832   8.255
 6621POPC   C3A16289   1.171  40.796   7.955
 6621POPC   C4A16290   1.235  40.828   7.655
 6621POPC   C1B16291   0.935  40.739   8.555
 6621POPC   C2B16292   0.969  40.748   8.255
 6621POPC   C3B16293   1.005  40.704   7.955
 6621POPC   C4B16294   0.988  40.722   7.655
 6622POPC   NC316295  39.232  26.072   9.455
 6622POPC   PO416296  39.244  26.016   9.155
 6622POPC   GL116297  39.185  26.030   8.855
 6622POPC   GL216298  39.350  26.039   8.855
 6622POPC   C1A16299  39.274  26.037   8.555
 6622POPC   D2A16300  39.268  26.050   8.255
 6622POPC   C3A16301  39.257  26.012   7.955
 6622POPC   C4A16302  39.253  26.009   7.655
 6622POPC   C1B16303  39.442  26.006   8.555
 6622POPC   C2B16304  39.511  26.017   8.255
 6622POPC   C3B16305  39.465  26.024   7.955
 6622POPC   C4B16306  39.519  25.952   7.655
 6623POPC   NC316307  33.769  40.768   9.455
 6623POPC   PO416308  33.774  40.757   9.155
 6623POPC   GL116309  33.841  40.792   8.855
 6623POPC   GL216310  33.698  40.853   8.855
 6623POPC   C1A16311  33.832  40.830   8.555
 6623POPC   D2A16312  33.809  40.785   8.255
 6623POPC   C3A16313  33.795  40.782   7.955
 6623POPC   C4A16314  33.841  40.743   7.655
 6623POPC   C1B16315  33.581  40.994   8.555
 6623POPC   C2B16316  33.646  40.925   8.255
 6623POPC   C3B16317  33.651  40.958   7.955
 6623POPC   C4B16318  33.641  40.914   7.655
 6624POPC   NC316319   3.542  40.750   9.455
 6624POPC   PO416320   3.565  40.745   9.155
 6624POPC   GL116321   3.561  40.734   8.855
 6624POPC   GL216322   3.489  40.658   8.855
 6624POPC   C1A16323   3.492  40.798   8.555
 6624POPC   D2A16324   3.498  40.809   8.255
 6624POPC   C3A16325   3.506  40.781   7.955
 6624POPC   C4A16326   3.518  40.751   7.655
 6624POPC   C1B16327   3.310  40.633   8.555
 6624POPC   C2B16328   3.381  40.659   8.255
 6624POPC   C3B16329   3.325  40.600   7.955
 6624POPC   C4B16330   3.387  40.629   7.655
 6625POPC   NC316331   5.094  40.789   9.455
 6625POPC   PO416332   5.086  40.790   9.155
 6625POPC   GL116333   5.095  40.818   8.855
 6625POPC   GL216334   5.042  40.903   8.855
 6625POPC   C1A16335   5.142  40.779   8.555
 6625POPC   D2A16336   5.077  40.764   8.255
 6625POPC   C3A16337   5.126  40.743   7.955
 6625POPC   C4A16338   5.136  40.763   7.655
 6625POPC   C1B16339   5.105  40.989   8.555
 6625POPC   C2B16340   5.067  41.047   8.255
 6625POPC   C3B16341   5.078  41.056   7.955
 6625POPC   C4B16342   5.013  41.015   7.655
 6626POPC   NC316343  41.547  29.880   9.455
 6626POPC   PO416344  41.566  29.880   9.155
 6626POPC   GL116345  41.513  29.963   8.855
 6626POPC   GL216346  41.435  29.977   8.855
 6626POPC   C1A16347  41.589  29.923   8.555
 6626POPC   D2A16348  41.593  29.941   8.255
 6626POPC   C3A16349  41.518  29.920   7.955
 6626POPC   C4A16350  41.554  29.947   7.655
 6626POPC   C1B16351  41.406  30.088   8.555
 6626POPC   C2B16352  41.446  30.098   8.255
 6626POPC   C3B16353  41.377  30.159   7.955
 6626POPC   C4B16354  41.453  30.072   7.655
 6627POPC   NC316355  44.650  29.165   9.455
 6627POPC   PO416356  44.658  29.104   9.155
 6627POPC   GL116357  44.703  29.096   8.855
 6627POPC   GL216358  44.684  29.000   8.855
 6627POPC   C1A16359  44.662  29.127   8.555
 6627POPC   D2A16360  44.634  29.134   8.255
 6627POPC   C3A16361  44.667  29.178   7.955
 6627POPC   C4A16362  44.657  29.159   7.655
 6627POPC   C1B16363  44.776  28.970   8.555
 6627POPC   C2B16364  44.747  28.951   8.255
 6627POPC   C3B16365  44.785  28.885   7.955
 6627POPC   C4B16366  44.733  28.969   7.655
 6628POPC   NC316367  23.713  33.813   9.455
 6628POPC   PO416368  23.722  33.775   9.155
 6628POPC   GL116369  23.760  33.780   8.855
 6628POPC   GL216370  23.822  33.875   8.855
 6628POPC   C1A16371  23.669  33.751   8.555
 6628POPC   D2A16372  23.748  33.801   8.255
 6628POPC   C3A16373  23.742  33.761   7.955
 6628POPC   C4A16374  23.744  33.845   7.655
 6628POPC   C1B16375  24.000  33.837   8.555
 6628POPC   C2B16376  23.957  33.821   8.255
 6628POPC   C3B16377  23.973  33.843   7.955
 6628POPC   C4B16378  23.987  33.905   7.655
 6629POPC   NC316379  42.295  40.031   9.455
 6629POPC   PO416380  42.326  40.017   9.155
 6629POPC   GL116381  42.317  39.968   8.855
 6629POPC   GL216382  42.259  40.111   8.855
 6629POPC   C1A16383  42.371  40.020   8.555
 6629POPC   D2A16384  42.354  39.989   8.255
 6629POPC   C3A16385  42.332  39.980   7.955
 6629POPC   C4A16386  42.301  40.003   7.655
 6629POPC   C1B16387  42.225  40.238   8.555
 6629POPC   C2B16388  42.185  40.263   8.255
 6629POPC   C3B16389  42.181  40.232   7.955
 6629POPC   C4B16390  42.222  40.216   7.655
 6630POPC   NC316391  40.822  44.673   9.455
 6630POPC   PO416392  40.801  44.623   9.155
 6630POPC   GL116393  40.775  44.693   8.855
 6630POPC   GL216394  40.752  44.787   8.855
 6630POPC   C1A16395  40.823  44.655   8.555
 6630POPC   D2A16396  40.739  44.695   8.255
 6630POPC   C3A16397  40.752  44.616   7.955
 6630POPC   C4A16398  40.798  44.617   7.655
 6630POPC   C1B16399  40.724  44.955   8.555
 6630POPC   C2B16400  40.763  44.923   8.255
 6630POPC   C3B16401  40.761  44.905   7.955
 6630POPC   C4B16402  40.772  44.915   7.655
 6631POPC   NC316403  19.800  40.788   9.455
 6631POPC   PO416404  19.867  40.810   9.155
 6631POPC   GL116405  19.786  40.795   8.855
 6631POPC   GL216406  19.740  40.864   8.855
 6631POPC   C1A16407  19.801  40.804   8.555
 6631POPC   D2A16408  19.820  40.828   8.255
 6631POPC   C3A16409  19.868  40.782   7.955
 6631POPC   C4A16410  19.809  40.754   7.655
 6631POPC   C1B16411  19.599  40.981   8.555
 6631POPC   C2B16412  19.664  40.977   8.255
 6631POPC   C3B16413  19.686  40.903   7.955
 6631POPC   C4B16414  19.613  40.915   7.655
 6632POPC   NC316415  24.537  28.360   9.455
 6632POPC   PO416416  24.507  28.363   9.155
 6632POPC   GL116417  24.496  28.359   8.855
 6632POPC   GL216418  24.637  28.341   8.855
 6632POPC   C1A16419  24.492  28.397   8.555
 6632POPC   D2A16420  24.512  28.334   8.255
 6632POPC   C3A16421  24.469  28.329   7.955
 6632POPC   C4A16422  24.483  28.398   7.655
 6632POPC   C1B16423  24.687  28.337   8.555
 6632POPC   C2B16424  24.687  28.326   8.255
 6632POPC   C3B16425  24.681  28.275   7.955
 6632POPC   C4B16426  24.721  28.302   7.655
 6633POPC   NC316427  15.135  14.448   9.455
 6633POPC   PO416428  15.135  14.393   9.155
 6633POPC   GL116429  15.213  14.431   8.855
 6633POPC   GL216430  15.062  14.333   8.855
 6633POPC   C1A16431  15.142  14.446   8.555
 6633POPC   D2A16432  15.160  14.395   8.255
 6633POPC   C3A16433  15.164  14.395   7.955
 6633POPC   C4A16434  15.190  14.359   7.655
 6633POPC   C1B16435  15.073  14.225   8.555
 6633POPC   C2B16436  15.047  14.191   8.255
 6633POPC   C3B16437  14.993  14.210   7.955
 6633POPC   C4B16438  15.024  14.204   7.655
 6634POPC   NC316439   6.674   5.851   9.455
 6634POPC   PO416440   6.615   5.902   9.155
 6634POPC   GL116441   6.620   5.830   8.855
 6634POPC   GL216442   6.602   5.997   8.855
 6634POPC   C1A16443   6.616   5.833   8.555
 6634POPC   D2A16444   6.678   5.826   8.255
 6634POPC   C3A16445   6.595   5.866   7.955
 6634POPC   C4A16446   6.634   5.860   7.655
 6634POPC   C1B16447   6.442   6.088   8.555
 6634POPC   C2B16448   6.448   6.047   8.255
 6634POPC   C3B16449   6.480   6.043   7.955
 6634POPC   C4B16450   6.439   6.009   7.655
 6635POPC   NC316451  34.529  42.299   9.455
 6635POPC   PO416452  34.527  42.323   9.155
 6635POPC   GL116453  34.551  42.331   8.855
 6635POPC   GL216454  34.555  42.414   8.855
 6635POPC   C1A16455  34.599  42.334   8.555
 6635POPC   D2A16456  34.571  42.373   8.255
 6635POPC   C3A16457  34.580  42.289   7.955
 6635POPC   C4A16458  34.610  42.380   7.655
 6635POPC   C1B16459  34.471  42.549   8.555
 6635POPC   C2B16460  34.538  42.577   8.255
 6635POPC   C3B16461  34.526  42.549   7.955
 6635POPC   C4B16462  34.475  42.590   7.655
 6636POPC   NC316463  19.030  32.293   9.455
 6636POPC   PO416464  19.020  32.207   9.155
 6636POPC   GL116465  19.045  32.201   8.855
 6636POPC   GL216466  19.192  32.249   8.855
 6636POPC   C1A16467  19.090  32.288   8.555
 6636POPC   D2A16468  19.023  32.289   8.255
 6636POPC   C3A16469  19.102  32.230   7.955
 6636POPC   C4A16470  19.035  32.246   7.655
 6636POPC   C1B16471  19.342  32.158   8.555
 6636POPC   C2B16472  19.320  32.152   8.255
 6636POPC   C3B16473  19.268  32.127   7.955
 6636POPC   C4B16474  19.277  32.171   7.655
 6637POPC   NC316475  17.464  33.758   9.455
 6637POPC   PO416476  17.491  33.803   9.155
 6637POPC   GL116477  17.474  33.809   8.855
 6637POPC   GL216478  17.435  33.851   8.855
 6637POPC   C1A16479  17.513  33.846   8.555
 6637POPC   D2A16480  17.530  33.767   8.255
 6637POPC   C3A16481  17.461  33.843   7.955
 6637POPC   C4A16482  17.549  33.793   7.655
 6637POPC   C1B16483  17.375  34.021   8.555
 6637POPC   C2B16484  17.380  33.964   8.255
 6637POPC   C3B16485  17.368  34.007   7.955
 6637POPC   C4B16486  17.378  33.969   7.655
 6638POPC   NC316487   9.787  16.701   9.455
 6638POPC   PO416488   9.726  16.704   9.155
 6638POPC   GL116489   9.718  16.718   8.855
 6638POPC   GL216490   9.816  16.824   8.855
 6638POPC   C1A16491   9.738  16.718   8.555
 6638POPC   D2A16492   9.765  16.723   8.255
 6638POPC   C3A16493   9.713  16.755   7.955
 6638POPC   C4A16494   9.728  16.746   7.655
 6638POPC   C1B16495   9.883  16.867   8.555
 6638POPC   C2B16496   9.910  16.867   8.255
 6638POPC   C3B16497   9.917  16.909   7.955
 6638POPC   C4B16498   9.938  16.951   7.655
 6639POPC   NC316499   4.327  33.812   9.455
 6639POPC   PO416500   4.351  33.760   9.155
 6639POPC   GL116501   4.335  33.758   8.855
 6639POPC   GL216502   4.154  33.803   8.855
 6639POPC   C1A16503   4.340  33.796   8.555
 6639POPC   D2A16504   4.319  33.811   8.255
 6639POPC   C3A16505   4.361  33.844   7.955
 6639POPC   C4A16506   4.278  33.797   7.655
 6639POPC   C1B16507   4.059  33.842   8.555
 6639POPC   C2B16508   4.055  33.831   8.255
 6639POPC   C3B16509   4.068  33.836   7.955
 6639POPC   C4B16510   4.042  33.855   7.655
 6640POPC   NC316511  21.387  25.257   9.455
 6640POPC   PO416512  21.387  25.253   9.155
 6640POPC   GL116513  21.344  25.309   8.855
 6640POPC   GL216514  21.250  25.302   8.855
 6640POPC   C1A16515  21.433  25.225   8.555
 6640POPC   D2A16516  21.416  25.264   8.255
 6640POPC   C3A16517  21.368  25.299   7.955
 6640POPC   C4A16518  21.405  25.254   7.655
 6640POPC   C1B16519  21.138  25.296   8.555
 6640POPC   C2B16520  21.100  25.280   8.255
 6640POPC   C3B16521  21.127  25.299   7.955
 6640POPC   C4B16522  21.121  25.348   7.655
 6641POPC   NC316523  26.846  37.722   9.455
 6641POPC   PO416524  26.772  37.663   9.155
 6641POPC   GL116525  26.826  37.690   8.855
 6641POPC   GL216526  26.738  37.563   8.855
 6641POPC   C1A16527  26.811  37.682   8.555
 6641POPC   D2A16528  26.786  37.697   8.255
 6641POPC   C3A16529  26.844  37.725   7.955
 6641POPC   C4A16530  26.786  37.675   7.655
 6641POPC   C1B16531  26.630  37.455   8.555
 6641POPC   C2B16532  26.647  37.443   8.255
 6641POPC   C3B16533  26.701  37.447   7.955
 6641POPC   C4B16534  26.636  37.534   7.655
 6642POPC   NC316535  23.718  25.226   9.455
 6642POPC   PO416536  23.710  25.309   9.155
 6642POPC   GL116537  23.673  25.303   8.855
 6642POPC   GL216538  23.701  25.348   8.855
 6642POPC   C1A16539  23.728  25.258   8.555
 6642POPC   D2A16540  23.707  25.301   8.255
 6642POPC   C3A16541  23.672  25.299   7.955
 6642POPC   C4A16542  23.746  25.299   7.655
 6642POPC   C1B16543  23.779  25.470   8.555
 6642POPC   C2B16544  23.808  25.557   8.255
 6642POPC   C3B16545  23.804  25.557   7.955
 6642POPC   C4B16546  23.791  25.502   7.655
 6643POPC   NC316547   1.234  28.404   9.455
 6643POPC   PO416548   1.248  28.392   9.155
 6643POPC   GL116549   1.237  28.369   8.855
 6643POPC   GL216550   1.153  28.274   8.855
 6643POPC   C1A16551   1.208  28.354   8.555
 6643POPC   D2A16552   1.200  28.413   8.255
 6643POPC   C3A16553   1.210  28.336   7.955
 6643POPC   C4A16554   1.185  28.321   7.655
 6643POPC   C1B16555   1.139  28.145   8.555
 6643POPC   C2B16556   1.065  28.178   8.255
 6643POPC   C3B16557   1.144  28.151   7.955
 6643POPC   C4B16558   1.090  28.136   7.655
 6644POPC   NC316559  26.035   9.796   9.455
 6644POPC   PO416560  26.067   9.758   9.155
 6644POPC   GL116561  26.082   9.715   8.855
 6644POPC   GL216562  25.919   9.801   8.855
 6644POPC   C1A16563  26.037   9.767   8.555
 6644POPC   D2A16564  26.002   9.743   8.255
 6644POPC   C3A16565  26.037   9.762   7.955
 6644POPC   C4A16566  26.043   9.765   7.655
 6644POPC   C1B16567  25.885   9.886   8.555
 6644POPC   C2B16568  25.890   9.954   8.255
 6644POPC   C3B16569  25.809   9.870   7.955
 6644POPC   C4B16570  25.893   9.911   7.655
 6645POPC   NC316571  18.261  44.675   9.455
 6645POPC   PO416572  18.249  44.638   9.155
 6645POPC   GL116573  18.271  44.623   8.855
 6645POPC   GL216574  18.185  44.584   8.855
 6645POPC   C1A16575  18.245  44.710   8.555
 6645POPC   D2A16576  18.281  44.687   8.255
 6645POPC   C3A16577  18.243  44.647   7.955
 6645POPC   C4A16578  18.259  44.624   7.655
 6645POPC   C1B16579  18.060  44.552   8.555
 6645POPC   C2B16580  18.040  44.511   8.255
 6645POPC   C3B16581  18.075  44.460   7.955
 6645POPC   C4B16582  18.117  44.482   7.655
 6646POPC   NC316583  26.073  29.121   9.455
 6646POPC   PO416584  26.073  29.157   9.155
 6646POPC   GL116585  26.060  29.152   8.855
 6646POPC   GL216586  25.925  29.011   8.855
 6646POPC   C1A16587  26.052  29.159   8.555
 6646POPC   D2A16588  25.998  29.169   8.255
 6646POPC   C3A16589  26.081  29.108   7.955
 6646POPC   C4A16590  26.086  29.194   7.655
 6646POPC   C1B16591  25.844  28.936   8.555
 6646POPC   C2B16592  25.910  28.964   8.255
 6646POPC   C3B16593  25.819  28.969   7.955
 6646POPC   C4B16594  25.877  29.017   7.655
 6647POPC   NC316595   9.770  42.293   9.455
 6647POPC   PO416596   9.777  42.323   9.155
 6647POPC   GL116597   9.771  42.317   8.855
 6647POPC   GL216598   9.734  42.448   8.855
 6647POPC   C1A16599   9.796  42.305   8.555
 6647POPC   D2A16600   9.795  42.318   8.255
 6647POPC   C3A16601   9.705  42.343   7.955
 6647POPC   C4A16602   9.766  42.349   7.655
 6647POPC   C1B16603   9.713  42.600   8.555
 6647POPC   C2B16604   9.753  42.578   8.255
 6647POPC   C3B16605   9.751  42.603   7.955
 6647POPC   C4B16606   9.725  42.592   7.655
 6648POPC   NC316607   2.001  12.026   9.455
 6648POPC   PO416608   2.034  12.048   9.155
 6648POPC   GL116609   2.015  12.051   8.855
 6648POPC   GL216610   1.857  12.110   8.855
 6648POPC   C1A16611   2.040  12.090   8.555
 6648POPC   D2A16612   1.971  12.104   8.255
 6648POPC   C3A16613   2.002  12.105   7.955
 6648POPC   C4A16614   1.950  12.048   7.655
 6648POPC   C1B16615   1.751  12.102   8.555
 6648POPC   C2B16616   1.752  12.174   8.255
 6648POPC   C3B16617   1.718  12.157   7.955
 6648POPC   C4B16618   1.754  12.179   7.655
 6649POPC   NC316619  15.989  36.144   9.455
 6649POPC   PO416620  15.919  36.095   9.155
 6649POPC   GL116621  15.988  36.141   8.855
 6649POPC   GL216622  15.810  36.156   8.855
 6649POPC   C1A16623  15.910  36.162   8.555
 6649POPC   D2A16624  15.929  36.117   8.255
 6649POPC   C3A16625  15.923  36.102   7.955
 6649POPC   C4A16626  15.950  36.144   7.655
 6649POPC   C1B16627  15.775  36.217   8.555
 6649POPC   C2B16628  15.755  36.261   8.255
 6649POPC   C3B16629  15.698  36.221   7.955
 6649POPC   C4B16630  15.771  36.191   7.655
 6650POPC   NC316631  15.997  33.776   9.455
 6650POPC   PO416632  15.969  33.824   9.155
 6650POPC   GL116633  15.915  33.757   8.855
 6650POPC   GL216634  16.018  33.900   8.855
 6650POPC   C1A16635  15.977  33.822   8.555
 6650POPC   D2A16636  15.945  33.794   8.255
 6650POPC   C3A16637  15.987  33.767   7.955
 6650POPC   C4A16638  15.952  33.789   7.655
 6650POPC   C1B16639  16.032  34.027   8.555
 6650POPC   C2B16640  16.027  33.994   8.255
 6650POPC   C3B16641  16.065  33.988   7.955
 6650POPC   C4B16642  16.063  33.993   7.655
 6651POPC   NC316643  35.398  29.097   9.455
 6651POPC   PO416644  35.354  29.140   9.155
 6651POPC   GL116645  35.318  29.116   8.855
 6651POPC   GL216646  35.400  29.220   8.855
 6651POPC   C1A16647  35.333  29.123   8.555
 6651POPC   D2A16648  35.368  29.139   8.255
 6651POPC   C3A16649  35.374  29.130   7.955
 6651POPC   C4A16650  35.397  29.142   7.655
 6651POPC   C1B16651  35.563  29.347   8.555
 6651POPC   C2B16652  35.512  29.298   8.255
 6651POPC   C3B16653  35.491  29.272   7.955
 6651POPC   C4B16654  35.489  29.327   7.655
 6652POPC   NC316655   9.720  34.618   9.455
 6652POPC   PO416656   9.756  34.568   9.155
 6652POPC   GL116657   9.741  34.616   8.855
 6652POPC   GL216658   9.781  34.487   8.855
 6652POPC   C1A16659   9.767  34.543   8.555
 6652POPC   D2A16660   9.753  34.585   8.255
 6652POPC   C3A16661   9.781  34.554   7.955
 6652POPC   C4A16662   9.712  34.579   7.655
 6652POPC   C1B16663   9.703  34.315   8.555
 6652POPC   C2B16664   9.735  34.326   8.255
 6652POPC   C3B16665   9.729  34.285   7.955
 6652POPC   C4B16666   9.736  34.353   7.655
 6653POPC   NC316667  32.277   0.487   9.455
 6653POPC   PO416668  32.269   0.396   9.155
 6653POPC   GL116669  32.263   0.480   8.855
 6653POPC   GL216670  32.384   0.354   8.855
 6653POPC   C1A16671  32.254   0.454   8.555
 6653POPC   D2A16672  32.200   0.393   8.255
 6653POPC   C3A16673  32.226   0.441   7.955
 6653POPC   C4A16674  32.226   0.471   7.655
 6653POPC   C1B16675  32.457   0.296   8.555
 6653POPC   C2B16676  32.428   0.237   8.255
 6653POPC   C3B16677  32.399   0.251   7.955
 6653POPC   C4B16678  32.484   0.277   7.655
 6654POPC   NC316679  22.179  27.579   9.455
 6654POPC   PO416680  22.180  27.622   9.155
 6654POPC   GL116681  22.134  27.596   8.855
 6654POPC   GL216682  22.055  27.589   8.855
 6654POPC   C1A16683  22.134  27.638   8.555
 6654POPC   D2A16684  22.203  27.581   8.255
 6654POPC   C3A16685  22.201  27.626   7.955
 6654POPC   C4A16686  22.193  27.596   7.655
 6654POPC   C1B16687  21.895  27.605   8.555
 6654POPC   C2B16688  21.903  27.656   8.255
 6654POPC   C3B16689  21.940  27.609   7.955
 6654POPC   C4B16690  21.865  27.648   7.655
 6655POPC   NC316691  26.073  39.241   9.455
 6655POPC   PO416692  26.062  39.207   9.155
 6655POPC   GL116693  26.019  39.202   8.855
 6655POPC   GL216694  25.996  39.294   8.855
 6655POPC   C1A16695  26.072  39.250   8.555
 6655POPC   D2A16696  26.033  39.187   8.255
 6655POPC   C3A16697  26.075  39.225   7.955
 6655POPC   C4A16698  26.062  39.254   7.655
 6655POPC   C1B16699  25.952  39.491   8.555
 6655POPC   C2B16700  25.915  39.411   8.255
 6655POPC   C3B16701  25.924  39.447   7.955
 6655POPC   C4B16702  25.952  39.428   7.655
 6656POPC   NC316703  36.134  12.849   9.455
 6656POPC   PO416704  36.122  12.891   9.155
 6656POPC   GL116705  36.174  12.893   8.855
 6656POPC   GL216706  36.249  12.868   8.855
 6656POPC   C1A16707  36.143  12.821   8.555
 6656POPC   D2A16708  36.171  12.826   8.255
 6656POPC   C3A16709  36.140  12.879   7.955
 6656POPC   C4A16710  36.084  12.893   7.655
 6656POPC   C1B16711  36.350  12.947   8.555
 6656POPC   C2B16712  36.333  12.963   8.255
 6656POPC   C3B16713  36.380  12.928   7.955
 6656POPC   C4B16714  36.364  12.988   7.655
 6657POPC   NC316715  44.696  20.639   9.455
 6657POPC   PO416716  44.664  20.625   9.155
 6657POPC   GL116717  44.700  20.599   8.855
 6657POPC   GL216718  44.562  20.490   8.855
 6657POPC   C1A16719  44.628  20.652   8.555
 6657POPC   D2A16720  44.650  20.593   8.255
 6657POPC   C3A16721  44.698  20.633   7.955
 6657POPC   C4A16722  44.629  20.643   7.655
 6657POPC   C1B16723  44.494  20.457   8.555
 6657POPC   C2B16724  44.451  20.470   8.255
 6657POPC   C3B16725  44.468  20.484   7.955
 6657POPC   C4B16726  44.504  20.460   7.655
 6658POPC   NC316727  11.333  34.527   9.455
 6658POPC   PO416728  11.312  34.584   9.155
 6658POPC   GL116729  11.323  34.614   8.855
 6658POPC   GL216730  11.178  34.536   8.855
 6658POPC   C1A16731  11.332  34.575   8.555
 6658POPC   D2A16732  11.339  34.542   8.255
 6658POPC   C3A16733  11.328  34.623   7.955
 6658POPC   C4A16734  11.297  34.564   7.655
 6658POPC   C1B16735  11.097  34.399   8.555
 6658POPC   C2B16736  11.097  34.393   8.255
 6658POPC   C3B16737  11.083  34.374   7.955
 6658POPC   C4B16738  11.078  34.373   7.655
 6659POPC   NC316739  12.897  12.078   9.455
 6659POPC   PO416740  12.806  12.109   9.155
 6659POPC   GL116741  12.898  12.026   8.855
 6659POPC   GL216742  12.944  11.974   8.855
 6659POPC   C1A16743  12.803  12.039   8.555
 6659POPC   D2A16744  12.804  12.054   8.255
 6659POPC   C3A16745  12.864  12.068   7.955
 6659POPC   C4A16746  12.893  12.067   7.655
 6659POPC   C1B16747  12.970  11.881   8.555
 6659POPC   C2B16748  13.005  11.852   8.255
 6659POPC   C3B16749  13.027  11.819   7.955
 6659POPC   C4B16750  13.012  11.907   7.655
 6660POPC   NC316751  42.383  27.599   9.455
 6660POPC   PO416752  42.298  27.547   9.155
 6660POPC   GL116753  42.380  27.594   8.855
 6660POPC   GL216754  42.215  27.648   8.855
 6660POPC   C1A16755  42.364  27.574   8.555
 6660POPC   D2A16756  42.351  27.609   8.255
 6660POPC   C3A16757  42.347  27.583   7.955
 6660POPC   C4A16758  42.328  27.554   7.655
 6660POPC   C1B16759  42.136  27.682   8.555
 6660POPC   C2B16760  42.096  27.627   8.255
 6660POPC   C3B16761  42.125  27.671   7.955
 6660POPC   C4B16762  42.145  27.653   7.655
 6661POPC   NC316763   0.422  34.605   9.455
 6661POPC   PO416764   0.427  34.558   9.155
 6661POPC   GL116765   0.420  34.554   8.855
 6661POPC   GL216766   0.450  34.494   8.855
 6661POPC   C1A16767   0.431  34.597   8.555
 6661POPC   D2A16768   0.438  34.548   8.255
 6661POPC   C3A16769   0.397  34.535   7.955
 6661POPC   C4A16770   0.429  34.622   7.655
 6661POPC   C1B16771   0.535  34.337   8.555
 6661POPC   C2B16772   0.544  34.389   8.255
 6661POPC   C3B16773   0.561  34.331   7.955
 6661POPC   C4B16774   0.515  34.363   7.655
 6662POPC   NC316775  43.922  43.114   9.455
 6662POPC   PO416776  43.897  43.064   9.155
 6662POPC   GL116777  43.934  43.073   8.855
 6662POPC   GL216778  43.869  42.985   8.855
 6662POPC   C1A16779  43.882  43.063   8.555
 6662POPC   D2A16780  43.913  43.096   8.255
 6662POPC   C3A16781  43.861  43.094   7.955
 6662POPC   C4A16782  43.867  43.074   7.655
 6662POPC   C1B16783  43.849  42.914   8.555
 6662POPC   C2B16784  43.820  42.832   8.255
 6662POPC   C3B16785  43.793  42.851   7.955
 6662POPC   C4B16786  43.807  42.914   7.655
 6663POPC   NC316787  15.962   2.719   9.455
 6663POPC   PO416788  15.973   2.800   9.155
 6663POPC   GL116789  15.968   2.765   8.855
 6663POPC   GL216790  16.086   2.751   8.855
 6663POPC   C1A16791  15.916   2.716   8.555
 6663POPC   D2A16792  15.961   2.737   8.255
 6663POPC   C3A16793  15.979   2.739   7.955
 6663POPC   C4A16794  15.918   2.787   7.655
 6663POPC   C1B16795  16.216   2.645   8.555
 6663POPC   C2B16796  16.148   2.727   8.255
 6663POPC   C3B16797  16.244   2.647   7.955
 6663POPC   C4B16798  16.175   2.652   7.655
 6664POPC   NC316799  15.181  15.982   9.455
 6664POPC   PO416800  15.172  15.983   9.155
 6664POPC   GL116801  15.218  15.983   8.855
 6664POPC   GL216802  15.129  15.838   8.855
 6664POPC   C1A16803  15.154  15.944   8.555
 6664POPC   D2A16804  15.223  15.927   8.255
 6664POPC   C3A16805  15.161  15.933   7.955
 6664POPC   C4A16806  15.205  15.913   7.655
 6664POPC   C1B16807  15.088  15.702   8.555
 6664POPC   C2B16808  15.114  15.732   8.255
 6664POPC   C3B16809  15.130  15.759   7.955
 6664POPC   C4B16810  15.066  15.674   7.655
 6665POPC   NC316811  39.233   5.071   9.455
 6665POPC   PO416812  39.226   5.108   9.155
 6665POPC   GL116813  39.195   5.090   8.855
 6665POPC   GL216814  39.265   4.995   8.855
 6665POPC   C1A16815  39.213   5.117   8.555
 6665POPC   D2A16816  39.187   5.084   8.255
 6665POPC   C3A16817  39.280   5.077   7.955
 6665POPC   C4A16818  39.236   5.061   7.655
 6665POPC   C1B16819  39.328   4.835   8.555
 6665POPC   C2B16820  39.266   4.816   8.255
 6665POPC   C3B16821  39.326   4.847   7.955
 6665POPC   C4B16822  39.298   4.843   7.655
 6666POPC   NC316823  22.202  14.370   9.455
 6666POPC   PO416824  22.142  14.431   9.155
 6666POPC   GL116825  22.179  14.372   8.855
 6666POPC   GL216826  22.091  14.472   8.855
 6666POPC   C1A16827  22.167  14.396   8.555
 6666POPC   D2A16828  22.201  14.439   8.255
 6666POPC   C3A16829  22.129  14.385   7.955
 6666POPC   C4A16830  22.169  14.379   7.655
 6666POPC   C1B16831  21.913  14.492   8.555
 6666POPC   C2B16832  21.897  14.513   8.255
 6666POPC   C3B16833  21.920  14.543   7.955
 6666POPC   C4B16834  21.982  14.524   7.655
 6667POPC   NC316835  43.869   7.382   9.455
 6667POPC   PO416836  43.907   7.460   9.155
 6667POPC   GL116837  43.901   7.393   8.855
 6667POPC   GL216838  43.829   7.259   8.855
 6667POPC   C1A16839  43.925   7.432   8.555
 6667POPC   D2A16840  43.858   7.420   8.255
 6667POPC   C3A16841  43.851   7.427   7.955
 6667POPC   C4A16842  43.845   7.442   7.655
 6667POPC   C1B16843  43.752   7.190   8.555
 6667POPC   C2B16844  43.835   7.151   8.255
 6667POPC   C3B16845  43.816   7.169   7.955
 6667POPC   C4B16846  43.824   7.212   7.655
 6668POPC   NC316847  27.599   8.984   9.455
 6668POPC   PO416848  27.597   9.000   9.155
 6668POPC   GL116849  27.548   9.010   8.855
 6668POPC   GL216850  27.699   9.026   8.855
 6668POPC   C1A16851  27.632   9.001   8.555
 6668POPC   D2A16852  27.612   8.971   8.255
 6668POPC   C3A16853  27.587   8.989   7.955
 6668POPC   C4A16854  27.620   8.993   7.655
 6668POPC   C1B16855  27.791   9.155   8.555
 6668POPC   C2B16856  27.744   9.094   8.255
 6668POPC   C3B16857  27.797   9.185   7.955
 6668POPC   C4B16858  27.766   9.124   7.655
 6669POPC   NC316859  21.434  15.147   9.455
 6669POPC   PO416860  21.415  15.197   9.155
 6669POPC   GL116861  21.428  15.168   8.855
 6669POPC   GL216862  21.227  15.134   8.855
 6669POPC   C1A16863  21.428  15.174   8.555
 6669POPC   D2A16864  21.428  15.160   8.255
 6669POPC   C3A16865  21.376  15.139   7.955
 6669POPC   C4A16866  21.403  15.188   7.655
 6669POPC   C1B16867  21.156  15.123   8.555
 6669POPC   C2B16868  21.141  15.151   8.255
 6669POPC   C3B16869  21.128  15.124   7.955
 6669POPC   C4B16870  21.167  15.159   7.655
 6670POPC   NC316871  26.027  23.688   9.455
 6670POPC   PO416872  26.062  23.711   9.155
 6670POPC   GL116873  26.064  23.679   8.855
 6670POPC   GL216874  26.067  23.589   8.855
 6670POPC   C1A16875  26.010  23.688   8.555
 6670POPC   D2A16876  26.087  23.739   8.255
 6670POPC   C3A16877  26.076  23.699   7.955
 6670POPC   C4A16878  26.073  23.744   7.655
 6670POPC   C1B16879  25.972  23.478   8.555
 6670POPC   C2B16880  25.996  23.427   8.255
 6670POPC   C3B16881  25.955  23.488   7.955
 6670POPC   C4B16882  25.978  23.491   7.655
 6671POPC   NC316883   7.414  17.497   9.455
 6671POPC   PO416884   7.431  17.498   9.155
 6671POPC   GL116885   7.379  17.478   8.855
 6671POPC   GL216886   7.571  17.498   8.855
 6671POPC   C1A16887   7.379  17.475   8.555
 6671POPC   D2A16888   7.438  17.469   8.255
 6671POPC   C3A16889   7.401  17.458   7.955
 6671POPC   C4A16890   7.462  17.530   7.655
 6671POPC   C1B16891   7.656  17.529   8.555
 6671POPC   C2B16892   7.697  17.507   8.255
 6671POPC   C3B16893   7.652  17.456   7.955
 6671POPC   C4B16894   7.690  17.528   7.655
 6672POPC   NC316895  39.988   6.636   9.455
 6672POPC   PO416896  40.047   6.686   9.155
 6672POPC   GL116897  40.001   6.686   8.855
 6672POPC   GL216898  40.001   6.526   8.855
 6672POPC   C1A16899  40.042   6.672   8.555
 6672POPC   D2A16900  40.003   6.667   8.255
 6672POPC   C3A16901  40.036   6.663   7.955
 6672POPC   C4A16902  40.052   6.665   7.655
 6672POPC   C1B16903  40.014   6.349   8.555
 6672POPC   C2B16904  39.999   6.404   8.255
 6672POPC   C3B16905  39.967   6.427   7.955
 6672POPC   C4B16906  39.983   6.418   7.655
 6673POPC   NC316907  25.278  28.415   9.455
 6673POPC   PO416908  25.273  28.335   9.155
 6673POPC   GL116909  25.253  28.333   8.855
 6673POPC   GL216910  25.101  28.358   8.855
 6673POPC   C1A16911  25.314  28.400   8.555
 6673POPC   D2A16912  25.270  28.359   8.255
 6673POPC   C3A16913  25.270  28.331   7.955
 6673POPC   C4A16914  25.242  28.379   7.655
 6673POPC   C1B16915  25.040  28.462   8.555
 6673POPC   C2B16916  25.058  28.419   8.255
 6673POPC   C3B16917  25.013  28.412   7.955
 6673POPC   C4B16918  25.050  28.475   7.655
 6674POPC   NC316919   2.794   4.358   9.455
 6674POPC   PO416920   2.731   4.348   9.155
 6674POPC   GL116921   2.740   4.277   8.855
 6674POPC   GL216922   2.854   4.408   8.855
 6674POPC   C1A16923   2.802   4.318   8.555
 6674POPC   D2A16924   2.761   4.307   8.255
 6674POPC   C3A16925   2.731   4.355   7.955
 6674POPC   C4A16926   2.734   4.362   7.655
 6674POPC   C1B16927   3.033   4.379   8.555
 6674POPC   C2B16928   3.041   4.461   8.255
 6674POPC   C3B16929   2.947   4.377   7.955
 6674POPC   C4B16930   3.008   4.401   7.655
 6675POPC   NC316931  12.879  44.638   9.455
 6675POPC   PO416932  12.892  44.689   9.155
 6675POPC   GL116933  12.853  44.629   8.855
 6675POPC   GL216934  12.927  44.650   8.855
 6675POPC   C1A16935  12.817  44.662   8.555
 6675POPC   D2A16936  12.812  44.692   8.255
 6675POPC   C3A16937  12.887  44.667   7.955
 6675POPC   C4A16938  12.854  44.630   7.655
 6675POPC   C1B16939  13.127  44.689   8.555
 6675POPC   C2B16940  13.112  44.688   8.255
 6675POPC   C3B16941  13.116  44.749   7.955
 6675POPC   C4B16942  13.086  44.709   7.655
 6676POPC   NC316943  34.589  13.586   9.455
 6676POPC   PO416944  34.577  13.637   9.155
 6676POPC   GL116945  34.532  13.651   8.855
 6676POPC   GL216946  34.618  13.707   8.855
 6676POPC   C1A16947  34.603  13.610   8.555
 6676POPC   D2A16948  34.558  13.617   8.255
 6676POPC   C3A16949  34.532  13.581   7.955
 6676POPC   C4A16950  34.562  13.598   7.655
 6676POPC   C1B16951  34.637  13.918   8.555
 6676POPC   C2B16952  34.632  13.875   8.255
 6676POPC   C3B16953  34.619  13.896   7.955
 6676POPC   C4B16954  34.588  13.841   7.655
 6677POPC   NC316955   6.651  42.305   9.455
 6677POPC   PO416956   6.605  42.288   9.155
 6677POPC   GL116957   6.665  42.377   8.855
 6677POPC   GL216958   6.724  42.182   8.855
 6677POPC   C1A16959   6.634  42.332   8.555
 6677POPC   D2A16960   6.598  42.337   8.255
 6677POPC   C3A16961   6.628  42.346   7.955
 6677POPC   C4A16962   6.599  42.353   7.655
 6677POPC   C1B16963   6.733  42.092   8.555
 6677POPC   C2B16964   6.688  42.043   8.255
 6677POPC   C3B16965   6.681  42.122   7.955
 6677POPC   C4B16966   6.750  42.059   7.655
 6678POPC   NC316967  33.765  28.354   9.455
 6678POPC   PO416968  33.832  28.379   9.155
 6678POPC   GL116969  33.753  28.368   8.855
 6678POPC   GL216970  33.699  28.222   8.855
 6678POPC   C1A16971  33.763  28.320   8.555
 6678POPC   D2A16972  33.762  28.341   8.255
 6678POPC   C3A16973  33.785  28.327   7.955
 6678POPC   C4A16974  33.828  28.388   7.655
 6678POPC   C1B16975  33.689  28.182   8.555
 6678POPC   C2B16976  33.678  28.112   8.255
 6678POPC   C3B16977  33.688  28.100   7.955
 6678POPC   C4B16978  33.640  28.097   7.655
 6679POPC   NC316979   8.174  39.984   9.455
 6679POPC   PO416980   8.187  39.980   9.155
 6679POPC   GL116981   8.165  40.042   8.855
 6679POPC   GL216982   8.370  40.026   8.855
 6679POPC   C1A16983   8.196  40.006   8.555
 6679POPC   D2A16984   8.168  40.036   8.255
 6679POPC   C3A16985   8.187  39.961   7.955
 6679POPC   C4A16986   8.236  40.006   7.655
 6679POPC   C1B16987   8.494  39.939   8.555
 6679POPC   C2B16988   8.463  40.006   8.255
 6679POPC   C3B16989   8.470  39.969   7.955
 6679POPC   C4B16990   8.404  40.018   7.655
 6680POPC   NC316991  16.729  35.342   9.455
 6680POPC   PO416992  16.757  35.340   9.155
 6680POPC   GL116993  16.749  35.333   8.855
 6680POPC   GL216994  16.662  35.327   8.855
 6680POPC   C1A16995  16.781  35.372   8.555
 6680POPC   D2A16996  16.769  35.401   8.255
 6680POPC   C3A16997  16.718  35.316   7.955
 6680POPC   C4A16998  16.779  35.326   7.655
 6680POPC   C1B16999  16.555  35.240   8.555
 6680POPC   C2B17000  16.461  35.233   8.255
 6680POPC   C3B17001  16.493  35.229   7.955
 6680POPC   C4B17002  16.498  35.280   7.655
 6681POPC   NC317003   8.157   4.344   9.455
 6681POPC   PO417004   8.194   4.348   9.155
 6681POPC   GL117005   8.185   4.352   8.855
 6681POPC   GL217006   8.255   4.393   8.855
 6681POPC   C1A17007   8.165   4.284   8.555
 6681POPC   D2A17008   8.176   4.293   8.255
 6681POPC   C3A17009   8.172   4.330   7.955
 6681POPC   C4A17010   8.149   4.353   7.655
 6681POPC   C1B17011   8.280   4.562   8.555
 6681POPC   C2B17012   8.300   4.545   8.255
 6681POPC   C3B17013   8.238   4.567   7.955
 6681POPC   C4B17014   8.262   4.521   7.655
 6682POPC   NC317015  43.127   3.585   9.455
 6682POPC   PO417016  43.062   3.562   9.155
 6682POPC   GL117017  43.103   3.518   8.855
 6682POPC   GL217018  43.189   3.563   8.855
 6682POPC   C1A17019  43.137   3.560   8.555
 6682POPC   D2A17020  43.096   3.591   8.255
 6682POPC   C3A17021  43.099   3.584   7.955
 6682POPC   C4A17022  43.112   3.518   7.655
 6682POPC   C1B17023  43.362   3.608   8.555
 6682POPC   C2B17024  43.341   3.628   8.255
 6682POPC   C3B17025  43.384   3.581   7.955
 6682POPC   C4B17026  43.356   3.628   7.655
 6683POPC   NC317027  21.392  26.845   9.455
 6683POPC   PO417028  21.432  26.771   9.155
 6683POPC   GL117029  21.367  26.840   8.855
 6683POPC   GL217030  21.412  26.644   8.855
 6683POPC   C1A17031  21.383  26.829   8.555
 6683POPC   D2A17032  21.351  26.801   8.255
 6683POPC   C3A17033  21.415  26.836   7.955
 6683POPC   C4A17034  21.393  26.781   7.655
 6683POPC   C1B17035  21.354  26.533   8.555
 6683POPC   C2B17036  21.358  26.533   8.255
 6683POPC   C3B17037  21.355  26.579   7.955
 6683POPC   C4B17038  21.390  26.531   7.655
 6684POPC   NC317039   2.791   9.726   9.455
 6684POPC   PO417040   2.779   9.761   9.155
 6684POPC   GL117041   2.745   9.726   8.855
 6684POPC   GL217042   2.860   9.701   8.855
 6684POPC   C1A17043   2.724   9.707   8.555
 6684POPC   D2A17044   2.730   9.745   8.255
 6684POPC   C3A17045   2.778   9.785   7.955
 6684POPC   C4A17046   2.778   9.749   7.655
 6684POPC   C1B17047   2.897   9.537   8.555
 6684POPC   C2B17048   2.906   9.538   8.255
 6684POPC   C3B17049   2.916   9.511   7.955
 6684POPC   C4B17050   2.969   9.545   7.655
 6685POPC   NC317051  18.270  33.819   9.455
 6685POPC   PO417052  18.251  33.840   9.155
 6685POPC   GL117053  18.319  33.776   8.855
 6685POPC   GL217054  18.259  33.957   8.855
 6685POPC   C1A17055  18.237  33.803   8.555
 6685POPC   D2A17056  18.306  33.780   8.255
 6685POPC   C3A17057  18.254  33.763   7.955
 6685POPC   C4A17058  18.312  33.786   7.655
 6685POPC   C1B17059  18.201  34.010   8.555
 6685POPC   C2B17060  18.229  34.009   8.255
 6685POPC   C3B17061  18.244  34.010   7.955
 6685POPC   C4B17062  18.226  34.030   7.655
 6686POPC   NC317063  29.172  12.031   9.455
 6686POPC   PO417064  29.159  12.095   9.155
 6686POPC   GL117065  29.102  12.094   8.855
 6686POPC   GL217066  29.221  12.130   8.855
 6686POPC   C1A17067  29.161  12.118   8.555
 6686POPC   D2A17068  29.112  12.073   8.255
 6686POPC   C3A17069  29.095  12.051   7.955
 6686POPC   C4A17070  29.167  12.051   7.655
 6686POPC   C1B17071  29.385  12.213   8.555
 6686POPC   C2B17072  29.326  12.185   8.255
 6686POPC   C3B17073  29.323  12.190   7.955
 6686POPC   C4B17074  29.368  12.174   7.655
 6687POPC   NC317075   1.178   8.171   9.455
 6687POPC   PO417076   1.202   8.206   9.155
 6687POPC   GL117077   1.216   8.183   8.855
 6687POPC   GL217078   1.064   8.131   8.855
 6687POPC   C1A17079   1.255   8.175   8.555
 6687POPC   D2A17080   1.218   8.171   8.255
 6687POPC   C3A17081   1.223   8.155   7.955
 6687POPC   C4A17082   1.224   8.200   7.655
 6687POPC   C1B17083   1.022   8.039   8.555
 6687POPC   C2B17084   1.006   8.098   8.255
 6687POPC   C3B17085   1.028   8.094   7.955
 6687POPC   C4B17086   1.009   8.030   7.655
 6688POPC   NC317087  19.056   4.308   9.455
 6688POPC   PO417088  19.077   4.340   9.155
 6688POPC   GL117089  19.042   4.273   8.855
 6688POPC   GL217090  18.986   4.245   8.855
 6688POPC   C1A17091  19.041   4.318   8.555
 6688POPC   D2A17092  19.056   4.273   8.255
 6688POPC   C3A17093  19.051   4.313   7.955
 6688POPC   C4A17094  19.042   4.297   7.655
 6688POPC   C1B17095  18.808   4.223   8.555
 6688POPC   C2B17096  18.808   4.258   8.255
 6688POPC   C3B17097  18.775   4.234   7.955
 6688POPC   C4B17098  18.835   4.217   7.655
 6689POPC   NC317099  22.174   0.419   9.455
 6689POPC   PO417100  22.158   0.430   9.155
 6689POPC   GL117101  22.176   0.463   8.855
 6689POPC   GL217102  22.225   0.480   8.855
 6689POPC   C1A17103  22.148   0.438   8.555
 6689POPC   D2A17104  22.206   0.397   8.255
 6689POPC   C3A17105  22.155   0.451   7.955
 6689POPC   C4A17106  22.177   0.470   7.655
 6689POPC   C1B17107  22.359   0.548   8.555
 6689POPC   C2B17108  22.353   0.551   8.255
 6689POPC   C3B17109  22.358   0.582   7.955
 6689POPC   C4B17110  22.361   0.532   7.655
 6690POPC   NC317111  35.392  30.661   9.455
 6690POPC   PO417112  35.322  30.694   9.155
 6690POPC   GL117113  35.342  30.691   8.855
 6690POPC   GL217114  35.340  30.587   8.855
 6690POPC   C1A17115  35.332  30.698   8.555
 6690POPC   D2A17116  35.345  30.664   8.255
 6690POPC   C3A17117  35.386  30.664   7.955
 6690POPC   C4A17118  35.319  30.701   7.655
 6690POPC   C1B17119  35.261  30.480   8.555
 6690POPC   C2B17120  35.233  30.410   8.255
 6690POPC   C3B17121  35.322  30.471   7.955
 6690POPC   C4B17122  35.258  30.486   7.655
 6691POPC   NC317123  33.050   7.437   9.455
 6691POPC   PO417124  33.073   7.382   9.155
 6691POPC   GL117125  33.014   7.402   8.855
 6691POPC   GL217126  33.057   7.315   8.855
 6691POPC   C1A17127  33.045   7.402   8.555
 6691POPC   D2A17128  32.991   7.464   8.255
 6691POPC   C3A17129  33.040   7.386   7.955
 6691POPC   C4A17130  32.978   7.454   7.655
 6691POPC   C1B17131  33.122   7.226   8.555
 6691POPC   C2B17132  33.056   7.200   8.255
 6691POPC   C3B17133  33.110   7.168   7.955
 6691POPC   C4B17134  33.074   7.133   7.655
 6692POPC   NC317135  40.023  14.354   9.455
 6692POPC   PO417136  39.998  14.403   9.155
 6692POPC   GL117137  40.054  14.445   8.855
 6692POPC   GL217138  40.127  14.395   8.855
 6692POPC   C1A17139  40.044  14.394   8.555
 6692POPC   D2A17140  39.968  14.436   8.255
 6692POPC   C3A17141  40.029  14.401   7.955
 6692POPC   C4A17142  39.984  14.354   7.655
 6692POPC   C1B17143  40.225  14.274   8.555
 6692POPC   C2B17144  40.276  14.312   8.255
 6692POPC   C3B17145  40.206  14.303   7.955
 6692POPC   C4B17146  40.215  14.247   7.655
 6693POPC   NC317147  22.970  42.298   9.455
 6693POPC   PO417148  22.952  42.301   9.155
 6693POPC   GL117149  22.946  42.369   8.855
 6693POPC   GL217150  22.959  42.204   8.855
 6693POPC   C1A17151  22.959  42.327   8.555
 6693POPC   D2A17152  22.944  42.316   8.255
 6693POPC   C3A17153  22.891  42.335   7.955
 6693POPC   C4A17154  22.889  42.313   7.655
 6693POPC   C1B17155  23.068  42.152   8.555
 6693POPC   C2B17156  23.062  42.131   8.255
 6693POPC   C3B17157  23.010  42.063   7.955
 6693POPC   C4B17158  23.076  42.102   7.655
 6694POPC   NC317159   8.956  22.212   9.455
 6694POPC   PO417160   8.960  22.160   9.155
 6694POPC   GL117161   8.953  22.140   8.855
 6694POPC   GL217162   8.834  22.170   8.855
 6694POPC   C1A17163   8.924  22.146   8.555
 6694POPC   D2A17164   8.999  22.164   8.255
 6694POPC   C3A17165   8.948  22.136   7.955
 6694POPC   C4A17166   9.019  22.117   7.655
 6694POPC   C1B17167   8.704  22.248   8.555
 6694POPC   C2B17168   8.742  22.235   8.255
 6694POPC   C3B17169   8.690  22.228   7.955
 6694POPC   C4B17170   8.761  22.272   7.655
 6695POPC   NC317171  16.682  43.071   9.455
 6695POPC   PO417172  16.683  43.098   9.155
 6695POPC   GL117173  16.761  43.093   8.855
 6695POPC   GL217174  16.650  43.032   8.855
 6695POPC   C1A17175  16.712  43.069   8.555
 6695POPC   D2A17176  16.767  43.067   8.255
 6695POPC   C3A17177  16.745  43.144   7.955
 6695POPC   C4A17178  16.776  43.128   7.655
 6695POPC   C1B17179  16.659  42.907   8.555
 6695POPC   C2B17180  16.594  42.853   8.255
 6695POPC   C3B17181  16.653  42.836   7.955
 6695POPC   C4B17182  16.630  42.841   7.655
 6696POPC   NC317183  15.223  36.087   9.455
 6696POPC   PO417184  15.207  36.087   9.155
 6696POPC   GL117185  15.215  36.141   8.855
 6696POPC   GL217186  15.106  36.216   8.855
 6696POPC   C1A17187  15.178  36.135   8.555
 6696POPC   D2A17188  15.180  36.111   8.255
 6696POPC   C3A17189  15.198  36.084   7.955
 6696POPC   C4A17190  15.180  36.138   7.655
 6696POPC   C1B17191  14.946  36.267   8.555
 6696POPC   C2B17192  14.965  36.306   8.255
 6696POPC   C3B17193  14.978  36.289   7.955
 6696POPC   C4B17194  14.986  36.278   7.655
 6697POPC   NC317195  39.265  24.460   9.455
 6697POPC   PO417196  39.259  24.453   9.155
 6697POPC   GL117197  39.191  24.498   8.855
 6697POPC   GL217198  39.297  24.416   8.855
 6697POPC   C1A17199  39.251  24.485   8.555
 6697POPC   D2A17200  39.218  24.492   8.255
 6697POPC   C3A17201  39.252  24.463   7.955
 6697POPC   C4A17202  39.191  24.500   7.655
 6697POPC   C1B17203  39.408  24.316   8.555
 6697POPC   C2B17204  39.400  24.339   8.255
 6697POPC   C3B17205  39.388  24.322   7.955
 6697POPC   C4B17206  39.458  24.281   7.655
 6698POPC   NC317207   2.720  44.643   9.455
 6698POPC   PO417208   2.811  44.649   9.155
 6698POPC   GL117209   2.759  44.665   8.855
 6698POPC   GL217210   2.662  44.773   8.855
 6698POPC   C1A17211   2.746  44.701   8.555
 6698POPC   D2A17212   2.767  44.695   8.255
 6698POPC   C3A17213   2.775  44.697   7.955
 6698POPC   C4A17214   2.796  44.680   7.655
 6698POPC   C1B17215   2.575  44.878   8.555
 6698POPC   C2B17216   2.561  44.882   8.255
 6698POPC   C3B17217   2.610  44.806   7.955
 6698POPC   C4B17218   2.625  44.830   7.655
 6699POPC   NC317219  24.514  27.552   9.455
 6699POPC   PO417220  24.486  27.624   9.155
 6699POPC   GL117221  24.479  27.560   8.855
 6699POPC   GL217222  24.340  27.639   8.855
 6699POPC   C1A17223  24.463  27.546   8.555
 6699POPC   D2A17224  24.514  27.587   8.255
 6699POPC   C3A17225  24.535  27.641   7.955
 6699POPC   C4A17226  24.474  27.631   7.655
 6699POPC   C1B17227  24.224  27.679   8.555
 6699POPC   C2B17228  24.234  27.710   8.255
 6699POPC   C3B17229  24.236  27.712   7.955
 6699POPC   C4B17230  24.263  27.742   7.655
 6700POPC   NC317231  18.268  26.036   9.455
 6700POPC   PO417232  18.267  25.997   9.155
 6700POPC   GL117233  18.272  26.085   8.855
 6700POPC   GL217234  18.397  25.984   8.855
 6700POPC   C1A17235  18.234  26.026   8.555
 6700POPC   D2A17236  18.247  26.085   8.255
 6700POPC   C3A17237  18.291  26.083   7.955
 6700POPC   C4A17238  18.304  26.015   7.655
 6700POPC   C1B17239  18.392  25.876   8.555
 6700POPC   C2B17240  18.447  25.875   8.255
 6700POPC   C3B17241  18.411  25.874   7.955
 6700POPC   C4B17242  18.461  25.816   7.655
 6701POPC   NC317243  22.142  15.947   9.455
 6701POPC   PO417244  22.135  15.982   9.155
 6701POPC   GL117245  22.140  15.925   8.855
 6701POPC   GL217246  22.213  16.026   8.855
 6701POPC   C1A17247  22.148  15.988   8.555
 6701POPC   D2A17248  22.205  15.989   8.255
 6701POPC   C3A17249  22.195  15.997   7.955
 6701POPC   C4A17250  22.204  15.949   7.655
 6701POPC   C1B17251  22.322  16.216   8.555
 6701POPC   C2B17252  22.311  16.199   8.255
 6701POPC   C3B17253  22.303  16.200   7.955
 6701POPC   C4B17254  22.261  16.219   7.655
 6702POPC   NC317255  15.991  43.898   9.455
 6702POPC   PO417256  15.922  43.837   9.155
 6702POPC   GL117257  15.982  43.862   8.855
 6702POPC   GL217258  15.909  44.043   8.855
 6702POPC   C1A17259  15.984  43.858   8.555
 6702POPC   D2A17260  16.004  43.874   8.255
 6702POPC   C3A17261  15.949  43.913   7.955
 6702POPC   C4A17262  15.944  43.878   7.655
 6702POPC   C1B17263  15.831  44.098   8.555
 6702POPC   C2B17264  15.807  44.130   8.255
 6702POPC   C3B17265  15.866  44.105   7.955
 6702POPC   C4B17266  15.841  44.060   7.655
 6703POPC   NC317267   6.622  37.700   9.455
 6703POPC   PO417268   6.675  37.695   9.155
 6703POPC   GL117269   6.604  37.704   8.855
 6703POPC   GL217270   6.735  37.700   8.855
 6703POPC   C1A17271   6.678  37.724   8.555
 6703POPC   D2A17272   6.654  37.651   8.255
 6703POPC   C3A17273   6.624  37.699   7.955
 6703POPC   C4A17274   6.626  37.680   7.655
 6703POPC   C1B17275   6.930  37.717   8.555
 6703POPC   C2B17276   6.868  37.654   8.255
 6703POPC   C3B17277   6.855  37.655   7.955
 6703POPC   C4B17278   6.914  37.657   7.655
 6704POPC   NC317279  44.677  29.876   9.455
 6704POPC   PO417280  44.621  29.907   9.155
 6704POPC   GL117281  44.655  29.948   8.855
 6704POPC   GL217282  44.709  30.062   8.855
 6704POPC   C1A17283  44.654  29.937   8.555
 6704POPC   D2A17284  44.649  29.942   8.255
 6704POPC   C3A17285  44.633  29.883   7.955
 6704POPC   C4A17286  44.655  29.873   7.655
 6704POPC   C1B17287  44.798  30.091   8.555
 6704POPC   C2B17288  44.745  30.093   8.255
 6704POPC   C3B17289  44.792  30.154   7.955
 6704POPC   C4B17290  44.762  30.185   7.655
 6705POPC   NC317291  22.911  19.069   9.455
 6705POPC   PO417292  22.972  19.020   9.155
 6705POPC   GL117293  22.909  19.078   8.855
 6705POPC   GL217294  23.085  19.059   8.855
 6705POPC   C1A17295  22.925  19.100   8.555
 6705POPC   D2A17296  22.920  19.053   8.255
 6705POPC   C3A17297  22.977  19.020   7.955
 6705POPC   C4A17298  22.899  19.061   7.655
 6705POPC   C1B17299  23.218  19.122   8.555
 6705POPC   C2B17300  23.158  19.145   8.255
 6705POPC   C3B17301  23.128  19.117   7.955
 6705POPC   C4B17302  23.213  19.097   7.655
 6706POPC   NC317303  31.445  15.183   9.455
 6706POPC   PO417304  31.438  15.140   9.155
 6706POPC   GL117305  31.475  15.151   8.855
 6706POPC   GL217306  31.468  15.047   8.855
 6706POPC   C1A17307  31.488  15.175   8.555
 6706POPC   D2A17308  31.443  15.210   8.255
 6706POPC   C3A17309  31.465  15.153   7.955
 6706POPC   C4A17310  31.498  15.135   7.655
 6706POPC   C1B17311  31.476  14.979   8.555
 6706POPC   C2B17312  31.502  14.894   8.255
 6706POPC   C3B17313  31.472  14.882   7.955
 6706POPC   C4B17314  31.477  14.939   7.655
 6707POPC   NC317315  16.776   6.673   9.455
 6707POPC   PO417316  16.692   6.661   9.155
 6707POPC   GL117317  16.756   6.688   8.855
 6707POPC   GL217318  16.586   6.584   8.855
 6707POPC   C1A17319  16.757   6.688   8.555
 6707POPC   D2A17320  16.693   6.671   8.255
 6707POPC   C3A17321  16.706   6.648   7.955
 6707POPC   C4A17322  16.732   6.660   7.655
 6707POPC   C1B17323  16.480   6.499   8.555
 6707POPC   C2B17324  16.491   6.561   8.255
 6707POPC   C3B17325  16.527   6.519   7.955
 6707POPC   C4B17326  16.510   6.561   7.655
 6708POPC   NC317327  29.926  22.908   9.455
 6708POPC   PO417328  29.929  22.952   9.155
 6708POPC   GL117329  29.895  22.984   8.855
 6708POPC   GL217330  29.928  23.047   8.855
 6708POPC   C1A17331  29.919  22.937   8.555
 6708POPC   D2A17332  29.878  22.962   8.255
 6708POPC   C3A17333  29.902  22.984   7.955
 6708POPC   C4A17334  29.895  22.896   7.655
 6708POPC   C1B17335  30.015  23.145   8.555
 6708POPC   C2B17336  30.064  23.128   8.255
 6708POPC   C3B17337  29.970  23.198   7.955
 6708POPC   C4B17338  30.061  23.219   7.655
 6709POPC   NC317339  42.322  34.535   9.455
 6709POPC   PO417340  42.324  34.605   9.155
 6709POPC   GL117341  42.307  34.562   8.855
 6709POPC   GL217342  42.340  34.696   8.855
 6709POPC   C1A17343  42.372  34.552   8.555
 6709POPC   D2A17344  42.320  34.588   8.255
 6709POPC   C3A17345  42.330  34.603   7.955
 6709POPC   C4A17346  42.378  34.593   7.655
 6709POPC   C1B17347  42.285  34.797   8.555
 6709POPC   C2B17348  42.227  34.770   8.255
 6709POPC   C3B17349  42.284  34.794   7.955
 6709POPC   C4B17350  42.270  34.826   7.655
 6710POPC   NC317351  33.014  36.942   9.455
 6710POPC   PO417352  33.023  36.941   9.155
 6710POPC   GL117353  33.057  36.937   8.855
 6710POPC   GL217354  33.069  37.049   8.855
 6710POPC   C1A17355  33.070  36.910   8.555
 6710POPC   D2A17356  32.994  36.912   8.255
 6710POPC   C3A17357  33.005  36.898   7.955
 6710POPC   C4A17358  33.023  36.941   7.655
 6710POPC   C1B17359  33.052  37.192   8.555
 6710POPC   C2B17360  33.029  37.160   8.255
 6710POPC   C3B17361  33.027  37.105   7.955
 6710POPC   C4B17362  33.040  37.161   7.655
 6711POPC   NC317363  15.954  30.665   9.455
 6711POPC   PO417364  15.954  30.724   9.155
 6711POPC   GL117365  15.960  30.703   8.855
 6711POPC   GL217366  15.890  30.641   8.855
 6711POPC   C1A17367  16.000  30.662   8.555
 6711POPC   D2A17368  15.977  30.721   8.255
 6711POPC   C3A17369  15.986  30.698   7.955
 6711POPC   C4A17370  15.921  30.727   7.655
 6711POPC   C1B17371  15.736  30.488   8.555
 6711POPC   C2B17372  15.808  30.559   8.255
 6711POPC   C3B17373  15.806  30.500   7.955
 6711POPC   C4B17374  15.813  30.560   7.655
 6712POPC   NC317375  13.598  34.531   9.455
 6712POPC   PO417376  13.602  34.563   9.155
 6712POPC   GL117377  13.597  34.538   8.855
 6712POPC   GL217378  13.740  34.463   8.855
 6712POPC   C1A17379  13.607  34.558   8.555
 6712POPC   D2A17380  13.649  34.528   8.255
 6712POPC   C3A17381  13.635  34.556   7.955
 6712POPC   C4A17382  13.649  34.572   7.655
 6712POPC   C1B17383  13.846  34.400   8.555
 6712POPC   C2B17384  13.861  34.395   8.255
 6712POPC   C3B17385  13.820  34.480   7.955
 6712POPC   C4B17386  13.876  34.410   7.655
 6713POPC   NC317387  10.485  23.718   9.455
 6713POPC   PO417388  10.571  23.684   9.155
 6713POPC   GL117389  10.528  23.721   8.855
 6713POPC   GL217390  10.502  23.804   8.855
 6713POPC   C1A17391  10.484  23.730   8.555
 6713POPC   D2A17392  10.480  23.673   8.255
 6713POPC   C3A17393  10.518  23.749   7.955
 6713POPC   C4A17394  10.542  23.677   7.655
 6713POPC   C1B17395  10.531  23.926   8.555
 6713POPC   C2B17396  10.514  23.994   8.255
 6713POPC   C3B17397  10.525  23.957   7.955
 6713POPC   C4B17398  10.493  23.927   7.655
 6714POPC   NC317399  39.961  42.363   9.455
 6714POPC   PO417400  40.026  42.375   9.155
 6714POPC   GL117401  39.993  42.343   8.855
 6714POPC   GL217402  39.975  42.160   8.855
 6714POPC   C1A17403  40.049  42.342   8.555
 6714POPC   D2A17404  39.997  42.323   8.255
 6714POPC   C3A17405  40.055  42.294   7.955
 6714POPC   C4A17406  39.974  42.302   7.655
 6714POPC   C1B17407  39.993  42.098   8.555
 6714POPC   C2B17408  39.954  42.043   8.255
 6714POPC   C3B17409  40.012  42.126   7.955
 6714POPC   C4B17410  39.948  42.075   7.655
 6715POPC   NC317411   5.125  31.482   9.455
 6715POPC   PO417412   5.128  31.473   9.155
 6715POPC   GL117413   5.122  31.463   8.855
 6715POPC   GL217414   4.990  31.402   8.855
 6715POPC   C1A17415   5.090  31.480   8.555
 6715POPC   D2A17416   5.118  31.439   8.255
 6715POPC   C3A17417   5.142  31.487   7.955
 6715POPC   C4A17418   5.085  31.479   7.655
 6715POPC   C1B17419   4.957  31.316   8.555
 6715POPC   C2B17420   4.881  31.268   8.255
 6715POPC   C3B17421   4.976  31.308   7.955
 6715POPC   C4B17422   4.971  31.261   7.655
 6716POPC   NC317423  22.129  26.002   9.455
 6716POPC   PO417424  22.174  25.995   9.155
 6716POPC   GL117425  22.144  26.067   8.855
 6716POPC   GL217426  22.304  26.003   8.855
 6716POPC   C1A17427  22.201  26.079   8.555
 6716POPC   D2A17428  22.192  26.038   8.255
 6716POPC   C3A17429  22.134  26.006   7.955
 6716POPC   C4A17430  22.192  26.019   7.655
 6716POPC   C1B17431  22.402  25.912   8.555
 6716POPC   C2B17432  22.335  25.909   8.255
 6716POPC   C3B17433  22.361  25.946   7.955
 6716POPC   C4B17434  22.397  25.869   7.655
 6717POPC   NC317435  29.168   1.949   9.455
 6717POPC   PO417436  29.189   1.976   9.155
 6717POPC   GL117437  29.141   1.954   8.855
 6717POPC   GL217438  29.165   1.861   8.855
 6717POPC   C1A17439  29.178   1.991   8.555
 6717POPC   D2A17440  29.161   1.979   8.255
 6717POPC   C3A17441  29.153   1.957   7.955
 6717POPC   C4A17442  29.141   2.038   7.655
 6717POPC   C1B17443  29.170   1.740   8.555
 6717POPC   C2B17444  29.174   1.785   8.255
 6717POPC   C3B17445  29.233   1.711   7.955
 6717POPC   C4B17446  29.204   1.732   7.655
 6718POPC   NC317447  32.285  33.070   9.455
 6718POPC   PO417448  32.255  33.064   9.155
 6718POPC   GL117449  32.245  32.994   8.855
 6718POPC   GL217450  32.331  32.878   8.855
 6718POPC   C1A17451  32.284  33.034   8.555
 6718POPC   D2A17452  32.263  32.995   8.255
 6718POPC   C3A17453  32.280  33.002   7.955
 6718POPC   C4A17454  32.267  33.030   7.655
 6718POPC   C1B17455  32.360  32.816   8.555
 6718POPC   C2B17456  32.437  32.780   8.255
 6718POPC   C3B17457  32.428  32.867   7.955
 6718POPC   C4B17458  32.348  32.865   7.655
 6719POPC   NC317459  29.904  12.811   9.455
 6719POPC   PO417460  29.930  12.827   9.155
 6719POPC   GL117461  29.932  12.886   8.855
 6719POPC   GL217462  30.035  12.778   8.855
 6719POPC   C1A17463  29.882  12.872   8.555
 6719POPC   D2A17464  29.968  12.859   8.255
 6719POPC   C3A17465  29.888  12.845   7.955
 6719POPC   C4A17466  29.901  12.805   7.655
 6719POPC   C1B17467  30.140  12.709   8.555
 6719POPC   C2B17468  30.120  12.717   8.255
 6719POPC   C3B17469  30.185  12.779   7.955
 6719POPC   C4B17470  30.108  12.711   7.655
 6720POPC   NC317471   5.918   5.142   9.455
 6720POPC   PO417472   5.895   5.059   9.155
 6720POPC   GL117473   5.879   5.115   8.855
 6720POPC   GL217474   5.857   5.001   8.855
 6720POPC   C1A17475   5.843   5.077   8.555
 6720POPC   D2A17476   5.861   5.126   8.255
 6720POPC   C3A17477   5.837   5.128   7.955
 6720POPC   C4A17478   5.881   5.101   7.655
 6720POPC   C1B17479   5.764   4.866   8.555
 6720POPC   C2B17480   5.763   4.830   8.255
 6720POPC   C3B17481   5.767   4.916   7.955
 6720POPC   C4B17482   5.797   4.855   7.655
 6721POPC   NC317483  38.437  16.763   9.455
 6721POPC   PO417484  38.494  16.700   9.155
 6721POPC   GL117485  38.485  16.775   8.855
 6721POPC   GL217486  38.542  16.672   8.855
 6721POPC   C1A17487  38.408  16.707   8.555
 6721POPC   D2A17488  38.494  16.688   8.255
 6721POPC   C3A17489  38.434  16.781   7.955
 6721POPC   C4A17490  38.444  16.721   7.655
 6721POPC   C1B17491  38.702  16.696   8.555
 6721POPC   C2B17492  38.752  16.737   8.255
 6721POPC   C3B17493  38.732  16.664   7.955
 6721POPC   C4B17494  38.692  16.742   7.655
 6722POPC   NC317495  32.224   8.926   9.455
 6722POPC   PO417496  32.290   8.986   9.155
 6722POPC   GL117497  32.225   8.959   8.855
 6722POPC   GL217498  32.165   9.072   8.855
 6722POPC   C1A17499  32.258   8.992   8.555
 6722POPC   D2A17500  32.254   8.926   8.255
 6722POPC   C3A17501  32.259   8.990   7.955
 6722POPC   C4A17502  32.224   8.926   7.655
 6722POPC   C1B17503  32.129   9.170   8.555
 6722POPC   C2B17504  32.126   9.251   8.255
 6722POPC   C3B17505  32.196   9.177   7.955
 6722POPC   C4B17506  32.130   9.180   7.655
 6723POPC   NC317507  14.416  14.379   9.455
 6723POPC   PO417508  14.363  14.361   9.155
 6723POPC   GL117509  14.424  14.405   8.855
 6723POPC   GL217510  14.542  14.363   8.855
 6723POPC   C1A17511  14.446  14.400   8.555
 6723POPC   D2A17512  14.358  14.402   8.255
 6723POPC   C3A17513  14.358  14.423   7.955
 6723POPC   C4A17514  14.388  14.430   7.655
 6723POPC   C1B17515  14.649  14.286   8.555
 6723POPC   C2B17516  14.649  14.358   8.255
 6723POPC   C3B17517  14.589  14.299   7.955
 6723POPC   C4B17518  14.594  14.342   7.655
 6724POPC   NC317519  18.278  36.122   9.455
 6724POPC   PO417520  18.302  36.144   9.155
 6724POPC   GL117521  18.236  36.155   8.855
 6724POPC   GL217522  18.400  36.221   8.855
 6724POPC   C1A17523  18.267  36.162   8.555
 6724POPC   D2A17524  18.312  36.102   8.255
 6724POPC   C3A17525  18.326  36.089   7.955
 6724POPC   C4A17526  18.333  36.112   7.655
 6724POPC   C1B17527  18.451  36.226   8.555
 6724POPC   C2B17528  18.470  36.229   8.255
 6724POPC   C3B17529  18.546  36.285   7.955
 6724POPC   C4B17530  18.510  36.219   7.655
 6725POPC   NC317531  33.829  19.079   9.455
 6725POPC   PO417532  33.806  19.015   9.155
 6725POPC   GL117533  33.751  19.067   8.855
 6725POPC   GL217534  33.660  19.067   8.855
 6725POPC   C1A17535  33.763  19.067   8.555
 6725POPC   D2A17536  33.769  19.053   8.255
 6725POPC   C3A17537  33.827  19.012   7.955
 6725POPC   C4A17538  33.784  19.016   7.655
 6725POPC   C1B17539  33.550  19.147   8.555
 6725POPC   C2B17540  33.606  19.139   8.255
 6725POPC   C3B17541  33.583  19.122   7.955
 6725POPC   C4B17542  33.543  19.132   7.655
 6726POPC   NC317543  39.273  37.675   9.455
 6726POPC   PO417544  39.233  37.669   9.155
 6726POPC   GL117545  39.219  37.718   8.855
 6726POPC   GL217546  39.395  37.674   8.855
 6726POPC   C1A17547  39.269  37.711   8.555
 6726POPC   D2A17548  39.251  37.718   8.255
 6726POPC   C3A17549  39.253  37.721   7.955
 6726POPC   C4A17550  39.238  37.683   7.655
 6726POPC   C1B17551  39.465  37.574   8.555
 6726POPC   C2B17552  39.488  37.565   8.255
 6726POPC   C3B17553  39.422  37.595   7.955
 6726POPC   C4B17554  39.417  37.593   7.655
 6727POPC   NC317555  26.821  32.285   9.455
 6727POPC   PO417556  26.866  32.259   9.155
 6727POPC   GL117557  26.863  32.263   8.855
 6727POPC   GL217558  26.881  32.215   8.855
 6727POPC   C1A17559  26.839  32.283   8.555
 6727POPC   D2A17560  26.849  32.246   8.255
 6727POPC   C3A17561  26.842  32.206   7.955
 6727POPC   C4A17562  26.817  32.209   7.655
 6727POPC   C1B17563  27.004  32.142   8.555
 6727POPC   C2B17564  27.067  32.084   8.255
 6727POPC   C3B17565  26.983  32.112   7.955
 6727POPC   C4B17566  26.990  32.073   7.655
 6728POPC   NC317567  29.109  19.066   9.455
 6728POPC   PO417568  29.179  19.017   9.155
 6728POPC   GL117569  29.138  19.106   8.855
 6728POPC   GL217570  28.980  19.054   8.855
 6728POPC   C1A17571  29.104  19.029   8.555
 6728POPC   D2A17572  29.159  19.057   8.255
 6728POPC   C3A17573  29.161  19.108   7.955
 6728POPC   C4A17574  29.102  19.018   7.655
 6728POPC   C1B17575  28.915  18.929   8.555
 6728POPC   C2B17576  28.905  18.952   8.255
 6728POPC   C3B17577  28.900  18.979   7.955
 6728POPC   C4B17578  28.896  18.987   7.655
 6729POPC   NC317579  41.580  44.698   9.455
 6729POPC   PO417580  41.565  44.703   9.155
 6729POPC   GL117581  41.605  44.654   8.855
 6729POPC   GL217582  41.571  44.490   8.855
 6729POPC   C1A17583  41.606  44.674   8.555
 6729POPC   D2A17584  41.539  44.700   8.255
 6729POPC   C3A17585  41.520  44.678   7.955
 6729POPC   C4A17586  41.569  44.619   7.655
 6729POPC   C1B17587  41.566  44.441   8.555
 6729POPC   C2B17588  41.643  44.397   8.255
 6729POPC   C3B17589  41.606  44.450   7.955
 6729POPC   C4B17590  41.574  44.429   7.655
 6730POPC   NC317591  27.557   5.048   9.455
 6730POPC   PO417592  27.617   5.082   9.155
 6730POPC   GL117593  27.636   5.047   8.855
 6730POPC   GL217594  27.450   5.115   8.855
 6730POPC   C1A17595  27.605   5.057   8.555
 6730POPC   D2A17596  27.565   5.074   8.255
 6730POPC   C3A17597  27.633   5.044   7.955
 6730POPC   C4A17598  27.571   5.089   7.655
 6730POPC   C1B17599  27.346   5.226   8.555
 6730POPC   C2B17600  27.354   5.218   8.255
 6730POPC   C3B17601  27.378   5.209   7.955
 6730POPC   C4B17602  27.385   5.155   7.655
 6731POPC   NC317603  37.720  19.819   9.455
 6731POPC   PO417604  37.724  19.874   9.155
 6731POPC   GL117605  37.710  19.852   8.855
 6731POPC   GL217606  37.734  19.672   8.855
 6731POPC   C1A17607  37.634  19.796   8.555
 6731POPC   D2A17608  37.691  19.820   8.255
 6731POPC   C3A17609  37.646  19.794   7.955
 6731POPC   C4A17610  37.648  19.840   7.655
 6731POPC   C1B17611  37.786  19.587   8.555
 6731POPC   C2B17612  37.782  19.592   8.255
 6731POPC   C3B17613  37.720  19.624   7.955
 6731POPC   C4B17614  37.700  19.602   7.655
 6732POPC   NC317615  39.238  18.303   9.455
 6732POPC   PO417616  39.267  18.317   9.155
 6732POPC   GL117617  39.260  18.268   8.855
 6732POPC   GL217618  39.360  18.279   8.855
 6732POPC   C1A17619  39.274  18.233   8.555
 6732POPC   D2A17620  39.202  18.282   8.255
 6732POPC   C3A17621  39.184  18.318   7.955
 6732POPC   C4A17622  39.274  18.303   7.655
 6732POPC   C1B17623  39.459  18.338   8.555
 6732POPC   C2B17624  39.509  18.291   8.255
 6732POPC   C3B17625  39.493  18.301   7.955
 6732POPC   C4B17626  39.466  18.362   7.655
 6733POPC   NC317627  39.275  36.877   9.455
 6733POPC   PO417628  39.191  36.904   9.155
 6733POPC   GL117629  39.261  36.936   8.855
 6733POPC   GL217630  39.248  36.761   8.855
 6733POPC   C1A17631  39.212  36.938   8.555
 6733POPC   D2A17632  39.215  36.937   8.255
 6733POPC   C3A17633  39.215  36.948   7.955
 6733POPC   C4A17634  39.264  36.892   7.655
 6733POPC   C1B17635  39.335  36.720   8.555
 6733POPC   C2B17636  39.302  36.704   8.255
 6733POPC   C3B17637  39.292  36.652   7.955
 6733POPC   C4B17638  39.320  36.719   7.655
 6734POPC   NC317639  35.375  15.927   9.455
 6734POPC   PO417640  35.354  15.961   9.155
 6734POPC   GL117641  35.391  15.945   8.855
 6734POPC   GL217642  35.514  15.973   8.855
 6734POPC   C1A17643  35.378  15.908   8.555
 6734POPC   D2A17644  35.339  15.986   8.255
 6734POPC   C3A17645  35.353  15.919   7.955
 6734POPC   C4A17646  35.357  15.969   7.655
 6734POPC   C1B17647  35.585  15.943   8.555
 6734POPC   C2B17648  35.633  15.914   8.255
 6734POPC   C3B17649  35.643  15.966   7.955
 6734POPC   C4B17650  35.625  15.964   7.655
 6735POPC   NC317651  11.261  12.840   9.455
 6735POPC   PO417652  11.328  12.832   9.155
 6735POPC   GL117653  11.319  12.880   8.855
 6735POPC   GL217654  11.178  12.876   8.855
 6735POPC   C1A17655  11.340  12.810   8.555
 6735POPC   D2A17656  11.315  12.860   8.255
 6735POPC   C3A17657  11.270  12.863   7.955
 6735POPC   C4A17658  11.311  12.847   7.655
 6735POPC   C1B17659  11.027  12.869   8.555
 6735POPC   C2B17660  11.095  12.819   8.255
 6735POPC   C3B17661  11.065  12.821   7.955
 6735POPC   C4B17662  11.056  12.821   7.655
 6736POPC   NC317663  30.742   8.220   9.455
 6736POPC   PO417664  30.685   8.150   9.155
 6736POPC   GL117665  30.696   8.188   8.855
 6736POPC   GL217666  30.631   8.270   8.855
 6736POPC   C1A17667  30.689   8.182   8.555
 6736POPC   D2A17668  30.709   8.170   8.255
 6736POPC   C3A17669  30.697   8.189   7.955
 6736POPC   C4A17670  30.674   8.184   7.655
 6736POPC   C1B17671  30.553   8.369   8.555
 6736POPC   C2B17672  30.527   8.433   8.255
 6736POPC   C3B17673  30.489   8.339   7.955
 6736POPC   C4B17674  30.548   8.394   7.655
 6737POPC   NC317675  15.193  29.916   9.455
 6737POPC   PO417676  15.199  29.966   9.155
 6737POPC   GL117677  15.206  29.914   8.855
 6737POPC   GL217678  15.075  29.946   8.855
 6737POPC   C1A17679  15.139  29.913   8.555
 6737POPC   D2A17680  15.211  29.951   8.255
 6737POPC   C3A17681  15.179  29.964   7.955
 6737POPC   C4A17682  15.160  29.900   7.655
 6737POPC   C1B17683  14.930  29.906   8.555
 6737POPC   C2B17684  14.972  29.924   8.255
 6737POPC   C3B17685  14.938  29.968   7.955
 6737POPC   C4B17686  14.902  29.875   7.655
 6738POPC   NC317687   8.244  34.553   9.455
 6738POPC   PO417688   8.152  34.618   9.155
 6738POPC   GL117689   8.179  34.529   8.855
 6738POPC   GL217690   8.117  34.582   8.855
 6738POPC   C1A17691   8.233  34.601   8.555
 6738POPC   D2A17692   8.222  34.572   8.255
 6738POPC   C3A17693   8.244  34.532   7.955
 6738POPC   C4A17694   8.193  34.590   7.655
 6738POPC   C1B17695   7.966  34.626   8.555
 6738POPC   C2B17696   7.946  34.610   8.255
 6738POPC   C3B17697   8.000  34.649   7.955
 6738POPC   C4B17698   7.998  34.633   7.655
 6739POPC   NC317699  32.288  42.377   9.455
 6739POPC   PO417700  32.239  42.330   9.155
 6739POPC   GL117701  32.249  42.349   8.855
 6739POPC   GL217702  32.341  42.329   8.855
 6739POPC   C1A17703  32.256  42.334   8.555
 6739POPC   D2A17704  32.296  42.350   8.255
 6739POPC   C3A17705  32.258  42.307   7.955
 6739POPC   C4A17706  32.287  42.353   7.655
 6739POPC   C1B17707  32.524  42.409   8.555
 6739POPC   C2B17708  32.463  42.423   8.255
 6739POPC   C3B17709  32.450  42.417   7.955
 6739POPC   C4B17710  32.485  42.357   7.655
 6740POPC   NC317711  28.394   9.743   9.455
 6740POPC   PO417712  28.332   9.777   9.155
 6740POPC   GL117713  28.365   9.764   8.855
 6740POPC   GL217714  28.445   9.782   8.855
 6740POPC   C1A17715  28.372   9.784   8.555
 6740POPC   D2A17716  28.391   9.731   8.255
 6740POPC   C3A17717  28.359   9.775   7.955
 6740POPC   C4A17718  28.413   9.721   7.655
 6740POPC   C1B17719  28.567   9.894   8.555
 6740POPC   C2B17720  28.604   9.815   8.255
 6740POPC   C3B17721  28.574   9.854   7.955
 6740POPC   C4B17722  28.586   9.890   7.655
 6741POPC   NC317723  21.415   2.019   9.455
 6741POPC   PO417724  21.391   1.986   9.155
 6741POPC   GL117725  21.419   1.998   8.855
 6741POPC   GL217726  21.445   2.078   8.855
 6741POPC   C1A17727  21.399   1.954   8.555
 6741POPC   D2A17728  21.376   2.029   8.255
 6741POPC   C3A17729  21.428   1.989   7.955
 6741POPC   C4A17730  21.416   1.954   7.655
 6741POPC   C1B17731  21.558   2.148   8.555
 6741POPC   C2B17732  21.586   2.165   8.255
 6741POPC   C3B17733  21.541   2.122   7.955
 6741POPC   C4B17734  21.551   2.205   7.655
 6742POPC   NC317735   5.911  39.239   9.455
 6742POPC   PO417736   5.868  39.236   9.155
 6742POPC   GL117737   5.860  39.216   8.855
 6742POPC   GL217738   5.949  39.105   8.855
 6742POPC   C1A17739   5.884  39.247   8.555
 6742POPC   D2A17740   5.831  39.198   8.255
 6742POPC   C3A17741   5.896  39.209   7.955
 6742POPC   C4A17742   5.894  39.267   7.655
 6742POPC   C1B17743   6.035  39.034   8.555
 6742POPC   C2B17744   5.971  38.998   8.255
 6742POPC   C3B17745   6.035  39.031   7.955
 6742POPC   C4B17746   5.979  38.993   7.655
 6743POPC   NC317747  23.682  11.283   9.455
 6743POPC   PO417748  23.744  11.305   9.155
 6743POPC   GL117749  23.701  11.276   8.855
 6743POPC   GL217750  23.751  11.227   8.855
 6743POPC   C1A17751  23.694  11.266   8.555
 6743POPC   D2A17752  23.757  11.268   8.255
 6743POPC   C3A17753  23.729  11.305   7.955
 6743POPC   C4A17754  23.687  11.312   7.655
 6743POPC   C1B17755  23.822  11.113   8.555
 6743POPC   C2B17756  23.813  11.075   8.255
 6743POPC   C3B17757  23.806  11.062   7.955
 6743POPC   C4B17758  23.882  11.082   7.655
 6744POPC   NC317759  44.659  40.822   9.455
 6744POPC   PO417760  44.619  40.822   9.155
 6744POPC   GL117761  44.664  40.816   8.855
 6744POPC   GL217762  44.652  40.882   8.855
 6744POPC   C1A17763  44.701  40.746   8.555
 6744POPC   D2A17764  44.622  40.735   8.255
 6744POPC   C3A17765  44.684  40.804   7.955
 6744POPC   C4A17766  44.669  40.828   7.655
 6744POPC   C1B17767  44.529  41.035   8.555
 6744POPC   C2B17768  44.524  41.040   8.255
 6744POPC   C3B17769  44.551  41.006   7.955
 6744POPC   C4B17770  44.560  40.974   7.655
 6745POPC   NC317771  39.980   3.563   9.455
 6745POPC   PO417772  39.987   3.556   9.155
 6745POPC   GL117773  40.050   3.538   8.855
 6745POPC   GL217774  39.919   3.426   8.855
 6745POPC   C1A17775  39.981   3.590   8.555
 6745POPC   D2A17776  39.967   3.547   8.255
 6745POPC   C3A17777  40.043   3.581   7.955
 6745POPC   C4A17778  40.018   3.527   7.655
 6745POPC   C1B17779  39.797   3.400   8.555
 6745POPC   C2B17780  39.812   3.385   8.255
 6745POPC   C3B17781  39.848   3.425   7.955
 6745POPC   C4B17782  39.816   3.426   7.655
 6746POPC   NC317783  41.531  35.331   9.455
 6746POPC   PO417784  41.608  35.341   9.155
 6746POPC   GL117785  41.529  35.356   8.855
 6746POPC   GL217786  41.472  35.381   8.855
 6746POPC   C1A17787  41.601  35.350   8.555
 6746POPC   D2A17788  41.560  35.385   8.255
 6746POPC   C3A17789  41.539  35.393   7.955
 6746POPC   C4A17790  41.567  35.372   7.655
 6746POPC   C1B17791  41.331  35.418   8.555
 6746POPC   C2B17792  41.318  35.381   8.255
 6746POPC   C3B17793  41.276  35.389   7.955
 6746POPC   C4B17794  41.363  35.380   7.655
 6747POPC   NC317795  39.211  15.946   9.455
 6747POPC   PO417796  39.188  15.938   9.155
 6747POPC   GL117797  39.230  15.982   8.855
 6747POPC   GL217798  39.357  16.076   8.855
 6747POPC   C1A17799  39.259  16.000   8.555
 6747POPC   D2A17800  39.228  15.975   8.255
 6747POPC   C3A17801  39.223  15.938   7.955
 6747POPC   C4A17802  39.263  15.929   7.655
 6747POPC   C1B17803  39.418  16.145   8.555
 6747POPC   C2B17804  39.368  16.124   8.255
 6747POPC   C3B17805  39.441  16.120   7.955
 6747POPC   C4B17806  39.367  16.157   7.655
 6748POPC   NC317807  29.194   8.222   9.455
 6748POPC   PO417808  29.168   8.177   9.155
 6748POPC   GL117809  29.097   8.209   8.855
 6748POPC   GL217810  28.992   8.159   8.855
 6748POPC   C1A17811  29.101   8.174   8.555
 6748POPC   D2A17812  29.123   8.241   8.255
 6748POPC   C3A17813  29.136   8.179   7.955
 6748POPC   C4A17814  29.153   8.164   7.655
 6748POPC   C1B17815  28.901   8.155   8.555
 6748POPC   C2B17816  28.946   8.098   8.255
 6748POPC   C3B17817  28.920   8.116   7.955
 6748POPC   C4B17818  28.946   8.158   7.655
 6749POPC   NC317819  12.055  43.140   9.455
 6749POPC   PO417820  12.078  43.120   9.155
 6749POPC   GL117821  12.121  43.101   8.855
 6749POPC   GL217822  12.053  43.029   8.855
 6749POPC   C1A17823  12.067  43.144   8.555
 6749POPC   D2A17824  12.076  43.134   8.255
 6749POPC   C3A17825  12.060  43.071   7.955
 6749POPC   C4A17826  12.032  43.127   7.655
 6749POPC   C1B17827  11.928  42.861   8.555
 6749POPC   C2B17828  11.983  42.936   8.255
 6749POPC   C3B17829  11.923  42.889   7.955
 6749POPC   C4B17830  11.893  42.861   7.655
 6750POPC   NC317831   8.941  42.334   9.455
 6750POPC   PO417832   8.923  42.332   9.155
 6750POPC   GL117833   8.952  42.348   8.855
 6750POPC   GL217834   8.917  42.301   8.855
 6750POPC   C1A17835   8.986  42.322   8.555
 6750POPC   D2A17836   8.988  42.363   8.255
 6750POPC   C3A17837   8.983  42.346   7.955
 6750POPC   C4A17838   8.924  42.300   7.655
 6750POPC   C1B17839   8.722  42.187   8.555
 6750POPC   C2B17840   8.727  42.232   8.255
 6750POPC   C3B17841   8.725  42.206   7.955
 6750POPC   C4B17842   8.759  42.186   7.655
 6751POPC   NC317843  35.384  43.905   9.455
 6751POPC   PO417844  35.392  43.874   9.155
 6751POPC   GL117845  35.327  43.843   8.855
 6751POPC   GL217846  35.502  43.929   8.855
 6751POPC   C1A17847  35.322  43.928   8.555
 6751POPC   D2A17848  35.357  43.900   8.255
 6751POPC   C3A17849  35.397  43.848   7.955
 6751POPC   C4A17850  35.378  43.880   7.655
 6751POPC   C1B17851  35.607  43.941   8.555
 6751POPC   C2B17852  35.634  43.854   8.255
 6751POPC   C3B17853  35.631  43.849   7.955
 6751POPC   C4B17854  35.557  43.900   7.655
 6752POPC   NC317855  43.900  16.683   9.455
 6752POPC   PO417856  43.923  16.683   9.155
 6752POPC   GL117857  43.904  16.694   8.855
 6752POPC   GL217858  43.777  16.711   8.855
 6752POPC   C1A17859  43.895  16.690   8.555
 6752POPC   D2A17860  43.920  16.757   8.255
 6752POPC   C3A17861  43.935  16.683   7.955
 6752POPC   C4A17862  43.869  16.690   7.655
 6752POPC   C1B17863  43.603  16.699   8.555
 6752POPC   C2B17864  43.604  16.745   8.255
 6752POPC   C3B17865  43.682  16.725   7.955
 6752POPC   C4B17866  43.675  16.711   7.655
 6753POPC   NC317867  35.311  19.855   9.455
 6753POPC   PO417868  35.312  19.868   9.155
 6753POPC   GL117869  35.363  19.880   8.855
 6753POPC   GL217870  35.269  19.733   8.855
 6753POPC   C1A17871  35.399  19.809   8.555
 6753POPC   D2A17872  35.370  19.820   8.255
 6753POPC   C3A17873  35.364  19.811   7.955
 6753POPC   C4A17874  35.358  19.846   7.655
 6753POPC   C1B17875  35.182  19.582   8.555
 6753POPC   C2B17876  35.273  19.579   8.255
 6753POPC   C3B17877  35.275  19.603   7.955
 6753POPC   C4B17878  35.193  19.602   7.655
 6754POPC   NC317879  13.609  25.266   9.455
 6754POPC   PO417880  13.661  25.309   9.155
 6754POPC   GL117881  13.594  25.276   8.855
 6754POPC   GL217882  13.719  25.305   8.855
 6754POPC   C1A17883  13.586  25.290   8.555
 6754POPC   D2A17884  13.670  25.287   8.255
 6754POPC   C3A17885  13.640  25.280   7.955
 6754POPC   C4A17886  13.589  25.238   7.655
 6754POPC   C1B17887  13.852  25.383   8.555
 6754POPC   C2B17888  13.834  25.452   8.255
 6754POPC   C3B17889  13.798  25.437   7.955
 6754POPC   C4B17890  13.811  25.433   7.655
 6755POPC   NC317891  42.329   5.102   9.455
 6755POPC   PO417892  42.351   5.111   9.155
 6755POPC   GL117893  42.324   5.069   8.855
 6755POPC   GL217894  42.285   4.977   8.855
 6755POPC   C1A17895  42.336   5.138   8.555
 6755POPC   D2A17896  42.287   5.139   8.255
 6755POPC   C3A17897  42.317   5.119   7.955
 6755POPC   C4A17898  42.339   5.140   7.655
 6755POPC   C1B17899  42.362   4.882   8.555
 6755POPC   C2B17900  42.267   4.869   8.255
 6755POPC   C3B17901  42.277   4.859   7.955
 6755POPC   C4B17902  42.301   4.836   7.655
 6756POPC   NC317903   0.473  43.875   9.455
 6756POPC   PO417904   0.445  43.927   9.155
 6756POPC   GL117905   0.449  43.932   8.855
 6756POPC   GL217906   0.301  43.843   8.855
 6756POPC   C1A17907   0.434  43.933   8.555
 6756POPC   D2A17908   0.408  43.922   8.255
 6756POPC   C3A17909   0.462  43.846   7.955
 6756POPC   C4A17910   0.473  43.882   7.655
 6756POPC   C1B17911   0.223  43.773   8.555
 6756POPC   C2B17912   0.195  43.739   8.255
 6756POPC   C3B17913   0.283  43.705   7.955
 6756POPC   C4B17914   0.204  43.773   7.655
 6757POPC   NC317915   5.886  18.319   9.455
 6757POPC   PO417916   5.873  18.234   9.155
 6757POPC   GL117917   5.839  18.322   8.855
 6757POPC   GL217918   5.775  18.385   8.855
 6757POPC   C1A17919   5.823  18.287   8.555
 6757POPC   D2A17920   5.884  18.329   8.255
 6757POPC   C3A17921   5.916  18.265   7.955
 6757POPC   C4A17922   5.840  18.332   7.655
 6757POPC   C1B17923   5.636  18.375   8.555
 6757POPC   C2B17924   5.664  18.434   8.255
 6757POPC   C3B17925   5.637  18.388   7.955
 6757POPC   C4B17926   5.665  18.386   7.655
 6758POPC   NC317927  17.474   3.511   9.455
 6758POPC   PO417928  17.546   3.504   9.155
 6758POPC   GL117929  17.460   3.561   8.855
 6758POPC   GL217930  17.591   3.647   8.855
 6758POPC   C1A17931  17.530   3.578   8.555
 6758POPC   D2A17932  17.536   3.577   8.255
 6758POPC   C3A17933  17.527   3.561   7.955
 6758POPC   C4A17934  17.519   3.512   7.655
 6758POPC   C1B17935  17.588   3.784   8.555
 6758POPC   C2B17936  17.665   3.791   8.255
 6758POPC   C3B17937  17.616   3.789   7.955
 6758POPC   C4B17938  17.585   3.802   7.655
 6759POPC   NC317939  19.087  36.933   9.455
 6759POPC   PO417940  19.048  36.927   9.155
 6759POPC   GL117941  19.035  36.868   8.855
 6759POPC   GL217942  18.914  36.965   8.855
 6759POPC   C1A17943  19.068  36.917   8.555
 6759POPC   D2A17944  19.023  36.900   8.255
 6759POPC   C3A17945  19.062  36.857   7.955
 6759POPC   C4A17946  19.022  36.885   7.655
 6759POPC   C1B17947  18.788  36.924   8.555
 6759POPC   C2B17948  18.764  36.961   8.255
 6759POPC   C3B17949  18.789  36.892   7.955
 6759POPC   C4B17950  18.827  36.937   7.655
 6760POPC   NC317951  12.859  20.590   9.455
 6760POPC   PO417952  12.826  20.643   9.155
 6760POPC   GL117953  12.857  20.604   8.855
 6760POPC   GL217954  12.757  20.528   8.855
 6760POPC   C1A17955  12.879  20.576   8.555
 6760POPC   D2A17956  12.869  20.639   8.255
 6760POPC   C3A17957  12.878  20.607   7.955
 6760POPC   C4A17958  12.860  20.571   7.655
 6760POPC   C1B17959  12.705  20.398   8.555
 6760POPC   C2B17960  12.704  20.371   8.255
 6760POPC   C3B17961  12.737  20.396   7.955
 6760POPC   C4B17962  12.741  20.418   7.655
 6761POPC   NC317963  20.646  29.118   9.455
 6761POPC   PO417964  20.648  29.182   9.155
 6761POPC   GL117965  20.603  29.153   8.855
 6761POPC   GL217966  20.569  29.219   8.855
 6761POPC   C1A17967  20.622  29.122   8.555
 6761POPC   D2A17968  20.612  29.186   8.255
 6761POPC   C3A17969  20.637  29.118   7.955
 6761POPC   C4A17970  20.657  29.175   7.655
 6761POPC   C1B17971  20.449  29.271   8.555
 6761POPC   C2B17972  20.384  29.309   8.255
 6761POPC   C3B17973  20.420  29.333   7.955
 6761POPC   C4B17974  20.433  29.329   7.655
 6762POPC   NC317975  12.872  17.514   9.455
 6762POPC   PO417976  12.900  17.527   9.155
 6762POPC   GL117977  12.859  17.473   8.855
 6762POPC   GL217978  12.896  17.389   8.855
 6762POPC   C1A17979  12.851  17.536   8.555
 6762POPC   D2A17980  12.866  17.497   8.255
 6762POPC   C3A17981  12.889  17.513   7.955
 6762POPC   C4A17982  12.864  17.542   7.655
 6762POPC   C1B17983  12.923  17.255   8.555
 6762POPC   C2B17984  12.957  17.253   8.255
 6762POPC   C3B17985  12.910  17.301   7.955
 6762POPC   C4B17986  12.890  17.276   7.655
 6763POPC   NC317987   7.427  13.664   9.455
 6763POPC   PO417988   7.455  13.624   9.155
 6763POPC   GL117989   7.469  13.672   8.855
 6763POPC   GL217990   7.329  13.671   8.855
 6763POPC   C1A17991   7.387  13.621   8.555
 6763POPC   D2A17992   7.413  13.666   8.255
 6763POPC   C3A17993   7.384  13.586   7.955
 6763POPC   C4A17994   7.415  13.600   7.655
 6763POPC   C1B17995   7.219  13.762   8.555
 6763POPC   C2B17996   7.237  13.790   8.255
 6763POPC   C3B17997   7.245  13.808   7.955
 6763POPC   C4B17998   7.245  13.760   7.655
 6764POPC   NC317999  34.610  14.397   9.455
 6764POPC   PO418000  34.559  14.443   9.155
 6764POPC   GL118001  34.605  14.439   8.855
 6764POPC   GL218002  34.727  14.360   8.855
 6764POPC   C1A18003  34.594  14.363   8.555
 6764POPC   D2A18004  34.599  14.429   8.255
 6764POPC   C3A18005  34.532  14.407   7.955
 6764POPC   C4A18006  34.579  14.406   7.655
 6764POPC   C1B18007  34.763  14.292   8.555
 6764POPC   C2B18008  34.791  14.304   8.255
 6764POPC   C3B18009  34.847  14.299   7.955
 6764POPC   C4B18010  34.764  14.329   7.655
 6765POPC   NC318011  16.730  36.092   9.455
 6765POPC   PO418012  16.697  36.146   9.155
 6765POPC   GL118013  16.739  36.170   8.855
 6765POPC   GL218014  16.836  36.107   8.855
 6765POPC   C1A18015  16.728  36.126   8.555
 6765POPC   D2A18016  16.722  36.096   8.255
 6765POPC   C3A18017  16.732  36.083   7.955
 6765POPC   C4A18018  16.734  36.176   7.655
 6765POPC   C1B18019  16.973  36.201   8.555
 6765POPC   C2B18020  16.928  36.134   8.255
 6765POPC   C3B18021  16.965  36.169   7.955
 6765POPC   C4B18022  17.020  36.204   7.655
 6766POPC   NC318023  29.137  40.000   9.455
 6766POPC   PO418024  29.108  40.034   9.155
 6766POPC   GL118025  29.106  39.998   8.855
 6766POPC   GL218026  29.157  40.117   8.855
 6766POPC   C1A18027  29.128  40.019   8.555
 6766POPC   D2A18028  29.105  40.048   8.255
 6766POPC   C3A18029  29.130  40.047   7.955
 6766POPC   C4A18030  29.126  40.048   7.655
 6766POPC   C1B18031  29.232  40.214   8.555
 6766POPC   C2B18032  29.244  40.290   8.255
 6766POPC   C3B18033  29.224  40.276   7.955
 6766POPC   C4B18034  29.202  40.254   7.655
 6767POPC   NC318035  21.345  29.964   9.455
 6767POPC   PO418036  21.372  29.931   9.155
 6767POPC   GL118037  21.393  29.881   8.855
 6767POPC   GL218038  21.422  30.077   8.855
 6767POPC   C1A18039  21.370  29.892   8.555
 6767POPC   D2A18040  21.345  29.961   8.255
 6767POPC   C3A18041  21.395  29.949   7.955
 6767POPC   C4A18042  21.345  29.966   7.655
 6767POPC   C1B18043  21.482  30.187   8.555
 6767POPC   C2B18044  21.508  30.146   8.255
 6767POPC   C3B18045  21.461  30.182   7.955
 6767POPC   C4B18046  21.516  30.161   7.655
 6768POPC   NC318047  29.922   3.587   9.455
 6768POPC   PO418048  29.946   3.502   9.155
 6768POPC   GL118049  29.917   3.522   8.855
 6768POPC   GL218050  29.911   3.620   8.855
 6768POPC   C1A18051  29.889   3.565   8.555
 6768POPC   D2A18052  29.897   3.564   8.255
 6768POPC   C3A18053  29.917   3.539   7.955
 6768POPC   C4A18054  29.961   3.498   7.655
 6768POPC   C1B18055  29.853   3.769   8.555
 6768POPC   C2B18056  29.913   3.835   8.255
 6768POPC   C3B18057  29.897   3.821   7.955
 6768POPC   C4B18058  29.866   3.798   7.655
 6769POPC   NC318059  14.382  26.002   9.455
 6769POPC   PO418060  14.420  26.086   9.155
 6769POPC   GL118061  14.391  26.073   8.855
 6769POPC   GL218062  14.295  26.131   8.855
 6769POPC   C1A18063  14.372  26.091   8.555
 6769POPC   D2A18064  14.418  26.016   8.255
 6769POPC   C3A18065  14.400  26.009   7.955
 6769POPC   C4A18066  14.449  26.088   7.655
 6769POPC   C1B18067  14.220  26.163   8.555
 6769POPC   C2B18068  14.187  26.186   8.255
 6769POPC   C3B18069  14.186  26.209   7.955
 6769POPC   C4B18070  14.260  26.251   7.655
 6770POPC   NC318071  22.913  32.290   9.455
 6770POPC   PO418072  22.905  32.248   9.155
 6770POPC   GL118073  22.951  32.244   8.855
 6770POPC   GL218074  23.102  32.272   8.855
 6770POPC   C1A18075  22.906  32.248   8.555
 6770POPC   D2A18076  22.907  32.213   8.255
 6770POPC   C3A18077  22.890  32.224   7.955
 6770POPC   C4A18078  22.923  32.248   7.655
 6770POPC   C1B18079  23.138  32.284   8.555
 6770POPC   C2B18080  23.236  32.288   8.255
 6770POPC   C3B18081  23.212  32.238   7.955
 6770POPC   C4B18082  23.160  32.301   7.655
 6771POPC   NC318083  25.244  23.683   9.455
 6771POPC   PO418084  25.231  23.699   9.155
 6771POPC   GL118085  25.315  23.668   8.855
 6771POPC   GL218086  25.158  23.730   8.855
 6771POPC   C1A18087  25.276  23.745   8.555
 6771POPC   D2A18088  25.266  23.702   8.255
 6771POPC   C3A18089  25.252  23.719   7.955
 6771POPC   C4A18090  25.292  23.680   7.655
 6771POPC   C1B18091  25.037  23.676   8.555
 6771POPC   C2B18092  25.053  23.645   8.255
 6771POPC   C3B18093  25.035  23.665   7.955
 6771POPC   C4B18094  25.039  23.712   7.655
 6772POPC   NC318095  28.413  27.557   9.455
 6772POPC   PO418096  28.370  27.623   9.155
 6772POPC   GL118097  28.385  27.600   8.855
 6772POPC   GL218098  28.418  27.672   8.855
 6772POPC   C1A18099  28.349  27.628   8.555
 6772POPC   D2A18100  28.351  27.584   8.255
 6772POPC   C3A18101  28.393  27.619   7.955
 6772POPC   C4A18102  28.386  27.641   7.655
 6772POPC   C1B18103  28.415  27.853   8.555
 6772POPC   C2B18104  28.377  27.867   8.255
 6772POPC   C3B18105  28.376  27.828   7.955
 6772POPC   C4B18106  28.394  27.881   7.655
 6773POPC   NC318107  29.873  38.450   9.455
 6773POPC   PO418108  29.954  38.437   9.155
 6773POPC   GL118109  29.910  38.449   8.855
 6773POPC   GL218110  29.876  38.597   8.855
 6773POPC   C1A18111  29.879  38.432   8.555
 6773POPC   D2A18112  29.952  38.450   8.255
 6773POPC   C3A18113  29.885  38.472   7.955
 6773POPC   C4A18114  29.884  38.504   7.655
 6773POPC   C1B18115  29.965  38.725   8.555
 6773POPC   C2B18116  29.937  38.737   8.255
 6773POPC   C3B18117  29.959  38.742   7.955
 6773POPC   C4B18118  29.968  38.707   7.655
 6774POPC   NC318119  15.172  12.825   9.455
 6774POPC   PO418120  15.145  12.899   9.155
 6774POPC   GL118121  15.155  12.828   8.855
 6774POPC   GL218122  15.223  12.980   8.855
 6774POPC   C1A18123  15.164  12.853   8.555
 6774POPC   D2A18124  15.172  12.895   8.255
 6774POPC   C3A18125  15.228  12.878   7.955
 6774POPC   C4A18126  15.218  12.815   7.655
 6774POPC   C1B18127  15.332  13.067   8.555
 6774POPC   C2B18128  15.322  13.025   8.255
 6774POPC   C3B18129  15.362  13.033   7.955
 6774POPC   C4B18130  15.365  13.015   7.655
 6775POPC   NC318131  11.324  39.961   9.455
 6775POPC   PO418132  11.300  39.971   9.155
 6775POPC   GL118133  11.284  40.042   8.855
 6775POPC   GL218134  11.230  40.087   8.855
 6775POPC   C1A18135  11.292  39.994   8.555
 6775POPC   D2A18136  11.275  39.964   8.255
 6775POPC   C3A18137  11.338  40.028   7.955
 6775POPC   C4A18138  11.319  40.046   7.655
 6775POPC   C1B18139  11.091  40.171   8.555
 6775POPC   C2B18140  11.100  40.228   8.255
 6775POPC   C3B18141  11.140  40.238   7.955
 6775POPC   C4B18142  11.117  40.181   7.655
 6776POPC   NC318143  36.892  40.002   9.455
 6776POPC   PO418144  36.913  40.046   9.155
 6776POPC   GL118145  36.920  40.016   8.855
 6776POPC   GL218146  36.852  40.072   8.855
 6776POPC   C1A18147  36.899  39.986   8.555
 6776POPC   D2A18148  36.908  40.011   8.255
 6776POPC   C3A18149  36.941  40.055   7.955
 6776POPC   C4A18150  36.875  39.976   7.655
 6776POPC   C1B18151  36.694  40.151   8.555
 6776POPC   C2B18152  36.776  40.161   8.255
 6776POPC   C3B18153  36.762  40.200   7.955
 6776POPC   C4B18154  36.780  40.163   7.655
 6777POPC   NC318155  10.567  41.571   9.455
 6777POPC   PO418156  10.500  41.558   9.155
 6777POPC   GL118157  10.508  41.572   8.855
 6777POPC   GL218158  10.357  41.592   8.855
 6777POPC   C1A18159  10.490  41.594   8.555
 6777POPC   D2A18160  10.496  41.594   8.255
 6777POPC   C3A18161  10.512  41.596   7.955
 6777POPC   C4A18162  10.551  41.516   7.655
 6777POPC   C1B18163  10.257  41.572   8.555
 6777POPC   C2B18164  10.257  41.603   8.255
 6777POPC   C3B18165  10.286  41.605   7.955
 6777POPC   C4B18166  10.297  41.552   7.655
 6778POPC   NC318167  19.798  14.402   9.455
 6778POPC   PO418168  19.803  14.354   9.155
 6778POPC   GL118169  19.815  14.364   8.855
 6778POPC   GL218170  19.815  14.534   8.855
 6778POPC   C1A18171  19.866  14.433   8.555
 6778POPC   D2A18172  19.850  14.357   8.255
 6778POPC   C3A18173  19.827  14.432   7.955
 6778POPC   C4A18174  19.795  14.452   7.655
 6778POPC   C1B18175  19.749  14.628   8.555
 6778POPC   C2B18176  19.800  14.652   8.255
 6778POPC   C3B18177  19.778  14.630   7.955
 6778POPC   C4B18178  19.739  14.595   7.655
 6779POPC   NC318179  10.481  37.708   9.455
 6779POPC   PO418180  10.535  37.649   9.155
 6779POPC   GL118181  10.513  37.693   8.855
 6779POPC   GL218182  10.514  37.765   8.855
 6779POPC   C1A18183  10.504  37.657   8.555
 6779POPC   D2A18184  10.544  37.698   8.255
 6779POPC   C3A18185  10.525  37.682   7.955
 6779POPC   C4A18186  10.564  37.667   7.655
 6779POPC   C1B18187  10.360  37.878   8.555
 6779POPC   C2B18188  10.452  37.936   8.255
 6779POPC   C3B18189  10.381  37.893   7.955
 6779POPC   C4B18190  10.388  37.934   7.655
 6780POPC   NC318191  37.725  11.293   9.455
 6780POPC   PO418192  37.711  11.300   9.155
 6780POPC   GL118193  37.684  11.307   8.855
 6780POPC   GL218194  37.747  11.378   8.855
 6780POPC   C1A18195  37.646  11.313   8.555
 6780POPC   D2A18196  37.644  11.344   8.255
 6780POPC   C3A18197  37.724  11.275   7.955
 6780POPC   C4A18198  37.650  11.262   7.655
 6780POPC   C1B18199  37.773  11.482   8.555
 6780POPC   C2B18200  37.819  11.548   8.255
 6780POPC   C3B18201  37.847  11.508   7.955
 6780POPC   C4B18202  37.835  11.507   7.655
 6781POPC   NC318203  19.884   9.752   9.455
 6781POPC   PO418204  19.842   9.717   9.155
 6781POPC   GL118205  19.803   9.789   8.855
 6781POPC   GL218206  19.964   9.672   8.855
 6781POPC   C1A18207  19.817   9.743   8.555
 6781POPC   D2A18208  19.785   9.701   8.255
 6781POPC   C3A18209  19.856   9.760   7.955
 6781POPC   C4A18210  19.858   9.769   7.655
 6781POPC   C1B18211  19.968   9.589   8.555
 6781POPC   C2B18212  19.979   9.574   8.255
 6781POPC   C3B18213  19.991   9.585   7.955
 6781POPC   C4B18214  19.964   9.577   7.655
 6782POPC   NC318215  38.411  31.491   9.455
 6782POPC   PO418216  38.471  31.458   9.155
 6782POPC   GL118217  38.448  31.502   8.855
 6782POPC   GL218218  38.608  31.513   8.855
 6782POPC   C1A18219  38.478  31.454   8.555
 6782POPC   D2A18220  38.431  31.451   8.255
 6782POPC   C3A18221  38.484  31.512   7.955
 6782POPC   C4A18222  38.483  31.432   7.655
 6782POPC   C1B18223  38.754  31.514   8.555
 6782POPC   C2B18224  38.711  31.437   8.255
 6782POPC   C3B18225  38.661  31.507   7.955
 6782POPC   C4B18226  38.669  31.442   7.655
 6783POPC   NC318227   8.969   3.552   9.455
 6783POPC   PO418228   8.970   3.516   9.155
 6783POPC   GL118229   8.928   3.529   8.855
 6783POPC   GL218230   8.848   3.543   8.855
 6783POPC   C1A18231   8.947   3.549   8.555
 6783POPC   D2A18232   8.965   3.525   8.255
 6783POPC   C3A18233   8.983   3.550   7.955
 6783POPC   C4A18234   8.981   3.536   7.655
 6783POPC   C1B18235   8.704   3.496   8.555
 6783POPC   C2B18236   8.735   3.511   8.255
 6783POPC   C3B18237   8.754   3.454   7.955
 6783POPC   C4B18238   8.762   3.464   7.655
 6784POPC   NC318239  12.033  37.671   9.455
 6784POPC   PO418240  12.051  37.673   9.155
 6784POPC   GL118241  12.059  37.650   8.855
 6784POPC   GL218242  12.076  37.776   8.855
 6784POPC   C1A18243  12.093  37.701   8.555
 6784POPC   D2A18244  12.107  37.685   8.255
 6784POPC   C3A18245  12.113  37.670   7.955
 6784POPC   C4A18246  12.098  37.708   7.655
 6784POPC   C1B18247  12.005  37.964   8.555
 6784POPC   C2B18248  12.080  37.912   8.255
 6784POPC   C3B18249  12.009  37.939   7.955
 6784POPC   C4B18250  12.036  37.925   7.655
 6785POPC   NC318251  27.637  36.097   9.455
 6785POPC   PO418252  27.634  36.086   9.155
 6785POPC   GL118253  27.559  36.168   8.855
 6785POPC   GL218254  27.703  36.266   8.855
 6785POPC   C1A18255  27.603  36.078   8.555
 6785POPC   D2A18256  27.577  36.164   8.255
 6785POPC   C3A18257  27.606  36.143   7.955
 6785POPC   C4A18258  27.570  36.092   7.655
 6785POPC   C1B18259  27.753  36.316   8.555
 6785POPC   C2B18260  27.720  36.354   8.255
 6785POPC   C3B18261  27.781  36.320   7.955
 6785POPC   C4B18262  27.751  36.371   7.655
 6786POPC   NC318263  42.317  41.601   9.455
 6786POPC   PO418264  42.310  41.567   9.155
 6786POPC   GL118265  42.320  41.608   8.855
 6786POPC   GL218266  42.254  41.567   8.855
 6786POPC   C1A18267  42.356  41.538   8.555
 6786POPC   D2A18268  42.310  41.519   8.255
 6786POPC   C3A18269  42.300  41.544   7.955
 6786POPC   C4A18270  42.351  41.591   7.655
 6786POPC   C1B18271  42.080  41.644   8.555
 6786POPC   C2B18272  42.125  41.685   8.255
 6786POPC   C3B18273  42.137  41.668   7.955
 6786POPC   C4B18274  42.105  41.606   7.655
 6787POPC   NC318275   2.750  43.112   9.455
 6787POPC   PO418276   2.773  43.063   9.155
 6787POPC   GL118277   2.796  43.076   8.855
 6787POPC   GL218278   2.845  43.115   8.855
 6787POPC   C1A18279   2.765  43.098   8.555
 6787POPC   D2A18280   2.800  43.062   8.255
 6787POPC   C3A18281   2.799  43.081   7.955
 6787POPC   C4A18282   2.812  43.074   7.655
 6787POPC   C1B18283   3.034  43.013   8.555
 6787POPC   C2B18284   2.975  43.072   8.255
 6787POPC   C3B18285   3.047  43.040   7.955
 6787POPC   C4B18286   3.048  42.994   7.655
 6788POPC   NC318287   3.583   7.413   9.455
 6788POPC   PO418288   3.525   7.444   9.155
 6788POPC   GL118289   3.534   7.452   8.855
 6788POPC   GL218290   3.483   7.510   8.855
 6788POPC   C1A18291   3.538   7.466   8.555
 6788POPC   D2A18292   3.583   7.398   8.255
 6788POPC   C3A18293   3.553   7.425   7.955
 6788POPC   C4A18294   3.568   7.422   7.655
 6788POPC   C1B18295   3.399   7.675   8.555
 6788POPC   C2B18296   3.467   7.666   8.255
 6788POPC   C3B18297   3.464   7.653   7.955
 6788POPC   C4B18298   3.411   7.610   7.655
 6789POPC   NC318299   8.924  39.188   9.455
 6789POPC   PO418300   8.975  39.280   9.155
 6789POPC   GL118301   9.006  39.260   8.855
 6789POPC   GL218302   8.912  39.215   8.855
 6789POPC   C1A18303   8.923  39.198   8.555
 6789POPC   D2A18304   8.950  39.230   8.255
 6789POPC   C3A18305   8.984  39.253   7.955
 6789POPC   C4A18306   8.956  39.186   7.655
 6789POPC   C1B18307   8.767  39.070   8.555
 6789POPC   C2B18308   8.774  39.135   8.255
 6789POPC   C3B18309   8.779  39.077   7.955
 6789POPC   C4B18310   8.709  39.119   7.655
 6790POPC   NC318311  29.905   8.240   9.455
 6790POPC   PO418312  29.888   8.178   9.155
 6790POPC   GL118313  29.889   8.213   8.855
 6790POPC   GL218314  29.879   8.051   8.855
 6790POPC   C1A18315  29.871   8.178   8.555
 6790POPC   D2A18316  29.932   8.217   8.255
 6790POPC   C3A18317  29.889   8.237   7.955
 6790POPC   C4A18318  29.969   8.242   7.655
 6790POPC   C1B18319  29.790   7.962   8.555
 6790POPC   C2B18320  29.774   7.993   8.255
 6790POPC   C3B18321  29.768   7.966   7.955
 6790POPC   C4B18322  29.764   7.981   7.655
 6791POPC   NC318323  34.565  36.884   9.455
 6791POPC   PO418324  34.574  36.902   9.155
 6791POPC   GL118325  34.609  36.903   8.855
 6791POPC   GL218326  34.699  36.781   8.855
 6791POPC   C1A18327  34.562  36.884   8.555
 6791POPC   D2A18328  34.593  36.885   8.255
 6791POPC   C3A18329  34.572  36.942   7.955
 6791POPC   C4A18330  34.548  36.926   7.655
 6791POPC   C1B18331  34.811  36.729   8.555
 6791POPC   C2B18332  34.730  36.726   8.255
 6791POPC   C3B18333  34.782  36.776   7.955
 6791POPC   C4B18334  34.726  36.701   7.655
 6792POPC   NC318335  17.488   7.383   9.455
 6792POPC   PO418336  17.507   7.438   9.155
 6792POPC   GL118337  17.487   7.436   8.855
 6792POPC   GL218338  17.506   7.271   8.855
 6792POPC   C1A18339  17.521   7.405   8.555
 6792POPC   D2A18340  17.549   7.420   8.255
 6792POPC   C3A18341  17.546   7.428   7.955
 6792POPC   C4A18342  17.531   7.466   7.655
 6792POPC   C1B18343  17.406   7.186   8.555
 6792POPC   C2B18344  17.423   7.159   8.255
 6792POPC   C3B18345  17.437   7.199   7.955
 6792POPC   C4B18346  17.420   7.147   7.655
 6793POPC   NC318347  20.618  39.231   9.455
 6793POPC   PO418348  20.641  39.212   9.155
 6793POPC   GL118349  20.631  39.274   8.855
 6793POPC   GL218350  20.723  39.127   8.855
 6793POPC   C1A18351  20.594  39.264   8.555
 6793POPC   D2A18352  20.614  39.219   8.255
 6793POPC   C3A18353  20.595  39.190   7.955
 6793POPC   C4A18354  20.606  39.257   7.655
 6793POPC   C1B18355  20.828  39.060   8.555
 6793POPC   C2B18356  20.754  39.082   8.255
 6793POPC   C3B18357  20.758  39.079   7.955
 6793POPC   C4B18358  20.790  39.019   7.655
 6794POPC   NC318359  29.884  17.471   9.455
 6794POPC   PO418360  29.911  17.461   9.155
 6794POPC   GL118361  29.919  17.540   8.855
 6794POPC   GL218362  29.791  17.447   8.855
 6794POPC   C1A18363  29.948  17.476   8.555
 6794POPC   D2A18364  29.881  17.550   8.255
 6794POPC   C3A18365  29.880  17.490   7.955
 6794POPC   C4A18366  29.872  17.482   7.655
 6794POPC   C1B18367  29.685  17.388   8.555
 6794POPC   C2B18368  29.722  17.355   8.255
 6794POPC   C3B18369  29.720  17.399   7.955
 6794POPC   C4B18370  29.645  17.373   7.655
 6795POPC   NC318371  43.141   6.612   9.455
 6795POPC   PO418372  43.128   6.676   9.155
 6795POPC   GL118373  43.139   6.694   8.855
 6795POPC   GL218374  43.131   6.764   8.855
 6795POPC   C1A18375  43.093   6.657   8.555
 6795POPC   D2A18376  43.076   6.692   8.255
 6795POPC   C3A18377  43.149   6.653   7.955
 6795POPC   C4A18378  43.089   6.643   7.655
 6795POPC   C1B18379  43.214   6.863   8.555
 6795POPC   C2B18380  43.211   6.919   8.255
 6795POPC   C3B18381  43.215   6.925   7.955
 6795POPC   C4B18382  43.178   6.926   7.655
 6796POPC   NC318383  27.554   1.242   9.455
 6796POPC   PO418384  27.571   1.253   9.155
 6796POPC   GL118385  27.596   1.183   8.855
 6796POPC   GL218386  27.583   1.114   8.855
 6796POPC   C1A18387  27.608   1.220   8.555
 6796POPC   D2A18388  27.612   1.200   8.255
 6796POPC   C3A18389  27.551   1.241   7.955
 6796POPC   C4A18390  27.560   1.249   7.655
 6796POPC   C1B18391  27.645   0.990   8.555
 6796POPC   C2B18392  27.610   0.975   8.255
 6796POPC   C3B18393  27.675   0.973   7.955
 6796POPC   C4B18394  27.635   0.982   7.655
 6797POPC   NC318395  29.124  33.827   9.455
 6797POPC   PO418396  29.114  33.825   9.155
 6797POPC   GL118397  29.122  33.841   8.855
 6797POPC   GL218398  29.317  33.776   8.855
 6797POPC   C1A18399  29.162  33.828   8.555
 6797POPC   D2A18400  29.137  33.779   8.255
 6797POPC   C3A18401  29.164  33.844   7.955
 6797POPC   C4A18402  29.186  33.849   7.655
 6797POPC   C1B18403  29.353  33.770   8.555
 6797POPC   C2B18404  29.382  33.824   8.255
 6797POPC   C3B18405  29.385  33.768   7.955
 6797POPC   C4B18406  29.376  33.769   7.655
 6798POPC   NC318407   6.607  14.367   9.455
 6798POPC   PO418408   6.651  14.409   9.155
 6798POPC   GL118409   6.650  14.364   8.855
 6798POPC   GL218410   6.751  14.437   8.855
 6798POPC   C1A18411   6.692  14.428   8.555
 6798POPC   D2A18412   6.668  14.448   8.255
 6798POPC   C3A18413   6.694  14.392   7.955
 6798POPC   C4A18414   6.650  14.418   7.655
 6798POPC   C1B18415   6.874  14.563   8.555
 6798POPC   C2B18416   6.848  14.519   8.255
 6798POPC   C3B18417   6.866  14.585   7.955
 6798POPC   C4B18418   6.835  14.542   7.655
 6799POPC   NC318419   3.525  17.460   9.455
 6799POPC   PO418420   3.521  17.555   9.155
 6799POPC   GL118421   3.574  17.486   8.855
 6799POPC   GL218422   3.642  17.418   8.855
 6799POPC   C1A18423   3.564  17.537   8.555
 6799POPC   D2A18424   3.500  17.518   8.255
 6799POPC   C3A18425   3.546  17.475   7.955
 6799POPC   C4A18426   3.576  17.466   7.655
 6799POPC   C1B18427   3.743  17.375   8.555
 6799POPC   C2B18428   3.803  17.384   8.255
 6799POPC   C3B18429   3.802  17.393   7.955
 6799POPC   C4B18430   3.797  17.346   7.655
 6800POPC   NC318431   2.025  30.722   9.455
 6800POPC   PO418432   1.988  30.692   9.155
 6800POPC   GL118433   2.036  30.671   8.855
 6800POPC   GL218434   1.862  30.680   8.855
 6800POPC   C1A18435   1.948  30.689   8.555
 6800POPC   D2A18436   1.962  30.669   8.255
 6800POPC   C3A18437   2.011  30.716   7.955
 6800POPC   C4A18438   1.983  30.681   7.655
 6800POPC   C1B18439   1.780  30.622   8.555
 6800POPC   C2B18440   1.746  30.684   8.255
 6800POPC   C3B18441   1.706  30.683   7.955
 6800POPC   C4B18442   1.773  30.642   7.655
 6801POPC   NC318443   6.670  16.683   9.455
 6801POPC   PO418444   6.659  16.776   9.155
 6801POPC   GL118445   6.649  16.771   8.855
 6801POPC   GL218446   6.569  16.683   8.855
 6801POPC   C1A18447   6.641  16.737   8.555
 6801POPC   D2A18448   6.688  16.700   8.255
 6801POPC   C3A18449   6.610  16.689   7.955
 6801POPC   C4A18450   6.645  16.699   7.655
 6801POPC   C1B18451   6.402  16.726   8.555
 6801POPC   C2B18452   6.366  16.667   8.255
 6801POPC   C3B18453   6.374  16.692   7.955
 6801POPC   C4B18454   6.366  16.688   7.655
 6802POPC   NC318455  42.303  21.412   9.455
 6802POPC   PO418456  42.380  21.382   9.155
 6802POPC   GL118457  42.313  21.422   8.855
 6802POPC   GL218458  42.492  21.351   8.855
 6802POPC   C1A18459  42.325  21.405   8.555
 6802POPC   D2A18460  42.290  21.435   8.255
 6802POPC   C3A18461  42.384  21.389   7.955
 6802POPC   C4A18462  42.304  21.406   7.655
 6802POPC   C1B18463  42.564  21.289   8.555
 6802POPC   C2B18464  42.532  21.357   8.255
 6802POPC   C3B18465  42.612  21.342   7.955
 6802POPC   C4B18466  42.624  21.379   7.655
 6803POPC   NC318467   5.052   2.006   9.455
 6803POPC   PO418468   5.050   1.978   9.155
 6803POPC   GL118469   5.092   1.977   8.855
 6803POPC   GL218470   4.940   2.011   8.855
 6803POPC   C1A18471   5.129   1.996   8.555
 6803POPC   D2A18472   5.068   1.948   8.255
 6803POPC   C3A18473   5.076   1.988   7.955
 6803POPC   C4A18474   5.114   1.963   7.655
 6803POPC   C1B18475   4.880   1.915   8.555
 6803POPC   C2B18476   4.811   1.959   8.255
 6803POPC   C3B18477   4.869   1.965   7.955
 6803POPC   C4B18478   4.823   1.921   7.655
 6804POPC   NC318479  43.090   0.454   9.455
 6804POPC   PO418480  43.152   0.391   9.155
 6804POPC   GL118481  43.124   0.428   8.855
 6804POPC   GL218482  43.178   0.597   8.855
 6804POPC   C1A18483  43.096   0.389   8.555
 6804POPC   D2A18484  43.128   0.388   8.255
 6804POPC   C3A18485  43.061   0.469   7.955
 6804POPC   C4A18486  43.080   0.409   7.655
 6804POPC   C1B18487  43.213   0.715   8.555
 6804POPC   C2B18488  43.208   0.627   8.255
 6804POPC   C3B18489  43.218   0.667   7.955
 6804POPC   C4B18490  43.230   0.700   7.655
 6805POPC   NC318491   8.179  20.659   9.455
 6805POPC   PO418492   8.216  20.656   9.155
 6805POPC   GL118493   8.197  20.562   8.855
 6805POPC   GL218494   8.049  20.628   8.855
 6805POPC   C1A18495   8.209  20.651   8.555
 6805POPC   D2A18496   8.206  20.614   8.255
 6805POPC   C3A18497   8.193  20.643   7.955
 6805POPC   C4A18498   8.222  20.654   7.655
 6805POPC   C1B18499   7.929  20.586   8.555
 6805POPC   C2B18500   7.995  20.569   8.255
 6805POPC   C3B18501   7.951  20.616   7.955
 6805POPC   C4B18502   7.925  20.582   7.655
 6806POPC   NC318503  15.939  28.409   9.455
 6806POPC   PO418504  15.974  28.393   9.155
 6806POPC   GL118505  15.916  28.369   8.855
 6806POPC   GL218506  16.120  28.277   8.855
 6806POPC   C1A18507  15.960  28.327   8.555
 6806POPC   D2A18508  15.981  28.350   8.255
 6806POPC   C3A18509  15.939  28.327   7.955
 6806POPC   C4A18510  15.910  28.342   7.655
 6806POPC   C1B18511  16.180  28.228   8.555
 6806POPC   C2B18512  16.233  28.269   8.255
 6806POPC   C3B18513  16.199  28.249   7.955
 6806POPC   C4B18514  16.154  28.233   7.655
 6807POPC   NC318515  39.226  20.574   9.455
 6807POPC   PO418516  39.190  20.593   9.155
 6807POPC   GL118517  39.264  20.656   8.855
 6807POPC   GL218518  39.311  20.595   8.855
 6807POPC   C1A18519  39.268  20.638   8.555
 6807POPC   D2A18520  39.256  20.625   8.255
 6807POPC   C3A18521  39.252  20.628   7.955
 6807POPC   C4A18522  39.216  20.561   7.655
 6807POPC   C1B18523  39.450  20.595   8.555
 6807POPC   C2B18524  39.475  20.525   8.255
 6807POPC   C3B18525  39.475  20.540   7.955
 6807POPC   C4B18526  39.477  20.588   7.655
 6808POPC   NC318527  19.803  32.253   9.455
 6808POPC   PO418528  19.792  32.268   9.155
 6808POPC   GL118529  19.829  32.231   8.855
 6808POPC   GL218530  19.811  32.103   8.855
 6808POPC   C1A18531  19.863  32.232   8.555
 6808POPC   D2A18532  19.790  32.199   8.255
 6808POPC   C3A18533  19.864  32.260   7.955
 6808POPC   C4A18534  19.820  32.273   7.655
 6808POPC   C1B18535  19.814  31.982   8.555
 6808POPC   C2B18536  19.788  31.995   8.255
 6808POPC   C3B18537  19.793  32.038   7.955
 6808POPC   C4B18538  19.790  32.045   7.655
 6809POPC   NC318539  20.634  23.694   9.455
 6809POPC   PO418540  20.566  23.753   9.155
 6809POPC   GL118541  20.572  23.729   8.855
 6809POPC   GL218542  20.503  23.799   8.855
 6809POPC   C1A18543  20.642  23.702   8.555
 6809POPC   D2A18544  20.606  23.693   8.255
 6809POPC   C3A18545  20.626  23.762   7.955
 6809POPC   C4A18546  20.579  23.666   7.655
 6809POPC   C1B18547  20.484  23.889   8.555
 6809POPC   C2B18548  20.455  23.939   8.255
 6809POPC   C3B18549  20.515  23.918   7.955
 6809POPC   C4B18550  20.488  23.933   7.655
 6810POPC   NC318551  12.856  23.706   9.455
 6810POPC   PO418552  12.834  23.707   9.155
 6810POPC   GL118553  12.814  23.738   8.855
 6810POPC   GL218554  12.859  23.616   8.855
 6810POPC   C1A18555  12.874  23.738   8.555
 6810POPC   D2A18556  12.829  23.672   8.255
 6810POPC   C3A18557  12.888  23.730   7.955
 6810POPC   C4A18558  12.832  23.666   7.655
 6810POPC   C1B18559  12.937  23.449   8.555
 6810POPC   C2B18560  12.923  23.534   8.255
 6810POPC   C3B18561  12.934  23.472   7.955
 6810POPC   C4B18562  12.996  23.462   7.655
 6811POPC   NC318563  38.451  24.535   9.455
 6811POPC   PO418564  38.497  24.514   9.155
 6811POPC   GL118565  38.501  24.484   8.855
 6811POPC   GL218566  38.478  24.565   8.855
 6811POPC   C1A18567  38.421  24.512   8.555
 6811POPC   D2A18568  38.461  24.489   8.255
 6811POPC   C3A18569  38.431  24.537   7.955
 6811POPC   C4A18570  38.462  24.533   7.655
 6811POPC   C1B18571  38.399  24.752   8.555
 6811POPC   C2B18572  38.388  24.762   8.255
 6811POPC   C3B18573  38.447  24.772   7.955
 6811POPC   C4B18574  38.395  24.719   7.655
 6812POPC   NC318575  18.286   8.209   9.455
 6812POPC   PO418576  18.248   8.221   9.155
 6812POPC   GL118577  18.285   8.199   8.855
 6812POPC   GL218578  18.301   8.314   8.855
 6812POPC   C1A18579  18.249   8.246   8.555
 6812POPC   D2A18580  18.240   8.212   8.255
 6812POPC   C3A18581  18.262   8.153   7.955
 6812POPC   C4A18582  18.286   8.201   7.655
 6812POPC   C1B18583  18.232   8.473   8.555
 6812POPC   C2B18584  18.200   8.415   8.255
 6812POPC   C3B18585  18.206   8.485   7.955
 6812POPC   C4B18586  18.283   8.431   7.655
 6813POPC   NC318587  32.238  38.504   9.455
 6813POPC   PO418588  32.212  38.445   9.155
 6813POPC   GL118589  32.236  38.416   8.855
 6813POPC   GL218590  32.348  38.416   8.855
 6813POPC   C1A18591  32.267  38.419   8.555
 6813POPC   D2A18592  32.227  38.446   8.255
 6813POPC   C3A18593  32.260  38.497   7.955
 6813POPC   C4A18594  32.201  38.415   7.655
 6813POPC   C1B18595  32.509  38.386   8.555
 6813POPC   C2B18596  32.501  38.348   8.255
 6813POPC   C3B18597  32.481  38.360   7.955
 6813POPC   C4B18598  32.512  38.347   7.655
 6814POPC   NC318599   5.856   6.601   9.455
 6814POPC   PO418600   5.857   6.618   9.155
 6814POPC   GL118601   5.902   6.636   8.855
 6814POPC   GL218602   5.988   6.691   8.855
 6814POPC   C1A18603   5.907   6.663   8.555
 6814POPC   D2A18604   5.907   6.666   8.255
 6814POPC   C3A18605   5.836   6.655   7.955
 6814POPC   C4A18606   5.858   6.674   7.655
 6814POPC   C1B18607   6.070   6.825   8.555
 6814POPC   C2B18608   6.010   6.803   8.255
 6814POPC   C3B18609   6.027   6.822   7.955
 6814POPC   C4B18610   6.016   6.846   7.655
 6815POPC   NC318611  13.622  18.267   9.455
 6815POPC   PO418612  13.581  18.305   9.155
 6815POPC   GL118613  13.579  18.302   8.855
 6815POPC   GL218614  13.768  18.298   8.855
 6815POPC   C1A18615  13.595  18.252   8.555
 6815POPC   D2A18616  13.622  18.325   8.255
 6815POPC   C3A18617  13.596  18.329   7.955
 6815POPC   C4A18618  13.654  18.290   7.655
 6815POPC   C1B18619  13.861  18.371   8.555
 6815POPC   C2B18620  13.882  18.360   8.255
 6815POPC   C3B18621  13.909  18.369   7.955
 6815POPC   C4B18622  13.865  18.380   7.655
 6816POPC   NC318623   9.013  11.291   9.455
 6816POPC   PO418624   9.014  11.326   9.155
 6816POPC   GL118625   8.931  11.299   8.855
 6816POPC   GL218626   8.857  11.158   8.855
 6816POPC   C1A18627   8.926  11.298   8.555
 6816POPC   D2A18628   8.941  11.310   8.255
 6816POPC   C3A18629   8.985  11.310   7.955
 6816POPC   C4A18630   8.990  11.299   7.655
 6816POPC   C1B18631   8.774  11.121   8.555
 6816POPC   C2B18632   8.823  11.093   8.255
 6816POPC   C3B18633   8.769  11.120   7.955
 6816POPC   C4B18634   8.785  11.147   7.655
 6817POPC   NC318635  36.896  23.735   9.455
 6817POPC   PO418636  36.934  23.703   9.155
 6817POPC   GL118637  36.947  23.741   8.855
 6817POPC   GL218638  36.957  23.798   8.855
 6817POPC   C1A18639  36.884  23.742   8.555
 6817POPC   D2A18640  36.920  23.704   8.255
 6817POPC   C3A18641  36.892  23.759   7.955
 6817POPC   C4A18642  36.890  23.728   7.655
 6817POPC   C1B18643  37.036  23.876   8.555
 6817POPC   C2B18644  37.098  23.893   8.255
 6817POPC   C3B18645  37.029  23.929   7.955
 6817POPC   C4B18646  37.020  23.945   7.655
 6818POPC   NC318647   6.615  38.436   9.455
 6818POPC   PO418648   6.632  38.476   9.155
 6818POPC   GL118649   6.596  38.433   8.855
 6818POPC   GL218650   6.762  38.514   8.855
 6818POPC   C1A18651   6.651  38.447   8.555
 6818POPC   D2A18652   6.613  38.461   8.255
 6818POPC   C3A18653   6.603  38.429   7.955
 6818POPC   C4A18654   6.659  38.468   7.655
 6818POPC   C1B18655   6.875  38.605   8.555
 6818POPC   C2B18656   6.875  38.623   8.255
 6818POPC   C3B18657   6.831  38.630   7.955
 6818POPC   C4B18658   6.833  38.571   7.655
 6819POPC   NC318659  43.901  34.617   9.455
 6819POPC   PO418660  43.864  34.562   9.155
 6819POPC   GL118661  43.843  34.527   8.855
 6819POPC   GL218662  43.884  34.738   8.855
 6819POPC   C1A18663  43.839  34.549   8.555
 6819POPC   D2A18664  43.914  34.567   8.255
 6819POPC   C3A18665  43.904  34.624   7.955
 6819POPC   C4A18666  43.875  34.567   7.655
 6819POPC   C1B18667  43.800  34.799   8.555
 6819POPC   C2B18668  43.751  34.854   8.255
 6819POPC   C3B18669  43.816  34.833   7.955
 6819POPC   C4B18670  43.779  34.760   7.655
 6820POPC   NC318671  13.582  30.739   9.455
 6820POPC   PO418672  13.595  30.660   9.155
 6820POPC   GL118673  13.610  30.715   8.855
 6820POPC   GL218674  13.477  30.715   8.855
 6820POPC   C1A18675  13.649  30.671   8.555
 6820POPC   D2A18676  13.666  30.669   8.255
 6820POPC   C3A18677  13.642  30.658   7.955
 6820POPC   C4A18678  13.628  30.681   7.655
 6820POPC   C1B18679  13.393  30.712   8.555
 6820POPC   C2B18680  13.387  30.679   8.255
 6820POPC   C3B18681  13.396  30.719   7.955
 6820POPC   C4B18682  13.425  30.735   7.655
 6821POPC   NC318683   9.761  44.659   9.455
 6821POPC   PO418684   9.724  44.656   9.155
 6821POPC   GL118685   9.733  44.631   8.855
 6821POPC   GL218686   9.630  44.617   8.855
 6821POPC   C1A18687   9.786  44.650   8.555
 6821POPC   D2A18688   9.764  44.656   8.255
 6821POPC   C3A18689   9.750  44.620   7.955
 6821POPC   C4A18690   9.746  44.705   7.655
 6821POPC   C1B18691   9.512  44.705   8.555
 6821POPC   C2B18692   9.544  44.644   8.255
 6821POPC   C3B18693   9.452  44.646   7.955
 6821POPC   C4B18694   9.449  44.665   7.655
 6822POPC   NC318695   6.642  44.620   9.455
 6822POPC   PO418696   6.640  44.665   9.155
 6822POPC   GL118697   6.615  44.619   8.855
 6822POPC   GL218698   6.564  44.558   8.855
 6822POPC   C1A18699   6.659  44.617   8.555
 6822POPC   D2A18700   6.630  44.640   8.255
 6822POPC   C3A18701   6.666  44.690   7.955
 6822POPC   C4A18702   6.597  44.693   7.655
 6822POPC   C1B18703   6.437  44.481   8.555
 6822POPC   C2B18704   6.452  44.566   8.255
 6822POPC   C3B18705   6.472  44.482   7.955
 6822POPC   C4B18706   6.436  44.483   7.655
 6823POPC   NC318707   8.224  14.401   9.455
 6823POPC   PO418708   8.151  14.367   9.155
 6823POPC   GL118709   8.190  14.365   8.855
 6823POPC   GL218710   8.154  14.529   8.855
 6823POPC   C1A18711   8.167  14.426   8.555
 6823POPC   D2A18712   8.209  14.424   8.255
 6823POPC   C3A18713   8.186  14.373   7.955
 6823POPC   C4A18714   8.173  14.403   7.655
 6823POPC   C1B18715   8.072  14.549   8.555
 6823POPC   C2B18716   7.990  14.597   8.255
 6823POPC   C3B18717   8.045  14.579   7.955
 6823POPC   C4B18718   8.052  14.615   7.655
 6824POPC   NC318719  25.225  30.685   9.455
 6824POPC   PO418720  25.288  30.713   9.155
 6824POPC   GL118721  25.244  30.718   8.855
 6824POPC   GL218722  25.160  30.744   8.855
 6824POPC   C1A18723  25.272  30.697   8.555
 6824POPC   D2A18724  25.222  30.723   8.255
 6824POPC   C3A18725  25.249  30.734   7.955
 6824POPC   C4A18726  25.314  30.657   7.655
 6824POPC   C1B18727  25.090  30.784   8.555
 6824POPC   C2B18728  25.055  30.761   8.255
 6824POPC   C3B18729  25.075  30.779   7.955
 6824POPC   C4B18730  25.047  30.818   7.655
 6825POPC   NC318731  18.244   5.901   9.455
 6825POPC   PO418732  18.319   5.902   9.155
 6825POPC   GL118733  18.294   5.910   8.855
 6825POPC   GL218734  18.191   5.879   8.855
 6825POPC   C1A18735  18.314   5.839   8.555
 6825POPC   D2A18736  18.304   5.876   8.255
 6825POPC   C3A18737  18.263   5.881   7.955
 6825POPC   C4A18738  18.305   5.899   7.655
 6825POPC   C1B18739  18.017   5.834   8.555
 6825POPC   C2B18740  18.076   5.752   8.255
 6825POPC   C3B18741  18.047   5.838   7.955
 6825POPC   C4B18742  18.064   5.824   7.655
 6826POPC   NC318743  26.001  22.925   9.455
 6826POPC   PO418744  26.022  22.908   9.155
 6826POPC   GL118745  25.993  22.916   8.855
 6826POPC   GL218746  26.187  22.964   8.855
 6826POPC   C1A18747  26.038  22.962   8.555
 6826POPC   D2A18748  26.068  22.981   8.255
 6826POPC   C3A18749  26.056  22.889   7.955
 6826POPC   C4A18750  26.039  22.914   7.655
 6826POPC   C1B18751  26.282  23.084   8.555
 6826POPC   C2B18752  26.287  23.013   8.255
 6826POPC   C3B18753  26.261  23.040   7.955
 6826POPC   C4B18754  26.266  23.035   7.655
 6827POPC   NC318755  12.834  36.867   9.455
 6827POPC   PO418756  12.852  36.916   9.155
 6827POPC   GL118757  12.811  36.864   8.855
 6827POPC   GL218758  12.783  36.971   8.855
 6827POPC   C1A18759  12.814  36.921   8.555
 6827POPC   D2A18760  12.871  36.857   8.255
 6827POPC   C3A18761  12.840  36.856   7.955
 6827POPC   C4A18762  12.812  36.894   7.655
 6827POPC   C1B18763  12.722  37.125   8.555
 6827POPC   C2B18764  12.766  37.142   8.255
 6827POPC   C3B18765  12.722  37.160   7.955
 6827POPC   C4B18766  12.769  37.137   7.655
 6828POPC   NC318767  10.508  32.277   9.455
 6828POPC   PO418768  10.487  32.235   9.155
 6828POPC   GL118769  10.493  32.291   8.855
 6828POPC   GL218770  10.641  32.138   8.855
 6828POPC   C1A18771  10.488  32.270   8.555
 6828POPC   D2A18772  10.568  32.291   8.255
 6828POPC   C3A18773  10.531  32.218   7.955
 6828POPC   C4A18774  10.492  32.224   7.655
 6828POPC   C1B18775  10.673  32.017   8.555
 6828POPC   C2B18776  10.642  32.048   8.255
 6828POPC   C3B18777  10.679  32.005   7.955
 6828POPC   C4B18778  10.653  32.058   7.655
 6829POPC   NC318779  34.529  33.820   9.455
 6829POPC   PO418780  34.611  33.755   9.155
 6829POPC   GL118781  34.551  33.789   8.855
 6829POPC   GL218782  34.563  33.868   8.855
 6829POPC   C1A18783  34.550  33.822   8.555
 6829POPC   D2A18784  34.541  33.809   8.255
 6829POPC   C3A18785  34.618  33.751   7.955
 6829POPC   C4A18786  34.545  33.766   7.655
 6829POPC   C1B18787  34.470  34.055   8.555
 6829POPC   C2B18788  34.444  34.011   8.255
 6829POPC   C3B18789  34.477  34.015   7.955
 6829POPC   C4B18790  34.471  34.006   7.655
 6830POPC   NC318791  32.239   6.673   9.455
 6830POPC   PO418792  32.249   6.615   9.155
 6830POPC   GL118793  32.283   6.642   8.855
 6830POPC   GL218794  32.147   6.576   8.855
 6830POPC   C1A18795  32.208   6.626   8.555
 6830POPC   D2A18796  32.279   6.666   8.255
 6830POPC   C3A18797  32.232   6.644   7.955
 6830POPC   C4A18798  32.293   6.681   7.655
 6830POPC   C1B18799  32.015   6.524   8.555
 6830POPC   C2B18800  32.058   6.519   8.255
 6830POPC   C3B18801  32.006   6.612   7.955
 6830POPC   C4B18802  32.053   6.529   7.655
 6831POPC   NC318803   4.271  31.504   9.455
 6831POPC   PO418804   4.301  31.441   9.155
 6831POPC   GL118805   4.297  31.521   8.855
 6831POPC   GL218806   4.301  31.304   8.855
 6831POPC   C1A18807   4.349  31.456   8.555
 6831POPC   D2A18808   4.307  31.516   8.255
 6831POPC   C3A18809   4.362  31.463   7.955
 6831POPC   C4A18810   4.337  31.451   7.655
 6831POPC   C1B18811   4.397  31.236   8.555
 6831POPC   C2B18812   4.337  31.223   8.255
 6831POPC   C3B18813   4.391  31.263   7.955
 6831POPC   C4B18814   4.350  31.188   7.655
 6832POPC   NC318815  18.328   0.472   9.455
 6832POPC   PO418816  18.287   0.467   9.155
 6832POPC   GL118817  18.306   0.434   8.855
 6832POPC   GL218818  18.278   0.285   8.855
 6832POPC   C1A18819  18.296   0.427   8.555
 6832POPC   D2A18820  18.301   0.418   8.255
 6832POPC   C3A18821  18.244   0.454   7.955
 6832POPC   C4A18822  18.301   0.418   7.655
 6832POPC   C1B18823  18.259   0.215   8.555
 6832POPC   C2B18824  18.194   0.148   8.255
 6832POPC   C3B18825  18.265   0.236   7.955
 6832POPC   C4B18826  18.188   0.219   7.655
 6833POPC   NC318827  40.781   4.351   9.455
 6833POPC   PO418828  40.766   4.366   9.155
 6833POPC   GL118829  40.796   4.333   8.855
 6833POPC   GL218830  40.791   4.396   8.855
 6833POPC   C1A18831  40.802   4.310   8.555
 6833POPC   D2A18832  40.813   4.272   8.255
 6833POPC   C3A18833  40.821   4.299   7.955
 6833POPC   C4A18834  40.735   4.367   7.655
 6833POPC   C1B18835  40.755   4.596   8.555
 6833POPC   C2B18836  40.723   4.564   8.255
 6833POPC   C3B18837  40.734   4.554   7.955
 6833POPC   C4B18838  40.720   4.613   7.655
 6834POPC   NC318839  28.389  43.130   9.455
 6834POPC   PO418840  28.362  43.110   9.155
 6834POPC   GL118841  28.361  43.137   8.855
 6834POPC   GL218842  28.443  43.153   8.855
 6834POPC   C1A18843  28.399  43.083   8.555
 6834POPC   D2A18844  28.410  43.153   8.255
 6834POPC   C3A18845  28.365  43.151   7.955
 6834POPC   C4A18846  28.403  43.139   7.655
 6834POPC   C1B18847  28.575  43.221   8.555
 6834POPC   C2B18848  28.594  43.254   8.255
 6834POPC   C3B18849  28.643  43.265   7.955
 6834POPC   C4B18850  28.552  43.223   7.655
 6835POPC   NC318851   4.332  33.019   9.455
 6835POPC   PO418852   4.343  32.977   9.155
 6835POPC   GL118853   4.282  33.029   8.855
 6835POPC   GL218854   4.444  33.123   8.855
 6835POPC   C1A18855   4.286  33.053   8.555
 6835POPC   D2A18856   4.330  33.046   8.255
 6835POPC   C3A18857   4.280  33.009   7.955
 6835POPC   C4A18858   4.280  32.977   7.655
 6835POPC   C1B18859   4.507  33.222   8.555
 6835POPC   C2B18860   4.465  33.228   8.255
 6835POPC   C3B18861   4.473  33.238   7.955
 6835POPC   C4B18862   4.478  33.228   7.655
 6836POPC   NC318863  26.789  15.140   9.455
 6836POPC   PO418864  26.777  15.157   9.155
 6836POPC   GL118865  26.866  15.195   8.855
 6836POPC   GL218866  26.965  15.174   8.855
 6836POPC   C1A18867  26.773  15.219   8.555
 6836POPC   D2A18868  26.855  15.146   8.255
 6836POPC   C3A18869  26.795  15.228   7.955
 6836POPC   C4A18870  26.775  15.195   7.655
 6836POPC   C1B18871  27.054  15.164   8.555
 6836POPC   C2B18872  27.105  15.197   8.255
 6836POPC   C3B18873  27.100  15.216   7.955
 6836POPC   C4B18874  27.114  15.201   7.655
 6837POPC   NC318875  30.742  36.927   9.455
 6837POPC   PO418876  30.702  36.932   9.155
 6837POPC   GL118877  30.662  36.887   8.855
 6837POPC   GL218878  30.604  36.869   8.855
 6837POPC   C1A18879  30.719  36.953   8.555
 6837POPC   D2A18880  30.721  36.856   8.255
 6837POPC   C3A18881  30.712  36.891   7.955
 6837POPC   C4A18882  30.658  36.880   7.655
 6837POPC   C1B18883  30.484  36.842   8.555
 6837POPC   C2B18884  30.442  36.915   8.255
 6837POPC   C3B18885  30.437  36.866   7.955
 6837POPC   C4B18886  30.443  36.928   7.655
 6838POPC   NC318887   8.930  36.108   9.455
 6838POPC   PO418888   8.951  36.102   9.155
 6838POPC   GL118889   8.980  36.126   8.855
 6838POPC   GL218890   8.880  36.099   8.855
 6838POPC   C1A18891   8.963  36.137   8.555
 6838POPC   D2A18892   8.965  36.133   8.255
 6838POPC   C3A18893   8.959  36.149   7.955
 6838POPC   C4A18894   8.961  36.173   7.655
 6838POPC   C1B18895   8.764  35.976   8.555
 6838POPC   C2B18896   8.817  36.023   8.255
 6838POPC   C3B18897   8.761  36.004   7.955
 6838POPC   C4B18898   8.814  35.958   7.655
 6839POPC   NC318899  24.443  14.429   9.455
 6839POPC   PO418900  24.514  14.410   9.155
 6839POPC   GL118901  24.465  14.442   8.855
 6839POPC   GL218902  24.470  14.562   8.855
 6839POPC   C1A18903  24.526  14.404   8.555
 6839POPC   D2A18904  24.532  14.423   8.255
 6839POPC   C3A18905  24.480  14.427   7.955
 6839POPC   C4A18906  24.453  14.383   7.655
 6839POPC   C1B18907  24.350  14.589   8.555
 6839POPC   C2B18908  24.371  14.666   8.255
 6839POPC   C3B18909  24.394  14.596   7.955
 6839POPC   C4B18910  24.388  14.613   7.655
 6840POPC   NC318911  17.482  34.558   9.455
 6840POPC   PO418912  17.540  34.572   9.155
 6840POPC   GL118913  17.509  34.532   8.855
 6840POPC   GL218914  17.617  34.594   8.855
 6840POPC   C1A18915  17.544  34.529   8.555
 6840POPC   D2A18916  17.470  34.560   8.255
 6840POPC   C3A18917  17.546  34.536   7.955
 6840POPC   C4A18918  17.460  34.527   7.655
 6840POPC   C1B18919  17.803  34.540   8.555
 6840POPC   C2B18920  17.752  34.598   8.255
 6840POPC   C3B18921  17.779  34.608   7.955
 6840POPC   C4B18922  17.730  34.531   7.655
 6841POPC   NC318923  43.143  29.897   9.455
 6841POPC   PO418924  43.097  29.876   9.155
 6841POPC   GL118925  43.075  29.895   8.855
 6841POPC   GL218926  43.050  30.084   8.855
 6841POPC   C1A18927  43.133  29.920   8.555
 6841POPC   D2A18928  43.067  29.896   8.255
 6841POPC   C3A18929  43.065  29.896   7.955
 6841POPC   C4A18930  43.086  29.961   7.655
 6841POPC   C1B18931  43.023  30.201   8.555
 6841POPC   C2B18932  43.027  30.181   8.255
 6841POPC   C3B18933  43.049  30.192   7.955
 6841POPC   C4B18934  43.066  30.190   7.655
 6842POPC   NC318935  36.160  34.564   9.455
 6842POPC   PO418936  36.097  34.556   9.155
 6842POPC   GL118937  36.128  34.590   8.855
 6842POPC   GL218938  36.059  34.683   8.855
 6842POPC   C1A18939  36.156  34.621   8.555
 6842POPC   D2A18940  36.159  34.588   8.255
 6842POPC   C3A18941  36.151  34.605   7.955
 6842POPC   C4A18942  36.092  34.588   7.655
 6842POPC   C1B18943  36.023  34.800   8.555
 6842POPC   C2B18944  36.027  34.823   8.255
 6842POPC   C3B18945  35.985  34.805   7.955
 6842POPC   C4B18946  36.050  34.799   7.655
 6843POPC   NC318947  30.686  19.091   9.455
 6843POPC   PO418948  30.710  19.101   9.155
 6843POPC   GL118949  30.727  19.092   8.855
 6843POPC   GL218950  30.633  18.958   8.855
 6843POPC   C1A18951  30.746  19.044   8.555
 6843POPC   D2A18952  30.737  19.021   8.255
 6843POPC   C3A18953  30.666  19.075   7.955
 6843POPC   C4A18954  30.723  19.052   7.655
 6843POPC   C1B18955  30.485  18.943   8.555
 6843POPC   C2B18956  30.542  18.904   8.255
 6843POPC   C3B18957  30.518  18.871   7.955
 6843POPC   C4B18958  30.463  18.884   7.655
 6844POPC   NC318959  16.747  40.744   9.455
 6844POPC   PO418960  16.693  40.831   9.155
 6844POPC   GL118961  16.780  40.787   8.855
 6844POPC   GL218962  16.881  40.801   8.855
 6844POPC   C1A18963  16.725  40.740   8.555
 6844POPC   D2A18964  16.772  40.738   8.255
 6844POPC   C3A18965  16.721  40.735   7.955
 6844POPC   C4A18966  16.740  40.806   7.655
 6844POPC   C1B18967  17.024  40.808   8.555
 6844POPC   C2B18968  16.976  40.776   8.255
 6844POPC   C3B18969  17.024  40.747   7.955
 6844POPC   C4B18970  16.951  40.785   7.655
 6845POPC   NC318971  39.233  42.295   9.455
 6845POPC   PO418972  39.267  42.307   9.155
 6845POPC   GL118973  39.221  42.380   8.855
 6845POPC   GL218974  39.334  42.238   8.855
 6845POPC   C1A18975  39.197  42.321   8.555
 6845POPC   D2A18976  39.261  42.360   8.255
 6845POPC   C3A18977  39.217  42.295   7.955
 6845POPC   C4A18978  39.271  42.368   7.655
 6845POPC   C1B18979  39.422  42.147   8.555
 6845POPC   C2B18980  39.434  42.126   8.255
 6845POPC   C3B18981  39.399  42.154   7.955
 6845POPC   C4B18982  39.380  42.095   7.655
 6846POPC   NC318983  29.180  43.876   9.455
 6846POPC   PO418984  29.110  43.882   9.155
 6846POPC   GL118985  29.129  43.879   8.855
 6846POPC   GL218986  29.157  43.748   8.855
 6846POPC   C1A18987  29.149  43.866   8.555
 6846POPC   D2A18988  29.186  43.853   8.255
 6846POPC   C3A18989  29.113  43.862   7.955
 6846POPC   C4A18990  29.109  43.854   7.655
 6846POPC   C1B18991  29.215  43.623   8.555
 6846POPC   C2B18992  29.228  43.703   8.255
 6846POPC   C3B18993  29.304  43.705   7.955
 6846POPC   C4B18994  29.259  43.630   7.655
 6847POPC   NC318995  25.258  11.317   9.455
 6847POPC   PO418996  25.296  11.285   9.155
 6847POPC   GL118997  25.242  11.329   8.855
 6847POPC   GL218998  25.345  11.175   8.855
 6847POPC   C1A18999  25.295  11.292   8.555
 6847POPC   D2A19000  25.306  11.260   8.255
 6847POPC   C3A19001  25.230  11.309   7.955
 6847POPC   C4A19002  25.246  11.275   7.655
 6847POPC   C1B19003  25.398  11.085   8.555
 6847POPC   C2B19004  25.361  11.138   8.255
 6847POPC   C3B19005  25.435  11.127   7.955
 6847POPC   C4B19006  25.445  11.056   7.655
 6848POPC   NC319007  16.738  43.913   9.455
 6848POPC   PO419008  16.711  43.933   9.155
 6848POPC   GL119009  16.682  43.873   8.855
 6848POPC   GL219010  16.661  43.997   8.855
 6848POPC   C1A19011  16.701  43.866   8.555
 6848POPC   D2A19012  16.755  43.933   8.255
 6848POPC   C3A19013  16.720  43.842   7.955
 6848POPC   C4A19014  16.731  43.910   7.655
 6848POPC   C1B19015  16.501  44.037   8.555
 6848POPC   C2B19016  16.551  44.028   8.255
 6848POPC   C3B19017  16.551  44.061   7.955
 6848POPC   C4B19018  16.489  44.082   7.655
 6849POPC   NC319019  40.824   1.181   9.455
 6849POPC   PO419020  40.740   1.206   9.155
 6849POPC   GL119021  40.777   1.200   8.855
 6849POPC   GL219022  40.893   1.271   8.855
 6849POPC   C1A19023  40.789   1.249   8.555
 6849POPC   D2A19024  40.764   1.186   8.255
 6849POPC   C3A19025  40.764   1.211   7.955
 6849POPC   C4A19026  40.787   1.217   7.655
 6849POPC   C1B19027  40.965   1.328   8.555
 6849POPC   C2B19028  40.984   1.379   8.255
 6849POPC   C3B19029  41.012   1.390   7.955
 6849POPC   C4B19030  41.012   1.325   7.655
 6850POPC   NC319031   7.441  15.206   9.455
 6850POPC   PO419032   7.413  15.201   9.155
 6850POPC   GL119033   7.410  15.167   8.855
 6850POPC   GL219034   7.406  15.272   8.855
 6850POPC   C1A19035   7.462  15.191   8.555
 6850POPC   D2A19036   7.456  15.203   8.255
 6850POPC   C3A19037   7.387  15.213   7.955
 6850POPC   C4A19038   7.469  15.170   7.655
 6850POPC   C1B19039   7.435  15.436   8.555
 6850POPC   C2B19040   7.446  15.474   8.255
 6850POPC   C3B19041   7.462  15.392   7.955
 6850POPC   C4B19042   7.405  15.406   7.655
 6851POPC   NC319043  40.797  26.815   9.455
 6851POPC   PO419044  40.777  26.788   9.155
 6851POPC   GL119045  40.800  26.840   8.855
 6851POPC   GL219046  40.917  26.821   8.855
 6851POPC   C1A19047  40.828  26.838   8.555
 6851POPC   D2A19048  40.826  26.843   8.255
 6851POPC   C3A19049  40.803  26.833   7.955
 6851POPC   C4A19050  40.808  26.808   7.655
 6851POPC   C1B19051  41.074  26.761   8.555
 6851POPC   C2B19052  41.055  26.723   8.255
 6851POPC   C3B19053  41.000  26.748   7.955
 6851POPC   C4B19054  41.078  26.742   7.655
 6852POPC   NC319055  33.027  19.075   9.455
 6852POPC   PO419056  33.070  19.100   9.155
 6852POPC   GL119057  32.986  19.060   8.855
 6852POPC   GL219058  33.068  19.177   8.855
 6852POPC   C1A19059  32.990  19.106   8.555
 6852POPC   D2A19060  32.980  19.033   8.255
 6852POPC   C3A19061  33.007  19.030   7.955
 6852POPC   C4A19062  32.982  19.078   7.655
 6852POPC   C1B19063  33.171  19.266   8.555
 6852POPC   C2B19064  33.208  19.253   8.255
 6852POPC   C3B19065  33.176  19.253   7.955
 6852POPC   C4B19066  33.170  19.248   7.655
 6853POPC   NC319067   3.543  35.377   9.455
 6853POPC   PO419068   3.534  35.359   9.155
 6853POPC   GL119069   3.548  35.352   8.855
 6853POPC   GL219070   3.680  35.364   8.855
 6853POPC   C1A19071   3.498  35.353   8.555
 6853POPC   D2A19072   3.545  35.335   8.255
 6853POPC   C3A19073   3.557  35.386   7.955
 6853POPC   C4A19074   3.590  35.329   7.655
 6853POPC   C1B19075   3.789  35.397   8.555
 6853POPC   C2B19076   3.772  35.409   8.255
 6853POPC   C3B19077   3.779  35.470   7.955
 6853POPC   C4B19078   3.805  35.450   7.655
 6854POPC   NC319079   5.880  19.058   9.455
 6854POPC   PO419080   5.876  19.101   9.155
 6854POPC   GL119081   5.869  19.107   8.855
 6854POPC   GL219082   5.997  19.057   8.855
 6854POPC   C1A19083   5.875  19.012   8.555
 6854POPC   D2A19084   5.882  19.011   8.255
 6854POPC   C3A19085   5.889  19.056   7.955
 6854POPC   C4A19086   5.880  19.018   7.655
 6854POPC   C1B19087   6.156  19.053   8.555
 6854POPC   C2B19088   6.145  19.136   8.255
 6854POPC   C3B19089   6.128  19.057   7.955
 6854POPC   C4B19090   6.132  19.091   7.655
 6855POPC   NC319091  30.700  11.286   9.455
 6855POPC   PO419092  30.705  11.265   9.155
 6855POPC   GL119093  30.719  11.263   8.855
 6855POPC   GL219094  30.768  11.209   8.855
 6855POPC   C1A19095  30.727  11.323   8.555
 6855POPC   D2A19096  30.694  11.348   8.255
 6855POPC   C3A19097  30.720  11.273   7.955
 6855POPC   C4A19098  30.665  11.311   7.655
 6855POPC   C1B19099  30.869  11.116   8.555
 6855POPC   C2B19100  30.816  11.111   8.255
 6855POPC   C3B19101  30.859  11.083   7.955
 6855POPC   C4B19102  30.842  11.061   7.655
 6856POPC   NC319103  19.818  44.704   9.455
 6856POPC   PO419104  19.811  44.680   9.155
 6856POPC   GL119105  19.881  44.684   8.855
 6856POPC   GL219106  19.869  44.615   8.855
 6856POPC   C1A19107  19.843  44.688   8.555
 6856POPC   D2A19108  19.787  44.630   8.255
 6856POPC   C3A19109  19.861  44.684   7.955
 6856POPC   C4A19110  19.808  44.657   7.655
 6856POPC   C1B19111  19.985  44.424   8.555
 6856POPC   C2B19112  19.964  44.475   8.255
 6856POPC   C3B19113  19.996  44.477   7.955
 6856POPC   C4B19114  19.949  44.434   7.655
 6857POPC   NC319115  13.617  10.520   9.455
 6857POPC   PO419116  13.647  10.501   9.155
 6857POPC   GL119117  13.619  10.547   8.855
 6857POPC   GL219118  13.466  10.491   8.855
 6857POPC   C1A19119  13.631  10.520   8.555
 6857POPC   D2A19120  13.586  10.502   8.255
 6857POPC   C3A19121  13.590  10.527   7.955
 6857POPC   C4A19122  13.617  10.518   7.655
 6857POPC   C1B19123  13.401  10.463   8.555
 6857POPC   C2B19124  13.404  10.557   8.255
 6857POPC   C3B19125  13.337  10.561   7.955
 6857POPC   C4B19126  13.379  10.517   7.655
 6858POPC   NC319127  33.060   6.673   9.455
 6858POPC   PO419128  33.061   6.598   9.155
 6858POPC   GL119129  33.053   6.612   8.855
 6858POPC   GL219130  32.909   6.592   8.855
 6858POPC   C1A19131  33.067   6.620   8.555
 6858POPC   D2A19132  32.986   6.617   8.255
 6858POPC   C3A19133  32.989   6.685   7.955
 6858POPC   C4A19134  32.991   6.620   7.655
 6858POPC   C1B19135  32.830   6.446   8.555
 6858POPC   C2B19136  32.866   6.435   8.255
 6858POPC   C3B19137  32.786   6.502   7.955
 6858POPC   C4B19138  32.816   6.502   7.655
 6859POPC   NC319139  12.112  33.004   9.455
 6859POPC   PO419140  12.033  33.036   9.155
 6859POPC   GL119141  12.052  33.031   8.855
 6859POPC   GL219142  12.089  32.883   8.855
 6859POPC   C1A19143  12.094  32.983   8.555
 6859POPC   D2A19144  12.124  33.072   8.255
 6859POPC   C3A19145  12.122  33.041   7.955
 6859POPC   C4A19146  12.055  33.035   7.655
 6859POPC   C1B19147  12.223  32.757   8.555
 6859POPC   C2B19148  12.157  32.806   8.255
 6859POPC   C3B19149  12.199  32.789   7.955
 6859POPC   C4B19150  12.221  32.815   7.655
 6860POPC   NC319151   1.236   0.392   9.455
 6860POPC   PO419152   1.193   0.465   9.155
 6860POPC   GL119153   1.262   0.403   8.855
 6860POPC   GL219154   1.130   0.464   8.855
 6860POPC   C1A19155   1.201   0.486   8.555
 6860POPC   D2A19156   1.205   0.478   8.255
 6860POPC   C3A19157   1.221   0.395   7.955
 6860POPC   C4A19158   1.229   0.391   7.655
 6860POPC   C1B19159   1.005   0.519   8.555
 6860POPC   C2B19160   1.013   0.464   8.255
 6860POPC   C3B19161   1.010   0.462   7.955
 6860POPC   C4B19162   0.971   0.457   7.655
 6861POPC   NC319163  32.245  43.107   9.455
 6861POPC   PO419164  32.290  43.140   9.155
 6861POPC   GL119165  32.233  43.118   8.855
 6861POPC   GL219166  32.189  43.240   8.855
 6861POPC   C1A19167  32.285  43.153   8.555
 6861POPC   D2A19168  32.253  43.136   8.255
 6861POPC   C3A19169  32.272  43.062   7.955
 6861POPC   C4A19170  32.272  43.085   7.655
 6861POPC   C1B19171  32.193  43.399   8.555
 6861POPC   C2B19172  32.201  43.327   8.255
 6861POPC   C3B19173  32.217  43.316   7.955
 6861POPC   C4B19174  32.160  43.329   7.655
 6862POPC   NC319175  15.962  36.871   9.455
 6862POPC   PO419176  16.004  36.927   9.155
 6862POPC   GL119177  15.933  36.905   8.855
 6862POPC   GL219178  15.990  36.787   8.855
 6862POPC   C1A19179  15.978  36.872   8.555
 6862POPC   D2A19180  15.969  36.918   8.255
 6862POPC   C3A19181  15.912  36.873   7.955
 6862POPC   C4A19182  15.954  36.871   7.655
 6862POPC   C1B19183  16.048  36.678   8.555
 6862POPC   C2B19184  16.061  36.715   8.255
 6862POPC   C3B19185  16.108  36.737   7.955
 6862POPC   C4B19186  16.110  36.717   7.655
 6863POPC   NC319187   8.996  34.534   9.455
 6863POPC   PO419188   8.990  34.614   9.155
 6863POPC   GL119189   8.970  34.594   8.855
 6863POPC   GL219190   9.120  34.559   8.855
 6863POPC   C1A19191   8.933  34.593   8.555
 6863POPC   D2A19192   8.973  34.570   8.255
 6863POPC   C3A19193   9.019  34.529   7.955
 6863POPC   C4A19194   8.940  34.552   7.655
 6863POPC   C1B19195   9.139  34.400   8.555
 6863POPC   C2B19196   9.219  34.440   8.255
 6863POPC   C3B19197   9.185  34.485   7.955
 6863POPC   C4B19198   9.146  34.415   7.655
 6864POPC   NC319199  30.677   4.291   9.455
 6864POPC   PO419200  30.665   4.297   9.155
 6864POPC   GL119201  30.698   4.338   8.855
 6864POPC   GL219202  30.617   4.377   8.855
 6864POPC   C1A19203  30.672   4.301   8.555
 6864POPC   D2A19204  30.716   4.346   8.255
 6864POPC   C3A19205  30.688   4.333   7.955
 6864POPC   C4A19206  30.661   4.297   7.655
 6864POPC   C1B19207  30.498   4.359   8.555
 6864POPC   C2B19208  30.441   4.400   8.255
 6864POPC   C3B19209  30.473   4.338   7.955
 6864POPC   C4B19210  30.482   4.391   7.655
 6865POPC   NC319211  43.859  39.971   9.455
 6865POPC   PO419212  43.847  39.961   9.155
 6865POPC   GL119213  43.893  39.962   8.855
 6865POPC   GL219214  43.825  40.177   8.855
 6865POPC   C1A19215  43.875  39.971   8.555
 6865POPC   D2A19216  43.869  40.048   8.255
 6865POPC   C3A19217  43.903  40.027   7.955
 6865POPC   C4A19218  43.868  40.004   7.655
 6865POPC   C1B19219  43.810  40.231   8.555
 6865POPC   C2B19220  43.875  40.274   8.255
 6865POPC   C3B19221  43.813  40.232   7.955
 6865POPC   C4B19222  43.812  40.285   7.655
 6866POPC   NC319223  15.931  35.321   9.455
 6866POPC   PO419224  16.004  35.307   9.155
 6866POPC   GL119225  15.970  35.357   8.855
 6866POPC   GL219226  15.822  35.321   8.855
 6866POPC   C1A19227  15.960  35.389   8.555
 6866POPC   D2A19228  15.909  35.391   8.255
 6866POPC   C3A19229  15.992  35.342   7.955
 6866POPC   C4A19230  15.917  35.382   7.655
 6866POPC   C1B19231  15.677  35.335   8.555
 6866POPC   C2B19232  15.732  35.415   8.255
 6866POPC   C3B19233  15.719  35.411   7.955
 6866POPC   C4B19234  15.730  35.401   7.655
 6867POPC   NC319235  12.044  14.426   9.455
 6867POPC   PO419236  12.030  14.392   9.155
 6867POPC   GL119237  12.076  14.439   8.855
 6867POPC   GL219238  12.082  14.290   8.855
 6867POPC   C1A19239  12.086  14.377   8.555
 6867POPC   D2A19240  12.076  14.431   8.255
 6867POPC   C3A19241  12.092  14.421   7.955
 6867POPC   C4A19242  12.070  14.393   7.655
 6867POPC   C1B19243  11.969  14.175   8.555
 6867POPC   C2B19244  11.964  14.162   8.255
 6867POPC   C3B19245  12.016  14.191   7.955
 6867POPC   C4B19246  11.948  14.213   7.655
 6868POPC   NC319247   6.644  19.098   9.455
 6868POPC   PO419248   6.658  19.089   9.155
 6868POPC   GL119249   6.596  19.046   8.855
 6868POPC   GL219250   6.757  19.144   8.855
 6868POPC   C1A19251   6.631  19.047   8.555
 6868POPC   D2A19252   6.649  19.085   8.255
 6868POPC   C3A19253   6.660  19.019   7.955
 6868POPC   C4A19254   6.606  19.093   7.655
 6868POPC   C1B19255   6.844  19.144   8.555
 6868POPC   C2B19256   6.881  19.108   8.255
 6868POPC   C3B19257   6.860  19.182   7.955
 6868POPC   C4B19258   6.846  19.164   7.655
 6869POPC   NC319259  25.219  12.124   9.455
 6869POPC   PO419260  25.300  12.041   9.155
 6869POPC   GL119261  25.241  12.097   8.855
 6869POPC   GL219262  25.356  11.980   8.855
 6869POPC   C1A19263  25.255  12.035   8.555
 6869POPC   D2A19264  25.308  12.104   8.255
 6869POPC   C3A19265  25.312  12.028   7.955
 6869POPC   C4A19266  25.282  12.108   7.655
 6869POPC   C1B19267  25.380  11.879   8.555
 6869POPC   C2B19268  25.364  11.846   8.255
 6869POPC   C3B19269  25.401  11.821   7.955
 6869POPC   C4B19270  25.401  11.836   7.655
 6870POPC   NC319271  19.016  40.772   9.455
 6870POPC   PO419272  19.041  40.736   9.155
 6870POPC   GL119273  19.033  40.806   8.855
 6870POPC   GL219274  18.972  40.716   8.855
 6870POPC   C1A19275  19.035  40.790   8.555
 6870POPC   D2A19276  19.033  40.815   8.255
 6870POPC   C3A19277  19.108  40.752   7.955
 6870POPC   C4A19278  19.038  40.770   7.655
 6870POPC   C1B19279  18.910  40.597   8.555
 6870POPC   C2B19280  18.940  40.535   8.255
 6870POPC   C3B19281  19.001  40.533   7.955
 6870POPC   C4B19282  18.985  40.586   7.655
 6871POPC   NC319283   7.431  15.993   9.455
 6871POPC   PO419284   7.399  15.973   9.155
 6871POPC   GL119285   7.421  15.996   8.855
 6871POPC   GL219286   7.354  15.858   8.855
 6871POPC   C1A19287   7.429  15.925   8.555
 6871POPC   D2A19288   7.428  15.943   8.255
 6871POPC   C3A19289   7.464  15.980   7.955
 6871POPC   C4A19290   7.377  15.909   7.655
 6871POPC   C1B19291   7.211  15.815   8.555
 6871POPC   C2B19292   7.173  15.790   8.255
 6871POPC   C3B19293   7.210  15.784   7.955
 6871POPC   C4B19294   7.200  15.768   7.655
 6872POPC   NC319295  12.119  39.266   9.455
 6872POPC   PO419296  12.053  39.225   9.155
 6872POPC   GL119297  12.060  39.277   8.855
 6872POPC   GL219298  11.972  39.206   8.855
 6872POPC   C1A19299  12.111  39.271   8.555
 6872POPC   D2A19300  12.055  39.183   8.255
 6872POPC   C3A19301  12.076  39.218   7.955
 6872POPC   C4A19302  12.110  39.199   7.655
 6872POPC   C1B19303  11.882  39.054   8.555
 6872POPC   C2B19304  11.830  39.103   8.255
 6872POPC   C3B19305  11.854  39.098   7.955
 6872POPC   C4B19306  11.850  39.066   7.655
 6873POPC   NC319307  24.461  23.726   9.455
 6873POPC   PO419308  24.501  23.683   9.155
 6873POPC   GL119309  24.536  23.703   8.855
 6873POPC   GL219310  24.575  23.572   8.855
 6873POPC   C1A19311  24.523  23.729   8.555
 6873POPC   D2A19312  24.470  23.685   8.255
 6873POPC   C3A19313  24.513  23.686   7.955
 6873POPC   C4A19314  24.493  23.675   7.655
 6873POPC   C1B19315  24.602  23.500   8.555
 6873POPC   C2B19316  24.646  23.472   8.255
 6873POPC   C3B19317  24.613  23.506   7.955
 6873POPC   C4B19318  24.608  23.531   7.655
 6874POPC   NC319319  29.932  44.630   9.455
 6874POPC   PO419320  29.896  44.632   9.155
 6874POPC   GL119321  29.934  44.672   8.855
 6874POPC   GL219322  29.949  44.533   8.855
 6874POPC   C1A19323  29.967  44.674   8.555
 6874POPC   D2A19324  29.876  44.624   8.255
 6874POPC   C3A19325  29.948  44.705   7.955
 6874POPC   C4A19326  29.945  44.669   7.655
 6874POPC   C1B19327  29.960  44.391   8.555
 6874POPC   C2B19328  30.047  44.415   8.255
 6874POPC   C3B19329  30.036  44.423   7.955
 6874POPC   C4B19330  29.997  44.457   7.655
 6875POPC   NC319331  12.871   2.730   9.455
 6875POPC   PO419332  12.897   2.718   9.155
 6875POPC   GL119333  12.829   2.731   8.855
 6875POPC   GL219334  12.887   2.625   8.855
 6875POPC   C1A19335  12.822   2.734   8.555
 6875POPC   D2A19336  12.894   2.765   8.255
 6875POPC   C3A19337  12.855   2.724   7.955
 6875POPC   C4A19338  12.815   2.746   7.655
 6875POPC   C1B19339  13.016   2.495   8.555
 6875POPC   C2B19340  12.938   2.583   8.255
 6875POPC   C3B19341  12.977   2.559   7.955
 6875POPC   C4B19342  12.930   2.593   7.655
 6876POPC   NC319343  14.378  31.437   9.455
 6876POPC   PO419344  14.444  31.482   9.155
 6876POPC   GL119345  14.411  31.521   8.855
 6876POPC   GL219346  14.277  31.492   8.855
 6876POPC   C1A19347  14.367  31.452   8.555
 6876POPC   D2A19348  14.380  31.448   8.255
 6876POPC   C3A19349  14.408  31.484   7.955
 6876POPC   C4A19350  14.395  31.476   7.655
 6876POPC   C1B19351  14.166  31.483   8.555
 6876POPC   C2B19352  14.171  31.435   8.255
 6876POPC   C3B19353  14.126  31.448   7.955
 6876POPC   C4B19354  14.123  31.490   7.655
 6877POPC   NC319355   3.588   5.108   9.455
 6877POPC   PO419356   3.503   5.110   9.155
 6877POPC   GL119357   3.507   5.088   8.855
 6877POPC   GL219358   3.651   4.966   8.855
 6877POPC   C1A19359   3.514   5.047   8.555
 6877POPC   D2A19360   3.526   5.058   8.255
 6877POPC   C3A19361   3.544   5.108   7.955
 6877POPC   C4A19362   3.584   5.104   7.655
 6877POPC   C1B19363   3.712   4.938   8.555
 6877POPC   C2B19364   3.753   4.925   8.255
 6877POPC   C3B19365   3.660   4.873   7.955
 6877POPC   C4B19366   3.736   4.913   7.655
 6878POPC   NC319367   2.746  15.992   9.455
 6878POPC   PO419368   2.754  15.958   9.155
 6878POPC   GL119369   2.720  15.983   8.855
 6878POPC   GL219370   2.741  15.805   8.855
 6878POPC   C1A19371   2.811  15.921   8.555
 6878POPC   D2A19372   2.727  15.947   8.255
 6878POPC   C3A19373   2.718  15.949   7.955
 6878POPC   C4A19374   2.761  15.991   7.655
 6878POPC   C1B19375   2.721  15.754   8.555
 6878POPC   C2B19376   2.719  15.717   8.255
 6878POPC   C3B19377   2.731  15.759   7.955
 6878POPC   C4B19378   2.726  15.708   7.655
 6879POPC   NC319379  43.924  17.537   9.455
 6879POPC   PO419380  43.897  17.480   9.155
 6879POPC   GL119381  43.881  17.509   8.855
 6879POPC   GL219382  43.736  17.435   8.855
 6879POPC   C1A19383  43.905  17.501   8.555
 6879POPC   D2A19384  43.853  17.463   8.255
 6879POPC   C3A19385  43.890  17.487   7.955
 6879POPC   C4A19386  43.845  17.541   7.655
 6879POPC   C1B19387  43.669  17.445   8.555
 6879POPC   C2B19388  43.646  17.424   8.255
 6879POPC   C3B19389  43.651  17.427   7.955
 6879POPC   C4B19390  43.677  17.428   7.655
 6880POPC   NC319391  40.753  19.077   9.455
 6880POPC   PO419392  40.749  19.065   9.155
 6880POPC   GL119393  40.807  19.065   8.855
 6880POPC   GL219394  40.892  18.961   8.855
 6880POPC   C1A19395  40.766  19.023   8.555
 6880POPC   D2A19396  40.801  19.068   8.255
 6880POPC   C3A19397  40.787  19.067   7.955
 6880POPC   C4A19398  40.820  19.064   7.655
 6880POPC   C1B19399  40.923  18.903   8.555
 6880POPC   C2B19400  40.933  18.844   8.255
 6880POPC   C3B19401  40.914  18.863   7.955
 6880POPC   C4B19402  40.972  18.863   7.655
 6881POPC   NC319403  44.684  38.432   9.455
 6881POPC   PO419404  44.701  38.460   9.155
 6881POPC   GL119405  44.679  38.409   8.855
 6881POPC   GL219406  44.622  38.610   8.855
 6881POPC   C1A19407  44.687  38.498   8.555
 6881POPC   D2A19408  44.619  38.406   8.255
 6881POPC   C3A19409  44.694  38.469   7.955
 6881POPC   C4A19410  44.675  38.463   7.655
 6881POPC   C1B19411  44.679  38.688   8.555
 6881POPC   C2B19412  44.688  38.680   8.255
 6881POPC   C3B19413  44.663  38.694   7.955
 6881POPC   C4B19414  44.675  38.701   7.655
 6882POPC   NC319415  13.600  14.369   9.455
 6882POPC   PO419416  13.631  14.362   9.155
 6882POPC   GL119417  13.611  14.440   8.855
 6882POPC   GL219418  13.741  14.436   8.855
 6882POPC   C1A19419  13.632  14.447   8.555
 6882POPC   D2A19420  13.620  14.448   8.255
 6882POPC   C3A19421  13.643  14.435   7.955
 6882POPC   C4A19422  13.578  14.444   7.655
 6882POPC   C1B19423  13.824  14.437   8.555
 6882POPC   C2B19424  13.915  14.466   8.255
 6882POPC   C3B19425  13.889  14.465   7.955
 6882POPC   C4B19426  13.908  14.458   7.655
 6883POPC   NC319427  29.157  42.330   9.455
 6883POPC   PO419428  29.158  42.367   9.155
 6883POPC   GL119429  29.111  42.308   8.855
 6883POPC   GL219430  29.246  42.258   8.855
 6883POPC   C1A19431  29.140  42.320   8.555
 6883POPC   D2A19432  29.188  42.292   8.255
 6883POPC   C3A19433  29.141  42.351   7.955
 6883POPC   C4A19434  29.145  42.347   7.655
 6883POPC   C1B19435  29.268  42.120   8.555
 6883POPC   C2B19436  29.261  42.148   8.255
 6883POPC   C3B19437  29.213  42.063   7.955
 6883POPC   C4B19438  29.218  42.129   7.655
 6884POPC   NC319439  17.465  13.630   9.455
 6884POPC   PO419440  17.503  13.613   9.155
 6884POPC   GL119441  17.508  13.637   8.855
 6884POPC   GL219442  17.451  13.464   8.855
 6884POPC   C1A19443  17.481  13.620   8.555
 6884POPC   D2A19444  17.548  13.648   8.255
 6884POPC   C3A19445  17.551  13.660   7.955
 6884POPC   C4A19446  17.514  13.590   7.655
 6884POPC   C1B19447  17.393  13.352   8.555
 6884POPC   C2B19448  17.408  13.402   8.255
 6884POPC   C3B19449  17.415  13.379   7.955
 6884POPC   C4B19450  17.478  13.410   7.655
 6885POPC   NC319451  20.646  40.002   9.455
 6885POPC   PO419452  20.608  40.016   9.155
 6885POPC   GL119453  20.635  39.996   8.855
 6885POPC   GL219454  20.735  40.045   8.855
 6885POPC   C1A19455  20.594  40.029   8.555
 6885POPC   D2A19456  20.656  40.017   8.255
 6885POPC   C3A19457  20.615  40.051   7.955
 6885POPC   C4A19458  20.575  39.975   7.655
 6885POPC   C1B19459  20.797  40.143   8.555
 6885POPC   C2B19460  20.854  40.147   8.255
 6885POPC   C3B19461  20.865  40.140   7.955
 6885POPC   C4B19462  20.849  40.058   7.655
 6886POPC   NC319463  20.605  28.401   9.455
 6886POPC   PO419464  20.659  28.418   9.155
 6886POPC   GL119465  20.606  28.391   8.855
 6886POPC   GL219466  20.644  28.231   8.855
 6886POPC   C1A19467  20.603  28.325   8.555
 6886POPC   D2A19468  20.581  28.401   8.255
 6886POPC   C3A19469  20.598  28.346   7.955
 6886POPC   C4A19470  20.567  28.348   7.655
 6886POPC   C1B19471  20.727  28.136   8.555
 6886POPC   C2B19472  20.666  28.125   8.255
 6886POPC   C3B19473  20.672  28.106   7.955
 6886POPC   C4B19474  20.688  28.142   7.655
 6887POPC   NC319475  36.926  17.485   9.455
 6887POPC   PO419476  36.946  17.491   9.155
 6887POPC   GL119477  36.879  17.458   8.855
 6887POPC   GL219478  36.827  17.370   8.855
 6887POPC   C1A19479  36.874  17.476   8.555
 6887POPC   D2A19480  36.882  17.491   8.255
 6887POPC   C3A19481  36.924  17.537   7.955
 6887POPC   C4A19482  36.913  17.517   7.655
 6887POPC   C1B19483  36.715  17.321   8.555
 6887POPC   C2B19484  36.765  17.318   8.255
 6887POPC   C3B19485  36.772  17.297   7.955
 6887POPC   C4B19486  36.721  17.324   7.655
 6888POPC   NC319487   2.029  39.186   9.455
 6888POPC   PO419488   1.996  39.279   9.155
 6888POPC   GL119489   2.012  39.245   8.855
 6888POPC   GL219490   1.955  39.095   8.855
 6888POPC   C1A19491   1.960  39.273   8.555
 6888POPC   D2A19492   2.027  39.195   8.255
 6888POPC   C3A19493   1.948  39.250   7.955
 6888POPC   C4A19494   1.988  39.231   7.655
 6888POPC   C1B19495   1.924  38.961   8.555
 6888POPC   C2B19496   1.921  39.045   8.255
 6888POPC   C3B19497   1.878  39.035   7.955
 6888POPC   C4B19498   1.875  38.975   7.655
 6889POPC   NC319499   5.123   8.951   9.455
 6889POPC   PO419500   5.052   8.991   9.155
 6889POPC   GL119501   5.129   8.935   8.855
 6889POPC   GL219502   4.991   8.861   8.855
 6889POPC   C1A19503   5.071   8.961   8.555
 6889POPC   D2A19504   5.118   8.993   8.255
 6889POPC   C3A19505   5.081   8.975   7.955
 6889POPC   C4A19506   5.127   8.934   7.655
 6889POPC   C1B19507   4.835   8.873   8.555
 6889POPC   C2B19508   4.906   8.822   8.255
 6889POPC   C3B19509   4.906   8.799   7.955
 6889POPC   C4B19510   4.841   8.804   7.655
 6890POPC   NC319511  25.302  13.594   9.455
 6890POPC   PO419512  25.271  13.677   9.155
 6890POPC   GL119513  25.218  13.666   8.855
 6890POPC   GL219514  25.152  13.691   8.855
 6890POPC   C1A19515  25.295  13.587   8.555
 6890POPC   D2A19516  25.292  13.627   8.255
 6890POPC   C3A19517  25.266  13.651   7.955
 6890POPC   C4A19518  25.245  13.608   7.655
 6890POPC   C1B19519  25.007  13.693   8.555
 6890POPC   C2B19520  24.978  13.658   8.255
 6890POPC   C3B19521  25.000  13.607   7.955
 6890POPC   C4B19522  24.970  13.609   7.655
 6891POPC   NC319523  31.446  40.745   9.455
 6891POPC   PO419524  31.425  40.826   9.155
 6891POPC   GL119525  31.455  40.762   8.855
 6891POPC   GL219526  31.444  40.690   8.855
 6891POPC   C1A19527  31.469  40.760   8.555
 6891POPC   D2A19528  31.521  40.797   8.255
 6891POPC   C3A19529  31.495  40.757   7.955
 6891POPC   C4A19530  31.468  40.754   7.655
 6891POPC   C1B19531  31.416  40.589   8.555
 6891POPC   C2B19532  31.403  40.497   8.255
 6891POPC   C3B19533  31.410  40.521   7.955
 6891POPC   C4B19534  31.431  40.572   7.655
 6892POPC   NC319535  31.491  31.506   9.455
 6892POPC   PO419536  31.430  31.509   9.155
 6892POPC   GL119537  31.521  31.426   8.855
 6892POPC   GL219538  31.588  31.549   8.855
 6892POPC   C1A19539  31.445  31.500   8.555
 6892POPC   D2A19540  31.486  31.507   8.255
 6892POPC   C3A19541  31.479  31.500   7.955
 6892POPC   C4A19542  31.514  31.484   7.655
 6892POPC   C1B19543  31.705  31.547   8.555
 6892POPC   C2B19544  31.732  31.588   8.255
 6892POPC   C3B19545  31.696  31.573   7.955
 6892POPC   C4B19546  31.667  31.525   7.655
 6893POPC   NC319547   2.027  16.774   9.455
 6893POPC   PO419548   1.981  16.758   9.155
 6893POPC   GL119549   1.992  16.744   8.855
 6893POPC   GL219550   1.920  16.587   8.855
 6893POPC   C1A19551   1.964  16.761   8.555
 6893POPC   D2A19552   1.969  16.724   8.255
 6893POPC   C3A19553   2.028  16.748   7.955
 6893POPC   C4A19554   2.000  16.750   7.655
 6893POPC   C1B19555   1.898  16.527   8.555
 6893POPC   C2B19556   1.947  16.487   8.255
 6893POPC   C3B19557   1.869  16.498   7.955
 6893POPC   C4B19558   1.911  16.501   7.655
 6894POPC   NC319559  17.503  26.815   9.455
 6894POPC   PO419560  17.474  26.779   9.155
 6894POPC   GL119561  17.466  26.833   8.855
 6894POPC   GL219562  17.602  26.689   8.855
 6894POPC   C1A19563  17.520  26.797   8.555
 6894POPC   D2A19564  17.460  26.784   8.255
 6894POPC   C3A19565  17.480  26.846   7.955
 6894POPC   C4A19566  17.539  26.800   7.655
 6894POPC   C1B19567  17.648  26.597   8.555
 6894POPC   C2B19568  17.589  26.611   8.255
 6894POPC   C3B19569  17.621  26.631   7.955
 6894POPC   C4B19570  17.618  26.552   7.655
 6895POPC   NC319571   5.861  14.362   9.455
 6895POPC   PO419572   5.826  14.440   9.155
 6895POPC   GL119573   5.852  14.395   8.855
 6895POPC   GL219574   5.897  14.264   8.855
 6895POPC   C1A19575   5.899  14.378   8.555
 6895POPC   D2A19576   5.897  14.411   8.255
 6895POPC   C3A19577   5.854  14.433   7.955
 6895POPC   C4A19578   5.841  14.384   7.655
 6895POPC   C1B19579   5.851  14.121   8.555
 6895POPC   C2B19580   5.918  14.154   8.255
 6895POPC   C3B19581   5.935  14.104   7.955
 6895POPC   C4B19582   5.868  14.122   7.655
 6896POPC   NC319583  12.121  34.578   9.455
 6896POPC   PO419584  12.082  34.528   9.155
 6896POPC   GL119585  12.115  34.577   8.855
 6896POPC   GL219586  12.071  34.662   8.855
 6896POPC   C1A19587  12.059  34.547   8.555
 6896POPC   D2A19588  12.067  34.615   8.255
 6896POPC   C3A19589  12.100  34.624   7.955
 6896POPC   C4A19590  12.049  34.544   7.655
 6896POPC   C1B19591  12.001  34.809   8.555
 6896POPC   C2B19592  11.989  34.849   8.255
 6896POPC   C3B19593  12.024  34.786   7.955
 6896POPC   C4B19594  12.007  34.837   7.655
 6897POPC   NC319595  21.403  11.276   9.455
 6897POPC   PO419596  21.421  11.283   9.155
 6897POPC   GL119597  21.357  11.269   8.855
 6897POPC   GL219598  21.234  11.328   8.855
 6897POPC   C1A19599  21.351  11.343   8.555
 6897POPC   D2A19600  21.356  11.300   8.255
 6897POPC   C3A19601  21.351  11.323   7.955
 6897POPC   C4A19602  21.353  11.285   7.655
 6897POPC   C1B19603  21.161  11.389   8.555
 6897POPC   C2B19604  21.167  11.414   8.255
 6897POPC   C3B19605  21.194  11.324   7.955
 6897POPC   C4B19606  21.116  11.325   7.655
 6898POPC   NC319607  35.362  20.618   9.455
 6898POPC   PO419608  35.327  20.660   9.155
 6898POPC   GL119609  35.351  20.645   8.855
 6898POPC   GL219610  35.249  20.602   8.855
 6898POPC   C1A19611  35.340  20.623   8.555
 6898POPC   D2A19612  35.325  20.640   8.255
 6898POPC   C3A19613  35.355  20.631   7.955
 6898POPC   C4A19614  35.324  20.609   7.655
 6898POPC   C1B19615  35.131  20.667   8.555
 6898POPC   C2B19616  35.126  20.648   8.255
 6898POPC   C3B19617  35.114  20.720   7.955
 6898POPC   C4B19618  35.147  20.664   7.655
 6899POPC   NC319619  38.428  41.554   9.455
 6899POPC   PO419620  38.473  41.545   9.155
 6899POPC   GL119621  38.504  41.593   8.855
 6899POPC   GL219622  38.343  41.480   8.855
 6899POPC   C1A19623  38.447  41.555   8.555
 6899POPC   D2A19624  38.417  41.594   8.255
 6899POPC   C3A19625  38.444  41.518   7.955
 6899POPC   C4A19626  38.427  41.545   7.655
 6899POPC   C1B19627  38.228  41.506   8.555
 6899POPC   C2B19628  38.179  41.513   8.255
 6899POPC   C3B19629  38.210  41.516   7.955
 6899POPC   C4B19630  38.195  41.448   7.655
 6900POPC   NC319631  36.892  14.451   9.455
 6900POPC   PO419632  36.895  14.421   9.155
 6900POPC   GL119633  36.916  14.424   8.855
 6900POPC   GL219634  37.027  14.398   8.855
 6900POPC   C1A19635  36.921  14.406   8.555
 6900POPC   D2A19636  36.881  14.384   8.255
 6900POPC   C3A19637  36.935  14.445   7.955
 6900POPC   C4A19638  36.857  14.418   7.655
 6900POPC   C1B19639  37.153  14.311   8.555
 6900POPC   C2B19640  37.194  14.357   8.255
 6900POPC   C3B19641  37.161  14.339   7.955
 6900POPC   C4B19642  37.119  14.316   7.655
 6901POPC   NC319643   2.754   8.160   9.455
 6901POPC   PO419644   2.758   8.245   9.155
 6901POPC   GL119645   2.782   8.159   8.855
 6901POPC   GL219646   2.752   8.099   8.855
 6901POPC   C1A19647   2.801   8.188   8.555
 6901POPC   D2A19648   2.751   8.148   8.255
 6901POPC   C3A19649   2.812   8.237   7.955
 6901POPC   C4A19650   2.737   8.199   7.655
 6901POPC   C1B19651   2.633   7.990   8.555
 6901POPC   C2B19652   2.658   7.914   8.255
 6901POPC   C3B19653   2.708   7.983   7.955
 6901POPC   C4B19654   2.729   8.008   7.655
 6902POPC   NC319655   5.860  15.915   9.455
 6902POPC   PO419656   5.910  15.945   9.155
 6902POPC   GL119657   5.840  15.978   8.855
 6902POPC   GL219658   5.883  16.054   8.855
 6902POPC   C1A19659   5.883  15.905   8.555
 6902POPC   D2A19660   5.837  15.948   8.255
 6902POPC   C3A19661   5.834  15.994   7.955
 6902POPC   C4A19662   5.824  15.977   7.655
 6902POPC   C1B19663   5.806  16.180   8.555
 6902POPC   C2B19664   5.825  16.228   8.255
 6902POPC   C3B19665   5.862  16.171   7.955
 6902POPC   C4B19666   5.845  16.242   7.655
 6903POPC   NC319667  26.074  43.882   9.455
 6903POPC   PO419668  26.059  43.837   9.155
 6903POPC   GL119669  26.031  43.931   8.855
 6903POPC   GL219670  26.082  43.762   8.855
 6903POPC   C1A19671  26.014  43.868   8.555
 6903POPC   D2A19672  26.023  43.880   8.255
 6903POPC   C3A19673  26.055  43.852   7.955
 6903POPC   C4A19674  26.050  43.883   7.655
 6903POPC   C1B19675  26.178  43.720   8.555
 6903POPC   C2B19676  26.232  43.723   8.255
 6903POPC   C3B19677  26.164  43.704   7.955
 6903POPC   C4B19678  26.245  43.712   7.655
 6904POPC   NC319679  35.327  35.314   9.455
 6904POPC   PO419680  35.398  35.340   9.155
 6904POPC   GL119681  35.322  35.398   8.855
 6904POPC   GL219682  35.411  35.492   8.855
 6904POPC   C1A19683  35.355  35.337   8.555
 6904POPC   D2A19684  35.322  35.333   8.255
 6904POPC   C3A19685  35.362  35.363   7.955
 6904POPC   C4A19686  35.352  35.378   7.655
 6904POPC   C1B19687  35.486  35.579   8.555
 6904POPC   C2B19688  35.477  35.570   8.255
 6904POPC   C3B19689  35.426  35.575   7.955
 6904POPC   C4B19690  35.466  35.567   7.655
 6905POPC   NC319691  13.636  42.344   9.455
 6905POPC   PO419692  13.630  42.358   9.155
 6905POPC   GL119693  13.579  42.361   8.855
 6905POPC   GL219694  13.597  42.209   8.855
 6905POPC   C1A19695  13.658  42.376   8.555
 6905POPC   D2A19696  13.668  42.292   8.255
 6905POPC   C3A19697  13.640  42.306   7.955
 6905POPC   C4A19698  13.603  42.356   7.655
 6905POPC   C1B19699  13.449  42.149   8.555
 6905POPC   C2B19700  13.521  42.107   8.255
 6905POPC   C3B19701  13.537  42.120   7.955
 6905POPC   C4B19702  13.500  42.093   7.655
 6906POPC   NC319703  22.962  10.476   9.455
 6906POPC   PO419704  22.897  10.482   9.155
 6906POPC   GL119705  22.945  10.486   8.855
 6906POPC   GL219706  22.853  10.514   8.855
 6906POPC   C1A19707  22.890  10.494   8.555
 6906POPC   D2A19708  22.933  10.562   8.255
 6906POPC   C3A19709  22.918  10.488   7.955
 6906POPC   C4A19710  22.964  10.475   7.655
 6906POPC   C1B19711  22.690  10.455   8.555
 6906POPC   C2B19712  22.683  10.517   8.255
 6906POPC   C3B19713  22.734  10.463   7.955
 6906POPC   C4B19714  22.715  10.530   7.655
 6907POPC   NC319715  15.976  39.224   9.455
 6907POPC   PO419716  15.972  39.234   9.155
 6907POPC   GL119717  15.919  39.243   8.855
 6907POPC   GL219718  15.896  39.346   8.855
 6907POPC   C1A19719  15.957  39.246   8.555
 6907POPC   D2A19720  15.907  39.196   8.255
 6907POPC   C3A19721  15.915  39.249   7.955
 6907POPC   C4A19722  15.960  39.209   7.655
 6907POPC   C1B19723  15.736  39.429   8.555
 6907POPC   C2B19724  15.774  39.419   8.255
 6907POPC   C3B19725  15.736  39.448   7.955
 6907POPC   C4B19726  15.753  39.360   7.655
 6908POPC   NC319727   5.081   8.152   9.455
 6908POPC   PO419728   5.116   8.190   9.155
 6908POPC   GL119729   5.119   8.236   8.855
 6908POPC   GL219730   5.001   8.104   8.855
 6908POPC   C1A19731   5.110   8.241   8.555
 6908POPC   D2A19732   5.109   8.238   8.255
 6908POPC   C3A19733   5.045   8.228   7.955
 6908POPC   C4A19734   5.103   8.237   7.655
 6908POPC   C1B19735   4.985   8.017   8.555
 6908POPC   C2B19736   4.926   7.992   8.255
 6908POPC   C3B19737   4.979   8.029   7.955
 6908POPC   C4B19738   4.904   8.002   7.655
 6909POPC   NC319739  19.834   1.999   9.455
 6909POPC   PO419740  19.790   2.035   9.155
 6909POPC   GL119741  19.867   1.962   8.855
 6909POPC   GL219742  19.869   1.835   8.855
 6909POPC   C1A19743  19.883   1.992   8.555
 6909POPC   D2A19744  19.831   1.975   8.255
 6909POPC   C3A19745  19.883   1.981   7.955
 6909POPC   C4A19746  19.785   1.961   7.655
 6909POPC   C1B19747  19.961   1.804   8.555
 6909POPC   C2B19748  19.908   1.794   8.255
 6909POPC   C3B19749  19.934   1.804   7.955
 6909POPC   C4B19750  19.911   1.804   7.655
 6910POPC   NC319751  19.018  41.582   9.455
 6910POPC   PO419752  19.087  41.549   9.155
 6910POPC   GL119753  19.097  41.575   8.855
 6910POPC   GL219754  19.067  41.460   8.855
 6910POPC   C1A19755  19.034  41.517   8.555
 6910POPC   D2A19756  19.060  41.594   8.255
 6910POPC   C3A19757  19.064  41.526   7.955
 6910POPC   C4A19758  19.036  41.600   7.655
 6910POPC   C1B19759  19.034  41.312   8.555
 6910POPC   C2B19760  19.098  41.291   8.255
 6910POPC   C3B19761  19.111  41.327   7.955
 6910POPC   C4B19762  19.095  41.312   7.655
 6911POPC   NC319763  15.969  32.286   9.455
 6911POPC   PO419764  15.919  32.250   9.155
 6911POPC   GL119765  15.918  32.258   8.855
 6911POPC   GL219766  16.061  32.362   8.855
 6911POPC   C1A19767  15.956  32.264   8.555
 6911POPC   D2A19768  16.003  32.266   8.255
 6911POPC   C3A19769  15.970  32.231   7.955
 6911POPC   C4A19770  15.909  32.259   7.655
 6911POPC   C1B19771  16.094  32.461   8.555
 6911POPC   C2B19772  16.143  32.463   8.255
 6911POPC   C3B19773  16.140  32.386   7.955
 6911POPC   C4B19774  16.087  32.432   7.655
 6912POPC   NC319775  29.941  11.257   9.455
 6912POPC   PO419776  29.931  11.269   9.155
 6912POPC   GL119777  29.926  11.319   8.855
 6912POPC   GL219778  29.970  11.195   8.855
 6912POPC   C1A19779  29.894  11.318   8.555
 6912POPC   D2A19780  29.880  11.299   8.255
 6912POPC   C3A19781  29.924  11.256   7.955
 6912POPC   C4A19782  29.899  11.279   7.655
 6912POPC   C1B19783  30.034  11.146   8.555
 6912POPC   C2B19784  30.060  11.149   8.255
 6912POPC   C3B19785  30.111  11.065   7.955
 6912POPC   C4B19786  30.113  11.067   7.655
 6913POPC   NC319787  40.734  33.016   9.455
 6913POPC   PO419788  40.768  32.983   9.155
 6913POPC   GL119789  40.740  33.018   8.855
 6913POPC   GL219790  40.705  33.110   8.855
 6913POPC   C1A19791  40.778  33.049   8.555
 6913POPC   D2A19792  40.784  33.024   8.255
 6913POPC   C3A19793  40.763  32.978   7.955
 6913POPC   C4A19794  40.740  33.072   7.655
 6913POPC   C1B19795  40.644  33.218   8.555
 6913POPC   C2B19796  40.563  33.240   8.255
 6913POPC   C3B19797  40.617  33.202   7.955
 6913POPC   C4B19798  40.601  33.211   7.655
 6914POPC   NC319799  29.168  20.628   9.455
 6914POPC   PO419800  29.189  20.577   9.155
 6914POPC   GL119801  29.127  20.585   8.855
 6914POPC   GL219802  29.046  20.644   8.855
 6914POPC   C1A19803  29.188  20.627   8.555
 6914POPC   D2A19804  29.127  20.647   8.255
 6914POPC   C3A19805  29.158  20.626   7.955
 6914POPC   C4A19806  29.186  20.628   7.655
 6914POPC   C1B19807  28.934  20.688   8.555
 6914POPC   C2B19808  28.942  20.660   8.255
 6914POPC   C3B19809  28.923  20.642   7.955
 6914POPC   C4B19810  28.909  20.656   7.655
 6915POPC   NC319811  22.970  11.272   9.455
 6915POPC   PO419812  22.922  11.282   9.155
 6915POPC   GL119813  22.959  11.341   8.855
 6915POPC   GL219814  22.926  11.149   8.855
 6915POPC   C1A19815  22.984  11.312   8.555
 6915POPC   D2A19816  22.910  11.323   8.255
 6915POPC   C3A19817  22.967  11.330   7.955
 6915POPC   C4A19818  22.951  11.337   7.655
 6915POPC   C1B19819  22.974  11.013   8.555
 6915POPC   C2B19820  22.973  11.098   8.255
 6915POPC   C3B19821  22.944  11.009   7.955
 6915POPC   C4B19822  22.966  11.029   7.655
 6916POPC   NC319823  11.270  13.663   9.455
 6916POPC   PO419824  11.297  13.585   9.155
 6916POPC   GL119825  11.259  13.650   8.855
 6916POPC   GL219826  11.208  13.556   8.855
 6916POPC   C1A19827  11.278  13.664   8.555
 6916POPC   D2A19828  11.269  13.595   8.255
 6916POPC   C3A19829  11.260  13.602   7.955
 6916POPC   C4A19830  11.266  13.631   7.655
 6916POPC   C1B19831  11.180  13.476   8.555
 6916POPC   C2B19832  11.110  13.466   8.255
 6916POPC   C3B19833  11.090  13.447   7.955
 6916POPC   C4B19834  11.104  13.435   7.655
 6917POPC   NC319835   9.718  14.401   9.455
 6917POPC   PO419836   9.712  14.426   9.155
 6917POPC   GL119837   9.740  14.410   8.855
 6917POPC   GL219838   9.686  14.249   8.855
 6917POPC   C1A19839   9.728  14.389   8.555
 6917POPC   D2A19840   9.734  14.434   8.255
 6917POPC   C3A19841   9.743  14.445   7.955
 6917POPC   C4A19842   9.753  14.398   7.655
 6917POPC   C1B19843   9.692  14.121   8.555
 6917POPC   C2B19844   9.673  14.180   8.255
 6917POPC   C3B19845   9.661  14.154   7.955
 6917POPC   C4B19846   9.652  14.120   7.655
 6918POPC   NC319847   3.584  32.261   9.455
 6918POPC   PO419848   3.586  32.277   9.155
 6918POPC   GL119849   3.496  32.256   8.855
 6918POPC   GL219850   3.687  32.204   8.855
 6918POPC   C1A19851   3.556  32.200   8.555
 6918POPC   D2A19852   3.580  32.232   8.255
 6918POPC   C3A19853   3.519  32.210   7.955
 6918POPC   C4A19854   3.511  32.258   7.655
 6918POPC   C1B19855   3.712  32.161   8.555
 6918POPC   C2B19856   3.795  32.127   8.255
 6918POPC   C3B19857   3.789  32.087   7.955
 6918POPC   C4B19858   3.717  32.138   7.655
 6919POPC   NC319859  11.343  22.894   9.455
 6919POPC   PO419860  11.295  22.898   9.155
 6919POPC   GL119861  11.344  22.912   8.855
 6919POPC   GL219862  11.371  22.917   8.855
 6919POPC   C1A19863  11.258  22.973   8.555
 6919POPC   D2A19864  11.298  22.985   8.255
 6919POPC   C3A19865  11.348  22.941   7.955
 6919POPC   C4A19866  11.274  22.925   7.655
 6919POPC   C1B19867  11.476  22.835   8.555
 6919POPC   C2B19868  11.517  22.780   8.255
 6919POPC   C3B19869  11.496  22.805   7.955
 6919POPC   C4B19870  11.540  22.793   7.655
 6920POPC   NC319871  38.442  37.700   9.455
 6920POPC   PO419872  38.476  37.707   9.155
 6920POPC   GL119873  38.423  37.726   8.855
 6920POPC   GL219874  38.586  37.585   8.855
 6920POPC   C1A19875  38.433  37.713   8.555
 6920POPC   D2A19876  38.444  37.725   8.255
 6920POPC   C3A19877  38.406  37.668   7.955
 6920POPC   C4A19878  38.421  37.710   7.655
 6920POPC   C1B19879  38.618  37.526   8.555
 6920POPC   C2B19880  38.635  37.518   8.255
 6920POPC   C3B19881  38.671  37.538   7.955
 6920POPC   C4B19882  38.663  37.519   7.655
 6921POPC   NC319883   5.118  19.042   9.455
 6921POPC   PO419884   5.107  19.035   9.155
 6921POPC   GL119885   5.070  19.072   8.855
 6921POPC   GL219886   4.948  18.979   8.855
 6921POPC   C1A19887   5.047  19.081   8.555
 6921POPC   D2A19888   5.074  19.010   8.255
 6921POPC   C3A19889   5.075  19.062   7.955
 6921POPC   C4A19890   5.103  19.086   7.655
 6921POPC   C1B19891   4.888  18.937   8.555
 6921POPC   C2B19892   4.911  18.880   8.255
 6921POPC   C3B19893   4.918  18.898   7.955
 6921POPC   C4B19894   4.885  18.865   7.655
 6922POPC   NC319895  43.871  31.491   9.455
 6922POPC   PO419896  43.870  31.429   9.155
 6922POPC   GL119897  43.875  31.503   8.855
 6922POPC   GL219898  44.051  31.525   8.855
 6922POPC   C1A19899  43.876  31.504   8.555
 6922POPC   D2A19900  43.918  31.444   8.255
 6922POPC   C3A19901  43.841  31.444   7.955
 6922POPC   C4A19902  43.901  31.464   7.655
 6922POPC   C1B19903  44.137  31.513   8.555
 6922POPC   C2B19904  44.098  31.463   8.255
 6922POPC   C3B19905  44.104  31.541   7.955
 6922POPC   C4B19906  44.121  31.479   7.655
 6923POPC   NC319907  15.988   6.655   9.455
 6923POPC   PO419908  15.953   6.665   9.155
 6923POPC   GL119909  15.920   6.606   8.855
 6923POPC   GL219910  16.051   6.661   8.855
 6923POPC   C1A19911  15.991   6.619   8.555
 6923POPC   D2A19912  15.925   6.642   8.255
 6923POPC   C3A19913  15.961   6.688   7.955
 6923POPC   C4A19914  15.972   6.626   7.655
 6923POPC   C1B19915  16.211   6.759   8.555
 6923POPC   C2B19916  16.182   6.729   8.255
 6923POPC   C3B19917  16.130   6.728   7.955
 6923POPC   C4B19918  16.131   6.784   7.655
 6924POPC   NC319919  40.753  31.488   9.455
 6924POPC   PO419920  40.830  31.509   9.155
 6924POPC   GL119921  40.823  31.492   8.855
 6924POPC   GL219922  40.780  31.366   8.855
 6924POPC   C1A19923  40.739  31.436   8.555
 6924POPC   D2A19924  40.799  31.456   8.255
 6924POPC   C3A19925  40.790  31.461   7.955
 6924POPC   C4A19926  40.752  31.519   7.655
 6924POPC   C1B19927  40.782  31.206   8.555
 6924POPC   C2B19928  40.807  31.198   8.255
 6924POPC   C3B19929  40.766  31.233   7.955
 6924POPC   C4B19930  40.793  31.198   7.655
 6925POPC   NC319931   4.330   1.238   9.455
 6925POPC   PO419932   4.293   1.260   9.155
 6925POPC   GL119933   4.292   1.260   8.855
 6925POPC   GL219934   4.376   1.074   8.855
 6925POPC   C1A19935   4.306   1.200   8.555
 6925POPC   D2A19936   4.268   1.207   8.255
 6925POPC   C3A19937   4.325   1.256   7.955
 6925POPC   C4A19938   4.367   1.201   7.655
 6925POPC   C1B19939   4.453   1.009   8.555
 6925POPC   C2B19940   4.456   1.014   8.255
 6925POPC   C3B19941   4.398   1.016   7.955
 6925POPC   C4B19942   4.440   1.004   7.655
 6926POPC   NC319943  36.151  19.802   9.455
 6926POPC   PO419944  36.163  19.809   9.155
 6926POPC   GL119945  36.152  19.808   8.855
 6926POPC   GL219946  35.993  19.799   8.855
 6926POPC   C1A19947  36.078  19.863   8.555
 6926POPC   D2A19948  36.173  19.824   8.255
 6926POPC   C3A19949  36.174  19.871   7.955
 6926POPC   C4A19950  36.088  19.873   7.655
 6926POPC   C1B19951  35.883  19.836   8.555
 6926POPC   C2B19952  35.904  19.824   8.255
 6926POPC   C3B19953  35.887  19.865   7.955
 6926POPC   C4B19954  35.893  19.830   7.655
 6927POPC   NC319955  16.704  32.253   9.455
 6927POPC   PO419956  16.736  32.243   9.155
 6927POPC   GL119957  16.778  32.219   8.855
 6927POPC   GL219958  16.752  32.355   8.855
 6927POPC   C1A19959  16.715  32.289   8.555
 6927POPC   D2A19960  16.697  32.280   8.255
 6927POPC   C3A19961  16.737  32.267   7.955
 6927POPC   C4A19962  16.734  32.237   7.655
 6927POPC   C1B19963  16.705  32.531   8.555
 6927POPC   C2B19964  16.751  32.528   8.255
 6927POPC   C3B19965  16.782  32.491   7.955
 6927POPC   C4B19966  16.738  32.542   7.655
 6928POPC   NC319967  31.490  11.284   9.455
 6928POPC   PO419968  31.476  11.335   9.155
 6928POPC   GL119969  31.508  11.315   8.855
 6928POPC   GL219970  31.624  11.381   8.855
 6928POPC   C1A19971  31.490  11.329   8.555
 6928POPC   D2A19972  31.455  11.350   8.255
 6928POPC   C3A19973  31.437  11.275   7.955
 6928POPC   C4A19974  31.433  11.337   7.655
 6928POPC   C1B19975  31.686  11.419   8.555
 6928POPC   C2B19976  31.657  11.449   8.255
 6928POPC   C3B19977  31.742  11.385   7.955
 6928POPC   C4B19978  31.735  11.414   7.655
 6929POPC   NC319979   8.226  19.019   9.455
 6929POPC   PO419980   8.189  19.019   9.155
 6929POPC   GL119981   8.214  19.046   8.855
 6929POPC   GL219982   8.303  19.064   8.855
 6929POPC   C1A19983   8.214  19.097   8.555
 6929POPC   D2A19984   8.240  19.019   8.255
 6929POPC   C3A19985   8.149  19.012   7.955
 6929POPC   C4A19986   8.241  19.061   7.655
 6929POPC   C1B19987   8.418  18.970   8.555
 6929POPC   C2B19988   8.488  19.066   8.255
 6929POPC   C3B19989   8.488  18.971   7.955
 6929POPC   C4B19990   8.443  19.033   7.655
 6930POPC   NC319991  26.829  33.035   9.455
 6930POPC   PO419992  26.804  33.040   9.155
 6930POPC   GL119993  26.815  33.046   8.855
 6930POPC   GL219994  26.686  33.008   8.855
 6930POPC   C1A19995  26.851  33.049   8.555
 6930POPC   D2A19996  26.832  33.010   8.255
 6930POPC   C3A19997  26.845  32.988   7.955
 6930POPC   C4A19998  26.770  33.058   7.655
 6930POPC   C1B19999  26.547  33.035   8.555
 6930POPC   C2B20000  26.567  33.077   8.255
 6930POPC   C3B20001  26.602  33.046   7.955
 6930POPC   C4B20002  26.534  33.066   7.655
 6931POPC   NC320003   7.390  41.550   9.455
 6931POPC   PO420004   7.414  41.597   9.155
 6931POPC   GL120005   7.426  41.606   8.855
 6931POPC   GL220006   7.308  41.573   8.855
 6931POPC   C1A20007   7.399  41.599   8.555
 6931POPC   D2A20008   7.378  41.528   8.255
 6931POPC   C3A20009   7.372  41.577   7.955
 6931POPC   C4A20010   7.372  41.572   7.655
 6931POPC   C1B20011   7.159  41.651   8.555
 6931POPC   C2B20012   7.217  41.588   8.255
 6931POPC   C3B20013   7.224  41.603   7.955
 6931POPC   C4B20014   7.146  41.619   7.655
 6932POPC   NC320015  44.683   6.634   9.455
 6932POPC   PO420016  44.712   6.629   9.155
 6932POPC   GL120017  44.634   6.651   8.855
 6932POPC   GL220018  44.807   6.636   8.855
 6932POPC   C1A20019  44.637   6.680   8.555
 6932POPC   D2A20020  44.710   6.654   8.255
 6932POPC   C3A20021  44.684   6.596   7.955
 6932POPC   C4A20022  44.681   6.620   7.655
 6932POPC   C1B20023  44.914   6.625   8.555
 6932POPC   C2B20024  44.914   6.563   8.255
 6932POPC   C3B20025  44.881   6.534   7.955
 6932POPC   C4B20026  44.857   6.606   7.655
 6933POPC   NC320027  37.726  40.763   9.455
 6933POPC   PO420028  37.680  40.738   9.155
 6933POPC   GL120029  37.718  40.762   8.855
 6933POPC   GL220030  37.827  40.834   8.855
 6933POPC   C1A20031  37.675  40.738   8.555
 6933POPC   D2A20032  37.678  40.752   8.255
 6933POPC   C3A20033  37.634  40.744   7.955
 6933POPC   C4A20034  37.664  40.768   7.655
 6933POPC   C1B20035  37.897  40.924   8.555
 6933POPC   C2B20036  37.844  40.949   8.255
 6933POPC   C3B20037  37.939  40.912   7.955
 6933POPC   C4B20038  37.882  40.958   7.655
 6934POPC   NC320039  29.903  32.980   9.455
 6934POPC   PO420040  29.873  33.039   9.155
 6934POPC   GL120041  29.910  33.047   8.855
 6934POPC   GL220042  29.921  33.148   8.855
 6934POPC   C1A20043  29.939  33.044   8.555
 6934POPC   D2A20044  29.902  33.010   8.255
 6934POPC   C3A20045  29.884  33.052   7.955
 6934POPC   C4A20046  29.897  33.071   7.655
 6934POPC   C1B20047  29.990  33.223   8.555
 6934POPC   C2B20048  30.017  33.281   8.255
 6934POPC   C3B20049  30.001  33.236   7.955
 6934POPC   C4B20050  30.035  33.282   7.655
 6935POPC   NC320051  39.192  29.933   9.455
 6935POPC   PO420052  39.280  29.930   9.155
 6935POPC   GL120053  39.203  29.959   8.855
 6935POPC   GL220054  39.130  29.998   8.855
 6935POPC   C1A20055  39.275  29.935   8.555
 6935POPC   D2A20056  39.242  29.901   8.255
 6935POPC   C3A20057  39.207  29.900   7.955
 6935POPC   C4A20058  39.279  29.959   7.655
 6935POPC   C1B20059  39.138  30.170   8.555
 6935POPC   C2B20060  39.069  30.135   8.255
 6935POPC   C3B20061  39.138  30.174   7.955
 6935POPC   C4B20062  39.120  30.144   7.655
 6936POPC   NC320063  33.836  21.345   9.455
 6936POPC   PO420064  33.820  21.376   9.155
 6936POPC   GL120065  33.760  21.398   8.855
 6936POPC   GL220066  33.665  21.478   8.855
 6936POPC   C1A20067  33.777  21.367   8.555
 6936POPC   D2A20068  33.843  21.403   8.255
 6936POPC   C3A20069  33.791  21.373   7.955
 6936POPC   C4A20070  33.767  21.372   7.655
 6936POPC   C1B20071  33.584  21.529   8.555
 6936POPC   C2B20072  33.658  21.600   8.255
 6936POPC   C3B20073  33.577  21.575   7.955
 6936POPC   C4B20074  33.600  21.535   7.655
 6937POPC   NC320075  28.369  36.133   9.455
 6937POPC   PO420076  28.380  36.139   9.155
 6937POPC   GL120077  28.386  36.098   8.855
 6937POPC   GL220078  28.456  36.102   8.855
 6937POPC   C1A20079  28.361  36.119   8.555
 6937POPC   D2A20080  28.345  36.168   8.255
 6937POPC   C3A20081  28.393  36.084   7.955
 6937POPC   C4A20082  28.383  36.134   7.655
 6937POPC   C1B20083  28.595  36.180   8.555
 6937POPC   C2B20084  28.605  36.115   8.255
 6937POPC   C3B20085  28.606  36.135   7.955
 6937POPC   C4B20086  28.629  36.133   7.655
 6938POPC   NC320087  24.502   9.786   9.455
 6938POPC   PO420088  24.522   9.755   9.155
 6938POPC   GL120089  24.457   9.757   8.855
 6938POPC   GL220090  24.563   9.808   8.855
 6938POPC   C1A20091  24.530   9.778   8.555
 6938POPC   D2A20092  24.490   9.723   8.255
 6938POPC   C3A20093  24.495   9.760   7.955
 6938POPC   C4A20094  24.440   9.737   7.655
 6938POPC   C1B20095  24.672   9.913   8.555
 6938POPC   C2B20096  24.638   9.953   8.255
 6938POPC   C3B20097  24.681   9.904   7.955
 6938POPC   C4B20098  24.635   9.930   7.655
 6939POPC   NC320099  31.457  41.566   9.455
 6939POPC   PO420100  31.485  41.524   9.155
 6939POPC   GL120101  31.486  41.519   8.855
 6939POPC   GL220102  31.316  41.504   8.855
 6939POPC   C1A20103  31.496  41.515   8.555
 6939POPC   D2A20104  31.481  41.547   8.255
 6939POPC   C3A20105  31.477  41.608   7.955
 6939POPC   C4A20106  31.513  41.555   7.655
 6939POPC   C1B20107  31.281  41.533   8.555
 6939POPC   C2B20108  31.216  41.515   8.255
 6939POPC   C3B20109  31.241  41.526   7.955
 6939POPC   C4B20110  31.269  41.445   7.655
 6940POPC   NC320111  22.118  43.114   9.455
 6940POPC   PO420112  22.130  43.156   9.155
 6940POPC   GL120113  22.179  43.137   8.855
 6940POPC   GL220114  22.304  43.108   8.855
 6940POPC   C1A20115  22.181  43.095   8.555
 6940POPC   D2A20116  22.167  43.155   8.255
 6940POPC   C3A20117  22.148  43.088   7.955
 6940POPC   C4A20118  22.176  43.109   7.655
 6940POPC   C1B20119  22.420  43.164   8.555
 6940POPC   C2B20120  22.384  43.093   8.255
 6940POPC   C3B20121  22.369  43.158   7.955
 6940POPC   C4B20122  22.414  43.134   7.655
 6941POPC   NC320123   2.794  19.050   9.455
 6941POPC   PO420124   2.748  19.101   9.155
 6941POPC   GL120125   2.809  19.031   8.855
 6941POPC   GL220126   2.723  18.987   8.855
 6941POPC   C1A20127   2.795  19.108   8.555
 6941POPC   D2A20128   2.784  19.078   8.255
 6941POPC   C3A20129   2.721  19.050   7.955
 6941POPC   C4A20130   2.733  19.012   7.655
 6941POPC   C1B20131   2.750  18.850   8.555
 6941POPC   C2B20132   2.692  18.864   8.255
 6941POPC   C3B20133   2.707  18.772   7.955
 6941POPC   C4B20134   2.722  18.795   7.655
 6942POPC   NC320135  40.022  29.175   9.455
 6942POPC   PO420136  39.998  29.122   9.155
 6942POPC   GL120137  40.055  29.166   8.855
 6942POPC   GL220138  39.883  29.235   8.855
 6942POPC   C1A20139  40.030  29.148   8.555
 6942POPC   D2A20140  40.035  29.109   8.255
 6942POPC   C3A20141  40.031  29.128   7.955
 6942POPC   C4A20142  39.962  29.128   7.655
 6942POPC   C1B20143  39.858  29.390   8.555
 6942POPC   C2B20144  39.900  29.304   8.255
 6942POPC   C3B20145  39.887  29.390   7.955
 6942POPC   C4B20146  39.818  29.310   7.655
 6943POPC   NC320147   5.059   0.438   9.455
 6943POPC   PO420148   5.085   0.421   9.155
 6943POPC   GL120149   5.062   0.447   8.855
 6943POPC   GL220150   5.140   0.331   8.855
 6943POPC   C1A20151   5.095   0.402   8.555
 6943POPC   D2A20152   5.058   0.428   8.255
 6943POPC   C3A20153   5.139   0.481   7.955
 6943POPC   C4A20154   5.100   0.442   7.655
 6943POPC   C1B20155   5.258   0.218   8.555
 6943POPC   C2B20156   5.251   0.247   8.255
 6943POPC   C3B20157   5.266   0.287   7.955
 6943POPC   C4B20158   5.301   0.233   7.655
 6944POPC   NC320159  32.281  16.703   9.455
 6944POPC   PO420160  32.264  16.763   9.155
 6944POPC   GL120161  32.287  16.738   8.855
 6944POPC   GL220162  32.254  16.647   8.855
 6944POPC   C1A20163  32.281  16.690   8.555
 6944POPC   D2A20164  32.298  16.731   8.255
 6944POPC   C3A20165  32.242  16.769   7.955
 6944POPC   C4A20166  32.238  16.755   7.655
 6944POPC   C1B20167  32.322  16.515   8.555
 6944POPC   C2B20168  32.348  16.497   8.255
 6944POPC   C3B20169  32.297  16.534   7.955
 6944POPC   C4B20170  32.306  16.529   7.655
 6945POPC   NC320171  43.874  40.829   9.455
 6945POPC   PO420172  43.861  40.779   9.155
 6945POPC   GL120173  43.922  40.779   8.855
 6945POPC   GL220174  44.011  40.833   8.855
 6945POPC   C1A20175  43.881  40.827   8.555
 6945POPC   D2A20176  43.840  40.758   8.255
 6945POPC   C3A20177  43.868  40.754   7.955
 6945POPC   C4A20178  43.908  40.781   7.655
 6945POPC   C1B20179  44.160  40.751   8.555
 6945POPC   C2B20180  44.168  40.789   8.255
 6945POPC   C3B20181  44.135  40.787   7.955
 6945POPC   C4B20182  44.166  40.733   7.655
 6946POPC   NC320183  36.878  42.341   9.455
 6946POPC   PO420184  36.866  42.338   9.155
 6946POPC   GL120185  36.877  42.327   8.855
 6946POPC   GL220186  36.874  42.217   8.855
 6946POPC   C1A20187  36.933  42.336   8.555
 6946POPC   D2A20188  36.949  42.314   8.255
 6946POPC   C3A20189  36.950  42.293   7.955
 6946POPC   C4A20190  36.937  42.305   7.655
 6946POPC   C1B20191  36.957  42.131   8.555
 6946POPC   C2B20192  36.985  42.085   8.255
 6946POPC   C3B20193  36.991  42.065   7.955
 6946POPC   C4B20194  36.958  42.080   7.655
 6947POPC   NC320195  39.964  39.269   9.455
 6947POPC   PO420196  40.030  39.246   9.155
 6947POPC   GL120197  39.964  39.193   8.855
 6947POPC   GL220198  40.058  39.159   8.855
 6947POPC   C1A20199  39.996  39.220   8.555
 6947POPC   D2A20200  39.984  39.236   8.255
 6947POPC   C3A20201  40.044  39.199   7.955
 6947POPC   C4A20202  40.035  39.267   7.655
 6947POPC   C1B20203  40.069  38.982   8.555
 6947POPC   C2B20204  40.034  38.973   8.255
 6947POPC   C3B20205  40.092  39.001   7.955
 6947POPC   C4B20206  40.032  38.975   7.655
 6948POPC   NC320207  31.522  28.383   9.455
 6948POPC   PO420208  31.457  28.363   9.155
 6948POPC   GL120209  31.508  28.413   8.855
 6948POPC   GL220210  31.515  28.506   8.855
 6948POPC   C1A20211  31.443  28.414   8.555
 6948POPC   D2A20212  31.446  28.413   8.255
 6948POPC   C3A20213  31.501  28.349   7.955
 6948POPC   C4A20214  31.490  28.383   7.655
 6948POPC   C1B20215  31.581  28.622   8.555
 6948POPC   C2B20216  31.567  28.619   8.255
 6948POPC   C3B20217  31.565  28.626   7.955
 6948POPC   C4B20218  31.534  28.617   7.655
 6949POPC   NC320219   5.113  40.034   9.455
 6949POPC   PO420220   5.071  40.056   9.155
 6949POPC   GL120221   5.084  40.042   8.855
 6949POPC   GL220222   4.977  39.943   8.855
 6949POPC   C1A20223   5.045  39.983   8.555
 6949POPC   D2A20224   5.099  40.028   8.255
 6949POPC   C3A20225   5.079  40.052   7.955
 6949POPC   C4A20226   5.050  39.982   7.655
 6949POPC   C1B20227   4.922  39.863   8.555
 6949POPC   C2B20228   4.912  39.847   8.255
 6949POPC   C3B20229   4.873  39.882   7.955
 6949POPC   C4B20230   4.957  39.810   7.655
 6950POPC   NC320231  37.630  20.633   9.455
 6950POPC   PO420232  37.676  20.606   9.155
 6950POPC   GL120233  37.716  20.625   8.855
 6950POPC   GL220234  37.603  20.590   8.855
 6950POPC   C1A20235  37.707  20.574   8.555
 6950POPC   D2A20236  37.689  20.611   8.255
 6950POPC   C3A20237  37.666  20.658   7.955
 6950POPC   C4A20238  37.701  20.564   7.655
 6950POPC   C1B20239  37.503  20.535   8.555
 6950POPC   C2B20240  37.472  20.487   8.255
 6950POPC   C3B20241  37.440  20.449   7.955
 6950POPC   C4B20242  37.473  20.512   7.655
 6951POPC   NC320243  19.025  29.175   9.455
 6951POPC   PO420244  19.042  29.136   9.155
 6951POPC   GL120245  19.046  29.109   8.855
 6951POPC   GL220246  18.973  29.275   8.855
 6951POPC   C1A20247  19.041  29.134   8.555
 6951POPC   D2A20248  19.049  29.110   8.255
 6951POPC   C3A20249  19.092  29.124   7.955
 6951POPC   C4A20250  19.021  29.131   7.655
 6951POPC   C1B20251  19.018  29.357   8.555
 6951POPC   C2B20252  19.001  29.426   8.255
 6951POPC   C3B20253  18.934  29.365   7.955
 6951POPC   C4B20254  18.934  29.380   7.655
 6952POPC   NC320255   4.323  22.137   9.455
 6952POPC   PO420256   4.347  22.123   9.155
 6952POPC   GL120257   4.288  22.146   8.855
 6952POPC   GL220258   4.389  22.266   8.855
 6952POPC   C1A20259   4.366  22.201   8.555
 6952POPC   D2A20260   4.365  22.194   8.255
 6952POPC   C3A20261   4.345  22.158   7.955
 6952POPC   C4A20262   4.297  22.135   7.655
 6952POPC   C1B20263   4.435  22.360   8.555
 6952POPC   C2B20264   4.488  22.354   8.255
 6952POPC   C3B20265   4.450  22.356   7.955
 6952POPC   C4B20266   4.512  22.314   7.655
 6953POPC   NC320267   8.151   3.503   9.455
 6953POPC   PO420268   8.185   3.558   9.155
 6953POPC   GL120269   8.168   3.540   8.855
 6953POPC   GL220270   8.298   3.645   8.855
 6953POPC   C1A20271   8.244   3.577   8.555
 6953POPC   D2A20272   8.235   3.504   8.255
 6953POPC   C3A20273   8.209   3.496   7.955
 6953POPC   C4A20274   8.201   3.531   7.655
 6953POPC   C1B20275   8.372   3.802   8.555
 6953POPC   C2B20276   8.370   3.769   8.255
 6953POPC   C3B20277   8.321   3.771   7.955
 6953POPC   C4B20278   8.320   3.805   7.655
 6954POPC   NC320279  21.393  32.203   9.455
 6954POPC   PO420280  21.406  32.288   9.155
 6954POPC   GL120281  21.432  32.199   8.855
 6954POPC   GL220282  21.298  32.287   8.855
 6954POPC   C1A20283  21.378  32.200   8.555
 6954POPC   D2A20284  21.376  32.229   8.255
 6954POPC   C3A20285  21.361  32.253   7.955
 6954POPC   C4A20286  21.424  32.212   7.655
 6954POPC   C1B20287  21.167  32.244   8.555
 6954POPC   C2B20288  21.110  32.229   8.255
 6954POPC   C3B20289  21.101  32.284   7.955
 6954POPC   C4B20290  21.095  32.271   7.655
 6955POPC   NC320291  17.462  32.208   9.455
 6955POPC   PO420292  17.529  32.278   9.155
 6955POPC   GL120293  17.550  32.277   8.855
 6955POPC   GL220294  17.432  32.112   8.855
 6955POPC   C1A20295  17.500  32.277   8.555
 6955POPC   D2A20296  17.506  32.281   8.255
 6955POPC   C3A20297  17.489  32.208   7.955
 6955POPC   C4A20298  17.536  32.244   7.655
 6955POPC   C1B20299  17.393  32.004   8.555
 6955POPC   C2B20300  17.414  32.012   8.255
 6955POPC   C3B20301  17.436  32.021   7.955
 6955POPC   C4B20302  17.340  32.019   7.655
 6956POPC   NC320303  23.756  26.090   9.455
 6956POPC   PO420304  23.665  26.058   9.155
 6956POPC   GL120305  23.690  26.004   8.855
 6956POPC   GL220306  23.862  26.094   8.855
 6956POPC   C1A20307  23.753  26.024   8.555
 6956POPC   D2A20308  23.744  26.087   8.255
 6956POPC   C3A20309  23.742  26.020   7.955
 6956POPC   C4A20310  23.719  26.018   7.655
 6956POPC   C1B20311  23.886  26.161   8.555
 6956POPC   C2B20312  23.880  26.147   8.255
 6956POPC   C3B20313  23.923  26.214   7.955
 6956POPC   C4B20314  23.931  26.148   7.655
 6957POPC   NC320315  40.774  22.947   9.455
 6957POPC   PO420316  40.774  22.938   9.155
 6957POPC   GL120317  40.800  22.935   8.855
 6957POPC   GL220318  40.682  22.871   8.855
 6957POPC   C1A20319  40.764  22.964   8.555
 6957POPC   D2A20320  40.796  22.905   8.255
 6957POPC   C3A20321  40.829  22.907   7.955
 6957POPC   C4A20322  40.787  22.930   7.655
 6957POPC   C1B20323  40.636  22.719   8.555
 6957POPC   C2B20324  40.668  22.768   8.255
 6957POPC   C3B20325  40.607  22.695   7.955
 6957POPC   C4B20326  40.626  22.700   7.655
 6958POPC   NC320327  43.118   1.244   9.455
 6958POPC   PO420328  43.123   1.237   9.155
 6958POPC   GL120329  43.087   1.190   8.855
 6958POPC   GL220330  42.974   1.180   8.855
 6958POPC   C1A20331  43.098   1.178   8.555
 6958POPC   D2A20332  43.133   1.175   8.255
 6958POPC   C3A20333  43.127   1.183   7.955
 6958POPC   C4A20334  43.151   1.202   7.655
 6958POPC   C1B20335  42.869   1.137   8.555
 6958POPC   C2B20336  42.821   1.163   8.255
 6958POPC   C3B20337  42.855   1.200   7.955
 6958POPC   C4B20338  42.894   1.163   7.655
 6959POPC   NC320339   6.603   1.985   9.455
 6959POPC   PO420340   6.678   2.002   9.155
 6959POPC   GL120341   6.659   1.954   8.855
 6959POPC   GL220342   6.571   2.009   8.855
 6959POPC   C1A20343   6.596   2.009   8.555
 6959POPC   D2A20344   6.646   1.987   8.255
 6959POPC   C3A20345   6.619   2.032   7.955
 6959POPC   C4A20346   6.624   1.988   7.655
 6959POPC   C1B20347   6.366   2.103   8.555
 6959POPC   C2B20348   6.400   2.087   8.255
 6959POPC   C3B20349   6.430   2.030   7.955
 6959POPC   C4B20350   6.426   2.042   7.655
 6960POPC   NC320351   0.416  44.644   9.455
 6960POPC   PO420352   0.471  44.670   9.155
 6960POPC   GL120353   0.428  44.649   8.855
 6960POPC   GL220354   0.388  44.706   8.855
 6960POPC   C1A20355   0.408  44.677   8.555
 6960POPC   D2A20356   0.415  44.627   8.255
 6960POPC   C3A20357   0.453  44.681   7.955
 6960POPC   C4A20358   0.419  44.666   7.655
 6960POPC   C1B20359   0.289  44.873   8.555
 6960POPC   C2B20360   0.259  44.829   8.255
 6960POPC   C3B20361   0.286  44.806   7.955
 6960POPC   C4B20362   0.286  44.817   7.655
 6961POPC   NC320363  15.152  15.156   9.455
 6961POPC   PO420364  15.183  15.189   9.155
 6961POPC   GL120365  15.227  15.146   8.855
 6961POPC   GL220366  15.217  15.345   8.855
 6961POPC   C1A20367  15.211  15.179   8.555
 6961POPC   D2A20368  15.170  15.184   8.255
 6961POPC   C3A20369  15.217  15.224   7.955
 6961POPC   C4A20370  15.140  15.225   7.655
 6961POPC   C1B20371  15.273  15.395   8.555
 6961POPC   C2B20372  15.272  15.468   8.255
 6961POPC   C3B20373  15.231  15.444   7.955
 6961POPC   C4B20374  15.187  15.374   7.655
 6962POPC   NC320375  15.169  29.119   9.455
 6962POPC   PO420376  15.155  29.125   9.155
 6962POPC   GL120377  15.200  29.154   8.855
 6962POPC   GL220378  15.148  29.037   8.855
 6962POPC   C1A20379  15.151  29.099   8.555
 6962POPC   D2A20380  15.132  29.135   8.255
 6962POPC   C3A20381  15.173  29.100   7.955
 6962POPC   C4A20382  15.176  29.175   7.655
 6962POPC   C1B20383  15.020  28.969   8.555
 6962POPC   C2B20384  15.025  28.971   8.255
 6962POPC   C3B20385  14.996  28.956   7.955
 6962POPC   C4B20386  15.080  28.934   7.655
 6963POPC   NC320387  41.525  43.841   9.455
 6963POPC   PO420388  41.582  43.935   9.155
 6963POPC   GL120389  41.546  43.853   8.855
 6963POPC   GL220390  41.651  43.863   8.855
 6963POPC   C1A20391  41.599  43.880   8.555
 6963POPC   D2A20392  41.592  43.935   8.255
 6963POPC   C3A20393  41.516  43.933   7.955
 6963POPC   C4A20394  41.538  43.890   7.655
 6963POPC   C1B20395  41.809  43.849   8.555
 6963POPC   C2B20396  41.758  43.836   8.255
 6963POPC   C3B20397  41.772  43.867   7.955
 6963POPC   C4B20398  41.803  43.905   7.655
 6964POPC   NC320399  32.209  15.152   9.455
 6964POPC   PO420400  32.224  15.204   9.155
 6964POPC   GL120401  32.203  15.186   8.855
 6964POPC   GL220402  32.370  15.137   8.855
 6964POPC   C1A20403  32.256  15.158   8.555
 6964POPC   D2A20404  32.205  15.190   8.255
 6964POPC   C3A20405  32.251  15.159   7.955
 6964POPC   C4A20406  32.228  15.226   7.655
 6964POPC   C1B20407  32.534  15.092   8.555
 6964POPC   C2B20408  32.500  15.103   8.255
 6964POPC   C3B20409  32.462  15.100   7.955
 6964POPC   C4B20410  32.466  15.088   7.655
 6965POPC   NC320411  39.196   7.466   9.455
 6965POPC   PO420412  39.266   7.409   9.155
 6965POPC   GL120413  39.258   7.387   8.855
 6965POPC   GL220414  39.291   7.323   8.855
 6965POPC   C1A20415  39.211   7.377   8.555
 6965POPC   D2A20416  39.268   7.433   8.255
 6965POPC   C3A20417  39.222   7.455   7.955
 6965POPC   C4A20418  39.193   7.470   7.655
 6965POPC   C1B20419  39.353   7.171   8.555
 6965POPC   C2B20420  39.375   7.228   8.255
 6965POPC   C3B20421  39.330   7.167   7.955
 6965POPC   C4B20422  39.333   7.174   7.655
 6966POPC   NC320423  44.674   0.459   9.455
 6966POPC   PO420424  44.702   0.393   9.155
 6966POPC   GL120425  44.691   0.444   8.855
 6966POPC   GL220426  44.591   0.404   8.855
 6966POPC   C1A20427  44.646   0.479   8.555
 6966POPC   D2A20428  44.679   0.452   8.255
 6966POPC   C3A20429  44.667   0.454   7.955
 6966POPC   C4A20430  44.648   0.399   7.655
 6966POPC   C1B20431  44.403   0.278   8.555
 6966POPC   C2B20432  44.475   0.341   8.255
 6966POPC   C3B20433  44.467   0.366   7.955
 6966POPC   C4B20434  44.391   0.355   7.655
 6967POPC   NC320435  22.190  13.579   9.455
 6967POPC   PO420436  22.195  13.590   9.155
 6967POPC   GL120437  22.205  13.627   8.855
 6967POPC   GL220438  22.301  13.707   8.855
 6967POPC   C1A20439  22.184  13.617   8.555
 6967POPC   D2A20440  22.137  13.590   8.255
 6967POPC   C3A20441  22.149  13.614   7.955
 6967POPC   C4A20442  22.124  13.644   7.655
 6967POPC   C1B20443  22.376  13.747   8.555
 6967POPC   C2B20444  22.430  13.682   8.255
 6967POPC   C3B20445  22.402  13.689   7.955
 6967POPC   C4B20446  22.368  13.719   7.655
 6968POPC   NC320447   4.315   7.411   9.455
 6968POPC   PO420448   4.349   7.408   9.155
 6968POPC   GL120449   4.303   7.444   8.855
 6968POPC   GL220450   4.170   7.458   8.855
 6968POPC   C1A20451   4.289   7.447   8.555
 6968POPC   D2A20452   4.291   7.385   8.255
 6968POPC   C3A20453   4.322   7.405   7.955
 6968POPC   C4A20454   4.363   7.388   7.655
 6968POPC   C1B20455   4.134   7.474   8.555
 6968POPC   C2B20456   4.050   7.503   8.255
 6968POPC   C3B20457   4.099   7.498   7.955
 6968POPC   C4B20458   4.054   7.565   7.655
 6969POPC   NC320459  26.052   0.404   9.455
 6969POPC   PO420460  26.037   0.414   9.155
 6969POPC   GL120461  26.001   0.473   8.855
 6969POPC   GL220462  26.181   0.481   8.855
 6969POPC   C1A20463  26.080   0.422   8.555
 6969POPC   D2A20464  26.026   0.484   8.255
 6969POPC   C3A20465  26.076   0.406   7.955
 6969POPC   C4A20466  26.039   0.441   7.655
 6969POPC   C1B20467  26.296   0.548   8.555
 6969POPC   C2B20468  26.267   0.496   8.255
 6969POPC   C3B20469  26.243   0.458   7.955
 6969POPC   C4B20470  26.242   0.455   7.655
 6970POPC   NC320471  11.255  23.729   9.455
 6970POPC   PO420472  11.276  23.681   9.155
 6970POPC   GL120473  11.347  23.743   8.855
 6970POPC   GL220474  11.219  23.612   8.855
 6970POPC   C1A20475  11.287  23.685   8.555
 6970POPC   D2A20476  11.329  23.736   8.255
 6970POPC   C3A20477  11.337  23.672   7.955
 6970POPC   C4A20478  11.341  23.669   7.655
 6970POPC   C1B20479  11.090  23.522   8.555
 6970POPC   C2B20480  11.115  23.598   8.255
 6970POPC   C3B20481  11.074  23.533   7.955
 6970POPC   C4B20482  11.081  23.523   7.655
 6971POPC   NC320483  15.174  32.239   9.455
 6971POPC   PO420484  15.184  32.285   9.155
 6971POPC   GL120485  15.150  32.265   8.855
 6971POPC   GL220486  15.114  32.123   8.855
 6971POPC   C1A20487  15.134  32.261   8.555
 6971POPC   D2A20488  15.144  32.199   8.255
 6971POPC   C3A20489  15.219  32.290   7.955
 6971POPC   C4A20490  15.133  32.209   7.655
 6971POPC   C1B20491  15.133  32.009   8.555
 6971POPC   C2B20492  15.109  31.963   8.255
 6971POPC   C3B20493  15.084  32.007   7.955
 6971POPC   C4B20494  15.106  32.022   7.655
 6972POPC   NC320495  43.063   8.173   9.455
 6972POPC   PO420496  43.139   8.199   9.155
 6972POPC   GL120497  43.113   8.158   8.855
 6972POPC   GL220498  43.189   8.188   8.855
 6972POPC   C1A20499  43.086   8.227   8.555
 6972POPC   D2A20500  43.124   8.207   8.255
 6972POPC   C3A20501  43.136   8.185   7.955
 6972POPC   C4A20502  43.080   8.242   7.655
 6972POPC   C1B20503  43.379   8.148   8.555
 6972POPC   C2B20504  43.366   8.167   8.255
 6972POPC   C3B20505  43.380   8.131   7.955
 6972POPC   C4B20506  43.394   8.132   7.655
 6973POPC   NC320507  39.979  35.381   9.455
 6973POPC   PO420508  39.975  35.335   9.155
 6973POPC   GL120509  40.023  35.358   8.855
 6973POPC   GL220510  39.850  35.318   8.855
 6973POPC   C1A20511  39.957  35.353   8.555
 6973POPC   D2A20512  40.041  35.352   8.255
 6973POPC   C3A20513  39.978  35.402   7.955
 6973POPC   C4A20514  39.971  35.385   7.655
 6973POPC   C1B20515  39.772  35.327   8.555
 6973POPC   C2B20516  39.727  35.295   8.255
 6973POPC   C3B20517  39.766  35.242   7.955
 6973POPC   C4B20518  39.752  35.317   7.655
 6974POPC   NC320519  29.874  14.355   9.455
 6974POPC   PO420520  29.943  14.428   9.155
 6974POPC   GL120521  29.941  14.428   8.855
 6974POPC   GL220522  29.889  14.243   8.855
 6974POPC   C1A20523  29.920  14.418   8.555
 6974POPC   D2A20524  29.942  14.431   8.255
 6974POPC   C3A20525  29.926  14.365   7.955
 6974POPC   C4A20526  29.956  14.421   7.655
 6974POPC   C1B20527  29.833  14.181   8.555
 6974POPC   C2B20528  29.777  14.141   8.255
 6974POPC   C3B20529  29.803  14.213   7.955
 6974POPC   C4B20530  29.844  14.225   7.655
 6975POPC   NC320531  37.671  39.202   9.455
 6975POPC   PO420532  37.631  39.205   9.155
 6975POPC   GL120533  37.650  39.213   8.855
 6975POPC   GL220534  37.782  39.257   8.855
 6975POPC   C1A20535  37.665  39.259   8.555
 6975POPC   D2A20536  37.637  39.182   8.255
 6975POPC   C3A20537  37.662  39.187   7.955
 6975POPC   C4A20538  37.725  39.234   7.655
 6975POPC   C1B20539  37.933  39.311   8.555
 6975POPC   C2B20540  37.959  39.269   8.255
 6975POPC   C3B20541  37.944  39.318   7.955
 6975POPC   C4B20542  37.973  39.245   7.655
 6976POPC   NC320543  41.522   0.407   9.455
 6976POPC   PO420544  41.587   0.415   9.155
 6976POPC   GL120545  41.580   0.459   8.855
 6976POPC   GL220546  41.673   0.409   8.855
 6976POPC   C1A20547  41.533   0.433   8.555
 6976POPC   D2A20548  41.542   0.455   8.255
 6976POPC   C3A20549  41.519   0.420   7.955
 6976POPC   C4A20550  41.601   0.397   7.655
 6976POPC   C1B20551  41.828   0.420   8.555
 6976POPC   C2B20552  41.837   0.480   8.255
 6976POPC   C3B20553  41.823   0.501   7.955
 6976POPC   C4B20554  41.795   0.508   7.655
 6977POPC   NC320555  19.078   9.708   9.455
 6977POPC   PO420556  19.070   9.784   9.155
 6977POPC   GL120557  19.056   9.721   8.855
 6977POPC   GL220558  19.093   9.913   8.855
 6977POPC   C1A20559  19.080   9.756   8.555
 6977POPC   D2A20560  19.068   9.750   8.255
 6977POPC   C3A20561  19.085   9.785   7.955
 6977POPC   C4A20562  19.019   9.725   7.655
 6977POPC   C1B20563  19.076   9.987   8.555
 6977POPC   C2B20564  19.139  10.018   8.255
 6977POPC   C3B20565  19.143  10.021   7.955
 6977POPC   C4B20566  19.148   9.960   7.655
 6978POPC   NC320567  36.080  22.974   9.455
 6978POPC   PO420568  36.153  22.949   9.155
 6978POPC   GL120569  36.109  22.914   8.855
 6978POPC   GL220570  36.214  22.990   8.855
 6978POPC   C1A20571  36.086  22.974   8.555
 6978POPC   D2A20572  36.129  22.911   8.255
 6978POPC   C3A20573  36.134  22.982   7.955
 6978POPC   C4A20574  36.164  22.941   7.655
 6978POPC   C1B20575  36.382  22.923   8.555
 6978POPC   C2B20576  36.376  22.944   8.255
 6978POPC   C3B20577  36.413  22.995   7.955
 6978POPC   C4B20578  36.425  22.931   7.655
 6979POPC   NC320579   5.093  43.933   9.455
 6979POPC   PO420580   5.114  43.850   9.155
 6979POPC   GL120581   5.116  43.896   8.855
 6979POPC   GL220582   5.215  43.956   8.855
 6979POPC   C1A20583   5.128  43.890   8.555
 6979POPC   D2A20584   5.105  43.861   8.255
 6979POPC   C3A20585   5.063  43.842   7.955
 6979POPC   C4A20586   5.061  43.927   7.655
 6979POPC   C1B20587   5.308  43.913   8.555
 6979POPC   C2B20588   5.348  43.946   8.255
 6979POPC   C3B20589   5.343  44.008   7.955
 6979POPC   C4B20590   5.351  43.958   7.655
 6980POPC   NC320591  19.884  15.987   9.455
 6980POPC   PO420592  19.874  15.932   9.155
 6980POPC   GL120593  19.792  15.947   8.855
 6980POPC   GL220594  19.748  16.072   8.855
 6980POPC   C1A20595  19.829  15.991   8.555
 6980POPC   D2A20596  19.881  15.939   8.255
 6980POPC   C3A20597  19.832  15.909   7.955
 6980POPC   C4A20598  19.809  16.003   7.655
 6980POPC   C1B20599  19.660  16.165   8.555
 6980POPC   C2B20600  19.678  16.169   8.255
 6980POPC   C3B20601  19.694  16.132   7.955
 6980POPC   C4B20602  19.668  16.147   7.655
 6981POPC   NC320603  33.773  16.730   9.455
 6981POPC   PO420604  33.809  16.747   9.155
 6981POPC   GL120605  33.847  16.731   8.855
 6981POPC   GL220606  33.717  16.723   8.855
 6981POPC   C1A20607  33.814  16.714   8.555
 6981POPC   D2A20608  33.846  16.720   8.255
 6981POPC   C3A20609  33.816  16.766   7.955
 6981POPC   C4A20610  33.771  16.766   7.655
 6981POPC   C1B20611  33.585  16.756   8.555
 6981POPC   C2B20612  33.508  16.762   8.255
 6981POPC   C3B20613  33.538  16.774   7.955
 6981POPC   C4B20614  33.585  16.768   7.655
 6982POPC   NC320615   1.957  44.701   9.455
 6982POPC   PO420616   1.954  44.649   9.155
 6982POPC   GL120617   1.983  44.708   8.855
 6982POPC   GL220618   2.117  44.521   8.855
 6982POPC   C1A20619   2.003  44.664   8.555
 6982POPC   D2A20620   2.003  44.634   8.255
 6982POPC   C3A20621   1.962  44.631   7.955
 6982POPC   C4A20622   1.965  44.707   7.655
 6982POPC   C1B20623   2.145  44.487   8.555
 6982POPC   C2B20624   2.159  44.460   8.255
 6982POPC   C3B20625   2.180  44.494   7.955
 6982POPC   C4B20626   2.189  44.504   7.655
 6983POPC   NC320627  24.441  40.800   9.455
 6983POPC   PO420628  24.517  40.810   9.155
 6983POPC   GL120629  24.453  40.791   8.855
 6983POPC   GL220630  24.478  40.912   8.855
 6983POPC   C1A20631  24.494  40.757   8.555
 6983POPC   D2A20632  24.474  40.817   8.255
 6983POPC   C3A20633  24.525  40.830   7.955
 6983POPC   C4A20634  24.518  40.781   7.655
 6983POPC   C1B20635  24.447  41.007   8.555
 6983POPC   C2B20636  24.397  41.057   8.255
 6983POPC   C3B20637  24.405  41.042   7.955
 6983POPC   C4B20638  24.415  40.983   7.655
 6984POPC   NC320639  41.522  15.996   9.455
 6984POPC   PO420640  41.527  15.955   9.155
 6984POPC   GL120641  41.604  15.968   8.855
 6984POPC   GL220642  41.620  15.818   8.855
 6984POPC   C1A20643  41.566  15.991   8.555
 6984POPC   D2A20644  41.536  15.964   8.255
 6984POPC   C3A20645  41.552  15.918   7.955
 6984POPC   C4A20646  41.585  15.988   7.655
 6984POPC   C1B20647  41.757  15.753   8.555
 6984POPC   C2B20648  41.735  15.763   8.255
 6984POPC   C3B20649  41.706  15.743   7.955
 6984POPC   C4B20650  41.684  15.784   7.655
 6985POPC   NC320651  29.116  17.505   9.455
 6985POPC   PO420652  29.125  17.522   9.155
 6985POPC   GL120653  29.113  17.472   8.855
 6985POPC   GL220654  29.149  17.349   8.855
 6985POPC   C1A20655  29.180  17.469   8.555
 6985POPC   D2A20656  29.180  17.520   8.255
 6985POPC   C3A20657  29.103  17.540   7.955
 6985POPC   C4A20658  29.161  17.472   7.655
 6985POPC   C1B20659  29.280  17.266   8.555
 6985POPC   C2B20660  29.241  17.300   8.255
 6985POPC   C3B20661  29.208  17.228   7.955
 6985POPC   C4B20662  29.247  17.310   7.655
 6986POPC   NC320663  42.371  28.419   9.455
 6986POPC   PO420664  42.304  28.417   9.155
 6986POPC   GL120665  42.323  28.321   8.855
 6986POPC   GL220666  42.383  28.534   8.855
 6986POPC   C1A20667  42.355  28.336   8.555
 6986POPC   D2A20668  42.313  28.394   8.255
 6986POPC   C3A20669  42.313  28.338   7.955
 6986POPC   C4A20670  42.332  28.410   7.655
 6986POPC   C1B20671  42.417  28.637   8.555
 6986POPC   C2B20672  42.366  28.639   8.255
 6986POPC   C3B20673  42.408  28.595   7.955
 6986POPC   C4B20674  42.404  28.574   7.655
 6987POPC   NC320675  34.591   8.165   9.455
 6987POPC   PO420676  34.620   8.239   9.155
 6987POPC   GL120677  34.573   8.200   8.855
 6987POPC   GL220678  34.471   8.262   8.855
 6987POPC   C1A20679  34.623   8.220   8.555
 6987POPC   D2A20680  34.577   8.221   8.255
 6987POPC   C3A20681  34.611   8.178   7.955
 6987POPC   C4A20682  34.546   8.232   7.655
 6987POPC   C1B20683  34.336   8.314   8.555
 6987POPC   C2B20684  34.380   8.304   8.255
 6987POPC   C3B20685  34.335   8.319   7.955
 6987POPC   C4B20686  34.349   8.253   7.655
 6988POPC   NC320687   1.230   5.879   9.455
 6988POPC   PO420688   1.237   5.890   9.155
 6988POPC   GL120689   1.180   5.898   8.855
 6988POPC   GL220690   1.351   5.772   8.855
 6988POPC   C1A20691   1.222   5.872   8.555
 6988POPC   D2A20692   1.200   5.903   8.255
 6988POPC   C3A20693   1.236   5.823   7.955
 6988POPC   C4A20694   1.186   5.868   7.655
 6988POPC   C1B20695   1.383   5.763   8.555
 6988POPC   C2B20696   1.430   5.734   8.255
 6988POPC   C3B20697   1.439   5.751   7.955
 6988POPC   C4B20698   1.433   5.683   7.655
 6989POPC   NC320699   8.210  12.828   9.455
 6989POPC   PO420700   8.187  12.831   9.155
 6989POPC   GL120701   8.215  12.867   8.855
 6989POPC   GL220702   8.304  12.966   8.855
 6989POPC   C1A20703   8.190  12.854   8.555
 6989POPC   D2A20704   8.237  12.814   8.255
 6989POPC   C3A20705   8.208  12.885   7.955
 6989POPC   C4A20706   8.221  12.815   7.655
 6989POPC   C1B20707   8.411  13.007   8.555
 6989POPC   C2B20708   8.386  12.951   8.255
 6989POPC   C3B20709   8.402  12.981   7.955
 6989POPC   C4B20710   8.364  12.998   7.655
 6990POPC   NC320711  34.609  16.750   9.455
 6990POPC   PO420712  34.529  16.722   9.155
 6990POPC   GL120713  34.558  16.721   8.855
 6990POPC   GL220714  34.486  16.785   8.855
 6990POPC   C1A20715  34.594  16.747   8.555
 6990POPC   D2A20716  34.614  16.691   8.255
 6990POPC   C3A20717  34.541  16.755   7.955
 6990POPC   C4A20718  34.564  16.770   7.655
 6990POPC   C1B20719  34.296  16.772   8.555
 6990POPC   C2B20720  34.337  16.772   8.255
 6990POPC   C3B20721  34.287  16.761   7.955
 6990POPC   C4B20722  34.309  16.759   7.655
 6991POPC   NC320723   0.399  38.414   9.455
 6991POPC   PO420724   0.424  38.494   9.155
 6991POPC   GL120725   0.389  38.498   8.855
 6991POPC   GL220726   0.342  38.521   8.855
 6991POPC   C1A20727   0.486  38.426   8.555
 6991POPC   D2A20728   0.451  38.430   8.255
 6991POPC   C3A20729   0.424  38.492   7.955
 6991POPC   C4A20730   0.454  38.412   7.655
 6991POPC   C1B20731   0.355  38.692   8.555
 6991POPC   C2B20732   0.367  38.644   8.255
 6991POPC   C3B20733   0.367  38.629   7.955
 6991POPC   C4B20734   0.291  38.661   7.655
 6992POPC   NC320735  36.913  11.250   9.455
 6992POPC   PO420736  36.885  11.321   9.155
 6992POPC   GL120737  36.904  11.263   8.855
 6992POPC   GL220738  37.038  11.371   8.855
 6992POPC   C1A20739  36.892  11.309   8.555
 6992POPC   D2A20740  36.912  11.277   8.255
 6992POPC   C3A20741  36.876  11.266   7.955
 6992POPC   C4A20742  36.879  11.335   7.655
 6992POPC   C1B20743  37.154  11.376   8.555
 6992POPC   C2B20744  37.109  11.407   8.255
 6992POPC   C3B20745  37.097  11.367   7.955
 6992POPC   C4B20746  37.083  11.439   7.655
 6993POPC   NC320747  40.027  19.809   9.455
 6993POPC   PO420748  40.028  19.801   9.155
 6993POPC   GL120749  40.028  19.797   8.855
 6993POPC   GL220750  40.170  19.799   8.855
 6993POPC   C1A20751  40.009  19.795   8.555
 6993POPC   D2A20752  40.021  19.801   8.255
 6993POPC   C3A20753  39.959  19.810   7.955
 6993POPC   C4A20754  40.014  19.874   7.655
 6993POPC   C1B20755  40.204  19.696   8.555
 6993POPC   C2B20756  40.190  19.723   8.255
 6993POPC   C3B20757  40.229  19.720   7.955
 6993POPC   C4B20758  40.248  19.693   7.655
 6994POPC   NC320759  40.814  42.335   9.455
 6994POPC   PO420760  40.815  42.379   9.155
 6994POPC   GL120761  40.797  42.301   8.855
 6994POPC   GL220762  40.622  42.338   8.855
 6994POPC   C1A20763  40.756  42.340   8.555
 6994POPC   D2A20764  40.733  42.291   8.255
 6994POPC   C3A20765  40.827  42.296   7.955
 6994POPC   C4A20766  40.796  42.346   7.655
 6994POPC   C1B20767  40.547  42.377   8.555
 6994POPC   C2B20768  40.540  42.407   8.255
 6994POPC   C3B20769  40.558  42.318   7.955
 6994POPC   C4B20770  40.522  42.334   7.655
 6995POPC   NC320771  37.706   7.461   9.455
 6995POPC   PO420772  37.672   7.377   9.155
 6995POPC   GL120773  37.678   7.462   8.855
 6995POPC   GL220774  37.670   7.316   8.855
 6995POPC   C1A20775  37.636   7.388   8.555
 6995POPC   D2A20776  37.632   7.378   8.255
 6995POPC   C3A20777  37.658   7.398   7.955
 6995POPC   C4A20778  37.725   7.453   7.655
 6995POPC   C1B20779  37.652   7.165   8.555
 6995POPC   C2B20780  37.680   7.143   8.255
 6995POPC   C3B20781  37.654   7.129   7.955
 6995POPC   C4B20782  37.620   7.221   7.655
 6996POPC   NC320783  36.927  37.679   9.455
 6996POPC   PO420784  36.928  37.712   9.155
 6996POPC   GL120785  36.873  37.649   8.855
 6996POPC   GL220786  36.869  37.836   8.855
 6996POPC   C1A20787  36.897  37.637   8.555
 6996POPC   D2A20788  36.945  37.649   8.255
 6996POPC   C3A20789  36.897  37.659   7.955
 6996POPC   C4A20790  36.857  37.686   7.655
 6996POPC   C1B20791  36.810  37.896   8.555
 6996POPC   C2B20792  36.805  37.928   8.255
 6996POPC   C3B20793  36.797  37.913   7.955
 6996POPC   C4B20794  36.820  37.890   7.655
 6997POPC   NC320795  17.493  40.036   9.455
 6997POPC   PO420796  17.544  39.988   9.155
 6997POPC   GL120797  17.473  40.022   8.855
 6997POPC   GL220798  17.514  39.848   8.855
 6997POPC   C1A20799  17.512  40.016   8.555
 6997POPC   D2A20800  17.465  40.024   8.255
 6997POPC   C3A20801  17.556  39.965   7.955
 6997POPC   C4A20802  17.492  40.053   7.655
 6997POPC   C1B20803  17.560  39.760   8.555
 6997POPC   C2B20804  17.552  39.750   8.255
 6997POPC   C3B20805  17.613  39.767   7.955
 6997POPC   C4B20806  17.597  39.799   7.655
 6998POPC   NC320807  43.865  37.707   9.455
 6998POPC   PO420808  43.918  37.711   9.155
 6998POPC   GL120809  43.936  37.643   8.855
 6998POPC   GL220810  44.030  37.748   8.855
 6998POPC   C1A20811  43.850  37.697   8.555
 6998POPC   D2A20812  43.864  37.662   8.255
 6998POPC   C3A20813  43.911  37.718   7.955
 6998POPC   C4A20814  43.853  37.654   7.655
 6998POPC   C1B20815  44.050  37.787   8.555
 6998POPC   C2B20816  44.117  37.839   8.255
 6998POPC   C3B20817  44.056  37.798   7.955
 6998POPC   C4B20818  44.048  37.862   7.655
 6999POPC   NC320819   8.184  11.306   9.455
 6999POPC   PO420820   8.240  11.314   9.155
 6999POPC   GL120821   8.151  11.286   8.855
 6999POPC   GL220822   8.268  11.267   8.855
 6999POPC   C1A20823   8.149  11.264   8.555
 6999POPC   D2A20824   8.201  11.293   8.255
 6999POPC   C3A20825   8.192  11.297   7.955
 6999POPC   C4A20826   8.170  11.262   7.655
 6999POPC   C1B20827   8.367  11.155   8.555
 6999POPC   C2B20828   8.447  11.108   8.255
 6999POPC   C3B20829   8.386  11.134   7.955
 6999POPC   C4B20830   8.375  11.153   7.655
 7000POPC   NC320831   5.082  25.313   9.455
 7000POPC   PO420832   5.082  25.266   9.155
 7000POPC   GL120833   5.097  25.291   8.855
 7000POPC   GL220834   5.209  25.271   8.855
 7000POPC   C1A20835   5.067  25.257   8.555
 7000POPC   D2A20836   5.136  25.252   8.255
 7000POPC   C3A20837   5.089  25.259   7.955
 7000POPC   C4A20838   5.075  25.244   7.655
 7000POPC   C1B20839   5.299  25.297   8.555
 7000POPC   C2B20840   5.310  25.359   8.255
 7000POPC   C3B20841   5.362  25.324   7.955
 7000POPC   C4B20842   5.344  25.288   7.655
 7001POPC   NC320843  36.921  29.956   9.455
 7001POPC   PO420844  36.924  29.894   9.155
 7001POPC   GL120845  36.924  29.898   8.855
 7001POPC   GL220846  37.071  29.919   8.855
 7001POPC   C1A20847  36.870  29.965   8.555
 7001POPC   D2A20848  36.902  29.936   8.255
 7001POPC   C3A20849  36.939  29.938   7.955
 7001POPC   C4A20850  36.858  29.936   7.655
 7001POPC   C1B20851  37.134  29.991   8.555
 7001POPC   C2B20852  37.161  29.902   8.255
 7001POPC   C3B20853  37.117  29.976   7.955
 7001POPC   C4B20854  37.186  29.904   7.655
 7002POPC   NC320855  16.692  30.729   9.455
 7002POPC   PO420856  16.734  30.649   9.155
 7002POPC   GL120857  16.693  30.662   8.855
 7002POPC   GL220858  16.843  30.544   8.855
 7002POPC   C1A20859  16.728  30.673   8.555
 7002POPC   D2A20860  16.682  30.668   8.255
 7002POPC   C3A20861  16.729  30.726   7.955
 7002POPC   C4A20862  16.693  30.697   7.655
 7002POPC   C1B20863  16.915  30.465   8.555
 7002POPC   C2B20864  16.895  30.531   8.255
 7002POPC   C3B20865  16.898  30.481   7.955
 7002POPC   C4B20866  16.913  30.497   7.655
 7003POPC   NC320867   8.963   8.228   9.455
 7003POPC   PO420868   8.989   8.238   9.155
 7003POPC   GL120869   8.971   8.234   8.855
 7003POPC   GL220870   9.064   8.187   8.855
 7003POPC   C1A20871   8.956   8.237   8.555
 7003POPC   D2A20872   8.955   8.160   8.255
 7003POPC   C3A20873   8.970   8.186   7.955
 7003POPC   C4A20874   9.000   8.191   7.655
 7003POPC   C1B20875   9.200   8.167   8.555
 7003POPC   C2B20876   9.250   8.163   8.255
 7003POPC   C3B20877   9.175   8.161   7.955
 7003POPC   C4B20878   9.267   8.114   7.655
 7004POPC   NC320879   5.885   3.557   9.455
 7004POPC   PO420880   5.838   3.503   9.155
 7004POPC   GL120881   5.845   3.520   8.855
 7004POPC   GL220882   5.760   3.470   8.855
 7004POPC   C1A20883   5.869   3.558   8.555
 7004POPC   D2A20884   5.898   3.578   8.255
 7004POPC   C3A20885   5.847   3.556   7.955
 7004POPC   C4A20886   5.848   3.546   7.655
 7004POPC   C1B20887   5.696   3.361   8.555
 7004POPC   C2B20888   5.678   3.356   8.255
 7004POPC   C3B20889   5.669   3.379   7.955
 7004POPC   C4B20890   5.673   3.331   7.655
 7005POPC   NC320891  40.765  43.893   9.455
 7005POPC   PO420892  40.819  43.925   9.155
 7005POPC   GL120893  40.801  43.877   8.855
 7005POPC   GL220894  40.627  43.865   8.855
 7005POPC   C1A20895  40.736  43.852   8.555
 7005POPC   D2A20896  40.785  43.931   8.255
 7005POPC   C3A20897  40.767  43.913   7.955
 7005POPC   C4A20898  40.823  43.863   7.655
 7005POPC   C1B20899  40.595  43.725   8.555
 7005POPC   C2B20900  40.555  43.716   8.255
 7005POPC   C3B20901  40.601  43.781   7.955
 7005POPC   C4B20902  40.520  43.719   7.655
 7006POPC   NC320903   5.107  39.257   9.455
 7006POPC   PO420904   5.047  39.244   9.155
 7006POPC   GL120905   5.120  39.183   8.855
 7006POPC   GL220906   4.967  39.284   8.855
 7006POPC   C1A20907   5.130  39.242   8.555
 7006POPC   D2A20908   5.097  39.209   8.255
 7006POPC   C3A20909   5.106  39.238   7.955
 7006POPC   C4A20910   5.073  39.209   7.655
 7006POPC   C1B20911   4.826  39.273   8.555
 7006POPC   C2B20912   4.835  39.279   8.255
 7006POPC   C3B20913   4.862  39.274   7.955
 7006POPC   C4B20914   4.872  39.254   7.655
 7007POPC   NC320915  18.282  29.885   9.455
 7007POPC   PO420916  18.329  29.894   9.155
 7007POPC   GL120917  18.237  29.944   8.855
 7007POPC   GL220918  18.300  29.842   8.855
 7007POPC   C1A20919  18.291  29.946   8.555
 7007POPC   D2A20920  18.289  29.873   8.255
 7007POPC   C3A20921  18.303  29.959   7.955
 7007POPC   C4A20922  18.324  29.905   7.655
 7007POPC   C1B20923  18.285  29.669   8.555
 7007POPC   C2B20924  18.239  29.687   8.255
 7007POPC   C3B20925  18.308  29.712   7.955
 7007POPC   C4B20926  18.265  29.712   7.655
 7008POPC   NC320927  20.569  17.520   9.455
 7008POPC   PO420928  20.590  17.465   9.155
 7008POPC   GL120929  20.622  17.463   8.855
 7008POPC   GL220930  20.506  17.554   8.855
 7008POPC   C1A20931  20.609  17.465   8.555
 7008POPC   D2A20932  20.602  17.467   8.255
 7008POPC   C3A20933  20.562  17.474   7.955
 7008POPC   C4A20934  20.578  17.524   7.655
 7008POPC   C1B20935  20.402  17.672   8.555
 7008POPC   C2B20936  20.420  17.738   8.255
 7008POPC   C3B20937  20.444  17.693   7.955
 7008POPC   C4B20938  20.491  17.738   7.655
 7009POPC   NC320939   7.416  40.774   9.455
 7009POPC   PO420940   7.455  40.806   9.155
 7009POPC   GL120941   7.380  40.827   8.855
 7009POPC   GL220942   7.549  40.827   8.855
 7009POPC   C1A20943   7.447  40.800   8.555
 7009POPC   D2A20944   7.457  40.767   8.255
 7009POPC   C3A20945   7.412  40.816   7.955
 7009POPC   C4A20946   7.466  40.764   7.655
 7009POPC   C1B20947   7.699  40.796   8.555
 7009POPC   C2B20948   7.689  40.836   8.255
 7009POPC   C3B20949   7.698  40.771   7.955
 7009POPC   C4B20950   7.693  40.796   7.655
 7010POPC   NC320951   1.993   5.901   9.455
 7010POPC   PO420952   1.996   5.821   9.155
 7010POPC   GL120953   1.983   5.864   8.855
 7010POPC   GL220954   1.888   5.815   8.855
 7010POPC   C1A20955   1.972   5.893   8.555
 7010POPC   D2A20956   2.015   5.871   8.255
 7010POPC   C3A20957   2.003   5.852   7.955
 7010POPC   C4A20958   2.036   5.883   7.655
 7010POPC   C1B20959   1.812   5.744   8.555
 7010POPC   C2B20960   1.754   5.715   8.255
 7010POPC   C3B20961   1.769   5.785   7.955
 7010POPC   C4B20962   1.773   5.716   7.655
 7011POPC   NC320963  19.852  25.998   9.455
 7011POPC   PO420964  19.878  25.993   9.155
 7011POPC   GL120965  19.822  26.036   8.855
 7011POPC   GL220966  19.934  26.035   8.855
 7011POPC   C1A20967  19.884  26.051   8.555
 7011POPC   D2A20968  19.865  26.085   8.255
 7011POPC   C3A20969  19.788  26.028   7.955
 7011POPC   C4A20970  19.828  26.087   7.655
 7011POPC   C1B20971  20.088  26.070   8.555
 7011POPC   C2B20972  20.129  26.004   8.255
 7011POPC   C3B20973  20.109  26.059   7.955
 7011POPC   C4B20974  20.120  26.026   7.655
 7012POPC   NC320975  30.729  43.136   9.455
 7012POPC   PO420976  30.717  43.129   9.155
 7012POPC   GL120977  30.738  43.076   8.855
 7012POPC   GL220978  30.744  43.242   8.855
 7012POPC   C1A20979  30.653  43.076   8.555
 7012POPC   D2A20980  30.736  43.093   8.255
 7012POPC   C3A20981  30.743  43.096   7.955
 7012POPC   C4A20982  30.650  43.155   7.655
 7012POPC   C1B20983  30.817  43.345   8.555
 7012POPC   C2B20984  30.835  43.262   8.255
 7012POPC   C3B20985  30.846  43.315   7.955
 7012POPC   C4B20986  30.809  43.347   7.655
 7013POPC   NC320987  29.097   1.227   9.455
 7013POPC   PO420988  29.187   1.165   9.155
 7013POPC   GL120989  29.109   1.214   8.855
 7013POPC   GL220990  29.063   1.119   8.855
 7013POPC   C1A20991  29.167   1.261   8.555
 7013POPC   D2A20992  29.166   1.174   8.255
 7013POPC   C3A20993  29.190   1.202   7.955
 7013POPC   C4A20994  29.190   1.219   7.655
 7013POPC   C1B20995  28.945   1.064   8.555
 7013POPC   C2B20996  28.953   1.047   8.255
 7013POPC   C3B20997  28.937   1.082   7.955
 7013POPC   C4B20998  28.889   1.131   7.655
 7014POPC   NC320999  34.576  40.003   9.455
 7014POPC   PO421000  34.544  39.986   9.155
 7014POPC   GL121001  34.619  39.975   8.855
 7014POPC   GL221002  34.510  40.094   8.855
 7014POPC   C1A21003  34.580  40.026   8.555
 7014POPC   D2A21004  34.598  39.959   8.255
 7014POPC   C3A21005  34.558  40.053   7.955
 7014POPC   C4A21006  34.588  39.989   7.655
 7014POPC   C1B21007  34.401  40.186   8.555
 7014POPC   C2B21008  34.379  40.138   8.255
 7014POPC   C3B21009  34.432  40.203   7.955
 7014POPC   C4B21010  34.356  40.182   7.655
 7015POPC   NC321011   3.560  40.019   9.455
 7015POPC   PO421012   3.504  40.055   9.155
 7015POPC   GL121013   3.519  40.050   8.855
 7015POPC   GL221014   3.471  40.109   8.855
 7015POPC   C1A21015   3.548  40.007   8.555
 7015POPC   D2A21016   3.579  40.017   8.255
 7015POPC   C3A21017   3.570  40.003   7.955
 7015POPC   C4A21018   3.580  40.057   7.655
 7015POPC   C1B21019   3.435  40.185   8.555
 7015POPC   C2B21020   3.431  40.246   8.255
 7015POPC   C3B21021   3.474  40.179   7.955
 7015POPC   C4B21022   3.439  40.229   7.655
 7016POPC   NC321023  24.505  41.536   9.455
 7016POPC   PO421024  24.496  41.542   9.155
 7016POPC   GL121025  24.523  41.604   8.855
 7016POPC   GL221026  24.455  41.446   8.855
 7016POPC   C1A21027  24.453  41.514   8.555
 7016POPC   D2A21028  24.461  41.535   8.255
 7016POPC   C3A21029  24.506  41.519   7.955
 7016POPC   C4A21030  24.508  41.531   7.655
 7016POPC   C1B21031  24.497  41.263   8.555
 7016POPC   C2B21032  24.546  41.308   8.255
 7016POPC   C3B21033  24.481  41.315   7.955
 7016POPC   C4B21034  24.477  41.325   7.655
 7017POPC   NC321035  12.103   1.968   9.455
 7017POPC   PO421036  12.052   2.036   9.155
 7017POPC   GL121037  12.084   1.952   8.855
 7017POPC   GL221038  12.080   1.902   8.855
 7017POPC   C1A21039  12.040   2.038   8.555
 7017POPC   D2A21040  12.041   1.965   8.255
 7017POPC   C3A21041  12.069   2.013   7.955
 7017POPC   C4A21042  12.113   2.021   7.655
 7017POPC   C1B21043  12.148   1.765   8.555
 7017POPC   C2B21044  12.164   1.723   8.255
 7017POPC   C3B21045  12.152   1.756   7.955
 7017POPC   C4B21046  12.169   1.788   7.655
 7018POPC   NC321047  29.905  39.204   9.455
 7018POPC   PO421048  29.968  39.246   9.155
 7018POPC   GL121049  29.932  39.203   8.855
 7018POPC   GL221050  30.047  39.186   8.855
 7018POPC   C1A21051  29.968  39.260   8.555
 7018POPC   D2A21052  29.917  39.198   8.255
 7018POPC   C3A21053  29.945  39.243   7.955
 7018POPC   C4A21054  29.947  39.207   7.655
 7018POPC   C1B21055  30.200  39.164   8.555
 7018POPC   C2B21056  30.150  39.214   8.255
 7018POPC   C3B21057  30.167  39.185   7.955
 7018POPC   C4B21058  30.188  39.246   7.655
 7019POPC   NC321059  33.020  20.573   9.455
 7019POPC   PO421060  33.016  20.652   9.155
 7019POPC   GL121061  33.001  20.655   8.855
 7019POPC   GL221062  32.992  20.446   8.855
 7019POPC   C1A21063  32.977  20.633   8.555
 7019POPC   D2A21064  33.044  20.589   8.255
 7019POPC   C3A21065  33.056  20.573   7.955
 7019POPC   C4A21066  33.022  20.647   7.655
 7019POPC   C1B21067  32.992  20.351   8.555
 7019POPC   C2B21068  32.925  20.393   8.255
 7019POPC   C3B21069  32.943  20.397   7.955
 7019POPC   C4B21070  32.990  20.331   7.655
 7020POPC   NC321071  22.173  11.254   9.455
 7020POPC   PO421072  22.116  11.305   9.155
 7020POPC   GL121073  22.177  11.261   8.855
 7020POPC   GL221074  22.262  11.299   8.855
 7020POPC   C1A21075  22.152  11.315   8.555
 7020POPC   D2A21076  22.130  11.341   8.255
 7020POPC   C3A21077  22.183  11.344   7.955
 7020POPC   C4A21078  22.180  11.311   7.655
 7020POPC   C1B21079  22.444  11.336   8.555
 7020POPC   C2B21080  22.392  11.265   8.255
 7020POPC   C3B21081  22.398  11.336   7.955
 7020POPC   C4B21082  22.441  11.292   7.655
 7021POPC   NC321083  27.638  15.219   9.455
 7021POPC   PO421084  27.563  15.153   9.155
 7021POPC   GL121085  27.627  15.209   8.855
 7021POPC   GL221086  27.747  15.108   8.855
 7021POPC   C1A21087  27.559  15.212   8.555
 7021POPC   D2A21088  27.595  15.152   8.255
 7021POPC   C3A21089  27.574  15.142   7.955
 7021POPC   C4A21090  27.561  15.172   7.655
 7021POPC   C1B21091  27.846  15.068   8.555
 7021POPC   C2B21092  27.833  15.053   8.255
 7021POPC   C3B21093  27.818  15.098   7.955
 7021POPC   C4B21094  27.798  15.046   7.655
 7022POPC   NC321095  23.667   2.743   9.455
 7022POPC   PO421096  23.684   2.794   9.155
 7022POPC   GL121097  23.691   2.787   8.855
 7022POPC   GL221098  23.700   2.636   8.855
 7022POPC   C1A21099  23.693   2.725   8.555
 7022POPC   D2A21100  23.742   2.749   8.255
 7022POPC   C3A21101  23.695   2.808   7.955
 7022POPC   C4A21102  23.752   2.773   7.655
 7022POPC   C1B21103  23.727   2.513   8.555
 7022POPC   C2B21104  23.673   2.557   8.255
 7022POPC   C3B21105  23.644   2.563   7.955
 7022POPC   C4B21106  23.706   2.549   7.655
 7023POPC   NC321107  32.227  18.296   9.455
 7023POPC   PO421108  32.208  18.239   9.155
 7023POPC   GL121109  32.291  18.304   8.855
 7023POPC   GL221110  32.379  18.320   8.855
 7023POPC   C1A21111  32.229  18.274   8.555
 7023POPC   D2A21112  32.234  18.296   8.255
 7023POPC   C3A21113  32.207  18.331   7.955
 7023POPC   C4A21114  32.264  18.331   7.655
 7023POPC   C1B21115  32.459  18.293   8.555
 7023POPC   C2B21116  32.488  18.292   8.255
 7023POPC   C3B21117  32.476  18.367   7.955
 7023POPC   C4B21118  32.495  18.291   7.655
 7024POPC   NC321119  41.530  20.654   9.455
 7024POPC   PO421120  41.566  20.602   9.155
 7024POPC   GL121121  41.577  20.601   8.855
 7024POPC   GL221122  41.633  20.730   8.855
 7024POPC   C1A21123  41.572  20.574   8.555
 7024POPC   D2A21124  41.572  20.636   8.255
 7024POPC   C3A21125  41.528  20.651   7.955
 7024POPC   C4A21126  41.585  20.616   7.655
 7024POPC   C1B21127  41.716  20.819   8.555
 7024POPC   C2B21128  41.778  20.836   8.255
 7024POPC   C3B21129  41.685  20.821   7.955
 7024POPC   C4B21130  41.769  20.838   7.655
 7025POPC   NC321131  36.891  39.191   9.455
 7025POPC   PO421132  36.854  39.261   9.155
 7025POPC   GL121133  36.900  39.209   8.855
 7025POPC   GL221134  37.000  39.158   8.855
 7025POPC   C1A21135  36.918  39.270   8.555
 7025POPC   D2A21136  36.864  39.187   8.255
 7025POPC   C3A21137  36.866  39.280   7.955
 7025POPC   C4A21138  36.889  39.260   7.655
 7025POPC   C1B21139  37.049  39.046   8.555
 7025POPC   C2B21140  37.124  39.044   8.255
 7025POPC   C3B21141  37.060  39.056   7.955
 7025POPC   C4B21142  37.078  39.099   7.655
 7026POPC   NC321143   8.229   5.066   9.455
 7026POPC   PO421144   8.234   5.059   9.155
 7026POPC   GL121145   8.237   5.131   8.855
 7026POPC   GL221146   8.123   5.178   8.855
 7026POPC   C1A21147   8.191   5.062   8.555
 7026POPC   D2A21148   8.171   5.094   8.255
 7026POPC   C3A21149   8.154   5.089   7.955
 7026POPC   C4A21150   8.151   5.070   7.655
 7026POPC   C1B21151   7.994   5.253   8.555
 7026POPC   C2B21152   8.053   5.282   8.255
 7026POPC   C3B21153   7.980   5.236   7.955
 7026POPC   C4B21154   8.058   5.298   7.655
 7027POPC   NC321155   8.175  37.640   9.455
 7027POPC   PO421156   8.148  37.655   9.155
 7027POPC   GL121157   8.184  37.705   8.855
 7027POPC   GL221158   8.286  37.689   8.855
 7027POPC   C1A21159   8.180  37.718   8.555
 7027POPC   D2A21160   8.228  37.672   8.255
 7027POPC   C3A21161   8.224  37.653   7.955
 7027POPC   C4A21162   8.223  37.670   7.655
 7027POPC   C1B21163   8.429  37.744   8.555
 7027POPC   C2B21164   8.478  37.788   8.255
 7027POPC   C3B21165   8.411  37.778   7.955
 7027POPC   C4B21166   8.442  37.731   7.655
 7028POPC   NC321167  29.133  11.261   9.455
 7028POPC   PO421168  29.160  11.268   9.155
 7028POPC   GL121169  29.151  11.269   8.855
 7028POPC   GL221170  29.194  11.164   8.855
 7028POPC   C1A21171  29.104  11.264   8.555
 7028POPC   D2A21172  29.178  11.318   8.255
 7028POPC   C3A21173  29.194  11.348   7.955
 7028POPC   C4A21174  29.116  11.260   7.655
 7028POPC   C1B21175  29.249  11.085   8.555
 7028POPC   C2B21176  29.301  11.054   8.255
 7028POPC   C3B21177  29.259  11.086   7.955
 7028POPC   C4B21178  29.252  11.129   7.655
 7029POPC   NC321179   4.296  30.691   9.455
 7029POPC   PO421180   4.361  30.743   9.155
 7029POPC   GL121181   4.306  30.704   8.855
 7029POPC   GL221182   4.423  30.582   8.855
 7029POPC   C1A21183   4.282  30.675   8.555
 7029POPC   D2A21184   4.309  30.656   8.255
 7029POPC   C3A21185   4.316  30.729   7.955
 7029POPC   C4A21186   4.355  30.650   7.655
 7029POPC   C1B21187   4.481  30.570   8.555
 7029POPC   C2B21188   4.448  30.536   8.255
 7029POPC   C3B21189   4.481  30.544   7.955
 7029POPC   C4B21190   4.449  30.504   7.655
 7030POPC   NC321191  38.491  14.432   9.455
 7030POPC   PO421192  38.432  14.381   9.155
 7030POPC   GL121193  38.422  14.360   8.855
 7030POPC   GL221194  38.341  14.287   8.855
 7030POPC   C1A21195  38.439  14.364   8.555
 7030POPC   D2A21196  38.448  14.368   8.255
 7030POPC   C3A21197  38.498  14.445   7.955
 7030POPC   C4A21198  38.477  14.452   7.655
 7030POPC   C1B21199  38.257  14.168   8.555
 7030POPC   C2B21200  38.312  14.200   8.255
 7030POPC   C3B21201  38.337  14.183   7.955
 7030POPC   C4B21202  38.254  14.246   7.655
 7031POPC   NC321203  24.532  13.625   9.455
 7031POPC   PO421204  24.441  13.675   9.155
 7031POPC   GL121205  24.489  13.663   8.855
 7031POPC   GL221206  24.514  13.763   8.855
 7031POPC   C1A21207  24.536  13.657   8.555
 7031POPC   D2A21208  24.487  13.635   8.255
 7031POPC   C3A21209  24.453  13.591   7.955
 7031POPC   C4A21210  24.483  13.623   7.655
 7031POPC   C1B21211  24.483  13.895   8.555
 7031POPC   C2B21212  24.448  13.913   8.255
 7031POPC   C3B21213  24.486  13.889   7.955
 7031POPC   C4B21214  24.503  13.871   7.655
 7032POPC   NC321215  26.786  23.672   9.455
 7032POPC   PO421216  26.827  23.699   9.155
 7032POPC   GL121217  26.860  23.671   8.855
 7032POPC   GL221218  26.651  23.705   8.855
 7032POPC   C1A21219  26.809  23.735   8.555
 7032POPC   D2A21220  26.844  23.749   8.255
 7032POPC   C3A21221  26.809  23.704   7.955
 7032POPC   C4A21222  26.776  23.752   7.655
 7032POPC   C1B21223  26.554  23.775   8.555
 7032POPC   C2B21224  26.549  23.817   8.255
 7032POPC   C3B21225  26.539  23.808   7.955
 7032POPC   C4B21226  26.596  23.767   7.655
 7033POPC   NC321227  14.430  24.502   9.455
 7033POPC   PO421228  14.390  24.480   9.155
 7033POPC   GL121229  14.425  24.450   8.855
 7033POPC   GL221230  14.316  24.504   8.855
 7033POPC   C1A21231  14.426  24.517   8.555
 7033POPC   D2A21232  14.419  24.524   8.255
 7033POPC   C3A21233  14.451  24.508   7.955
 7033POPC   C4A21234  14.362  24.520   7.655
 7033POPC   C1B21235  14.130  24.582   8.555
 7033POPC   C2B21236  14.120  24.509   8.255
 7033POPC   C3B21237  14.179  24.543   7.955
 7033POPC   C4B21238  14.117  24.511   7.655
 7034POPC   NC321239  36.941  32.278   9.455
 7034POPC   PO421240  36.903  32.296   9.155
 7034POPC   GL121241  36.887  32.255   8.855
 7034POPC   GL221242  37.010  32.299   8.855
 7034POPC   C1A21243  36.858  32.215   8.555
 7034POPC   D2A21244  36.881  32.237   8.255
 7034POPC   C3A21245  36.885  32.232   7.955
 7034POPC   C4A21246  36.857  32.242   7.655
 7034POPC   C1B21247  37.150  32.269   8.555
 7034POPC   C2B21248  37.134  32.280   8.255
 7034POPC   C3B21249  37.193  32.244   7.955
 7034POPC   C4B21250  37.124  32.294   7.655
 7035POPC   NC321251  35.385  29.884   9.455
 7035POPC   PO421252  35.329  29.946   9.155
 7035POPC   GL121253  35.353  29.885   8.855
 7035POPC   GL221254  35.263  30.006   8.855
 7035POPC   C1A21255  35.368  29.921   8.555
 7035POPC   D2A21256  35.314  29.923   8.255
 7035POPC   C3A21257  35.373  29.921   7.955
 7035POPC   C4A21258  35.388  29.963   7.655
 7035POPC   C1B21259  35.085  30.033   8.555
 7035POPC   C2B21260  35.099  30.015   8.255
 7035POPC   C3B21261  35.116  30.028   7.955
 7035POPC   C4B21262  35.090  30.062   7.655
 7036POPC   NC321263  32.288   9.767   9.455
 7036POPC   PO421264  32.267   9.751   9.155
 7036POPC   GL121265  32.285   9.783   8.855
 7036POPC   GL221266  32.348   9.674   8.855
 7036POPC   C1A21267  32.225   9.751   8.555
 7036POPC   D2A21268  32.280   9.736   8.255
 7036POPC   C3A21269  32.209   9.773   7.955
 7036POPC   C4A21270  32.293   9.763   7.655
 7036POPC   C1B21271  32.490   9.606   8.555
 7036POPC   C2B21272  32.427   9.654   8.255
 7036POPC   C3B21273  32.463   9.581   7.955
 7036POPC   C4B21274  32.444   9.588   7.655
 7037POPC   NC321275  27.628  29.134   9.455
 7037POPC   PO421276  27.569  29.137   9.155
 7037POPC   GL121277  27.546  29.161   8.855
 7037POPC   GL221278  27.502  29.058   8.855
 7037POPC   C1A21279  27.546  29.123   8.555
 7037POPC   D2A21280  27.624  29.150   8.255
 7037POPC   C3A21281  27.612  29.153   7.955
 7037POPC   C4A21282  27.559  29.156   7.655
 7037POPC   C1B21283  27.498  28.939   8.555
 7037POPC   C2B21284  27.455  28.937   8.255
 7037POPC   C3B21285  27.449  28.970   7.955
 7037POPC   C4B21286  27.438  28.959   7.655
 7038POPC   NC321287  26.849  22.113   9.455
 7038POPC   PO421288  26.805  22.208   9.155
 7038POPC   GL121289  26.791  22.183   8.855
 7038POPC   GL221290  26.780  22.301   8.855
 7038POPC   C1A21291  26.804  22.173   8.555
 7038POPC   D2A21292  26.796  22.128   8.255
 7038POPC   C3A21293  26.797  22.162   7.955
 7038POPC   C4A21294  26.834  22.205   7.655
 7038POPC   C1B21295  26.755  22.429   8.555
 7038POPC   C2B21296  26.698  22.410   8.255
 7038POPC   C3B21297  26.745  22.423   7.955
 7038POPC   C4B21298  26.683  22.432   7.655
 7039POPC   NC321299   1.183   4.367   9.455
 7039POPC   PO421300   1.224   4.305   9.155
 7039POPC   GL121301   1.189   4.349   8.855
 7039POPC   GL221302   1.115   4.243   8.855
 7039POPC   C1A21303   1.237   4.313   8.555
 7039POPC   D2A21304   1.242   4.317   8.255
 7039POPC   C3A21305   1.174   4.349   7.955
 7039POPC   C4A21306   1.206   4.282   7.655
 7039POPC   C1B21307   0.930   4.187   8.555
 7039POPC   C2B21308   1.006   4.264   8.255
 7039POPC   C3B21309   0.988   4.212   7.955
 7039POPC   C4B21310   0.961   4.247   7.655
 7040POPC   NC321311   5.059  42.318   9.455
 7040POPC   PO421312   5.069  42.316   9.155
 7040POPC   GL121313   5.121  42.296   8.855
 7040POPC   GL221314   5.057  42.485   8.855
 7040POPC   C1A21315   5.103  42.352   8.555
 7040POPC   D2A21316   5.124  42.353   8.255
 7040POPC   C3A21317   5.085  42.322   7.955
 7040POPC   C4A21318   5.066  42.295   7.655
 7040POPC   C1B21319   4.960  42.581   8.555
 7040POPC   C2B21320   4.994  42.506   8.255
 7040POPC   C3B21321   4.959  42.550   7.955
 7040POPC   C4B21322   4.909  42.522   7.655
 7041POPC   NC321323   0.429  17.483   9.455
 7041POPC   PO421324   0.459  17.512   9.155
 7041POPC   GL121325   0.433  17.495   8.855
 7041POPC   GL221326   0.363  17.516   8.855
 7041POPC   C1A21327   0.467  17.502   8.555
 7041POPC   D2A21328   0.441  17.529   8.255
 7041POPC   C3A21329   0.420  17.548   7.955
 7041POPC   C4A21330   0.392  17.457   7.655
 7041POPC   C1B21331   0.244  17.576   8.555
 7041POPC   C2B21332   0.222  17.588   8.255
 7041POPC   C3B21333   0.251  17.569   7.955
 7041POPC   C4B21334   0.204  17.627   7.655
 7042POPC   NC321335  40.796  29.872   9.455
 7042POPC   PO421336  40.832  29.948   9.155
 7042POPC   GL121337  40.821  29.917   8.855
 7042POPC   GL221338  40.666  29.978   8.855
 7042POPC   C1A21339  40.797  29.971   8.555
 7042POPC   D2A21340  40.791  29.931   8.255
 7042POPC   C3A21341  40.742  29.931   7.955
 7042POPC   C4A21342  40.803  29.874   7.655
 7042POPC   C1B21343  40.621  30.139   8.555
 7042POPC   C2B21344  40.656  30.112   8.255
 7042POPC   C3B21345  40.621  30.094   7.955
 7042POPC   C4B21346  40.655  30.088   7.655
 7043POPC   NC321347  36.857  16.768   9.455
 7043POPC   PO421348  36.875  16.700   9.155
 7043POPC   GL121349  36.906  16.774   8.855
 7043POPC   GL221350  36.937  16.643   8.855
 7043POPC   C1A21351  36.869  16.704   8.555
 7043POPC   D2A21352  36.903  16.744   8.255
 7043POPC   C3A21353  36.896  16.714   7.955
 7043POPC   C4A21354  36.863  16.752   7.655
 7043POPC   C1B21355  37.014  16.488   8.555
 7043POPC   C2B21356  37.016  16.452   8.255
 7043POPC   C3B21357  36.955  16.521   7.955
 7043POPC   C4B21358  36.994  16.497   7.655
 7044POPC   NC321359   2.733  42.307   9.455
 7044POPC   PO421360   2.749  42.315   9.155
 7044POPC   GL121361   2.757  42.377   8.855
 7044POPC   GL221362   2.800  42.456   8.855
 7044POPC   C1A21363   2.745  42.296   8.555
 7044POPC   D2A21364   2.770  42.336   8.255
 7044POPC   C3A21365   2.799  42.373   7.955
 7044POPC   C4A21366   2.801  42.330   7.655
 7044POPC   C1B21367   2.904  42.592   8.555
 7044POPC   C2B21368   2.888  42.519   8.255
 7044POPC   C3B21369   2.928  42.598   7.955
 7044POPC   C4B21370   2.852  42.579   7.655
 7045POPC   NC321371  44.649   5.835   9.455
 7045POPC   PO421372  44.628   5.854   9.155
 7045POPC   GL121373  44.632   5.885   8.855
 7045POPC   GL221374  44.767   5.873   8.855
 7045POPC   C1A21375  44.636   5.857   8.555
 7045POPC   D2A21376  44.666   5.893   8.255
 7045POPC   C3A21377  44.665   5.906   7.955
 7045POPC   C4A21378  44.703   5.910   7.655
 7045POPC   C1B21379  44.948   5.916   8.555
 7045POPC   C2B21380  44.887   5.870   8.255
 7045POPC   C3B21381  44.946   5.955   7.955
 7045POPC   C4B21382  44.947   5.881   7.655
 7046POPC   NC321383  42.306   9.005   9.455
 7046POPC   PO421384  42.373   8.958   9.155
 7046POPC   GL121385  42.291   8.961   8.855
 7046POPC   GL221386  42.384   9.119   8.855
 7046POPC   C1A21387  42.365   9.015   8.555
 7046POPC   D2A21388  42.327   8.963   8.255
 7046POPC   C3A21389  42.348   9.022   7.955
 7046POPC   C4A21390  42.377   8.942   7.655
 7046POPC   C1B21391  42.461   9.240   8.555
 7046POPC   C2B21392  42.431   9.216   8.255
 7046POPC   C3B21393  42.414   9.235   7.955
 7046POPC   C4B21394  42.464   9.234   7.655
 7047POPC   NC321395  30.657   1.946   9.455
 7047POPC   PO421396  30.672   1.940   9.155
 7047POPC   GL121397  30.735   2.034   8.855
 7047POPC   GL221398  30.686   1.840   8.855
 7047POPC   C1A21399  30.721   1.984   8.555
 7047POPC   D2A21400  30.747   1.953   8.255
 7047POPC   C3A21401  30.654   2.036   7.955
 7047POPC   C4A21402  30.740   2.036   7.655
 7047POPC   C1B21403  30.663   1.744   8.555
 7047POPC   C2B21404  30.691   1.782   8.255
 7047POPC   C3B21405  30.722   1.765   7.955
 7047POPC   C4B21406  30.645   1.785   7.655
 7048POPC   NC321407  23.674  30.730   9.455
 7048POPC   PO421408  23.684  30.656   9.155
 7048POPC   GL121409  23.752  30.687   8.855
 7048POPC   GL221410  23.886  30.673   8.855
 7048POPC   C1A21411  23.684  30.719   8.555
 7048POPC   D2A21412  23.675  30.670   8.255
 7048POPC   C3A21413  23.679  30.673   7.955
 7048POPC   C4A21414  23.745  30.659   7.655
 7048POPC   C1B21415  23.925  30.732   8.555
 7048POPC   C2B21416  23.938  30.657   8.255
 7048POPC   C3B21417  23.956  30.672   7.955
 7048POPC   C4B21418  24.005  30.686   7.655
 7049POPC   NC321419   8.191   7.428   9.455
 7049POPC   PO421420   8.181   7.454   9.155
 7049POPC   GL121421   8.198   7.454   8.855
 7049POPC   GL221422   8.115   7.552   8.855
 7049POPC   C1A21423   8.173   7.387   8.555
 7049POPC   D2A21424   8.164   7.400   8.255
 7049POPC   C3A21425   8.202   7.456   7.955
 7049POPC   C4A21426   8.198   7.426   7.655
 7049POPC   C1B21427   8.067   7.677   8.555
 7049POPC   C2B21428   8.026   7.602   8.255
 7049POPC   C3B21429   8.054   7.651   7.955
 7049POPC   C4B21430   8.072   7.611   7.655
 7050POPC   NC321431  40.785  19.806   9.455
 7050POPC   PO421432  40.794  19.846   9.155
 7050POPC   GL121433  40.815  19.809   8.855
 7050POPC   GL221434  40.749  19.921   8.855
 7050POPC   C1A21435  40.830  19.815   8.555
 7050POPC   D2A21436  40.757  19.827   8.255
 7050POPC   C3A21437  40.800  19.806   7.955
 7050POPC   C4A21438  40.798  19.815   7.655
 7050POPC   C1B21439  40.769  20.109   8.555
 7050POPC   C2B21440  40.744  20.068   8.255
 7050POPC   C3B21441  40.756  20.111   7.955
 7050POPC   C4B21442  40.730  20.079   7.655
 7051POPC   NC321443  15.135   4.289   9.455
 7051POPC   PO421444  15.188   4.325   9.155
 7051POPC   GL121445  15.135   4.365   8.855
 7051POPC   GL221446  15.123   4.386   8.855
 7051POPC   C1A21447  15.147   4.366   8.555
 7051POPC   D2A21448  15.203   4.294   8.255
 7051POPC   C3A21449  15.150   4.344   7.955
 7051POPC   C4A21450  15.141   4.288   7.655
 7051POPC   C1B21451  15.027   4.512   8.555
 7051POPC   C2B21452  15.033   4.545   8.255
 7051POPC   C3B21453  15.013   4.522   7.955
 7051POPC   C4B21454  15.089   4.557   7.655
 7052POPC   NC321455  26.789  12.875   9.455
 7052POPC   PO421456  26.841  12.900   9.155
 7052POPC   GL121457  26.818  12.874   8.855
 7052POPC   GL221458  26.877  12.790   8.855
 7052POPC   C1A21459  26.769  12.872   8.555
 7052POPC   D2A21460  26.778  12.900   8.255
 7052POPC   C3A21461  26.851  12.832   7.955
 7052POPC   C4A21462  26.818  12.809   7.655
 7052POPC   C1B21463  26.943  12.637   8.555
 7052POPC   C2B21464  26.971  12.661   8.255
 7052POPC   C3B21465  26.952  12.632   7.955
 7052POPC   C4B21466  26.975  12.658   7.655
 7053POPC   NC321467  11.272   3.526   9.455
 7053POPC   PO421468  11.276   3.497   9.155
 7053POPC   GL121469  11.343   3.517   8.855
 7053POPC   GL221470  11.258   3.378   8.855
 7053POPC   C1A21471  11.298   3.566   8.555
 7053POPC   D2A21472  11.267   3.495   8.255
 7053POPC   C3A21473  11.278   3.581   7.955
 7053POPC   C4A21474  11.345   3.548   7.655
 7053POPC   C1B21475  11.304   3.246   8.555
 7053POPC   C2B21476  11.306   3.269   8.255
 7053POPC   C3B21477  11.358   3.299   7.955
 7053POPC   C4B21478  11.272   3.286   7.655
 7054POPC   NC321479  28.390  29.913   9.455
 7054POPC   PO421480  28.409  29.953   9.155
 7054POPC   GL121481  28.370  29.905   8.855
 7054POPC   GL221482  28.396  30.001   8.855
 7054POPC   C1A21483  28.389  29.918   8.555
 7054POPC   D2A21484  28.333  29.906   8.255
 7054POPC   C3A21485  28.386  29.918   7.955
 7054POPC   C4A21486  28.322  29.928   7.655
 7054POPC   C1B21487  28.430  30.186   8.555
 7054POPC   C2B21488  28.408  30.205   8.255
 7054POPC   C3B21489  28.440  30.126   7.955
 7054POPC   C4B21490  28.448  30.183   7.655
 7055POPC   NC321491  14.409  11.315   9.455
 7055POPC   PO421492  14.410  11.258   9.155
 7055POPC   GL121493  14.378  11.330   8.855
 7055POPC   GL221494  14.493  11.316   8.855
 7055POPC   C1A21495  14.378  11.272   8.555
 7055POPC   D2A21496  14.380  11.283   8.255
 7055POPC   C3A21497  14.370  11.281   7.955
 7055POPC   C4A21498  14.374  11.294   7.655
 7055POPC   C1B21499  14.631  11.254   8.555
 7055POPC   C2B21500  14.675  11.262   8.255
 7055POPC   C3B21501  14.685  11.301   7.955
 7055POPC   C4B21502  14.650  11.264   7.655
 7056POPC   NC321503  28.381  34.596   9.455
 7056POPC   PO421504  28.323  34.534   9.155
 7056POPC   GL121505  28.340  34.571   8.855
 7056POPC   GL221506  28.368  34.466   8.855
 7056POPC   C1A21507  28.418  34.564   8.555
 7056POPC   D2A21508  28.387  34.564   8.255
 7056POPC   C3A21509  28.393  34.558   7.955
 7056POPC   C4A21510  28.416  34.562   7.655
 7056POPC   C1B21511  28.485  34.381   8.555
 7056POPC   C2B21512  28.447  34.361   8.255
 7056POPC   C3B21513  28.484  34.305   7.955
 7056POPC   C4B21514  28.444  34.302   7.655
 7057POPC   NC321515   5.047  37.663   9.455
 7057POPC   PO421516   5.110  37.656   9.155
 7057POPC   GL121517   5.061  37.675   8.855
 7057POPC   GL221518   5.014  37.616   8.855
 7057POPC   C1A21519   5.140  37.706   8.555
 7057POPC   D2A21520   5.069  37.670   8.255
 7057POPC   C3A21521   5.078  37.680   7.955
 7057POPC   C4A21522   5.044  37.720   7.655
 7057POPC   C1B21523   4.866  37.573   8.555
 7057POPC   C2B21524   4.812  37.608   8.255
 7057POPC   C3B21525   4.884  37.547   7.955
 7057POPC   C4B21526   4.892  37.626   7.655
 7058POPC   NC321527  29.186  27.628   9.455
 7058POPC   PO421528  29.187  27.624   9.155
 7058POPC   GL121529  29.178  27.597   8.855
 7058POPC   GL221530  29.070  27.486   8.855
 7058POPC   C1A21531  29.144  27.625   8.555
 7058POPC   D2A21532  29.175  27.550   8.255
 7058POPC   C3A21533  29.158  27.560   7.955
 7058POPC   C4A21534  29.189  27.629   7.655
 7058POPC   C1B21535  29.089  27.310   8.555
 7058POPC   C2B21536  29.086  27.304   8.255
 7058POPC   C3B21537  29.095  27.327   7.955
 7058POPC   C4B21538  29.056  27.350   7.655
 7059POPC   NC321539  32.203  30.734   9.455
 7059POPC   PO421540  32.240  30.655   9.155
 7059POPC   GL121541  32.273  30.717   8.855
 7059POPC   GL221542  32.150  30.583   8.855
 7059POPC   C1A21543  32.217  30.687   8.555
 7059POPC   D2A21544  32.281  30.697   8.255
 7059POPC   C3A21545  32.238  30.684   7.955
 7059POPC   C4A21546  32.276  30.706   7.655
 7059POPC   C1B21547  32.040  30.559   8.555
 7059POPC   C2B21548  31.998  30.551   8.255
 7059POPC   C3B21549  32.058  30.566   7.955
 7059POPC   C4B21550  32.074  30.544   7.655
 7060POPC   NC321551  28.399   0.474   9.455
 7060POPC   PO421552  28.416   0.470   9.155
 7060POPC   GL121553  28.411   0.414   8.855
 7060POPC   GL221554  28.462   0.324   8.855
 7060POPC   C1A21555  28.322   0.403   8.555
 7060POPC   D2A21556  28.342   0.474   8.255
 7060POPC   C3A21557  28.343   0.444   7.955
 7060POPC   C4A21558  28.389   0.448   7.655
 7060POPC   C1B21559  28.536   0.181   8.555
 7060POPC   C2B21560  28.520   0.219   8.255
 7060POPC   C3B21561  28.451   0.262   7.955
 7060POPC   C4B21562  28.482   0.216   7.655
 7061POPC   NC321563   2.039   9.010   9.455
 7061POPC   PO421564   2.001   8.993   9.155
 7061POPC   GL121565   1.957   8.972   8.855
 7061POPC   GL221566   2.060   8.921   8.855
 7061POPC   C1A21567   1.995   8.999   8.555
 7061POPC   D2A21568   2.000   8.939   8.255
 7061POPC   C3A21569   1.955   8.931   7.955
 7061POPC   C4A21570   2.012   8.997   7.655
 7061POPC   C1B21571   2.269   8.856   8.555
 7061POPC   C2B21572   2.233   8.859   8.255
 7061POPC   C3B21573   2.180   8.850   7.955
 7061POPC   C4B21574   2.277   8.858   7.655
 7062POPC   NC321575  24.454  26.776   9.455
 7062POPC   PO421576  24.524  26.837   9.155
 7062POPC   GL121577  24.472  26.777   8.855
 7062POPC   GL221578  24.410  26.875   8.855
 7062POPC   C1A21579  24.525  26.831   8.555
 7062POPC   D2A21580  24.449  26.778   8.255
 7062POPC   C3A21581  24.460  26.837   7.955
 7062POPC   C4A21582  24.443  26.771   7.655
 7062POPC   C1B21583  24.312  26.956   8.555
 7062POPC   C2B21584  24.272  26.982   8.255
 7062POPC   C3B21585  24.317  26.929   7.955
 7062POPC   C4B21586  24.272  26.952   7.655
 7063POPC   NC321587   1.238   1.997   9.455
 7063POPC   PO421588   1.240   1.997   9.155
 7063POPC   GL121589   1.260   1.972   8.855
 7063POPC   GL221590   1.301   2.120   8.855
 7063POPC   C1A21591   1.225   2.035   8.555
 7063POPC   D2A21592   1.257   1.999   8.255
 7063POPC   C3A21593   1.243   1.956   7.955
 7063POPC   C4A21594   1.169   2.038   7.655
 7063POPC   C1B21595   1.355   2.217   8.555
 7063POPC   C2B21596   1.342   2.121   8.255
 7063POPC   C3B21597   1.367   2.214   7.955
 7063POPC   C4B21598   1.402   2.218   7.655
 7064POPC   NC321599  29.907  40.802   9.455
 7064POPC   PO421600  29.891  40.794   9.155
 7064POPC   GL121601  29.948  40.822   8.855
 7064POPC   GL221602  30.055  40.781   8.855
 7064POPC   C1A21603  29.897  40.829   8.555
 7064POPC   D2A21604  29.932  40.794   8.255
 7064POPC   C3A21605  29.939  40.833   7.955
 7064POPC   C4A21606  29.918  40.827   7.655
 7064POPC   C1B21607  30.127  40.716   8.555
 7064POPC   C2B21608  30.207  40.737   8.255
 7064POPC   C3B21609  30.118  40.691   7.955
 7064POPC   C4B21610  30.201  40.783   7.655
 7065POPC   NC321611  19.860  30.677   9.455
 7065POPC   PO421612  19.815  30.729   9.155
 7065POPC   GL121613  19.849  30.704   8.855
 7065POPC   GL221614  19.767  30.628   8.855
 7065POPC   C1A21615  19.883  30.743   8.555
 7065POPC   D2A21616  19.813  30.699   8.255
 7065POPC   C3A21617  19.821  30.701   7.955
 7065POPC   C4A21618  19.815  30.725   7.655
 7065POPC   C1B21619  19.711  30.494   8.555
 7065POPC   C2B21620  19.650  30.463   8.255
 7065POPC   C3B21621  19.694  30.506   7.955
 7065POPC   C4B21622  19.633  30.547   7.655
 7066POPC   NC321623  19.798  27.572   9.455
 7066POPC   PO421624  19.801  27.549   9.155
 7066POPC   GL121625  19.804  27.570   8.855
 7066POPC   GL221626  19.677  27.610   8.855
 7066POPC   C1A21627  19.819  27.619   8.555
 7066POPC   D2A21628  19.790  27.561   8.255
 7066POPC   C3A21629  19.817  27.552   7.955
 7066POPC   C4A21630  19.879  27.545   7.655
 7066POPC   C1B21631  19.613  27.632   8.555
 7066POPC   C2B21632  19.546  27.591   8.255
 7066POPC   C3B21633  19.602  27.606   7.955
 7066POPC   C4B21634  19.610  27.574   7.655
 7067POPC   NC321635  33.773  29.123   9.455
 7067POPC   PO421636  33.814  29.174   9.155
 7067POPC   GL121637  33.822  29.124   8.855
 7067POPC   GL221638  33.831  29.027   8.855
 7067POPC   C1A21639  33.761  29.136   8.555
 7067POPC   D2A21640  33.797  29.115   8.255
 7067POPC   C3A21641  33.849  29.167   7.955
 7067POPC   C4A21642  33.845  29.177   7.655
 7067POPC   C1B21643  33.892  28.879   8.555
 7067POPC   C2B21644  33.901  28.918   8.255
 7067POPC   C3B21645  33.887  28.877   7.955
 7067POPC   C4B21646  33.919  28.936   7.655
 7068POPC   NC321647  18.301   4.315   9.455
 7068POPC   PO421648  18.283   4.340   9.155
 7068POPC   GL121649  18.318   4.327   8.855
 7068POPC   GL221650  18.411   4.226   8.855
 7068POPC   C1A21651  18.327   4.297   8.555
 7068POPC   D2A21652  18.239   4.277   8.255
 7068POPC   C3A21653  18.242   4.343   7.955
 7068POPC   C4A21654  18.274   4.362   7.655
 7068POPC   C1B21655  18.478   4.187   8.555
 7068POPC   C2B21656  18.484   4.187   8.255
 7068POPC   C3B21657  18.482   4.190   7.955
 7068POPC   C4B21658  18.535   4.167   7.655
 7069POPC   NC321659  35.348  41.514   9.455
 7069POPC   PO421660  35.359  41.584   9.155
 7069POPC   GL121661  35.379  41.588   8.855
 7069POPC   GL221662  35.365  41.681   8.855
 7069POPC   C1A21663  35.322  41.594   8.555
 7069POPC   D2A21664  35.365  41.554   8.255
 7069POPC   C3A21665  35.352  41.589   7.955
 7069POPC   C4A21666  35.340  41.608   7.655
 7069POPC   C1B21667  35.477  41.786   8.555
 7069POPC   C2B21668  35.445  41.807   8.255
 7069POPC   C3B21669  35.480  41.808   7.955
 7069POPC   C4B21670  35.508  41.750   7.655
 7070POPC   NC321671   1.972  43.901   9.455
 7070POPC   PO421672   1.956  43.848   9.155
 7070POPC   GL121673   1.994  43.876   8.855
 7070POPC   GL221674   1.933  43.738   8.855
 7070POPC   C1A21675   2.028  43.842   8.555
 7070POPC   D2A21676   1.983  43.923   8.255
 7070POPC   C3A21677   1.990  43.841   7.955
 7070POPC   C4A21678   1.994  43.860   7.655
 7070POPC   C1B21679   1.909  43.606   8.555
 7070POPC   C2B21680   1.885  43.668   8.255
 7070POPC   C3B21681   1.972  43.595   7.955
 7070POPC   C4B21682   1.970  43.644   7.655
 7071POPC   NC321683  15.943  41.588   9.455
 7071POPC   PO421684  15.958  41.606   9.155
 7071POPC   GL121685  15.983  41.577   8.855
 7071POPC   GL221686  16.037  41.648   8.855
 7071POPC   C1A21687  15.947  41.602   8.555
 7071POPC   D2A21688  15.992  41.541   8.255
 7071POPC   C3A21689  15.928  41.558   7.955
 7071POPC   C4A21690  15.988  41.603   7.655
 7071POPC   C1B21691  16.105  41.765   8.555
 7071POPC   C2B21692  16.107  41.751   8.255
 7071POPC   C3B21693  16.068  41.779   7.955
 7071POPC   C4B21694  16.136  41.770   7.655
 7072POPC   NC321695  28.409  30.655   9.455
 7072POPC   PO421696  28.415  30.672   9.155
 7072POPC   GL121697  28.335  30.734   8.855
 7072POPC   GL221698  28.512  30.642   8.855
 7072POPC   C1A21699  28.368  30.700   8.555
 7072POPC   D2A21700  28.381  30.679   8.255
 7072POPC   C3A21701  28.382  30.703   7.955
 7072POPC   C4A21702  28.332  30.708   7.655
 7072POPC   C1B21703  28.565  30.591   8.555
 7072POPC   C2B21704  28.627  30.630   8.255
 7072POPC   C3B21705  28.585  30.607   7.955
 7072POPC   C4B21706  28.639  30.606   7.655
 7073POPC   NC321707  12.816  26.783   9.455
 7073POPC   PO421708  12.824  26.831   9.155
 7073POPC   GL121709  12.886  26.813   8.855
 7073POPC   GL221710  12.778  26.724   8.855
 7073POPC   C1A21711  12.859  26.781   8.555
 7073POPC   D2A21712  12.807  26.827   8.255
 7073POPC   C3A21713  12.879  26.833   7.955
 7073POPC   C4A21714  12.881  26.816   7.655
 7073POPC   C1B21715  12.726  26.637   8.555
 7073POPC   C2B21716  12.678  26.585   8.255
 7073POPC   C3B21717  12.740  26.604   7.955
 7073POPC   C4B21718  12.691  26.633   7.655
 7074POPC   NC321719  15.926  13.669   9.455
 7074POPC   PO421720  15.989  13.659   9.155
 7074POPC   GL121721  15.917  13.620   8.855
 7074POPC   GL221722  16.036  13.556   8.855
 7074POPC   C1A21723  15.936  13.661   8.555
 7074POPC   D2A21724  15.905  13.594   8.255
 7074POPC   C3A21725  15.960  13.649   7.955
 7074POPC   C4A21726  15.997  13.637   7.655
 7074POPC   C1B21727  16.156  13.503   8.555
 7074POPC   C2B21728  16.209  13.545   8.255
 7074POPC   C3B21729  16.215  13.567   7.955
 7074POPC   C4B21730  16.188  13.552   7.655
 7075POPC   NC321731   1.257  44.627   9.455
 7075POPC   PO421732   1.210  44.680   9.155
 7075POPC   GL121733   1.173  44.690   8.855
 7075POPC   GL221734   1.136  44.597   8.855
 7075POPC   C1A21735   1.188  44.679   8.555
 7075POPC   D2A21736   1.175  44.704   8.255
 7075POPC   C3A21737   1.230  44.646   7.955
 7075POPC   C4A21738   1.219  44.686   7.655
 7075POPC   C1B21739   0.978  44.611   8.555
 7075POPC   C2B21740   0.929  44.587   8.255
 7075POPC   C3B21741   0.919  44.611   7.955
 7075POPC   C4B21742   0.964  44.598   7.655
 7076POPC   NC321743  33.840  17.520   9.455
 7076POPC   PO421744  33.830  17.525   9.155
 7076POPC   GL121745  33.804  17.503   8.855
 7076POPC   GL221746  33.860  17.577   8.855
 7076POPC   C1A21747  33.774  17.479   8.555
 7076POPC   D2A21748  33.793  17.459   8.255
 7076POPC   C3A21749  33.751  17.468   7.955
 7076POPC   C4A21750  33.808  17.521   7.655
 7076POPC   C1B21751  33.954  17.726   8.555
 7076POPC   C2B21752  33.903  17.762   8.255
 7076POPC   C3B21753  33.948  17.721   7.955
 7076POPC   C4B21754  33.976  17.677   7.655
 7077POPC   NC321755  34.551  31.456   9.455
 7077POPC   PO421756  34.565  31.442   9.155
 7077POPC   GL121757  34.557  31.444   8.855
 7077POPC   GL221758  34.509  31.574   8.855
 7077POPC   C1A21759  34.580  31.436   8.555
 7077POPC   D2A21760  34.595  31.436   8.255
 7077POPC   C3A21761  34.551  31.479   7.955
 7077POPC   C4A21762  34.561  31.429   7.655
 7077POPC   C1B21763  34.544  31.705   8.555
 7077POPC   C2B21764  34.516  31.763   8.255
 7077POPC   C3B21765  34.512  31.751   7.955
 7077POPC   C4B21766  34.477  31.714   7.655
 7078POPC   NC321767  27.626  26.783   9.455
 7078POPC   PO421768  27.547  26.812   9.155
 7078POPC   GL121769  27.641  26.787   8.855
 7078POPC   GL221770  27.521  26.741   8.855
 7078POPC   C1A21771  27.560  26.776   8.555
 7078POPC   D2A21772  27.592  26.846   8.255
 7078POPC   C3A21773  27.554  26.840   7.955
 7078POPC   C4A21774  27.632  26.770   7.655
 7078POPC   C1B21775  27.450  26.545   8.555
 7078POPC   C2B21776  27.507  26.625   8.255
 7078POPC   C3B21777  27.532  26.630   7.955
 7078POPC   C4B21778  27.467  26.577   7.655
 7079POPC   NC321779  42.326  39.229   9.455
 7079POPC   PO421780  42.374  39.267   9.155
 7079POPC   GL121781  42.327  39.212   8.855
 7079POPC   GL221782  42.232  39.269   8.855
 7079POPC   C1A21783  42.342  39.264   8.555
 7079POPC   D2A21784  42.301  39.227   8.255
 7079POPC   C3A21785  42.336  39.268   7.955
 7079POPC   C4A21786  42.382  39.223   7.655
 7079POPC   C1B21787  42.105  39.400   8.555
 7079POPC   C2B21788  42.153  39.360   8.255
 7079POPC   C3B21789  42.142  39.405   7.955
 7079POPC   C4B21790  42.169  39.349   7.655
 7080POPC   NC321791  23.669  29.971   9.455
 7080POPC   PO421792  23.734  29.950   9.155
 7080POPC   GL121793  23.742  29.906   8.855
 7080POPC   GL221794  23.594  29.905   8.855
 7080POPC   C1A21795  23.708  29.941   8.555
 7080POPC   D2A21796  23.673  29.953   8.255
 7080POPC   C3A21797  23.723  29.908   7.955
 7080POPC   C4A21798  23.714  29.887   7.655
 7080POPC   C1B21799  23.505  29.887   8.555
 7080POPC   C2B21800  23.495  29.874   8.255
 7080POPC   C3B21801  23.422  29.848   7.955
 7080POPC   C4B21802  23.432  29.819   7.655
 7081POPC   NC321803  11.323  17.489   9.455
 7081POPC   PO421804  11.290  17.524   9.155
 7081POPC   GL121805  11.344  17.468   8.855
 7081POPC   GL221806  11.445  17.585   8.855
 7081POPC   C1A21807  11.337  17.483   8.555
 7081POPC   D2A21808  11.316  17.516   8.255
 7081POPC   C3A21809  11.324  17.477   7.955
 7081POPC   C4A21810  11.326  17.535   7.655
 7081POPC   C1B21811  11.492  17.593   8.555
 7081POPC   C2B21812  11.509  17.572   8.255
 7081POPC   C3B21813  11.536  17.571   7.955
 7081POPC   C4B21814  11.495  17.585   7.655
 7082POPC   NC321815  35.336  19.038   9.455
 7082POPC   PO421816  35.349  19.056   9.155
 7082POPC   GL121817  35.366  19.077   8.855
 7082POPC   GL221818  35.420  19.196   8.855
 7082POPC   C1A21819  35.348  19.108   8.555
 7082POPC   D2A21820  35.377  19.093   8.255
 7082POPC   C3A21821  35.353  19.064   7.955
 7082POPC   C4A21822  35.400  19.050   7.655
 7082POPC   C1B21823  35.505  19.266   8.555
 7082POPC   C2B21824  35.453  19.268   8.255
 7082POPC   C3B21825  35.461  19.239   7.955
 7082POPC   C4B21826  35.479  19.256   7.655
 7083POPC   NC321827  43.848   3.530   9.455
 7083POPC   PO421828  43.888   3.582   9.155
 7083POPC   GL121829  43.934   3.502   8.855
 7083POPC   GL221830  43.991   3.467   8.855
 7083POPC   C1A21831  43.878   3.527   8.555
 7083POPC   D2A21832  43.934   3.506   8.255
 7083POPC   C3A21833  43.844   3.582   7.955
 7083POPC   C4A21834  43.932   3.536   7.655
 7083POPC   C1B21835  43.978   3.362   8.555
 7083POPC   C2B21836  44.073   3.355   8.255
 7083POPC   C3B21837  44.011   3.346   7.955
 7083POPC   C4B21838  44.015   3.384   7.655
 7084POPC   NC321839  29.949  34.544   9.455
 7084POPC   PO421840  29.945  34.595   9.155
 7084POPC   GL121841  29.965  34.578   8.855
 7084POPC   GL221842  29.806  34.604   8.855
 7084POPC   C1A21843  29.916  34.607   8.555
 7084POPC   D2A21844  29.883  34.528   8.255
 7084POPC   C3A21845  29.873  34.559   7.955
 7084POPC   C4A21846  29.886  34.619   7.655
 7084POPC   C1B21847  29.707  34.545   8.555
 7084POPC   C2B21848  29.710  34.574   8.255
 7084POPC   C3B21849  29.718  34.521   7.955
 7084POPC   C4B21850  29.705  34.529   7.655
 7085POPC   NC321851  30.652  29.937   9.455
 7085POPC   PO421852  30.723  29.951   9.155
 7085POPC   GL121853  30.674  29.882   8.855
 7085POPC   GL221854  30.591  29.985   8.855
 7085POPC   C1A21855  30.655  29.937   8.555
 7085POPC   D2A21856  30.662  29.884   8.255
 7085POPC   C3A21857  30.743  29.918   7.955
 7085POPC   C4A21858  30.657  29.964   7.655
 7085POPC   C1B21859  30.535  30.105   8.555
 7085POPC   C2B21860  30.500  30.141   8.255
 7085POPC   C3B21861  30.539  30.109   7.955
 7085POPC   C4B21862  30.479  30.104   7.655
 7086POPC   NC321863  18.284  15.950   9.455
 7086POPC   PO421864  18.326  15.939   9.155
 7086POPC   GL121865  18.328  15.967   8.855
 7086POPC   GL221866  18.323  16.057   8.855
 7086POPC   C1A21867  18.260  16.001   8.555
 7086POPC   D2A21868  18.252  15.959   8.255
 7086POPC   C3A21869  18.315  15.908   7.955
 7086POPC   C4A21870  18.266  15.972   7.655
 7086POPC   C1B21871  18.398  16.101   8.555
 7086POPC   C2B21872  18.409  16.124   8.255
 7086POPC   C3B21873  18.417  16.190   7.955
 7086POPC   C4B21874  18.422  16.117   7.655
 7087POPC   NC321875  19.034  44.698   9.455
 7087POPC   PO421876  19.106  44.708   9.155
 7087POPC   GL121877  19.102  44.629   8.855
 7087POPC   GL221878  19.187  44.782   8.855
 7087POPC   C1A21879  19.070  44.706   8.555
 7087POPC   D2A21880  19.078  44.698   8.255
 7087POPC   C3A21881  19.081  44.708   7.955
 7087POPC   C4A21882  19.035  44.708   7.655
 7087POPC   C1B21883  19.207  44.887   8.555
 7087POPC   C2B21884  19.201  44.876   8.255
 7087POPC   C3B21885  19.228  44.809   7.955
 7087POPC   C4B21886  19.173  44.876   7.655
 7088POPC   NC321887   0.431  14.358   9.455
 7088POPC   PO421888   0.437  14.410   9.155
 7088POPC   GL121889   0.476  14.399   8.855
 7088POPC   GL221890   0.349  14.410   8.855
 7088POPC   C1A21891   0.464  14.356   8.555
 7088POPC   D2A21892   0.483  14.363   8.255
 7088POPC   C3A21893   0.411  14.414   7.955
 7088POPC   C4A21894   0.448  14.428   7.655
 7088POPC   C1B21895   0.195  14.454   8.555
 7088POPC   C2B21896   0.233  14.374   8.255
 7088POPC   C3B21897   0.216  14.450   7.955
 7088POPC   C4B21898   0.173  14.439   7.655
 7089POPC   NC321899  26.090  10.483   9.455
 7089POPC   PO421900  26.086  10.547   9.155
 7089POPC   GL121901  26.030  10.507   8.855
 7089POPC   GL221902  25.959  10.427   8.855
 7089POPC   C1A21903  26.059  10.532   8.555
 7089POPC   D2A21904  26.075  10.491   8.255
 7089POPC   C3A21905  26.083  10.573   7.955
 7089POPC   C4A21906  26.052  10.508   7.655
 7089POPC   C1B21907  25.816  10.425   8.555
 7089POPC   C2B21908  25.854  10.396   8.255
 7089POPC   C3B21909  25.781  10.368   7.955
 7089POPC   C4B21910  25.841  10.359   7.655
 7090POPC   NC321911   5.828  44.683   9.455
 7090POPC   PO421912   5.888  44.614   9.155
 7090POPC   GL121913   5.888  44.621   8.855
 7090POPC   GL221914   5.893  44.797   8.855
 7090POPC   C1A21915   5.878  44.616   8.555
 7090POPC   D2A21916   5.820  44.704   8.255
 7090POPC   C3A21917   5.887  44.690   7.955
 7090POPC   C4A21918   5.872  44.702   7.655
 7090POPC   C1B21919   5.937  44.881   8.555
 7090POPC   C2B21920   5.979  44.835   8.255
 7090POPC   C3B21921   5.973  44.868   7.955
 7090POPC   C4B21922   5.995  44.843   7.655
 7091POPC   NC321923  37.662  29.174   9.455
 7091POPC   PO421924  37.659  29.133   9.155
 7091POPC   GL121925  37.699  29.175   8.855
 7091POPC   GL221926  37.715  29.021   8.855
 7091POPC   C1A21927  37.713  29.163   8.555
 7091POPC   D2A21928  37.689  29.145   8.255
 7091POPC   C3A21929  37.660  29.121   7.955
 7091POPC   C4A21930  37.638  29.158   7.655
 7091POPC   C1B21931  37.870  28.918   8.555
 7091POPC   C2B21932  37.775  28.906   8.255
 7091POPC   C3B21933  37.776  28.951   7.955
 7091POPC   C4B21934  37.837  28.926   7.655
 7092POPC   NC321935  32.285  19.081   9.455
 7092POPC   PO421936  32.283  19.107   9.155
 7092POPC   GL121937  32.249  19.045   8.855
 7092POPC   GL221938  32.375  19.099   8.855
 7092POPC   C1A21939  32.251  19.091   8.555
 7092POPC   D2A21940  32.279  19.051   8.255
 7092POPC   C3A21941  32.266  19.085   7.955
 7092POPC   C4A21942  32.272  19.026   7.655
 7092POPC   C1B21943  32.499  19.119   8.555
 7092POPC   C2B21944  32.463  19.073   8.255
 7092POPC   C3B21945  32.545  19.104   7.955
 7092POPC   C4B21946  32.502  19.109   7.655
 7093POPC   NC321947  19.846  19.816   9.455
 7093POPC   PO421948  19.824  19.788   9.155
 7093POPC   GL121949  19.861  19.814   8.855
 7093POPC   GL221950  19.917  19.802   8.855
 7093POPC   C1A21951  19.809  19.790   8.555
 7093POPC   D2A21952  19.874  19.792   8.255
 7093POPC   C3A21953  19.822  19.857   7.955
 7093POPC   C4A21954  19.847  19.881   7.655
 7093POPC   C1B21955  20.080  19.814   8.555
 7093POPC   C2B21956  20.054  19.871   8.255
 7093POPC   C3B21957  20.081  19.838   7.955
 7093POPC   C4B21958  20.063  19.863   7.655
 7094POPC   NC321959  13.626  19.833   9.455
 7094POPC   PO421960  13.637  19.802   9.155
 7094POPC   GL121961  13.630  19.810   8.855
 7094POPC   GL221962  13.716  19.829   8.855
 7094POPC   C1A21963  13.606  19.844   8.555
 7094POPC   D2A21964  13.622  19.824   8.255
 7094POPC   C3A21965  13.629  19.786   7.955
 7094POPC   C4A21966  13.652  19.859   7.655
 7094POPC   C1B21967  13.853  19.713   8.555
 7094POPC   C2B21968  13.885  19.777   8.255
 7094POPC   C3B21969  13.837  19.728   7.955
 7094POPC   C4B21970  13.876  19.782   7.655
 7095POPC   NC321971   7.430  44.640   9.455
 7095POPC   PO421972   7.440  44.699   9.155
 7095POPC   GL121973   7.438  44.632   8.855
 7095POPC   GL221974   7.509  44.544   8.855
 7095POPC   C1A21975   7.396  44.631   8.555
 7095POPC   D2A21976   7.443  44.638   8.255
 7095POPC   C3A21977   7.451  44.645   7.955
 7095POPC   C4A21978   7.434  44.638   7.655
 7095POPC   C1B21979   7.586  44.476   8.555
 7095POPC   C2B21980   7.657  44.476   8.255
 7095POPC   C3B21981   7.570  44.542   7.955
 7095POPC   C4B21982   7.638  44.498   7.655
 7096POPC   NC321983  33.004  41.541   9.455
 7096POPC   PO421984  33.011  41.512   9.155
 7096POPC   GL121985  33.026  41.608   8.855
 7096POPC   GL221986  33.179  41.506   8.855
 7096POPC   C1A21987  33.068  41.548   8.555
 7096POPC   D2A21988  33.058  41.593   8.255
 7096POPC   C3A21989  33.034  41.509   7.955
 7096POPC   C4A21990  33.062  41.589   7.655
 7096POPC   C1B21991  33.227  41.496   8.555
 7096POPC   C2B21992  33.281  41.446   8.255
 7096POPC   C3B21993  33.286  41.522   7.955
 7096POPC   C4B21994  33.265  41.471   7.655
 7097POPC   NC321995  39.280  21.384   9.455
 7097POPC   PO421996  39.259  21.387   9.155
 7097POPC   GL121997  39.211  21.420   8.855
 7097POPC   GL221998  39.239  21.291   8.855
 7097POPC   C1A21999  39.228  21.401   8.555
 7097POPC   D2A22000  39.250  21.426   8.255
 7097POPC   C3A22001  39.219  21.417   7.955
 7097POPC   C4A22002  39.265  21.343   7.655
 7097POPC   C1B22003  39.328  21.153   8.555
 7097POPC   C2B22004  39.350  21.165   8.255
 7097POPC   C3B22005  39.383  21.138   7.955
 7097POPC   C4B22006  39.308  21.187   7.655
 7098POPC   NC322007  30.656  37.658   9.455
 7098POPC   PO422008  30.706  37.641   9.155
 7098POPC   GL122009  30.732  37.678   8.855
 7098POPC   GL222010  30.583  37.759   8.855
 7098POPC   C1A22011  30.698  37.722   8.555
 7098POPC   D2A22012  30.660  37.638   8.255
 7098POPC   C3A22013  30.659  37.646   7.955
 7098POPC   C4A22014  30.650  37.661   7.655
 7098POPC   C1B22015  30.443  37.749   8.555
 7098POPC   C2B22016  30.441  37.748   8.255
 7098POPC   C3B22017  30.436  37.819   7.955
 7098POPC   C4B22018  30.511  37.812   7.655
 7099POPC   NC322019  12.832   0.478   9.455
 7099POPC   PO422020  12.873   0.430   9.155
 7099POPC   GL122021  12.837   0.407   8.855
 7099POPC   GL222022  12.786   0.540   8.855
 7099POPC   C1A22023  12.803   0.471   8.555
 7099POPC   D2A22024  12.810   0.471   8.255
 7099POPC   C3A22025  12.883   0.417   7.955
 7099POPC   C4A22026  12.870   0.463   7.655
 7099POPC   C1B22027  12.669   0.626   8.555
 7099POPC   C2B22028  12.683   0.605   8.255
 7099POPC   C3B22029  12.725   0.657   7.955
 7099POPC   C4B22030  12.727   0.649   7.655
 7100POPC   NC322031  29.893  22.169   9.455
 7100POPC   PO422032  29.961  22.169   9.155
 7100POPC   GL122033  29.949  22.125   8.855
 7100POPC   GL222034  30.078  22.106   8.855
 7100POPC   C1A22035  29.963  22.128   8.555
 7100POPC   D2A22036  29.913  22.150   8.255
 7100POPC   C3A22037  29.924  22.130   7.955
 7100POPC   C4A22038  29.946  22.176   7.655
 7100POPC   C1B22039  30.117  22.057   8.555
 7100POPC   C2B22040  30.156  22.066   8.255
 7100POPC   C3B22041  30.179  22.112   7.955
 7100POPC   C4B22042  30.195  22.106   7.655
 7101POPC   NC322043  10.493  43.154   9.455
 7101POPC   PO422044  10.485  43.159   9.155
 7101POPC   GL122045  10.509  43.063   8.855
 7101POPC   GL222046  10.628  43.143   8.855
 7101POPC   C1A22047  10.562  43.079   8.555
 7101POPC   D2A22048  10.541  43.095   8.255
 7101POPC   C3A22049  10.500  43.100   7.955
 7101POPC   C4A22050  10.529  43.130   7.655
 7101POPC   C1B22051  10.755  43.238   8.555
 7101POPC   C2B22052  10.796  43.176   8.255
 7101POPC   C3B22053  10.759  43.242   7.955
 7101POPC   C4B22054  10.792  43.196   7.655
 7102POPC   NC322055   6.625  30.676   9.455
 7102POPC   PO422056   6.673  30.666   9.155
 7102POPC   GL122057   6.600  30.707   8.855
 7102POPC   GL222058   6.718  30.584   8.855
 7102POPC   C1A22059   6.684  30.727   8.555
 7102POPC   D2A22060   6.634  30.746   8.255
 7102POPC   C3A22061   6.649  30.665   7.955
 7102POPC   C4A22062   6.674  30.692   7.655
 7102POPC   C1B22063   6.874  30.512   8.555
 7102POPC   C2B22064   6.854  30.574   8.255
 7102POPC   C3B22065   6.844  30.592   7.955
 7102POPC   C4B22066   6.883  30.553   7.655
 7103POPC   NC322067   4.277  19.085   9.455
 7103POPC   PO422068   4.311  19.057   9.155
 7103POPC   GL122069   4.357  19.083   8.855
 7103POPC   GL222070   4.398  19.093   8.855
 7103POPC   C1A22071   4.288  19.037   8.555
 7103POPC   D2A22072   4.315  19.016   8.255
 7103POPC   C3A22073   4.325  19.076   7.955
 7103POPC   C4A22074   4.332  19.058   7.655
 7103POPC   C1B22075   4.501  19.201   8.555
 7103POPC   C2B22076   4.506  19.188   8.255
 7103POPC   C3B22077   4.503  19.250   7.955
 7103POPC   C4B22078   4.561  19.175   7.655
 7104POPC   NC322079  13.599  38.414   9.455
 7104POPC   PO422080  13.591  38.459   9.155
 7104POPC   GL122081  13.615  38.443   8.855
 7104POPC   GL222082  13.710  38.444   8.855
 7104POPC   C1A22083  13.614  38.430   8.555
 7104POPC   D2A22084  13.609  38.488   8.255
 7104POPC   C3A22085  13.636  38.459   7.955
 7104POPC   C4A22086  13.583  38.468   7.655
 7104POPC   C1B22087  13.919  38.499   8.555
 7104POPC   C2B22088  13.886  38.494   8.255
 7104POPC   C3B22089  13.921  38.463   7.955
 7104POPC   C4B22090  13.918  38.423   7.655
 7105POPC   NC322091  35.385  32.280   9.455
 7105POPC   PO422092  35.365  32.230   9.155
 7105POPC   GL122093  35.337  32.210   8.855
 7105POPC   GL222094  35.217  32.216   8.855
 7105POPC   C1A22095  35.311  32.260   8.555
 7105POPC   D2A22096  35.353  32.201   8.255
 7105POPC   C3A22097  35.379  32.276   7.955
 7105POPC   C4A22098  35.322  32.201   7.655
 7105POPC   C1B22099  35.152  32.216   8.555
 7105POPC   C2B22100  35.116  32.173   8.255
 7105POPC   C3B22101  35.074  32.143   7.955
 7105POPC   C4B22102  35.157  32.180   7.655
 7106POPC   NC322103  15.942  40.030   9.455
 7106POPC   PO422104  15.948  39.991   9.155
 7106POPC   GL122105  15.929  40.008   8.855
 7106POPC   GL222106  15.927  40.135   8.855
 7106POPC   C1A22107  15.943  39.980   8.555
 7106POPC   D2A22108  15.937  39.982   8.255
 7106POPC   C3A22109  15.963  40.035   7.955
 7106POPC   C4A22110  15.931  40.003   7.655
 7106POPC   C1B22111  15.988  40.285   8.555
 7106POPC   C2B22112  15.971  40.218   8.255
 7106POPC   C3B22113  16.004  40.296   7.955
 7106POPC   C4B22114  15.947  40.248   7.655
 7107POPC   NC322115  24.486  12.887   9.455
 7107POPC   PO422116  24.466  12.824   9.155
 7107POPC   GL122117  24.527  12.895   8.855
 7107POPC   GL222118  24.542  12.990   8.855
 7107POPC   C1A22119  24.512  12.876   8.555
 7107POPC   D2A22120  24.505  12.856   8.255
 7107POPC   C3A22121  24.440  12.810   7.955
 7107POPC   C4A22122  24.466  12.861   7.655
 7107POPC   C1B22123  24.499  13.149   8.555
 7107POPC   C2B22124  24.505  13.129   8.255
 7107POPC   C3B22125  24.516  13.071   7.955
 7107POPC   C4B22126  24.497  13.108   7.655
 7108POPC   NC322127  23.671  12.107   9.455
 7108POPC   PO422128  23.704  12.083   9.155
 7108POPC   GL122129  23.727  12.121   8.855
 7108POPC   GL222130  23.677  11.910   8.855
 7108POPC   C1A22131  23.752  12.027   8.555
 7108POPC   D2A22132  23.706  12.111   8.255
 7108POPC   C3A22133  23.723  12.119   7.955
 7108POPC   C4A22134  23.721  12.076   7.655
 7108POPC   C1B22135  23.649  11.880   8.555
 7108POPC   C2B22136  23.643  11.786   8.255
 7108POPC   C3B22137  23.633  11.829   7.955
 7108POPC   C4B22138  23.667  11.840   7.655
 7109POPC   NC322139  35.375  17.551   9.455
 7109POPC   PO422140  35.343  17.530   9.155
 7109POPC   GL122141  35.321  17.531   8.855
 7109POPC   GL222142  35.496  17.549   8.855
 7109POPC   C1A22143  35.302  17.523   8.555
 7109POPC   D2A22144  35.381  17.491   8.255
 7109POPC   C3A22145  35.345  17.544   7.955
 7109POPC   C4A22146  35.346  17.537   7.655
 7109POPC   C1B22147  35.559  17.646   8.555
 7109POPC   C2B22148  35.575  17.599   8.255
 7109POPC   C3B22149  35.603  17.663   7.955
 7109POPC   C4B22150  35.556  17.644   7.655
 7110POPC   NC322151  18.263  42.382   9.455
 7110POPC   PO422152  18.255  42.368   9.155
 7110POPC   GL122153  18.291  42.301   8.855
 7110POPC   GL222154  18.171  42.308   8.855
 7110POPC   C1A22155  18.251  42.304   8.555
 7110POPC   D2A22156  18.276  42.345   8.255
 7110POPC   C3A22157  18.274  42.318   7.955
 7110POPC   C4A22158  18.254  42.300   7.655
 7110POPC   C1B22159  18.053  42.200   8.555
 7110POPC   C2B22160  18.097  42.215   8.255
 7110POPC   C3B22161  18.021  42.226   7.955
 7110POPC   C4B22162  18.010  42.266   7.655
 7111POPC   NC322163  13.660  26.771   9.455
 7111POPC   PO422164  13.669  26.779   9.155
 7111POPC   GL122165  13.626  26.798   8.855
 7111POPC   GL222166  13.540  26.873   8.855
 7111POPC   C1A22167  13.609  26.792   8.555
 7111POPC   D2A22168  13.609  26.830   8.255
 7111POPC   C3A22169  13.602  26.801   7.955
 7111POPC   C4A22170  13.649  26.835   7.655
 7111POPC   C1B22171  13.411  27.009   8.555
 7111POPC   C2B22172  13.391  27.017   8.255
 7111POPC   C3B22173  13.440  26.955   7.955
 7111POPC   C4B22174  13.457  26.935   7.655
 7112POPC   NC322175  33.838  40.001   9.455
 7112POPC   PO422176  33.773  39.963   9.155
 7112POPC   GL122177  33.772  39.964   8.855
 7112POPC   GL222178  33.966  40.075   8.855
 7112POPC   C1A22179  33.832  40.040   8.555
 7112POPC   D2A22180  33.835  39.971   8.255
 7112POPC   C3A22181  33.763  39.994   7.955
 7112POPC   C4A22182  33.827  39.960   7.655
 7112POPC   C1B22183  34.051  40.064   8.555
 7112POPC   C2B22184  34.050  40.100   8.255
 7112POPC   C3B22185  34.060  40.065   7.955
 7112POPC   C4B22186  34.020  40.066   7.655
 7113POPC   NC322187  22.985   1.211   9.455
 7113POPC   PO422188  22.953   1.197   9.155
 7113POPC   GL122189  22.923   1.218   8.855
 7113POPC   GL222190  22.999   1.144   8.855
 7113POPC   C1A22191  22.892   1.204   8.555
 7113POPC   D2A22192  22.928   1.234   8.255
 7113POPC   C3A22193  22.889   1.252   7.955
 7113POPC   C4A22194  22.930   1.194   7.655
 7113POPC   C1B22195  23.040   0.973   8.555
 7113POPC   C2B22196  22.989   1.011   8.255
 7113POPC   C3B22197  23.036   0.938   7.955
 7113POPC   C4B22198  23.026   1.021   7.655
 7114POPC   NC322199  43.122  19.084   9.455
 7114POPC   PO422200  43.085  19.044   9.155
 7114POPC   GL122201  43.067  19.059   8.855
 7114POPC   GL222202  43.219  19.192   8.855
 7114POPC   C1A22203  43.154  19.067   8.555
 7114POPC   D2A22204  43.072  19.045   8.255
 7114POPC   C3A22205  43.079  19.069   7.955
 7114POPC   C4A22206  43.099  19.083   7.655
 7114POPC   C1B22207  43.221  19.220   8.555
 7114POPC   C2B22208  43.297  19.311   8.255
 7114POPC   C3B22209  43.235  19.260   7.955
 7114POPC   C4B22210  43.269  19.315   7.655
 7115POPC   NC322211  19.020  30.675   9.455
 7115POPC   PO422212  19.071  30.722   9.155
 7115POPC   GL122213  19.041  30.683   8.855
 7115POPC   GL222214  18.921  30.750   8.855
 7115POPC   C1A22215  19.052  30.744   8.555
 7115POPC   D2A22216  19.088  30.667   8.255
 7115POPC   C3A22217  19.074  30.648   7.955
 7115POPC   C4A22218  19.090  30.704   7.655
 7115POPC   C1B22219  18.854  30.688   8.555
 7115POPC   C2B22220  18.765  30.694   8.255
 7115POPC   C3B22221  18.770  30.737   7.955
 7115POPC   C4B22222  18.804  30.696   7.655
 7116POPC   NC322223   4.280  40.013   9.455
 7116POPC   PO422224   4.271  39.963   9.155
 7116POPC   GL122225   4.286  39.968   8.855
 7116POPC   GL222226   4.258  40.054   8.855
 7116POPC   C1A22227   4.326  39.986   8.555
 7116POPC   D2A22228   4.307  40.008   8.255
 7116POPC   C3A22229   4.277  40.001   7.955
 7116POPC   C4A22230   4.364  39.987   7.655
 7116POPC   C1B22231   4.102  40.169   8.555
 7116POPC   C2B22232   4.090  40.107   8.255
 7116POPC   C3B22233   4.062  40.126   7.955
 7116POPC   C4B22234   4.155  40.171   7.655
 7117POPC   NC322235  16.700  31.439   9.455
 7117POPC   PO422236  16.741  31.488   9.155
 7117POPC   GL122237  16.718  31.467   8.855
 7117POPC   GL222238  16.593  31.571   8.855
 7117POPC   C1A22239  16.768  31.484   8.555
 7117POPC   D2A22240  16.781  31.472   8.255
 7117POPC   C3A22241  16.732  31.439   7.955
 7117POPC   C4A22242  16.762  31.517   7.655
 7117POPC   C1B22243  16.514  31.595   8.555
 7117POPC   C2B22244  16.561  31.616   8.255
 7117POPC   C3B22245  16.560  31.636   7.955
 7117POPC   C4B22246  16.494  31.649   7.655
 7118POPC   NC322247  19.060  25.218   9.455
 7118POPC   PO422248  19.035  25.292   9.155
 7118POPC   GL122249  19.059  25.305   8.855
 7118POPC   GL222250  19.062  25.440   8.855
 7118POPC   C1A22251  19.089  25.294   8.555
 7118POPC   D2A22252  19.068  25.250   8.255
 7118POPC   C3A22253  19.032  25.280   7.955
 7118POPC   C4A22254  19.017  25.231   7.655
 7118POPC   C1B22255  19.075  25.563   8.555
 7118POPC   C2B22256  19.033  25.553   8.255
 7118POPC   C3B22257  19.055  25.535   7.955
 7118POPC   C4B22258  19.106  25.516   7.655
 7119POPC   NC322259  19.805  12.891   9.455
 7119POPC   PO422260  19.875  12.824   9.155
 7119POPC   GL122261  19.883  12.833   8.855
 7119POPC   GL222262  19.941  12.989   8.855
 7119POPC   C1A22263  19.868  12.810   8.555
 7119POPC   D2A22264  19.851  12.846   8.255
 7119POPC   C3A22265  19.866  12.863   7.955
 7119POPC   C4A22266  19.846  12.832   7.655
 7119POPC   C1B22267  19.973  13.013   8.555
 7119POPC   C2B22268  20.041  13.005   8.255
 7119POPC   C3B22269  19.976  13.012   7.955
 7119POPC   C4B22270  20.050  13.068   7.655
 7120POPC   NC322271  25.229  10.495   9.455
 7120POPC   PO422272  25.243  10.562   9.155
 7120POPC   GL122273  25.262  10.548   8.855
 7120POPC   GL222274  25.263  10.643   8.855
 7120POPC   C1A22275  25.229  10.524   8.555
 7120POPC   D2A22276  25.286  10.567   8.255
 7120POPC   C3A22277  25.243  10.569   7.955
 7120POPC   C4A22278  25.242  10.521   7.655
 7120POPC   C1B22279  25.190  10.742   8.555
 7120POPC   C2B22280  25.164  10.730   8.255
 7120POPC   C3B22281  25.213  10.756   7.955
 7120POPC   C4B22282  25.220  10.749   7.655
 7121POPC   NC322283  22.897  43.845   9.455
 7121POPC   PO422284  22.891  43.924   9.155
 7121POPC   GL122285  22.987  43.918   8.855
 7121POPC   GL222286  22.848  43.923   8.855
 7121POPC   C1A22287  22.976  43.879   8.555
 7121POPC   D2A22288  22.925  43.861   8.255
 7121POPC   C3A22289  22.948  43.902   7.955
 7121POPC   C4A22290  22.969  43.901   7.655
 7121POPC   C1B22291  22.679  43.914   8.555
 7121POPC   C2B22292  22.707  43.902   8.255
 7121POPC   C3B22293  22.675  43.916   7.955
 7121POPC   C4B22294  22.661  43.882   7.655
 7122POPC   NC322295  25.244  44.647   9.455
 7122POPC   PO422296  25.260  44.695   9.155
 7122POPC   GL122297  25.278  44.624   8.855
 7122POPC   GL222298  25.346  44.508   8.855
 7122POPC   C1A22299  25.234  44.651   8.555
 7122POPC   D2A22300  25.247  44.647   8.255
 7122POPC   C3A22301  25.280  44.638   7.955
 7122POPC   C4A22302  25.244  44.682   7.655
 7122POPC   C1B22303  25.397  44.455   8.555
 7122POPC   C2B22304  25.331  44.463   8.255
 7122POPC   C3B22305  25.406  44.457   7.955
 7122POPC   C4B22306  25.379  44.398   7.655
 7123POPC   NC322307  36.936  10.494   9.455
 7123POPC   PO422308  36.953  10.506   9.155
 7123POPC   GL122309  36.891  10.478   8.855
 7123POPC   GL222310  36.961  10.445   8.855
 7123POPC   C1A22311  36.930  10.501   8.555
 7123POPC   D2A22312  36.883  10.551   8.255
 7123POPC   C3A22313  36.901  10.553   7.955
 7123POPC   C4A22314  36.864  10.531   7.655
 7123POPC   C1B22315  36.953  10.243   8.555
 7123POPC   C2B22316  36.891  10.303   8.255
 7123POPC   C3B22317  36.930  10.289   7.955
 7123POPC   C4B22318  36.936  10.235   7.655
 7124POPC   NC322319  15.200   1.232   9.455
 7124POPC   PO422320  15.176   1.168   9.155
 7124POPC   GL122321  15.144   1.169   8.855
 7124POPC   GL222322  15.342   1.187   8.855
 7124POPC   C1A22323  15.189   1.186   8.555
 7124POPC   D2A22324  15.219   1.258   8.255
 7124POPC   C3A22325  15.204   1.244   7.955
 7124POPC   C4A22326  15.161   1.169   7.655
 7124POPC   C1B22327  15.430   1.072   8.555
 7124POPC   C2B22328  15.403   1.084   8.255
 7124POPC   C3B22329  15.443   1.133   7.955
 7124POPC   C4B22330  15.372   1.092   7.655
 7125POPC   NC322331  26.791  42.304   9.455
 7125POPC   PO422332  26.799  42.311   9.155
 7125POPC   GL122333  26.795  42.371   8.855
 7125POPC   GL222334  26.689  42.345   8.855
 7125POPC   C1A22335  26.866  42.300   8.555
 7125POPC   D2A22336  26.851  42.331   8.255
 7125POPC   C3A22337  26.846  42.318   7.955
 7125POPC   C4A22338  26.779  42.339   7.655
 7125POPC   C1B22339  26.539  42.332   8.555
 7125POPC   C2B22340  26.576  42.379   8.255
 7125POPC   C3B22341  26.611  42.394   7.955
 7125POPC   C4B22342  26.545  42.349   7.655
 7126POPC   NC322343  17.461   0.441   9.455
 7126POPC   PO422344  17.523   0.455   9.155
 7126POPC   GL122345  17.530   0.426   8.855
 7126POPC   GL222346  17.426   0.300   8.855
 7126POPC   C1A22347  17.485   0.468   8.555
 7126POPC   D2A22348  17.553   0.400   8.255
 7126POPC   C3A22349  17.542   0.433   7.955
 7126POPC   C4A22350  17.551   0.480   7.655
 7126POPC   C1B22351  17.352   0.238   8.555
 7126POPC   C2B22352  17.435   0.233   8.255
 7126POPC   C3B22353  17.390   0.232   7.955
 7126POPC   C4B22354  17.366   0.237   7.655
 7127POPC   NC322355  36.085  25.233   9.455
 7127POPC   PO422356  36.129  25.233   9.155
 7127POPC   GL122357  36.174  25.217   8.855
 7127POPC   GL222358  36.120  25.188   8.855
 7127POPC   C1A22359  36.159  25.308   8.555
 7127POPC   D2A22360  36.127  25.234   8.255
 7127POPC   C3A22361  36.086  25.298   7.955
 7127POPC   C4A22362  36.176  25.277   7.655
 7127POPC   C1B22363  36.146  24.986   8.555
 7127POPC   C2B22364  36.206  25.062   8.255
 7127POPC   C3B22365  36.213  25.038   7.955
 7127POPC   C4B22366  36.165  25.019   7.655
 7128POPC   NC322367  10.503  13.618   9.455
 7128POPC   PO422368  10.523  13.622   9.155
 7128POPC   GL122369  10.537  13.585   8.855
 7128POPC   GL222370  10.435  13.738   8.855
 7128POPC   C1A22371  10.536  13.644   8.555
 7128POPC   D2A22372  10.498  13.647   8.255
 7128POPC   C3A22373  10.521  13.661   7.955
 7128POPC   C4A22374  10.513  13.580   7.655
 7128POPC   C1B22375  10.392  13.831   8.555
 7128POPC   C2B22376  10.337  13.788   8.255
 7128POPC   C3B22377  10.365  13.843   7.955
 7128POPC   C4B22378  10.409  13.842   7.655
 7129POPC   NC322379  20.633  41.605   9.455
 7129POPC   PO422380  20.585  41.557   9.155
 7129POPC   GL122381  20.627  41.562   8.855
 7129POPC   GL222382  20.745  41.618   8.855
 7129POPC   C1A22383  20.625  41.538   8.555
 7129POPC   D2A22384  20.629  41.517   8.255
 7129POPC   C3A22385  20.565  41.514   7.955
 7129POPC   C4A22386  20.624  41.543   7.655
 7129POPC   C1B22387  20.825  41.755   8.555
 7129POPC   C2B22388  20.770  41.750   8.255
 7129POPC   C3B22389  20.818  41.751   7.955
 7129POPC   C4B22390  20.766  41.666   7.655
 7130POPC   NC322391  36.887  19.058   9.455
 7130POPC   PO422392  36.920  19.099   9.155
 7130POPC   GL122393  36.880  19.023   8.855
 7130POPC   GL222394  36.810  19.023   8.855
 7130POPC   C1A22395  36.873  19.091   8.555
 7130POPC   D2A22396  36.887  19.059   8.255
 7130POPC   C3A22397  36.858  19.080   7.955
 7130POPC   C4A22398  36.874  19.018   7.655
 7130POPC   C1B22399  36.754  18.866   8.555
 7130POPC   C2B22400  36.755  18.926   8.255
 7130POPC   C3B22401  36.762  18.913   7.955
 7130POPC   C4B22402  36.701  18.864   7.655
 7131POPC   NC322403  14.450  12.057   9.455
 7131POPC   PO422404  14.447  12.099   9.155
 7131POPC   GL122405  14.383  12.046   8.855
 7131POPC   GL222406  14.276  12.136   8.855
 7131POPC   C1A22407  14.437  12.032   8.555
 7131POPC   D2A22408  14.363  12.123   8.255
 7131POPC   C3A22409  14.430  12.065   7.955
 7131POPC   C4A22410  14.438  12.120   7.655
 7131POPC   C1B22411  14.198  12.218   8.555
 7131POPC   C2B22412  14.238  12.212   8.255
 7131POPC   C3B22413  14.207  12.254   7.955
 7131POPC   C4B22414  14.253  12.285   7.655
 7132POPC   NC322415  16.692  16.001   9.455
 7132POPC   PO422416  16.709  15.947   9.155
 7132POPC   GL122417  16.688  15.972   8.855
 7132POPC   GL222418  16.897  15.894   8.855
 7132POPC   C1A22419  16.777  15.927   8.555
 7132POPC   D2A22420  16.696  15.938   8.255
 7132POPC   C3A22421  16.780  15.915   7.955
 7132POPC   C4A22422  16.740  15.980   7.655
 7132POPC   C1B22423  16.941  15.838   8.555
 7132POPC   C2B22424  16.962  15.885   8.255
 7132POPC   C3B22425  16.988  15.878   7.955
 7132POPC   C4B22426  16.961  15.819   7.655
 7133POPC   NC322427  14.449  27.581   9.455
 7133POPC   PO422428  14.359  27.615   9.155
 7133POPC   GL122429  14.416  27.623   8.855
 7133POPC   GL222430  14.323  27.746   8.855
 7133POPC   C1A22431  14.426  27.566   8.555
 7133POPC   D2A22432  14.372  27.623   8.255
 7133POPC   C3A22433  14.447  27.615   7.955
 7133POPC   C4A22434  14.403  27.582   7.655
 7133POPC   C1B22435  14.265  27.776   8.555
 7133POPC   C2B22436  14.322  27.826   8.255
 7133POPC   C3B22437  14.306  27.773   7.955
 7133POPC   C4B22438  14.275  27.775   7.655
 7134POPC   NC322439   7.380  22.954   9.455
 7134POPC   PO422440   7.425  22.917   9.155
 7134POPC   GL122441   7.396  22.987   8.855
 7134POPC   GL222442   7.419  22.821   8.855
 7134POPC   C1A22443   7.432  22.963   8.555
 7134POPC   D2A22444   7.418  22.960   8.255
 7134POPC   C3A22445   7.419  22.903   7.955
 7134POPC   C4A22446   7.461  22.934   7.655
 7134POPC   C1B22447   7.485  22.670   8.555
 7134POPC   C2B22448   7.453  22.678   8.255
 7134POPC   C3B22449   7.460  22.733   7.955
 7134POPC   C4B22450   7.473  22.694   7.655
 7135POPC   NC322451  32.215  19.849   9.455
 7135POPC   PO422452  32.200  19.842   9.155
 7135POPC   GL122453  32.211  19.790   8.855
 7135POPC   GL222454  32.376  19.837   8.855
 7135POPC   C1A22455  32.253  19.861   8.555
 7135POPC   D2A22456  32.225  19.876   8.255
 7135POPC   C3A22457  32.288  19.840   7.955
 7135POPC   C4A22458  32.222  19.800   7.655
 7135POPC   C1B22459  32.445  19.958   8.555
 7135POPC   C2B22460  32.496  19.968   8.255
 7135POPC   C3B22461  32.471  19.891   7.955
 7135POPC   C4B22462  32.435  19.888   7.655
 7136POPC   NC322463  16.741  33.809   9.455
 7136POPC   PO422464  16.777  33.832   9.155
 7136POPC   GL122465  16.764  33.796   8.855
 7136POPC   GL222466  16.758  33.958   8.855
 7136POPC   C1A22467  16.767  33.804   8.555
 7136POPC   D2A22468  16.689  33.835   8.255
 7136POPC   C3A22469  16.690  33.805   7.955
 7136POPC   C4A22470  16.763  33.821   7.655
 7136POPC   C1B22471  16.691  34.003   8.555
 7136POPC   C2B22472  16.732  34.085   8.255
 7136POPC   C3B22473  16.691  34.095   7.955
 7136POPC   C4B22474  16.682  34.077   7.655
 7137POPC   NC322475  28.416  36.862   9.455
 7137POPC   PO422476  28.361  36.938   9.155
 7137POPC   GL122477  28.347  36.859   8.855
 7137POPC   GL222478  28.478  36.792   8.855
 7137POPC   C1A22479  28.394  36.876   8.555
 7137POPC   D2A22480  28.416  36.879   8.255
 7137POPC   C3A22481  28.382  36.854   7.955
 7137POPC   C4A22482  28.329  36.930   7.655
 7137POPC   C1B22483  28.465  36.728   8.555
 7137POPC   C2B22484  28.469  36.661   8.255
 7137POPC   C3B22485  28.542  36.653   7.955
 7137POPC   C4B22486  28.461  36.658   7.655
 7138POPC   NC322487  42.315   1.192   9.455
 7138POPC   PO422488  42.301   1.183   9.155
 7138POPC   GL122489  42.343   1.200   8.855
 7138POPC   GL222490  42.307   1.372   8.855
 7138POPC   C1A22491  42.327   1.197   8.555
 7138POPC   D2A22492  42.300   1.263   8.255
 7138POPC   C3A22493  42.355   1.236   7.955
 7138POPC   C4A22494  42.347   1.249   7.655
 7138POPC   C1B22495  42.215   1.448   8.555
 7138POPC   C2B22496  42.277   1.427   8.255
 7138POPC   C3B22497  42.267   1.467   7.955
 7138POPC   C4B22498  42.277   1.402   7.655
 7139POPC   NC322499  31.506  10.490   9.455
 7139POPC   PO422500  31.477  10.537   9.155
 7139POPC   GL122501  31.469  10.497   8.855
 7139POPC   GL222502  31.488  10.631   8.855
 7139POPC   C1A22503  31.500  10.569   8.555
 7139POPC   D2A22504  31.465  10.561   8.255
 7139POPC   C3A22505  31.455  10.524   7.955
 7139POPC   C4A22506  31.507  10.522   7.655
 7139POPC   C1B22507  31.551  10.722   8.555
 7139POPC   C2B22508  31.515  10.722   8.255
 7139POPC   C3B22509  31.541  10.769   7.955
 7139POPC   C4B22510  31.506  10.787   7.655
 7140POPC   NC322511  26.841   6.613   9.455
 7140POPC   PO422512  26.864   6.607   9.155
 7140POPC   GL122513  26.784   6.685   8.855
 7140POPC   GL222514  26.717   6.566   8.855
 7140POPC   C1A22515  26.835   6.645   8.555
 7140POPC   D2A22516  26.866   6.663   8.255
 7140POPC   C3A22517  26.814   6.686   7.955
 7140POPC   C4A22518  26.802   6.599   7.655
 7140POPC   C1B22519  26.618   6.608   8.555
 7140POPC   C2B22520  26.583   6.590   8.255
 7140POPC   C3B22521  26.567   6.540   7.955
 7140POPC   C4B22522  26.560   6.536   7.655
 7141POPC   NC322523  33.762   5.858   9.455
 7141POPC   PO422524  33.815   5.834   9.155
 7141POPC   GL122525  33.765   5.833   8.855
 7141POPC   GL222526  33.854   6.038   8.855
 7141POPC   C1A22527  33.754   5.865   8.555
 7141POPC   D2A22528  33.846   5.911   8.255
 7141POPC   C3A22529  33.760   5.885   7.955
 7141POPC   C4A22530  33.791   5.825   7.655
 7141POPC   C1B22531  33.888   6.077   8.555
 7141POPC   C2B22532  33.892   6.116   8.255
 7141POPC   C3B22533  33.916   6.065   7.955
 7141POPC   C4B22534  33.915   6.111   7.655
 7142POPC   NC322535  17.461  25.252   9.455
 7142POPC   PO422536  17.517  25.223   9.155
 7142POPC   GL122537  17.481  25.219   8.855
 7142POPC   GL222538  17.635  25.247   8.855
 7142POPC   C1A22539  17.497  25.309   8.555
 7142POPC   D2A22540  17.489  25.226   8.255
 7142POPC   C3A22541  17.529  25.259   7.955
 7142POPC   C4A22542  17.509  25.262   7.655
 7142POPC   C1B22543  17.794  25.237   8.555
 7142POPC   C2B22544  17.778  25.292   8.255
 7142POPC   C3B22545  17.716  25.227   7.955
 7142POPC   C4B22546  17.714  25.221   7.655
 7143POPC   NC322547   2.810  10.506   9.455
 7143POPC   PO422548   2.782  10.492   9.155
 7143POPC   GL122549   2.754  10.519   8.855
 7143POPC   GL222550   2.913  10.479   8.855
 7143POPC   C1A22551   2.779  10.491   8.555
 7143POPC   D2A22552   2.796  10.532   8.255
 7143POPC   C3A22553   2.745  10.502   7.955
 7143POPC   C4A22554   2.760  10.543   7.655
 7143POPC   C1B22555   3.048  10.474   8.555
 7143POPC   C2B22556   2.993  10.544   8.255
 7143POPC   C3B22557   3.035  10.534   7.955
 7143POPC   C4B22558   2.980  10.558   7.655
 7144POPC   NC322559  18.283  12.034   9.455
 7144POPC   PO422560  18.269  12.089   9.155
 7144POPC   GL122561  18.256  12.116   8.855
 7144POPC   GL222562  18.210  11.988   8.855
 7144POPC   C1A22563  18.318  12.072   8.555
 7144POPC   D2A22564  18.262  12.032   8.255
 7144POPC   C3A22565  18.320  12.062   7.955
 7144POPC   C4A22566  18.253  12.028   7.655
 7144POPC   C1B22567  18.253  11.819   8.555
 7144POPC   C2B22568  18.175  11.804   8.255
 7144POPC   C3B22569  18.196  11.808   7.955
 7144POPC   C4B22570  18.217  11.796   7.655
 7145POPC   NC322571  19.846   2.733   9.455
 7145POPC   PO422572  19.824   2.813   9.155
 7145POPC   GL122573  19.796   2.746   8.855
 7145POPC   GL222574  19.857   2.834   8.855
 7145POPC   C1A22575  19.867   2.800   8.555
 7145POPC   D2A22576  19.850   2.745   8.255
 7145POPC   C3A22577  19.794   2.751   7.955
 7145POPC   C4A22578  19.803   2.723   7.655
 7145POPC   C1B22579  19.945   3.012   8.555
 7145POPC   C2B22580  19.905   2.992   8.255
 7145POPC   C3B22581  19.872   2.968   7.955
 7145POPC   C4B22582  19.884   3.025   7.655
 7146POPC   NC322583  16.692  29.910   9.455
 7146POPC   PO422584  16.773  29.934   9.155
 7146POPC   GL122585  16.711  29.916   8.855
 7146POPC   GL222586  16.592  29.871   8.855
 7146POPC   C1A22587  16.757  29.908   8.555
 7146POPC   D2A22588  16.774  29.948   8.255
 7146POPC   C3A22589  16.683  29.931   7.955
 7146POPC   C4A22590  16.734  29.961   7.655
 7146POPC   C1B22591  16.526  29.750   8.555
 7146POPC   C2B22592  16.546  29.805   8.255
 7146POPC   C3B22593  16.534  29.836   7.955
 7146POPC   C4B22594  16.505  29.765   7.655
 7147POPC   NC322595  35.303  36.135   9.455
 7147POPC   PO422596  35.366  36.124   9.155
 7147POPC   GL122597  35.392  36.167   8.855
 7147POPC   GL222598  35.490  36.175   8.855
 7147POPC   C1A22599  35.344  36.099   8.555
 7147POPC   D2A22600  35.381  36.085   8.255
 7147POPC   C3A22601  35.358  36.173   7.955
 7147POPC   C4A22602  35.350  36.079   7.655
 7147POPC   C1B22603  35.640  36.140   8.555
 7147POPC   C2B22604  35.604  36.109   8.255
 7147POPC   C3B22605  35.600  36.088   7.955
 7147POPC   C4B22606  35.584  36.080   7.655
 7148POPC   NC322607  22.897  43.086   9.455
 7148POPC   PO422608  22.941  43.090   9.155
 7148POPC   GL122609  22.926  43.157   8.855
 7148POPC   GL222610  22.867  43.013   8.855
 7148POPC   C1A22611  22.941  43.078   8.555
 7148POPC   D2A22612  22.987  43.104   8.255
 7148POPC   C3A22613  22.952  43.148   7.955
 7148POPC   C4A22614  22.904  43.101   7.655
 7148POPC   C1B22615  22.755  42.964   8.555
 7148POPC   C2B22616  22.690  42.966   8.255
 7148POPC   C3B22617  22.764  43.010   7.955
 7148POPC   C4B22618  22.673  42.995   7.655
 7149POPC   NC322619  31.453  14.431   9.455
 7149POPC   PO422620  31.426  14.425   9.155
 7149POPC   GL122621  31.456  14.377   8.855
 7149POPC   GL222622  31.364  14.370   8.855
 7149POPC   C1A22623  31.453  14.414   8.555
 7149POPC   D2A22624  31.499  14.408   8.255
 7149POPC   C3A22625  31.439  14.371   7.955
 7149POPC   C4A22626  31.493  14.433   7.655
 7149POPC   C1B22627  31.259  14.286   8.555
 7149POPC   C2B22628  31.230  14.240   8.255
 7149POPC   C3B22629  31.231  14.239   7.955
 7149POPC   C4B22630  31.231  14.282   7.655
 7150POPC   NC322631   5.125  29.895   9.455
 7150POPC   PO422632   5.125  29.952   9.155
 7150POPC   GL122633   5.136  29.873   8.855
 7150POPC   GL222634   5.149  29.806   8.855
 7150POPC   C1A22635   5.085  29.945   8.555
 7150POPC   D2A22636   5.058  29.943   8.255
 7150POPC   C3A22637   5.096  29.878   7.955
 7150POPC   C4A22638   5.074  29.935   7.655
 7150POPC   C1B22639   5.202  29.716   8.555
 7150POPC   C2B22640   5.254  29.740   8.255
 7150POPC   C3B22641   5.195  29.690   7.955
 7150POPC   C4B22642   5.214  29.744   7.655
 7151POPC   NC322643  36.899  15.928   9.455
 7151POPC   PO422644  36.872  15.910   9.155
 7151POPC   GL122645  36.941  15.911   8.855
 7151POPC   GL222646  36.823  15.907   8.855
 7151POPC   C1A22647  36.864  15.954   8.555
 7151POPC   D2A22648  36.867  15.914   8.255
 7151POPC   C3A22649  36.862  15.988   7.955
 7151POPC   C4A22650  36.915  15.994   7.655
 7151POPC   C1B22651  36.696  15.944   8.555
 7151POPC   C2B22652  36.623  15.912   8.255
 7151POPC   C3B22653  36.654  15.981   7.955
 7151POPC   C4B22654  36.654  15.905   7.655
 7152POPC   NC322655   2.793  33.799   9.455
 7152POPC   PO422656   2.775  33.839   9.155
 7152POPC   GL122657   2.782  33.837   8.855
 7152POPC   GL222658   2.770  33.702   8.855
 7152POPC   C1A22659   2.805  33.811   8.555
 7152POPC   D2A22660   2.773  33.768   8.255
 7152POPC   C3A22661   2.796  33.761   7.955
 7152POPC   C4A22662   2.785  33.761   7.655
 7152POPC   C1B22663   2.674  33.545   8.555
 7152POPC   C2B22664   2.699  33.593   8.255
 7152POPC   C3B22665   2.632  33.596   7.955
 7152POPC   C4B22666   2.724  33.527   7.655
 7153POPC   NC322667  37.677  17.468   9.455
 7153POPC   PO422668  37.715  17.496   9.155
 7153POPC   GL122669  37.638  17.485   8.855
 7153POPC   GL222670  37.761  17.611   8.855
 7153POPC   C1A22671  37.696  17.493   8.555
 7153POPC   D2A22672  37.667  17.504   8.255
 7153POPC   C3A22673  37.723  17.548   7.955
 7153POPC   C4A22674  37.715  17.464   7.655
 7153POPC   C1B22675  37.720  17.709   8.555
 7153POPC   C2B22676  37.766  17.732   8.255
 7153POPC   C3B22677  37.776  17.734   7.955
 7153POPC   C4B22678  37.770  17.749   7.655
 7154POPC   NC322679  22.187  24.440   9.455
 7154POPC   PO422680  22.115  24.455   9.155
 7154POPC   GL122681  22.141  24.502   8.855
 7154POPC   GL222682  22.175  24.646   8.855
 7154POPC   C1A22683  22.203  24.532   8.555
 7154POPC   D2A22684  22.174  24.498   8.255
 7154POPC   C3A22685  22.176  24.522   7.955
 7154POPC   C4A22686  22.184  24.442   7.655
 7154POPC   C1B22687  22.197  24.744   8.555
 7154POPC   C2B22688  22.160  24.737   8.255
 7154POPC   C3B22689  22.222  24.718   7.955
 7154POPC   C4B22690  22.233  24.733   7.655
 7155POPC   NC322691  19.025   3.550   9.455
 7155POPC   PO422692  19.103   3.581   9.155
 7155POPC   GL122693  19.048   3.587   8.855
 7155POPC   GL222694  19.090   3.421   8.855
 7155POPC   C1A22695  19.011   3.522   8.555
 7155POPC   D2A22696  19.089   3.533   8.255
 7155POPC   C3A22697  19.038   3.511   7.955
 7155POPC   C4A22698  19.086   3.534   7.655
 7155POPC   C1B22699  19.187   3.288   8.555
 7155POPC   C2B22700  19.155   3.331   8.255
 7155POPC   C3B22701  19.196   3.348   7.955
 7155POPC   C4B22702  19.153   3.304   7.655
 7156POPC   NC322703  27.627  42.306   9.455
 7156POPC   PO422704  27.643  42.372   9.155
 7156POPC   GL122705  27.610  42.350   8.855
 7156POPC   GL222706  27.521  42.415   8.855
 7156POPC   C1A22707  27.589  42.335   8.555
 7156POPC   D2A22708  27.625  42.296   8.255
 7156POPC   C3A22709  27.592  42.310   7.955
 7156POPC   C4A22710  27.572  42.332   7.655
 7156POPC   C1B22711  27.411  42.441   8.555
 7156POPC   C2B22712  27.355  42.495   8.255
 7156POPC   C3B22713  27.346  42.442   7.955
 7156POPC   C4B22714  27.394  42.448   7.655
 7157POPC   NC322715  17.509  35.400   9.455
 7157POPC   PO422716  17.472  35.363   9.155
 7157POPC   GL122717  17.529  35.353   8.855
 7157POPC   GL222718  17.497  35.457   8.855
 7157POPC   C1A22719  17.554  35.344   8.555
 7157POPC   D2A22720  17.554  35.401   8.255
 7157POPC   C3A22721  17.457  35.310   7.955
 7157POPC   C4A22722  17.536  35.377   7.655
 7157POPC   C1B22723  17.480  35.618   8.555
 7157POPC   C2B22724  17.467  35.568   8.255
 7157POPC   C3B22725  17.541  35.638   7.955
 7157POPC   C4B22726  17.531  35.558   7.655
 7158POPC   NC322727  37.699  33.779   9.455
 7158POPC   PO422728  37.679  33.798   9.155
 7158POPC   GL122729  37.668  33.843   8.855
 7158POPC   GL222730  37.563  33.808   8.855
 7158POPC   C1A22731  37.659  33.837   8.555
 7158POPC   D2A22732  37.679  33.771   8.255
 7158POPC   C3A22733  37.633  33.786   7.955
 7158POPC   C4A22734  37.663  33.805   7.655
 7158POPC   C1B22735  37.457  33.808   8.555
 7158POPC   C2B22736  37.405  33.860   8.255
 7158POPC   C3B22737  37.440  33.852   7.955
 7158POPC   C4B22738  37.438  33.860   7.655
 7159POPC   NC322739  33.815   4.291   9.455
 7159POPC   PO422740  33.818   4.309   9.155
 7159POPC   GL122741  33.774   4.335   8.855
 7159POPC   GL222742  33.898   4.354   8.855
 7159POPC   C1A22743  33.777   4.302   8.555
 7159POPC   D2A22744  33.765   4.320   8.255
 7159POPC   C3A22745  33.796   4.329   7.955
 7159POPC   C4A22746  33.819   4.324   7.655
 7159POPC   C1B22747  34.083   4.305   8.555
 7159POPC   C2B22748  34.053   4.307   8.255
 7159POPC   C3B22749  34.051   4.255   7.955
 7159POPC   C4B22750  34.009   4.312   7.655
 7160POPC   NC322751   8.942   1.189   9.455
 7160POPC   PO422752   8.967   1.256   9.155
 7160POPC   GL122753   9.013   1.220   8.855
 7160POPC   GL222754   9.059   1.134   8.855
 7160POPC   C1A22755   8.944   1.254   8.555
 7160POPC   D2A22756   8.987   1.258   8.255
 7160POPC   C3A22757   8.951   1.243   7.955
 7160POPC   C4A22758   8.956   1.238   7.655
 7160POPC   C1B22759   9.195   1.041   8.555
 7160POPC   C2B22760   9.164   1.100   8.255
 7160POPC   C3B22761   9.164   1.056   7.955
 7160POPC   C4B22762   9.162   1.059   7.655
 7161POPC   NC322763  34.585  43.107   9.455
 7161POPC   PO422764  34.562  43.145   9.155
 7161POPC   GL122765  34.581  43.147   8.855
 7161POPC   GL222766  34.488  43.036   8.855
 7161POPC   C1A22767  34.573  43.117   8.555
 7161POPC   D2A22768  34.592  43.142   8.255
 7161POPC   C3A22769  34.577  43.118   7.955
 7161POPC   C4A22770  34.593  43.091   7.655
 7161POPC   C1B22771  34.495  42.906   8.555
 7161POPC   C2B22772  34.459  42.892   8.255
 7161POPC   C3B22773  34.480  42.863   7.955
 7161POPC   C4B22774  34.454  42.866   7.655
 7162POPC   NC322775  26.007  29.881   9.455
 7162POPC   PO422776  26.041  29.936   9.155
 7162POPC   GL122777  26.014  29.943   8.855
 7162POPC   GL222778  26.050  30.001   8.855
 7162POPC   C1A22779  26.012  29.885   8.555
 7162POPC   D2A22780  26.074  29.936   8.255
 7162POPC   C3A22781  26.040  29.947   7.955
 7162POPC   C4A22782  26.031  29.886   7.655
 7162POPC   C1B22783  26.144  30.180   8.555
 7162POPC   C2B22784  26.165  30.149   8.255
 7162POPC   C3B22785  26.094  30.144   7.955
 7162POPC   C4B22786  26.084  30.170   7.655
 7163POPC   NC322787  39.237   9.769   9.455
 7163POPC   PO422788  39.251   9.777   9.155
 7163POPC   GL122789  39.261   9.796   8.855
 7163POPC   GL222790  39.343   9.822   8.855
 7163POPC   C1A22791  39.251   9.775   8.555
 7163POPC   D2A22792  39.218   9.724   8.255
 7163POPC   C3A22793  39.249   9.783   7.955
 7163POPC   C4A22794  39.245   9.724   7.655
 7163POPC   C1B22795  39.336   9.958   8.555
 7163POPC   C2B22796  39.337   9.941   8.255
 7163POPC   C3B22797  39.401   9.985   7.955
 7163POPC   C4B22798  39.385   9.972   7.655
 7164POPC   NC322799   3.570  29.176   9.455
 7164POPC   PO422800   3.585  29.101   9.155
 7164POPC   GL122801   3.550  29.101   8.855
 7164POPC   GL222802   3.591  29.269   8.855
 7164POPC   C1A22803   3.557  29.112   8.555
 7164POPC   D2A22804   3.550  29.103   8.255
 7164POPC   C3A22805   3.506  29.102   7.955
 7164POPC   C4A22806   3.536  29.145   7.655
 7164POPC   C1B22807   3.679  29.408   8.555
 7164POPC   C2B22808   3.612  29.330   8.255
 7164POPC   C3B22809   3.629  29.395   7.955
 7164POPC   C4B22810   3.692  29.375   7.655
 7165POPC   NC322811   8.957  36.884   9.455
 7165POPC   PO422812   8.934  36.869   9.155
 7165POPC   GL122813   9.011  36.917   8.855
 7165POPC   GL222814   8.954  36.792   8.855
 7165POPC   C1A22815   8.983  36.868   8.555
 7165POPC   D2A22816   8.939  36.942   8.255
 7165POPC   C3A22817   9.016  36.923   7.955
 7165POPC   C4A22818   8.937  36.858   7.655
 7165POPC   C1B22819   8.892  36.712   8.555
 7165POPC   C2B22820   8.899  36.626   8.255
 7165POPC   C3B22821   8.838  36.618   7.955
 7165POPC   C4B22822   8.927  36.682   7.655
 7166POPC   NC322823  36.162  18.239   9.455
 7166POPC   PO422824  36.172  18.268   9.155
 7166POPC   GL122825  36.083  18.320   8.855
 7166POPC   GL222826  36.111  18.423   8.855
 7166POPC   C1A22827  36.129  18.283   8.555
 7166POPC   D2A22828  36.083  18.267   8.255
 7166POPC   C3A22829  36.111  18.314   7.955
 7166POPC   C4A22830  36.159  18.271   7.655
 7166POPC   C1B22831  36.195  18.508   8.555
 7166POPC   C2B22832  36.193  18.554   8.255
 7166POPC   C3B22833  36.149  18.504   7.955
 7166POPC   C4B22834  36.226  18.530   7.655
 7167POPC   NC322835   9.784  21.432   9.455
 7167POPC   PO422836   9.749  21.407   9.155
 7167POPC   GL122837   9.714  21.415   8.855
 7167POPC   GL222838   9.897  21.351   8.855
 7167POPC   C1A22839   9.711  21.435   8.555
 7167POPC   D2A22840   9.707  21.376   8.255
 7167POPC   C3A22841   9.754  21.398   7.955
 7167POPC   C4A22842   9.745  21.406   7.655
 7167POPC   C1B22843   9.929  21.265   8.555
 7167POPC   C2B22844   9.976  21.240   8.255
 7167POPC   C3B22845   9.945  21.234   7.955
 7167POPC   C4B22846   9.985  21.202   7.655
 7168POPC   NC322847  40.738  18.332   9.455
 7168POPC   PO422848  40.766  18.256   9.155
 7168POPC   GL122849  40.809  18.262   8.855
 7168POPC   GL222850  40.923  18.229   8.855
 7168POPC   C1A22851  40.743  18.306   8.555
 7168POPC   D2A22852  40.820  18.290   8.255
 7168POPC   C3A22853  40.775  18.272   7.955
 7168POPC   C4A22854  40.760  18.325   7.655
 7168POPC   C1B22855  40.925  18.078   8.555
 7168POPC   C2B22856  40.920  18.103   8.255
 7168POPC   C3B22857  40.959  18.160   7.955
 7168POPC   C4B22858  40.941  18.072   7.655
 7169POPC   NC322859  31.482  30.699   9.455
 7169POPC   PO422860  31.518  30.654   9.155
 7169POPC   GL122861  31.473  30.651   8.855
 7169POPC   GL222862  31.518  30.800   8.855
 7169POPC   C1A22863  31.515  30.727   8.555
 7169POPC   D2A22864  31.502  30.703   8.255
 7169POPC   C3A22865  31.480  30.696   7.955
 7169POPC   C4A22866  31.460  30.685   7.655
 7169POPC   C1B22867  31.602  30.830   8.555
 7169POPC   C2B22868  31.675  30.922   8.255
 7169POPC   C3B22869  31.668  30.897   7.955
 7169POPC   C4B22870  31.685  30.856   7.655
 7170POPC   NC322871   4.300  44.618   9.455
 7170POPC   PO422872   4.348  44.696   9.155
 7170POPC   GL122873   4.296  44.661   8.855
 7170POPC   GL222874   4.380  44.811   8.855
 7170POPC   C1A22875   4.312  44.680   8.555
 7170POPC   D2A22876   4.272  44.705   8.255
 7170POPC   C3A22877   4.311  44.685   7.955
 7170POPC   C4A22878   4.352  44.687   7.655
 7170POPC   C1B22879   4.438  44.890   8.555
 7170POPC   C2B22880   4.442  44.897   8.255
 7170POPC   C3B22881   4.487  44.863   7.955
 7170POPC   C4B22882   4.442  44.879   7.655
 7171POPC   NC322883  28.384  38.439   9.455
 7171POPC   PO422884  28.327  38.504   9.155
 7171POPC   GL122885  28.362  38.430   8.855
 7171POPC   GL222886  28.531  38.432   8.855
 7171POPC   C1A22887  28.397  38.477   8.555
 7171POPC   D2A22888  28.370  38.406   8.255
 7171POPC   C3A22889  28.374  38.451   7.955
 7171POPC   C4A22890  28.382  38.424   7.655
 7171POPC   C1B22891  28.640  38.438   8.555
 7171POPC   C2B22892  28.564  38.384   8.255
 7171POPC   C3B22893  28.620  38.394   7.955
 7171POPC   C4B22894  28.563  38.435   7.655
 7172POPC   NC322895  32.999  38.406   9.455
 7172POPC   PO422896  33.022  38.498   9.155
 7172POPC   GL122897  32.988  38.497   8.855
 7172POPC   GL222898  32.994  38.375   8.855
 7172POPC   C1A22899  33.068  38.463   8.555
 7172POPC   D2A22900  33.061  38.502   8.255
 7172POPC   C3A22901  33.069  38.409   7.955
 7172POPC   C4A22902  33.063  38.481   7.655
 7172POPC   C1B22903  32.925  38.182   8.555
 7172POPC   C2B22904  32.905  38.254   8.255
 7172POPC   C3B22905  32.905  38.225   7.955
 7172POPC   C4B22906  32.940  38.261   7.655
 7173POPC   NC322907  38.483  26.820   9.455
 7173POPC   PO422908  38.490  26.767   9.155
 7173POPC   GL122909  38.428  26.831   8.855
 7173POPC   GL222910  38.604  26.696   8.855
 7173POPC   C1A22911  38.461  26.804   8.555
 7173POPC   D2A22912  38.452  26.845   8.255
 7173POPC   C3A22913  38.491  26.846   7.955
 7173POPC   C4A22914  38.420  26.849   7.655
 7173POPC   C1B22915  38.612  26.705   8.555
 7173POPC   C2B22916  38.685  26.646   8.255
 7173POPC   C3B22917  38.634  26.658   7.955
 7173POPC   C4B22918  38.655  26.645   7.655
 7174POPC   NC322919  12.116   0.461   9.455
 7174POPC   PO422920  12.033   0.478   9.155
 7174POPC   GL122921  12.109   0.475   8.855
 7174POPC   GL222922  11.973   0.355   8.855
 7174POPC   C1A22923  12.080   0.472   8.555
 7174POPC   D2A22924  12.027   0.452   8.255
 7174POPC   C3A22925  12.096   0.434   7.955
 7174POPC   C4A22926  12.054   0.440   7.655
 7174POPC   C1B22927  11.866   0.302   8.555
 7174POPC   C2B22928  11.905   0.295   8.255
 7174POPC   C3B22929  11.934   0.222   7.955
 7174POPC   C4B22930  11.940   0.308   7.655
 7175POPC   NC322931  39.219  32.286   9.455
 7175POPC   PO422932  39.269  32.291   9.155
 7175POPC   GL122933  39.181  32.204   8.855
 7175POPC   GL222934  39.281  32.314   8.855
 7175POPC   C1A22935  39.277  32.212   8.555
 7175POPC   D2A22936  39.240  32.200   8.255
 7175POPC   C3A22937  39.275  32.216   7.955
 7175POPC   C4A22938  39.212  32.282   7.655
 7175POPC   C1B22939  39.319  32.492   8.555
 7175POPC   C2B22940  39.379  32.506   8.255
 7175POPC   C3B22941  39.362  32.483   7.955
 7175POPC   C4B22942  39.316  32.510   7.655
 7176POPC   NC322943  17.534  11.317   9.455
 7176POPC   PO422944  17.458  11.309   9.155
 7176POPC   GL122945  17.516  11.253   8.855
 7176POPC   GL222946  17.379  11.230   8.855
 7176POPC   C1A22947  17.471  11.328   8.555
 7176POPC   D2A22948  17.495  11.335   8.255
 7176POPC   C3A22949  17.509  11.321   7.955
 7176POPC   C4A22950  17.522  11.250   7.655
 7176POPC   C1B22951  17.260  11.191   8.555
 7176POPC   C2B22952  17.257  11.198   8.255
 7176POPC   C3B22953  17.288  11.197   7.955
 7176POPC   C4B22954  17.310  11.155   7.655
 7177POPC   NC322955  36.170  27.627   9.455
 7177POPC   PO422956  36.144  27.638   9.155
 7177POPC   GL122957  36.085  27.586   8.855
 7177POPC   GL222958  36.110  27.481   8.855
 7177POPC   C1A22959  36.140  27.564   8.555
 7177POPC   D2A22960  36.136  27.554   8.255
 7177POPC   C3A22961  36.114  27.630   7.955
 7177POPC   C4A22962  36.091  27.545   7.655
 7177POPC   C1B22963  36.025  27.364   8.555
 7177POPC   C2B22964  36.039  27.402   8.255
 7177POPC   C3B22965  36.000  27.375   7.955
 7177POPC   C4B22966  36.041  27.365   7.655
 7178POPC   NC322967  18.256  15.211   9.455
 7178POPC   PO422968  18.325  15.215   9.155
 7178POPC   GL122969  18.288  15.155   8.855
 7178POPC   GL222970  18.337  15.263   8.855
 7178POPC   C1A22971  18.261  15.204   8.555
 7178POPC   D2A22972  18.284  15.160   8.255
 7178POPC   C3A22973  18.259  15.204   7.955
 7178POPC   C4A22974  18.234  15.177   7.655
 7178POPC   C1B22975  18.475  15.371   8.555
 7178POPC   C2B22976  18.467  15.354   8.255
 7178POPC   C3B22977  18.487  15.363   7.955
 7178POPC   C4B22978  18.525  15.374   7.655
 7179POPC   NC322979  19.791  33.796   9.455
 7179POPC   PO422980  19.864  33.765   9.155
 7179POPC   GL122981  19.847  33.751   8.855
 7179POPC   GL222982  19.778  33.711   8.855
 7179POPC   C1A22983  19.879  33.781   8.555
 7179POPC   D2A22984  19.882  33.750   8.255
 7179POPC   C3A22985  19.878  33.804   7.955
 7179POPC   C4A22986  19.862  33.778   7.655
 7179POPC   C1B22987  19.750  33.627   8.555
 7179POPC   C2B22988  19.744  33.589   8.255
 7179POPC   C3B22989  19.680  33.619   7.955
 7179POPC   C4B22990  19.734  33.540   7.655
 7180POPC   NC322991  23.679  27.562   9.455
 7180POPC   PO422992  23.692  27.610   9.155
 7180POPC   GL122993  23.710  27.602   8.855
 7180POPC   GL222994  23.677  27.740   8.855
 7180POPC   C1A22995  23.756  27.635   8.555
 7180POPC   D2A22996  23.717  27.628   8.255
 7180POPC   C3A22997  23.752  27.595   7.955
 7180POPC   C4A22998  23.738  27.575   7.655
 7180POPC   C1B22999  23.606  27.768   8.555
 7180POPC   C2B23000  23.587  27.773   8.255
 7180POPC   C3B23001  23.541  27.744   7.955
 7180POPC   C4B23002  23.535  27.795   7.655
 7181POPC   NC323003   6.647  12.108   9.455
 7181POPC   PO423004   6.640  12.087   9.155
 7181POPC   GL123005   6.611  12.081   8.855
 7181POPC   GL223006   6.738  12.008   8.855
 7181POPC   C1A23007   6.605  12.088   8.555
 7181POPC   D2A23008   6.643  12.064   8.255
 7181POPC   C3A23009   6.611  12.082   7.955
 7181POPC   C4A23010   6.632  12.072   7.655
 7181POPC   C1B23011   6.863  11.995   8.555
 7181POPC   C2B23012   6.861  11.998   8.255
 7181POPC   C3B23013   6.904  12.010   7.955
 7181POPC   C4B23014   6.917  12.012   7.655
 7182POPC   NC323015  10.504  11.334   9.455
 7182POPC   PO423016  10.538  11.280   9.155
 7182POPC   GL123017  10.475  11.298   8.855
 7182POPC   GL223018  10.639  11.404   8.855
 7182POPC   C1A23019  10.494  11.272   8.555
 7182POPC   D2A23020  10.490  11.281   8.255
 7182POPC   C3A23021  10.518  11.261   7.955
 7182POPC   C4A23022  10.494  11.301   7.655
 7182POPC   C1B23023  10.743  11.465   8.555
 7182POPC   C2B23024  10.741  11.433   8.255
 7182POPC   C3B23025  10.729  11.484   7.955
 7182POPC   C4B23026  10.670  11.500   7.655
 7183POPC   NC323027  32.286  31.513   9.455
 7183POPC   PO423028  32.286  31.519   9.155
 7183POPC   GL123029  32.236  31.507   8.855
 7183POPC   GL223030  32.200  31.318   8.855
 7183POPC   C1A23031  32.243  31.437   8.555
 7183POPC   D2A23032  32.297  31.491   8.255
 7183POPC   C3A23033  32.239  31.496   7.955
 7183POPC   C4A23034  32.289  31.476   7.655
 7183POPC   C1B23035  32.216  31.208   8.555
 7183POPC   C2B23036  32.174  31.201   8.255
 7183POPC   C3B23037  32.217  31.179   7.955
 7183POPC   C4B23038  32.263  31.233   7.655
 7184POPC   NC323039  19.100  34.528   9.455
 7184POPC   PO423040  19.104  34.620   9.155
 7184POPC   GL123041  19.085  34.529   8.855
 7184POPC   GL223042  19.071  34.657   8.855
 7184POPC   C1A23043  19.009  34.537   8.555
 7184POPC   D2A23044  19.085  34.621   8.255
 7184POPC   C3A23045  19.025  34.540   7.955
 7184POPC   C4A23046  19.061  34.588   7.655
 7184POPC   C1B23047  19.085  34.869   8.555
 7184POPC   C2B23048  19.074  34.798   8.255
 7184POPC   C3B23049  19.090  34.850   7.955
 7184POPC   C4B23050  19.071  34.784   7.655
 7185POPC   NC323051  34.540   9.720   9.455
 7185POPC   PO423052  34.575   9.722   9.155
 7185POPC   GL123053  34.579   9.787   8.855
 7185POPC   GL223054  34.597   9.846   8.855
 7185POPC   C1A23055  34.557   9.708   8.555
 7185POPC   D2A23056  34.538   9.767   8.255
 7185POPC   C3A23057  34.605   9.744   7.955
 7185POPC   C4A23058  34.612   9.700   7.655
 7185POPC   C1B23059  34.491  10.032   8.555
 7185POPC   C2B23060  34.521  10.017   8.255
 7185POPC   C3B23061  34.536  10.044   7.955
 7185POPC   C4B23062  34.485   9.996   7.655
 7186POPC   NC323063  40.756  20.644   9.455
 7186POPC   PO423064  40.763  20.610   9.155
 7186POPC   GL123065  40.829  20.646   8.855
 7186POPC   GL223066  40.856  20.705   8.855
 7186POPC   C1A23067  40.743  20.570   8.555
 7186POPC   D2A23068  40.764  20.596   8.255
 7186POPC   C3A23069  40.788  20.610   7.955
 7186POPC   C4A23070  40.743  20.645   7.655
 7186POPC   C1B23071  40.973  20.665   8.555
 7186POPC   C2B23072  41.042  20.672   8.255
 7186POPC   C3B23073  41.025  20.718   7.955
 7186POPC   C4B23074  41.046  20.674   7.655
 7187POPC   NC323075  16.724  37.638   9.455
 7187POPC   PO423076  16.736  37.667   9.155
 7187POPC   GL123077  16.683  37.686   8.855
 7187POPC   GL223078  16.843  37.652   8.855
 7187POPC   C1A23079  16.684  37.673   8.555
 7187POPC   D2A23080  16.775  37.634   8.255
 7187POPC   C3A23081  16.736  37.647   7.955
 7187POPC   C4A23082  16.748  37.704   7.655
 7187POPC   C1B23083  16.968  37.534   8.555
 7187POPC   C2B23084  16.958  37.537   8.255
 7187POPC   C3B23085  16.955  37.526   7.955
 7187POPC   C4B23086  16.976  37.567   7.655
 7188POPC   NC323087   9.021  18.313   9.455
 7188POPC   PO423088   8.939  18.329   9.155
 7188POPC   GL123089   8.948  18.316   8.855
 7188POPC   GL223090   9.052  18.219   8.855
 7188POPC   C1A23091   9.001  18.238   8.555
 7188POPC   D2A23092   9.002  18.267   8.255
 7188POPC   C3A23093   8.944  18.274   7.955
 7188POPC   C4A23094   9.010  18.274   7.655
 7188POPC   C1B23095   9.219  18.123   8.555
 7188POPC   C2B23096   9.221  18.115   8.255
 7188POPC   C3B23097   9.178  18.153   7.955
 7188POPC   C4B23098   9.191  18.172   7.655
 7189POPC   NC323099  11.325  43.131   9.455
 7189POPC   PO423100  11.330  43.088   9.155
 7189POPC   GL123101  11.258  43.118   8.855
 7189POPC   GL223102  11.231  42.950   8.855
 7189POPC   C1A23103  11.274  43.063   8.555
 7189POPC   D2A23104  11.282  43.061   8.255
 7189POPC   C3A23105  11.274  43.068   7.955
 7189POPC   C4A23106  11.348  43.125   7.655
 7189POPC   C1B23107  11.249  42.913   8.555
 7189POPC   C2B23108  11.247  42.863   8.255
 7189POPC   C3B23109  11.252  42.843   7.955
 7189POPC   C4B23110  11.205  42.897   7.655
 7190POPC   NC323111  37.645  31.438   9.455
 7190POPC   PO423112  37.670  31.453   9.155
 7190POPC   GL123113  37.697  31.509   8.855
 7190POPC   GL223114  37.800  31.597   8.855
 7190POPC   C1A23115  37.701  31.492   8.555
 7190POPC   D2A23116  37.668  31.475   8.255
 7190POPC   C3A23117  37.659  31.431   7.955
 7190POPC   C4A23118  37.714  31.447   7.655
 7190POPC   C1B23119  37.900  31.687   8.555
 7190POPC   C2B23120  37.855  31.620   8.255
 7190POPC   C3B23121  37.863  31.596   7.955
 7190POPC   C4B23122  37.853  31.615   7.655
 7191POPC   NC323123  26.809  21.393   9.455
 7191POPC   PO423124  26.839  21.436   9.155
 7191POPC   GL123125  26.816  21.370   8.855
 7191POPC   GL223126  26.711  21.398   8.855
 7191POPC   C1A23127  26.775  21.420   8.555
 7191POPC   D2A23128  26.790  21.393   8.255
 7191POPC   C3A23129  26.805  21.389   7.955
 7191POPC   C4A23130  26.821  21.370   7.655
 7191POPC   C1B23131  26.552  21.400   8.555
 7191POPC   C2B23132  26.618  21.399   8.255
 7191POPC   C3B23133  26.563  21.403   7.955
 7191POPC   C4B23134  26.554  21.414   7.655
 7192POPC   NC323135  38.472  32.200   9.455
 7192POPC   PO423136  38.501  32.265   9.155
 7192POPC   GL123137  38.440  32.223   8.855
 7192POPC   GL223138  38.489  32.325   8.855
 7192POPC   C1A23139  38.453  32.271   8.555
 7192POPC   D2A23140  38.502  32.294   8.255
 7192POPC   C3A23141  38.428  32.210   7.955
 7192POPC   C4A23142  38.426  32.211   7.655
 7192POPC   C1B23143  38.550  32.490   8.555
 7192POPC   C2B23144  38.535  32.474   8.255
 7192POPC   C3B23145  38.524  32.512   7.955
 7192POPC   C4B23146  38.488  32.503   7.655
 7193POPC   NC323147  29.192  30.683   9.455
 7193POPC   PO423148  29.166  30.742   9.155
 7193POPC   GL123149  29.146  30.649   8.855
 7193POPC   GL223150  29.165  30.554   8.855
 7193POPC   C1A23151  29.137  30.742   8.555
 7193POPC   D2A23152  29.159  30.711   8.255
 7193POPC   C3A23153  29.118  30.725   7.955
 7193POPC   C4A23154  29.141  30.647   7.655
 7193POPC   C1B23155  29.142  30.401   8.555
 7193POPC   C2B23156  29.105  30.459   8.255
 7193POPC   C3B23157  29.197  30.440   7.955
 7193POPC   C4B23158  29.158  30.444   7.655
 7194POPC   NC323159  41.522   5.073   9.455
 7194POPC   PO423160  41.528   5.067   9.155
 7194POPC   GL123161  41.604   5.064   8.855
 7194POPC   GL223162  41.507   4.958   8.855
 7194POPC   C1A23163  41.601   5.110   8.555
 7194POPC   D2A23164  41.536   5.130   8.255
 7194POPC   C3A23165  41.607   5.086   7.955
 7194POPC   C4A23166  41.584   5.124   7.655
 7194POPC   C1B23167  41.453   4.906   8.555
 7194POPC   C2B23168  41.394   4.918   8.255
 7194POPC   C3B23169  41.436   4.879   7.955
 7194POPC   C4B23170  41.423   4.902   7.655
 7195POPC   NC323171  12.830  41.524   9.455
 7195POPC   PO423172  12.821  41.534   9.155
 7195POPC   GL123173  12.813  41.585   8.855
 7195POPC   GL223174  12.856  41.657   8.855
 7195POPC   C1A23175  12.814  41.514   8.555
 7195POPC   D2A23176  12.830  41.544   8.255
 7195POPC   C3A23177  12.868  41.592   7.955
 7195POPC   C4A23178  12.836  41.603   7.655
 7195POPC   C1B23179  12.949  41.763   8.555
 7195POPC   C2B23180  12.977  41.795   8.255
 7195POPC   C3B23181  12.968  41.807   7.955
 7195POPC   C4B23182  12.954  41.758   7.655
 7196POPC   NC323183  35.322   8.927   9.455
 7196POPC   PO423184  35.397   9.012   9.155
 7196POPC   GL123185  35.353   8.978   8.855
 7196POPC   GL223186  35.279   9.059   8.855
 7196POPC   C1A23187  35.317   9.022   8.555
 7196POPC   D2A23188  35.360   9.018   8.255
 7196POPC   C3A23189  35.330   9.021   7.955
 7196POPC   C4A23190  35.302   9.018   7.655
 7196POPC   C1B23191  35.127   9.089   8.555
 7196POPC   C2B23192  35.171   9.125   8.255
 7196POPC   C3B23193  35.175   9.056   7.955
 7196POPC   C4B23194  35.119   9.111   7.655
 7197POPC   NC323195  33.816   8.205   9.455
 7197POPC   PO423196  33.849   8.192   9.155
 7197POPC   GL123197  33.786   8.197   8.855
 7197POPC   GL223198  33.783   8.316   8.855
 7197POPC   C1A23199  33.789   8.194   8.555
 7197POPC   D2A23200  33.830   8.188   8.255
 7197POPC   C3A23201  33.769   8.230   7.955
 7197POPC   C4A23202  33.764   8.175   7.655
 7197POPC   C1B23203  33.730   8.460   8.555
 7197POPC   C2B23204  33.698   8.383   8.255
 7197POPC   C3B23205  33.659   8.460   7.955
 7197POPC   C4B23206  33.685   8.464   7.655
 7198POPC   NC323207  33.036  14.375   9.455
 7198POPC   PO423208  33.002  14.416   9.155
 7198POPC   GL123209  33.022  14.391   8.855
 7198POPC   GL223210  32.894  14.411   8.855
 7198POPC   C1A23211  33.061  14.438   8.555
 7198POPC   D2A23212  33.047  14.440   8.255
 7198POPC   C3A23213  33.002  14.445   7.955
 7198POPC   C4A23214  33.047  14.428   7.655
 7198POPC   C1B23215  32.841  14.545   8.555
 7198POPC   C2B23216  32.759  14.480   8.255
 7198POPC   C3B23217  32.763  14.543   7.955
 7198POPC   C4B23218  32.761  14.484   7.655
 7199POPC   NC323219  10.507  15.969   9.455
 7199POPC   PO423220  10.476  15.946   9.155
 7199POPC   GL123221  10.507  15.986   8.855
 7199POPC   GL223222  10.613  15.923   8.855
 7199POPC   C1A23223  10.518  15.926   8.555
 7199POPC   D2A23224  10.476  15.969   8.255
 7199POPC   C3A23225  10.492  15.947   7.955
 7199POPC   C4A23226  10.506  15.924   7.655
 7199POPC   C1B23227  10.730  15.843   8.555
 7199POPC   C2B23228  10.706  15.819   8.255
 7199POPC   C3B23229  10.787  15.820   7.955
 7199POPC   C4B23230  10.730  15.880   7.655
 7200POPC   NC323231  32.291   5.845   9.455
 7200POPC   PO423232  32.271   5.860   9.155
 7200POPC   GL123233  32.237   5.820   8.855
 7200POPC   GL223234  32.251   5.778   8.855
 7200POPC   C1A23235  32.294   5.865   8.555
 7200POPC   D2A23236  32.248   5.892   8.255
 7200POPC   C3A23237  32.260   5.832   7.955
 7200POPC   C4A23238  32.277   5.854   7.655
 7200POPC   C1B23239  32.294   5.578   8.555
 7200POPC   C2B23240  32.251   5.588   8.255
 7200POPC   C3B23241  32.279   5.613   7.955
 7200POPC   C4B23242  32.256   5.630   7.655
 7201POPC   NC323243   5.865   9.726   9.455
 7201POPC   PO423244   5.831   9.793   9.155
 7201POPC   GL123245   5.877   9.750   8.855
 7201POPC   GL223246   5.949   9.784   8.855
 7201POPC   C1A23247   5.861   9.793   8.555
 7201POPC   D2A23248   5.879   9.742   8.255
 7201POPC   C3A23249   5.867   9.702   7.955
 7201POPC   C4A23250   5.828   9.772   7.655
 7201POPC   C1B23251   6.168   9.693   8.555
 7201POPC   C2B23252   6.095   9.760   8.255
 7201POPC   C3B23253   6.098   9.755   7.955
 7201POPC   C4B23254   6.148   9.737   7.655
 7202POPC   NC323255   7.371   1.961   9.455
 7202POPC   PO423256   7.430   2.035   9.155
 7202POPC   GL123257   7.390   1.968   8.855
 7202POPC   GL223258   7.504   2.102   8.855
 7202POPC   C1A23259   7.424   1.967   8.555
 7202POPC   D2A23260   7.460   2.035   8.255
 7202POPC   C3A23261   7.375   2.036   7.955
 7202POPC   C4A23262   7.451   2.016   7.655
 7202POPC   C1B23263   7.517   2.161   8.555
 7202POPC   C2B23264   7.542   2.185   8.255
 7202POPC   C3B23265   7.585   2.216   7.955
 7202POPC   C4B23266   7.502   2.191   7.655
 7203POPC   NC323267  44.691   7.422   9.455
 7203POPC   PO423268  44.625   7.464   9.155
 7203POPC   GL123269  44.626   7.408   8.855
 7203POPC   GL223270  44.538   7.314   8.855
 7203POPC   C1A23271  44.684   7.417   8.555
 7203POPC   D2A23272  44.639   7.374   8.255
 7203POPC   C3A23273  44.699   7.372   7.955
 7203POPC   C4A23274  44.707   7.386   7.655
 7203POPC   C1B23275  44.492   7.185   8.555
 7203POPC   C2B23276  44.519   7.189   8.255
 7203POPC   C3B23277  44.533   7.208   7.955
 7203POPC   C4B23278  44.551   7.239   7.655
 7204POPC   NC323279  32.216  13.666   9.455
 7204POPC   PO423280  32.198  13.666   9.155
 7204POPC   GL123281  32.260  13.623   8.855
 7204POPC   GL223282  32.336  13.666   8.855
 7204POPC   C1A23283  32.297  13.652   8.555
 7204POPC   D2A23284  32.236  13.588   8.255
 7204POPC   C3A23285  32.270  13.661   7.955
 7204POPC   C4A23286  32.277  13.645   7.655
 7204POPC   C1B23287  32.455  13.799   8.555
 7204POPC   C2B23288  32.429  13.793   8.255
 7204POPC   C3B23289  32.432  13.809   7.955
 7204POPC   C4B23290  32.469  13.837   7.655
 7205POPC   NC323291   1.173  35.350   9.455
 7205POPC   PO423292   1.245  35.310   9.155
 7205POPC   GL123293   1.192  35.312   8.855
 7205POPC   GL223294   1.160  35.432   8.855
 7205POPC   C1A23295   1.202  35.372   8.555
 7205POPC   D2A23296   1.211  35.389   8.255
 7205POPC   C3A23297   1.170  35.371   7.955
 7205POPC   C4A23298   1.217  35.372   7.655
 7205POPC   C1B23299   1.166  35.618   8.555
 7205POPC   C2B23300   1.118  35.594   8.255
 7205POPC   C3B23301   1.177  35.626   7.955
 7205POPC   C4B23302   1.129  35.545   7.655
 7206POPC   NC323303  12.085  13.649   9.455
 7206POPC   PO423304  12.033  13.630   9.155
 7206POPC   GL123305  12.095  13.671   8.855
 7206POPC   GL223306  12.179  13.583   8.855
 7206POPC   C1A23307  12.112  13.650   8.555
 7206POPC   D2A23308  12.070  13.612   8.255
 7206POPC   C3A23309  12.100  13.669   7.955
 7206POPC   C4A23310  12.052  13.654   7.655
 7206POPC   C1B23311  12.287  13.496   8.555
 7206POPC   C2B23312  12.274  13.546   8.255
 7206POPC   C3B23313  12.352  13.529   7.955
 7206POPC   C4B23314  12.348  13.576   7.655
 7207POPC   NC323315  33.815  15.994   9.455
 7207POPC   PO423316  33.794  15.959   9.155
 7207POPC   GL123317  33.782  15.913   8.855
 7207POPC   GL223318  33.784  15.843   8.855
 7207POPC   C1A23319  33.797  15.965   8.555
 7207POPC   D2A23320  33.849  15.917   8.255
 7207POPC   C3A23321  33.817  15.952   7.955
 7207POPC   C4A23322  33.829  15.935   7.655
 7207POPC   C1B23323  33.735  15.749   8.555
 7207POPC   C2B23324  33.674  15.712   8.255
 7207POPC   C3B23325  33.649  15.689   7.955
 7207POPC   C4B23326  33.650  15.704   7.655
 7208POPC   NC323327  27.620  35.322   9.455
 7208POPC   PO423328  27.610  35.366   9.155
 7208POPC   GL123329  27.582  35.386   8.855
 7208POPC   GL223330  27.530  35.291   8.855
 7208POPC   C1A23331  27.597  35.318   8.555
 7208POPC   D2A23332  27.589  35.382   8.255
 7208POPC   C3A23333  27.597  35.338   7.955
 7208POPC   C4A23334  27.586  35.373   7.655
 7208POPC   C1B23335  27.367  35.214   8.555
 7208POPC   C2B23336  27.336  35.282   8.255
 7208POPC   C3B23337  27.389  35.282   7.955
 7208POPC   C4B23338  27.386  35.254   7.655
 7209POPC   NC323339  29.884  15.163   9.455
 7209POPC   PO423340  29.880  15.181   9.155
 7209POPC   GL123341  29.886  15.213   8.855
 7209POPC   GL223342  29.804  15.230   8.855
 7209POPC   C1A23343  29.897  15.227   8.555
 7209POPC   D2A23344  29.916  15.179   8.255
 7209POPC   C3A23345  29.960  15.163   7.955
 7209POPC   C4A23346  29.937  15.151   7.655
 7209POPC   C1B23347  29.690  15.159   8.555
 7209POPC   C2B23348  29.649  15.223   8.255
 7209POPC   C3B23349  29.687  15.160   7.955
 7209POPC   C4B23350  29.651  15.175   7.655
 7210POPC   NC323351   6.663  15.949   9.455
 7210POPC   PO423352   6.670  15.941   9.155
 7210POPC   GL123353   6.644  15.944   8.855
 7210POPC   GL223354   6.703  15.885   8.855
 7210POPC   C1A23355   6.655  15.986   8.555
 7210POPC   D2A23356   6.677  15.921   8.255
 7210POPC   C3A23357   6.683  16.004   7.955
 7210POPC   C4A23358   6.676  15.929   7.655
 7210POPC   C1B23359   6.787  15.753   8.555
 7210POPC   C2B23360   6.812  15.736   8.255
 7210POPC   C3B23361   6.723  15.777   7.955
 7210POPC   C4B23362   6.748  15.782   7.655
 7211POPC   NC323363  27.543  33.792   9.455
 7211POPC   PO423364  27.602  33.812   9.155
 7211POPC   GL123365  27.547  33.775   8.855
 7211POPC   GL223366  27.454  33.811   8.855
 7211POPC   C1A23367  27.605  33.794   8.555
 7211POPC   D2A23368  27.642  33.760   8.255
 7211POPC   C3A23369  27.579  33.829   7.955
 7211POPC   C4A23370  27.621  33.784   7.655
 7211POPC   C1B23371  27.354  33.950   8.555
 7211POPC   C2B23372  27.353  33.864   8.255
 7211POPC   C3B23373  27.398  33.930   7.955
 7211POPC   C4B23374  27.384  33.935   7.655
 7212POPC   NC323375  42.379  43.081   9.455
 7212POPC   PO423376  42.361  43.090   9.155
 7212POPC   GL123377  42.302  43.136   8.855
 7212POPC   GL223378  42.379  43.019   8.855
 7212POPC   C1A23379  42.366  43.078   8.555
 7212POPC   D2A23380  42.308  43.138   8.255
 7212POPC   C3A23381  42.303  43.157   7.955
 7212POPC   C4A23382  42.383  43.078   7.655
 7212POPC   C1B23383  42.349  42.902   8.555
 7212POPC   C2B23384  42.307  42.834   8.255
 7212POPC   C3B23385  42.310  42.890   7.955
 7212POPC   C4B23386  42.365  42.859   7.655
 7213POPC   NC323387  25.307  14.369   9.455
 7213POPC   PO423388  25.221  14.444   9.155
 7213POPC   GL123389  25.249  14.401   8.855
 7213POPC   GL223390  25.300  14.244   8.855
 7213POPC   C1A23391  25.308  14.423   8.555
 7213POPC   D2A23392  25.279  14.399   8.255
 7213POPC   C3A23393  25.228  14.374   7.955
 7213POPC   C4A23394  25.310  14.390   7.655
 7213POPC   C1B23395  25.263  14.185   8.555
 7213POPC   C2B23396  25.299  14.162   8.255
 7213POPC   C3B23397  25.246  14.196   7.955
 7213POPC   C4B23398  25.262  14.152   7.655
 7214POPC   NC323399   1.203  19.089   9.455
 7214POPC   PO423400   1.196  19.020   9.155
 7214POPC   GL123401   1.245  19.078   8.855
 7214POPC   GL223402   1.354  19.112   8.855
 7214POPC   C1A23403   1.232  19.047   8.555
 7214POPC   D2A23404   1.215  19.096   8.255
 7214POPC   C3A23405   1.241  19.033   7.955
 7214POPC   C4A23406   1.191  19.061   7.655
 7214POPC   C1B23407   1.470  19.188   8.555
 7214POPC   C2B23408   1.470  19.201   8.255
 7214POPC   C3B23409   1.421  19.212   7.955
 7214POPC   C4B23410   1.461  19.192   7.655
 7215POPC   NC323411   5.823  17.496   9.455
 7215POPC   PO423412   5.873  17.540   9.155
 7215POPC   GL123413   5.903  17.466   8.855
 7215POPC   GL223414   5.788  17.444   8.855
 7215POPC   C1A23415   5.835  17.494   8.555
 7215POPC   D2A23416   5.881  17.507   8.255
 7215POPC   C3A23417   5.842  17.527   7.955
 7215POPC   C4A23418   5.851  17.511   7.655
 7215POPC   C1B23419   5.706  17.345   8.555
 7215POPC   C2B23420   5.633  17.369   8.255
 7215POPC   C3B23421   5.656  17.380   7.955
 7215POPC   C4B23422   5.703  17.327   7.655
 7216POPC   NC323423   1.952  36.917   9.455
 7216POPC   PO423424   2.038  36.877   9.155
 7216POPC   GL123425   1.945  36.912   8.855
 7216POPC   GL223426   1.897  36.878   8.855
 7216POPC   C1A23427   1.974  36.939   8.555
 7216POPC   D2A23428   1.989  36.935   8.255
 7216POPC   C3A23429   2.038  36.876   7.955
 7216POPC   C4A23430   1.947  36.913   7.655
 7216POPC   C1B23431   1.729  36.889   8.555
 7216POPC   C2B23432   1.704  36.930   8.255
 7216POPC   C3B23433   1.696  36.912   7.955
 7216POPC   C4B23434   1.783  36.959   7.655
 7217POPC   NC323435   8.936  19.819   9.455
 7217POPC   PO423436   9.016  19.855   9.155
 7217POPC   GL123437   8.997  19.790   8.855
 7217POPC   GL223438   9.101  19.902   8.855
 7217POPC   C1A23439   8.986  19.815   8.555
 7217POPC   D2A23440   8.999  19.803   8.255
 7217POPC   C3A23441   8.962  19.883   7.955
 7217POPC   C4A23442   8.990  19.803   7.655
 7217POPC   C1B23443   9.177  20.028   8.555
 7217POPC   C2B23444   9.217  20.032   8.255
 7217POPC   C3B23445   9.124  20.002   7.955
 7217POPC   C4B23446   9.158  20.041   7.655
 7218POPC   NC323447   0.409  31.462   9.455
 7218POPC   PO423448   0.462  31.473   9.155
 7218POPC   GL123449   0.442  31.509   8.855
 7218POPC   GL223450   0.589  31.468   8.855
 7218POPC   C1A23451   0.400  31.508   8.555
 7218POPC   D2A23452   0.433  31.442   8.255
 7218POPC   C3A23453   0.483  31.428   7.955
 7218POPC   C4A23454   0.429  31.498   7.655
 7218POPC   C1B23455   0.689  31.430   8.555
 7218POPC   C2B23456   0.629  31.391   8.255
 7218POPC   C3B23457   0.663  31.404   7.955
 7218POPC   C4B23458   0.692  31.451   7.655
 7219POPC   NC323459  30.744   5.906   9.455
 7219POPC   PO423460  30.739   5.877   9.155
 7219POPC   GL123461  30.703   5.918   8.855
 7219POPC   GL223462  30.540   5.918   8.855
 7219POPC   C1A23463  30.689   5.910   8.555
 7219POPC   D2A23464  30.713   5.908   8.255
 7219POPC   C3A23465  30.737   5.870   7.955
 7219POPC   C4A23466  30.682   5.855   7.655
 7219POPC   C1B23467  30.459   5.943   8.555
 7219POPC   C2B23468  30.518   5.937   8.255
 7219POPC   C3B23469  30.461   6.032   7.955
 7219POPC   C4B23470  30.463   5.948   7.655
 7220POPC   NC323471  16.716   7.467   9.455
 7220POPC   PO423472  16.731   7.452   9.155
 7220POPC   GL123473  16.770   7.436   8.855
 7220POPC   GL223474  16.802   7.497   8.855
 7220POPC   C1A23475  16.764   7.374   8.555
 7220POPC   D2A23476  16.707   7.424   8.255
 7220POPC   C3A23477  16.744   7.464   7.955
 7220POPC   C4A23478  16.730   7.420   7.655
 7220POPC   C1B23479  16.865   7.611   8.555
 7220POPC   C2B23480  16.798   7.691   8.255
 7220POPC   C3B23481  16.802   7.635   7.955
 7220POPC   C4B23482  16.838   7.611   7.655
 7221POPC   NC323483  26.791   1.177   9.455
 7221POPC   PO423484  26.767   1.170   9.155
 7221POPC   GL123485  26.828   1.222   8.855
 7221POPC   GL223486  26.734   1.240   8.855
 7221POPC   C1A23487  26.780   1.192   8.555
 7221POPC   D2A23488  26.779   1.192   8.255
 7221POPC   C3A23489  26.805   1.206   7.955
 7221POPC   C4A23490  26.778   1.246   7.655
 7221POPC   C1B23491  26.523   1.279   8.555
 7221POPC   C2B23492  26.586   1.190   8.255
 7221POPC   C3B23493  26.576   1.266   7.955
 7221POPC   C4B23494  26.577   1.219   7.655
 7222POPC   NC323495   4.351  34.540   9.455
 7222POPC   PO423496   4.336  34.551   9.155
 7222POPC   GL123497   4.326  34.586   8.855
 7222POPC   GL223498   4.371  34.655   8.855
 7222POPC   C1A23499   4.332  34.597   8.555
 7222POPC   D2A23500   4.277  34.614   8.255
 7222POPC   C3A23501   4.325  34.598   7.955
 7222POPC   C4A23502   4.322  34.607   7.655
 7222POPC   C1B23503   4.402  34.833   8.555
 7222POPC   C2B23504   4.404  34.837   8.255
 7222POPC   C3B23505   4.391  34.833   7.955
 7222POPC   C4B23506   4.419  34.793   7.655
 7223POPC   NC323507  28.414  22.973   9.455
 7223POPC   PO423508  28.416  22.895   9.155
 7223POPC   GL123509  28.402  22.926   8.855
 7223POPC   GL223510  28.305  22.849   8.855
 7223POPC   C1A23511  28.323  22.960   8.555
 7223POPC   D2A23512  28.395  22.920   8.255
 7223POPC   C3A23513  28.385  22.979   7.955
 7223POPC   C4A23514  28.344  22.944   7.655
 7223POPC   C1B23515  28.357  22.690   8.555
 7223POPC   C2B23516  28.326  22.684   8.255
 7223POPC   C3B23517  28.346  22.673   7.955
 7223POPC   C4B23518  28.305  22.658   7.655
 7224POPC   NC323519  25.266  26.019   9.455
 7224POPC   PO423520  25.312  26.061   9.155
 7224POPC   GL123521  25.258  26.014   8.855
 7224POPC   GL223522  25.429  26.058   8.855
 7224POPC   C1A23523  25.311  26.008   8.555
 7224POPC   D2A23524  25.255  26.071   8.255
 7224POPC   C3A23525  25.286  26.008   7.955
 7224POPC   C4A23526  25.232  26.059   7.655
 7224POPC   C1B23527  25.531  26.021   8.555
 7224POPC   C2B23528  25.508  26.109   8.255
 7224POPC   C3B23529  25.563  26.108   7.955
 7224POPC   C4B23530  25.513  26.103   7.655
 7225POPC   NC323531  35.335   7.375   9.455
 7225POPC   PO423532  35.337   7.375   9.155
 7225POPC   GL123533  35.336   7.422   8.855
 7225POPC   GL223534  35.184   7.421   8.855
 7225POPC   C1A23535  35.380   7.424   8.555
 7225POPC   D2A23536  35.321   7.373   8.255
 7225POPC   C3A23537  35.309   7.464   7.955
 7225POPC   C4A23538  35.384   7.374   7.655
 7225POPC   C1B23539  35.081   7.471   8.555
 7225POPC   C2B23540  35.085   7.470   8.255
 7225POPC   C3B23541  35.116   7.477   7.955
 7225POPC   C4B23542  35.120   7.431   7.655
 7226POPC   NC323543  15.981   0.402   9.455
 7226POPC   PO423544  15.945   0.456   9.155
 7226POPC   GL123545  15.963   0.435   8.855
 7226POPC   GL223546  16.005   0.597   8.855
 7226POPC   C1A23547  15.979   0.435   8.555
 7226POPC   D2A23548  15.928   0.483   8.255
 7226POPC   C3A23549  15.972   0.414   7.955
 7226POPC   C4A23550  15.941   0.479   7.655
 7226POPC   C1B23551  16.030   0.675   8.555
 7226POPC   C2B23552  16.077   0.685   8.255
 7226POPC   C3B23553  15.998   0.656   7.955
 7226POPC   C4B23554  16.000   0.656   7.655
 7227POPC   NC323555  31.459  34.573   9.455
 7227POPC   PO423556  31.512  34.609   9.155
 7227POPC   GL123557  31.482  34.528   8.855
 7227POPC   GL223558  31.401  34.732   8.855
 7227POPC   C1A23559  31.473  34.531   8.555
 7227POPC   D2A23560  31.473  34.600   8.255
 7227POPC   C3A23561  31.429  34.597   7.955
 7227POPC   C4A23562  31.520  34.622   7.655
 7227POPC   C1B23563  31.413  34.793   8.555
 7227POPC   C2B23564  31.392  34.820   8.255
 7227POPC   C3B23565  31.341  34.771   7.955
 7227POPC   C4B23566  31.395  34.825   7.655
 7228POPC   NC323567  31.449   8.212   9.455
 7228POPC   PO423568  31.518   8.240   9.155
 7228POPC   GL123569  31.509   8.223   8.855
 7228POPC   GL223570  31.570   8.216   8.855
 7228POPC   C1A23571  31.445   8.192   8.555
 7228POPC   D2A23572  31.476   8.201   8.255
 7228POPC   C3A23573  31.467   8.188   7.955
 7228POPC   C4A23574  31.487   8.230   7.655
 7228POPC   C1B23575  31.765   8.205   8.555
 7228POPC   C2B23576  31.713   8.211   8.255
 7228POPC   C3B23577  31.699   8.219   7.955
 7228POPC   C4B23578  31.683   8.180   7.655
 7229POPC   NC323579  44.696  43.840   9.455
 7229POPC   PO423580  44.630  43.837   9.155
 7229POPC   GL123581  44.661  43.896   8.855
 7229POPC   GL223582  44.615  43.801   8.855
 7229POPC   C1A23583  44.706  43.905   8.555
 7229POPC   D2A23584  44.620  43.897   8.255
 7229POPC   C3A23585  44.658  43.861   7.955
 7229POPC   C4A23586  44.650  43.934   7.655
 7229POPC   C1B23587  44.511  43.739   8.555
 7229POPC   C2B23588  44.484  43.708   8.255
 7229POPC   C3B23589  44.521  43.691   7.955
 7229POPC   C4B23590  44.456  43.684   7.655
 7230POPC   NC323591  37.705   8.188   9.455
 7230POPC   PO423592  37.705   8.245   9.155
 7230POPC   GL123593  37.643   8.198   8.855
 7230POPC   GL223594  37.640   8.036   8.855
 7230POPC   C1A23595  37.687   8.167   8.555
 7230POPC   D2A23596  37.686   8.207   8.255
 7230POPC   C3A23597  37.716   8.237   7.955
 7230POPC   C4A23598  37.655   8.203   7.655
 7230POPC   C1B23599  37.579   7.996   8.555
 7230POPC   C2B23600  37.599   7.919   8.255
 7230POPC   C3B23601  37.592   7.907   7.955
 7230POPC   C4B23602  37.584   7.931   7.655
 7231POPC   NC323603  14.421  34.583   9.455
 7231POPC   PO423604  14.420  34.581   9.155
 7231POPC   GL123605  14.386  34.570   8.855
 7231POPC   GL223606  14.487  34.499   8.855
 7231POPC   C1A23607  14.380  34.614   8.555
 7231POPC   D2A23608  14.440  34.624   8.255
 7231POPC   C3A23609  14.447  34.540   7.955
 7231POPC   C4A23610  14.441  34.575   7.655
 7231POPC   C1B23611  14.582  34.395   8.555
 7231POPC   C2B23612  14.617  34.487   8.255
 7231POPC   C3B23613  14.566  34.446   7.955
 7231POPC   C4B23614  14.618  34.438   7.655
 7232POPC   NC323615   9.776  19.057   9.455
 7232POPC   PO423616   9.740  19.069   9.155
 7232POPC   GL123617   9.717  19.067   8.855
 7232POPC   GL223618   9.667  19.166   8.855
 7232POPC   C1A23619   9.719  19.097   8.555
 7232POPC   D2A23620   9.706  19.100   8.255
 7232POPC   C3A23621   9.702  19.017   7.955
 7232POPC   C4A23622   9.723  19.053   7.655
 7232POPC   C1B23623   9.581  19.240   8.555
 7232POPC   C2B23624   9.577  19.184   8.255
 7232POPC   C3B23625   9.563  19.228   7.955
 7232POPC   C4B23626   9.569  19.198   7.655
 7233POPC   NC323627  15.133  38.429   9.455
 7233POPC   PO423628  15.187  38.503   9.155
 7233POPC   GL123629  15.221  38.432   8.855
 7233POPC   GL223630  15.169  38.374   8.855
 7233POPC   C1A23631  15.173  38.492   8.555
 7233POPC   D2A23632  15.138  38.501   8.255
 7233POPC   C3A23633  15.169  38.446   7.955
 7233POPC   C4A23634  15.215  38.504   7.655
 7233POPC   C1B23635  15.104  38.173   8.555
 7233POPC   C2B23636  15.117  38.254   8.255
 7233POPC   C3B23637  15.116  38.169   7.955
 7233POPC   C4B23638  15.140  38.201   7.655
 7234POPC   NC323639  27.616  12.846   9.455
 7234POPC   PO423640  27.589  12.891   9.155
 7234POPC   GL123641  27.562  12.827   8.855
 7234POPC   GL223642  27.519  12.710   8.855
 7234POPC   C1A23643  27.625  12.819   8.555
 7234POPC   D2A23644  27.618  12.869   8.255
 7234POPC   C3A23645  27.555  12.856   7.955
 7234POPC   C4A23646  27.590  12.832   7.655
 7234POPC   C1B23647  27.490  12.595   8.555
 7234POPC   C2B23648  27.416  12.592   8.255
 7234POPC   C3B23649  27.495  12.641   7.955
 7234POPC   C4B23650  27.495  12.631   7.655
 7235POPC   NC323651  13.604  37.635   9.455
 7235POPC   PO423652  13.604  37.727   9.155
 7235POPC   GL123653  13.676  37.667   8.855
 7235POPC   GL223654  13.586  37.629   8.855
 7235POPC   C1A23655  13.589  37.699   8.555
 7235POPC   D2A23656  13.578  37.729   8.255
 7235POPC   C3A23657  13.630  37.674   7.955
 7235POPC   C4A23658  13.608  37.665   7.655
 7235POPC   C1B23659  13.503  37.477   8.555
 7235POPC   C2B23660  13.486  37.543   8.255
 7235POPC   C3B23661  13.408  37.548   7.955
 7235POPC   C4B23662  13.472  37.517   7.655
 7236POPC   NC323663  19.819  22.968   9.455
 7236POPC   PO423664  19.828  22.916   9.155
 7236POPC   GL123665  19.809  22.903   8.855
 7236POPC   GL223666  19.831  22.798   8.855
 7236POPC   C1A23667  19.850  22.978   8.555
 7236POPC   D2A23668  19.830  22.969   8.255
 7236POPC   C3A23669  19.876  22.953   7.955
 7236POPC   C4A23670  19.851  22.971   7.655
 7236POPC   C1B23671  19.800  22.722   8.555
 7236POPC   C2B23672  19.845  22.721   8.255
 7236POPC   C3B23673  19.806  22.722   7.955
 7236POPC   C4B23674  19.836  22.673   7.655
 7237POPC   NC323675  44.660  34.600   9.455
 7237POPC   PO423676  44.638  34.622   9.155
 7237POPC   GL123677  44.666  34.575   8.855
 7237POPC   GL223678  44.523  34.576   8.855
 7237POPC   C1A23679  44.613  34.527   8.555
 7237POPC   D2A23680  44.664  34.607   8.255
 7237POPC   C3A23681  44.627  34.618   7.955
 7237POPC   C4A23682  44.659  34.586   7.655
 7237POPC   C1B23683  44.396  34.614   8.555
 7237POPC   C2B23684  44.431  34.653   8.255
 7237POPC   C3B23685  44.464  34.680   7.955
 7237POPC   C4B23686  44.461  34.673   7.655
 7238POPC   NC323687  40.809  12.064   9.455
 7238POPC   PO423688  40.786  12.058   9.155
 7238POPC   GL123689  40.780  12.071   8.855
 7238POPC   GL223690  40.699  12.005   8.855
 7238POPC   C1A23691  40.800  12.068   8.555
 7238POPC   D2A23692  40.786  12.035   8.255
 7238POPC   C3A23693  40.773  12.106   7.955
 7238POPC   C4A23694  40.819  12.077   7.655
 7238POPC   C1B23695  40.554  12.023   8.555
 7238POPC   C2B23696  40.519  11.983   8.255
 7238POPC   C3B23697  40.550  11.978   7.955
 7238POPC   C4B23698  40.575  12.051   7.655
 7239POPC   NC323699  26.813  26.770   9.455
 7239POPC   PO423700  26.827  26.787   9.155
 7239POPC   GL123701  26.830  26.785   8.855
 7239POPC   GL223702  26.949  26.719   8.855
 7239POPC   C1A23703  26.774  26.799   8.555
 7239POPC   D2A23704  26.777  26.852   8.255
 7239POPC   C3A23705  26.812  26.784   7.955
 7239POPC   C4A23706  26.833  26.866   7.655
 7239POPC   C1B23707  27.018  26.664   8.555
 7239POPC   C2B23708  26.954  26.638   8.255
 7239POPC   C3B23709  27.024  26.611   7.955
 7239POPC   C4B23710  26.982  26.613   7.655
 7240POPC   NC323711  19.092  42.373   9.455
 7240POPC   PO423712  19.077  42.358   9.155
 7240POPC   GL123713  19.011  42.292   8.855
 7240POPC   GL223714  18.965  42.359   8.855
 7240POPC   C1A23715  19.044  42.321   8.555
 7240POPC   D2A23716  19.034  42.346   8.255
 7240POPC   C3A23717  19.072  42.371   7.955
 7240POPC   C4A23718  19.081  42.318   7.655
 7240POPC   C1B23719  18.864  42.513   8.555
 7240POPC   C2B23720  18.826  42.510   8.255
 7240POPC   C3B23721  18.824  42.446   7.955
 7240POPC   C4B23722  18.798  42.486   7.655
 7241POPC   NC323723   5.139  33.789   9.455
 7241POPC   PO423724   5.131  33.848   9.155
 7241POPC   GL123725   5.065  33.802   8.855
 7241POPC   GL223726   5.265  33.765   8.855
 7241POPC   C1A23727   5.081  33.818   8.555
 7241POPC   D2A23728   5.124  33.786   8.255
 7241POPC   C3A23729   5.114  33.765   7.955
 7241POPC   C4A23730   5.055  33.801   7.655
 7241POPC   C1B23731   5.370  33.758   8.555
 7241POPC   C2B23732   5.319  33.757   8.255
 7241POPC   C3B23733   5.376  33.811   7.955
 7241POPC   C4B23734   5.297  33.767   7.655
 7242POPC   NC323735   4.315  39.252   9.455
 7242POPC   PO423736   4.351  39.194   9.155
 7242POPC   GL123737   4.344  39.264   8.855
 7242POPC   GL223738   4.238  39.271   8.855
 7242POPC   C1A23739   4.305  39.281   8.555
 7242POPC   D2A23740   4.348  39.252   8.255
 7242POPC   C3A23741   4.346  39.236   7.955
 7242POPC   C4A23742   4.299  39.260   7.655
 7242POPC   C1B23743   4.090  39.291   8.555
 7242POPC   C2B23744   4.095  39.296   8.255
 7242POPC   C3B23745   4.073  39.300   7.955
 7242POPC   C4B23746   4.091  39.304   7.655
 7243POPC   NC323747  30.684  15.191   9.455
 7243POPC   PO423748  30.663  15.225   9.155
 7243POPC   GL123749  30.685  15.182   8.855
 7243POPC   GL223750  30.644  15.298   8.855
 7243POPC   C1A23751  30.704  15.184   8.555
 7243POPC   D2A23752  30.728  15.217   8.255
 7243POPC   C3A23753  30.742  15.162   7.955
 7243POPC   C4A23754  30.687  15.193   7.655
 7243POPC   C1B23755  30.522  15.332   8.555
 7243POPC   C2B23756  30.542  15.301   8.255
 7243POPC   C3B23757  30.484  15.330   7.955
 7243POPC   C4B23758  30.513  15.302   7.655
 7244POPC   NC323759  12.806   4.343   9.455
 7244POPC   PO423760  12.817   4.276   9.155
 7244POPC   GL123761  12.830   4.311   8.855
 7244POPC   GL223762  13.022   4.330   8.855
 7244POPC   C1A23763  12.832   4.342   8.555
 7244POPC   D2A23764  12.862   4.351   8.255
 7244POPC   C3A23765  12.847   4.360   7.955
 7244POPC   C4A23766  12.840   4.324   7.655
 7244POPC   C1B23767  13.143   4.296   8.555
 7244POPC   C2B23768  13.101   4.208   8.255
 7244POPC   C3B23769  13.062   4.206   7.955
 7244POPC   C4B23770  13.111   4.278   7.655
 7245POPC   NC323771   5.081  21.359   9.455
 7245POPC   PO423772   5.134  21.422   9.155
 7245POPC   GL123773   5.102  21.350   8.855
 7245POPC   GL223774   5.055  21.506   8.855
 7245POPC   C1A23775   5.109  21.339   8.555
 7245POPC   D2A23776   5.140  21.379   8.255
 7245POPC   C3A23777   5.141  21.414   7.955
 7245POPC   C4A23778   5.134  21.408   7.655
 7245POPC   C1B23779   4.928  21.624   8.555
 7245POPC   C2B23780   4.961  21.586   8.255
 7245POPC   C3B23781   4.986  21.581   7.955
 7245POPC   C4B23782   4.905  21.577   7.655
 7246POPC   NC323783   7.432   5.825   9.455
 7246POPC   PO423784   7.439   5.879   9.155
 7246POPC   GL123785   7.417   5.866   8.855
 7246POPC   GL223786   7.437   5.966   8.855
 7246POPC   C1A23787   7.436   5.875   8.555
 7246POPC   D2A23788   7.437   5.900   8.255
 7246POPC   C3A23789   7.466   5.845   7.955
 7246POPC   C4A23790   7.383   5.872   7.655
 7246POPC   C1B23791   7.401   6.106   8.555
 7246POPC   C2B23792   7.413   6.154   8.255
 7246POPC   C3B23793   7.447   6.146   7.955
 7246POPC   C4B23794   7.386   6.150   7.655
 7247POPC   NC323795   2.792   6.630   9.455
 7247POPC   PO423796   2.768   6.694   9.155
 7247POPC   GL123797   2.806   6.639   8.855
 7247POPC   GL223798   2.645   6.560   8.855
 7247POPC   C1A23799   2.747   6.694   8.555
 7247POPC   D2A23800   2.747   6.682   8.255
 7247POPC   C3A23801   2.799   6.622   7.955
 7247POPC   C4A23802   2.776   6.649   7.655
 7247POPC   C1B23803   2.667   6.421   8.555
 7247POPC   C2B23804   2.571   6.484   8.255
 7247POPC   C3B23805   2.572   6.489   7.955
 7247POPC   C4B23806   2.665   6.438   7.655
 7248POPC   NC323807  43.126  35.310   9.455
 7248POPC   PO423808  43.114  35.373   9.155
 7248POPC   GL123809  43.124  35.333   8.855
 7248POPC   GL223810  43.187  35.282   8.855
 7248POPC   C1A23811  43.086  35.308   8.555
 7248POPC   D2A23812  43.070  35.325   8.255
 7248POPC   C3A23813  43.113  35.325   7.955
 7248POPC   C4A23814  43.074  35.350   7.655
 7248POPC   C1B23815  43.217  35.122   8.555
 7248POPC   C2B23816  43.233  35.159   8.255
 7248POPC   C3B23817  43.235  35.137   7.955
 7248POPC   C4B23818  43.201  35.157   7.655
 7249POPC   NC323819  26.027  31.462   9.455
 7249POPC   PO423820  26.077  31.436   9.155
 7249POPC   GL123821  26.017  31.499   8.855
 7249POPC   GL223822  25.886  31.452   8.855
 7249POPC   C1A23823  26.040  31.425   8.555
 7249POPC   D2A23824  26.036  31.474   8.255
 7249POPC   C3A23825  26.002  31.502   7.955
 7249POPC   C4A23826  26.064  31.492   7.655
 7249POPC   C1B23827  25.812  31.408   8.555
 7249POPC   C2B23828  25.767  31.391   8.255
 7249POPC   C3B23829  25.811  31.352   7.955
 7249POPC   C4B23830  25.817  31.424   7.655
 7250POPC   NC323831  12.876  13.597   9.455
 7250POPC   PO423832  12.898  13.615   9.155
 7250POPC   GL123833  12.851  13.619   8.855
 7250POPC   GL223834  12.953  13.739   8.855
 7250POPC   C1A23835  12.830  13.602   8.555
 7250POPC   D2A23836  12.839  13.639   8.255
 7250POPC   C3A23837  12.807  13.583   7.955
 7250POPC   C4A23838  12.848  13.612   7.655
 7250POPC   C1B23839  13.022  13.797   8.555
 7250POPC   C2B23840  13.037  13.820   8.255
 7250POPC   C3B23841  13.071  13.849   7.955
 7250POPC   C4B23842  13.057  13.845   7.655
 7251POPC   NC323843   4.334  12.043   9.455
 7251POPC   PO423844   4.357  12.121   9.155
 7251POPC   GL123845   4.340  12.113   8.855
 7251POPC   GL223846   4.372  12.169   8.855
 7251POPC   C1A23847   4.308  12.095   8.555
 7251POPC   D2A23848   4.316  12.092   8.255
 7251POPC   C3A23849   4.333  12.075   7.955
 7251POPC   C4A23850   4.351  12.050   7.655
 7251POPC   C1B23851   4.339  12.313   8.555
 7251POPC   C2B23852   4.316  12.345   8.255
 7251POPC   C3B23853   4.368  12.300   7.955
 7251POPC   C4B23854   4.348  12.363   7.655
 7252POPC   NC323855  38.504  25.275   9.455
 7252POPC   PO423856  38.454  25.303   9.155
 7252POPC   GL123857  38.424  25.286   8.855
 7252POPC   GL223858  38.374  25.213   8.855
 7252POPC   C1A23859  38.465  25.287   8.555
 7252POPC   D2A23860  38.412  25.271   8.255
 7252POPC   C3A23861  38.481  25.239   7.955
 7252POPC   C4A23862  38.484  25.311   7.655
 7252POPC   C1B23863  38.204  25.246   8.555
 7252POPC   C2B23864  38.240  25.167   8.255
 7252POPC   C3B23865  38.168  25.219   7.955
 7252POPC   C4B23866  38.199  25.230   7.655
 7253POPC   NC323867  18.274  36.869   9.455
 7253POPC   PO423868  18.286  36.868   9.155
 7253POPC   GL123869  18.324  36.881   8.855
 7253POPC   GL223870  18.372  37.000   8.855
 7253POPC   C1A23871  18.313  36.901   8.555
 7253POPC   D2A23872  18.309  36.922   8.255
 7253POPC   C3A23873  18.235  36.891   7.955
 7253POPC   C4A23874  18.260  36.901   7.655
 7253POPC   C1B23875  18.507  37.123   8.555
 7253POPC   C2B23876  18.416  37.033   8.255
 7253POPC   C3B23877  18.416  37.096   7.955
 7253POPC   C4B23878  18.432  37.099   7.655
 7254POPC   NC323879  18.319  27.607   9.455
 7254POPC   PO423880  18.290  27.549   9.155
 7254POPC   GL123881  18.314  27.642   8.855
 7254POPC   GL223882  18.393  27.649   8.855
 7254POPC   C1A23883  18.256  27.558   8.555
 7254POPC   D2A23884  18.251  27.618   8.255
 7254POPC   C3A23885  18.265  27.611   7.955
 7254POPC   C4A23886  18.326  27.583   7.655
 7254POPC   C1B23887  18.434  27.725   8.555
 7254POPC   C2B23888  18.495  27.754   8.255
 7254POPC   C3B23889  18.486  27.733   7.955
 7254POPC   C4B23890  18.486  27.749   7.655
 7255POPC   NC323891   1.228   3.555   9.455
 7255POPC   PO423892   1.194   3.512   9.155
 7255POPC   GL123893   1.234   3.578   8.855
 7255POPC   GL223894   1.176   3.471   8.855
 7255POPC   C1A23895   1.197   3.522   8.555
 7255POPC   D2A23896   1.187   3.525   8.255
 7255POPC   C3A23897   1.202   3.536   7.955
 7255POPC   C4A23898   1.208   3.541   7.655
 7255POPC   C1B23899   1.073   3.319   8.555
 7255POPC   C2B23900   1.068   3.307   8.255
 7255POPC   C3B23901   1.072   3.297   7.955
 7255POPC   C4B23902   1.061   3.289   7.655
 7256POPC   NC323903   2.782   7.403   9.455
 7256POPC   PO423904   2.763   7.445   9.155
 7256POPC   GL123905   2.770   7.377   8.855
 7256POPC   GL223906   2.846   7.552   8.855
 7256POPC   C1A23907   2.758   7.397   8.555
 7256POPC   D2A23908   2.781   7.400   8.255
 7256POPC   C3A23909   2.763   7.375   7.955
 7256POPC   C4A23910   2.790   7.373   7.655
 7256POPC   C1B23911   2.859   7.632   8.555
 7256POPC   C2B23912   2.856   7.606   8.255
 7256POPC   C3B23913   2.927   7.654   7.955
 7256POPC   C4B23914   2.881   7.645   7.655
 7257POPC   NC323915   6.639  21.350   9.455
 7257POPC   PO423916   6.694  21.341   9.155
 7257POPC   GL123917   6.629  21.371   8.855
 7257POPC   GL223918   6.780  21.402   8.855
 7257POPC   C1A23919   6.656  21.430   8.555
 7257POPC   D2A23920   6.693  21.397   8.255
 7257POPC   C3A23921   6.626  21.401   7.955
 7257POPC   C4A23922   6.619  21.345   7.655
 7257POPC   C1B23923   6.888  21.468   8.555
 7257POPC   C2B23924   6.856  21.415   8.255
 7257POPC   C3B23925   6.862  21.452   7.955
 7257POPC   C4B23926   6.854  21.497   7.655
 7258POPC   NC323927  27.574  18.234   9.455
 7258POPC   PO423928  27.557  18.293   9.155
 7258POPC   GL123929  27.560  18.303   8.855
 7258POPC   GL223930  27.470  18.345   8.855
 7258POPC   C1A23931  27.623  18.301   8.555
 7258POPC   D2A23932  27.638  18.300   8.255
 7258POPC   C3A23933  27.580  18.234   7.955
 7258POPC   C4A23934  27.606  18.329   7.655
 7258POPC   C1B23935  27.432  18.460   8.555
 7258POPC   C2B23936  27.448  18.458   8.255
 7258POPC   C3B23937  27.440  18.476   7.955
 7258POPC   C4B23938  27.449  18.406   7.655
 7259POPC   NC323939  20.642   0.424   9.455
 7259POPC   PO423940  20.610   0.483   9.155
 7259POPC   GL123941  20.621   0.450   8.855
 7259POPC   GL223942  20.707   0.386   8.855
 7259POPC   C1A23943  20.632   0.440   8.555
 7259POPC   D2A23944  20.578   0.459   8.255
 7259POPC   C3A23945  20.628   0.453   7.955
 7259POPC   C4A23946  20.612   0.400   7.655
 7259POPC   C1B23947  20.827   0.288   8.555
 7259POPC   C2B23948  20.853   0.256   8.255
 7259POPC   C3B23949  20.800   0.245   7.955
 7259POPC   C4B23950  20.785   0.273   7.655
 7260POPC   NC323951  20.631  12.092   9.455
 7260POPC   PO423952  20.597  12.070   9.155
 7260POPC   GL123953  20.639  12.048   8.855
 7260POPC   GL223954  20.579  11.948   8.855
 7260POPC   C1A23955  20.658  12.075   8.555
 7260POPC   D2A23956  20.630  12.114   8.255
 7260POPC   C3A23957  20.641  12.111   7.955
 7260POPC   C4A23958  20.565  12.056   7.655
 7260POPC   C1B23959  20.559  11.860   8.555
 7260POPC   C2B23960  20.590  11.828   8.255
 7260POPC   C3B23961  20.573  11.789   7.955
 7260POPC   C4B23962  20.581  11.860   7.655
 7261POPC   NC323963  32.986  33.793   9.455
 7261POPC   PO423964  33.005  33.835   9.155
 7261POPC   GL123965  33.047  33.815   8.855
 7261POPC   GL223966  33.162  33.847   8.855
 7261POPC   C1A23967  33.042  33.838   8.555
 7261POPC   D2A23968  33.006  33.823   8.255
 7261POPC   C3A23969  33.010  33.832   7.955
 7261POPC   C4A23970  33.001  33.803   7.655
 7261POPC   C1B23971  33.227  33.938   8.555
 7261POPC   C2B23972  33.189  33.968   8.255
 7261POPC   C3B23973  33.214  33.973   7.955
 7261POPC   C4B23974  33.269  33.891   7.655
 7262POPC   NC323975  11.315  36.154   9.455
 7262POPC   PO423976  11.255  36.083   9.155
 7262POPC   GL123977  11.274  36.147   8.855
 7262POPC   GL223978  11.414  36.117   8.855
 7262POPC   C1A23979  11.291  36.167   8.555
 7262POPC   D2A23980  11.319  36.144   8.255
 7262POPC   C3A23981  11.321  36.145   7.955
 7262POPC   C4A23982  11.294  36.143   7.655
 7262POPC   C1B23983  11.545  36.145   8.555
 7262POPC   C2B23984  11.579  36.113   8.255
 7262POPC   C3B23985  11.525  36.073   7.955
 7262POPC   C4B23986  11.574  36.151   7.655
 7263POPC   NC323987  15.986  27.603   9.455
 7263POPC   PO423988  15.918  27.633   9.155
 7263POPC   GL123989  15.995  27.595   8.855
 7263POPC   GL223990  16.091  27.546   8.855
 7263POPC   C1A23991  15.912  27.618   8.555
 7263POPC   D2A23992  15.983  27.567   8.255
 7263POPC   C3A23993  15.971  27.556   7.955
 7263POPC   C4A23994  15.977  27.606   7.655
 7263POPC   C1B23995  16.157  27.564   8.555
 7263POPC   C2B23996  16.156  27.574   8.255
 7263POPC   C3B23997  16.235  27.545   7.955
 7263POPC   C4B23998  16.179  27.533   7.655
 7264POPC   NC323999  16.775  11.305   9.455
 7264POPC   PO424000  16.722  11.301   9.155
 7264POPC   GL124001  16.739  11.296   8.855
 7264POPC   GL224002  16.744  11.403   8.855
 7264POPC   C1A24003  16.751  11.306   8.555
 7264POPC   D2A24004  16.770  11.327   8.255
 7264POPC   C3A24005  16.714  11.283   7.955
 7264POPC   C4A24006  16.694  11.261   7.655
 7264POPC   C1B24007  16.839  11.545   8.555
 7264POPC   C2B24008  16.823  11.491   8.255
 7264POPC   C3B24009  16.840  11.520   7.955
 7264POPC   C4B24010  16.859  11.530   7.655
 7265POPC   NC324011  26.784  18.235   9.455
 7265POPC   PO424012  26.851  18.291   9.155
 7265POPC   GL124013  26.842  18.254   8.855
 7265POPC   GL224014  26.975  18.346   8.855
 7265POPC   C1A24015  26.778  18.268   8.555
 7265POPC   D2A24016  26.813  18.329   8.255
 7265POPC   C3A24017  26.826  18.325   7.955
 7265POPC   C4A24018  26.778  18.324   7.655
 7265POPC   C1B24019  27.043  18.407   8.555
 7265POPC   C2B24020  27.052  18.318   8.255
 7265POPC   C3B24021  27.075  18.378   7.955
 7265POPC   C4B24022  27.080  18.357   7.655
 7266POPC   NC324023  13.601  22.129   9.455
 7266POPC   PO424024  13.616  22.122   9.155
 7266POPC   GL124025  13.645  22.118   8.855
 7266POPC   GL224026  13.787  22.160   8.855
 7266POPC   C1A24027  13.643  22.117   8.555
 7266POPC   D2A24028  13.617  22.165   8.255
 7266POPC   C3A24029  13.586  22.126   7.955
 7266POPC   C4A24030  13.618  22.188   7.655
 7266POPC   C1B24031  13.821  22.047   8.555
 7266POPC   C2B24032  13.881  22.043   8.255
 7266POPC   C3B24033  13.848  22.112   7.955
 7266POPC   C4B24034  13.889  22.069   7.655
 7267POPC   NC324035  29.188  33.034   9.455
 7267POPC   PO424036  29.146  33.065   9.155
 7267POPC   GL124037  29.116  33.023   8.855
 7267POPC   GL224038  29.292  33.051   8.855
 7267POPC   C1A24039  29.143  33.020   8.555
 7267POPC   D2A24040  29.149  33.073   8.255
 7267POPC   C3A24041  29.120  33.030   7.955
 7267POPC   C4A24042  29.108  33.003   7.655
 7267POPC   C1B24043  29.374  33.026   8.555
 7267POPC   C2B24044  29.414  32.957   8.255
 7267POPC   C3B24045  29.365  32.979   7.955
 7267POPC   C4B24046  29.431  32.971   7.655
 7268POPC   NC324047  32.221  29.899   9.455
 7268POPC   PO424048  32.292  29.917   9.155
 7268POPC   GL124049  32.254  29.904   8.855
 7268POPC   GL224050  32.309  30.034   8.855
 7268POPC   C1A24051  32.202  29.957   8.555
 7268POPC   D2A24052  32.284  29.963   8.255
 7268POPC   C3A24053  32.296  29.872   7.955
 7268POPC   C4A24054  32.221  29.898   7.655
 7268POPC   C1B24055  32.405  30.084   8.555
 7268POPC   C2B24056  32.454  30.024   8.255
 7268POPC   C3B24057  32.463  30.078   7.955
 7268POPC   C4B24058  32.430  30.079   7.655
 7269POPC   NC324059  21.400  23.752   9.455
 7269POPC   PO424060  21.421  23.745   9.155
 7269POPC   GL124061  21.398  23.690   8.855
 7269POPC   GL224062  21.430  23.854   8.855
 7269POPC   C1A24063  21.359  23.724   8.555
 7269POPC   D2A24064  21.392  23.700   8.255
 7269POPC   C3A24065  21.386  23.667   7.955
 7269POPC   C4A24066  21.344  23.748   7.655
 7269POPC   C1B24067  21.533  23.936   8.555
 7269POPC   C2B24068  21.488  23.967   8.255
 7269POPC   C3B24069  21.488  23.899   7.955
 7269POPC   C4B24070  21.537  23.942   7.655
 7270POPC   NC324071  16.694   1.992   9.455
 7270POPC   PO424072  16.727   1.986   9.155
 7270POPC   GL124073  16.762   1.979   8.855
 7270POPC   GL224074  16.697   2.130   8.855
 7270POPC   C1A24075  16.757   2.014   8.555
 7270POPC   D2A24076  16.709   1.969   8.255
 7270POPC   C3A24077  16.774   2.037   7.955
 7270POPC   C4A24078  16.732   1.995   7.655
 7270POPC   C1B24079  16.594   2.177   8.555
 7270POPC   C2B24080  16.580   2.215   8.255
 7270POPC   C3B24081  16.586   2.217   7.955
 7270POPC   C4B24082  16.585   2.201   7.655
 7271POPC   NC324083  16.770  26.783   9.455
 7271POPC   PO424084  16.688  26.839   9.155
 7271POPC   GL124085  16.707  26.833   8.855
 7271POPC   GL224086  16.627  26.659   8.855
 7271POPC   C1A24087  16.705  26.858   8.555
 7271POPC   D2A24088  16.755  26.826   8.255
 7271POPC   C3A24089  16.735  26.819   7.955
 7271POPC   C4A24090  16.715  26.789   7.655
 7271POPC   C1B24091  16.578  26.599   8.555
 7271POPC   C2B24092  16.628  26.620   8.255
 7271POPC   C3B24093  16.604  26.573   7.955
 7271POPC   C4B24094  16.613  26.594   7.655
 7272POPC   NC324095  39.246  13.592   9.455
 7272POPC   PO424096  39.216  13.672   9.155
 7272POPC   GL124097  39.255  13.584   8.855
 7272POPC   GL224098  39.312  13.487   8.855
 7272POPC   C1A24099  39.206  13.666   8.555
 7272POPC   D2A24100  39.253  13.652   8.255
 7272POPC   C3A24101  39.280  13.639   7.955
 7272POPC   C4A24102  39.208  13.638   7.655
 7272POPC   C1B24103  39.399  13.403   8.555
 7272POPC   C2B24104  39.394  13.446   8.255
 7272POPC   C3B24105  39.440  13.411   7.955
 7272POPC   C4B24106  39.377  13.419   7.655
 7273POPC   NC324107  27.595  40.808   9.455
 7273POPC   PO424108  27.545  40.775   9.155
 7273POPC   GL124109  27.606  40.808   8.855
 7273POPC   GL224110  27.550  40.650   8.855
 7273POPC   C1A24111  27.590  40.799   8.555
 7273POPC   D2A24112  27.599  40.764   8.255
 7273POPC   C3A24113  27.578  40.805   7.955
 7273POPC   C4A24114  27.636  40.826   7.655
 7273POPC   C1B24115  27.498  40.509   8.555
 7273POPC   C2B24116  27.515  40.503   8.255
 7273POPC   C3B24117  27.466  40.533   7.955
 7273POPC   C4B24118  27.485  40.541   7.655
 7274POPC   NC324119  29.117  26.066   9.455
 7274POPC   PO424120  29.102  26.033   9.155
 7274POPC   GL124121  29.171  26.038   8.855
 7274POPC   GL224122  29.169  25.964   8.855
 7274POPC   C1A24123  29.122  26.053   8.555
 7274POPC   D2A24124  29.170  26.033   8.255
 7274POPC   C3A24125  29.096  26.039   7.955
 7274POPC   C4A24126  29.134  26.016   7.655
 7274POPC   C1B24127  29.069  25.832   8.555
 7274POPC   C2B24128  29.161  25.773   8.255
 7274POPC   C3B24129  29.151  25.792   7.955
 7274POPC   C4B24130  29.083  25.838   7.655
 7275POPC   NC324131  43.898  32.273   9.455
 7275POPC   PO424132  43.894  32.234   9.155
 7275POPC   GL124133  43.914  32.238   8.855
 7275POPC   GL224134  43.932  32.167   8.855
 7275POPC   C1A24135  43.920  32.212   8.555
 7275POPC   D2A24136  43.850  32.294   8.255
 7275POPC   C3A24137  43.917  32.268   7.955
 7275POPC   C4A24138  43.895  32.221   7.655
 7275POPC   C1B24139  43.985  31.980   8.555
 7275POPC   C2B24140  44.028  31.986   8.255
 7275POPC   C3B24141  43.983  32.051   7.955
 7275POPC   C4B24142  44.028  32.039   7.655
 7276POPC   NC324143  39.212  23.752   9.455
 7276POPC   PO424144  39.209  23.710   9.155
 7276POPC   GL124145  39.266  23.754   8.855
 7276POPC   GL224146  39.334  23.672   8.855
 7276POPC   C1A24147  39.271  23.742   8.555
 7276POPC   D2A24148  39.209  23.710   8.255
 7276POPC   C3A24149  39.236  23.731   7.955
 7276POPC   C4A24150  39.260  23.672   7.655
 7276POPC   C1B24151  39.434  23.509   8.555
 7276POPC   C2B24152  39.377  23.580   8.255
 7276POPC   C3B24153  39.444  23.580   7.955
 7276POPC   C4B24154  39.458  23.528   7.655
 7277POPC   NC324155   8.241  31.491   9.455
 7277POPC   PO424156   8.174  31.488   9.155
 7277POPC   GL124157   8.150  31.499   8.855
 7277POPC   GL224158   8.306  31.412   8.855
 7277POPC   C1A24159   8.185  31.520   8.555
 7277POPC   D2A24160   8.147  31.441   8.255
 7277POPC   C3A24161   8.219  31.480   7.955
 7277POPC   C4A24162   8.196  31.474   7.655
 7277POPC   C1B24163   8.418  31.309   8.555
 7277POPC   C2B24164   8.408  31.384   8.255
 7277POPC   C3B24165   8.410  31.286   7.955
 7277POPC   C4B24166   8.392  31.357   7.655
 7278POPC   NC324167   0.437   7.387   9.455
 7278POPC   PO424168   0.435   7.442   9.155
 7278POPC   GL124169   0.453   7.460   8.855
 7278POPC   GL224170   0.381   7.335   8.855
 7278POPC   C1A24171   0.396   7.383   8.555
 7278POPC   D2A24172   0.438   7.445   8.255
 7278POPC   C3A24173   0.483   7.405   7.955
 7278POPC   C4A24174   0.398   7.451   7.655
 7278POPC   C1B24175   0.191   7.296   8.555
 7278POPC   C2B24176   0.202   7.294   8.255
 7278POPC   C3B24177   0.223   7.283   7.955
 7278POPC   C4B24178   0.249   7.316   7.655
 7279POPC   NC324179   9.770  37.704   9.455
 7279POPC   PO424180   9.781  37.659   9.155
 7279POPC   GL124181   9.777  37.686   8.855
 7279POPC   GL224182   9.633  37.678   8.855
 7279POPC   C1A24183   9.780  37.648   8.555
 7279POPC   D2A24184   9.706  37.691   8.255
 7279POPC   C3A24185   9.771  37.698   7.955
 7279POPC   C4A24186   9.724  37.713   7.655
 7279POPC   C1B24187   9.501  37.716   8.555
 7279POPC   C2B24188   9.507  37.653   8.255
 7279POPC   C3B24189   9.538  37.655   7.955
 7279POPC   C4B24190   9.525  37.653   7.655
 7280POPC   NC324191   2.763  40.734   9.455
 7280POPC   PO424192   2.751  40.737   9.155
 7280POPC   GL124193   2.785  40.815   8.855
 7280POPC   GL224194   2.682  40.836   8.855
 7280POPC   C1A24195   2.725  40.793   8.555
 7280POPC   D2A24196   2.800  40.804   8.255
 7280POPC   C3A24197   2.777  40.807   7.955
 7280POPC   C4A24198   2.756  40.796   7.655
 7280POPC   C1B24199   2.633  40.978   8.555
 7280POPC   C2B24200   2.655  40.959   8.255
 7280POPC   C3B24201   2.647  40.980   7.955
 7280POPC   C4B24202   2.636  41.016   7.655
 7281POPC   NC324203  44.627  16.744   9.455
 7281POPC   PO424204  44.617  16.700   9.155
 7281POPC   GL124205  44.621  16.705   8.855
 7281POPC   GL224206  44.613  16.813   8.855
 7281POPC   C1A24207  44.686  16.710   8.555
 7281POPC   D2A24208  44.621  16.779   8.255
 7281POPC   C3A24209  44.657  16.735   7.955
 7281POPC   C4A24210  44.679  16.753   7.655
 7281POPC   C1B24211  44.458  16.893   8.555
 7281POPC   C2B24212  44.515  16.923   8.255
 7281POPC   C3B24213  44.452  16.925   7.955
 7281POPC   C4B24214  44.453  16.871   7.655
 7282POPC   NC324215  35.346   8.225   9.455
 7282POPC   PO424216  35.398   8.160   9.155
 7282POPC   GL124217  35.378   8.152   8.855
 7282POPC   GL224218  35.469   8.255   8.855
 7282POPC   C1A24219  35.362   8.190   8.555
 7282POPC   D2A24220  35.358   8.151   8.255
 7282POPC   C3A24221  35.326   8.173   7.955
 7282POPC   C4A24222  35.360   8.206   7.655
 7282POPC   C1B24223  35.534   8.301   8.555
 7282POPC   C2B24224  35.584   8.310   8.255
 7282POPC   C3B24225  35.619   8.308   7.955
 7282POPC   C4B24226  35.602   8.260   7.655
 7283POPC   NC324227  43.901  43.901   9.455
 7283POPC   PO424228  43.874  43.875   9.155
 7283POPC   GL124229  43.926  43.925   8.855
 7283POPC   GL224230  43.850  43.824   8.855
 7283POPC   C1A24231  43.893  43.915   8.555
 7283POPC   D2A24232  43.845  43.899   8.255
 7283POPC   C3A24233  43.877  43.890   7.955
 7283POPC   C4A24234  43.892  43.838   7.655
 7283POPC   C1B24235  43.748  43.701   8.555
 7283POPC   C2B24236  43.751  43.723   8.255
 7283POPC   C3B24237  43.771  43.738   7.955
 7283POPC   C4B24238  43.694  43.698   7.655
 7284POPC   NC324239  41.519  12.831   9.455
 7284POPC   PO424240  41.556  12.868   9.155
 7284POPC   GL124241  41.585  12.887   8.855
 7284POPC   GL224242  41.666  12.768   8.855
 7284POPC   C1A24243  41.512  12.828   8.555
 7284POPC   D2A24244  41.544  12.859   8.255
 7284POPC   C3A24245  41.567  12.896   7.955
 7284POPC   C4A24246  41.559  12.861   7.655
 7284POPC   C1B24247  41.841  12.819   8.555
 7284POPC   C2B24248  41.839  12.774   8.255
 7284POPC   C3B24249  41.755  12.751   7.955
 7284POPC   C4B24250  41.801  12.757   7.655
 7285POPC   NC324251  41.525  22.144   9.455
 7285POPC   PO424252  41.520  22.174   9.155
 7285POPC   GL124253  41.558  22.164   8.855
 7285POPC   GL224254  41.547  22.321   8.855
 7285POPC   C1A24255  41.535  22.119   8.555
 7285POPC   D2A24256  41.522  22.118   8.255
 7285POPC   C3A24257  41.521  22.118   7.955
 7285POPC   C4A24258  41.558  22.177   7.655
 7285POPC   C1B24259  41.472  22.451   8.555
 7285POPC   C2B24260  41.471  22.373   8.255
 7285POPC   C3B24261  41.467  22.433   7.955
 7285POPC   C4B24262  41.457  22.394   7.655
 7286POPC   NC324263  40.828  29.112   9.455
 7286POPC   PO424264  40.830  29.114   9.155
 7286POPC   GL124265  40.802  29.165   8.855
 7286POPC   GL224266  40.698  29.054   8.855
 7286POPC   C1A24267  40.733  29.176   8.555
 7286POPC   D2A24268  40.792  29.147   8.255
 7286POPC   C3A24269  40.818  29.171   7.955
 7286POPC   C4A24270  40.809  29.141   7.655
 7286POPC   C1B24271  40.611  28.952   8.555
 7286POPC   C2B24272  40.684  28.957   8.255
 7286POPC   C3B24273  40.671  28.987   7.955
 7286POPC   C4B24274  40.606  28.975   7.655
 7287POPC   NC324275  10.505  12.031   9.455
 7287POPC   PO424276  10.485  12.031   9.155
 7287POPC   GL124277  10.569  12.109   8.855
 7287POPC   GL224278  10.426  12.008   8.855
 7287POPC   C1A24279  10.511  12.113   8.555
 7287POPC   D2A24280  10.566  12.102   8.255
 7287POPC   C3A24281  10.571  12.090   7.955
 7287POPC   C4A24282  10.486  12.028   7.655
 7287POPC   C1B24283  10.262  11.972   8.555
 7287POPC   C2B24284  10.313  12.022   8.255
 7287POPC   C3B24285  10.273  11.963   7.955
 7287POPC   C4B24286  10.239  11.956   7.655
 7288POPC   NC324287   1.967  15.947   9.455
 7288POPC   PO424288   1.972  15.950   9.155
 7288POPC   GL124289   2.007  15.919   8.855
 7288POPC   GL224290   2.082  15.973   8.855
 7288POPC   C1A24291   1.950  15.914   8.555
 7288POPC   D2A24292   1.965  15.961   8.255
 7288POPC   C3A24293   1.967  15.965   7.955
 7288POPC   C4A24294   2.021  15.917   7.655
 7288POPC   C1B24295   2.286  15.994   8.555
 7288POPC   C2B24296   2.225  15.974   8.255
 7288POPC   C3B24297   2.228  15.896   7.955
 7288POPC   C4B24298   2.278  15.923   7.655
 7289POPC   NC324299  33.048   1.194   9.455
 7289POPC   PO424300  32.997   1.192   9.155
 7289POPC   GL124301  32.997   1.191   8.855
 7289POPC   GL224302  32.962   1.290   8.855
 7289POPC   C1A24303  33.015   1.178   8.555
 7289POPC   D2A24304  33.061   1.183   8.255
 7289POPC   C3A24305  33.043   1.199   7.955
 7289POPC   C4A24306  33.052   1.224   7.655
 7289POPC   C1B24307  32.870   1.424   8.555
 7289POPC   C2B24308  32.919   1.406   8.255
 7289POPC   C3B24309  32.949   1.489   7.955
 7289POPC   C4B24310  32.932   1.403   7.655
 7290POPC   NC324311  38.415  20.606   9.455
 7290POPC   PO424312  38.489  20.564   9.155
 7290POPC   GL124313  38.432  20.611   8.855
 7290POPC   GL224314  38.613  20.654   8.855
 7290POPC   C1A24315  38.474  20.627   8.555
 7290POPC   D2A24316  38.440  20.581   8.255
 7290POPC   C3A24317  38.407  20.569   7.955
 7290POPC   C4A24318  38.418  20.632   7.655
 7290POPC   C1B24319  38.742  20.660   8.555
 7290POPC   C2B24320  38.666  20.643   8.255
 7290POPC   C3B24321  38.726  20.678   7.955
 7290POPC   C4B24322  38.684  20.701   7.655
 7291POPC   NC324323  21.355  24.453   9.455
 7291POPC   PO424324  21.416  24.513   9.155
 7291POPC   GL124325  21.401  24.535   8.855
 7291POPC   GL224326  21.445  24.595   8.855
 7291POPC   C1A24327  21.358  24.513   8.555
 7291POPC   D2A24328  21.391  24.477   8.255
 7291POPC   C3A24329  21.406  24.467   7.955
 7291POPC   C4A24330  21.387  24.501   7.655
 7291POPC   C1B24331  21.460  24.750   8.555
 7291POPC   C2B24332  21.454  24.764   8.255
 7291POPC   C3B24333  21.435  24.697   7.955
 7291POPC   C4B24334  21.445  24.771   7.655
 7292POPC   NC324335  14.367  16.707   9.455
 7292POPC   PO424336  14.444  16.781   9.155
 7292POPC   GL124337  14.372  16.718   8.855
 7292POPC   GL224338  14.505  16.661   8.855
 7292POPC   C1A24339  14.415  16.737   8.555
 7292POPC   D2A24340  14.366  16.708   8.255
 7292POPC   C3A24341  14.386  16.778   7.955
 7292POPC   C4A24342  14.379  16.687   7.655
 7292POPC   C1B24343  14.666  16.617   8.555
 7292POPC   C2B24344  14.609  16.629   8.255
 7292POPC   C3B24345  14.680  16.661   7.955
 7292POPC   C4B24346  14.609  16.700   7.655
 7293POPC   NC324347  20.625  29.889   9.455
 7293POPC   PO424348  20.653  29.959   9.155
 7293POPC   GL124349  20.586  29.935   8.855
 7293POPC   GL224350  20.457  29.838   8.855
 7293POPC   C1A24351  20.591  29.871   8.555
 7293POPC   D2A24352  20.654  29.921   8.255
 7293POPC   C3A24353  20.582  29.923   7.955
 7293POPC   C4A24354  20.657  29.965   7.655
 7293POPC   C1B24355  20.399  29.872   8.555
 7293POPC   C2B24356  20.364  29.800   8.255
 7293POPC   C3B24357  20.417  29.889   7.955
 7293POPC   C4B24358  20.400  29.865   7.655
 7294POPC   NC324359  15.211  30.687   9.455
 7294POPC   PO424360  15.136  30.698   9.155
 7294POPC   GL124361  15.192  30.673   8.855
 7294POPC   GL224362  15.201  30.629   8.855
 7294POPC   C1A24363  15.148  30.699   8.555
 7294POPC   D2A24364  15.224  30.650   8.255
 7294POPC   C3A24365  15.136  30.743   7.955
 7294POPC   C4A24366  15.145  30.729   7.655
 7294POPC   C1B24367  15.303  30.433   8.555
 7294POPC   C2B24368  15.314  30.497   8.255
 7294POPC   C3B24369  15.255  30.449   7.955
 7294POPC   C4B24370  15.318  30.475   7.655
 7295POPC   NC324371   9.788  19.874   9.455
 7295POPC   PO424372   9.769  19.838   9.155
 7295POPC   GL124373   9.704  19.836   8.855
 7295POPC   GL224374   9.635  19.715   8.855
 7295POPC   C1A24375   9.763  19.829   8.555
 7295POPC   D2A24376   9.744  19.878   8.255
 7295POPC   C3A24377   9.756  19.828   7.955
 7295POPC   C4A24378   9.701  19.810   7.655
 7295POPC   C1B24379   9.619  19.649   8.555
 7295POPC   C2B24380   9.553  19.612   8.255
 7295POPC   C3B24381   9.577  19.631   7.955
 7295POPC   C4B24382   9.579  19.629   7.655
 7296POPC   NC324383  25.224   9.721   9.455
 7296POPC   PO424384  25.264   9.772   9.155
 7296POPC   GL124385  25.311   9.756   8.855
 7296POPC   GL224386  25.365   9.747   8.855
 7296POPC   C1A24387  25.277   9.718   8.555
 7296POPC   D2A24388  25.310   9.743   8.255
 7296POPC   C3A24389  25.216   9.716   7.955
 7296POPC   C4A24390  25.235   9.708   7.655
 7296POPC   C1B24391  25.490   9.660   8.555
 7296POPC   C2B24392  25.517   9.694   8.255
 7296POPC   C3B24393  25.524   9.687   7.955
 7296POPC   C4B24394  25.553   9.715   7.655
 7297POPC   NC324395   7.421   7.386   9.455
 7297POPC   PO424396   7.455   7.400   9.155
 7297POPC   GL124397   7.393   7.420   8.855
 7297POPC   GL224398   7.265   7.422   8.855
 7297POPC   C1A24399   7.445   7.377   8.555
 7297POPC   D2A24400   7.460   7.437   8.255
 7297POPC   C3A24401   7.460   7.392   7.955
 7297POPC   C4A24402   7.445   7.385   7.655
 7297POPC   C1B24403   7.146   7.534   8.555
 7297POPC   C2B24404   7.207   7.484   8.255
 7297POPC   C3B24405   7.210   7.497   7.955
 7297POPC   C4B24406   7.199   7.503   7.655
 7298POPC   NC324407   4.359   8.954   9.455
 7298POPC   PO424408   4.309   8.923   9.155
 7298POPC   GL124409   4.331   8.952   8.855
 7298POPC   GL224410   4.404   8.862   8.855
 7298POPC   C1A24411   4.295   8.971   8.555
 7298POPC   D2A24412   4.284   8.984   8.255
 7298POPC   C3A24413   4.343   8.969   7.955
 7298POPC   C4A24414   4.284   8.997   7.655
 7298POPC   C1B24415   4.436   8.728   8.555
 7298POPC   C2B24416   4.509   8.811   8.255
 7298POPC   C3B24417   4.456   8.778   7.955
 7298POPC   C4B24418   4.445   8.742   7.655
 7299POPC   NC324419   9.715  12.813   9.455
 7299POPC   PO424420   9.778  12.814   9.155
 7299POPC   GL124421   9.705  12.832   8.855
 7299POPC   GL224422   9.775  12.724   8.855
 7299POPC   C1A24423   9.748  12.891   8.555
 7299POPC   D2A24424   9.738  12.881   8.255
 7299POPC   C3A24425   9.756  12.848   7.955
 7299POPC   C4A24426   9.794  12.829   7.655
 7299POPC   C1B24427   9.826  12.634   8.555
 7299POPC   C2B24428   9.769  12.566   8.255
 7299POPC   C3B24429   9.809  12.595   7.955
 7299POPC   C4B24430   9.741  12.604   7.655
 7300POPC   NC324431   0.430  37.708   9.455
 7300POPC   PO424432   0.474  37.701   9.155
 7300POPC   GL124433   0.446  37.687   8.855
 7300POPC   GL224434   0.415  37.754   8.855
 7300POPC   C1A24435   0.447  37.693   8.555
 7300POPC   D2A24436   0.486  37.703   8.255
 7300POPC   C3A24437   0.422  37.698   7.955
 7300POPC   C4A24438   0.441  37.646   7.655
 7300POPC   C1B24439   0.281  37.860   8.555
 7300POPC   C2B24440   0.332  37.878   8.255
 7300POPC   C3B24441   0.282  37.889   7.955
 7300POPC   C4B24442   0.350  37.892   7.655
 7301POPC   NC324443  17.534  30.728   9.455
 7301POPC   PO424444  17.481  30.655   9.155
 7301POPC   GL124445  17.480  30.719   8.855
 7301POPC   GL224446  17.383  30.660   8.855
 7301POPC   C1A24447  17.534  30.746   8.555
 7301POPC   D2A24448  17.495  30.738   8.255
 7301POPC   C3A24449  17.460  30.717   7.955
 7301POPC   C4A24450  17.512  30.648   7.655
 7301POPC   C1B24451  17.303  30.617   8.555
 7301POPC   C2B24452  17.266  30.679   8.255
 7301POPC   C3B24453  17.270  30.619   7.955
 7301POPC   C4B24454  17.279  30.596   7.655
 7302POPC   NC324455  26.048  33.820   9.455
 7302POPC   PO424456  26.028  33.768   9.155
 7302POPC   GL124457  26.002  33.752   8.855
 7302POPC   GL224458  25.981  33.728   8.855
 7302POPC   C1A24459  26.059  33.834   8.555
 7302POPC   D2A24460  26.068  33.838   8.255
 7302POPC   C3A24461  26.029  33.811   7.955
 7302POPC   C4A24462  26.083  33.756   7.655
 7302POPC   C1B24463  25.924  33.577   8.555
 7302POPC   C2B24464  25.895  33.598   8.255
 7302POPC   C3B24465  25.924  33.557   7.955
 7302POPC   C4B24466  25.843  33.635   7.655
 7303POPC   NC324467   1.176  43.131   9.455
 7303POPC   PO424468   1.178  43.076   9.155
 7303POPC   GL124469   1.181  43.156   8.855
 7303POPC   GL224470   1.078  43.046   8.855
 7303POPC   C1A24471   1.175  43.144   8.555
 7303POPC   D2A24472   1.195  43.151   8.255
 7303POPC   C3A24473   1.219  43.084   7.955
 7303POPC   C4A24474   1.224  43.150   7.655
 7303POPC   C1B24475   1.017  42.981   8.555
 7303POPC   C2B24476   0.992  42.980   8.255
 7303POPC   C3B24477   1.001  42.995   7.955
 7303POPC   C4B24478   0.997  42.925   7.655
 7304POPC   NC324479  30.740   8.984   9.455
 7304POPC   PO424480  30.700   8.941   9.155
 7304POPC   GL124481  30.657   8.933   8.855
 7304POPC   GL224482  30.702   9.125   8.855
 7304POPC   C1A24483  30.672   8.935   8.555
 7304POPC   D2A24484  30.745   9.005   8.255
 7304POPC   C3A24485  30.663   8.958   7.955
 7304POPC   C4A24486  30.691   8.974   7.655
 7304POPC   C1B24487  30.771   9.229   8.555
 7304POPC   C2B24488  30.707   9.224   8.255
 7304POPC   C3B24489  30.702   9.198   7.955
 7304POPC   C4B24490  30.715   9.239   7.655
 7305POPC   NC324491  36.147  39.205   9.455
 7305POPC   PO424492  36.119  39.265   9.155
 7305POPC   GL124493  36.127  39.197   8.855
 7305POPC   GL224494  36.136  39.361   8.855
 7305POPC   C1A24495  36.173  39.247   8.555
 7305POPC   D2A24496  36.091  39.217   8.255
 7305POPC   C3A24497  36.142  39.221   7.955
 7305POPC   C4A24498  36.084  39.238   7.655
 7305POPC   C1B24499  36.261  39.422   8.555
 7305POPC   C2B24500  36.234  39.423   8.255
 7305POPC   C3B24501  36.281  39.497   7.955
 7305POPC   C4B24502  36.215  39.477   7.655
 7306POPC   NC324503  12.810  39.185   9.455
 7306POPC   PO424504  12.900  39.281   9.155
 7306POPC   GL124505  12.878  39.210   8.855
 7306POPC   GL224506  12.852  39.384   8.855
 7306POPC   C1A24507  12.829  39.200   8.555
 7306POPC   D2A24508  12.858  39.205   8.255
 7306POPC   C3A24509  12.838  39.247   7.955
 7306POPC   C4A24510  12.892  39.265   7.655
 7306POPC   C1B24511  12.826  39.444   8.555
 7306POPC   C2B24512  12.841  39.504   8.255
 7306POPC   C3B24513  12.797  39.450   7.955
 7306POPC   C4B24514  12.858  39.465   7.655
 7307POPC   NC324515  11.303  30.683   9.455
 7307POPC   PO424516  11.342  30.669   9.155
 7307POPC   GL124517  11.294  30.662   8.855
 7307POPC   GL224518  11.215  30.593   8.855
 7307POPC   C1A24519  11.277  30.669   8.555
 7307POPC   D2A24520  11.262  30.657   8.255
 7307POPC   C3A24521  11.268  30.699   7.955
 7307POPC   C4A24522  11.287  30.655   7.655
 7307POPC   C1B24523  11.126  30.570   8.555
 7307POPC   C2B24524  11.083  30.610   8.255
 7307POPC   C3B24525  11.053  30.568   7.955
 7307POPC   C4B24526  11.097  30.598   7.655
 7308POPC   NC324527  31.476   1.971   9.455
 7308POPC   PO424528  31.496   1.963   9.155
 7308POPC   GL124529  31.458   2.005   8.855
 7308POPC   GL224530  31.429   1.929   8.855
 7308POPC   C1A24531  31.462   1.987   8.555
 7308POPC   D2A24532  31.470   1.999   8.255
 7308POPC   C3A24533  31.435   2.033   7.955
 7308POPC   C4A24534  31.483   1.985   7.655
 7308POPC   C1B24535  31.370   1.761   8.555
 7308POPC   C2B24536  31.306   1.787   8.255
 7308POPC   C3B24537  31.327   1.809   7.955
 7308POPC   C4B24538  31.358   1.738   7.655
 7309POPC   NC324539  40.799  36.156   9.455
 7309POPC   PO424540  40.745  36.172   9.155
 7309POPC   GL124541  40.831  36.087   8.855
 7309POPC   GL224542  40.698  36.050   8.855
 7309POPC   C1A24543  40.738  36.122   8.555
 7309POPC   D2A24544  40.769  36.147   8.255
 7309POPC   C3A24545  40.757  36.144   7.955
 7309POPC   C4A24546  40.809  36.090   7.655
 7309POPC   C1B24547  40.624  35.886   8.555
 7309POPC   C2B24548  40.674  35.875   8.255
 7309POPC   C3B24549  40.709  35.881   7.955
 7309POPC   C4B24550  40.629  35.871   7.655
 7310POPC   NC324551  39.273  14.445   9.455
 7310POPC   PO424552  39.271  14.394   9.155
 7310POPC   GL124553  39.220  14.358   8.855
 7310POPC   GL224554  39.108  14.478   8.855
 7310POPC   C1A24555  39.230  14.362   8.555
 7310POPC   D2A24556  39.199  14.371   8.255
 7310POPC   C3A24557  39.211  14.427   7.955
 7310POPC   C4A24558  39.201  14.383   7.655
 7310POPC   C1B24559  39.025  14.600   8.555
 7310POPC   C2B24560  39.025  14.544   8.255
 7310POPC   C3B24561  39.058  14.610   7.955
 7310POPC   C4B24562  39.070  14.603   7.655
 7311POPC   NC324563  36.866  29.174   9.455
 7311POPC   PO424564  36.949  29.159   9.155
 7311POPC   GL124565  36.893  29.106   8.855
 7311POPC   GL224566  37.004  29.274   8.855
 7311POPC   C1A24567  36.932  29.193   8.555
 7311POPC   D2A24568  36.897  29.191   8.255
 7311POPC   C3A24569  36.951  29.133   7.955
 7311POPC   C4A24570  36.919  29.141   7.655
 7311POPC   C1B24571  37.072  29.358   8.555
 7311POPC   C2B24572  37.107  29.343   8.255
 7311POPC   C3B24573  37.086  29.334   7.955
 7311POPC   C4B24574  37.096  29.306   7.655
 7312POPC   NC324575  18.242  43.070   9.455
 7312POPC   PO424576  18.333  43.139   9.155
 7312POPC   GL124577  18.265  43.160   8.855
 7312POPC   GL224578  18.222  43.193   8.855
 7312POPC   C1A24579  18.273  43.065   8.555
 7312POPC   D2A24580  18.260  43.121   8.255
 7312POPC   C3A24581  18.308  43.148   7.955
 7312POPC   C4A24582  18.301  43.091   7.655
 7312POPC   C1B24583  18.137  43.346   8.555
 7312POPC   C2B24584  18.207  43.344   8.255
 7312POPC   C3B24585  18.208  43.377   7.955
 7312POPC   C4B24586  18.185  43.363   7.655
 7313POPC   NC324587   1.258  15.951   9.455
 7313POPC   PO424588   1.215  15.919   9.155
 7313POPC   GL124589   1.205  15.983   8.855
 7313POPC   GL224590   1.331  15.969   8.855
 7313POPC   C1A24591   1.222  15.970   8.555
 7313POPC   D2A24592   1.249  16.002   8.255
 7313POPC   C3A24593   1.228  15.998   7.955
 7313POPC   C4A24594   1.237  15.926   7.655
 7313POPC   C1B24595   1.469  15.870   8.555
 7313POPC   C2B24596   1.473  15.915   8.255
 7313POPC   C3B24597   1.479  15.931   7.955
 7313POPC   C4B24598   1.471  15.902   7.655
 7314POPC   NC324599  22.186  28.384   9.455
 7314POPC   PO424600  22.181  28.350   9.155
 7314POPC   GL124601  22.165  28.335   8.855
 7314POPC   GL224602  22.196  28.214   8.855
 7314POPC   C1A24603  22.168  28.352   8.555
 7314POPC   D2A24604  22.160  28.398   8.255
 7314POPC   C3A24605  22.139  28.375   7.955
 7314POPC   C4A24606  22.123  28.342   7.655
 7314POPC   C1B24607  22.120  28.104   8.555
 7314POPC   C2B24608  22.151  28.155   8.255
 7314POPC   C3B24609  22.103  28.118   7.955
 7314POPC   C4B24610  22.136  28.136   7.655
 7315POPC   NC324611  41.543  42.320   9.455
 7315POPC   PO424612  41.546  42.364   9.155
 7315POPC   GL124613  41.519  42.335   8.855
 7315POPC   GL224614  41.564  42.233   8.855
 7315POPC   C1A24615  41.509  42.358   8.555
 7315POPC   D2A24616  41.538  42.314   8.255
 7315POPC   C3A24617  41.555  42.304   7.955
 7315POPC   C4A24618  41.511  42.380   7.655
 7315POPC   C1B24619  41.557  42.081   8.555
 7315POPC   C2B24620  41.552  42.129   8.255
 7315POPC   C3B24621  41.520  42.105   7.955
 7315POPC   C4B24622  41.533  42.068   7.655
 7316POPC   NC324623  30.745  10.509   9.455
 7316POPC   PO424624  30.657  10.507   9.155
 7316POPC   GL124625  30.653  10.517   8.855
 7316POPC   GL224626  30.712  10.665   8.855
 7316POPC   C1A24627  30.662  10.540   8.555
 7316POPC   D2A24628  30.683  10.502   8.255
 7316POPC   C3A24629  30.742  10.558   7.955
 7316POPC   C4A24630  30.661  10.501   7.655
 7316POPC   C1B24631  30.828  10.697   8.555
 7316POPC   C2B24632  30.837  10.743   8.255
 7316POPC   C3B24633  30.848  10.749   7.955
 7316POPC   C4B24634  30.795  10.741   7.655
 7317POPC   NC324635   5.870  36.177   9.455
 7317POPC   PO424636   5.838  36.095   9.155
 7317POPC   GL124637   5.843  36.165   8.855
 7317POPC   GL224638   5.934  36.046   8.855
 7317POPC   C1A24639   5.909  36.127   8.555
 7317POPC   D2A24640   5.826  36.158   8.255
 7317POPC   C3A24641   5.882  36.141   7.955
 7317POPC   C4A24642   5.892  36.110   7.655
 7317POPC   C1B24643   5.870  35.832   8.555
 7317POPC   C2B24644   5.867  35.832   8.255
 7317POPC   C3B24645   5.893  35.927   7.955
 7317POPC   C4B24646   5.856  35.917   7.655
 7318POPC   NC324647  39.222  16.698   9.455
 7318POPC   PO424648  39.259  16.695   9.155
 7318POPC   GL124649  39.256  16.772   8.855
 7318POPC   GL224650  39.120  16.871   8.855
 7318POPC   C1A24651  39.261  16.726   8.555
 7318POPC   D2A24652  39.225  16.736   8.255
 7318POPC   C3A24653  39.195  16.709   7.955
 7318POPC   C4A24654  39.195  16.751   7.655
 7318POPC   C1B24655  39.115  16.936   8.555
 7318POPC   C2B24656  39.079  16.989   8.255
 7318POPC   C3B24657  39.074  16.979   7.955
 7318POPC   C4B24658  39.148  16.906   7.655
 7319POPC   NC324659  27.611  25.313   9.455
 7319POPC   PO424660  27.613  25.277   9.155
 7319POPC   GL124661  27.566  25.246   8.855
 7319POPC   GL224662  27.518  25.194   8.855
 7319POPC   C1A24663  27.590  25.290   8.555
 7319POPC   D2A24664  27.604  25.315   8.255
 7319POPC   C3A24665  27.591  25.218   7.955
 7319POPC   C4A24666  27.596  25.274   7.655
 7319POPC   C1B24667  27.396  25.204   8.555
 7319POPC   C2B24668  27.343  25.161   8.255
 7319POPC   C3B24669  27.353  25.122   7.955
 7319POPC   C4B24670  27.381  25.162   7.655
 7320POPC   NC324671  36.913  21.357   9.455
 7320POPC   PO424672  36.856  21.433   9.155
 7320POPC   GL124673  36.950  21.431   8.855
 7320POPC   GL224674  36.893  21.251   8.855
 7320POPC   C1A24675  36.908  21.361   8.555
 7320POPC   D2A24676  36.886  21.403   8.255
 7320POPC   C3A24677  36.948  21.392   7.955
 7320POPC   C4A24678  36.938  21.406   7.655
 7320POPC   C1B24679  36.951  21.158   8.555
 7320POPC   C2B24680  36.910  21.149   8.255
 7320POPC   C3B24681  36.892  21.101   7.955
 7320POPC   C4B24682  36.916  21.156   7.655
 7321POPC   NC324683   5.898  39.963   9.455
 7321POPC   PO424684   5.882  39.962   9.155
 7321POPC   GL124685   5.848  39.961   8.855
 7321POPC   GL224686   5.795  40.008   8.855
 7321POPC   C1A24687   5.865  40.017   8.555
 7321POPC   D2A24688   5.819  39.967   8.255
 7321POPC   C3A24689   5.891  40.050   7.955
 7321POPC   C4A24690   5.868  40.002   7.655
 7321POPC   C1B24691   5.674  39.900   8.555
 7321POPC   C2B24692   5.677  39.923   8.255
 7321POPC   C3B24693   5.631  39.981   7.955
 7321POPC   C4B24694   5.654  39.979   7.655
 7322POPC   NC324695  13.663   0.404   9.455
 7322POPC   PO424696  13.603   0.399   9.155
 7322POPC   GL124697  13.614   0.394   8.855
 7322POPC   GL224698  13.740   0.442   8.855
 7322POPC   C1A24699  13.593   0.486   8.555
 7322POPC   D2A24700  13.639   0.389   8.255
 7322POPC   C3A24701  13.625   0.416   7.955
 7322POPC   C4A24702  13.617   0.479   7.655
 7322POPC   C1B24703  13.865   0.496   8.555
 7322POPC   C2B24704  13.826   0.576   8.255
 7322POPC   C3B24705  13.880   0.572   7.955
 7322POPC   C4B24706  13.837   0.519   7.655
 7323POPC   NC324707  36.915  12.052   9.455
 7323POPC   PO424708  36.885  12.109   9.155
 7323POPC   GL124709  36.895  12.066   8.855
 7323POPC   GL224710  37.041  12.114   8.855
 7323POPC   C1A24711  36.891  12.083   8.555
 7323POPC   D2A24712  36.869  12.094   8.255
 7323POPC   C3A24713  36.857  12.044   7.955
 7323POPC   C4A24714  36.892  12.034   7.655
 7323POPC   C1B24715  37.125  12.019   8.555
 7323POPC   C2B24716  37.194  12.007   8.255
 7323POPC   C3B24717  37.158  12.084   7.955
 7323POPC   C4B24718  37.135  12.051   7.655
 7324POPC   NC324719  19.835  15.215   9.455
 7324POPC   PO424720  19.882  15.178   9.155
 7324POPC   GL124721  19.813  15.224   8.855
 7324POPC   GL224722  19.718  15.292   8.855
 7324POPC   C1A24723  19.828  15.227   8.555
 7324POPC   D2A24724  19.850  15.214   8.255
 7324POPC   C3A24725  19.860  15.161   7.955
 7324POPC   C4A24726  19.835  15.157   7.655
 7324POPC   C1B24727  19.619  15.402   8.555
 7324POPC   C2B24728  19.681  15.321   8.255
 7324POPC   C3B24729  19.622  15.360   7.955
 7324POPC   C4B24730  19.624  15.333   7.655
 7325POPC   NC324731  10.541  32.987   9.455
 7325POPC   PO424732  10.569  32.993   9.155
 7325POPC   GL124733  10.524  32.985   8.855
 7325POPC   GL224734  10.384  32.958   8.855
 7325POPC   C1A24735  10.493  33.004   8.555
 7325POPC   D2A24736  10.569  33.007   8.255
 7325POPC   C3A24737  10.502  33.061   7.955
 7325POPC   C4A24738  10.545  33.022   7.655
 7325POPC   C1B24739  10.313  32.939   8.555
 7325POPC   C2B24740  10.319  32.976   8.255
 7325POPC   C3B24741  10.251  32.929   7.955
 7325POPC   C4B24742  10.269  32.984   7.655
 7326POPC   NC324743  43.101   2.755   9.455
 7326POPC   PO424744  43.087   2.785   9.155
 7326POPC   GL124745  43.075   2.728   8.855
 7326POPC   GL224746  43.005   2.733   8.855
 7326POPC   C1A24747  43.073   2.815   8.555
 7326POPC   D2A24748  43.080   2.795   8.255
 7326POPC   C3A24749  43.061   2.753   7.955
 7326POPC   C4A24750  43.131   2.720   7.655
 7326POPC   C1B24751  42.840   2.746   8.555
 7326POPC   C2B24752  42.852   2.714   8.255
 7326POPC   C3B24753  42.844   2.741   7.955
 7326POPC   C4B24754  42.853   2.691   7.655
 7327POPC   NC324755  40.832   7.447   9.455
 7327POPC   PO424756  40.756   7.380   9.155
 7327POPC   GL124757  40.752   7.409   8.855
 7327POPC   GL224758  40.694   7.392   8.855
 7327POPC   C1A24759  40.780   7.401   8.555
 7327POPC   D2A24760  40.818   7.459   8.255
 7327POPC   C3A24761  40.816   7.432   7.955
 7327POPC   C4A24762  40.784   7.389   7.655
 7327POPC   C1B24763  40.548   7.309   8.555
 7327POPC   C2B24764  40.605   7.228   8.255
 7327POPC   C3B24765  40.584   7.292   7.955
 7327POPC   C4B24766  40.552   7.240   7.655
 7328POPC   NC324767  32.239  12.864   9.455
 7328POPC   PO424768  32.203  12.838   9.155
 7328POPC   GL124769  32.209  12.873   8.855
 7328POPC   GL224770  32.354  12.959   8.855
 7328POPC   C1A24771  32.208  12.868   8.555
 7328POPC   D2A24772  32.261  12.882   8.255
 7328POPC   C3A24773  32.205  12.812   7.955
 7328POPC   C4A24774  32.264  12.879   7.655
 7328POPC   C1B24775  32.350  13.087   8.555
 7328POPC   C2B24776  32.350  13.023   8.255
 7328POPC   C3B24777  32.386  13.052   7.955
 7328POPC   C4B24778  32.399  13.058   7.655
 7329POPC   NC324779  38.434   3.508   9.455
 7329POPC   PO424780  38.465   3.518   9.155
 7329POPC   GL124781  38.469   3.550   8.855
 7329POPC   GL224782  38.298   3.595   8.855
 7329POPC   C1A24783  38.473   3.512   8.555
 7329POPC   D2A24784  38.470   3.564   8.255
 7329POPC   C3A24785  38.484   3.541   7.955
 7329POPC   C4A24786  38.477   3.504   7.655
 7329POPC   C1B24787  38.163   3.543   8.555
 7329POPC   C2B24788  38.161   3.526   8.255
 7329POPC   C3B24789  38.165   3.560   7.955
 7329POPC   C4B24790  38.191   3.509   7.655
 7330POPC   NC324791  37.719  13.615   9.455
 7330POPC   PO424792  37.706  13.605   9.155
 7330POPC   GL124793  37.687  13.676   8.855
 7330POPC   GL224794  37.763  13.496   8.855
 7330POPC   C1A24795  37.634  13.639   8.555
 7330POPC   D2A24796  37.679  13.653   8.255
 7330POPC   C3A24797  37.633  13.597   7.955
 7330POPC   C4A24798  37.633  13.667   7.655
 7330POPC   C1B24799  37.742  13.374   8.555
 7330POPC   C2B24800  37.836  13.380   8.255
 7330POPC   C3B24801  37.809  13.447   7.955
 7330POPC   C4B24802  37.777  13.420   7.655
 7331POPC   NC324803   1.258   5.102   9.455
 7331POPC   PO424804   1.167   5.121   9.155
 7331POPC   GL124805   1.210   5.093   8.855
 7331POPC   GL224806   1.094   5.187   8.855
 7331POPC   C1A24807   1.213   5.133   8.555
 7331POPC   D2A24808   1.216   5.116   8.255
 7331POPC   C3A24809   1.210   5.085   7.955
 7331POPC   C4A24810   1.208   5.051   7.655
 7331POPC   C1B24811   1.080   5.263   8.555
 7331POPC   C2B24812   1.028   5.236   8.255
 7331POPC   C3B24813   1.093   5.296   7.955
 7331POPC   C4B24814   1.034   5.300   7.655
 7332POPC   NC324815  37.656  19.015   9.455
 7332POPC   PO424816  37.725  19.016   9.155
 7332POPC   GL124817  37.711  19.015   8.855
 7332POPC   GL224818  37.550  19.032   8.855
 7332POPC   C1A24819  37.707  19.076   8.555
 7332POPC   D2A24820  37.636  19.039   8.255
 7332POPC   C3A24821  37.697  19.076   7.955
 7332POPC   C4A24822  37.680  19.047   7.655
 7332POPC   C1B24823  37.440  19.129   8.555
 7332POPC   C2B24824  37.470  19.092   8.255
 7332POPC   C3B24825  37.401  19.136   7.955
 7332POPC   C4B24826  37.423  19.079   7.655
 7333POPC   NC324827   7.451   0.486   9.455
 7333POPC   PO424828   7.393   0.479   9.155
 7333POPC   GL124829   7.381   0.438   8.855
 7333POPC   GL224830   7.467   0.362   8.855
 7333POPC   C1A24831   7.399   0.436   8.555
 7333POPC   D2A24832   7.399   0.402   8.255
 7333POPC   C3A24833   7.432   0.422   7.955
 7333POPC   C4A24834   7.374   0.416   7.655
 7333POPC   C1B24835   7.516   0.160   8.555
 7333POPC   C2B24836   7.507   0.217   8.255
 7333POPC   C3B24837   7.519   0.189   7.955
 7333POPC   C4B24838   7.520   0.234   7.655
 7334POPC   NC324839  15.196  26.832   9.455
 7334POPC   PO424840  15.157  26.774   9.155
 7334POPC   GL124841  15.146  26.792   8.855
 7334POPC   GL224842  15.182  26.727   8.855
 7334POPC   C1A24843  15.184  26.866   8.555
 7334POPC   D2A24844  15.224  26.786   8.255
 7334POPC   C3A24845  15.185  26.855   7.955
 7334POPC   C4A24846  15.218  26.771   7.655
 7334POPC   C1B24847  15.067  26.556   8.555
 7334POPC   C2B24848  15.071  26.617   8.255
 7334POPC   C3B24849  15.079  26.612   7.955
 7334POPC   C4B24850  15.112  26.621   7.655
 7335POPC   NC324851  17.472  15.160   9.455
 7335POPC   PO424852  17.491  15.224   9.155
 7335POPC   GL124853  17.552  15.214   8.855
 7335POPC   GL224854  17.386  15.226   8.855
 7335POPC   C1A24855  17.527  15.163   8.555
 7335POPC   D2A24856  17.541  15.193   8.255
 7335POPC   C3A24857  17.492  15.200   7.955
 7335POPC   C4A24858  17.499  15.173   7.655
 7335POPC   C1B24859  17.348  15.344   8.555
 7335POPC   C2B24860  17.318  15.362   8.255
 7335POPC   C3B24861  17.340  15.317   7.955
 7335POPC   C4B24862  17.285  15.311   7.655
 7336POPC   NC324863  19.833   1.214   9.455
 7336POPC   PO424864  19.881   1.171   9.155
 7336POPC   GL124865  19.884   1.176   8.855
 7336POPC   GL224866  19.950   1.267   8.855
 7336POPC   C1A24867  19.831   1.171   8.555
 7336POPC   D2A24868  19.840   1.227   8.255
 7336POPC   C3A24869  19.792   1.182   7.955
 7336POPC   C4A24870  19.812   1.242   7.655
 7336POPC   C1B24871  20.095   1.279   8.555
 7336POPC   C2B24872  20.019   1.341   8.255
 7336POPC   C3B24873  20.112   1.320   7.955
 7336POPC   C4B24874  20.110   1.323   7.655
 7337POPC   NC324875  15.975   8.168   9.455
 7337POPC   PO424876  15.988   8.236   9.155
 7337POPC   GL124877  15.941   8.223   8.855
 7337POPC   GL224878  15.899   8.340   8.855
 7337POPC   C1A24879  15.961   8.215   8.555
 7337POPC   D2A24880  15.933   8.239   8.255
 7337POPC   C3A24881  16.003   8.209   7.955
 7337POPC   C4A24882  15.994   8.214   7.655
 7337POPC   C1B24883  15.871   8.398   8.555
 7337POPC   C2B24884  15.846   8.393   8.255
 7337POPC   C3B24885  15.861   8.422   7.955
 7337POPC   C4B24886  15.879   8.413   7.655
 7338POPC   NC324887  26.049  15.207   9.455
 7338POPC   PO424888  25.994  15.218   9.155
 7338POPC   GL124889  26.075  15.164   8.855
 7338POPC   GL224890  26.133  15.072   8.855
 7338POPC   C1A24891  26.026  15.221   8.555
 7338POPC   D2A24892  26.088  15.130   8.255
 7338POPC   C3A24893  26.056  15.222   7.955
 7338POPC   C4A24894  26.017  15.225   7.655
 7338POPC   C1B24895  26.207  14.936   8.555
 7338POPC   C2B24896  26.169  15.009   8.255
 7338POPC   C3B24897  26.129  14.992   7.955
 7338POPC   C4B24898  26.141  14.983   7.655
 7339POPC   NC324899  36.128  40.003   9.455
 7339POPC   PO424900  36.125  39.989   9.155
 7339POPC   GL124901  36.168  39.966   8.855
 7339POPC   GL224902  36.107  39.927   8.855
 7339POPC   C1A24903  36.162  40.014   8.555
 7339POPC   D2A24904  36.160  39.961   8.255
 7339POPC   C3A24905  36.167  40.042   7.955
 7339POPC   C4A24906  36.156  40.002   7.655
 7339POPC   C1B24907  36.160  39.756   8.555
 7339POPC   C2B24908  36.156  39.745   8.255
 7339POPC   C3B24909  36.142  39.745   7.955
 7339POPC   C4B24910  36.212  39.732   7.655
 7340POPC   NC324911  15.939   3.508   9.455
 7340POPC   PO424912  15.967   3.538   9.155
 7340POPC   GL124913  15.933   3.562   8.855
 7340POPC   GL224914  16.078   3.442   8.855
 7340POPC   C1A24915  15.926   3.552   8.555
 7340POPC   D2A24916  15.948   3.553   8.255
 7340POPC   C3A24917  15.910   3.588   7.955
 7340POPC   C4A24918  15.978   3.542   7.655
 7340POPC   C1B24919  16.100   3.394   8.555
 7340POPC   C2B24920  16.180   3.359   8.255
 7340POPC   C3B24921  16.161   3.401   7.955
 7340POPC   C4B24922  16.151   3.326   7.655
 7341POPC   NC324923  31.440  44.670   9.455
 7341POPC   PO424924  31.469  44.693   9.155
 7341POPC   GL124925  31.448  44.674   8.855
 7341POPC   GL224926  31.636  44.660   8.855
 7341POPC   C1A24927  31.432  44.710   8.555
 7341POPC   D2A24928  31.452  44.613   8.255
 7341POPC   C3A24929  31.449  44.676   7.955
 7341POPC   C4A24930  31.486  44.649   7.655
 7341POPC   C1B24931  31.760  44.748   8.555
 7341POPC   C2B24932  31.738  44.719   8.255
 7341POPC   C3B24933  31.723  44.660   7.955
 7341POPC   C4B24934  31.721  44.654   7.655
 7342POPC   NC324935  19.035  38.491   9.455
 7342POPC   PO424936  19.046  38.460   9.155
 7342POPC   GL124937  19.061  38.461   8.855
 7342POPC   GL224938  19.147  38.343   8.855
 7342POPC   C1A24939  19.027  38.497   8.555
 7342POPC   D2A24940  19.068  38.502   8.255
 7342POPC   C3A24941  19.036  38.435   7.955
 7342POPC   C4A24942  19.053  38.434   7.655
 7342POPC   C1B24943  19.144  38.196   8.555
 7342POPC   C2B24944  19.149  38.223   8.255
 7342POPC   C3B24945  19.144  38.245   7.955
 7342POPC   C4B24946  19.190  38.199   7.655
 7343POPC   NC324947  19.105  15.159   9.455
 7343POPC   PO424948  19.045  15.130   9.155
 7343POPC   GL124949  19.087  15.157   8.855
 7343POPC   GL224950  19.065  15.089   8.855
 7343POPC   C1A24951  19.059  15.180   8.555
 7343POPC   D2A24952  19.083  15.147   8.255
 7343POPC   C3A24953  19.015  15.192   7.955
 7343POPC   C4A24954  19.103  15.182   7.655
 7343POPC   C1B24955  19.127  14.926   8.555
 7343POPC   C2B24956  19.198  14.911   8.255
 7343POPC   C3B24957  19.160  14.926   7.955
 7343POPC   C4B24958  19.128  14.974   7.655
 7344POPC   NC324959  39.996  30.728   9.455
 7344POPC   PO424960  39.979  30.665   9.155
 7344POPC   GL124961  39.975  30.676   8.855
 7344POPC   GL224962  40.034  30.614   8.855
 7344POPC   C1A24963  40.056  30.717   8.555
 7344POPC   D2A24964  39.972  30.737   8.255
 7344POPC   C3A24965  40.027  30.666   7.955
 7344POPC   C4A24966  40.038  30.735   7.655
 7344POPC   C1B24967  40.077  30.456   8.555
 7344POPC   C2B24968  40.131  30.438   8.255
 7344POPC   C3B24969  40.150  30.447   7.955
 7344POPC   C4B24970  40.152  30.506   7.655
 7345POPC   NC324971   1.960  43.120   9.455
 7345POPC   PO424972   2.026  43.116   9.155
 7345POPC   GL124973   2.032  43.104   8.855
 7345POPC   GL224974   2.044  42.964   8.855
 7345POPC   C1A24975   1.995  43.078   8.555
 7345POPC   D2A24976   2.029  43.150   8.255
 7345POPC   C3A24977   2.012  43.070   7.955
 7345POPC   C4A24978   2.000  43.065   7.655
 7345POPC   C1B24979   2.059  42.907   8.555
 7345POPC   C2B24980   2.023  42.877   8.255
 7345POPC   C3B24981   2.101  42.836   7.955
 7345POPC   C4B24982   2.043  42.909   7.655
 7346POPC   NC324983  37.686  26.843   9.455
 7346POPC   PO424984  37.688  26.773   9.155
 7346POPC   GL124985  37.718  26.848   8.855
 7346POPC   GL224986  37.738  26.670   8.855
 7346POPC   C1A24987  37.705  26.832   8.555
 7346POPC   D2A24988  37.699  26.839   8.255
 7346POPC   C3A24989  37.724  26.810   7.955
 7346POPC   C4A24990  37.713  26.850   7.655
 7346POPC   C1B24991  37.747  26.523   8.555
 7346POPC   C2B24992  37.689  26.577   8.255
 7346POPC   C3B24993  37.667  26.543   7.955
 7346POPC   C4B24994  37.665  26.563   7.655
 7347POPC   NC324995  26.001  41.535   9.455
 7347POPC   PO424996  26.065  41.586   9.155
 7347POPC   GL124997  26.079  41.597   8.855
 7347POPC   GL224998  26.194  41.603   8.855
 7347POPC   C1A24999  26.022  41.510   8.555
 7347POPC   D2A25000  26.001  41.562   8.255
 7347POPC   C3A25001  26.059  41.598   7.955
 7347POPC   C4A25002  26.080  41.546   7.655
 7347POPC   C1B25003  26.252  41.560   8.555
 7347POPC   C2B25004  26.276  41.555   8.255
 7347POPC   C3B25005  26.292  41.575   7.955
 7347POPC   C4B25006  26.278  41.589   7.655
 7348POPC   NC325007  35.395  31.453   9.455
 7348POPC   PO425008  35.317  31.514   9.155
 7348POPC   GL125009  35.352  31.484   8.855
 7348POPC   GL225010  35.479  31.428   8.855
 7348POPC   C1A25011  35.389  31.475   8.555
 7348POPC   D2A25012  35.353  31.470   8.255
 7348POPC   C3A25013  35.340  31.424   7.955
 7348POPC   C4A25014  35.352  31.443   7.655
 7348POPC   C1B25015  35.581  31.448   8.555
 7348POPC   C2B25016  35.648  31.462   8.255
 7348POPC   C3B25017  35.575  31.440   7.955
 7348POPC   C4B25018  35.576  31.404   7.655
 7349POPC   NC325019  23.685  43.838   9.455
 7349POPC   PO425020  23.679  43.842   9.155
 7349POPC   GL125021  23.680  43.892   8.855
 7349POPC   GL225022  23.608  43.785   8.855
 7349POPC   C1A25023  23.705  43.889   8.555
 7349POPC   D2A25024  23.664  43.900   8.255
 7349POPC   C3A25025  23.703  43.892   7.955
 7349POPC   C4A25026  23.733  43.914   7.655
 7349POPC   C1B25027  23.515  43.736   8.555
 7349POPC   C2B25028  23.563  43.711   8.255
 7349POPC   C3B25029  23.517  43.683   7.955
 7349POPC   C4B25030  23.585  43.739   7.655
 7350POPC   NC325031  28.394  22.192   9.455
 7350POPC   PO425032  28.362  22.207   9.155
 7350POPC   GL125033  28.364  22.180   8.855
 7350POPC   GL225034  28.523  22.227   8.855
 7350POPC   C1A25035  28.389  22.191   8.555
 7350POPC   D2A25036  28.352  22.122   8.255
 7350POPC   C3A25037  28.322  22.203   7.955
 7350POPC   C4A25038  28.358  22.129   7.655
 7350POPC   C1B25039  28.652  22.172   8.555
 7350POPC   C2B25040  28.584  22.222   8.255
 7350POPC   C3B25041  28.602  22.171   7.955
 7350POPC   C4B25042  28.587  22.228   7.655
 7351POPC   NC325043  40.776  22.157   9.455
 7351POPC   PO425044  40.757  22.180   9.155
 7351POPC   GL125045  40.746  22.134   8.855
 7351POPC   GL225046  40.945  22.184   8.855
 7351POPC   C1A25047  40.805  22.138   8.555
 7351POPC   D2A25048  40.748  22.193   8.255
 7351POPC   C3A25049  40.769  22.142   7.955
 7351POPC   C4A25050  40.805  22.126   7.655
 7351POPC   C1B25051  41.036  22.170   8.555
 7351POPC   C2B25052  40.998  22.210   8.255
 7351POPC   C3B25053  41.078  22.232   7.955
 7351POPC   C4B25054  41.074  22.187   7.655
 7352POPC   NC325055  40.755  30.743   9.455
 7352POPC   PO425056  40.790  30.740   9.155
 7352POPC   GL125057  40.757  30.653   8.855
 7352POPC   GL225058  40.781  30.824   8.855
 7352POPC   C1A25059  40.765  30.665   8.555
 7352POPC   D2A25060  40.770  30.672   8.255
 7352POPC   C3A25061  40.753  30.696   7.955
 7352POPC   C4A25062  40.758  30.694   7.655
 7352POPC   C1B25063  40.714  30.918   8.555
 7352POPC   C2B25064  40.736  30.977   8.255
 7352POPC   C3B25065  40.718  30.949   7.955
 7352POPC   C4B25066  40.685  30.959   7.655
 7353POPC   NC325067  35.314   5.070   9.455
 7353POPC   PO425068  35.321   5.088   9.155
 7353POPC   GL125069  35.393   5.105   8.855
 7353POPC   GL225070  35.427   5.070   8.855
 7353POPC   C1A25071  35.318   5.127   8.555
 7353POPC   D2A25072  35.308   5.139   8.255
 7353POPC   C3A25073  35.388   5.090   7.955
 7353POPC   C4A25074  35.341   5.132   7.655
 7353POPC   C1B25075  35.540   5.037   8.555
 7353POPC   C2B25076  35.551   4.978   8.255
 7353POPC   C3B25077  35.584   5.000   7.955
 7353POPC   C4B25078  35.603   4.984   7.655
 7354POPC   NC325079  26.862  28.352   9.455
 7354POPC   PO425080  26.786  28.333   9.155
 7354POPC   GL125081  26.789  28.348   8.855
 7354POPC   GL225082  26.807  28.497   8.855
 7354POPC   C1A25083  26.821  28.377   8.555
 7354POPC   D2A25084  26.793  28.385   8.255
 7354POPC   C3A25085  26.836  28.354   7.955
 7354POPC   C4A25086  26.779  28.374   7.655
 7354POPC   C1B25087  26.711  28.590   8.555
 7354POPC   C2B25088  26.761  28.649   8.255
 7354POPC   C3B25089  26.723  28.650   7.955
 7354POPC   C4B25090  26.730  28.642   7.655
 7355POPC   NC325091  30.667  33.845   9.455
 7355POPC   PO425092  30.716  33.788   9.155
 7355POPC   GL125093  30.659  33.812   8.855
 7355POPC   GL225094  30.599  33.735   8.855
 7355POPC   C1A25095  30.740  33.812   8.555
 7355POPC   D2A25096  30.733  33.751   8.255
 7355POPC   C3A25097  30.710  33.804   7.955
 7355POPC   C4A25098  30.723  33.824   7.655
 7355POPC   C1B25099  30.558  33.668   8.555
 7355POPC   C2B25100  30.481  33.652   8.255
 7355POPC   C3B25101  30.477  33.590   7.955
 7355POPC   C4B25102  30.562  33.608   7.655
 7356POPC   NC325103  37.709  22.188   9.455
 7356POPC   PO425104  37.686  22.140   9.155
 7356POPC   GL125105  37.635  22.118   8.855
 7356POPC   GL225106  37.789  22.210   8.855
 7356POPC   C1A25107  37.719  22.175   8.555
 7356POPC   D2A25108  37.633  22.143   8.255
 7356POPC   C3A25109  37.692  22.172   7.955
 7356POPC   C4A25110  37.690  22.204   7.655
 7356POPC   C1B25111  37.869  22.285   8.555
 7356POPC   C2B25112  37.898  22.248   8.255
 7356POPC   C3B25113  37.880  22.314   7.955
 7356POPC   C4B25114  37.900  22.233   7.655
 7357POPC   NC325115  13.677  33.071   9.455
 7357POPC   PO425116  13.651  33.050   9.155
 7357POPC   GL125117  13.584  33.008   8.855
 7357POPC   GL225118  13.673  33.176   8.855
 7357POPC   C1A25119  13.635  33.036   8.555
 7357POPC   D2A25120  13.584  33.029   8.255
 7357POPC   C3A25121  13.607  33.024   7.955
 7357POPC   C4A25122  13.605  32.998   7.655
 7357POPC   C1B25123  13.672  33.299   8.555
 7357POPC   C2B25124  13.724  33.221   8.255
 7357POPC   C3B25125  13.693  33.237   7.955
 7357POPC   C4B25126  13.676  33.313   7.655
 7358POPC   NC325127  35.388   5.891   9.455
 7358POPC   PO425128  35.341   5.839   9.155
 7358POPC   GL125129  35.376   5.859   8.855
 7358POPC   GL225130  35.506   5.925   8.855
 7358POPC   C1A25131  35.323   5.915   8.555
 7358POPC   D2A25132  35.380   5.838   8.255
 7358POPC   C3A25133  35.385   5.900   7.955
 7358POPC   C4A25134  35.305   5.910   7.655
 7358POPC   C1B25135  35.569   5.958   8.555
 7358POPC   C2B25136  35.606   5.900   8.255
 7358POPC   C3B25137  35.624   5.935   7.955
 7358POPC   C4B25138  35.618   5.893   7.655
 7359POPC   NC325139  31.434  35.377   9.455
 7359POPC   PO425140  31.515  35.309   9.155
 7359POPC   GL125141  31.453  35.341   8.855
 7359POPC   GL225142  31.332  35.393   8.855
 7359POPC   C1A25143  31.522  35.346   8.555
 7359POPC   D2A25144  31.473  35.397   8.255
 7359POPC   C3A25145  31.468  35.399   7.955
 7359POPC   C4A25146  31.504  35.348   7.655
 7359POPC   C1B25147  31.234  35.398   8.555
 7359POPC   C2B25148  31.242  35.446   8.255
 7359POPC   C3B25149  31.238  35.402   7.955
 7359POPC   C4B25150  31.272  35.438   7.655
 7360POPC   NC325151  39.999  38.464   9.455
 7360POPC   PO425152  39.972  38.428   9.155
 7360POPC   GL125153  40.012  38.420   8.855
 7360POPC   GL225154  39.975  38.615   8.855
 7360POPC   C1A25155  39.965  38.484   8.555
 7360POPC   D2A25156  40.048  38.468   8.255
 7360POPC   C3A25157  40.052  38.411   7.955
 7360POPC   C4A25158  39.959  38.462   7.655
 7360POPC   C1B25159  39.875  38.653   8.555
 7360POPC   C2B25160  39.956  38.708   8.255
 7360POPC   C3B25161  39.965  38.735   7.955
 7360POPC   C4B25162  39.937  38.706   7.655
 7361POPC   NC325163  33.071  11.283   9.455
 7361POPC   PO425164  32.992  11.307   9.155
 7361POPC   GL125165  33.060  11.276   8.855
 7361POPC   GL225166  33.016  11.405   8.855
 7361POPC   C1A25167  33.022  11.302   8.555
 7361POPC   D2A25168  33.066  11.290   8.255
 7361POPC   C3A25169  33.057  11.258   7.955
 7361POPC   C4A25170  33.054  11.283   7.655
 7361POPC   C1B25171  33.046  11.538   8.555
 7361POPC   C2B25172  33.070  11.586   8.255
 7361POPC   C3B25173  33.087  11.595   7.955
 7361POPC   C4B25174  33.059  11.534   7.655
 7362POPC   NC325175   5.134  11.302   9.455
 7362POPC   PO425176   5.115  11.253   9.155
 7362POPC   GL125177   5.063  11.315   8.855
 7362POPC   GL225178   5.172  11.292   8.855
 7362POPC   C1A25179   5.093  11.345   8.555
 7362POPC   D2A25180   5.048  11.277   8.255
 7362POPC   C3A25181   5.077  11.330   7.955
 7362POPC   C4A25182   5.121  11.288   7.655
 7362POPC   C1B25183   5.300  11.341   8.555
 7362POPC   C2B25184   5.362  11.369   8.255
 7362POPC   C3B25185   5.323  11.339   7.955
 7362POPC   C4B25186   5.376  11.388   7.655
 7363POPC   NC325187  13.661  15.156   9.455
 7363POPC   PO425188  13.634  15.207   9.155
 7363POPC   GL125189  13.616  15.149   8.855
 7363POPC   GL225190  13.546  15.109   8.855
 7363POPC   C1A25191  13.670  15.168   8.555
 7363POPC   D2A25192  13.657  15.185   8.255
 7363POPC   C3A25193  13.656  15.182   7.955
 7363POPC   C4A25194  13.582  15.143   7.655
 7363POPC   C1B25195  13.511  14.966   8.555
 7363POPC   C2B25196  13.482  15.008   8.255
 7363POPC   C3B25197  13.530  14.960   7.955
 7363POPC   C4B25198  13.549  14.979   7.655
 7364POPC   NC325199  32.998  34.608   9.455
 7364POPC   PO425200  32.978  34.545   9.155
 7364POPC   GL125201  33.003  34.527   8.855
 7364POPC   GL225202  32.888  34.556   8.855
 7364POPC   C1A25203  33.058  34.620   8.555
 7364POPC   D2A25204  33.039  34.594   8.255
 7364POPC   C3A25205  33.024  34.566   7.955
 7364POPC   C4A25206  33.002  34.574   7.655
 7364POPC   C1B25207  32.741  34.557   8.555
 7364POPC   C2B25208  32.762  34.580   8.255
 7364POPC   C3B25209  32.729  34.614   7.955
 7364POPC   C4B25210  32.780  34.631   7.655
 7365POPC   NC325211  26.054  33.043   9.455
 7365POPC   PO425212  26.024  32.988   9.155
 7365POPC   GL125213  26.086  32.975   8.855
 7365POPC   GL225214  25.962  32.945   8.855
 7365POPC   C1A25215  26.091  33.015   8.555
 7365POPC   D2A25216  26.068  33.011   8.255
 7365POPC   C3A25217  26.006  33.073   7.955
 7365POPC   C4A25218  26.013  33.000   7.655
 7365POPC   C1B25219  25.823  32.829   8.555
 7365POPC   C2B25220  25.825  32.795   8.255
 7365POPC   C3B25221  25.831  32.834   7.955
 7365POPC   C4B25222  25.864  32.824   7.655
 7366POPC   NC325223  21.381  26.084   9.455
 7366POPC   PO425224  21.430  26.087   9.155
 7366POPC   GL125225  21.368  26.071   8.855
 7366POPC   GL225226  21.472  25.919   8.855
 7366POPC   C1A25227  21.389  26.069   8.555
 7366POPC   D2A25228  21.345  26.066   8.255
 7366POPC   C3A25229  21.370  26.019   7.955
 7366POPC   C4A25230  21.348  26.070   7.655
 7366POPC   C1B25231  21.591  25.905   8.555
 7366POPC   C2B25232  21.629  25.903   8.255
 7366POPC   C3B25233  21.575  25.859   7.955
 7366POPC   C4B25234  21.610  25.909   7.655
 7367POPC   NC325235   3.534   6.655   9.455
 7367POPC   PO425236   3.492   6.601   9.155
 7367POPC   GL125237   3.542   6.604   8.855
 7367POPC   GL225238   3.462   6.590   8.855
 7367POPC   C1A25239   3.495   6.665   8.555
 7367POPC   D2A25240   3.539   6.682   8.255
 7367POPC   C3A25241   3.515   6.665   7.955
 7367POPC   C4A25242   3.557   6.634   7.655
 7367POPC   C1B25243   3.317   6.531   8.555
 7367POPC   C2B25244   3.296   6.567   8.255
 7367POPC   C3B25245   3.345   6.617   7.955
 7367POPC   C4B25246   3.339   6.594   7.655
 7368POPC   NC325247   5.865  41.514   9.455
 7368POPC   PO425248   5.837  41.530   9.155
 7368POPC   GL125249   5.857  41.526   8.855
 7368POPC   GL225250   5.809  41.640   8.855
 7368POPC   C1A25251   5.908  41.596   8.555
 7368POPC   D2A25252   5.862  41.601   8.255
 7368POPC   C3A25253   5.820  41.597   7.955
 7368POPC   C4A25254   5.916  41.520   7.655
 7368POPC   C1B25255   5.682  41.709   8.555
 7368POPC   C2B25256   5.680  41.674   8.255
 7368POPC   C3B25257   5.682  41.661   7.955
 7368POPC   C4B25258   5.706  41.664   7.655
 7369POPC   NC325259  40.012  18.317   9.455
 7369POPC   PO425260  39.965  18.239   9.155
 7369POPC   GL125261  39.975  18.249   8.855
 7369POPC   GL225262  40.141  18.228   8.855
 7369POPC   C1A25263  40.056  18.287   8.555
 7369POPC   D2A25264  40.025  18.279   8.255
 7369POPC   C3A25265  40.040  18.323   7.955
 7369POPC   C4A25266  39.977  18.258   7.655
 7369POPC   C1B25267  40.227  18.231   8.555
 7369POPC   C2B25268  40.244  18.312   8.255
 7369POPC   C3B25269  40.287  18.231   7.955
 7369POPC   C4B25270  40.213  18.263   7.655
 7370POPC   NC325271   1.166  30.708   9.455
 7370POPC   PO425272   1.218  30.743   9.155
 7370POPC   GL125273   1.259  30.660   8.855
 7370POPC   GL225274   1.273  30.623   8.855
 7370POPC   C1A25275   1.197  30.671   8.555
 7370POPC   D2A25276   1.227  30.690   8.255
 7370POPC   C3A25277   1.180  30.653   7.955
 7370POPC   C4A25278   1.208  30.668   7.655
 7370POPC   C1B25279   1.325  30.488   8.555
 7370POPC   C2B25280   1.390  30.522   8.255
 7370POPC   C3B25281   1.407  30.549   7.955
 7370POPC   C4B25282   1.409  30.510   7.655
 7371POPC   NC325283  24.451  12.083   9.455
 7371POPC   PO425284  24.504  12.119   9.155
 7371POPC   GL125285  24.538  12.126   8.855
 7371POPC   GL225286  24.492  11.999   8.855
 7371POPC   C1A25287  24.483  12.030   8.555
 7371POPC   D2A25288  24.452  12.116   8.255
 7371POPC   C3A25289  24.453  12.091   7.955
 7371POPC   C4A25290  24.442  12.083   7.655
 7371POPC   C1B25291  24.565  11.825   8.555
 7371POPC   C2B25292  24.542  11.807   8.255
 7371POPC   C3B25293  24.600  11.882   7.955
 7371POPC   C4B25294  24.545  11.802   7.655
 7372POPC   NC325295  41.526   3.545   9.455
 7372POPC   PO425296  41.586   3.541   9.155
 7372POPC   GL125297  41.543   3.590   8.855
 7372POPC   GL225298  41.668   3.591   8.855
 7372POPC   C1A25299  41.513   3.539   8.555
 7372POPC   D2A25300  41.573   3.536   8.255
 7372POPC   C3A25301  41.535   3.588   7.955
 7372POPC   C4A25302  41.580   3.585   7.655
 7372POPC   C1B25303  41.778   3.682   8.555
 7372POPC   C2B25304  41.832   3.637   8.255
 7372POPC   C3B25305  41.809   3.639   7.955
 7372POPC   C4B25306  41.815   3.615   7.655
 7373POPC   NC325307  19.054  39.963   9.455
 7373POPC   PO425308  19.099  40.048   9.155
 7373POPC   GL125309  19.028  40.039   8.855
 7373POPC   GL225310  19.148  39.926   8.855
 7373POPC   C1A25311  19.037  39.977   8.555
 7373POPC   D2A25312  19.032  40.023   8.255
 7373POPC   C3A25313  19.033  39.975   7.955
 7373POPC   C4A25314  19.105  39.968   7.655
 7373POPC   C1B25315  19.216  39.740   8.555
 7373POPC   C2B25316  19.214  39.756   8.255
 7373POPC   C3B25317  19.185  39.736   7.955
 7373POPC   C4B25318  19.171  39.747   7.655
 7374POPC   NC325319  29.969   4.308   9.455
 7374POPC   PO425320  29.937   4.364   9.155
 7374POPC   GL125321  29.907   4.285   8.855
 7374POPC   GL225322  30.009   4.258   8.855
 7374POPC   C1A25323  29.901   4.351   8.555
 7374POPC   D2A25324  29.904   4.324   8.255
 7374POPC   C3A25325  29.873   4.308   7.955
 7374POPC   C4A25326  29.965   4.315   7.655
 7374POPC   C1B25327  30.122   4.329   8.555
 7374POPC   C2B25328  30.179   4.278   8.255
 7374POPC   C3B25329  30.159   4.309   7.955
 7374POPC   C4B25330  30.217   4.310   7.655
 7375POPC   NC325331  22.180   8.238   9.455
 7375POPC   PO425332  22.150   8.190   9.155
 7375POPC   GL125333  22.197   8.242   8.855
 7375POPC   GL225334  22.133   8.068   8.855
 7375POPC   C1A25335  22.205   8.214   8.555
 7375POPC   D2A25336  22.131   8.201   8.255
 7375POPC   C3A25337  22.167   8.191   7.955
 7375POPC   C4A25338  22.117   8.201   7.655
 7375POPC   C1B25339  22.081   7.930   8.555
 7375POPC   C2B25340  22.133   7.907   8.255
 7375POPC   C3B25341  22.075   7.992   7.955
 7375POPC   C4B25342  22.076   7.975   7.655
 7376POPC   NC325343   6.692  33.011   9.455
 7376POPC   PO425344   6.637  33.056   9.155
 7376POPC   GL125345   6.635  33.017   8.855
 7376POPC   GL225346   6.629  33.104   8.855
 7376POPC   C1A25347   6.629  33.029   8.555
 7376POPC   D2A25348   6.650  32.991   8.255
 7376POPC   C3A25349   6.680  33.028   7.955
 7376POPC   C4A25350   6.611  33.000   7.655
 7376POPC   C1B25351   6.624  33.261   8.555
 7376POPC   C2B25352   6.588  33.295   8.255
 7376POPC   C3B25353   6.531  33.278   7.955
 7376POPC   C4B25354   6.617  33.313   7.655
 7377POPC   NC325355   5.069  16.723   9.455
 7377POPC   PO425356   5.103  16.723   9.155
 7377POPC   GL125357   5.131  16.719   8.855
 7377POPC   GL225358   5.185  16.833   8.855
 7377POPC   C1A25359   5.050  16.746   8.555
 7377POPC   D2A25360   5.052  16.751   8.255
 7377POPC   C3A25361   5.061  16.736   7.955
 7377POPC   C4A25362   5.130  16.751   7.655
 7377POPC   C1B25363   5.156  16.941   8.555
 7377POPC   C2B25364   5.215  16.912   8.255
 7377POPC   C3B25365   5.177  16.912   7.955
 7377POPC   C4B25366   5.185  16.963   7.655
 7378POPC   NC325367  15.229  36.931   9.455
 7378POPC   PO425368  15.139  36.910   9.155
 7378POPC   GL125369  15.171  36.947   8.855
 7378POPC   GL225370  15.045  36.836   8.855
 7378POPC   C1A25371  15.226  36.887   8.555
 7378POPC   D2A25372  15.189  36.902   8.255
 7378POPC   C3A25373  15.176  36.868   7.955
 7378POPC   C4A25374  15.153  36.938   7.655
 7378POPC   C1B25375  14.920  36.867   8.555
 7378POPC   C2B25376  14.919  36.885   8.255
 7378POPC   C3B25377  14.887  36.890   7.955
 7378POPC   C4B25378  14.973  36.859   7.655
 7379POPC   NC325379   0.431  33.840   9.455
 7379POPC   PO425380   0.461  33.783   9.155
 7379POPC   GL125381   0.441  33.846   8.855
 7379POPC   GL225382   0.376  33.725   8.855
 7379POPC   C1A25383   0.469  33.818   8.555
 7379POPC   D2A25384   0.393  33.800   8.255
 7379POPC   C3A25385   0.390  33.817   7.955
 7379POPC   C4A25386   0.428  33.806   7.655
 7379POPC   C1B25387   0.286  33.673   8.555
 7379POPC   C2B25388   0.266  33.594   8.255
 7379POPC   C3B25389   0.281  33.662   7.955
 7379POPC   C4B25390   0.204  33.608   7.655
 7380POPC   NC325391  11.276  33.819   9.455
 7380POPC   PO425392  11.277  33.810   9.155
 7380POPC   GL125393  11.280  33.849   8.855
 7380POPC   GL225394  11.243  33.894   8.855
 7380POPC   C1A25395  11.339  33.801   8.555
 7380POPC   D2A25396  11.291  33.830   8.255
 7380POPC   C3A25397  11.312  33.793   7.955
 7380POPC   C4A25398  11.266  33.818   7.655
 7380POPC   C1B25399  11.173  34.022   8.555
 7380POPC   C2B25400  11.150  34.021   8.255
 7380POPC   C3B25401  11.115  33.983   7.955
 7380POPC   C4B25402  11.162  33.958   7.655
 7381POPC   NC325403   0.468  19.825   9.455
 7381POPC   PO425404   0.481  19.861   9.155
 7381POPC   GL125405   0.450  19.833   8.855
 7381POPC   GL225406   0.526  19.870   8.855
 7381POPC   C1A25407   0.464  19.873   8.555
 7381POPC   D2A25408   0.485  19.872   8.255
 7381POPC   C3A25409   0.409  19.787   7.955
 7381POPC   C4A25410   0.454  19.792   7.655
 7381POPC   C1B25411   0.664  19.913   8.555
 7381POPC   C2B25412   0.719  19.885   8.255
 7381POPC   C3B25413   0.699  19.842   7.955
 7381POPC   C4B25414   0.656  19.853   7.655
 7382POPC   NC325415  22.907  41.563   9.455
 7382POPC   PO425416  22.935  41.515   9.155
 7382POPC   GL125417  22.905  41.591   8.855
 7382POPC   GL225418  22.816  41.540   8.855
 7382POPC   C1A25419  22.934  41.509   8.555
 7382POPC   D2A25420  22.921  41.571   8.255
 7382POPC   C3A25421  22.911  41.579   7.955
 7382POPC   C4A25422  22.964  41.608   7.655
 7382POPC   C1B25423  22.724  41.636   8.555
 7382POPC   C2B25424  22.678  41.619   8.255
 7382POPC   C3B25425  22.699  41.564   7.955
 7382POPC   C4B25426  22.658  41.643   7.655
 7383POPC   NC325427  31.482   9.777   9.455
 7383POPC   PO425428  31.484   9.769   9.155
 7383POPC   GL125429  31.455   9.758   8.855
 7383POPC   GL225430  31.450   9.866   8.855
 7383POPC   C1A25431  31.464   9.794   8.555
 7383POPC   D2A25432  31.425   9.767   8.255
 7383POPC   C3A25433  31.504   9.752   7.955
 7383POPC   C4A25434  31.486   9.717   7.655
 7383POPC   C1B25435  31.534  10.008   8.555
 7383POPC   C2B25436  31.530  10.011   8.255
 7383POPC   C3B25437  31.492  10.026   7.955
 7383POPC   C4B25438  31.504   9.968   7.655
 7384POPC   NC325439   9.728  22.128   9.455
 7384POPC   PO425440   9.751  22.156   9.155
 7384POPC   GL125441   9.763  22.150   8.855
 7384POPC   GL225442   9.612  22.167   8.855
 7384POPC   C1A25443   9.788  22.122   8.555
 7384POPC   D2A25444   9.712  22.163   8.255
 7384POPC   C3A25445   9.715  22.192   7.955
 7384POPC   C4A25446   9.724  22.198   7.655
 7384POPC   C1B25447   9.540  22.064   8.555
 7384POPC   C2B25448   9.518  22.142   8.255
 7384POPC   C3B25449   9.552  22.061   7.955
 7384POPC   C4B25450   9.553  22.142   7.655
 7385POPC   NC325451   8.219  38.476   9.455
 7385POPC   PO425452   8.176  38.413   9.155
 7385POPC   GL125453   8.153  38.429   8.855
 7385POPC   GL225454   8.207  38.552   8.855
 7385POPC   C1A25455   8.238  38.502   8.555
 7385POPC   D2A25456   8.153  38.461   8.255
 7385POPC   C3A25457   8.162  38.453   7.955
 7385POPC   C4A25458   8.157  38.436   7.655
 7385POPC   C1B25459   8.212  38.709   8.555
 7385POPC   C2B25460   8.230  38.743   8.255
 7385POPC   C3B25461   8.198  38.726   7.955
 7385POPC   C4B25462   8.183  38.681   7.655
 7386POPC   NC325463  44.710  21.392   9.455
 7386POPC   PO425464  44.637  21.351   9.155
 7386POPC   GL125465  44.680  21.380   8.855
 7386POPC   GL225466  44.691  21.301   8.855
 7386POPC   C1A25467  44.628  21.425   8.555
 7386POPC   D2A25468  44.621  21.386   8.255
 7386POPC   C3A25469  44.705  21.396   7.955
 7386POPC   C4A25470  44.626  21.429   7.655
 7386POPC   C1B25471  44.756  21.161   8.555
 7386POPC   C2B25472  44.757  21.159   8.255
 7386POPC   C3B25473  44.837  21.144   7.955
 7386POPC   C4B25474  44.809  21.231   7.655
 7387POPC   NC325475   0.450  21.343   9.455
 7387POPC   PO425476   0.421  21.358   9.155
 7387POPC   GL125477   0.407  21.382   8.855
 7387POPC   GL225478   0.346  21.395   8.855
 7387POPC   C1A25479   0.442  21.366   8.555
 7387POPC   D2A25480   0.440  21.349   8.255
 7387POPC   C3A25481   0.398  21.422   7.955
 7387POPC   C4A25482   0.471  21.384   7.655
 7387POPC   C1B25483   0.236  21.315   8.555
 7387POPC   C2B25484   0.172  21.340   8.255
 7387POPC   C3B25485   0.210  21.301   7.955
 7387POPC   C4B25486   0.160  21.315   7.655
 7388POPC   NC325487  40.035  33.058   9.455
 7388POPC   PO425488  39.968  33.047   9.155
 7388POPC   GL125489  40.024  33.004   8.855
 7388POPC   GL225490  40.007  33.116   8.855
 7388POPC   C1A25491  39.969  33.004   8.555
 7388POPC   D2A25492  40.028  33.049   8.255
 7388POPC   C3A25493  39.995  33.014   7.955
 7388POPC   C4A25494  40.043  33.061   7.655
 7388POPC   C1B25495  40.114  33.277   8.555
 7388POPC   C2B25496  40.104  33.300   8.255
 7388POPC   C3B25497  40.131  33.261   7.955
 7388POPC   C4B25498  40.058  33.256   7.655
 7389POPC   NC325499   1.257  16.754   9.455
 7389POPC   PO425500   1.199  16.730   9.155
 7389POPC   GL125501   1.186  16.748   8.855
 7389POPC   GL225502   1.333  16.615   8.855
 7389POPC   C1A25503   1.222  16.737   8.555
 7389POPC   D2A25504   1.194  16.748   8.255
 7389POPC   C3A25505   1.189  16.744   7.955
 7389POPC   C4A25506   1.203  16.688   7.655
 7389POPC   C1B25507   1.396  16.548   8.555
 7389POPC   C2B25508   1.375  16.500   8.255
 7389POPC   C3B25509   1.331  16.544   7.955
 7389POPC   C4B25510   1.401  16.571   7.655
 7390POPC   NC325511   8.180  21.339   9.455
 7390POPC   PO425512   8.221  21.380   9.155
 7390POPC   GL125513   8.240  21.341   8.855
 7390POPC   GL225514   8.207  21.483   8.855
 7390POPC   C1A25515   8.156  21.390   8.555
 7390POPC   D2A25516   8.174  21.336   8.255
 7390POPC   C3A25517   8.205  21.398   7.955
 7390POPC   C4A25518   8.204  21.340   7.655
 7390POPC   C1B25519   8.348  21.604   8.555
 7390POPC   C2B25520   8.277  21.649   8.255
 7390POPC   C3B25521   8.289  21.616   7.955
 7390POPC   C4B25522   8.302  21.582   7.655
 7391POPC   NC325523   8.230  39.224   9.455
 7391POPC   PO425524   8.163  39.200   9.155
 7391POPC   GL125525   8.187  39.222   8.855
 7391POPC   GL225526   8.120  39.120   8.855
 7391POPC   C1A25527   8.178  39.200   8.555
 7391POPC   D2A25528   8.222  39.186   8.255
 7391POPC   C3A25529   8.156  39.202   7.955
 7391POPC   C4A25530   8.236  39.258   7.655
 7391POPC   C1B25531   8.026  39.079   8.555
 7391POPC   C2B25532   8.037  39.005   8.255
 7391POPC   C3B25533   7.983  39.017   7.955
 7391POPC   C4B25534   8.033  39.005   7.655
 7392POPC   NC325535  36.904  38.503   9.455
 7392POPC   PO425536  36.884  38.443   9.155
 7392POPC   GL125537  36.948  38.451   8.855
 7392POPC   GL225538  36.908  38.527   8.855
 7392POPC   C1A25539  36.938  38.464   8.555
 7392POPC   D2A25540  36.902  38.476   8.255
 7392POPC   C3A25541  36.947  38.502   7.955
 7392POPC   C4A25542  36.937  38.462   7.655
 7392POPC   C1B25543  36.961  38.642   8.555
 7392POPC   C2B25544  36.989  38.721   8.255
 7392POPC   C3B25545  37.015  38.643   7.955
 7392POPC   C4B25546  37.040  38.738   7.655
 7393POPC   NC325547   1.950  14.372   9.455
 7393POPC   PO425548   2.000  14.386   9.155
 7393POPC   GL125549   1.947  14.386   8.855
 7393POPC   GL225550   1.884  14.379   8.855
 7393POPC   C1A25551   1.945  14.407   8.555
 7393POPC   D2A25552   1.962  14.388   8.255
 7393POPC   C3A25553   1.966  14.357   7.955
 7393POPC   C4A25554   1.965  14.360   7.655
 7393POPC   C1B25555   1.742  14.382   8.555
 7393POPC   C2B25556   1.783  14.355   8.255
 7393POPC   C3B25557   1.699  14.403   7.955
 7393POPC   C4B25558   1.723  14.372   7.655
 7394POPC   NC325559  35.356   6.689   9.455
 7394POPC   PO425560  35.365   6.600   9.155
 7394POPC   GL125561  35.380   6.625   8.855
 7394POPC   GL225562  35.206   6.638   8.855
 7394POPC   C1A25563  35.401   6.656   8.555
 7394POPC   D2A25564  35.336   6.692   8.255
 7394POPC   C3A25565  35.314   6.601   7.955
 7394POPC   C4A25566  35.307   6.658   7.655
 7394POPC   C1B25567  35.140   6.664   8.555
 7394POPC   C2B25568  35.083   6.647   8.255
 7394POPC   C3B25569  35.124   6.646   7.955
 7394POPC   C4B25570  35.063   6.689   7.655
 7395POPC   NC325571   6.603   8.999   9.455
 7395POPC   PO425572   6.671   8.986   9.155
 7395POPC   GL125573   6.675   8.995   8.855
 7395POPC   GL225574   6.617   8.821   8.855
 7395POPC   C1A25575   6.694   8.997   8.555
 7395POPC   D2A25576   6.609   9.019   8.255
 7395POPC   C3A25577   6.643   8.953   7.955
 7395POPC   C4A25578   6.665   8.996   7.655
 7395POPC   C1B25579   6.530   8.774   8.555
 7395POPC   C2B25580   6.572   8.743   8.255
 7395POPC   C3B25581   6.518   8.745   7.955
 7395POPC   C4B25582   6.562   8.711   7.655
 7396POPC   NC325583  35.388  22.971   9.455
 7396POPC   PO425584  35.344  22.958   9.155
 7396POPC   GL125585  35.370  22.981   8.855
 7396POPC   GL225586  35.265  22.989   8.855
 7396POPC   C1A25587  35.343  22.932   8.555
 7396POPC   D2A25588  35.324  22.979   8.255
 7396POPC   C3A25589  35.304  22.904   7.955
 7396POPC   C4A25590  35.359  22.928   7.655
 7396POPC   C1B25591  35.206  23.112   8.555
 7396POPC   C2B25592  35.152  23.085   8.255
 7396POPC   C3B25593  35.224  23.106   7.955
 7396POPC   C4B25594  35.152  23.108   7.655
 7397POPC   NC325595  29.960   9.747   9.455
 7397POPC   PO425596  29.936   9.710   9.155
 7397POPC   GL125597  29.943   9.783   8.855
 7397POPC   GL225598  29.814   9.831   8.855
 7397POPC   C1A25599  29.942   9.787   8.555
 7397POPC   D2A25600  29.943   9.791   8.255
 7397POPC   C3A25601  29.963   9.743   7.955
 7397POPC   C4A25602  29.935   9.732   7.655
 7397POPC   C1B25603  29.706   9.874   8.555
 7397POPC   C2B25604  29.733   9.891   8.255
 7397POPC   C3B25605  29.777   9.941   7.955
 7397POPC   C4B25606  29.743   9.925   7.655
 7398POPC   NC325607  42.367  22.185   9.455
 7398POPC   PO425608  42.350  22.168   9.155
 7398POPC   GL125609  42.328  22.121   8.855
 7398POPC   GL225610  42.308  22.026   8.855
 7398POPC   C1A25611  42.353  22.184   8.555
 7398POPC   D2A25612  42.356  22.171   8.255
 7398POPC   C3A25613  42.315  22.172   7.955
 7398POPC   C4A25614  42.287  22.191   7.655
 7398POPC   C1B25615  42.298  21.926   8.555
 7398POPC   C2B25616  42.375  21.921   8.255
 7398POPC   C3B25617  42.356  21.866   7.955
 7398POPC   C4B25618  42.367  21.886   7.655
 7399POPC   NC325619  39.252  19.806   9.455
 7399POPC   PO425620  39.223  19.859   9.155
 7399POPC   GL125621  39.199  19.829   8.855
 7399POPC   GL225622  39.158  19.911   8.855
 7399POPC   C1A25623  39.222  19.858   8.555
 7399POPC   D2A25624  39.221  19.882   8.255
 7399POPC   C3A25625  39.224  19.874   7.955
 7399POPC   C4A25626  39.205  19.785   7.655
 7399POPC   C1B25627  39.018  20.011   8.555
 7399POPC   C2B25628  38.988  19.980   8.255
 7399POPC   C3B25629  39.044  19.942   7.955
 7399POPC   C4B25630  39.054  20.037   7.655
 7400POPC   NC325631   5.900  30.704   9.455
 7400POPC   PO425632   5.839  30.733   9.155
 7400POPC   GL125633   5.919  30.702   8.855
 7400POPC   GL225634   6.006  30.610   8.855
 7400POPC   C1A25635   5.916  30.702   8.555
 7400POPC   D2A25636   5.850  30.666   8.255
 7400POPC   C3A25637   5.885  30.707   7.955
 7400POPC   C4A25638   5.871  30.696   7.655
 7400POPC   C1B25639   6.135  30.653   8.555
 7400POPC   C2B25640   6.088  30.589   8.255
 7400POPC   C3B25641   6.124  30.656   7.955
 7400POPC   C4B25642   6.116  30.622   7.655
 7401POPC   NC325643  30.682   9.705   9.455
 7401POPC   PO425644  30.671   9.721   9.155
 7401POPC   GL125645  30.689   9.715   8.855
 7401POPC   GL225646  30.601   9.681   8.855
 7401POPC   C1A25647  30.725   9.756   8.555
 7401POPC   D2A25648  30.706   9.779   8.255
 7401POPC   C3A25649  30.648   9.711   7.955
 7401POPC   C4A25650  30.654   9.740   7.655
 7401POPC   C1B25651  30.483   9.549   8.555
 7401POPC   C2B25652  30.507   9.625   8.255
 7401POPC   C3B25653  30.490   9.606   7.955
 7401POPC   C4B25654  30.548   9.639   7.655
 7402POPC   NC325655  40.028  28.401   9.455
 7402POPC   PO425656  39.969  28.351   9.155
 7402POPC   GL125657  40.023  28.399   8.855
 7402POPC   GL225658  40.020  28.261   8.855
 7402POPC   C1A25659  39.985  28.320   8.555
 7402POPC   D2A25660  40.028  28.354   8.255
 7402POPC   C3A25661  39.961  28.405   7.955
 7402POPC   C4A25662  39.991  28.408   7.655
 7402POPC   C1B25663  39.967  28.106   8.555
 7402POPC   C2B25664  39.974  28.164   8.255
 7402POPC   C3B25665  39.998  28.146   7.955
 7402POPC   C4B25666  39.963  28.159   7.655
 7403POPC   NC325667  30.744  39.200   9.455
 7403POPC   PO425668  30.743  39.222   9.155
 7403POPC   GL125669  30.730  39.204   8.855
 7403POPC   GL225670  30.589  39.210   8.855
 7403POPC   C1A25671  30.664  39.247   8.555
 7403POPC   D2A25672  30.687  39.239   8.255
 7403POPC   C3A25673  30.723  39.247   7.955
 7403POPC   C4A25674  30.702  39.207   7.655
 7403POPC   C1B25675  30.475  39.211   8.555
 7403POPC   C2B25676  30.399  39.278   8.255
 7403POPC   C3B25677  30.429  39.254   7.955
 7403POPC   C4B25678  30.476  39.201   7.655
 7404POPC   NC325679  42.374  15.944   9.455
 7404POPC   PO425680  42.384  15.971   9.155
 7404POPC   GL125681  42.364  15.917   8.855
 7404POPC   GL225682  42.446  15.942   8.855
 7404POPC   C1A25683  42.346  15.982   8.555
 7404POPC   D2A25684  42.309  15.923   8.255
 7404POPC   C3A25685  42.295  15.953   7.955
 7404POPC   C4A25686  42.339  15.927   7.655
 7404POPC   C1B25687  42.559  15.966   8.555
 7404POPC   C2B25688  42.606  16.004   8.255
 7404POPC   C3B25689  42.613  16.039   7.955
 7404POPC   C4B25690  42.602  15.964   7.655
 7405POPC   NC325691  22.162  15.216   9.455
 7405POPC   PO425692  22.175  15.206   9.155
 7405POPC   GL125693  22.171  15.158   8.855
 7405POPC   GL225694  22.114  15.300   8.855
 7405POPC   C1A25695  22.191  15.186   8.555
 7405POPC   D2A25696  22.191  15.211   8.255
 7405POPC   C3A25697  22.183  15.146   7.955
 7405POPC   C4A25698  22.125  15.202   7.655
 7405POPC   C1B25699  21.993  15.340   8.555
 7405POPC   C2B25700  22.008  15.392   8.255
 7405POPC   C3B25701  21.958  15.333   7.955
 7405POPC   C4B25702  21.984  15.331   7.655
 7406POPC   NC325703  14.407  25.239   9.455
 7406POPC   PO425704  14.400  25.277   9.155
 7406POPC   GL125705  14.377  25.243   8.855
 7406POPC   GL225706  14.549  25.177   8.855
 7406POPC   C1A25707  14.433  25.242   8.555
 7406POPC   D2A25708  14.407  25.217   8.255
 7406POPC   C3A25709  14.388  25.307   7.955
 7406POPC   C4A25710  14.381  25.250   7.655
 7406POPC   C1B25711  14.632  25.156   8.555
 7406POPC   C2B25712  14.636  25.179   8.255
 7406POPC   C3B25713  14.647  25.087   7.955
 7406POPC   C4B25714  14.624  25.096   7.655
 7407POPC   NC325715  19.079  12.029   9.455
 7407POPC   PO425716  19.043  12.042   9.155
 7407POPC   GL125717  19.046  12.056   8.855
 7407POPC   GL225718  18.924  12.192   8.855
 7407POPC   C1A25719  19.026  12.097   8.555
 7407POPC   D2A25720  19.025  12.065   8.255
 7407POPC   C3A25721  19.031  12.125   7.955
 7407POPC   C4A25722  19.094  12.077   7.655
 7407POPC   C1B25723  18.850  12.215   8.555
 7407POPC   C2B25724  18.902  12.240   8.255
 7407POPC   C3B25725  18.901  12.240   7.955
 7407POPC   C4B25726  18.841  12.254   7.655
 7408POPC   NC325727  33.004  36.152   9.455
 7408POPC   PO425728  32.996  36.135   9.155
 7408POPC   GL125729  33.045  36.127   8.855
 7408POPC   GL225730  33.066  36.212   8.855
 7408POPC   C1A25731  33.006  36.115   8.555
 7408POPC   D2A25732  33.049  36.089   8.255
 7408POPC   C3A25733  32.975  36.146   7.955
 7408POPC   C4A25734  32.986  36.135   7.655
 7408POPC   C1B25735  33.096  36.351   8.555
 7408POPC   C2B25736  33.065  36.385   8.255
 7408POPC   C3B25737  33.093  36.326   7.955
 7408POPC   C4B25738  33.053  36.347   7.655
 7409POPC   NC325739  33.839  15.153   9.455
 7409POPC   PO425740  33.776  15.184   9.155
 7409POPC   GL125741  33.771  15.149   8.855
 7409POPC   GL225742  33.940  15.144   8.855
 7409POPC   C1A25743  33.786  15.192   8.555
 7409POPC   D2A25744  33.784  15.198   8.255
 7409POPC   C3A25745  33.774  15.143   7.955
 7409POPC   C4A25746  33.822  15.150   7.655
 7409POPC   C1B25747  34.033  15.145   8.555
 7409POPC   C2B25748  34.019  15.089   8.255
 7409POPC   C3B25749  34.074  15.112   7.955
 7409POPC   C4B25750  34.010  15.091   7.655
 7410POPC   NC325751  39.196  25.238   9.455
 7410POPC   PO425752  39.240  25.311   9.155
 7410POPC   GL125753  39.235  25.219   8.855
 7410POPC   GL225754  39.317  25.204   8.855
 7410POPC   C1A25755  39.225  25.289   8.555
 7410POPC   D2A25756  39.189  25.314   8.255
 7410POPC   C3A25757  39.213  25.225   7.955
 7410POPC   C4A25758  39.269  25.256   7.655
 7410POPC   C1B25759  39.466  25.206   8.555
 7410POPC   C2B25760  39.452  25.203   8.255
 7410POPC   C3B25761  39.470  25.168   7.955
 7410POPC   C4B25762  39.479  25.214   7.655
 7411POPC   NC325763   6.618  36.948   9.455
 7411POPC   PO425764   6.624  36.877   9.155
 7411POPC   GL125765   6.599  36.871   8.855
 7411POPC   GL225766   6.764  36.928   8.855
 7411POPC   C1A25767   6.659  36.921   8.555
 7411POPC   D2A25768   6.620  36.926   8.255
 7411POPC   C3A25769   6.617  36.888   7.955
 7411POPC   C4A25770   6.607  36.903   7.655
 7411POPC   C1B25771   6.936  36.867   8.555
 7411POPC   C2B25772   6.911  36.856   8.255
 7411POPC   C3B25773   6.916  36.901   7.955
 7411POPC   C4B25774   6.850  36.837   7.655
 7412POPC   NC325775  11.264  21.357   9.455
 7412POPC   PO425776  11.339  21.368   9.155
 7412POPC   GL125777  11.269  21.383   8.855
 7412POPC   GL225778  11.427  21.406   8.855
 7412POPC   C1A25779  11.304  21.433   8.555
 7412POPC   D2A25780  11.284  21.433   8.255
 7412POPC   C3A25781  11.297  21.339   7.955
 7412POPC   C4A25782  11.286  21.352   7.655
 7412POPC   C1B25783  11.507  21.322   8.555
 7412POPC   C2B25784  11.539  21.357   8.255
 7412POPC   C3B25785  11.589  21.325   7.955
 7412POPC   C4B25786  11.548  21.392   7.655
 7413POPC   NC325787   8.990  17.512   9.455
 7413POPC   PO425788   8.931  17.480   9.155
 7413POPC   GL125789   8.926  17.481   8.855
 7413POPC   GL225790   8.943  17.641   8.855
 7413POPC   C1A25791   8.952  17.489   8.555
 7413POPC   D2A25792   9.004  17.541   8.255
 7413POPC   C3A25793   8.930  17.557   7.955
 7413POPC   C4A25794   9.013  17.552   7.655
 7413POPC   C1B25795   8.980  17.737   8.555
 7413POPC   C2B25796   8.948  17.790   8.255
 7413POPC   C3B25797   8.922  17.775   7.955
 7413POPC   C4B25798   8.989  17.778   7.655
 7414POPC   NC325799  29.907  37.687   9.455
 7414POPC   PO425800  29.949  37.667   9.155
 7414POPC   GL125801  29.872  37.728   8.855
 7414POPC   GL225802  30.033  37.591   8.855
 7414POPC   C1A25803  29.954  37.699   8.555
 7414POPC   D2A25804  29.953  37.640   8.255
 7414POPC   C3A25805  29.948  37.714   7.955
 7414POPC   C4A25806  29.894  37.629   7.655
 7414POPC   C1B25807  30.103  37.557   8.555
 7414POPC   C2B25808  30.145  37.559   8.255
 7414POPC   C3B25809  30.169  37.559   7.955
 7414POPC   C4B25810  30.155  37.568   7.655
 7415POPC   NC325811  34.568   5.906   9.455
 7415POPC   PO425812  34.550   5.881   9.155
 7415POPC   GL125813  34.533   5.855   8.855
 7415POPC   GL225814  34.627   6.004   8.855
 7415POPC   C1A25815  34.573   5.882   8.555
 7415POPC   D2A25816  34.614   5.826   8.255
 7415POPC   C3A25817  34.589   5.849   7.955
 7415POPC   C4A25818  34.623   5.835   7.655
 7415POPC   C1B25819  34.706   6.069   8.555
 7415POPC   C2B25820  34.756   6.018   8.255
 7415POPC   C3B25821  34.710   6.062   7.955
 7415POPC   C4B25822  34.706   6.060   7.655
 7416POPC   NC325823  15.937  44.650   9.455
 7416POPC   PO425824  15.955  44.708   9.155
 7416POPC   GL125825  15.971  44.682   8.855
 7416POPC   GL225826  16.085  44.726   8.855
 7416POPC   C1A25827  15.929  44.674   8.555
 7416POPC   D2A25828  15.913  44.643   8.255
 7416POPC   C3A25829  15.933  44.671   7.955
 7416POPC   C4A25830  15.972  44.675   7.655
 7416POPC   C1B25831  16.163  44.779   8.555
 7416POPC   C2B25832  16.220  44.767   8.255
 7416POPC   C3B25833  16.216  44.775   7.955
 7416POPC   C4B25834  16.176  44.775   7.655
 7417POPC   NC325835  29.125  29.930   9.455
 7417POPC   PO425836  29.136  29.917   9.155
 7417POPC   GL125837  29.160  29.923   8.855
 7417POPC   GL225838  29.184  30.036   8.855
 7417POPC   C1A25839  29.096  29.950   8.555
 7417POPC   D2A25840  29.135  29.952   8.255
 7417POPC   C3A25841  29.111  29.878   7.955
 7417POPC   C4A25842  29.175  29.953   7.655
 7417POPC   C1B25843  29.223  30.102   8.555
 7417POPC   C2B25844  29.250  30.143   8.255
 7417POPC   C3B25845  29.221  30.172   7.955
 7417POPC   C4B25846  29.213  30.104   7.655
 7418POPC   NC325847  43.884   2.784   9.455
 7418POPC   PO425848  43.866   2.727   9.155
 7418POPC   GL125849  43.858   2.724   8.855
 7418POPC   GL225850  43.818   2.892   8.855
 7418POPC   C1A25851  43.923   2.764   8.555
 7418POPC   D2A25852  43.852   2.751   8.255
 7418POPC   C3A25853  43.933   2.746   7.955
 7418POPC   C4A25854  43.921   2.809   7.655
 7418POPC   C1B25855  43.666   2.946   8.555
 7418POPC   C2B25856  43.727   2.903   8.255
 7418POPC   C3B25857  43.707   2.888   7.955
 7418POPC   C4B25858  43.706   2.920   7.655
 7419POPC   NC325859  28.354  35.369   9.455
 7419POPC   PO425860  28.412  35.359   9.155
 7419POPC   GL125861  28.378  35.306   8.855
 7419POPC   GL225862  28.442  35.405   8.855
 7419POPC   C1A25863  28.411  35.351   8.555
 7419POPC   D2A25864  28.327  35.392   8.255
 7419POPC   C3A25865  28.352  35.305   7.955
 7419POPC   C4A25866  28.373  35.350   7.655
 7419POPC   C1B25867  28.608  35.471   8.555
 7419POPC   C2B25868  28.556  35.503   8.255
 7419POPC   C3B25869  28.577  35.528   7.955
 7419POPC   C4B25870  28.557  35.496   7.655
 7420POPC   NC325871  43.084   5.064   9.455
 7420POPC   PO425872  43.129   5.115   9.155
 7420POPC   GL125873  43.102   5.115   8.855
 7420POPC   GL225874  43.042   5.218   8.855
 7420POPC   C1A25875  43.139   5.120   8.555
 7420POPC   D2A25876  43.084   5.099   8.255
 7420POPC   C3A25877  43.117   5.073   7.955
 7420POPC   C4A25878  43.100   5.099   7.655
 7420POPC   C1B25879  43.005   5.332   8.555
 7420POPC   C2B25880  42.975   5.346   8.255
 7420POPC   C3B25881  43.024   5.292   7.955
 7420POPC   C4B25882  42.971   5.301   7.655
 7421POPC   NC325883  29.880   1.976   9.455
 7421POPC   PO425884  29.929   2.000   9.155
 7421POPC   GL125885  29.934   1.970   8.855
 7421POPC   GL225886  29.924   1.897   8.855
 7421POPC   C1A25887  29.933   2.035   8.555
 7421POPC   D2A25888  29.874   1.943   8.255
 7421POPC   C3A25889  29.939   1.940   7.955
 7421POPC   C4A25890  29.915   1.984   7.655
 7421POPC   C1B25891  30.032   1.776   8.555
 7421POPC   C2B25892  30.024   1.732   8.255
 7421POPC   C3B25893  29.967   1.773   7.955
 7421POPC   C4B25894  30.009   1.767   7.655
 7422POPC   NC325895   4.353   6.689   9.455
 7422POPC   PO425896   4.352   6.627   9.155
 7422POPC   GL125897   4.307   6.617   8.855
 7422POPC   GL225898   4.357   6.794   8.855
 7422POPC   C1A25899   4.299   6.664   8.555
 7422POPC   D2A25900   4.271   6.676   8.255
 7422POPC   C3A25901   4.316   6.674   7.955
 7422POPC   C4A25902   4.356   6.680   7.655
 7422POPC   C1B25903   4.487   6.867   8.555
 7422POPC   C2B25904   4.476   6.824   8.255
 7422POPC   C3B25905   4.425   6.802   7.955
 7422POPC   C4B25906   4.505   6.870   7.655
 7423POPC   NC325907  33.004  42.346   9.455
 7423POPC   PO425908  32.992  42.317   9.155
 7423POPC   GL125909  33.046  42.289   8.855
 7423POPC   GL225910  33.133  42.333   8.855
 7423POPC   C1A25911  33.006  42.335   8.555
 7423POPC   D2A25912  33.020  42.333   8.255
 7423POPC   C3A25913  33.053  42.373   7.955
 7423POPC   C4A25914  33.074  42.289   7.655
 7423POPC   C1B25915  33.231  42.462   8.555
 7423POPC   C2B25916  33.224  42.453   8.255
 7423POPC   C3B25917  33.236  42.452   7.955
 7423POPC   C4B25918  33.239  42.396   7.655
 7424POPC   NC325919  10.544  15.219   9.455
 7424POPC   PO425920  10.569  15.177   9.155
 7424POPC   GL125921  10.514  15.185   8.855
 7424POPC   GL225922  10.613  15.221   8.855
 7424POPC   C1A25923  10.506  15.193   8.555
 7424POPC   D2A25924  10.526  15.185   8.255
 7424POPC   C3A25925  10.510  15.225   7.955
 7424POPC   C4A25926  10.529  15.205   7.655
 7424POPC   C1B25927  10.711  15.296   8.555
 7424POPC   C2B25928  10.687  15.304   8.255
 7424POPC   C3B25929  10.715  15.279   7.955
 7424POPC   C4B25930  10.711  15.316   7.655
 7425POPC   NC325931  36.886  15.200   9.455
 7425POPC   PO425932  36.931  15.150   9.155
 7425POPC   GL125933  36.948  15.137   8.855
 7425POPC   GL225934  36.989  15.201   8.855
 7425POPC   C1A25935  36.945  15.181   8.555
 7425POPC   D2A25936  36.952  15.222   8.255
 7425POPC   C3A25937  36.935  15.166   7.955
 7425POPC   C4A25938  36.904  15.158   7.655
 7425POPC   C1B25939  37.165  15.224   8.555
 7425POPC   C2B25940  37.121  15.206   8.255
 7425POPC   C3B25941  37.156  15.204   7.955
 7425POPC   C4B25942  37.132  15.188   7.655
 7426POPC   NC325943  12.820   1.188   9.455
 7426POPC   PO425944  12.820   1.252   9.155
 7426POPC   GL125945  12.845   1.202   8.855
 7426POPC   GL225946  12.944   1.266   8.855
 7426POPC   C1A25947  12.814   1.171   8.555
 7426POPC   D2A25948  12.816   1.242   8.255
 7426POPC   C3A25949  12.839   1.174   7.955
 7426POPC   C4A25950  12.861   1.198   7.655
 7426POPC   C1B25951  13.071   1.282   8.555
 7426POPC   C2B25952  13.053   1.301   8.255
 7426POPC   C3B25953  13.134   1.224   7.955
 7426POPC   C4B25954  13.113   1.217   7.655
 7427POPC   NC325955   7.390   9.755   9.455
 7427POPC   PO425956   7.445   9.785   9.155
 7427POPC   GL125957   7.420   9.779   8.855
 7427POPC   GL225958   7.311   9.757   8.855
 7427POPC   C1A25959   7.433   9.758   8.555
 7427POPC   D2A25960   7.401   9.750   8.255
 7427POPC   C3A25961   7.453   9.741   7.955
 7427POPC   C4A25962   7.376   9.705   7.655
 7427POPC   C1B25963   7.238   9.874   8.555
 7427POPC   C2B25964   7.224   9.885   8.255
 7427POPC   C3B25965   7.172   9.852   7.955
 7427POPC   C4B25966   7.178   9.894   7.655
 7428POPC   NC325967  42.304  32.218   9.455
 7428POPC   PO425968  42.336  32.269   9.155
 7428POPC   GL125969  42.380  32.270   8.855
 7428POPC   GL225970  42.257  32.312   8.855
 7428POPC   C1A25971  42.294  32.201   8.555
 7428POPC   D2A25972  42.352  32.257   8.255
 7428POPC   C3A25973  42.355  32.234   7.955
 7428POPC   C4A25974  42.323  32.273   7.655
 7428POPC   C1B25975  42.168  32.389   8.555
 7428POPC   C2B25976  42.161  32.458   8.255
 7428POPC   C3B25977  42.104  32.413   7.955
 7428POPC   C4B25978  42.162  32.377   7.655
 7429POPC   NC325979  10.543  22.890   9.455
 7429POPC   PO425980  10.509  22.905   9.155
 7429POPC   GL125981  10.487  22.944   8.855
 7429POPC   GL225982  10.511  23.032   8.855
 7429POPC   C1A25983  10.549  22.919   8.555
 7429POPC   D2A25984  10.511  22.929   8.255
 7429POPC   C3A25985  10.511  22.919   7.955
 7429POPC   C4A25986  10.521  22.919   7.655
 7429POPC   C1B25987  10.467  23.210   8.555
 7429POPC   C2B25988  10.536  23.236   8.255
 7429POPC   C3B25989  10.498  23.187   7.955
 7429POPC   C4B25990  10.480  23.179   7.655
 7430POPC   NC325991  22.183  39.259   9.455
 7430POPC   PO425992  22.136  39.182   9.155
 7430POPC   GL125993  22.189  39.184   8.855
 7430POPC   GL225994  22.045  39.141   8.855
 7430POPC   C1A25995  22.140  39.186   8.555
 7430POPC   D2A25996  22.180  39.185   8.255
 7430POPC   C3A25997  22.186  39.182   7.955
 7430POPC   C4A25998  22.165  39.230   7.655
 7430POPC   C1B25999  21.981  39.070   8.555
 7430POPC   C2B26000  21.904  39.128   8.255
 7430POPC   C3B26001  21.937  39.090   7.955
 7430POPC   C4B26002  21.962  39.073   7.655
 7431POPC   NC326003  21.380  43.935   9.455
 7431POPC   PO426004  21.371  43.927   9.155
 7431POPC   GL126005  21.415  43.870   8.855
 7431POPC   GL226006  21.356  44.032   8.855
 7431POPC   C1A26007  21.422  43.861   8.555
 7431POPC   D2A26008  21.361  43.915   8.255
 7431POPC   C3A26009  21.404  43.910   7.955
 7431POPC   C4A26010  21.360  43.861   7.655
 7431POPC   C1B26011  21.448  44.156   8.555
 7431POPC   C2B26012  21.394  44.136   8.255
 7431POPC   C3B26013  21.434  44.160   7.955
 7431POPC   C4B26014  21.412  44.125   7.655
 7432POPC   NC326015  31.517   8.955   9.455
 7432POPC   PO426016  31.479   8.970   9.155
 7432POPC   GL126017  31.503   8.999   8.855
 7432POPC   GL226018  31.562   9.008   8.855
 7432POPC   C1A26019  31.433   8.968   8.555
 7432POPC   D2A26020  31.489   9.005   8.255
 7432POPC   C3A26021  31.481   8.968   7.955
 7432POPC   C4A26022  31.457   8.940   7.655
 7432POPC   C1B26023  31.666   9.094   8.555
 7432POPC   C2B26024  31.694   9.122   8.255
 7432POPC   C3B26025  31.706   9.129   7.955
 7432POPC   C4B26026  31.674   9.137   7.655
 7433POPC   NC326027  24.529  42.370   9.455
 7433POPC   PO426028  24.533  42.300   9.155
 7433POPC   GL126029  24.470  42.384   8.855
 7433POPC   GL226030  24.479  42.243   8.855
 7433POPC   C1A26031  24.451  42.297   8.555
 7433POPC   D2A26032  24.490  42.311   8.255
 7433POPC   C3A26033  24.511  42.294   7.955
 7433POPC   C4A26034  24.449  42.328   7.655
 7433POPC   C1B26035  24.534  42.106   8.555
 7433POPC   C2B26036  24.490  42.083   8.255
 7433POPC   C3B26037  24.554  42.066   7.955
 7433POPC   C4B26038  24.471  42.130   7.655
 7434POPC   NC326039  29.147  41.532   9.455
 7434POPC   PO426040  29.170  41.554   9.155
 7434POPC   GL126041  29.144  41.576   8.855
 7434POPC   GL226042  29.089  41.449   8.855
 7434POPC   C1A26043  29.113  41.542   8.555
 7434POPC   D2A26044  29.190  41.525   8.255
 7434POPC   C3A26045  29.160  41.578   7.955
 7434POPC   C4A26046  29.148  41.551   7.655
 7434POPC   C1B26047  29.010  41.365   8.555
 7434POPC   C2B26048  28.982  41.393   8.255
 7434POPC   C3B26049  28.924  41.358   7.955
 7434POPC   C4B26050  28.987  41.406   7.655
 7435POPC   NC326051  32.207  10.556   9.455
 7435POPC   PO426052  32.212  10.564   9.155
 7435POPC   GL126053  32.235  10.533   8.855
 7435POPC   GL226054  32.305  10.469   8.855
 7435POPC   C1A26055  32.293  10.487   8.555
 7435POPC   D2A26056  32.226  10.514   8.255
 7435POPC   C3A26057  32.286  10.559   7.955
 7435POPC   C4A26058  32.263  10.545   7.655
 7435POPC   C1B26059  32.414  10.287   8.555
 7435POPC   C2B26060  32.372  10.371   8.255
 7435POPC   C3B26061  32.413  10.362   7.955
 7435POPC   C4B26062  32.372  10.307   7.655
 7436POPC   NC326063  11.338  35.383   9.455
 7436POPC   PO426064  11.315  35.310   9.155
 7436POPC   GL126065  11.338  35.366   8.855
 7436POPC   GL226066  11.306  35.518   8.855
 7436POPC   C1A26067  11.263  35.329   8.555
 7436POPC   D2A26068  11.261  35.319   8.255
 7436POPC   C3A26069  11.300  35.342   7.955
 7436POPC   C4A26070  11.314  35.380   7.655
 7436POPC   C1B26071  11.370  35.634   8.555
 7436POPC   C2B26072  11.365  35.615   8.255
 7436POPC   C3B26073  11.384  35.583   7.955
 7436POPC   C4B26074  11.398  35.583   7.655
 7437POPC   NC326075  41.514  26.807   9.455
 7437POPC   PO426076  41.579  26.784   9.155
 7437POPC   GL126077  41.599  26.785   8.855
 7437POPC   GL226078  41.541  26.653   8.855
 7437POPC   C1A26079  41.518  26.835   8.555
 7437POPC   D2A26080  41.544  26.778   8.255
 7437POPC   C3A26081  41.517  26.793   7.955
 7437POPC   C4A26082  41.539  26.822   7.655
 7437POPC   C1B26083  41.638  26.593   8.555
 7437POPC   C2B26084  41.578  26.581   8.255
 7437POPC   C3B26085  41.631  26.534   7.955
 7437POPC   C4B26086  41.613  26.544   7.655
 7438POPC   NC326087   1.259  19.882   9.455
 7438POPC   PO426088   1.198  19.795   9.155
 7438POPC   GL126089   1.174  19.810   8.855
 7438POPC   GL226090   1.384  19.863   8.855
 7438POPC   C1A26091   1.193  19.866   8.555
 7438POPC   D2A26092   1.232  19.812   8.255
 7438POPC   C3A26093   1.214  19.859   7.955
 7438POPC   C4A26094   1.172  19.859   7.655
 7438POPC   C1B26095   1.442  19.844   8.555
 7438POPC   C2B26096   1.490  19.808   8.255
 7438POPC   C3B26097   1.447  19.843   7.955
 7438POPC   C4B26098   1.449  19.849   7.655
 7439POPC   NC326099  39.209  35.362   9.455
 7439POPC   PO426100  39.245  35.303   9.155
 7439POPC   GL126101  39.218  35.312   8.855
 7439POPC   GL226102  39.128  35.437   8.855
 7439POPC   C1A26103  39.184  35.319   8.555
 7439POPC   D2A26104  39.218  35.397   8.255
 7439POPC   C3A26105  39.182  35.327   7.955
 7439POPC   C4A26106  39.189  35.318   7.655
 7439POPC   C1B26107  39.067  35.464   8.555
 7439POPC   C2B26108  39.044  35.473   8.255
 7439POPC   C3B26109  38.998  35.498   7.955
 7439POPC   C4B26110  39.068  35.451   7.655
 7440POPC   NC326111  30.745  43.859   9.455
 7440POPC   PO426112  30.658  43.861   9.155
 7440POPC   GL126113  30.716  43.894   8.855
 7440POPC   GL226114  30.783  43.850   8.855
 7440POPC   C1A26115  30.727  43.860   8.555
 7440POPC   D2A26116  30.661  43.913   8.255
 7440POPC   C3A26117  30.700  43.884   7.955
 7440POPC   C4A26118  30.667  43.842   7.655
 7440POPC   C1B26119  30.865  43.760   8.555
 7440POPC   C2B26120  30.924  43.714   8.255
 7440POPC   C3B26121  30.921  43.809   7.955
 7440POPC   C4B26122  30.910  43.779   7.655
 7441POPC   NC326123  39.268  12.884   9.455
 7441POPC   PO426124  39.235  12.825   9.155
 7441POPC   GL126125  39.243  12.895   8.855
 7441POPC   GL226126  39.144  12.975   8.855
 7441POPC   C1A26127  39.276  12.806   8.555
 7441POPC   D2A26128  39.239  12.822   8.255
 7441POPC   C3A26129  39.259  12.871   7.955
 7441POPC   C4A26130  39.227  12.830   7.655
 7441POPC   C1B26131  39.009  12.967   8.555
 7441POPC   C2B26132  39.045  12.982   8.255
 7441POPC   C3B26133  39.003  13.039   7.955
 7441POPC   C4B26134  39.056  12.983   7.655
 7442POPC   NC326135  35.321  12.881   9.455
 7442POPC   PO426136  35.398  12.807   9.155
 7442POPC   GL126137  35.384  12.899   8.855
 7442POPC   GL226138  35.322  12.959   8.855
 7442POPC   C1A26139  35.400  12.893   8.555
 7442POPC   D2A26140  35.380  12.878   8.255
 7442POPC   C3A26141  35.382  12.879   7.955
 7442POPC   C4A26142  35.324  12.856   7.655
 7442POPC   C1B26143  35.245  13.116   8.555
 7442POPC   C2B26144  35.249  13.080   8.255
 7442POPC   C3B26145  35.232  13.126   7.955
 7442POPC   C4B26146  35.303  13.070   7.655
 7443POPC   NC326147   7.465  38.437   9.455
 7443POPC   PO426148   7.453  38.493   9.155
 7443POPC   GL126149   7.402  38.500   8.855
 7443POPC   GL226150   7.332  38.367   8.855
 7443POPC   C1A26151   7.387  38.488   8.555
 7443POPC   D2A26152   7.373  38.443   8.255
 7443POPC   C3A26153   7.405  38.501   7.955
 7443POPC   C4A26154   7.412  38.498   7.655
 7443POPC   C1B26155   7.236  38.258   8.555
 7443POPC   C2B26156   7.311  38.296   8.255
 7443POPC   C3B26157   7.279  38.299   7.955
 7443POPC   C4B26158   7.315  38.249   7.655
 7444POPC   NC326159  16.710  10.532   9.455
 7444POPC   PO426160  16.755  10.490   9.155
 7444POPC   GL126161  16.742  10.521   8.855
 7444POPC   GL226162  16.837  10.462   8.855
 7444POPC   C1A26163  16.692  10.524   8.555
 7444POPC   D2A26164  16.778  10.488   8.255
 7444POPC   C3A26165  16.737  10.513   7.955
 7444POPC   C4A26166  16.762  10.560   7.655
 7444POPC   C1B26167  17.024  10.491   8.555
 7444POPC   C2B26168  16.945  10.513   8.255
 7444POPC   C3B26169  16.965  10.519   7.955
 7444POPC   C4B26170  17.000  10.507   7.655
 7445POPC   NC326171  15.963  12.032   9.455
 7445POPC   PO426172  15.936  12.051   9.155
 7445POPC   GL126173  15.917  12.083   8.855
 7445POPC   GL226174  15.864  12.036   8.855
 7445POPC   C1A26175  15.956  12.038   8.555
 7445POPC   D2A26176  15.975  12.040   8.255
 7445POPC   C3A26177  15.978  12.039   7.955
 7445POPC   C4A26178  15.967  12.099   7.655
 7445POPC   C1B26179  15.707  12.027   8.555
 7445POPC   C2B26180  15.737  11.996   8.255
 7445POPC   C3B26181  15.699  11.948   7.955
 7445POPC   C4B26182  15.734  11.994   7.655
 7446POPC   NC326183  17.477  26.021   9.455
 7446POPC   PO426184  17.534  26.049   9.155
 7446POPC   GL126185  17.529  26.009   8.855
 7446POPC   GL226186  17.618  26.016   8.855
 7446POPC   C1A26187  17.522  25.994   8.555
 7446POPC   D2A26188  17.524  26.034   8.255
 7446POPC   C3A26189  17.548  26.065   7.955
 7446POPC   C4A26190  17.473  26.039   7.655
 7446POPC   C1B26191  17.771  25.967   8.555
 7446POPC   C2B26192  17.728  25.986   8.255
 7446POPC   C3B26193  17.706  26.032   7.955
 7446POPC   C4B26194  17.750  26.008   7.655
 7447POPC   NC326195  22.921  31.461   9.455
 7447POPC   PO426196  22.967  31.492   9.155
 7447POPC   GL126197  22.888  31.430   8.855
 7447POPC   GL226198  23.059  31.455   8.855
 7447POPC   C1A26199  22.928  31.466   8.555
 7447POPC   D2A26200  22.901  31.510   8.255
 7447POPC   C3A26201  22.911  31.507   7.955
 7447POPC   C4A26202  22.914  31.494   7.655
 7447POPC   C1B26203  23.147  31.367   8.555
 7447POPC   C2B26204  23.129  31.396   8.255
 7447POPC   C3B26205  23.177  31.357   7.955
 7447POPC   C4B26206  23.154  31.345   7.655
 7448POPC   NC326207  32.283  34.605   9.455
 7448POPC   PO426208  32.213  34.601   9.155
 7448POPC   GL126209  32.224  34.571   8.855
 7448POPC   GL226210  32.179  34.625   8.855
 7448POPC   C1A26211  32.221  34.548   8.555
 7448POPC   D2A26212  32.266  34.595   8.255
 7448POPC   C3A26213  32.206  34.573   7.955
 7448POPC   C4A26214  32.275  34.543   7.655
 7448POPC   C1B26215  32.010  34.696   8.555
 7448POPC   C2B26216  32.037  34.736   8.255
 7448POPC   C3B26217  32.004  34.743   7.955
 7448POPC   C4B26218  31.995  34.680   7.655
 7449POPC   NC326219  20.631  11.262   9.455
 7449POPC   PO426220  20.617  11.342   9.155
 7449POPC   GL126221  20.587  11.260   8.855
 7449POPC   GL226222  20.662  11.391   8.855
 7449POPC   C1A26223  20.579  11.281   8.555
 7449POPC   D2A26224  20.605  11.294   8.255
 7449POPC   C3A26225  20.645  11.285   7.955
 7449POPC   C4A26226  20.602  11.324   7.655
 7449POPC   C1B26227  20.808  11.495   8.555
 7449POPC   C2B26228  20.741  11.478   8.255
 7449POPC   C3B26229  20.752  11.465   7.955
 7449POPC   C4B26230  20.787  11.452   7.655
 7450POPC   NC326231  14.355  32.988   9.455
 7450POPC   PO426232  14.452  33.037   9.155
 7450POPC   GL126233  14.354  33.027   8.855
 7450POPC   GL226234  14.349  33.123   8.855
 7450POPC   C1A26235  14.377  33.058   8.555
 7450POPC   D2A26236  14.410  33.008   8.255
 7450POPC   C3A26237  14.371  33.048   7.955
 7450POPC   C4A26238  14.399  33.069   7.655
 7450POPC   C1B26239  14.337  33.284   8.555
 7450POPC   C2B26240  14.314  33.270   8.255
 7450POPC   C3B26241  14.371  33.282   7.955
 7450POPC   C4B26242  14.336  33.289   7.655
 7451POPC   NC326243   6.688  35.346   9.455
 7451POPC   PO426244   6.647  35.370   9.155
 7451POPC   GL126245   6.621  35.364   8.855
 7451POPC   GL226246   6.770  35.329   8.855
 7451POPC   C1A26247   6.639  35.338   8.555
 7451POPC   D2A26248   6.635  35.349   8.255
 7451POPC   C3A26249   6.635  35.321   7.955
 7451POPC   C4A26250   6.663  35.337   7.655
 7451POPC   C1B26251   6.894  35.378   8.555
 7451POPC   C2B26252   6.932  35.331   8.255
 7451POPC   C3B26253   6.913  35.352   7.955
 7451POPC   C4B26254   6.920  35.382   7.655
 7452POPC   NC326255  12.029  30.744   9.455
 7452POPC   PO426256  12.074  30.671   9.155
 7452POPC   GL126257  12.070  30.648   8.855
 7452POPC   GL226258  12.053  30.568   8.855
 7452POPC   C1A26259  12.056  30.726   8.555
 7452POPC   D2A26260  12.095  30.721   8.255
 7452POPC   C3A26261  12.058  30.700   7.955
 7452POPC   C4A26262  12.056  30.709   7.655
 7452POPC   C1B26263  12.080  30.488   8.555
 7452POPC   C2B26264  12.080  30.496   8.255
 7452POPC   C3B26265  12.078  30.487   7.955
 7452POPC   C4B26266  12.021  30.469   7.655
 7453POPC   NC326267  26.028  24.475   9.455
 7453POPC   PO426268  26.007  24.453   9.155
 7453POPC   GL126269  26.024  24.496   8.855
 7453POPC   GL226270  26.190  24.465   8.855
 7453POPC   C1A26271  26.042  24.456   8.555
 7453POPC   D2A26272  26.078  24.466   8.255
 7453POPC   C3A26273  26.010  24.516   7.955
 7453POPC   C4A26274  26.086  24.440   7.655
 7453POPC   C1B26275  26.297  24.418   8.555
 7453POPC   C2B26276  26.288  24.426   8.255
 7453POPC   C3B26277  26.314  24.404   7.955
 7453POPC   C4B26278  26.296  24.426   7.655
 7454POPC   NC326279   6.627  18.288   9.455
 7454POPC   PO426280   6.642  18.242   9.155
 7454POPC   GL126281   6.624  18.254   8.855
 7454POPC   GL226282   6.578  18.187   8.855
 7454POPC   C1A26283   6.679  18.295   8.555
 7454POPC   D2A26284   6.667  18.248   8.255
 7454POPC   C3A26285   6.601  18.256   7.955
 7454POPC   C4A26286   6.628  18.304   7.655
 7454POPC   C1B26287   6.392  18.169   8.555
 7454POPC   C2B26288   6.405  18.229   8.255
 7454POPC   C3B26289   6.443  18.139   7.955
 7454POPC   C4B26290   6.424  18.139   7.655
 7455POPC   NC326291  40.785  15.135   9.455
 7455POPC   PO426292  40.787  15.171   9.155
 7455POPC   GL126293  40.833  15.159   8.855
 7455POPC   GL226294  40.869  15.104   8.855
 7455POPC   C1A26295  40.775  15.173   8.555
 7455POPC   D2A26296  40.806  15.168   8.255
 7455POPC   C3A26297  40.824  15.181   7.955
 7455POPC   C4A26298  40.752  15.141   7.655
 7455POPC   C1B26299  40.943  15.049   8.555
 7455POPC   C2B26300  41.005  15.010   8.255
 7455POPC   C3B26301  41.005  15.019   7.955
 7455POPC   C4B26302  41.034  15.012   7.655
 7456POPC   NC326303  32.265  40.734   9.455
 7456POPC   PO426304  32.206  40.766   9.155
 7456POPC   GL126305  32.235  40.777   8.855
 7456POPC   GL226306  32.169  40.851   8.855
 7456POPC   C1A26307  32.257  40.742   8.555
 7456POPC   D2A26308  32.245  40.832   8.255
 7456POPC   C3A26309  32.262  40.827   7.955
 7456POPC   C4A26310  32.276  40.763   7.655
 7456POPC   C1B26311  32.039  40.947   8.555
 7456POPC   C2B26312  32.100  40.948   8.255
 7456POPC   C3B26313  32.092  40.931   7.955
 7456POPC   C4B26314  32.110  40.989   7.655
 7457POPC   NC326315  24.473  32.288   9.455
 7457POPC   PO426316  24.473  32.221   9.155
 7457POPC   GL126317  24.529  32.238   8.855
 7457POPC   GL226318  24.455  32.089   8.855
 7457POPC   C1A26319  24.512  32.205   8.555
 7457POPC   D2A26320  24.511  32.207   8.255
 7457POPC   C3A26321  24.453  32.208   7.955
 7457POPC   C4A26322  24.452  32.221   7.655
 7457POPC   C1B26323  24.478  32.015   8.555
 7457POPC   C2B26324  24.455  32.027   8.255
 7457POPC   C3B26325  24.485  32.003   7.955
 7457POPC   C4B26326  24.428  31.996   7.655
 7458POPC   NC326327   5.137  19.833   9.455
 7458POPC   PO426328   5.063  19.791   9.155
 7458POPC   GL126329   5.101  19.820   8.855
 7458POPC   GL226330   5.055  19.719   8.855
 7458POPC   C1A26331   5.114  19.831   8.555
 7458POPC   D2A26332   5.090  19.800   8.255
 7458POPC   C3A26333   5.059  19.867   7.955
 7458POPC   C4A26334   5.129  19.823   7.655
 7458POPC   C1B26335   5.016  19.623   8.555
 7458POPC   C2B26336   4.968  19.642   8.255
 7458POPC   C3B26337   4.998  19.603   7.955
 7458POPC   C4B26338   4.964  19.634   7.655
 7459POPC   NC326339  26.001   8.940   9.455
 7459POPC   PO426340  26.064   8.954   9.155
 7459POPC   GL126341  26.026   9.002   8.855
 7459POPC   GL226342  26.092   8.895   8.855
 7459POPC   C1A26343  26.025   8.992   8.555
 7459POPC   D2A26344  26.082   9.011   8.255
 7459POPC   C3A26345  26.004   8.932   7.955
 7459POPC   C4A26346  26.062   8.970   7.655
 7459POPC   C1B26347  26.202   8.835   8.555
 7459POPC   C2B26348  26.191   8.827   8.255
 7459POPC   C3B26349  26.271   8.838   7.955
 7459POPC   C4B26350  26.263   8.840   7.655
 7460POPC   NC326351  34.623  29.098   9.455
 7460POPC   PO426352  34.573  29.141   9.155
 7460POPC   GL126353  34.618  29.146   8.855
 7460POPC   GL226354  34.686  29.090   8.855
 7460POPC   C1A26355  34.589  29.181   8.555
 7460POPC   D2A26356  34.606  29.098   8.255
 7460POPC   C3A26357  34.587  29.176   7.955
 7460POPC   C4A26358  34.578  29.154   7.655
 7460POPC   C1B26359  34.800  28.977   8.555
 7460POPC   C2B26360  34.731  28.990   8.255
 7460POPC   C3B26361  34.772  29.013   7.955
 7460POPC   C4B26362  34.716  28.935   7.655
 7461POPC   NC326363  22.190  32.271   9.455
 7461POPC   PO426364  22.190  32.257   9.155
 7461POPC   GL126365  22.211  32.252   8.855
 7461POPC   GL226366  22.189  32.126   8.855
 7461POPC   C1A26367  22.169  32.255   8.555
 7461POPC   D2A26368  22.176  32.267   8.255
 7461POPC   C3A26369  22.125  32.250   7.955
 7461POPC   C4A26370  22.158  32.257   7.655
 7461POPC   C1B26371  22.142  31.968   8.555
 7461POPC   C2B26372  22.223  32.033   8.255
 7461POPC   C3B26373  22.176  32.033   7.955
 7461POPC   C4B26374  22.129  31.969   7.655
 7462POPC   NC326375  40.756  36.871   9.455
 7462POPC   PO426376  40.831  36.944   9.155
 7462POPC   GL126377  40.793  36.887   8.855
 7462POPC   GL226378  40.643  36.878   8.855
 7462POPC   C1A26379  40.815  36.880   8.555
 7462POPC   D2A26380  40.751  36.901   8.255
 7462POPC   C3A26381  40.793  36.864   7.955
 7462POPC   C4A26382  40.737  36.901   7.655
 7462POPC   C1B26383  40.602  36.757   8.555
 7462POPC   C2B26384  40.535  36.837   8.255
 7462POPC   C3B26385  40.606  36.799   7.955
 7462POPC   C4B26386  40.573  36.829   7.655
 7463POPC   NC326387  14.390   3.514   9.455
 7463POPC   PO426388  14.377   3.582   9.155
 7463POPC   GL126389  14.440   3.540   8.855
 7463POPC   GL226390  14.286   3.418   8.855
 7463POPC   C1A26391  14.410   3.540   8.555
 7463POPC   D2A26392  14.389   3.500   8.255
 7463POPC   C3A26393  14.433   3.535   7.955
 7463POPC   C4A26394  14.392   3.569   7.655
 7463POPC   C1B26395  14.207   3.412   8.555
 7463POPC   C2B26396  14.188   3.410   8.255
 7463POPC   C3B26397  14.245   3.396   7.955
 7463POPC   C4B26398  14.250   3.396   7.655
 7464POPC   NC326399  43.084   1.990   9.455
 7464POPC   PO426400  43.140   1.951   9.155
 7464POPC   GL126401  43.123   1.993   8.855
 7464POPC   GL226402  43.256   1.971   8.855
 7464POPC   C1A26403  43.078   2.006   8.555
 7464POPC   D2A26404  43.092   1.982   8.255
 7464POPC   C3A26405  43.130   1.949   7.955
 7464POPC   C4A26406  43.089   2.028   7.655
 7464POPC   C1B26407  43.305   2.015   8.555
 7464POPC   C2B26408  43.383   2.059   8.255
 7464POPC   C3B26409  43.334   2.027   7.955
 7464POPC   C4B26410  43.382   2.068   7.655
 7465POPC   NC326411  37.632  40.024   9.455
 7465POPC   PO426412  37.714  40.022   9.155
 7465POPC   GL126413  37.714  39.969   8.855
 7465POPC   GL226414  37.658  39.888   8.855
 7465POPC   C1A26415  37.722  40.033   8.555
 7465POPC   D2A26416  37.677  39.997   8.255
 7465POPC   C3A26417  37.701  40.020   7.955
 7465POPC   C4A26418  37.654  40.029   7.655
 7465POPC   C1B26419  37.714  39.773   8.555
 7465POPC   C2B26420  37.685  39.791   8.255
 7465POPC   C3B26421  37.615  39.711   7.955
 7465POPC   C4B26422  37.683  39.713   7.655
 7466POPC   NC326423  26.003  43.136   9.455
 7466POPC   PO426424  26.051  43.140   9.155
 7466POPC   GL126425  26.061  43.075   8.855
 7466POPC   GL226426  26.156  43.208   8.855
 7466POPC   C1A26427  25.999  43.114   8.555
 7466POPC   D2A26428  25.996  43.154   8.255
 7466POPC   C3A26429  26.037  43.084   7.955
 7466POPC   C4A26430  26.045  43.098   7.655
 7466POPC   C1B26431  26.230  43.282   8.555
 7466POPC   C2B26432  26.272  43.255   8.255
 7466POPC   C3B26433  26.267  43.301   7.955
 7466POPC   C4B26434  26.260  43.279   7.655
 7467POPC   NC326435  26.852  43.897   9.455
 7467POPC   PO426436  26.806  43.867   9.155
 7467POPC   GL126437  26.811  43.858   8.855
 7467POPC   GL226438  26.723  43.823   8.855
 7467POPC   C1A26439  26.771  43.924   8.555
 7467POPC   D2A26440  26.839  43.839   8.255
 7467POPC   C3A26441  26.823  43.923   7.955
 7467POPC   C4A26442  26.846  43.934   7.655
 7467POPC   C1B26443  26.629  43.761   8.555
 7467POPC   C2B26444  26.634  43.787   8.255
 7467POPC   C3B26445  26.649  43.754   7.955
 7467POPC   C4B26446  26.649  43.716   7.655
 7468POPC   NC326447  12.831  31.449   9.455
 7468POPC   PO426448  12.818  31.443   9.155
 7468POPC   GL126449  12.884  31.448   8.855
 7468POPC   GL226450  12.743  31.573   8.855
 7468POPC   C1A26451  12.881  31.445   8.555
 7468POPC   D2A26452  12.848  31.447   8.255
 7468POPC   C3A26453  12.875  31.511   7.955
 7468POPC   C4A26454  12.821  31.433   7.655
 7468POPC   C1B26455  12.657  31.583   8.555
 7468POPC   C2B26456  12.616  31.575   8.255
 7468POPC   C3B26457  12.590  31.600   7.955
 7468POPC   C4B26458  12.678  31.565   7.655
 7469POPC   NC326459  33.042  39.230   9.455
 7469POPC   PO426460  32.999  39.187   9.155
 7469POPC   GL126461  32.994  39.201   8.855
 7469POPC   GL226462  32.920  39.209   8.855
 7469POPC   C1A26463  33.035  39.250   8.555
 7469POPC   D2A26464  32.977  39.241   8.255
 7469POPC   C3A26465  33.008  39.224   7.955
 7469POPC   C4A26466  33.023  39.221   7.655
 7469POPC   C1B26467  32.822  39.141   8.555
 7469POPC   C2B26468  32.789  39.127   8.255
 7469POPC   C3B26469  32.780  39.184   7.955
 7469POPC   C4B26470  32.784  39.121   7.655
 7470POPC   NC326471  10.558  14.447   9.455
 7470POPC   PO426472  10.513  14.382   9.155
 7470POPC   GL126473  10.556  14.423   8.855
 7470POPC   GL226474  10.440  14.347   8.855
 7470POPC   C1A26475  10.477  14.445   8.555
 7470POPC   D2A26476  10.542  14.393   8.255
 7470POPC   C3A26477  10.519  14.414   7.955
 7470POPC   C4A26478  10.512  14.381   7.655
 7470POPC   C1B26479  10.383  14.185   8.555
 7470POPC   C2B26480  10.377  14.205   8.255
 7470POPC   C3B26481  10.312  14.230   7.955
 7470POPC   C4B26482  10.391  14.234   7.655
 7471POPC   NC326483   5.891  42.350   9.455
 7471POPC   PO426484   5.843  42.290   9.155
 7471POPC   GL126485   5.903  42.297   8.855
 7471POPC   GL226486   5.726  42.344   8.855
 7471POPC   C1A26487   5.909  42.293   8.555
 7471POPC   D2A26488   5.907  42.363   8.255
 7471POPC   C3A26489   5.878  42.382   7.955
 7471POPC   C4A26490   5.860  42.317   7.655
 7471POPC   C1B26491   5.655  42.311   8.555
 7471POPC   C2B26492   5.625  42.357   8.255
 7471POPC   C3B26493   5.663  42.369   7.955
 7471POPC   C4B26494   5.590  42.345   7.655
 7472POPC   NC326495   6.597  36.091   9.455
 7472POPC   PO426496   6.636  36.145   9.155
 7472POPC   GL126497   6.638  36.123   8.855
 7472POPC   GL226498   6.701  36.051   8.855
 7472POPC   C1A26499   6.648  36.088   8.555
 7472POPC   D2A26500   6.605  36.101   8.255
 7472POPC   C3A26501   6.669  36.115   7.955
 7472POPC   C4A26502   6.675  36.129   7.655
 7472POPC   C1B26503   6.737  35.904   8.555
 7472POPC   C2B26504   6.771  35.930   8.255
 7472POPC   C3B26505   6.820  35.907   7.955
 7472POPC   C4B26506   6.760  35.915   7.655
 7473POPC   NC326507   0.474  16.703   9.455
 7473POPC   PO426508   0.410  16.768   9.155
 7473POPC   GL126509   0.466  16.720   8.855
 7473POPC   GL226510   0.527  16.598   8.855
 7473POPC   C1A26511   0.442  16.740   8.555
 7473POPC   D2A26512   0.477  16.725   8.255
 7473POPC   C3A26513   0.429  16.766   7.955
 7473POPC   C4A26514   0.414  16.700   7.655
 7473POPC   C1B26515   0.596  16.511   8.555
 7473POPC   C2B26516   0.606  16.509   8.255
 7473POPC   C3B26517   0.608  16.522   7.955
 7473POPC   C4B26518   0.520  16.508   7.655
 7474POPC   NC326519   5.100   3.590   9.455
 7474POPC   PO426520   5.128   3.565   9.155
 7474POPC   GL126521   5.078   3.567   8.855
 7474POPC   GL226522   5.128   3.467   8.855
 7474POPC   C1A26523   5.132   3.561   8.555
 7474POPC   D2A26524   5.044   3.538   8.255
 7474POPC   C3A26525   5.127   3.570   7.955
 7474POPC   C4A26526   5.097   3.564   7.655
 7474POPC   C1B26527   5.205   3.390   8.555
 7474POPC   C2B26528   5.246   3.321   8.255
 7474POPC   C3B26529   5.241   3.328   7.955
 7474POPC   C4B26530   5.233   3.342   7.655
 7475POPC   NC326531  37.667  26.003   9.455
 7475POPC   PO426532  37.649  26.063   9.155
 7475POPC   GL126533  37.656  26.040   8.855
 7475POPC   GL226534  37.755  26.067   8.855
 7475POPC   C1A26535  37.711  26.067   8.555
 7475POPC   D2A26536  37.723  26.003   8.255
 7475POPC   C3A26537  37.690  26.057   7.955
 7475POPC   C4A26538  37.660  25.996   7.655
 7475POPC   C1B26539  37.955  26.125   8.555
 7475POPC   C2B26540  37.902  26.038   8.255
 7475POPC   C3B26541  37.892  26.118   7.955
 7475POPC   C4B26542  37.896  26.067   7.655
 7476POPC   NC326543  19.033   0.488   9.455
 7476POPC   PO426544  19.040   0.404   9.155
 7476POPC   GL126545  19.047   0.452   8.855
 7476POPC   GL226546  19.103   0.506   8.855
 7476POPC   C1A26547  19.034   0.482   8.555
 7476POPC   D2A26548  19.043   0.438   8.255
 7476POPC   C3A26549  19.033   0.439   7.955
 7476POPC   C4A26550  19.074   0.414   7.655
 7476POPC   C1B26551  19.190   0.639   8.555
 7476POPC   C2B26552  19.145   0.653   8.255
 7476POPC   C3B26553  19.141   0.710   7.955
 7476POPC   C4B26554  19.147   0.696   7.655
 7477POPC   NC326555   5.054  22.982   9.455
 7477POPC   PO426556   5.073  22.911   9.155
 7477POPC   GL126557   5.089  22.900   8.855
 7477POPC   GL226558   5.195  22.841   8.855
 7477POPC   C1A26559   5.075  22.954   8.555
 7477POPC   D2A26560   5.061  22.960   8.255
 7477POPC   C3A26561   5.135  22.944   7.955
 7477POPC   C4A26562   5.052  22.915   7.655
 7477POPC   C1B26563   5.188  22.759   8.555
 7477POPC   C2B26564   5.210  22.694   8.255
 7477POPC   C3B26565   5.203  22.673   7.955
 7477POPC   C4B26566   5.212  22.711   7.655
 7478POPC   NC326567   9.753  43.919   9.455
 7478POPC   PO426568   9.728  43.881   9.155
 7478POPC   GL126569   9.700  43.906   8.855
 7478POPC   GL226570   9.734  43.802   8.855
 7478POPC   C1A26571   9.777  43.879   8.555
 7478POPC   D2A26572   9.773  43.901   8.255
 7478POPC   C3A26573   9.708  43.924   7.955
 7478POPC   C4A26574   9.719  43.837   7.655
 7478POPC   C1B26575   9.637  43.595   8.555
 7478POPC   C2B26576   9.719  43.663   8.255
 7478POPC   C3B26577   9.677  43.618   7.955
 7478POPC   C4B26578   9.735  43.658   7.655
 7479POPC   NC326579  23.752  40.737   9.455
 7479POPC   PO426580  23.690  40.820   9.155
 7479POPC   GL126581  23.693  40.815   8.855
 7479POPC   GL226582  23.832  40.856   8.855
 7479POPC   C1A26583  23.726  40.763   8.555
 7479POPC   D2A26584  23.727  40.748   8.255
 7479POPC   C3A26585  23.698  40.805   7.955
 7479POPC   C4A26586  23.754  40.741   7.655
 7479POPC   C1B26587  23.917  40.942   8.555
 7479POPC   C2B26588  23.928  40.968   8.255
 7479POPC   C3B26589  23.873  40.903   7.955
 7479POPC   C4B26590  23.872  40.936   7.655
 7480POPC   NC326591  16.714   5.076   9.455
 7480POPC   PO426592  16.746   5.083   9.155
 7480POPC   GL126593  16.730   5.093   8.855
 7480POPC   GL226594  16.560   5.062   8.855
 7480POPC   C1A26595  16.760   5.047   8.555
 7480POPC   D2A26596  16.697   5.118   8.255
 7480POPC   C3A26597  16.717   5.057   7.955
 7480POPC   C4A26598  16.697   5.044   7.655
 7480POPC   C1B26599  16.448   5.093   8.555
 7480POPC   C2B26600  16.516   5.056   8.255
 7480POPC   C3B26601  16.441   5.045   7.955
 7480POPC   C4B26602  16.494   5.073   7.655
 7481POPC   NC326603   9.728  40.746   9.455
 7481POPC   PO426604   9.708  40.775   9.155
 7481POPC   GL126605   9.757  40.788   8.855
 7481POPC   GL226606   9.819  40.834   8.855
 7481POPC   C1A26607   9.718  40.778   8.555
 7481POPC   D2A26608   9.778  40.818   8.255
 7481POPC   C3A26609   9.705  40.758   7.955
 7481POPC   C4A26610   9.795  40.749   7.655
 7481POPC   C1B26611   9.937  40.895   8.555
 7481POPC   C2B26612   9.971  40.917   8.255
 7481POPC   C3B26613   9.937  40.945   7.955
 7481POPC   C4B26614   9.905  40.958   7.655
 7482POPC   NC326615  30.677  39.981   9.455
 7482POPC   PO426616  30.710  39.988   9.155
 7482POPC   GL126617  30.673  39.993   8.855
 7482POPC   GL226618  30.649  39.881   8.855
 7482POPC   C1A26619  30.711  40.035   8.555
 7482POPC   D2A26620  30.654  39.991   8.255
 7482POPC   C3A26621  30.727  39.980   7.955
 7482POPC   C4A26622  30.696  40.030   7.655
 7482POPC   C1B26623  30.612  39.769   8.555
 7482POPC   C2B26624  30.628  39.826   8.255
 7482POPC   C3B26625  30.608  39.818   7.955
 7482POPC   C4B26626  30.580  39.809   7.655
 7483POPC   NC326627  32.242  33.809   9.455
 7483POPC   PO426628  32.202  33.787   9.155
 7483POPC   GL126629  32.294  33.758   8.855
 7483POPC   GL226630  32.378  33.768   8.855
 7483POPC   C1A26631  32.224  33.772   8.555
 7483POPC   D2A26632  32.288  33.808   8.255
 7483POPC   C3A26633  32.247  33.829   7.955
 7483POPC   C4A26634  32.243  33.805   7.655
 7483POPC   C1B26635  32.498  33.736   8.555
 7483POPC   C2B26636  32.458  33.709   8.255
 7483POPC   C3B26637  32.526  33.750   7.955
 7483POPC   C4B26638  32.484  33.712   7.655
 7484POPC   NC326639  31.463  32.221   9.455
 7484POPC   PO426640  31.438  32.288   9.155
 7484POPC   GL126641  31.442  32.266   8.855
 7484POPC   GL226642  31.314  32.331   8.855
 7484POPC   C1A26643  31.498  32.271   8.555
 7484POPC   D2A26644  31.469  32.275   8.255
 7484POPC   C3A26645  31.439  32.286   7.955
 7484POPC   C4A26646  31.513  32.274   7.655
 7484POPC   C1B26647  31.291  32.368   8.555
 7484POPC   C2B26648  31.292  32.342   8.255
 7484POPC   C3B26649  31.238  32.330   7.955
 7484POPC   C4B26650  31.278  32.359   7.655
 7485POPC   NC326651   8.984  12.809   9.455
 7485POPC   PO426652   9.003  12.814   9.155
 7485POPC   GL126653   9.013  12.815   8.855
 7485POPC   GL226654   8.984  12.725   8.855
 7485POPC   C1A26655   9.019  12.808   8.555
 7485POPC   D2A26656   9.022  12.810   8.255
 7485POPC   C3A26657   8.981  12.885   7.955
 7485POPC   C4A26658   8.980  12.820   7.655
 7485POPC   C1B26659   9.043  12.574   8.555
 7485POPC   C2B26660   9.051  12.623   8.255
 7485POPC   C3B26661   9.099  12.584   7.955
 7485POPC   C4B26662   9.096  12.645   7.655
 7486POPC   NC326663  22.918  28.388   9.455
 7486POPC   PO426664  22.948  28.323   9.155
 7486POPC   GL126665  22.940  28.330   8.855
 7486POPC   GL226666  22.835  28.346   8.855
 7486POPC   C1A26667  22.936  28.393   8.555
 7486POPC   D2A26668  22.986  28.418   8.255
 7486POPC   C3A26669  22.973  28.398   7.955
 7486POPC   C4A26670  22.906  28.377   7.655
 7486POPC   C1B26671  22.658  28.367   8.555
 7486POPC   C2B26672  22.727  28.293   8.255
 7486POPC   C3B26673  22.689  28.348   7.955
 7486POPC   C4B26674  22.641  28.345   7.655
 7487POPC   NC326675  38.473  21.434   9.455
 7487POPC   PO426676  38.472  21.383   9.155
 7487POPC   GL126677  38.487  21.338   8.855
 7487POPC   GL226678  38.340  21.443   8.855
 7487POPC   C1A26679  38.437  21.435   8.555
 7487POPC   D2A26680  38.449  21.351   8.255
 7487POPC   C3A26681  38.470  21.401   7.955
 7487POPC   C4A26682  38.430  21.396   7.655
 7487POPC   C1B26683  38.203  21.488   8.555
 7487POPC   C2B26684  38.204  21.488   8.255
 7487POPC   C3B26685  38.256  21.515   7.955
 7487POPC   C4B26686  38.198  21.538   7.655
 7488POPC   NC326687  41.510  38.420   9.455
 7488POPC   PO426688  41.604  38.417   9.155
 7488POPC   GL126689  41.574  38.455   8.855
 7488POPC   GL226690  41.518  38.302   8.855
 7488POPC   C1A26691  41.591  38.478   8.555
 7488POPC   D2A26692  41.558  38.483   8.255
 7488POPC   C3A26693  41.552  38.459   7.955
 7488POPC   C4A26694  41.592  38.441   7.655
 7488POPC   C1B26695  41.552  38.178   8.555
 7488POPC   C2B26696  41.526  38.211   8.255
 7488POPC   C3B26697  41.534  38.198   7.955
 7488POPC   C4B26698  41.528  38.219   7.655
 7489POPC   NC326699  34.597  11.254   9.455
 7489POPC   PO426700  34.528  11.258   9.155
 7489POPC   GL126701  34.608  11.268   8.855
 7489POPC   GL226702  34.442  11.246   8.855
 7489POPC   C1A26703  34.562  11.308   8.555
 7489POPC   D2A26704  34.570  11.318   8.255
 7489POPC   C3A26705  34.559  11.287   7.955
 7489POPC   C4A26706  34.557  11.317   7.655
 7489POPC   C1B26707  34.389  11.204   8.555
 7489POPC   C2B26708  34.319  11.187   8.255
 7489POPC   C3B26709  34.392  11.229   7.955
 7489POPC   C4B26710  34.302  11.167   7.655
 7490POPC   NC326711  10.572   1.962   9.455
 7490POPC   PO426712  10.500   2.036   9.155
 7490POPC   GL126713  10.527   2.013   8.855
 7490POPC   GL226714  10.605   1.919   8.855
 7490POPC   C1A26715  10.560   1.990   8.555
 7490POPC   D2A26716  10.494   1.996   8.255
 7490POPC   C3A26717  10.573   1.993   7.955
 7490POPC   C4A26718  10.516   1.964   7.655
 7490POPC   C1B26719  10.776   1.955   8.555
 7490POPC   C2B26720  10.790   1.912   8.255
 7490POPC   C3B26721  10.720   1.975   7.955
 7490POPC   C4B26722  10.813   1.900   7.655
 7491POPC   NC326723  10.497  17.469   9.455
 7491POPC   PO426724  10.516  17.494   9.155
 7491POPC   GL126725  10.494  17.544   8.855
 7491POPC   GL226726  10.383  17.405   8.855
 7491POPC   C1A26727  10.536  17.528   8.555
 7491POPC   D2A26728  10.525  17.525   8.255
 7491POPC   C3A26729  10.484  17.502   7.955
 7491POPC   C4A26730  10.573  17.473   7.655
 7491POPC   C1B26731  10.296  17.374   8.555
 7491POPC   C2B26732  10.281  17.313   8.255
 7491POPC   C3B26733  10.311  17.392   7.955
 7491POPC   C4B26734  10.354  17.382   7.655
 7492POPC   NC326735  32.258  41.578   9.455
 7492POPC   PO426736  32.260  41.510   9.155
 7492POPC   GL126737  32.220  41.536   8.855
 7492POPC   GL226738  32.318  41.625   8.855
 7492POPC   C1A26739  32.229  41.509   8.555
 7492POPC   D2A26740  32.201  41.529   8.255
 7492POPC   C3A26741  32.227  41.601   7.955
 7492POPC   C4A26742  32.250  41.517   7.655
 7492POPC   C1B26743  32.525  41.672   8.555
 7492POPC   C2B26744  32.521  41.623   8.255
 7492POPC   C3B26745  32.479  41.600   7.955
 7492POPC   C4B26746  32.459  41.607   7.655
 7493POPC   NC326747  19.871  39.190   9.455
 7493POPC   PO426748  19.882  39.184   9.155
 7493POPC   GL126749  19.819  39.252   8.855
 7493POPC   GL226750  19.873  39.380   8.855
 7493POPC   C1A26751  19.826  39.271   8.555
 7493POPC   D2A26752  19.863  39.269   8.255
 7493POPC   C3A26753  19.854  39.232   7.955
 7493POPC   C4A26754  19.823  39.260   7.655
 7493POPC   C1B26755  19.992  39.416   8.555
 7493POPC   C2B26756  19.935  39.419   8.255
 7493POPC   C3B26757  19.994  39.450   7.955
 7493POPC   C4B26758  19.966  39.470   7.655
 7494POPC   NC326759  38.475  28.372   9.455
 7494POPC   PO426760  38.437  28.410   9.155
 7494POPC   GL126761  38.489  28.336   8.855
 7494POPC   GL226762  38.620  28.359   8.855
 7494POPC   C1A26763  38.461  28.418   8.555
 7494POPC   D2A26764  38.439  28.417   8.255
 7494POPC   C3A26765  38.501  28.322   7.955
 7494POPC   C4A26766  38.472  28.372   7.655
 7494POPC   C1B26767  38.706  28.417   8.555
 7494POPC   C2B26768  38.658  28.393   8.255
 7494POPC   C3B26769  38.711  28.437   7.955
 7494POPC   C4B26770  38.717  28.400   7.655
 7495POPC   NC326771  15.925   5.084   9.455
 7495POPC   PO426772  15.966   5.115   9.155
 7495POPC   GL126773  15.941   5.103   8.855
 7495POPC   GL226774  15.799   5.090   8.855
 7495POPC   C1A26775  15.940   5.090   8.555
 7495POPC   D2A26776  16.004   5.102   8.255
 7495POPC   C3A26777  15.933   5.108   7.955
 7495POPC   C4A26778  15.995   5.104   7.655
 7495POPC   C1B26779  15.674   5.070   8.555
 7495POPC   C2B26780  15.684   5.041   8.255
 7495POPC   C3B26781  15.740   5.024   7.955
 7495POPC   C4B26782  15.700   5.022   7.655
 7496POPC   NC326783   7.394  42.380   9.455
 7496POPC   PO426784   7.439  42.312   9.155
 7496POPC   GL126785   7.422  42.314   8.855
 7496POPC   GL226786   7.553  42.445   8.855
 7496POPC   C1A26787   7.421  42.288   8.555
 7496POPC   D2A26788   7.444  42.310   8.255
 7496POPC   C3A26789   7.423  42.381   7.955
 7496POPC   C4A26790   7.378  42.325   7.655
 7496POPC   C1B26791   7.644  42.506   8.555
 7496POPC   C2B26792   7.587  42.507   8.255
 7496POPC   C3B26793   7.669  42.498   7.955
 7496POPC   C4B26794   7.631  42.472   7.655
 7497POPC   NC326795  13.590  12.103   9.455
 7497POPC   PO426796  13.613  12.119   9.155
 7497POPC   GL126797  13.663  12.074   8.855
 7497POPC   GL226798  13.671  12.153   8.855
 7497POPC   C1A26799  13.655  12.066   8.555
 7497POPC   D2A26800  13.602  12.078   8.255
 7497POPC   C3A26801  13.605  12.113   7.955
 7497POPC   C4A26802  13.660  12.119   7.655
 7497POPC   C1B26803  13.734  12.271   8.555
 7497POPC   C2B26804  13.758  12.348   8.255
 7497POPC   C3B26805  13.674  12.299   7.955
 7497POPC   C4B26806  13.669  12.314   7.655
 7498POPC   NC326807  36.166   4.331   9.455
 7498POPC   PO426808  36.087   4.343   9.155
 7498POPC   GL126809  36.083   4.300   8.855
 7498POPC   GL226810  36.168   4.428   8.855
 7498POPC   C1A26811  36.120   4.353   8.555
 7498POPC   D2A26812  36.117   4.358   8.255
 7498POPC   C3A26813  36.104   4.293   7.955
 7498POPC   C4A26814  36.169   4.338   7.655
 7498POPC   C1B26815  36.145   4.569   8.555
 7498POPC   C2B26816  36.169   4.601   8.255
 7498POPC   C3B26817  36.242   4.588   7.955
 7498POPC   C4B26818  36.240   4.586   7.655
 7499POPC   NC326819  40.821  23.741   9.455
 7499POPC   PO426820  40.768  23.742   9.155
 7499POPC   GL126821  40.810  23.737   8.855
 7499POPC   GL226822  40.677  23.722   8.855
 7499POPC   C1A26823  40.760  23.698   8.555
 7499POPC   D2A26824  40.765  23.718   8.255
 7499POPC   C3A26825  40.816  23.735   7.955
 7499POPC   C4A26826  40.754  23.742   7.655
 7499POPC   C1B26827  40.529  23.802   8.555
 7499POPC   C2B26828  40.590  23.806   8.255
 7499POPC   C3B26829  40.512  23.784   7.955
 7499POPC   C4B26830  40.535  23.831   7.655
 7500POPC   NC326831  26.020  26.037   9.455
 7500POPC   PO426832  26.068  26.087   9.155
 7500POPC   GL126833  26.059  25.994   8.855
 7500POPC   GL226834  26.055  25.919   8.855
 7500POPC   C1A26835  26.091  26.077   8.555
 7500POPC   D2A26836  26.015  26.049   8.255
 7500POPC   C3A26837  26.000  26.011   7.955
 7500POPC   C4A26838  26.034  26.016   7.655
 7500POPC   C1B26839  25.990  25.777   8.555
 7500POPC   C2B26840  25.973  25.792   8.255
 7500POPC   C3B26841  26.016  25.750   7.955
 7500POPC   C4B26842  25.993  25.804   7.655
 7501POPC   NC326843  42.344  36.896   9.455
 7501POPC   PO426844  42.376  36.887   9.155
 7501POPC   GL126845  42.362  36.947   8.855
 7501POPC   GL226846  42.263  36.787   8.855
 7501POPC   C1A26847  42.315  36.897   8.555
 7501POPC   D2A26848  42.344  36.926   8.255
 7501POPC   C3A26849  42.367  36.916   7.955
 7501POPC   C4A26850  42.344  36.901   7.655
 7501POPC   C1B26851  42.261  36.617   8.555
 7501POPC   C2B26852  42.291  36.647   8.255
 7501POPC   C3B26853  42.284  36.622   7.955
 7501POPC   C4B26854  42.251  36.662   7.655
 7502POPC   NC326855  12.068  44.709   9.455
 7502POPC   PO426856  12.105  44.664   9.155
 7502POPC   GL126857  12.122  44.643   8.855
 7502POPC   GL226858  12.165  44.546   8.855
 7502POPC   C1A26859  12.086  44.684   8.555
 7502POPC   D2A26860  12.050  44.629   8.255
 7502POPC   C3A26861  12.075  44.661   7.955
 7502POPC   C4A26862  12.104  44.643   7.655
 7502POPC   C1B26863  12.210  44.434   8.555
 7502POPC   C2B26864  12.166  44.396   8.255
 7502POPC   C3B26865  12.143  44.456   7.955
 7502POPC   C4B26866  12.196  44.474   7.655
 7503POPC   NC326867  38.405  36.135   9.455
 7503POPC   PO426868  38.474  36.166   9.155
 7503POPC   GL126869  38.421  36.082   8.855
 7503POPC   GL226870  38.574  36.233   8.855
 7503POPC   C1A26871  38.497  36.118   8.555
 7503POPC   D2A26872  38.467  36.163   8.255
 7503POPC   C3A26873  38.493  36.084   7.955
 7503POPC   C4A26874  38.460  36.136   7.655
 7503POPC   C1B26875  38.637  36.251   8.555
 7503POPC   C2B26876  38.675  36.258   8.255
 7503POPC   C3B26877  38.690  36.209   7.955
 7503POPC   C4B26878  38.635  36.271   7.655
 7504POPC   NC326879  15.975   1.232   9.455
 7504POPC   PO426880  15.988   1.235   9.155
 7504POPC   GL126881  15.938   1.254   8.855
 7504POPC   GL226882  16.032   1.346   8.855
 7504POPC   C1A26883  15.920   1.247   8.555
 7504POPC   D2A26884  15.908   1.213   8.255
 7504POPC   C3A26885  15.918   1.168   7.955
 7504POPC   C4A26886  15.919   1.228   7.655
 7504POPC   C1B26887  16.151   1.403   8.555
 7504POPC   C2B26888  16.092   1.414   8.255
 7504POPC   C3B26889  16.110   1.371   7.955
 7504POPC   C4B26890  16.186   1.340   7.655
 7505POPC   NC326891  35.399  11.257   9.455
 7505POPC   PO426892  35.334  11.289   9.155
 7505POPC   GL126893  35.393  11.279   8.855
 7505POPC   GL226894  35.464  11.290   8.855
 7505POPC   C1A26895  35.385  11.259   8.555
 7505POPC   D2A26896  35.325  11.310   8.255
 7505POPC   C3A26897  35.344  11.326   7.955
 7505POPC   C4A26898  35.317  11.311   7.655
 7505POPC   C1B26899  35.613  11.249   8.555
 7505POPC   C2B26900  35.593  11.296   8.255
 7505POPC   C3B26901  35.584  11.286   7.955
 7505POPC   C4B26902  35.606  11.249   7.655
 7506POPC   NC326903  28.323  37.709   9.455
 7506POPC   PO426904  28.371  37.700   9.155
 7506POPC   GL126905  28.404  37.704   8.855
 7506POPC   GL226906  28.385  37.821   8.855
 7506POPC   C1A26907  28.366  37.661   8.555
 7506POPC   D2A26908  28.369  37.675   8.255
 7506POPC   C3A26909  28.334  37.698   7.955
 7506POPC   C4A26910  28.405  37.649   7.655
 7506POPC   C1B26911  28.505  37.945   8.555
 7506POPC   C2B26912  28.449  37.895   8.255
 7506POPC   C3B26913  28.481  37.887   7.955
 7506POPC   C4B26914  28.482  37.866   7.655
 7507POPC   NC326915   7.402  33.774   9.455
 7507POPC   PO426916   7.469  33.843   9.155
 7507POPC   GL126917   7.378  33.790   8.855
 7507POPC   GL226918   7.529  33.800   8.855
 7507POPC   C1A26919   7.450  33.781   8.555
 7507POPC   D2A26920   7.372  33.802   8.255
 7507POPC   C3A26921   7.387  33.789   7.955
 7507POPC   C4A26922   7.392  33.780   7.655
 7507POPC   C1B26923   7.660  33.727   8.555
 7507POPC   C2B26924   7.653  33.765   8.255
 7507POPC   C3B26925   7.624  33.742   7.955
 7507POPC   C4B26926   7.649  33.747   7.655
 7508POPC   NC326927  36.149   5.111   9.455
 7508POPC   PO426928  36.149   5.134   9.155
 7508POPC   GL126929  36.102   5.076   8.855
 7508POPC   GL226930  36.232   5.111   8.855
 7508POPC   C1A26931  36.139   5.143   8.555
 7508POPC   D2A26932  36.174   5.093   8.255
 7508POPC   C3A26933  36.158   5.141   7.955
 7508POPC   C4A26934  36.121   5.121   7.655
 7508POPC   C1B26935  36.383   5.134   8.555
 7508POPC   C2B26936  36.385   5.100   8.255
 7508POPC   C3B26937  36.397   5.130   7.955
 7508POPC   C4B26938  36.402   5.133   7.655
 7509POPC   NC326939  43.151  38.501   9.455
 7509POPC   PO426940  43.065  38.419   9.155
 7509POPC   GL126941  43.115  38.489   8.855
 7509POPC   GL226942  43.274  38.461   8.855
 7509POPC   C1A26943  43.110  38.415   8.555
 7509POPC   D2A26944  43.160  38.480   8.255
 7509POPC   C3A26945  43.154  38.417   7.955
 7509POPC   C4A26946  43.147  38.433   7.655
 7509POPC   C1B26947  43.312  38.444   8.555
 7509POPC   C2B26948  43.323  38.464   8.255
 7509POPC   C3B26949  43.352  38.473   7.955
 7509POPC   C4B26950  43.389  38.439   7.655
 7510POPC   NC326951   0.485  15.980   9.455
 7510POPC   PO426952   0.391  15.997   9.155
 7510POPC   GL126953   0.423  15.929   8.855
 7510POPC   GL226954   0.369  16.051   8.855
 7510POPC   C1A26955   0.454  15.983   8.555
 7510POPC   D2A26956   0.457  15.999   8.255
 7510POPC   C3A26957   0.485  15.936   7.955
 7510POPC   C4A26958   0.406  15.975   7.655
 7510POPC   C1B26959   0.336  16.174   8.555
 7510POPC   C2B26960   0.244  16.186   8.255
 7510POPC   C3B26961   0.262  16.193   7.955
 7510POPC   C4B26962   0.322  16.202   7.655
 7511POPC   NC326963   7.389  16.750   9.455
 7511POPC   PO426964   7.411  16.734   9.155
 7511POPC   GL126965   7.405  16.767   8.855
 7511POPC   GL226966   7.557  16.677   8.855
 7511POPC   C1A26967   7.434  16.758   8.555
 7511POPC   D2A26968   7.403  16.705   8.255
 7511POPC   C3A26969   7.388  16.691   7.955
 7511POPC   C4A26970   7.402  16.752   7.655
 7511POPC   C1B26971   7.675  16.659   8.555
 7511POPC   C2B26972   7.652  16.670   8.255
 7511POPC   C3B26973   7.697  16.650   7.955
 7511POPC   C4B26974   7.666  16.696   7.655
 7512POPC   NC326975   1.197   2.792   9.455
 7512POPC   PO426976   1.255   2.791   9.155
 7512POPC   GL126977   1.195   2.803   8.855
 7512POPC   GL226978   1.202   2.629   8.855
 7512POPC   C1A26979   1.263   2.794   8.555
 7512POPC   D2A26980   1.180   2.775   8.255
 7512POPC   C3A26981   1.245   2.798   7.955
 7512POPC   C4A26982   1.247   2.771   7.655
 7512POPC   C1B26983   1.096   2.563   8.555
 7512POPC   C2B26984   1.124   2.540   8.255
 7512POPC   C3B26985   1.095   2.564   7.955
 7512POPC   C4B26986   1.116   2.493   7.655
 7513POPC   NC326987  17.487  36.941   9.455
 7513POPC   PO426988  17.468  36.913   9.155
 7513POPC   GL126989  17.544  36.921   8.855
 7513POPC   GL226990  17.538  36.756   8.855
 7513POPC   C1A26991  17.537  36.874   8.555
 7513POPC   D2A26992  17.503  36.949   8.255
 7513POPC   C3A26993  17.498  36.869   7.955
 7513POPC   C4A26994  17.520  36.936   7.655
 7513POPC   C1B26995  17.607  36.629   8.555
 7513POPC   C2B26996  17.620  36.679   8.255
 7513POPC   C3B26997  17.627  36.715   7.955
 7513POPC   C4B26998  17.651  36.635   7.655
 7514POPC   NC326999   3.575  34.545   9.455
 7514POPC   PO427000   3.578  34.600   9.155
 7514POPC   GL127001   3.529  34.611   8.855
 7514POPC   GL227002   3.467  34.624   8.855
 7514POPC   C1A27003   3.564  34.528   8.555
 7514POPC   D2A27004   3.512  34.532   8.255
 7514POPC   C3A27005   3.499  34.602   7.955
 7514POPC   C4A27006   3.558  34.602   7.655
 7514POPC   C1B27007   3.388  34.722   8.555
 7514POPC   C2B27008   3.413  34.778   8.255
 7514POPC   C3B27009   3.381  34.808   7.955
 7514POPC   C4B27010   3.362  34.755   7.655
 7515POPC   NC327011  19.096  28.417   9.455
 7515POPC   PO427012  19.044  28.362   9.155
 7515POPC   GL127013  19.094  28.343   8.855
 7515POPC   GL227014  18.972  28.296   8.855
 7515POPC   C1A27015  19.033  28.321   8.555
 7515POPC   D2A27016  19.065  28.329   8.255
 7515POPC   C3A27017  19.034  28.364   7.955
 7515POPC   C4A27018  19.075  28.380   7.655
 7515POPC   C1B27019  18.915  28.219   8.555
 7515POPC   C2B27020  18.858  28.209   8.255
 7515POPC   C3B27021  18.920  28.157   7.955
 7515POPC   C4B27022  18.893  28.146   7.655
 7516POPC   NC327023  26.850  27.555   9.455
 7516POPC   PO427024  26.831  27.574   9.155
 7516POPC   GL127025  26.833  27.568   8.855
 7516POPC   GL227026  26.819  27.455   8.855
 7516POPC   C1A27027  26.836  27.604   8.555
 7516POPC   D2A27028  26.815  27.637   8.255
 7516POPC   C3A27029  26.821  27.622   7.955
 7516POPC   C4A27030  26.816  27.639   7.655
 7516POPC   C1B27031  26.777  27.387   8.555
 7516POPC   C2B27032  26.728  27.351   8.255
 7516POPC   C3B27033  26.770  27.390   7.955
 7516POPC   C4B27034  26.780  27.390   7.655
 7517POPC   NC327035  26.022  12.066   9.455
 7517POPC   PO427036  26.054  12.053   9.155
 7517POPC   GL127037  25.991  12.066   8.855
 7517POPC   GL227038  26.168  12.116   8.855
 7517POPC   C1A27039  26.030  12.087   8.555
 7517POPC   D2A27040  26.003  12.053   8.255
 7517POPC   C3A27041  26.020  12.103   7.955
 7517POPC   C4A27042  26.041  12.051   7.655
 7517POPC   C1B27043  26.267  12.182   8.555
 7517POPC   C2B27044  26.291  12.132   8.255
 7517POPC   C3B27045  26.310  12.175   7.955
 7517POPC   C4B27046  26.321  12.173   7.655
 7518POPC   NC327047  17.478  39.255   9.455
 7518POPC   PO427048  17.546  39.188   9.155
 7518POPC   GL127049  17.461  39.217   8.855
 7518POPC   GL227050  17.550  39.096   8.855
 7518POPC   C1A27051  17.546  39.232   8.555
 7518POPC   D2A27052  17.541  39.212   8.255
 7518POPC   C3A27053  17.510  39.201   7.955
 7518POPC   C4A27054  17.517  39.277   7.655
 7518POPC   C1B27055  17.497  38.935   8.555
 7518POPC   C2B27056  17.592  39.017   8.255
 7518POPC   C3B27057  17.585  39.018   7.955
 7518POPC   C4B27058  17.559  38.937   7.655
 7519POPC   NC327059  14.441  12.847   9.455
 7519POPC   PO427060  14.411  12.886   9.155
 7519POPC   GL127061  14.369  12.819   8.855
 7519POPC   GL227062  14.308  12.710   8.855
 7519POPC   C1A27063  14.380  12.819   8.555
 7519POPC   D2A27064  14.368  12.838   8.255
 7519POPC   C3A27065  14.360  12.830   7.955
 7519POPC   C4A27066  14.414  12.802   7.655
 7519POPC   C1B27067  14.277  12.670   8.555
 7519POPC   C2B27068  14.273  12.631   8.255
 7519POPC   C3B27069  14.239  12.596   7.955
 7519POPC   C4B27070  14.214  12.678   7.655
 7520POPC   NC327071  11.250   1.181   9.455
 7520POPC   PO427072  11.283   1.200   9.155
 7520POPC   GL127073  11.303   1.166   8.855
 7520POPC   GL227074  11.406   1.064   8.855
 7520POPC   C1A27075  11.348   1.215   8.555
 7520POPC   D2A27076  11.334   1.186   8.255
 7520POPC   C3A27077  11.331   1.196   7.955
 7520POPC   C4A27078  11.292   1.252   7.655
 7520POPC   C1B27079  11.378   1.040   8.555
 7520POPC   C2B27080  11.421   0.973   8.255
 7520POPC   C3B27081  11.427   1.029   7.955
 7520POPC   C4B27082  11.447   0.953   7.655
 7521POPC   NC327083  22.899  12.884   9.455
 7521POPC   PO427084  22.907  12.879   9.155
 7521POPC   GL127085  22.964  12.897   8.855
 7521POPC   GL227086  23.048  12.942   8.855
 7521POPC   C1A27087  22.895  12.891   8.555
 7521POPC   D2A27088  22.951  12.863   8.255
 7521POPC   C3A27089  22.932  12.830   7.955
 7521POPC   C4A27090  22.933  12.846   7.655
 7521POPC   C1B27091  23.114  13.001   8.555
 7521POPC   C2B27092  23.060  13.085   8.255
 7521POPC   C3B27093  23.068  13.005   7.955
 7521POPC   C4B27094  23.121  13.089   7.655
 7522POPC   NC327095  15.184  27.563   9.455
 7522POPC   PO427096  15.178  27.568   9.155
 7522POPC   GL127097  15.205  27.618   8.855
 7522POPC   GL227098  15.306  27.651   8.855
 7522POPC   C1A27099  15.168  27.629   8.555
 7522POPC   D2A27100  15.138  27.614   8.255
 7522POPC   C3A27101  15.191  27.635   7.955
 7522POPC   C4A27102  15.142  27.628   7.655
 7522POPC   C1B27103  15.447  27.665   8.555
 7522POPC   C2B27104  15.392  27.682   8.255
 7522POPC   C3B27105  15.394  27.663   7.955
 7522POPC   C4B27106  15.392  27.664   7.655
 7523POPC   NC327107   5.874  12.053   9.455
 7523POPC   PO427108   5.822  12.054   9.155
 7523POPC   GL127109   5.912  12.086   8.855
 7523POPC   GL227110   5.799  12.013   8.855
 7523POPC   C1A27111   5.855  12.099   8.555
 7523POPC   D2A27112   5.833  12.088   8.255
 7523POPC   C3A27113   5.842  12.035   7.955
 7523POPC   C4A27114   5.882  12.035   7.655
 7523POPC   C1B27115   5.683  11.947   8.555
 7523POPC   C2B27116   5.666  11.952   8.255
 7523POPC   C3B27117   5.697  11.986   7.955
 7523POPC   C4B27118   5.636  11.957   7.655
 7524POPC   NC327119  33.770   9.706   9.455
 7524POPC   PO427120  33.810   9.715   9.155
 7524POPC   GL127121  33.765   9.714   8.855
 7524POPC   GL227122  33.882   9.693   8.855
 7524POPC   C1A27123  33.830   9.790   8.555
 7524POPC   D2A27124  33.822   9.732   8.255
 7524POPC   C3A27125  33.785   9.723   7.955
 7524POPC   C4A27126  33.815   9.699   7.655
 7524POPC   C1B27127  34.048   9.715   8.555
 7524POPC   C2B27128  34.086   9.759   8.255
 7524POPC   C3B27129  34.006   9.694   7.955
 7524POPC   C4B27130  34.057   9.688   7.655
 7525POPC   NC327131   5.065  13.605   9.455
 7525POPC   PO427132   5.070  13.627   9.155
 7525POPC   GL127133   5.070  13.676   8.855
 7525POPC   GL227134   5.026  13.676   8.855
 7525POPC   C1A27135   5.054  13.660   8.555
 7525POPC   D2A27136   5.105  13.667   8.255
 7525POPC   C3A27137   5.057  13.651   7.955
 7525POPC   C4A27138   5.076  13.602   7.655
 7525POPC   C1B27139   4.880  13.740   8.555
 7525POPC   C2B27140   4.828  13.692   8.255
 7525POPC   C3B27141   4.835  13.774   7.955
 7525POPC   C4B27142   4.916  13.744   7.655
 7526POPC   NC327143   9.736  17.527   9.455
 7526POPC   PO427144   9.768  17.463   9.155
 7526POPC   GL127145   9.755  17.516   8.855
 7526POPC   GL227146   9.822  17.553   8.855
 7526POPC   C1A27147   9.733  17.478   8.555
 7526POPC   D2A27148   9.753  17.468   8.255
 7526POPC   C3A27149   9.737  17.542   7.955
 7526POPC   C4A27150   9.740  17.546   7.655
 7526POPC   C1B27151   9.953  17.570   8.555
 7526POPC   C2B27152  10.015  17.578   8.255
 7526POPC   C3B27153   9.949  17.631   7.955
 7526POPC   C4B27154   9.947  17.563   7.655
 7527POPC   NC327155  43.860  44.649   9.455
 7527POPC   PO427156  43.885  44.709   9.155
 7527POPC   GL127157  43.863  44.694   8.855
 7527POPC   GL227158  43.758  44.695   8.855
 7527POPC   C1A27159  43.895  44.675   8.555
 7527POPC   D2A27160  43.881  44.633   8.255
 7527POPC   C3A27161  43.854  44.661   7.955
 7527POPC   C4A27162  43.848  44.642   7.655
 7527POPC   C1B27163  43.621  44.790   8.555
 7527POPC   C2B27164  43.714  44.758   8.255
 7527POPC   C3B27165  43.620  44.735   7.955
 7527POPC   C4B27166  43.697  44.730   7.655
 7528POPC   NC327167  19.073  24.522   9.455
 7528POPC   PO427168  19.099  24.501   9.155
 7528POPC   GL127169  19.053  24.478   8.855
 7528POPC   GL227170  19.101  24.581   8.855
 7528POPC   C1A27171  19.087  24.539   8.555
 7528POPC   D2A27172  19.058  24.464   8.255
 7528POPC   C3A27173  19.036  24.461   7.955
 7528POPC   C4A27174  19.050  24.460   7.655
 7528POPC   C1B27175  19.115  24.745   8.555
 7528POPC   C2B27176  19.137  24.716   8.255
 7528POPC   C3B27177  19.158  24.737   7.955
 7528POPC   C4B27178  19.096  24.768   7.655
 7529POPC   NC327179   9.699  35.358   9.455
 7529POPC   PO427180   9.767  35.372   9.155
 7529POPC   GL127181   9.779  35.328   8.855
 7529POPC   GL227182   9.747  35.272   8.855
 7529POPC   C1A27183   9.752  35.368   8.555
 7529POPC   D2A27184   9.708  35.391   8.255
 7529POPC   C3A27185   9.712  35.330   7.955
 7529POPC   C4A27186   9.785  35.341   7.655
 7529POPC   C1B27187   9.807  35.146   8.555
 7529POPC   C2B27188   9.819  35.099   8.255
 7529POPC   C3B27189   9.808  35.092   7.955
 7529POPC   C4B27190   9.778  35.109   7.655
 7530POPC   NC327191  26.840  12.078   9.455
 7530POPC   PO427192  26.851  12.125   9.155
 7530POPC   GL127193  26.791  12.089   8.855
 7530POPC   GL227194  26.714  11.962   8.855
 7530POPC   C1A27195  26.853  12.104   8.555
 7530POPC   D2A27196  26.816  12.039   8.255
 7530POPC   C3A27197  26.777  12.058   7.955
 7530POPC   C4A27198  26.846  12.065   7.655
 7530POPC   C1B27199  26.628  11.855   8.555
 7530POPC   C2B27200  26.611  11.891   8.255
 7530POPC   C3B27201  26.682  11.857   7.955
 7530POPC   C4B27202  26.658  11.851   7.655
 7531POPC   NC327203   4.291  42.320   9.455
 7531POPC   PO427204   4.351  42.374   9.155
 7531POPC   GL127205   4.304  42.295   8.855
 7531POPC   GL227206   4.452  42.337   8.855
 7531POPC   C1A27207   4.290  42.383   8.555
 7531POPC   D2A27208   4.367  42.355   8.255
 7531POPC   C3A27209   4.274  42.328   7.955
 7531POPC   C4A27210   4.310  42.296   7.655
 7531POPC   C1B27211   4.602  42.258   8.555
 7531POPC   C2B27212   4.612  42.283   8.255
 7531POPC   C3B27213   4.530  42.261   7.955
 7531POPC   C4B27214   4.578  42.269   7.655
 7532POPC   NC327215  13.620  39.242   9.455
 7532POPC   PO427216  13.611  39.267   9.155
 7532POPC   GL127217  13.636  39.206   8.855
 7532POPC   GL227218  13.575  39.139   8.855
 7532POPC   C1A27219  13.579  39.245   8.555
 7532POPC   D2A27220  13.670  39.232   8.255
 7532POPC   C3A27221  13.657  39.254   7.955
 7532POPC   C4A27222  13.663  39.190   7.655
 7532POPC   C1B27223  13.479  39.062   8.555
 7532POPC   C2B27224  13.454  39.092   8.255
 7532POPC   C3B27225  13.464  39.022   7.955
 7532POPC   C4B27226  13.473  39.107   7.655
 7533POPC   NC327227   2.754  18.281   9.455
 7533POPC   PO427228   2.717  18.317   9.155
 7533POPC   GL127229   2.766  18.278   8.855
 7533POPC   GL227230   2.707  18.399   8.855
 7533POPC   C1A27231   2.765  18.303   8.555
 7533POPC   D2A27232   2.736  18.254   8.255
 7533POPC   C3A27233   2.788  18.271   7.955
 7533POPC   C4A27234   2.764  18.253   7.655
 7533POPC   C1B27235   2.665  18.506   8.555
 7533POPC   C2B27236   2.709  18.491   8.255
 7533POPC   C3B27237   2.677  18.498   7.955
 7533POPC   C4B27238   2.717  18.566   7.655
 7534POPC   NC327239  30.661   5.100   9.455
 7534POPC   PO427240  30.665   5.136   9.155
 7534POPC   GL127241  30.655   5.106   8.855
 7534POPC   GL227242  30.574   5.197   8.855
 7534POPC   C1A27243  30.673   5.117   8.555
 7534POPC   D2A27244  30.714   5.106   8.255
 7534POPC   C3A27245  30.696   5.142   7.955
 7534POPC   C4A27246  30.733   5.052   7.655
 7534POPC   C1B27247  30.515   5.207   8.555
 7534POPC   C2B27248  30.453   5.244   8.255
 7534POPC   C3B27249  30.445   5.224   7.955
 7534POPC   C4B27250  30.474   5.281   7.655
 7535POPC   NC327251   2.761   0.458   9.455
 7535POPC   PO427252   2.774   0.401   9.155
 7535POPC   GL127253   2.730   0.413   8.855
 7535POPC   GL227254   2.889   0.533   8.855
 7535POPC   C1A27255   2.733   0.408   8.555
 7535POPC   D2A27256   2.744   0.460   8.255
 7535POPC   C3A27257   2.770   0.444   7.955
 7535POPC   C4A27258   2.805   0.480   7.655
 7535POPC   C1B27259   2.920   0.631   8.555
 7535POPC   C2B27260   2.957   0.583   8.255
 7535POPC   C3B27261   2.934   0.584   7.955
 7535POPC   C4B27262   2.929   0.588   7.655
 7536POPC   NC327263  22.931   0.419   9.455
 7536POPC   PO427264  22.938   0.446   9.155
 7536POPC   GL127265  22.972   0.397   8.855
 7536POPC   GL227266  23.034   0.381   8.855
 7536POPC   C1A27267  22.987   0.430   8.555
 7536POPC   D2A27268  22.927   0.439   8.255
 7536POPC   C3A27269  22.892   0.423   7.955
 7536POPC   C4A27270  22.901   0.486   7.655
 7536POPC   C1B27271  23.181   0.312   8.555
 7536POPC   C2B27272  23.161   0.306   8.255
 7536POPC   C3B27273  23.118   0.280   7.955
 7536POPC   C4B27274  23.209   0.351   7.655
 7537POPC   NC327275  38.408  43.104   9.455
 7537POPC   PO427276  38.487  43.061   9.155
 7537POPC   GL127277  38.461  43.133   8.855
 7537POPC   GL227278  38.383  43.139   8.855
 7537POPC   C1A27279  38.434  43.081   8.555
 7537POPC   D2A27280  38.421  43.079   8.255
 7537POPC   C3A27281  38.481  43.160   7.955
 7537POPC   C4A27282  38.408  43.100   7.655
 7537POPC   C1B27283  38.248  43.214   8.555
 7537POPC   C2B27284  38.200  43.146   8.255
 7537POPC   C3B27285  38.269  43.177   7.955
 7537POPC   C4B27286  38.242  43.168   7.655
 7538POPC   NC327287  12.827  43.899   9.455
 7538POPC   PO427288  12.886  43.884   9.155
 7538POPC   GL127289  12.899  43.864   8.855
 7538POPC   GL227290  13.017  43.894   8.855
 7538POPC   C1A27291  12.839  43.931   8.555
 7538POPC   D2A27292  12.893  43.912   8.255
 7538POPC   C3A27293  12.841  43.931   7.955
 7538POPC   C4A27294  12.858  43.866   7.655
 7538POPC   C1B27295  13.101  43.875   8.555
 7538POPC   C2B27296  13.151  43.920   8.255
 7538POPC   C3B27297  13.128  43.843   7.955
 7538POPC   C4B27298  13.104  43.859   7.655
 7539POPC   NC327299  43.842  21.431   9.455
 7539POPC   PO427300  43.881  21.432   9.155
 7539POPC   GL127301  43.899  21.348   8.855
 7539POPC   GL227302  43.862  21.313   8.855
 7539POPC   C1A27303  43.907  21.353   8.555
 7539POPC   D2A27304  43.850  21.400   8.255
 7539POPC   C3A27305  43.922  21.434   7.955
 7539POPC   C4A27306  43.929  21.408   7.655
 7539POPC   C1B27307  43.820  21.155   8.555
 7539POPC   C2B27308  43.809  21.106   8.255
 7539POPC   C3B27309  43.803  21.120   7.955
 7539POPC   C4B27310  43.818  21.182   7.655
 7540POPC   NC327311  44.620  42.307   9.455
 7540POPC   PO427312  44.615  42.309   9.155
 7540POPC   GL127313  44.675  42.346   8.855
 7540POPC   GL227314  44.525  42.281   8.855
 7540POPC   C1A27315  44.633  42.317   8.555
 7540POPC   D2A27316  44.694  42.375   8.255
 7540POPC   C3A27317  44.618  42.353   7.955
 7540POPC   C4A27318  44.679  42.322   7.655
 7540POPC   C1B27319  44.418  42.205   8.555
 7540POPC   C2B27320  44.406  42.205   8.255
 7540POPC   C3B27321  44.438  42.204   7.955
 7540POPC   C4B27322  44.423  42.229   7.655
 7541POPC   NC327323   8.946   1.964   9.455
 7541POPC   PO427324   8.970   2.022   9.155
 7541POPC   GL127325   8.961   1.988   8.855
 7541POPC   GL227326   8.942   2.073   8.855
 7541POPC   C1A27327   8.997   1.992   8.555
 7541POPC   D2A27328   8.943   1.945   8.255
 7541POPC   C3A27329   9.008   1.990   7.955
 7541POPC   C4A27330   8.959   1.990   7.655
 7541POPC   C1B27331   8.881   2.241   8.555
 7541POPC   C2B27332   8.894   2.237   8.255
 7541POPC   C3B27333   8.860   2.219   7.955
 7541POPC   C4B27334   8.807   2.161   7.655
 7542POPC   NC327335  34.584  20.632   9.455
 7542POPC   PO427336  34.545  20.625   9.155
 7542POPC   GL127337  34.575  20.612   8.855
 7542POPC   GL227338  34.507  20.715   8.855
 7542POPC   C1A27339  34.618  20.594   8.555
 7542POPC   D2A27340  34.552  20.573   8.255
 7542POPC   C3A27341  34.581  20.654   7.955
 7542POPC   C4A27342  34.614  20.609   7.655
 7542POPC   C1B27343  34.416  20.784   8.555
 7542POPC   C2B27344  34.472  20.798   8.255
 7542POPC   C3B27345  34.443  20.789   7.955
 7542POPC   C4B27346  34.436  20.807   7.655
 7543POPC   NC327347  40.763  24.519   9.455
 7543POPC   PO427348  40.758  24.503   9.155
 7543POPC   GL127349  40.766  24.518   8.855
 7543POPC   GL227350  40.696  24.591   8.855
 7543POPC   C1A27351  40.801  24.465   8.555
 7543POPC   D2A27352  40.788  24.485   8.255
 7543POPC   C3A27353  40.830  24.523   7.955
 7543POPC   C4A27354  40.817  24.503   7.655
 7543POPC   C1B27355  40.513  24.640   8.555
 7543POPC   C2B27356  40.560  24.613   8.255
 7543POPC   C3B27357  40.535  24.628   7.955
 7543POPC   C4B27358  40.528  24.566   7.655
 7544POPC   NC327359  36.928   9.764   9.455
 7544POPC   PO427360  36.868   9.736   9.155
 7544POPC   GL127361  36.952   9.701   8.855
 7544POPC   GL227362  36.925   9.840   8.855
 7544POPC   C1A27363  36.922   9.775   8.555
 7544POPC   D2A27364  36.904   9.773   8.255
 7544POPC   C3A27365  36.863   9.794   7.955
 7544POPC   C4A27366  36.863   9.736   7.655
 7544POPC   C1B27367  36.941  10.033   8.555
 7544POPC   C2B27368  36.903   9.980   8.255
 7544POPC   C3B27369  36.941  10.025   7.955
 7544POPC   C4B27370  36.930  10.037   7.655
 7545POPC   NC327371  44.628  36.855   9.455
 7545POPC   PO427372  44.641  36.900   9.155
 7545POPC   GL127373  44.612  36.922   8.855
 7545POPC   GL227374  44.620  37.074   8.855
 7545POPC   C1A27375  44.705  36.905   8.555
 7545POPC   D2A27376  44.615  36.892   8.255
 7545POPC   C3A27377  44.630  36.918   7.955
 7545POPC   C4A27378  44.680  36.897   7.655
 7545POPC   C1B27379  44.641  37.198   8.555
 7545POPC   C2B27380  44.660  37.188   8.255
 7545POPC   C3B27381  44.702  37.131   7.955
 7545POPC   C4B27382  44.656  37.105   7.655
 7546POPC   NC327383  16.728  42.377   9.455
 7546POPC   PO427384  16.683  42.372   9.155
 7546POPC   GL127385  16.744  42.321   8.855
 7546POPC   GL227386  16.582  42.445   8.855
 7546POPC   C1A27387  16.778  42.365   8.555
 7546POPC   D2A27388  16.751  42.345   8.255
 7546POPC   C3A27389  16.703  42.371   7.955
 7546POPC   C4A27390  16.760  42.372   7.655
 7546POPC   C1B27391  16.494  42.461   8.555
 7546POPC   C2B27392  16.530  42.524   8.255
 7546POPC   C3B27393  16.478  42.468   7.955
 7546POPC   C4B27394  16.533  42.517   7.655
 7547POPC   NC327395  42.308  23.678   9.455
 7547POPC   PO427396  42.360  23.667   9.155
 7547POPC   GL127397  42.352  23.702   8.855
 7547POPC   GL227398  42.334  23.598   8.855
 7547POPC   C1A27399  42.325  23.738   8.555
 7547POPC   D2A27400  42.332  23.735   8.255
 7547POPC   C3A27401  42.372  23.667   7.955
 7547POPC   C4A27402  42.365  23.711   7.655
 7547POPC   C1B27403  42.392  23.504   8.555
 7547POPC   C2B27404  42.374  23.486   8.255
 7547POPC   C3B27405  42.430  23.443   7.955
 7547POPC   C4B27406  42.370  23.499   7.655
 7548POPC   NC327407  15.987  15.166   9.455
 7548POPC   PO427408  15.971  15.229   9.155
 7548POPC   GL127409  15.995  15.167   8.855
 7548POPC   GL227410  16.118  15.195   8.855
 7548POPC   C1A27411  15.971  15.181   8.555
 7548POPC   D2A27412  15.922  15.145   8.255
 7548POPC   C3A27413  15.932  15.194   7.955
 7548POPC   C4A27414  15.947  15.158   7.655
 7548POPC   C1B27415  16.202  15.274   8.555
 7548POPC   C2B27416  16.166  15.272   8.255
 7548POPC   C3B27417  16.199  15.236   7.955
 7548POPC   C4B27418  16.193  15.289   7.655
 7549POPC   NC327419   2.806  13.665   9.455
 7549POPC   PO427420   2.732  13.618   9.155
 7549POPC   GL127421   2.759  13.582   8.855
 7549POPC   GL227422   2.733  13.496   8.855
 7549POPC   C1A27423   2.797  13.639   8.555
 7549POPC   D2A27424   2.814  13.584   8.255
 7549POPC   C3A27425   2.749  13.647   7.955
 7549POPC   C4A27426   2.747  13.598   7.655
 7549POPC   C1B27427   2.718  13.406   8.555
 7549POPC   C2B27428   2.741  13.373   8.255
 7549POPC   C3B27429   2.806  13.348   7.955
 7549POPC   C4B27430   2.716  13.378   7.655
 7550POPC   NC327431  36.100  19.062   9.455
 7550POPC   PO427432  36.120  19.034   9.155
 7550POPC   GL127433  36.101  19.068   8.855
 7550POPC   GL227434  35.983  19.090   8.855
 7550POPC   C1A27435  36.102  19.068   8.555
 7550POPC   D2A27436  36.175  19.066   8.255
 7550POPC   C3A27437  36.177  19.038   7.955
 7550POPC   C4A27438  36.092  19.023   7.655
 7550POPC   C1B27439  35.862  19.156   8.555
 7550POPC   C2B27440  35.863  19.226   8.255
 7550POPC   C3B27441  35.871  19.211   7.955
 7550POPC   C4B27442  35.914  19.133   7.655
 7551POPC   NC327443  26.034   1.179   9.455
 7551POPC   PO427444  26.045   1.245   9.155
 7551POPC   GL127445  26.085   1.217   8.855
 7551POPC   GL227446  26.077   1.307   8.855
 7551POPC   C1A27447  26.048   1.189   8.555
 7551POPC   D2A27448  26.070   1.225   8.255
 7551POPC   C3A27449  26.000   1.175   7.955
 7551POPC   C4A27450  26.046   1.183   7.655
 7551POPC   C1B27451  26.035   1.437   8.555
 7551POPC   C2B27452  26.030   1.473   8.255
 7551POPC   C3B27453  26.024   1.423   7.955
 7551POPC   C4B27454  26.045   1.428   7.655
 7552POPC   NC327455  32.978  40.043   9.455
 7552POPC   PO427456  33.036  39.964   9.155
 7552POPC   GL127457  33.059  39.960   8.855
 7552POPC   GL227458  32.943  39.956   8.855
 7552POPC   C1A27459  33.016  40.011   8.555
 7552POPC   D2A27460  33.051  39.974   8.255
 7552POPC   C3A27461  33.015  40.045   7.955
 7552POPC   C4A27462  33.062  40.013   7.655
 7552POPC   C1B27463  32.882  39.784   8.555
 7552POPC   C2B27464  32.812  39.837   8.255
 7552POPC   C3B27465  32.872  39.858   7.955
 7552POPC   C4B27466  32.822  39.781   7.655
 7553POPC   NC327467  39.968  43.859   9.455
 7553POPC   PO427468  40.014  43.876   9.155
 7553POPC   GL127469  40.040  43.930   8.855
 7553POPC   GL227470  40.041  43.736   8.855
 7553POPC   C1A27471  40.025  43.847   8.555
 7553POPC   D2A27472  39.974  43.886   8.255
 7553POPC   C3A27473  40.029  43.902   7.955
 7553POPC   C4A27474  39.974  43.907   7.655
 7553POPC   C1B27475  39.979  43.659   8.555
 7553POPC   C2B27476  40.020  43.590   8.255
 7553POPC   C3B27477  39.981  43.619   7.955
 7553POPC   C4B27478  40.021  43.612   7.655
 7554POPC   NC327479   9.003  13.601   9.455
 7554POPC   PO427480   9.022  13.664   9.155
 7554POPC   GL127481   8.924  13.588   8.855
 7554POPC   GL227482   8.898  13.662   8.855
 7554POPC   C1A27483   9.022  13.596   8.555
 7554POPC   D2A27484   8.995  13.619   8.255
 7554POPC   C3A27485   8.975  13.620   7.955
 7554POPC   C4A27486   8.932  13.623   7.655
 7554POPC   C1B27487   8.757  13.684   8.555
 7554POPC   C2B27488   8.687  13.721   8.255
 7554POPC   C3B27489   8.766  13.692   7.955
 7554POPC   C4B27490   8.699  13.703   7.655
 7555POPC   NC327491   6.691  27.633   9.455
 7555POPC   PO427492   6.681  27.607   9.155
 7555POPC   GL127493   6.649  27.565   8.855
 7555POPC   GL227494   6.755  27.683   8.855
 7555POPC   C1A27495   6.636  27.579   8.555
 7555POPC   D2A27496   6.692  27.637   8.255
 7555POPC   C3A27497   6.672  27.624   7.955
 7555POPC   C4A27498   6.689  27.626   7.655
 7555POPC   C1B27499   6.822  27.704   8.555
 7555POPC   C2B27500   6.862  27.777   8.255
 7555POPC   C3B27501   6.798  27.757   7.955
 7555POPC   C4B27502   6.868  27.730   7.655
 7556POPC   NC327503  37.682   9.016   9.455
 7556POPC   PO427504  37.671   8.960   9.155
 7556POPC   GL127505  37.659   8.929   8.855
 7556POPC   GL227506  37.594   8.918   8.855
 7556POPC   C1A27507  37.719   8.962   8.555
 7556POPC   D2A27508  37.726   8.975   8.255
 7556POPC   C3A27509  37.640   8.985   7.955
 7556POPC   C4A27510  37.679   9.019   7.655
 7556POPC   C1B27511  37.391   8.965   8.555
 7556POPC   C2B27512  37.458   8.872   8.255
 7556POPC   C3B27513  37.470   8.952   7.955
 7556POPC   C4B27514  37.445   8.963   7.655
 7557POPC   NC327515  26.865  31.484   9.455
 7557POPC   PO427516  26.841  31.488   9.155
 7557POPC   GL127517  26.809  31.465   8.855
 7557POPC   GL227518  26.850  31.389   8.855
 7557POPC   C1A27519  26.839  31.444   8.555
 7557POPC   D2A27520  26.857  31.448   8.255
 7557POPC   C3A27521  26.823  31.501   7.955
 7557POPC   C4A27522  26.803  31.482   7.655
 7557POPC   C1B27523  26.809  31.179   8.555
 7557POPC   C2B27524  26.810  31.179   8.255
 7557POPC   C3B27525  26.801  31.240   7.955
 7557POPC   C4B27526  26.824  31.209   7.655
 7558POPC   NC327527   2.735  32.287   9.455
 7558POPC   PO427528   2.727  32.228   9.155
 7558POPC   GL127529   2.777  32.259   8.855
 7558POPC   GL227530   2.822  32.174   8.855
 7558POPC   C1A27531   2.777  32.205   8.555
 7558POPC   D2A27532   2.748  32.276   8.255
 7558POPC   C3A27533   2.751  32.219   7.955
 7558POPC   C4A27534   2.719  32.248   7.655
 7558POPC   C1B27535   2.784  32.043   8.555
 7558POPC   C2B27536   2.813  32.019   8.255
 7558POPC   C3B27537   2.851  32.048   7.955
 7558POPC   C4B27538   2.845  32.041   7.655
 7559POPC   NC327539  38.472  42.373   9.455
 7559POPC   PO427540  38.427  42.378   9.155
 7559POPC   GL127541  38.476  42.352   8.855
 7559POPC   GL227542  38.325  42.371   8.855
 7559POPC   C1A27543  38.442  42.362   8.555
 7559POPC   D2A27544  38.436  42.346   8.255
 7559POPC   C3A27545  38.487  42.368   7.955
 7559POPC   C4A27546  38.420  42.324   7.655
 7559POPC   C1B27547  38.262  42.451   8.555
 7559POPC   C2B27548  38.227  42.437   8.255
 7559POPC   C3B27549  38.230  42.400   7.955
 7559POPC   C4B27550  38.241  42.370   7.655
 7560POPC   NC327551   5.899  23.759   9.455
 7560POPC   PO427552   5.891  23.671   9.155
 7560POPC   GL127553   5.910  23.755   8.855
 7560POPC   GL227554   6.005  23.807   8.855
 7560POPC   C1A27555   5.874  23.683   8.555
 7560POPC   D2A27556   5.842  23.710   8.255
 7560POPC   C3A27557   5.834  23.670   7.955
 7560POPC   C4A27558   5.820  23.700   7.655
 7560POPC   C1B27559   6.125  23.774   8.555
 7560POPC   C2B27560   6.132  23.798   8.255
 7560POPC   C3B27561   6.141  23.788   7.955
 7560POPC   C4B27562   6.052  23.792   7.655
 7561POPC   NC327563  44.641  33.802   9.455
 7561POPC   PO427564  44.636  33.751   9.155
 7561POPC   GL127565  44.686  33.791   8.855
 7561POPC   GL227566  44.629  33.648   8.855
 7561POPC   C1A27567  44.637  33.810   8.555
 7561POPC   D2A27568  44.705  33.814   8.255
 7561POPC   C3A27569  44.672  33.811   7.955
 7561POPC   C4A27570  44.635  33.778   7.655
 7561POPC   C1B27571  44.647  33.554   8.555
 7561POPC   C2B27572  44.553  33.559   8.255
 7561POPC   C3B27573  44.592  33.598   7.955
 7561POPC   C4B27574  44.625  33.556   7.655
 7562POPC   NC327575   4.286  10.547   9.455
 7562POPC   PO427576   4.315  10.492   9.155
 7562POPC   GL127577   4.294  10.506   8.855
 7562POPC   GL227578   4.302  10.667   8.855
 7562POPC   C1A27579   4.315  10.522   8.555
 7562POPC   D2A27580   4.272  10.543   8.255
 7562POPC   C3A27581   4.270  10.517   7.955
 7562POPC   C4A27582   4.336  10.510   7.655
 7562POPC   C1B27583   4.324  10.773   8.555
 7562POPC   C2B27584   4.296  10.801   8.255
 7562POPC   C3B27585   4.303  10.786   7.955
 7562POPC   C4B27586   4.268  10.804   7.655
 7563POPC   NC327587  19.033   6.687   9.455
 7563POPC   PO427588  19.090   6.665   9.155
 7563POPC   GL127589  19.106   6.599   8.855
 7563POPC   GL227590  19.149   6.711   8.855
 7563POPC   C1A27591  19.039   6.626   8.555
 7563POPC   D2A27592  19.035   6.656   8.255
 7563POPC   C3A27593  19.038   6.644   7.955
 7563POPC   C4A27594  19.075   6.671   7.655
 7563POPC   C1B27595  19.267   6.731   8.555
 7563POPC   C2B27596  19.231   6.784   8.255
 7563POPC   C3B27597  19.257   6.729   7.955
 7563POPC   C4B27598  19.276   6.752   7.655
 7564POPC   NC327599  18.332  39.217   9.455
 7564POPC   PO427600  18.331  39.182   9.155
 7564POPC   GL127601  18.277  39.250   8.855
 7564POPC   GL227602  18.220  39.123   8.855
 7564POPC   C1A27603  18.254  39.186   8.555
 7564POPC   D2A27604  18.246  39.233   8.255
 7564POPC   C3A27605  18.277  39.210   7.955
 7564POPC   C4A27606  18.304  39.268   7.655
 7564POPC   C1B27607  18.172  38.989   8.555
 7564POPC   C2B27608  18.166  39.041   8.255
 7564POPC   C3B27609  18.140  38.997   7.955
 7564POPC   C4B27610  18.151  38.993   7.655
 7565POPC   NC327611  27.554  30.739   9.455
 7565POPC   PO427612  27.555  30.672   9.155
 7565POPC   GL127613  27.582  30.674   8.855
 7565POPC   GL227614  27.502  30.771   8.855
 7565POPC   C1A27615  27.583  30.665   8.555
 7565POPC   D2A27616  27.613  30.650   8.255
 7565POPC   C3A27617  27.581  30.647   7.955
 7565POPC   C4A27618  27.629  30.696   7.655
 7565POPC   C1B27619  27.487  30.931   8.555
 7565POPC   C2B27620  27.445  30.917   8.255
 7565POPC   C3B27621  27.427  30.882   7.955
 7565POPC   C4B27622  27.486  30.906   7.655
 7566POPC   NC327623  44.697  35.367   9.455
 7566POPC   PO427624  44.708  35.381   9.155
 7566POPC   GL127625  44.631  35.312   8.855
 7566POPC   GL227626  44.631  35.423   8.855
 7566POPC   C1A27627  44.683  35.303   8.555
 7566POPC   D2A27628  44.653  35.391   8.255
 7566POPC   C3A27629  44.630  35.328   7.955
 7566POPC   C4A27630  44.639  35.360   7.655
 7566POPC   C1B27631  44.571  35.610   8.555
 7566POPC   C2B27632  44.559  35.614   8.255
 7566POPC   C3B27633  44.513  35.626   7.955
 7566POPC   C4B27634  44.518  35.540   7.655
 7567POPC   NC327635   5.131  15.960   9.455
 7567POPC   PO427636   5.061  15.924   9.155
 7567POPC   GL127637   5.081  15.958   8.855
 7567POPC   GL227638   4.930  15.979   8.855
 7567POPC   C1A27639   5.098  15.919   8.555
 7567POPC   D2A27640   5.079  15.967   8.255
 7567POPC   C3A27641   5.081  15.996   7.955
 7567POPC   C4A27642   5.062  15.996   7.655
 7567POPC   C1B27643   4.822  15.980   8.555
 7567POPC   C2B27644   4.862  15.952   8.255
 7567POPC   C3B27645   4.887  15.953   7.955
 7567POPC   C4B27646   4.884  15.924   7.655
 7568POPC   NC327647  40.026  24.515   9.455
 7568POPC   PO427648  40.053  24.477   9.155
 7568POPC   GL127649  39.961  24.518   8.855
 7568POPC   GL227650  39.966  24.642   8.855
 7568POPC   C1A27651  39.966  24.528   8.555
 7568POPC   D2A27652  39.962  24.518   8.255
 7568POPC   C3A27653  39.991  24.528   7.955
 7568POPC   C4A27654  39.958  24.508   7.655
 7568POPC   C1B27655  39.922  24.765   8.555
 7568POPC   C2B27656  39.924  24.757   8.255
 7568POPC   C3B27657  40.009  24.744   7.955
 7568POPC   C4B27658  39.929  24.716   7.655
 7569POPC   NC327659   0.411  19.065   9.455
 7569POPC   PO427660   0.420  19.100   9.155
 7569POPC   GL127661   0.400  19.034   8.855
 7569POPC   GL227662   0.421  19.206   8.855
 7569POPC   C1A27663   0.389  19.040   8.555
 7569POPC   D2A27664   0.429  19.080   8.255
 7569POPC   C3A27665   0.471  19.077   7.955
 7569POPC   C4A27666   0.462  19.035   7.655
 7569POPC   C1B27667   0.362  19.256   8.555
 7569POPC   C2B27668   0.346  19.315   8.255
 7569POPC   C3B27669   0.400  19.285   7.955
 7569POPC   C4B27670   0.386  19.353   7.655
 7570POPC   NC327671  42.332   5.836   9.455
 7570POPC   PO427672  42.362   5.875   9.155
 7570POPC   GL127673  42.342   5.915   8.855
 7570POPC   GL227674  42.444   5.922   8.855
 7570POPC   C1A27675  42.336   5.858   8.555
 7570POPC   D2A27676  42.302   5.827   8.255
 7570POPC   C3A27677  42.309   5.890   7.955
 7570POPC   C4A27678  42.371   5.874   7.655
 7570POPC   C1B27679  42.540   5.964   8.555
 7570POPC   C2B27680  42.521   5.984   8.255
 7570POPC   C3B27681  42.611   5.959   7.955
 7570POPC   C4B27682  42.601   6.000   7.655
 7571POPC   NC327683  34.561  21.348   9.455
 7571POPC   PO427684  34.593  21.430   9.155
 7571POPC   GL127685  34.580  21.421   8.855
 7571POPC   GL227686  34.632  21.481   8.855
 7571POPC   C1A27687  34.620  21.359   8.555
 7571POPC   D2A27688  34.612  21.406   8.255
 7571POPC   C3A27689  34.580  21.339   7.955
 7571POPC   C4A27690  34.600  21.422   7.655
 7571POPC   C1B27691  34.616  21.597   8.555
 7571POPC   C2B27692  34.654  21.623   8.255
 7571POPC   C3B27693  34.587  21.635   7.955
 7571POPC   C4B27694  34.585  21.665   7.655
 7572POPC   NC327695  16.696  36.865   9.455
 7572POPC   PO427696  16.756  36.884   9.155
 7572POPC   GL127697  16.717  36.887   8.855
 7572POPC   GL227698  16.895  36.928   8.855
 7572POPC   C1A27699  16.691  36.902   8.555
 7572POPC   D2A27700  16.771  36.891   8.255
 7572POPC   C3A27701  16.699  36.914   7.955
 7572POPC   C4A27702  16.768  36.867   7.655
 7572POPC   C1B27703  16.928  36.944   8.555
 7572POPC   C2B27704  16.986  36.977   8.255
 7572POPC   C3B27705  16.952  36.990   7.955
 7572POPC   C4B27706  16.993  36.963   7.655
 7573POPC   NC327707  25.241  25.227   9.455
 7573POPC   PO427708  25.234  25.236   9.155
 7573POPC   GL127709  25.274  25.259   8.855
 7573POPC   GL227710  25.323  25.384   8.855
 7573POPC   C1A27711  25.267  25.231   8.555
 7573POPC   D2A27712  25.270  25.247   8.255
 7573POPC   C3A27713  25.218  25.307   7.955
 7573POPC   C4A27714  25.241  25.259   7.655
 7573POPC   C1B27715  25.448  25.485   8.555
 7573POPC   C2B27716  25.392  25.463   8.255
 7573POPC   C3B27717  25.452  25.446   7.955
 7573POPC   C4B27718  25.441  25.431   7.655
 7574POPC   NC327719   1.181  36.174   9.455
 7574POPC   PO427720   1.228  36.175   9.155
 7574POPC   GL127721   1.195  36.127   8.855
 7574POPC   GL227722   1.338  36.154   8.855
 7574POPC   C1A27723   1.206  36.172   8.555
 7574POPC   D2A27724   1.212  36.148   8.255
 7574POPC   C3A27725   1.224  36.167   7.955
 7574POPC   C4A27726   1.224  36.112   7.655
 7574POPC   C1B27727   1.390  36.213   8.555
 7574POPC   C2B27728   1.476  36.235   8.255
 7574POPC   C3B27729   1.448  36.225   7.955
 7574POPC   C4B27730   1.422  36.273   7.655
 7575POPC   NC327731   3.508  43.923   9.455
 7575POPC   PO427732   3.528  43.860   9.155
 7575POPC   GL127733   3.514  43.930   8.855
 7575POPC   GL227734   3.549  43.990   8.855
 7575POPC   C1A27735   3.544  43.886   8.555
 7575POPC   D2A27736   3.495  43.876   8.255
 7575POPC   C3A27737   3.585  43.913   7.955
 7575POPC   C4A27738   3.547  43.885   7.655
 7575POPC   C1B27739   3.658  44.137   8.555
 7575POPC   C2B27740   3.618  44.115   8.255
 7575POPC   C3B27741   3.605  44.075   7.955
 7575POPC   C4B27742   3.656  44.156   7.655
 7576POPC   NC327743  40.795   8.967   9.455
 7576POPC   PO427744  40.808   8.936   9.155
 7576POPC   GL127745  40.788   9.011   8.855
 7576POPC   GL227746  40.652   8.991   8.855
 7576POPC   C1A27747  40.831   8.983   8.555
 7576POPC   D2A27748  40.809   8.924   8.255
 7576POPC   C3A27749  40.783   9.009   7.955
 7576POPC   C4A27750  40.748   8.998   7.655
 7576POPC   C1B27751  40.537   8.973   8.555
 7576POPC   C2B27752  40.555   8.984   8.255
 7576POPC   C3B27753  40.493   8.968   7.955
 7576POPC   C4B27754  40.545   8.956   7.655
 7577POPC   NC327755  17.508   4.289   9.455
 7577POPC   PO427756  17.505   4.293   9.155
 7577POPC   GL127757  17.533   4.272   8.855
 7577POPC   GL227758  17.571   4.416   8.855
 7577POPC   C1A27759  17.488   4.365   8.555
 7577POPC   D2A27760  17.519   4.362   8.255
 7577POPC   C3A27761  17.476   4.337   7.955
 7577POPC   C4A27762  17.517   4.296   7.655
 7577POPC   C1B27763  17.651   4.577   8.555
 7577POPC   C2B27764  17.669   4.485   8.255
 7577POPC   C3B27765  17.621   4.498   7.955
 7577POPC   C4B27766  17.626   4.579   7.655
 7578POPC   NC327767  43.073   7.427   9.455
 7578POPC   PO427768  43.101   7.413   9.155
 7578POPC   GL127769  43.120   7.460   8.855
 7578POPC   GL227770  43.099   7.306   8.855
 7578POPC   C1A27771  43.116   7.456   8.555
 7578POPC   D2A27772  43.068   7.382   8.255
 7578POPC   C3A27773  43.095   7.374   7.955
 7578POPC   C4A27774  43.155   7.468   7.655
 7578POPC   C1B27775  42.987   7.232   8.555
 7578POPC   C2B27776  43.016   7.163   8.255
 7578POPC   C3B27777  42.983   7.194   7.955
 7578POPC   C4B27778  43.002   7.180   7.655
 7579POPC   NC327779  29.122  31.438   9.455
 7579POPC   PO427780  29.134  31.489   9.155
 7579POPC   GL127781  29.104  31.485   8.855
 7579POPC   GL227782  29.013  31.341   8.855
 7579POPC   C1A27783  29.129  31.440   8.555
 7579POPC   D2A27784  29.171  31.508   8.255
 7579POPC   C3A27785  29.130  31.447   7.955
 7579POPC   C4A27786  29.107  31.428   7.655
 7579POPC   C1B27787  28.980  31.345   8.555
 7579POPC   C2B27788  28.990  31.261   8.255
 7579POPC   C3B27789  28.954  31.319   7.955
 7579POPC   C4B27790  28.941  31.333   7.655
 7580POPC   NC327791  38.440  15.954   9.455
 7580POPC   PO427792  38.499  15.931   9.155
 7580POPC   GL127793  38.471  15.977   8.855
 7580POPC   GL227794  38.361  16.037   8.855
 7580POPC   C1A27795  38.428  15.934   8.555
 7580POPC   D2A27796  38.406  15.993   8.255
 7580POPC   C3A27797  38.426  15.976   7.955
 7580POPC   C4A27798  38.488  15.966   7.655
 7580POPC   C1B27799  38.248  16.059   8.555
 7580POPC   C2B27800  38.256  16.043   8.255
 7580POPC   C3B27801  38.272  16.133   7.955
 7580POPC   C4B27802  38.267  16.101   7.655
 7581POPC   NC327803   1.180  39.274   9.455
 7581POPC   PO427804   1.170  39.202   9.155
 7581POPC   GL127805   1.210  39.191   8.855
 7581POPC   GL227806   1.343  39.239   8.855
 7581POPC   C1A27807   1.167  39.205   8.555
 7581POPC   D2A27808   1.199  39.193   8.255
 7581POPC   C3A27809   1.218  39.188   7.955
 7581POPC   C4A27810   1.251  39.238   7.655
 7581POPC   C1B27811   1.480  39.161   8.555
 7581POPC   C2B27812   1.493  39.196   8.255
 7581POPC   C3B27813   1.434  39.174   7.955
 7581POPC   C4B27814   1.425  39.203   7.655
 7582POPC   NC327815   4.297  43.131   9.455
 7582POPC   PO427816   4.313  43.108   9.155
 7582POPC   GL127817   4.273  43.129   8.855
 7582POPC   GL227818   4.167  43.124   8.855
 7582POPC   C1A27819   4.365  43.107   8.555
 7582POPC   D2A27820   4.283  43.070   8.255
 7582POPC   C3A27821   4.323  43.084   7.955
 7582POPC   C4A27822   4.347  43.117   7.655
 7582POPC   C1B27823   4.102  43.126   8.555
 7582POPC   C2B27824   4.088  43.072   8.255
 7582POPC   C3B27825   4.044  43.153   7.955
 7582POPC   C4B27826   4.088  43.057   7.655
 7583POPC   NC327827  20.575  36.889   9.455
 7583POPC   PO427828  20.588  36.950   9.155
 7583POPC   GL127829  20.619  36.895   8.855
 7583POPC   GL227830  20.670  36.974   8.855
 7583POPC   C1A27831  20.632  36.869   8.555
 7583POPC   D2A27832  20.589  36.883   8.255
 7583POPC   C3A27833  20.652  36.867   7.955
 7583POPC   C4A27834  20.650  36.892   7.655
 7583POPC   C1B27835  20.769  37.037   8.555
 7583POPC   C2B27836  20.822  37.087   8.255
 7583POPC   C3B27837  20.785  37.110   7.955
 7583POPC   C4B27838  20.797  37.037   7.655
 7584POPC   NC327839  36.147  23.686   9.455
 7584POPC   PO427840  36.078  23.753   9.155
 7584POPC   GL127841  36.143  23.666   8.855
 7584POPC   GL227842  36.143  23.854   8.855
 7584POPC   C1A27843  36.128  23.743   8.555
 7584POPC   D2A27844  36.146  23.759   8.255
 7584POPC   C3A27845  36.137  23.708   7.955
 7584POPC   C4A27846  36.150  23.762   7.655
 7584POPC   C1B27847  36.243  23.910   8.555
 7584POPC   C2B27848  36.198  23.931   8.255
 7584POPC   C3B27849  36.196  23.953   7.955
 7584POPC   C4B27850  36.236  23.923   7.655
 7585POPC   NC327851   4.286  17.467   9.455
 7585POPC   PO427852   4.315  17.501   9.155
 7585POPC   GL127853   4.289  17.513   8.855
 7585POPC   GL227854   4.444  17.616   8.855
 7585POPC   C1A27855   4.270  17.464   8.555
 7585POPC   D2A27856   4.313  17.491   8.255
 7585POPC   C3A27857   4.298  17.478   7.955
 7585POPC   C4A27858   4.300  17.546   7.655
 7585POPC   C1B27859   4.461  17.723   8.555
 7585POPC   C2B27860   4.496  17.656   8.255
 7585POPC   C3B27861   4.462  17.693   7.955
 7585POPC   C4B27862   4.521  17.658   7.655
 7586POPC   NC327863   2.759  22.187   9.455
 7586POPC   PO427864   2.725  22.124   9.155
 7586POPC   GL127865   2.742  22.134   8.855
 7586POPC   GL227866   2.707  22.083   8.855
 7586POPC   C1A27867   2.780  22.190   8.555
 7586POPC   D2A27868   2.740  22.178   8.255
 7586POPC   C3A27869   2.717  22.155   7.955
 7586POPC   C4A27870   2.792  22.153   7.655
 7586POPC   C1B27871   2.697  21.953   8.555
 7586POPC   C2B27872   2.705  21.945   8.255
 7586POPC   C3B27873   2.673  21.962   7.955
 7586POPC   C4B27874   2.686  21.960   7.655
 7587POPC   NC327875   3.515  12.075   9.455
 7587POPC   PO427876   3.531  12.069   9.155
 7587POPC   GL127877   3.536  12.077   8.855
 7587POPC   GL227878   3.455  11.982   8.855
 7587POPC   C1A27879   3.542  12.054   8.555
 7587POPC   D2A27880   3.532  12.054   8.255
 7587POPC   C3A27881   3.555  12.126   7.955
 7587POPC   C4A27882   3.543  12.076   7.655
 7587POPC   C1B27883   3.400  11.896   8.555
 7587POPC   C2B27884   3.413  11.856   8.255
 7587POPC   C3B27885   3.459  11.859   7.955
 7587POPC   C4B27886   3.426  11.815   7.655
 7588POPC   NC327887  21.349  31.462   9.455
 7588POPC   PO427888  21.344  31.470   9.155
 7588POPC   GL127889  21.375  31.426   8.855
 7588POPC   GL227890  21.219  31.428   8.855
 7588POPC   C1A27891  21.426  31.464   8.555
 7588POPC   D2A27892  21.389  31.498   8.255
 7588POPC   C3A27893  21.349  31.497   7.955
 7588POPC   C4A27894  21.384  31.446   7.655
 7588POPC   C1B27895  21.139  31.472   8.555
 7588POPC   C2B27896  21.186  31.484   8.255
 7588POPC   C3B27897  21.123  31.455   7.955
 7588POPC   C4B27898  21.120  31.443   7.655
 7589POPC   NC327899  42.336  38.465   9.455
 7589POPC   PO427900  42.374  38.500   9.155
 7589POPC   GL127901  42.290  38.501   8.855
 7589POPC   GL227902  42.454  38.576   8.855
 7589POPC   C1A27903  42.352  38.463   8.555
 7589POPC   D2A27904  42.325  38.461   8.255
 7589POPC   C3A27905  42.364  38.416   7.955
 7589POPC   C4A27906  42.305  38.432   7.655
 7589POPC   C1B27907  42.517  38.672   8.555
 7589POPC   C2B27908  42.496  38.677   8.255
 7589POPC   C3B27909  42.436  38.684   7.955
 7589POPC   C4B27910  42.525  38.621   7.655
 7590POPC   NC327911  13.654  31.437   9.455
 7590POPC   PO427912  13.637  31.475   9.155
 7590POPC   GL127913  13.623  31.478   8.855
 7590POPC   GL227914  13.521  31.548   8.855
 7590POPC   C1A27915  13.672  31.437   8.555
 7590POPC   D2A27916  13.675  31.453   8.255
 7590POPC   C3A27917  13.628  31.455   7.955
 7590POPC   C4A27918  13.621  31.496   7.655
 7590POPC   C1B27919  13.489  31.622   8.555
 7590POPC   C2B27920  13.457  31.635   8.255
 7590POPC   C3B27921  13.460  31.707   7.955
 7590POPC   C4B27922  13.505  31.654   7.655
 7591POPC   NC327923  42.366  17.503   9.455
 7591POPC   PO427924  42.333  17.464   9.155
 7591POPC   GL127925  42.338  17.531   8.855
 7591POPC   GL227926  42.491  17.546   8.855
 7591POPC   C1A27927  42.317  17.472   8.555
 7591POPC   D2A27928  42.345  17.528   8.255
 7591POPC   C3A27929  42.376  17.484   7.955
 7591POPC   C4A27930  42.290  17.468   7.655
 7591POPC   C1B27931  42.539  17.624   8.555
 7591POPC   C2B27932  42.563  17.572   8.255
 7591POPC   C3B27933  42.521  17.619   7.955
 7591POPC   C4B27934  42.545  17.602   7.655
 7592POPC   NC327935  20.659   9.795   9.455
 7592POPC   PO427936  20.651   9.708   9.155
 7592POPC   GL127937  20.639   9.753   8.855
 7592POPC   GL227938  20.715   9.901   8.855
 7592POPC   C1A27939  20.641   9.772   8.555
 7592POPC   D2A27940  20.615   9.765   8.255
 7592POPC   C3A27941  20.644   9.704   7.955
 7592POPC   C4A27942  20.633   9.764   7.655
 7592POPC   C1B27943  20.746   9.944   8.555
 7592POPC   C2B27944  20.765   9.933   8.255
 7592POPC   C3B27945  20.680  10.017   7.955
 7592POPC   C4B27946  20.727   9.991   7.655
 7593POPC   NC327947  42.367  40.828   9.455
 7593POPC   PO427948  42.377  40.830   9.155
 7593POPC   GL127949  42.301  40.816   8.855
 7593POPC   GL227950  42.185  40.850   8.855
 7593POPC   C1A27951  42.288  40.806   8.555
 7593POPC   D2A27952  42.291  40.821   8.255
 7593POPC   C3A27953  42.377  40.746   7.955
 7593POPC   C4A27954  42.323  40.819   7.655
 7593POPC   C1B27955  42.101  40.851   8.555
 7593POPC   C2B27956  42.062  40.875   8.255
 7593POPC   C3B27957  42.121  40.868   7.955
 7593POPC   C4B27958  42.075  40.906   7.655
 7594POPC   NC327959  34.535  33.013   9.455
 7594POPC   PO427960  34.607  33.026   9.155
 7594POPC   GL127961  34.568  33.019   8.855
 7594POPC   GL227962  34.704  33.103   8.855
 7594POPC   C1A27963  34.569  33.005   8.555
 7594POPC   D2A27964  34.529  33.029   8.255
 7594POPC   C3A27965  34.552  33.025   7.955
 7594POPC   C4A27966  34.557  33.054   7.655
 7594POPC   C1B27967  34.796  33.129   8.555
 7594POPC   C2B27968  34.766  33.146   8.255
 7594POPC   C3B27969  34.772  33.179   7.955
 7594POPC   C4B27970  34.811  33.176   7.655
 7595POPC   NC327971  21.400   8.966   9.455
 7595POPC   PO427972  21.384   9.021   9.155
 7595POPC   GL127973  21.353   8.964   8.855
 7595POPC   GL227974  21.554   8.994   8.855
 7595POPC   C1A27975  21.358   8.930   8.555
 7595POPC   D2A27976  21.346   8.946   8.255
 7595POPC   C3A27977  21.401   8.950   7.955
 7595POPC   C4A27978  21.420   8.927   7.655
 7595POPC   C1B27979  21.659   8.932   8.555
 7595POPC   C2B27980  21.649   8.934   8.255
 7595POPC   C3B27981  21.616   8.999   7.955
 7595POPC   C4B27982  21.638   8.982   7.655
 7596POPC   NC327983  22.888   7.432   9.455
 7596POPC   PO427984  22.982   7.459   9.155
 7596POPC   GL127985  22.927   7.405   8.855
 7596POPC   GL227986  23.012   7.390   8.855
 7596POPC   C1A27987  22.940   7.433   8.555
 7596POPC   D2A27988  22.900   7.437   8.255
 7596POPC   C3A27989  22.974   7.437   7.955
 7596POPC   C4A27990  22.985   7.442   7.655
 7596POPC   C1B27991  23.146   7.289   8.555
 7596POPC   C2B27992  23.176   7.286   8.255
 7596POPC   C3B27993  23.154   7.293   7.955
 7596POPC   C4B27994  23.109   7.258   7.655
 7597POPC   NC327995   9.004  33.013   9.455
 7597POPC   PO427996   9.010  32.991   9.155
 7597POPC   GL127997   9.014  32.977   8.855
 7597POPC   GL227998   9.034  32.880   8.855
 7597POPC   C1A27999   9.019  33.024   8.555
 7597POPC   D2A28000   8.951  32.985   8.255
 7597POPC   C3A28001   8.973  33.045   7.955
 7597POPC   C4A28002   8.953  33.013   7.655
 7597POPC   C1B28003   9.006  32.751   8.555
 7597POPC   C2B28004   8.991  32.769   8.255
 7597POPC   C3B28005   8.985  32.784   7.955
 7597POPC   C4B28006   9.047  32.818   7.655
 7598POPC   NC328007  29.157  32.259   9.455
 7598POPC   PO428008  29.146  32.243   9.155
 7598POPC   GL128009  29.132  32.250   8.855
 7598POPC   GL228010  29.259  32.276   8.855
 7598POPC   C1A28011  29.102  32.212   8.555
 7598POPC   D2A28012  29.167  32.280   8.255
 7598POPC   C3A28013  29.109  32.251   7.955
 7598POPC   C4A28014  29.156  32.220   7.655
 7598POPC   C1B28015  29.421  32.325   8.555
 7598POPC   C2B28016  29.361  32.304   8.255
 7598POPC   C3B28017  29.396  32.330   7.955
 7598POPC   C4B28018  29.418  32.317   7.655
 7599POPC   NC328019  38.453  18.264   9.455
 7599POPC   PO428020  38.424  18.275   9.155
 7599POPC   GL128021  38.470  18.324   8.855
 7599POPC   GL228022  38.480  18.397   8.855
 7599POPC   C1A28023  38.446  18.283   8.555
 7599POPC   D2A28024  38.414  18.257   8.255
 7599POPC   C3A28025  38.459  18.308   7.955
 7599POPC   C4A28026  38.444  18.270   7.655
 7599POPC   C1B28027  38.554  18.519   8.555
 7599POPC   C2B28028  38.590  18.549   8.255
 7599POPC   C3B28029  38.525  18.481   7.955
 7599POPC   C4B28030  38.535  18.482   7.655
 7600POPC   NC328031  10.528   1.200   9.455
 7600POPC   PO428032  10.528   1.190   9.155
 7600POPC   GL128033  10.510   1.223   8.855
 7600POPC   GL228034  10.463   1.189   8.855
 7600POPC   C1A28035  10.532   1.203   8.555
 7600POPC   D2A28036  10.548   1.235   8.255
 7600POPC   C3A28037  10.565   1.181   7.955
 7600POPC   C4A28038  10.535   1.240   7.655
 7600POPC   C1B28039  10.340   1.054   8.555
 7600POPC   C2B28040  10.339   1.060   8.255
 7600POPC   C3B28041  10.348   1.064   7.955
 7600POPC   C4B28042  10.346   1.116   7.655
 7601POPC   NC328043  16.694  26.074   9.455
 7601POPC   PO428044  16.684  26.042   9.155
 7601POPC   GL128045  16.705  26.056   8.855
 7601POPC   GL228046  16.687  26.133   8.855
 7601POPC   C1A28047  16.732  26.080   8.555
 7601POPC   D2A28048  16.724  26.064   8.255
 7601POPC   C3A28049  16.738  26.082   7.955
 7601POPC   C4A28050  16.780  26.021   7.655
 7601POPC   C1B28051  16.755  26.340   8.555
 7601POPC   C2B28052  16.733  26.259   8.255
 7601POPC   C3B28053  16.703  26.306   7.955
 7601POPC   C4B28054  16.696  26.309   7.655
 7602POPC   NC328055  25.297   0.399   9.455
 7602POPC   PO428056  25.315   0.443   9.155
 7602POPC   GL128057  25.293   0.425   8.855
 7602POPC   GL228058  25.391   0.350   8.855
 7602POPC   C1A28059  25.243   0.428   8.555
 7602POPC   D2A28060  25.288   0.464   8.255
 7602POPC   C3A28061  25.234   0.481   7.955
 7602POPC   C4A28062  25.293   0.442   7.655
 7602POPC   C1B28063  25.522   0.287   8.555
 7602POPC   C2B28064  25.431   0.303   8.255
 7602POPC   C3B28065  25.476   0.339   7.955
 7602POPC   C4B28066  25.506   0.346   7.655
 7603POPC   NC328067  16.682  33.043   9.455
 7603POPC   PO428068  16.725  32.980   9.155
 7603POPC   GL128069  16.718  33.016   8.855
 7603POPC   GL228070  16.850  33.019   8.855
 7603POPC   C1A28071  16.764  33.006   8.555
 7603POPC   D2A28072  16.774  33.053   8.255
 7603POPC   C3A28073  16.705  33.037   7.955
 7603POPC   C4A28074  16.733  33.039   7.655
 7603POPC   C1B28075  16.929  33.131   8.555
 7603POPC   C2B28076  16.932  33.116   8.255
 7603POPC   C3B28077  16.982  33.122   7.955
 7603POPC   C4B28078  16.982  33.115   7.655
 7604POPC   NC328079  31.425  37.631   9.455
 7604POPC   PO428080  31.498  37.640   9.155
 7604POPC   GL128081  31.504  37.688   8.855
 7604POPC   GL228082  31.534  37.584   8.855
 7604POPC   C1A28083  31.453  37.687   8.555
 7604POPC   D2A28084  31.459  37.647   8.255
 7604POPC   C3A28085  31.470  37.712   7.955
 7604POPC   C4A28086  31.432  37.708   7.655
 7604POPC   C1B28087  31.551  37.466   8.555
 7604POPC   C2B28088  31.537  37.388   8.255
 7604POPC   C3B28089  31.545  37.473   7.955
 7604POPC   C4B28090  31.526  37.455   7.655
 7605POPC   NC328091  12.869  12.868   9.455
 7605POPC   PO428092  12.813  12.895   9.155
 7605POPC   GL128093  12.810  12.899   8.855
 7605POPC   GL228094  12.830  12.941   8.855
 7605POPC   C1A28095  12.867  12.803   8.555
 7605POPC   D2A28096  12.894  12.867   8.255
 7605POPC   C3A28097  12.828  12.900   7.955
 7605POPC   C4A28098  12.837  12.887   7.655
 7605POPC   C1B28099  12.778  13.085   8.555
 7605POPC   C2B28100  12.745  13.114   8.255
 7605POPC   C3B28101  12.822  13.122   7.955
 7605POPC   C4B28102  12.809  13.057   7.655
 7606POPC   NC328103  27.606  27.638   9.455
 7606POPC   PO428104  27.556  27.588   9.155
 7606POPC   GL128105  27.591  27.590   8.855
 7606POPC   GL228106  27.448  27.577   8.855
 7606POPC   C1A28107  27.615  27.620   8.555
 7606POPC   D2A28108  27.597  27.596   8.255
 7606POPC   C3A28109  27.615  27.589   7.955
 7606POPC   C4A28110  27.596  27.568   7.655
 7606POPC   C1B28111  27.365  27.532   8.555
 7606POPC   C2B28112  27.320  27.484   8.255
 7606POPC   C3B28113  27.379  27.563   7.955
 7606POPC   C4B28114  27.403  27.542   7.655
 7607POPC   NC328115  36.144  28.339   9.455
 7607POPC   PO428116  36.093  28.352   9.155
 7607POPC   GL128117  36.119  28.349   8.855
 7607POPC   GL228118  36.236  28.455   8.855
 7607POPC   C1A28119  36.093  28.393   8.555
 7607POPC   D2A28120  36.131  28.387   8.255
 7607POPC   C3A28121  36.163  28.341   7.955
 7607POPC   C4A28122  36.124  28.357   7.655
 7607POPC   C1B28123  36.386  28.516   8.555
 7607POPC   C2B28124  36.338  28.486   8.255
 7607POPC   C3B28125  36.392  28.442   7.955
 7607POPC   C4B28126  36.307  28.507   7.655
 7608POPC   NC328127  34.612   1.949   9.455
 7608POPC   PO428128  34.572   1.950   9.155
 7608POPC   GL128129  34.544   1.947   8.855
 7608POPC   GL228130  34.653   2.026   8.855
 7608POPC   C1A28131  34.581   1.951   8.555
 7608POPC   D2A28132  34.575   1.944   8.255
 7608POPC   C3A28133  34.617   2.017   7.955
 7608POPC   C4A28134  34.622   2.007   7.655
 7608POPC   C1B28135  34.866   1.981   8.555
 7608POPC   C2B28136  34.832   1.964   8.255
 7608POPC   C3B28137  34.852   2.016   7.955
 7608POPC   C4B28138  34.827   1.984   7.655
 7609POPC   NC328139  36.110  12.028   9.455
 7609POPC   PO428140  36.166  12.077   9.155
 7609POPC   GL128141  36.085  12.059   8.855
 7609POPC   GL228142  36.132  12.211   8.855
 7609POPC   C1A28143  36.161  12.077   8.555
 7609POPC   D2A28144  36.153  12.082   8.255
 7609POPC   C3A28145  36.118  12.074   7.955
 7609POPC   C4A28146  36.147  12.126   7.655
 7609POPC   C1B28147  36.071  12.283   8.555
 7609POPC   C2B28148  36.080  12.319   8.255
 7609POPC   C3B28149  36.118  12.279   7.955
 7609POPC   C4B28150  36.124  12.281   7.655
 7610POPC   NC328151  12.827  38.470   9.455
 7610POPC   PO428152  12.803  38.449   9.155
 7610POPC   GL128153  12.877  38.468   8.855
 7610POPC   GL228154  12.820  38.551   8.855
 7610POPC   C1A28155  12.900  38.481   8.555
 7610POPC   D2A28156  12.824  38.425   8.255
 7610POPC   C3A28157  12.806  38.405   7.955
 7610POPC   C4A28158  12.807  38.461   7.655
 7610POPC   C1B28159  12.831  38.706   8.555
 7610POPC   C2B28160  12.835  38.674   8.255
 7610POPC   C3B28161  12.900  38.667   7.955
 7610POPC   C4B28162  12.836  38.739   7.655
 7611POPC   NC328163   1.209  43.848   9.455
 7611POPC   PO428164   1.223  43.933   9.155
 7611POPC   GL128165   1.227  43.868   8.855
 7611POPC   GL228166   1.134  43.847   8.855
 7611POPC   C1A28167   1.177  43.911   8.555
 7611POPC   D2A28168   1.197  43.911   8.255
 7611POPC   C3A28169   1.208  43.892   7.955
 7611POPC   C4A28170   1.194  43.886   7.655
 7611POPC   C1B28171   0.994  43.759   8.555
 7611POPC   C2B28172   0.982  43.710   8.255
 7611POPC   C3B28173   1.049  43.728   7.955
 7611POPC   C4B28174   1.018  43.686   7.655
 7612POPC   NC328175   8.213  10.477   9.455
 7612POPC   PO428176   8.222  10.497   9.155
 7612POPC   GL128177   8.200  10.523   8.855
 7612POPC   GL228178   8.348  10.517   8.855
 7612POPC   C1A28179   8.195  10.531   8.555
 7612POPC   D2A28180   8.182  10.527   8.255
 7612POPC   C3A28181   8.185  10.497   7.955
 7612POPC   C4A28182   8.231  10.509   7.655
 7612POPC   C1B28183   8.454  10.550   8.555
 7612POPC   C2B28184   8.398  10.528   8.255
 7612POPC   C3B28185   8.433  10.546   7.955
 7612POPC   C4B28186   8.484  10.500   7.655
 7613POPC   NC328187   5.095   2.738   9.455
 7613POPC   PO428188   5.089   2.729   9.155
 7613POPC   GL128189   5.061   2.802   8.855
 7613POPC   GL228190   5.228   2.681   8.855
 7613POPC   C1A28191   5.123   2.773   8.555
 7613POPC   D2A28192   5.067   2.796   8.255
 7613POPC   C3A28193   5.085   2.794   7.955
 7613POPC   C4A28194   5.138   2.728   7.655
 7613POPC   C1B28195   5.353   2.693   8.555
 7613POPC   C2B28196   5.381   2.714   8.255
 7613POPC   C3B28197   5.381   2.743   7.955
 7613POPC   C4B28198   5.325   2.685   7.655
 7614POPC   NC328199  27.582  43.933   9.455
 7614POPC   PO428200  27.579  43.855   9.155
 7614POPC   GL128201  27.596  43.901   8.855
 7614POPC   GL228202  27.751  43.808   8.855
 7614POPC   C1A28203  27.579  43.924   8.555
 7614POPC   D2A28204  27.611  43.848   8.255
 7614POPC   C3A28205  27.590  43.929   7.955
 7614POPC   C4A28206  27.551  43.899   7.655
 7614POPC   C1B28207  27.873  43.846   8.555
 7614POPC   C2B28208  27.853  43.837   8.255
 7614POPC   C3B28209  27.786  43.790   7.955
 7614POPC   C4B28210  27.826  43.825   7.655
 7615POPC   NC328211  28.372   5.837   9.455
 7615POPC   PO428212  28.381   5.869   9.155
 7615POPC   GL128213  28.372   5.833   8.855
 7615POPC   GL228214  28.387   5.749   8.855
 7615POPC   C1A28215  28.405   5.856   8.555
 7615POPC   D2A28216  28.394   5.820   8.255
 7615POPC   C3A28217  28.351   5.870   7.955
 7615POPC   C4A28218  28.412   5.899   7.655
 7615POPC   C1B28219  28.459   5.584   8.555
 7615POPC   C2B28220  28.401   5.592   8.255
 7615POPC   C3B28221  28.436   5.674   7.955
 7615POPC   C4B28222  28.407   5.612   7.655
 7616POPC   NC328223  12.040  32.219   9.455
 7616POPC   PO428224  12.097  32.225   9.155
 7616POPC   GL128225  12.050  32.272   8.855
 7616POPC   GL228226  12.141  32.142   8.855
 7616POPC   C1A28227  12.065  32.282   8.555
 7616POPC   D2A28228  12.043  32.259   8.255
 7616POPC   C3A28229  12.119  32.280   7.955
 7616POPC   C4A28230  12.076  32.253   7.655
 7616POPC   C1B28231  12.232  31.995   8.555
 7616POPC   C2B28232  12.241  32.070   8.255
 7616POPC   C3B28233  12.230  32.009   7.955
 7616POPC   C4B28234  12.223  31.996   7.655
 7617POPC   NC328235   0.422  35.302   9.455
 7617POPC   PO428236   0.420  35.385   9.155
 7617POPC   GL128237   0.428  35.390   8.855
 7617POPC   GL228238   0.583  35.398   8.855
 7617POPC   C1A28239   0.420  35.307   8.555
 7617POPC   D2A28240   0.401  35.387   8.255
 7617POPC   C3A28241   0.447  35.341   7.955
 7617POPC   C4A28242   0.426  35.392   7.655
 7617POPC   C1B28243   0.707  35.337   8.555
 7617POPC   C2B28244   0.676  35.373   8.255
 7617POPC   C3B28245   0.714  35.386   7.955
 7617POPC   C4B28246   0.669  35.381   7.655
 7618POPC   NC328247   9.726   4.367   9.455
 7618POPC   PO428248   9.784   4.276   9.155
 7618POPC   GL128249   9.737   4.330   8.855
 7618POPC   GL228250   9.712   4.471   8.855
 7618POPC   C1A28251   9.772   4.318   8.555
 7618POPC   D2A28252   9.739   4.347   8.255
 7618POPC   C3A28253   9.704   4.272   7.955
 7618POPC   C4A28254   9.753   4.323   7.655
 7618POPC   C1B28255   9.789   4.596   8.555
 7618POPC   C2B28256   9.772   4.594   8.255
 7618POPC   C3B28257   9.805   4.570   7.955
 7618POPC   C4B28258   9.750   4.541   7.655
 7619POPC   NC328259   1.965   4.276   9.455
 7619POPC   PO428260   2.026   4.366   9.155
 7619POPC   GL128261   2.035   4.341   8.855
 7619POPC   GL228262   2.132   4.353   8.855
 7619POPC   C1A28263   2.033   4.355   8.555
 7619POPC   D2A28264   1.999   4.362   8.255
 7619POPC   C3A28265   1.989   4.274   7.955
 7619POPC   C4A28266   2.013   4.287   7.655
 7619POPC   C1B28267   2.221   4.440   8.555
 7619POPC   C2B28268   2.194   4.405   8.255
 7619POPC   C3B28269   2.177   4.433   7.955
 7619POPC   C4B28270   2.190   4.439   7.655
 7620POPC   NC328271  26.838  43.078   9.455
 7620POPC   PO428272  26.774  43.069   9.155
 7620POPC   GL128273  26.795  43.151   8.855
 7620POPC   GL228274  26.657  43.123   8.855
 7620POPC   C1A28275  26.860  43.113   8.555
 7620POPC   D2A28276  26.832  43.075   8.255
 7620POPC   C3A28277  26.832  43.071   7.955
 7620POPC   C4A28278  26.782  43.131   7.655
 7620POPC   C1B28279  26.571  43.231   8.555
 7620POPC   C2B28280  26.543  43.182   8.255
 7620POPC   C3B28281  26.538  43.206   7.955
 7620POPC   C4B28282  26.584  43.254   7.655
 7621POPC   NC328283  32.204  17.542   9.455
 7621POPC   PO428284  32.247  17.515   9.155
 7621POPC   GL128285  32.277  17.496   8.855
 7621POPC   GL228286  32.239  17.400   8.855
 7621POPC   C1A28287  32.277  17.541   8.555
 7621POPC   D2A28288  32.272  17.500   8.255
 7621POPC   C3A28289  32.202  17.542   7.955
 7621POPC   C4A28290  32.259  17.480   7.655
 7621POPC   C1B28291  32.238  17.284   8.555
 7621POPC   C2B28292  32.311  17.219   8.255
 7621POPC   C3B28293  32.312  17.253   7.955
 7621POPC   C4B28294  32.296  17.243   7.655
 7622POPC   NC328295  23.714  32.223   9.455
 7622POPC   PO428296  23.681  32.293   9.155
 7622POPC   GL128297  23.760  32.262   8.855
 7622POPC   GL228298  23.879  32.203   8.855
 7622POPC   C1A28299  23.714  32.219   8.555
 7622POPC   D2A28300  23.685  32.260   8.255
 7622POPC   C3A28301  23.683  32.214   7.955
 7622POPC   C4A28302  23.720  32.261   7.655
 7622POPC   C1B28303  23.938  32.146   8.555
 7622POPC   C2B28304  23.977  32.158   8.255
 7622POPC   C3B28305  23.937  32.149   7.955
 7622POPC   C4B28306  23.992  32.217   7.655
 7623POPC   NC328307  26.842  26.057   9.455
 7623POPC   PO428308  26.780  26.018   9.155
 7623POPC   GL128309  26.806  26.013   8.855
 7623POPC   GL228310  26.896  25.997   8.855
 7623POPC   C1A28311  26.812  26.011   8.555
 7623POPC   D2A28312  26.812  26.030   8.255
 7623POPC   C3A28313  26.828  26.013   7.955
 7623POPC   C4A28314  26.792  26.050   7.655
 7623POPC   C1B28315  27.100  26.033   8.555
 7623POPC   C2B28316  27.113  25.994   8.255
 7623POPC   C3B28317  27.082  26.003   7.955
 7623POPC   C4B28318  27.047  25.975   7.655
 7624POPC   NC328319   2.808   2.800   9.455
 7624POPC   PO428320   2.790   2.718   9.155
 7624POPC   GL128321   2.744   2.772   8.855
 7624POPC   GL228322   2.658   2.818   8.855
 7624POPC   C1A28323   2.740   2.753   8.555
 7624POPC   D2A28324   2.725   2.771   8.255
 7624POPC   C3A28325   2.752   2.783   7.955
 7624POPC   C4A28326   2.795   2.798   7.655
 7624POPC   C1B28327   2.590   2.860   8.555
 7624POPC   C2B28328   2.509   2.932   8.255
 7624POPC   C3B28329   2.548   2.883   7.955
 7624POPC   C4B28330   2.524   2.935   7.655
 7625POPC   NC328331   0.400   3.538   9.455
 7625POPC   PO428332   0.424   3.509   9.155
 7625POPC   GL128333   0.450   3.497   8.855
 7625POPC   GL228334   0.514   3.630   8.855
 7625POPC   C1A28335   0.460   3.554   8.555
 7625POPC   D2A28336   0.459   3.539   8.255
 7625POPC   C3A28337   0.393   3.578   7.955
 7625POPC   C4A28338   0.485   3.506   7.655
 7625POPC   C1B28339   0.710   3.623   8.555
 7625POPC   C2B28340   0.645   3.574   8.255
 7625POPC   C3B28341   0.712   3.620   7.955
 7625POPC   C4B28342   0.698   3.640   7.655
 7626POPC   NC328343  30.686  40.774   9.455
 7626POPC   PO428344  30.677  40.822   9.155
 7626POPC   GL128345  30.683  40.777   8.855
 7626POPC   GL228346  30.744  40.885   8.855
 7626POPC   C1A28347  30.744  40.824   8.555
 7626POPC   D2A28348  30.680  40.782   8.255
 7626POPC   C3A28349  30.722  40.799   7.955
 7626POPC   C4A28350  30.676  40.759   7.655
 7626POPC   C1B28351  30.730  41.046   8.555
 7626POPC   C2B28352  30.698  40.991   8.255
 7626POPC   C3B28353  30.721  41.021   7.955
 7626POPC   C4B28354  30.729  41.021   7.655
 7627POPC   NC328355  42.338   6.661   9.455
 7627POPC   PO428356  42.378   6.602   9.155
 7627POPC   GL128357  42.285   6.638   8.855
 7627POPC   GL228358  42.196   6.603   8.855
 7627POPC   C1A28359  42.319   6.613   8.555
 7627POPC   D2A28360  42.299   6.668   8.255
 7627POPC   C3A28361  42.321   6.693   7.955
 7627POPC   C4A28362  42.376   6.693   7.655
 7627POPC   C1B28363  42.073   6.602   8.555
 7627POPC   C2B28364  42.067   6.539   8.255
 7627POPC   C3B28365  42.080   6.545   7.955
 7627POPC   C4B28366  42.079   6.589   7.655
 7628POPC   NC328367  10.481  21.426   9.455
 7628POPC   PO428368  10.538  21.342   9.155
 7628POPC   GL128369  10.524  21.434   8.855
 7628POPC   GL228370  10.395  21.329   8.855
 7628POPC   C1A28371  10.543  21.358   8.555
 7628POPC   D2A28372  10.532  21.402   8.255
 7628POPC   C3A28373  10.505  21.384   7.955
 7628POPC   C4A28374  10.524  21.371   7.655
 7628POPC   C1B28375  10.247  21.253   8.555
 7628POPC   C2B28376  10.331  21.267   8.255
 7628POPC   C3B28377  10.258  21.315   7.955
 7628POPC   C4B28378  10.309  21.318   7.655
 7629POPC   NC328379  25.232  43.061   9.455
 7629POPC   PO428380  25.228  43.148   9.155
 7629POPC   GL128381  25.307  43.132   8.855
 7629POPC   GL228382  25.268  42.939   8.855
 7629POPC   C1A28383  25.238  43.087   8.555
 7629POPC   D2A28384  25.230  43.086   8.255
 7629POPC   C3A28385  25.225  43.080   7.955
 7629POPC   C4A28386  25.311  43.156   7.655
 7629POPC   C1B28387  25.250  42.872   8.555
 7629POPC   C2B28388  25.343  42.907   8.255
 7629POPC   C3B28389  25.319  42.843   7.955
 7629POPC   C4B28390  25.337  42.899   7.655
 7630POPC   NC328391   8.233  43.098   9.455
 7630POPC   PO428392   8.230  43.106   9.155
 7630POPC   GL128393   8.151  43.070   8.855
 7630POPC   GL228394   8.340  43.066   8.855
 7630POPC   C1A28395   8.162  43.156   8.555
 7630POPC   D2A28396   8.154  43.115   8.255
 7630POPC   C3A28397   8.223  43.105   7.955
 7630POPC   C4A28398   8.190  43.078   7.655
 7630POPC   C1B28399   8.418  43.093   8.555
 7630POPC   C2B28400   8.454  43.093   8.255
 7630POPC   C3B28401   8.472  43.081   7.955
 7630POPC   C4B28402   8.425  43.042   7.655
 7631POPC   NC328403   6.642  39.240   9.455
 7631POPC   PO428404   6.628  39.237   9.155
 7631POPC   GL128405   6.626  39.223   8.855
 7631POPC   GL228406   6.564  39.281   8.855
 7631POPC   C1A28407   6.617  39.207   8.555
 7631POPC   D2A28408   6.601  39.228   8.255
 7631POPC   C3A28409   6.653  39.188   7.955
 7631POPC   C4A28410   6.671  39.254   7.655
 7631POPC   C1B28411   6.436  39.249   8.555
 7631POPC   C2B28412   6.447  39.340   8.255
 7631POPC   C3B28413   6.449  39.301   7.955
 7631POPC   C4B28414   6.445  39.276   7.655
 7632POPC   NC328415  43.147  21.407   9.455
 7632POPC   PO428416  43.089  21.409   9.155
 7632POPC   GL128417  43.111  21.427   8.855
 7632POPC   GL228418  43.198  21.438   8.855
 7632POPC   C1A28419  43.148  21.406   8.555
 7632POPC   D2A28420  43.076  21.402   8.255
 7632POPC   C3A28421  43.061  21.342   7.955
 7632POPC   C4A28422  43.130  21.414   7.655
 7632POPC   C1B28423  43.330  21.493   8.555
 7632POPC   C2B28424  43.296  21.552   8.255
 7632POPC   C3B28425  43.352  21.497   7.955
 7632POPC   C4B28426  43.262  21.566   7.655
 7633POPC   NC328427  36.080   8.170   9.455
 7633POPC   PO428428  36.170   8.185   9.155
 7633POPC   GL128429  36.080   8.186   8.855
 7633POPC   GL228430  36.041   8.230   8.855
 7633POPC   C1A28431  36.089   8.220   8.555
 7633POPC   D2A28432  36.154   8.162   8.255
 7633POPC   C3A28433  36.141   8.204   7.955
 7633POPC   C4A28434  36.123   8.183   7.655
 7633POPC   C1B28435  35.895   8.194   8.555
 7633POPC   C2B28436  35.869   8.144   8.255
 7633POPC   C3B28437  35.899   8.216   7.955
 7633POPC   C4B28438  35.918   8.205   7.655
 7634POPC   NC328439   3.507  36.870   9.455
 7634POPC   PO428440   3.512  36.907   9.155
 7634POPC   GL128441   3.550  36.865   8.855
 7634POPC   GL228442   3.641  36.961   8.855
 7634POPC   C1A28443   3.496  36.893   8.555
 7634POPC   D2A28444   3.542  36.948   8.255
 7634POPC   C3A28445   3.573  36.869   7.955
 7634POPC   C4A28446   3.559  36.890   7.655
 7634POPC   C1B28447   3.788  36.956   8.555
 7634POPC   C2B28448   3.791  37.044   8.255
 7634POPC   C3B28449   3.767  36.972   7.955
 7634POPC   C4B28450   3.782  37.009   7.655
 7635POPC   NC328451   5.894  19.832   9.455
 7635POPC   PO428452   5.912  19.824   9.155
 7635POPC   GL128453   5.865  19.793   8.855
 7635POPC   GL228454   5.751  19.774   8.855
 7635POPC   C1A28455   5.918  19.792   8.555
 7635POPC   D2A28456   5.891  19.874   8.255
 7635POPC   C3A28457   5.835  19.851   7.955
 7635POPC   C4A28458   5.889  19.834   7.655
 7635POPC   C1B28459   5.669  19.639   8.555
 7635POPC   C2B28460   5.682  19.691   8.255
 7635POPC   C3B28461   5.639  19.709   7.955
 7635POPC   C4B28462   5.665  19.722   7.655
 7636POPC   NC328463  32.993  16.685   9.455
 7636POPC   PO428464  33.017  16.769   9.155
 7636POPC   GL128465  33.052  16.743   8.855
 7636POPC   GL228466  32.986  16.591   8.855
 7636POPC   C1A28467  33.072  16.723   8.555
 7636POPC   D2A28468  33.051  16.706   8.255
 7636POPC   C3A28469  33.018  16.714   7.955
 7636POPC   C4A28470  32.989  16.765   7.655
 7636POPC   C1B28471  32.937  16.501   8.555
 7636POPC   C2B28472  32.956  16.534   8.255
 7636POPC   C3B28473  32.944  16.478   7.955
 7636POPC   C4B28474  32.934  16.534   7.655
 7637POPC   NC328475  15.163  39.979   9.455
 7637POPC   PO428476  15.158  40.036   9.155
 7637POPC   GL128477  15.197  39.972   8.855
 7637POPC   GL228478  15.277  40.073   8.855
 7637POPC   C1A28479  15.159  40.004   8.555
 7637POPC   D2A28480  15.188  39.997   8.255
 7637POPC   C3A28481  15.158  39.964   7.955
 7637POPC   C4A28482  15.186  40.015   7.655
 7637POPC   C1B28483  15.273  40.248   8.555
 7637POPC   C2B28484  15.329  40.236   8.255
 7637POPC   C3B28485  15.305  40.206   7.955
 7637POPC   C4B28486  15.332  40.215   7.655
 7638POPC   NC328487  27.568  32.250   9.455
 7638POPC   PO428488  27.603  32.234   9.155
 7638POPC   GL128489  27.632  32.247   8.855
 7638POPC   GL228490  27.620  32.133   8.855
 7638POPC   C1A28491  27.585  32.200   8.555
 7638POPC   D2A28492  27.606  32.274   8.255
 7638POPC   C3A28493  27.557  32.224   7.955
 7638POPC   C4A28494  27.620  32.233   7.655
 7638POPC   C1B28495  27.582  32.047   8.555
 7638POPC   C2B28496  27.585  31.950   8.255
 7638POPC   C3B28497  27.549  31.978   7.955
 7638POPC   C4B28498  27.532  32.021   7.655
 7639POPC   NC328499  19.010   8.969   9.455
 7639POPC   PO428500  19.073   8.933   9.155
 7639POPC   GL128501  19.020   8.924   8.855
 7639POPC   GL228502  19.026   8.856   8.855
 7639POPC   C1A28503  19.023   9.003   8.555
 7639POPC   D2A28504  19.058   9.018   8.255
 7639POPC   C3A28505  19.102   8.944   7.955
 7639POPC   C4A28506  19.079   8.972   7.655
 7639POPC   C1B28507  18.977   8.795   8.555
 7639POPC   C2B28508  18.910   8.718   8.255
 7639POPC   C3B28509  18.957   8.712   7.955
 7639POPC   C4B28510  18.896   8.726   7.655
 7640POPC   NC328511  18.323  40.735   9.455
 7640POPC   PO428512  18.320  40.755   9.155
 7640POPC   GL128513  18.306  40.823   8.855
 7640POPC   GL228514  18.346  40.658   8.855
 7640POPC   C1A28515  18.329  40.738   8.555
 7640POPC   D2A28516  18.308  40.748   8.255
 7640POPC   C3A28517  18.291  40.777   7.955
 7640POPC   C4A28518  18.303  40.739   7.655
 7640POPC   C1B28519  18.479  40.642   8.555
 7640POPC   C2B28520  18.427  40.585   8.255
 7640POPC   C3B28521  18.437  40.578   7.955
 7640POPC   C4B28522  18.486  40.582   7.655
 7641POPC   NC328523   7.387  43.105   9.455
 7641POPC   PO428524   7.425  43.084   9.155
 7641POPC   GL128525   7.375  43.068   8.855
 7641POPC   GL228526   7.483  43.258   8.855
 7641POPC   C1A28527   7.378  43.155   8.555
 7641POPC   D2A28528   7.384  43.087   8.255
 7641POPC   C3A28529   7.399  43.077   7.955
 7641POPC   C4A28530   7.374  43.099   7.655
 7641POPC   C1B28531   7.518  43.340   8.555
 7641POPC   C2B28532   7.564  43.331   8.255
 7641POPC   C3B28533   7.561  43.363   7.955
 7641POPC   C4B28534   7.563  43.332   7.655
 7642POPC   NC328535  18.254  43.920   9.455
 7642POPC   PO428536  18.318  43.843   9.155
 7642POPC   GL128537  18.278  43.901   8.855
 7642POPC   GL228538  18.275  43.803   8.855
 7642POPC   C1A28539  18.322  43.886   8.555
 7642POPC   D2A28540  18.273  43.863   8.255
 7642POPC   C3A28541  18.283  43.919   7.955
 7642POPC   C4A28542  18.303  43.857   7.655
 7642POPC   C1B28543  18.183  43.630   8.555
 7642POPC   C2B28544  18.262  43.619   8.255
 7642POPC   C3B28545  18.200  43.674   7.955
 7642POPC   C4B28546  18.225  43.615   7.655
 7643POPC   NC328547   9.016  16.772   9.455
 7643POPC   PO428548   8.959  16.698   9.155
 7643POPC   GL128549   9.014  16.687   8.855
 7643POPC   GL228550   9.128  16.796   8.855
 7643POPC   C1A28551   8.946  16.750   8.555
 7643POPC   D2A28552   9.016  16.779   8.255
 7643POPC   C3A28553   8.995  16.757   7.955
 7643POPC   C4A28554   8.951  16.704   7.655
 7643POPC   C1B28555   9.237  16.829   8.555
 7643POPC   C2B28556   9.194  16.811   8.255
 7643POPC   C3B28557   9.165  16.778   7.955
 7643POPC   C4B28558   9.203  16.830   7.655
 7644POPC   NC328559   8.222  29.911   9.455
 7644POPC   PO428560   8.200  29.894   9.155
 7644POPC   GL128561   8.180  29.905   8.855
 7644POPC   GL228562   8.131  30.060   8.855
 7644POPC   C1A28563   8.202  29.904   8.555
 7644POPC   D2A28564   8.171  29.931   8.255
 7644POPC   C3A28565   8.237  29.954   7.955
 7644POPC   C4A28566   8.206  29.896   7.655
 7644POPC   C1B28567   8.016  30.138   8.555
 7644POPC   C2B28568   8.075  30.093   8.255
 7644POPC   C3B28569   8.010  30.146   7.955
 7644POPC   C4B28570   8.054  30.119   7.655
 7645POPC   NC328571  22.189  10.556   9.455
 7645POPC   PO428572  22.210  10.538   9.155
 7645POPC   GL128573  22.151  10.554   8.855
 7645POPC   GL228574  22.239  10.593   8.855
 7645POPC   C1A28575  22.200  10.512   8.555
 7645POPC   D2A28576  22.115  10.546   8.255
 7645POPC   C3A28577  22.203  10.510   7.955
 7645POPC   C4A28578  22.121  10.493   7.655
 7645POPC   C1B28579  22.441  10.568   8.555
 7645POPC   C2B28580  22.440  10.621   8.255
 7645POPC   C3B28581  22.417  10.629   7.955
 7645POPC   C4B28582  22.366  10.629   7.655
 7646POPC   NC328583  32.284  39.276   9.455
 7646POPC   PO428584  32.216  39.267   9.155
 7646POPC   GL128585  32.225  39.270   8.855
 7646POPC   GL228586  32.132  39.189   8.855
 7646POPC   C1A28587  32.297  39.195   8.555
 7646POPC   D2A28588  32.238  39.215   8.255
 7646POPC   C3A28589  32.221  39.197   7.955
 7646POPC   C4A28590  32.207  39.216   7.655
 7646POPC   C1B28591  32.038  39.185   8.555
 7646POPC   C2B28592  32.018  39.199   8.255
 7646POPC   C3B28593  31.964  39.160   7.955
 7646POPC   C4B28594  31.992  39.142   7.655
 7647POPC   NC328595   6.688   7.424   9.455
 7647POPC   PO428596   6.629   7.439   9.155
 7647POPC   GL128597   6.615   7.453   8.855
 7647POPC   GL228598   6.754   7.316   8.855
 7647POPC   C1A28599   6.695   7.443   8.555
 7647POPC   D2A28600   6.682   7.421   8.255
 7647POPC   C3A28601   6.641   7.446   7.955
 7647POPC   C4A28602   6.613   7.422   7.655
 7647POPC   C1B28603   6.872   7.311   8.555
 7647POPC   C2B28604   6.888   7.222   8.255
 7647POPC   C3B28605   6.889   7.311   7.955
 7647POPC   C4B28606   6.863   7.222   7.655
 7648POPC   NC328607  39.184  12.037   9.455
 7648POPC   PO428608  39.225  12.111   9.155
 7648POPC   GL128609  39.256  12.029   8.855
 7648POPC   GL228610  39.178  12.004   8.855
 7648POPC   C1A28611  39.184  12.109   8.555
 7648POPC   D2A28612  39.231  12.033   8.255
 7648POPC   C3A28613  39.256  12.099   7.955
 7648POPC   C4A28614  39.278  12.052   7.655
 7648POPC   C1B28615  39.054  11.965   8.555
 7648POPC   C2B28616  38.999  11.931   8.255
 7648POPC   C3B28617  39.057  11.926   7.955
 7648POPC   C4B28618  39.041  11.968   7.655
 7649POPC   NC328619  14.392   4.313   9.455
 7649POPC   PO428620  14.426   4.292   9.155
 7649POPC   GL128621  14.381   4.309   8.855
 7649POPC   GL228622  14.501   4.349   8.855
 7649POPC   C1A28623  14.405   4.286   8.555
 7649POPC   D2A28624  14.404   4.291   8.255
 7649POPC   C3A28625  14.426   4.307   7.955
 7649POPC   C4A28626  14.436   4.327   7.655
 7649POPC   C1B28627  14.623   4.395   8.555
 7649POPC   C2B28628  14.622   4.434   8.255
 7649POPC   C3B28629  14.672   4.382   7.955
 7649POPC   C4B28630  14.603   4.410   7.655
 7650POPC   NC328631  26.033  38.462   9.455
 7650POPC   PO428632  26.027  38.428   9.155
 7650POPC   GL128633  26.036  38.502   8.855
 7650POPC   GL228634  26.077  38.321   8.855
 7650POPC   C1A28635  26.065  38.495   8.555
 7650POPC   D2A28636  25.993  38.479   8.255
 7650POPC   C3A28637  26.086  38.443   7.955
 7650POPC   C4A28638  26.068  38.429   7.655
 7650POPC   C1B28639  26.130  38.224   8.555
 7650POPC   C2B28640  26.193  38.243   8.255
 7650POPC   C3B28641  26.173  38.197   7.955
 7650POPC   C4B28642  26.154  38.269   7.655
 7651POPC   NC328643  43.081  37.727   9.455
 7651POPC   PO428644  43.123  37.701   9.155
 7651POPC   GL128645  43.085  37.651   8.855
 7651POPC   GL228646  43.274  37.677   8.855
 7651POPC   C1A28647  43.120  37.631   8.555
 7651POPC   D2A28648  43.081  37.634   8.255
 7651POPC   C3A28649  43.143  37.715   7.955
 7651POPC   C4A28650  43.134  37.689   7.655
 7651POPC   C1B28651  43.355  37.600   8.555
 7651POPC   C2B28652  43.301  37.544   8.255
 7651POPC   C3B28653  43.340  37.571   7.955
 7651POPC   C4B28654  43.334  37.609   7.655
 7652POPC   NC328655  39.258  28.325   9.455
 7652POPC   PO428656  39.274  28.332   9.155
 7652POPC   GL128657  39.190  28.356   8.855
 7652POPC   GL228658  39.269  28.222   8.855
 7652POPC   C1A28659  39.255  28.326   8.555
 7652POPC   D2A28660  39.278  28.392   8.255
 7652POPC   C3A28661  39.198  28.376   7.955
 7652POPC   C4A28662  39.270  28.338   7.655
 7652POPC   C1B28663  39.246  28.102   8.555
 7652POPC   C2B28664  39.249  28.117   8.255
 7652POPC   C3B28665  39.255  28.117   7.955
 7652POPC   C4B28666  39.245  28.144   7.655
 7653POPC   NC328667  20.650  26.027   9.455
 7653POPC   PO428668  20.626  26.022   9.155
 7653POPC   GL128669  20.626  26.082   8.855
 7653POPC   GL228670  20.705  25.917   8.855
 7653POPC   C1A28671  20.635  26.035   8.555
 7653POPC   D2A28672  20.629  26.085   8.255
 7653POPC   C3A28673  20.629  26.011   7.955
 7653POPC   C4A28674  20.621  26.011   7.655
 7653POPC   C1B28675  20.804  25.865   8.555
 7653POPC   C2B28676  20.795  25.822   8.255
 7653POPC   C3B28677  20.759  25.828   7.955
 7653POPC   C4B28678  20.769  25.809   7.655
 7654POPC   NC328679  39.261  40.813   9.455
 7654POPC   PO428680  39.279  40.824   9.155
 7654POPC   GL128681  39.271  40.788   8.855
 7654POPC   GL228682  39.087  40.729   8.855
 7654POPC   C1A28683  39.243  40.754   8.555
 7654POPC   D2A28684  39.216  40.777   8.255
 7654POPC   C3A28685  39.249  40.745   7.955
 7654POPC   C4A28686  39.257  40.793   7.655
 7654POPC   C1B28687  39.006  40.760   8.555
 7654POPC   C2B28688  38.949  40.766   8.255
 7654POPC   C3B28689  38.950  40.755   7.955
 7654POPC   C4B28690  39.032  40.734   7.655
 7655POPC   NC328691  22.163  40.793   9.455
 7655POPC   PO428692  22.149  40.782   9.155
 7655POPC   GL128693  22.204  40.828   8.855
 7655POPC   GL228694  22.307  40.733   8.855
 7655POPC   C1A28695  22.148  40.754   8.555
 7655POPC   D2A28696  22.147  40.765   8.255
 7655POPC   C3A28697  22.113  40.809   7.955
 7655POPC   C4A28698  22.184  40.747   7.655
 7655POPC   C1B28699  22.346  40.662   8.555
 7655POPC   C2B28700  22.371  40.649   8.255
 7655POPC   C3B28701  22.367  40.708   7.955
 7655POPC   C4B28702  22.342  40.650   7.655
 7656POPC   NC328703  40.761  16.740   9.455
 7656POPC   PO428704  40.752  16.699   9.155
 7656POPC   GL128705  40.782  16.776   8.855
 7656POPC   GL228706  40.695  16.638   8.855
 7656POPC   C1A28707  40.829  16.772   8.555
 7656POPC   D2A28708  40.784  16.737   8.255
 7656POPC   C3A28709  40.741  16.692   7.955
 7656POPC   C4A28710  40.750  16.714   7.655
 7656POPC   C1B28711  40.583  16.628   8.555
 7656POPC   C2B28712  40.544  16.641   8.255
 7656POPC   C3B28713  40.567  16.650   7.955
 7656POPC   C4B28714  40.603  16.592   7.655
 7657POPC   NC328715  31.446  16.777   9.455
 7657POPC   PO428716  31.480  16.727   9.155
 7657POPC   GL128717  31.521  16.769   8.855
 7657POPC   GL228718  31.483  16.832   8.855
 7657POPC   C1A28719  31.431  16.765   8.555
 7657POPC   D2A28720  31.477  16.728   8.255
 7657POPC   C3A28721  31.456  16.719   7.955
 7657POPC   C4A28722  31.501  16.765   7.655
 7657POPC   C1B28723  31.367  16.962   8.555
 7657POPC   C2B28724  31.408  16.984   8.255
 7657POPC   C3B28725  31.460  16.945   7.955
 7657POPC   C4B28726  31.388  16.993   7.655
 7658POPC   NC328727   5.085  28.389   9.455
 7658POPC   PO428728   5.125  28.386   9.155
 7658POPC   GL128729   5.087  28.323   8.855
 7658POPC   GL228730   4.994  28.311   8.855
 7658POPC   C1A28731   5.108  28.408   8.555
 7658POPC   D2A28732   5.126  28.384   8.255
 7658POPC   C3A28733   5.083  28.340   7.955
 7658POPC   C4A28734   5.108  28.388   7.655
 7658POPC   C1B28735   4.849  28.281   8.555
 7658POPC   C2B28736   4.823  28.353   8.255
 7658POPC   C3B28737   4.854  28.303   7.955
 7658POPC   C4B28738   4.855  28.372   7.655
 7659POPC   NC328739  27.611   5.820   9.455
 7659POPC   PO428740  27.599   5.915   9.155
 7659POPC   GL128741  27.634   5.892   8.855
 7659POPC   GL228742  27.503   5.937   8.855
 7659POPC   C1A28743  27.634   5.903   8.555
 7659POPC   D2A28744  27.615   5.860   8.255
 7659POPC   C3A28745  27.587   5.886   7.955
 7659POPC   C4A28746  27.559   5.841   7.655
 7659POPC   C1B28747  27.412   5.957   8.555
 7659POPC   C2B28748  27.408   6.025   8.255
 7659POPC   C3B28749  27.389   6.039   7.955
 7659POPC   C4B28750  27.396   6.000   7.655
 7660POPC   NC328751  10.556  33.820   9.455
 7660POPC   PO428752  10.534  33.792   9.155
 7660POPC   GL128753  10.497  33.782   8.855
 7660POPC   GL228754  10.596  33.732   8.855
 7660POPC   C1A28755  10.531  33.753   8.555
 7660POPC   D2A28756  10.536  33.843   8.255
 7660POPC   C3A28757  10.563  33.816   7.955
 7660POPC   C4A28758  10.490  33.845   7.655
 7660POPC   C1B28759  10.656  33.571   8.555
 7660POPC   C2B28760  10.695  33.635   8.255
 7660POPC   C3B28761  10.629  33.589   7.955
 7660POPC   C4B28762  10.605  33.539   7.655
 7661POPC   NC328763   7.393  39.962   9.455
 7661POPC   PO428764   7.421  39.996   9.155
 7661POPC   GL128765   7.428  39.986   8.855
 7661POPC   GL228766   7.373  39.870   8.855
 7661POPC   C1A28767   7.450  40.022   8.555
 7661POPC   D2A28768   7.419  40.016   8.255
 7661POPC   C3A28769   7.463  39.965   7.955
 7661POPC   C4A28770   7.437  40.030   7.655
 7661POPC   C1B28771   7.273  39.831   8.555
 7661POPC   C2B28772   7.320  39.750   8.255
 7661POPC   C3B28773   7.300  39.771   7.955
 7661POPC   C4B28774   7.260  39.827   7.655
 7662POPC   NC328775  43.877  33.023   9.455
 7662POPC   PO428776  43.916  33.005   9.155
 7662POPC   GL128777  43.861  33.065   8.855
 7662POPC   GL228778  43.803  32.932   8.855
 7662POPC   C1A28779  43.849  33.071   8.555
 7662POPC   D2A28780  43.881  33.026   8.255
 7662POPC   C3A28781  43.864  32.976   7.955
 7662POPC   C4A28782  43.929  33.041   7.655
 7662POPC   C1B28783  43.647  32.827   8.555
 7662POPC   C2B28784  43.655  32.898   8.255
 7662POPC   C3B28785  43.708  32.902   7.955
 7662POPC   C4B28786  43.676  32.869   7.655
 7663POPC   NC328787  33.044  17.510   9.455
 7663POPC   PO428788  32.980  17.538   9.155
 7663POPC   GL128789  32.989  17.489   8.855
 7663POPC   GL228790  32.962  17.654   8.855
 7663POPC   C1A28791  33.049  17.523   8.555
 7663POPC   D2A28792  32.980  17.555   8.255
 7663POPC   C3A28793  33.060  17.490   7.955
 7663POPC   C4A28794  33.013  17.517   7.655
 7663POPC   C1B28795  32.877  17.754   8.555
 7663POPC   C2B28796  32.864  17.744   8.255
 7663POPC   C3B28797  32.850  17.672   7.955
 7663POPC   C4B28798  32.927  17.741   7.655
 7664POPC   NC328799  29.104   9.710   9.455
 7664POPC   PO428800  29.166   9.773   9.155
 7664POPC   GL128801  29.166   9.728   8.855
 7664POPC   GL228802  29.013   9.813   8.855
 7664POPC   C1A28803  29.180   9.753   8.555
 7664POPC   D2A28804  29.143   9.795   8.255
 7664POPC   C3A28805  29.100   9.744   7.955
 7664POPC   C4A28806  29.176   9.755   7.655
 7664POPC   C1B28807  28.955   9.881   8.555
 7664POPC   C2B28808  28.971   9.964   8.255
 7664POPC   C3B28809  28.940   9.935   7.955
 7664POPC   C4B28810  28.919   9.899   7.655
 7665POPC   NC328811  35.371  33.768   9.455
 7665POPC   PO428812  35.303  33.783   9.155
 7665POPC   GL128813  35.321  33.826   8.855
 7665POPC   GL228814  35.479  33.753   8.855
 7665POPC   C1A28815  35.402  33.828   8.555
 7665POPC   D2A28816  35.383  33.821   8.255
 7665POPC   C3A28817  35.382  33.850   7.955
 7665POPC   C4A28818  35.366  33.841   7.655
 7665POPC   C1B28819  35.535  33.671   8.555
 7665POPC   C2B28820  35.592  33.685   8.255
 7665POPC   C3B28821  35.520  33.607   7.955
 7665POPC   C4B28822  35.590  33.673   7.655
 7666POPC   NC328823   5.855  31.458   9.455
 7666POPC   PO428824   5.860  31.521   9.155
 7666POPC   GL128825   5.884  31.495   8.855
 7666POPC   GL228826   6.021  31.522   8.855
 7666POPC   C1A28827   5.838  31.509   8.555
 7666POPC   D2A28828   5.912  31.474   8.255
 7666POPC   C3A28829   5.862  31.500   7.955
 7666POPC   C4A28830   5.841  31.490   7.655
 7666POPC   C1B28831   6.119  31.498   8.555
 7666POPC   C2B28832   6.076  31.477   8.255
 7666POPC   C3B28833   6.152  31.527   7.955
 7666POPC   C4B28834   6.085  31.532   7.655
 7667POPC   NC328835  28.328  28.350   9.455
 7667POPC   PO428836  28.392  28.365   9.155
 7667POPC   GL128837  28.334  28.389   8.855
 7667POPC   GL228838  28.324  28.235   8.855
 7667POPC   C1A28839  28.364  28.328   8.555
 7667POPC   D2A28840  28.326  28.322   8.255
 7667POPC   C3A28841  28.382  28.409   7.955
 7667POPC   C4A28842  28.413  28.376   7.655
 7667POPC   C1B28843  28.193  28.165   8.555
 7667POPC   C2B28844  28.167  28.156   8.255
 7667POPC   C3B28845  28.159  28.153   7.955
 7667POPC   C4B28846  28.206  28.185   7.655
 7668POPC   NC328847  27.594  41.608   9.455
 7668POPC   PO428848  27.605  41.520   9.155
 7668POPC   GL128849  27.622  41.555   8.855
 7668POPC   GL228850  27.440  41.522   8.855
 7668POPC   C1A28851  27.572  41.515   8.555
 7668POPC   D2A28852  27.555  41.515   8.255
 7668POPC   C3A28853  27.610  41.595   7.955
 7668POPC   C4A28854  27.567  41.569   7.655
 7668POPC   C1B28855  27.356  41.612   8.555
 7668POPC   C2B28856  27.308  41.595   8.255
 7668POPC   C3B28857  27.345  41.553   7.955
 7668POPC   C4B28858  27.361  41.550   7.655
 7669POPC   NC328859  18.305   5.107   9.455
 7669POPC   PO428860  18.234   5.085   9.155
 7669POPC   GL128861  18.253   5.094   8.855
 7669POPC   GL228862  18.242   5.207   8.855
 7669POPC   C1A28863  18.252   5.077   8.555
 7669POPC   D2A28864  18.276   5.059   8.255
 7669POPC   C3A28865  18.269   5.111   7.955
 7669POPC   C4A28866  18.242   5.047   7.655
 7669POPC   C1B28867  18.095   5.278   8.555
 7669POPC   C2B28868  18.105   5.326   8.255
 7669POPC   C3B28869  18.099   5.275   7.955
 7669POPC   C4B28870  18.083   5.309   7.655
 7670POPC   NC328871  43.889  30.697   9.455
 7670POPC   PO428872  43.905  30.659   9.155
 7670POPC   GL128873  43.908  30.683   8.855
 7670POPC   GL228874  43.958  30.781   8.855
 7670POPC   C1A28875  43.873  30.662   8.555
 7670POPC   D2A28876  43.914  30.725   8.255
 7670POPC   C3A28877  43.875  30.696   7.955
 7670POPC   C4A28878  43.885  30.649   7.655
 7670POPC   C1B28879  44.169  30.775   8.555
 7670POPC   C2B28880  44.151  30.731   8.255
 7670POPC   C3B28881  44.098  30.775   7.955
 7670POPC   C4B28882  44.142  30.791   7.655
 7671POPC   NC328883   6.621   0.423   9.455
 7671POPC   PO428884   6.673   0.433   9.155
 7671POPC   GL128885   6.669   0.396   8.855
 7671POPC   GL228886   6.493   0.437   8.855
 7671POPC   C1A28887   6.595   0.467   8.555
 7671POPC   D2A28888   6.617   0.418   8.255
 7671POPC   C3A28889   6.653   0.423   7.955
 7671POPC   C4A28890   6.602   0.417   7.655
 7671POPC   C1B28891   6.430   0.398   8.555
 7671POPC   C2B28892   6.392   0.368   8.255
 7671POPC   C3B28893   6.396   0.410   7.955
 7671POPC   C4B28894   6.351   0.389   7.655
 7672POPC   NC328895   5.887  40.766   9.455
 7672POPC   PO428896   5.851  40.821   9.155
 7672POPC   GL128897   5.904  40.736   8.855
 7672POPC   GL228898   5.762  40.882   8.855
 7672POPC   C1A28899   5.857  40.770   8.555
 7672POPC   D2A28900   5.849  40.829   8.255
 7672POPC   C3A28901   5.864  40.776   7.955
 7672POPC   C4A28902   5.877  40.785   7.655
 7672POPC   C1B28903   5.708  40.960   8.555
 7672POPC   C2B28904   5.660  41.021   8.255
 7672POPC   C3B28905   5.701  41.019   7.955
 7672POPC   C4B28906   5.738  41.021   7.655
 7673POPC   NC328907  28.403  23.760   9.455
 7673POPC   PO428908  28.366  23.729   9.155
 7673POPC   GL128909  28.398  23.739   8.855
 7673POPC   GL228910  28.360  23.840   8.855
 7673POPC   C1A28911  28.352  23.726   8.555
 7673POPC   D2A28912  28.358  23.677   8.255
 7673POPC   C3A28913  28.353  23.714   7.955
 7673POPC   C4A28914  28.319  23.709   7.655
 7673POPC   C1B28915  28.332  24.001   8.555
 7673POPC   C2B28916  28.258  23.912   8.255
 7673POPC   C3B28917  28.260  23.905   7.955
 7673POPC   C4B28918  28.294  23.966   7.655
 7674POPC   NC328919  42.362   3.547   9.455
 7674POPC   PO428920  42.340   3.577   9.155
 7674POPC   GL128921  42.343   3.587   8.855
 7674POPC   GL228922  42.167   3.570   8.855
 7674POPC   C1A28923  42.333   3.566   8.555
 7674POPC   D2A28924  42.286   3.575   8.255
 7674POPC   C3A28925  42.318   3.540   7.955
 7674POPC   C4A28926  42.303   3.522   7.655
 7674POPC   C1B28927  42.055   3.658   8.555
 7674POPC   C2B28928  42.114   3.667   8.255
 7674POPC   C3B28929  42.083   3.620   7.955
 7674POPC   C4B28930  42.113   3.597   7.655
 7675POPC   NC328931   2.746  43.916   9.455
 7675POPC   PO428932   2.789  43.867   9.155
 7675POPC   GL128933   2.722  43.869   8.855
 7675POPC   GL228934   2.832  43.942   8.855
 7675POPC   C1A28935   2.744  43.870   8.555
 7675POPC   D2A28936   2.782  43.897   8.255
 7675POPC   C3A28937   2.797  43.932   7.955
 7675POPC   C4A28938   2.792  43.913   7.655
 7675POPC   C1B28939   2.937  44.039   8.555
 7675POPC   C2B28940   2.895  44.075   8.255
 7675POPC   C3B28941   2.981  44.042   7.955
 7675POPC   C4B28942   2.941  44.114   7.655
 7676POPC   NC328943  29.894   2.787   9.455
 7676POPC   PO428944  29.942   2.744   9.155
 7676POPC   GL128945  29.947   2.769   8.855
 7676POPC   GL228946  29.988   2.808   8.855
 7676POPC   C1A28947  29.886   2.720   8.555
 7676POPC   D2A28948  29.872   2.792   8.255
 7676POPC   C3A28949  29.960   2.748   7.955
 7676POPC   C4A28950  29.933   2.764   7.655
 7676POPC   C1B28951  30.147   2.862   8.555
 7676POPC   C2B28952  30.096   2.869   8.255
 7676POPC   C3B28953  30.143   2.917   7.955
 7676POPC   C4B28954  30.168   2.877   7.655
 7677POPC   NC328955  38.455  33.030   9.455
 7677POPC   PO428956  38.447  32.996   9.155
 7677POPC   GL128957  38.481  33.061   8.855
 7677POPC   GL228958  38.415  33.151   8.855
 7677POPC   C1A28959  38.497  32.986   8.555
 7677POPC   D2A28960  38.483  33.067   8.255
 7677POPC   C3A28961  38.496  33.006   7.955
 7677POPC   C4A28962  38.409  33.058   7.655
 7677POPC   C1B28963  38.330  33.277   8.555
 7677POPC   C2B28964  38.360  33.288   8.255
 7677POPC   C3B28965  38.291  33.239   7.955
 7677POPC   C4B28966  38.301  33.280   7.655
 7678POPC   NC328967   3.544  20.604   9.455
 7678POPC   PO428968   3.555  20.631   9.155
 7678POPC   GL128969   3.509  20.566   8.855
 7678POPC   GL228970   3.623  20.633   8.855
 7678POPC   C1A28971   3.499  20.639   8.555
 7678POPC   D2A28972   3.577  20.645   8.255
 7678POPC   C3A28973   3.590  20.624   7.955
 7678POPC   C4A28974   3.569  20.654   7.655
 7678POPC   C1B28975   3.797  20.626   8.555
 7678POPC   C2B28976   3.764  20.667   8.255
 7678POPC   C3B28977   3.783  20.623   7.955
 7678POPC   C4B28978   3.785  20.627   7.655
 7679POPC   NC328979  15.175  44.651   9.455
 7679POPC   PO428980  15.209  44.625   9.155
 7679POPC   GL128981  15.157  44.617   8.855
 7679POPC   GL228982  15.035  44.642   8.855
 7679POPC   C1A28983  15.213  44.654   8.555
 7679POPC   D2A28984  15.200  44.707   8.255
 7679POPC   C3A28985  15.226  44.617   7.955
 7679POPC   C4A28986  15.205  44.680   7.655
 7679POPC   C1B28987  14.997  44.584   8.555
 7679POPC   C2B28988  14.973  44.529   8.255
 7679POPC   C3B28989  14.955  44.573   7.955
 7679POPC   C4B28990  14.944  44.601   7.655
 7680POPC   NC328991  44.630   2.760   9.455
 7680POPC   PO428992  44.692   2.743   9.155
 7680POPC   GL128993  44.683   2.798   8.855
 7680POPC   GL228994  44.834   2.736   8.855
 7680POPC   C1A28995  44.648   2.737   8.555
 7680POPC   D2A28996  44.628   2.772   8.255
 7680POPC   C3A28997  44.613   2.772   7.955
 7680POPC   C4A28998  44.674   2.784   7.655
 7680POPC   C1B28999  44.919   2.790   8.555
 7680POPC   C2B29000  44.959   2.783   8.255
 7680POPC   C3B29001  44.926   2.769   7.955
 7680POPC   C4B29002  44.927   2.760   7.655
 7681POPC   NC329003  10.513  19.017   9.455
 7681POPC   PO429004  10.479  19.095   9.155
 7681POPC   GL129005  10.486  19.044   8.855
 7681POPC   GL229006  10.571  18.968   8.855
 7681POPC   C1A29007  10.498  19.071   8.555
 7681POPC   D2A29008  10.485  19.028   8.255
 7681POPC   C3A29009  10.534  19.019   7.955
 7681POPC   C4A29010  10.562  19.010   7.655
 7681POPC   C1B29011  10.673  18.839   8.555
 7681POPC   C2B29012  10.669  18.864   8.255
 7681POPC   C3B29013  10.656  18.814   7.955
 7681POPC   C4B29014  10.689  18.819   7.655
 7682POPC   NC329015  44.708   1.956   9.455
 7682POPC   PO429016  44.703   1.986   9.155
 7682POPC   GL129017  44.704   1.951   8.855
 7682POPC   GL229018  44.785   2.077   8.855
 7682POPC   C1A29019  44.669   1.964   8.555
 7682POPC   D2A29020  44.700   2.009   8.255
 7682POPC   C3A29021  44.697   1.954   7.955
 7682POPC   C4A29022  44.638   1.946   7.655
 7682POPC   C1B29023  44.923   2.088   8.555
 7682POPC   C2B29024  44.940   2.127   8.255
 7682POPC   C3B29025  44.844   2.091   7.955
 7682POPC   C4B29026  44.894   2.051   7.655
 7683POPC   NC329027  29.097  15.915   9.455
 7683POPC   PO429028  29.180  15.930   9.155
 7683POPC   GL129029  29.171  15.970   8.855
 7683POPC   GL229030  29.240  15.956   8.855
 7683POPC   C1A29031  29.107  15.925   8.555
 7683POPC   D2A29032  29.167  15.917   8.255
 7683POPC   C3A29033  29.145  15.955   7.955
 7683POPC   C4A29034  29.179  16.001   7.655
 7683POPC   C1B29035  29.358  15.891   8.555
 7683POPC   C2B29036  29.355  15.870   8.255
 7683POPC   C3B29037  29.335  15.886   7.955
 7683POPC   C4B29038  29.400  15.892   7.655
 7684POPC   NC329039  31.509   5.831   9.455
 7684POPC   PO429040  31.432   5.900   9.155
 7684POPC   GL129041  31.517   5.863   8.855
 7684POPC   GL229042  31.330   5.768   8.855
 7684POPC   C1A29043  31.424   5.859   8.555
 7684POPC   D2A29044  31.482   5.834   8.255
 7684POPC   C3A29045  31.496   5.835   7.955
 7684POPC   C4A29046  31.429   5.906   7.655
 7684POPC   C1B29047  31.251   5.723   8.555
 7684POPC   C2B29048  31.248   5.740   8.255
 7684POPC   C3B29049  31.238   5.684   7.955
 7684POPC   C4B29050  31.294   5.661   7.655
 7685POPC   NC329051  17.507  43.068   9.455
 7685POPC   PO429052  17.490  43.100   9.155
 7685POPC   GL129053  17.525  43.127   8.855
 7685POPC   GL229054  17.638  43.066   8.855
 7685POPC   C1A29055  17.514  43.094   8.555
 7685POPC   D2A29056  17.525  43.086   8.255
 7685POPC   C3A29057  17.465  43.082   7.955
 7685POPC   C4A29058  17.545  43.108   7.655
 7685POPC   C1B29059  17.716  43.071   8.555
 7685POPC   C2B29060  17.698  43.045   8.255
 7685POPC   C3B29061  17.777  43.050   7.955
 7685POPC   C4B29062  17.725  42.988   7.655
 7686POPC   NC329063  34.556  19.791   9.455
 7686POPC   PO429064  34.561  19.877   9.155
 7686POPC   GL129065  34.594  19.849   8.855
 7686POPC   GL229066  34.702  19.850   8.855
 7686POPC   C1A29067  34.569  19.832   8.555
 7686POPC   D2A29068  34.594  19.840   8.255
 7686POPC   C3A29069  34.556  19.858   7.955
 7686POPC   C4A29070  34.551  19.827   7.655
 7686POPC   C1B29071  34.848  19.789   8.555
 7686POPC   C2B29072  34.801  19.819   8.255
 7686POPC   C3B29073  34.801  19.762   7.955
 7686POPC   C4B29074  34.771  19.738   7.655
 7687POPC   NC329075   5.912  29.920   9.455
 7687POPC   PO429076   5.908  29.872   9.155
 7687POPC   GL129077   5.850  29.937   8.855
 7687POPC   GL229078   5.785  29.880   8.855
 7687POPC   C1A29079   5.879  29.907   8.555
 7687POPC   D2A29080   5.885  29.886   8.255
 7687POPC   C3A29081   5.905  29.948   7.955
 7687POPC   C4A29082   5.910  29.955   7.655
 7687POPC   C1B29083   5.663  29.765   8.555
 7687POPC   C2B29084   5.614  29.838   8.255
 7687POPC   C3B29085   5.655  29.787   7.955
 7687POPC   C4B29086   5.611  29.789   7.655
 7688POPC   NC329087  22.119  29.934   9.455
 7688POPC   PO429088  22.120  29.946   9.155
 7688POPC   GL129089  22.135  29.895   8.855
 7688POPC   GL229090  22.197  30.072   8.855
 7688POPC   C1A29091  22.210  29.959   8.555
 7688POPC   D2A29092  22.198  29.964   8.255
 7688POPC   C3A29093  22.187  29.894   7.955
 7688POPC   C4A29094  22.201  29.945   7.655
 7688POPC   C1B29095  22.292  30.109   8.555
 7688POPC   C2B29096  22.273  30.180   8.255
 7688POPC   C3B29097  22.230  30.119   7.955
 7688POPC   C4B29098  22.268  30.102   7.655
 7689POPC   NC329099  12.820  42.327   9.455
 7689POPC   PO429100  12.865  42.375   9.155
 7689POPC   GL129101  12.823  42.314   8.855
 7689POPC   GL229102  12.888  42.473   8.855
 7689POPC   C1A29103  12.891  42.354   8.555
 7689POPC   D2A29104  12.898  42.361   8.255
 7689POPC   C3A29105  12.813  42.354   7.955
 7689POPC   C4A29106  12.823  42.305   7.655
 7689POPC   C1B29107  12.904  42.570   8.555
 7689POPC   C2B29108  12.910  42.598   8.255
 7689POPC   C3B29109  12.889  42.538   7.955
 7689POPC   C4B29110  12.905  42.598   7.655
 7690POPC   NC329111  37.709  24.516   9.455
 7690POPC   PO429112  37.687  24.537   9.155
 7690POPC   GL129113  37.651  24.504   8.855
 7690POPC   GL229114  37.522  24.426   8.855
 7690POPC   C1A29115  37.646  24.499   8.555
 7690POPC   D2A29116  37.719  24.537   8.255
 7690POPC   C3A29117  37.673  24.538   7.955
 7690POPC   C4A29118  37.658  24.501   7.655
 7690POPC   C1B29119  37.388  24.496   8.555
 7690POPC   C2B29120  37.383  24.465   8.255
 7690POPC   C3B29121  37.393  24.438   7.955
 7690POPC   C4B29122  37.457  24.436   7.655
 7691POPC   NC329123  37.649  34.528   9.455
 7691POPC   PO429124  37.703  34.561   9.155
 7691POPC   GL129125  37.716  34.569   8.855
 7691POPC   GL229126  37.832  34.651   8.855
 7691POPC   C1A29127  37.647  34.576   8.555
 7691POPC   D2A29128  37.692  34.616   8.255
 7691POPC   C3A29129  37.657  34.544   7.955
 7691POPC   C4A29130  37.650  34.617   7.655
 7691POPC   C1B29131  37.958  34.637   8.555
 7691POPC   C2B29132  37.878  34.624   8.255
 7691POPC   C3B29133  37.957  34.628   7.955
 7691POPC   C4B29134  37.899  34.677   7.655
 7692POPC   NC329135  36.882  28.326   9.455
 7692POPC   PO429136  36.922  28.412   9.155
 7692POPC   GL129137  36.923  28.391   8.855
 7692POPC   GL229138  36.845  28.531   8.855
 7692POPC   C1A29139  36.880  28.328   8.555
 7692POPC   D2A29140  36.953  28.416   8.255
 7692POPC   C3A29141  36.887  28.383   7.955
 7692POPC   C4A29142  36.944  28.387   7.655
 7692POPC   C1B29143  36.795  28.636   8.555
 7692POPC   C2B29144  36.869  28.604   8.255
 7692POPC   C3B29145  36.861  28.623   7.955
 7692POPC   C4B29146  36.821  28.571   7.655
 7693POPC   NC329147  43.932   1.990   9.455
 7693POPC   PO429148  43.932   1.946   9.155
 7693POPC   GL129149  43.900   2.021   8.855
 7693POPC   GL229150  43.814   2.069   8.855
 7693POPC   C1A29151  43.856   2.007   8.555
 7693POPC   D2A29152  43.921   1.980   8.255
 7693POPC   C3A29153  43.869   1.963   7.955
 7693POPC   C4A29154  43.887   2.027   7.655
 7693POPC   C1B29155  43.798   2.191   8.555
 7693POPC   C2B29156  43.803   2.242   8.255
 7693POPC   C3B29157  43.786   2.183   7.955
 7693POPC   C4B29158  43.808   2.237   7.655
 7694POPC   NC329159  20.638  43.075   9.455
 7694POPC   PO429160  20.655  43.089   9.155
 7694POPC   GL129161  20.579  43.083   8.855
 7694POPC   GL229162  20.662  42.970   8.855
 7694POPC   C1A29163  20.578  43.116   8.555
 7694POPC   D2A29164  20.639  43.092   8.255
 7694POPC   C3A29165  20.568  43.127   7.955
 7694POPC   C4A29166  20.586  43.103   7.655
 7694POPC   C1B29167  20.811  42.910   8.555
 7694POPC   C2B29168  20.778  42.909   8.255
 7694POPC   C3B29169  20.780  42.924   7.955
 7694POPC   C4B29170  20.777  42.966   7.655
 7695POPC   NC329171  37.694  12.893   9.455
 7695POPC   PO429172  37.686  12.819   9.155
 7695POPC   GL129173  37.672  12.863   8.855
 7695POPC   GL229174  37.758  12.812   8.855
 7695POPC   C1A29175  37.712  12.890   8.555
 7695POPC   D2A29176  37.716  12.857   8.255
 7695POPC   C3A29177  37.647  12.849   7.955
 7695POPC   C4A29178  37.711  12.839   7.655
 7695POPC   C1B29179  37.880  12.804   8.555
 7695POPC   C2B29180  37.945  12.795   8.255
 7695POPC   C3B29181  37.952  12.885   7.955
 7695POPC   C4B29182  37.905  12.833   7.655
 7696POPC   NC329183  31.446  43.150   9.455
 7696POPC   PO429184  31.479  43.124   9.155
 7696POPC   GL129185  31.458  43.096   8.855
 7696POPC   GL229186  31.347  43.139   8.855
 7696POPC   C1A29187  31.459  43.068   8.555
 7696POPC   D2A29188  31.522  43.124   8.255
 7696POPC   C3A29189  31.438  43.142   7.955
 7696POPC   C4A29190  31.441  43.133   7.655
 7696POPC   C1B29191  31.293  43.285   8.555
 7696POPC   C2B29192  31.268  43.222   8.255
 7696POPC   C3B29193  31.244  43.256   7.955
 7696POPC   C4B29194  31.253  43.290   7.655
 7697POPC   NC329195   7.449  36.148   9.455
 7697POPC   PO429196   7.386  36.139   9.155
 7697POPC   GL129197   7.421  36.155   8.855
 7697POPC   GL229198   7.436  36.045   8.855
 7697POPC   C1A29199   7.372  36.112   8.555
 7697POPC   D2A29200   7.421  36.117   8.255
 7697POPC   C3A29201   7.464  36.104   7.955
 7697POPC   C4A29202   7.396  36.164   7.655
 7697POPC   C1B29203   7.405  35.876   8.555
 7697POPC   C2B29204   7.336  35.909   8.255
 7697POPC   C3B29205   7.369  35.912   7.955
 7697POPC   C4B29206   7.359  35.908   7.655
 7698POPC   NC329207  33.777  30.720   9.455
 7698POPC   PO429208  33.832  30.661   9.155
 7698POPC   GL129209  33.775  30.654   8.855
 7698POPC   GL229210  33.936  30.644   8.855
 7698POPC   C1A29211  33.845  30.666   8.555
 7698POPC   D2A29212  33.810  30.673   8.255
 7698POPC   C3A29213  33.832  30.674   7.955
 7698POPC   C4A29214  33.778  30.663   7.655
 7698POPC   C1B29215  34.015  30.611   8.555
 7698POPC   C2B29216  34.004  30.595   8.255
 7698POPC   C3B29217  34.039  30.637   7.955
 7698POPC   C4B29218  33.992  30.625   7.655
 7699POPC   NC329219   9.721  20.596   9.455
 7699POPC   PO429220   9.760  20.570   9.155
 7699POPC   GL129221   9.721  20.601   8.855
 7699POPC   GL229222   9.896  20.688   8.855
 7699POPC   C1A29223   9.792  20.579   8.555
 7699POPC   D2A29224   9.714  20.587   8.255
 7699POPC   C3A29225   9.791  20.598   7.955
 7699POPC   C4A29226   9.717  20.606   7.655
 7699POPC   C1B29227  10.015  20.754   8.555
 7699POPC   C2B29228   9.952  20.704   8.255
 7699POPC   C3B29229   9.998  20.744   7.955
 7699POPC   C4B29230   9.972  20.744   7.655
 7700POPC   NC329231  14.394  13.654   9.455
 7700POPC   PO429232  14.394  13.607   9.155
 7700POPC   GL129233  14.427  13.621   8.855
 7700POPC   GL229234  14.417  13.765   8.855
 7700POPC   C1A29235  14.390  13.613   8.555
 7700POPC   D2A29236  14.367  13.669   8.255
 7700POPC   C3A29237  14.423  13.650   7.955
 7700POPC   C4A29238  14.398  13.616   7.655
 7700POPC   C1B29239  14.454  13.867   8.555
 7700POPC   C2B29240  14.447  13.891   8.255
 7700POPC   C3B29241  14.406  13.921   7.955
 7700POPC   C4B29242  14.451  13.847   7.655
 7701POPC   NC329243  30.690  42.359   9.455
 7701POPC   PO429244  30.718  42.305   9.155
 7701POPC   GL129245  30.697  42.311   8.855
 7701POPC   GL229246  30.769  42.260   8.855
 7701POPC   C1A29247  30.723  42.358   8.555
 7701POPC   D2A29248  30.704  42.317   8.255
 7701POPC   C3A29249  30.718  42.310   7.955
 7701POPC   C4A29250  30.672  42.374   7.655
 7701POPC   C1B29251  30.873  42.158   8.555
 7701POPC   C2B29252  30.937  42.231   8.255
 7701POPC   C3B29253  30.901  42.222   7.955
 7701POPC   C4B29254  30.954  42.217   7.655
 7702POPC   NC329255  40.018   5.864   9.455
 7702POPC   PO429256  39.976   5.899   9.155
 7702POPC   GL129257  40.010   5.840   8.855
 7702POPC   GL229258  40.056   5.792   8.855
 7702POPC   C1A29259  39.996   5.877   8.555
 7702POPC   D2A29260  39.991   5.887   8.255
 7702POPC   C3A29261  40.007   5.907   7.955
 7702POPC   C4A29262  39.965   5.852   7.655
 7702POPC   C1B29263  40.233   5.667   8.555
 7702POPC   C2B29264  40.247   5.754   8.255
 7702POPC   C3B29265  40.207   5.740   7.955
 7702POPC   C4B29266  40.197   5.714   7.655
 7703POPC   NC329267   8.928  15.182   9.455
 7703POPC   PO429268   9.011  15.224   9.155
 7703POPC   GL129269   8.967  15.154   8.855
 7703POPC   GL229270   9.097  15.248   8.855
 7703POPC   C1A29271   8.926  15.178   8.555
 7703POPC   D2A29272   9.007  15.159   8.255
 7703POPC   C3A29273   8.969  15.225   7.955
 7703POPC   C4A29274   8.974  15.176   7.655
 7703POPC   C1B29275   9.211  15.213   8.555
 7703POPC   C2B29276   9.173  15.236   8.255
 7703POPC   C3B29277   9.190  15.299   7.955
 7703POPC   C4B29278   9.195  15.311   7.655
 7704POPC   NC329279  29.873   6.654   9.455
 7704POPC   PO429280  29.955   6.667   9.155
 7704POPC   GL129281  29.920   6.677   8.855
 7704POPC   GL229282  30.022   6.608   8.855
 7704POPC   C1A29283  29.954   6.619   8.555
 7704POPC   D2A29284  29.885   6.655   8.255
 7704POPC   C3A29285  29.875   6.632   7.955
 7704POPC   C4A29286  29.916   6.648   7.655
 7704POPC   C1B29287  30.165   6.620   8.555
 7704POPC   C2B29288  30.179   6.658   8.255
 7704POPC   C3B29289  30.219   6.691   7.955
 7704POPC   C4B29290  30.140   6.603   7.655
 7705POPC   NC329291  12.075  17.491   9.455
 7705POPC   PO429292  12.103  17.477   9.155
 7705POPC   GL129293  12.125  17.476   8.855
 7705POPC   GL229294  12.181  17.511   8.855
 7705POPC   C1A29295  12.117  17.539   8.555
 7705POPC   D2A29296  12.054  17.487   8.255
 7705POPC   C3A29297  12.070  17.545   7.955
 7705POPC   C4A29298  12.105  17.532   7.655
 7705POPC   C1B29299  12.286  17.458   8.555
 7705POPC   C2B29300  12.352  17.467   8.255
 7705POPC   C3B29301  12.269  17.458   7.955
 7705POPC   C4B29302  12.290  17.466   7.655
 7706POPC   NC329303  12.813  19.041   9.455
 7706POPC   PO429304  12.854  19.037   9.155
 7706POPC   GL129305  12.866  19.084   8.855
 7706POPC   GL229306  12.970  19.134   8.855
 7706POPC   C1A29307  12.827  19.039   8.555
 7706POPC   D2A29308  12.814  19.081   8.255
 7706POPC   C3A29309  12.851  19.069   7.955
 7706POPC   C4A29310  12.807  19.062   7.655
 7706POPC   C1B29311  13.063  19.197   8.555
 7706POPC   C2B29312  13.030  19.156   8.255
 7706POPC   C3B29313  13.079  19.212   7.955
 7706POPC   C4B29314  13.074  19.239   7.655
 7707POPC   NC329315   2.803  17.482   9.455
 7707POPC   PO429316   2.785  17.463   9.155
 7707POPC   GL129317   2.753  17.529   8.855
 7707POPC   GL229318   2.796  17.386   8.855
 7707POPC   C1A29319   2.798  17.529   8.555
 7707POPC   D2A29320   2.739  17.502   8.255
 7707POPC   C3A29321   2.801  17.546   7.955
 7707POPC   C4A29322   2.745  17.525   7.655
 7707POPC   C1B29323   2.952  17.291   8.555
 7707POPC   C2B29324   2.885  17.297   8.255
 7707POPC   C3B29325   2.877  17.301   7.955
 7707POPC   C4B29326   2.908  17.337   7.655
 7708POPC   NC329327  33.029  44.698   9.455
 7708POPC   PO429328  33.015  44.691   9.155
 7708POPC   GL129329  33.045  44.700   8.855
 7708POPC   GL229330  32.938  44.761   8.855
 7708POPC   C1A29331  33.013  44.687   8.555
 7708POPC   D2A29332  32.975  44.689   8.255
 7708POPC   C3A29333  33.059  44.655   7.955
 7708POPC   C4A29334  33.068  44.630   7.655
 7708POPC   C1B29335  32.857  44.801   8.555
 7708POPC   C2B29336  32.842  44.772   8.255
 7708POPC   C3B29337  32.849  44.829   7.955
 7708POPC   C4B29338  32.823  44.821   7.655
 7709POPC   NC329339  26.831  29.113   9.455
 7709POPC   PO429340  26.866  29.158   9.155
 7709POPC   GL129341  26.862  29.181   8.855
 7709POPC   GL229342  26.744  29.188   8.855
 7709POPC   C1A29343  26.841  29.189   8.555
 7709POPC   D2A29344  26.838  29.186   8.255
 7709POPC   C3A29345  26.839  29.114   7.955
 7709POPC   C4A29346  26.805  29.123   7.655
 7709POPC   C1B29347  26.657  29.250   8.555
 7709POPC   C2B29348  26.626  29.323   8.255
 7709POPC   C3B29349  26.588  29.291   7.955
 7709POPC   C4B29350  26.654  29.294   7.655
 7710POPC   NC329351  12.897  22.174   9.455
 7710POPC   PO429352  12.833  22.175   9.155
 7710POPC   GL129353  12.874  22.136   8.855
 7710POPC   GL229354  12.839  22.039   8.855
 7710POPC   C1A29355  12.809  22.120   8.555
 7710POPC   D2A29356  12.890  22.161   8.255
 7710POPC   C3A29357  12.834  22.147   7.955
 7710POPC   C4A29358  12.856  22.120   7.655
 7710POPC   C1B29359  12.866  21.865   8.555
 7710POPC   C2B29360  12.795  21.958   8.255
 7710POPC   C3B29361  12.866  21.962   7.955
 7710POPC   C4B29362  12.845  21.921   7.655
 7711POPC   NC329363  43.141  36.108   9.455
 7711POPC   PO429364  43.084  36.083   9.155
 7711POPC   GL129365  43.150  36.080   8.855
 7711POPC   GL229366  42.962  36.076   8.855
 7711POPC   C1A29367  43.102  36.116   8.555
 7711POPC   D2A29368  43.082  36.172   8.255
 7711POPC   C3A29369  43.132  36.174   7.955
 7711POPC   C4A29370  43.099  36.137   7.655
 7711POPC   C1B29371  42.840  36.149   8.555
 7711POPC   C2B29372  42.820  36.148   8.255
 7711POPC   C3B29373  42.820  36.145   7.955
 7711POPC   C4B29374  42.896  36.135   7.655
 7712POPC   NC329375  29.192  37.726   9.455
 7712POPC   PO429376  29.157  37.645   9.155
 7712POPC   GL129377  29.144  37.634   8.855
 7712POPC   GL229378  28.980  37.643   8.855
 7712POPC   C1A29379  29.103  37.711   8.555
 7712POPC   D2A29380  29.105  37.634   8.255
 7712POPC   C3A29381  29.157  37.645   7.955
 7712POPC   C4A29382  29.152  37.642   7.655
 7712POPC   C1B29383  28.894  37.556   8.555
 7712POPC   C2B29384  28.914  37.566   8.255
 7712POPC   C3B29385  28.930  37.551   7.955
 7712POPC   C4B29386  28.929  37.556   7.655
 7713POPC   NC329387  36.090  33.002   9.455
 7713POPC   PO429388  36.115  33.040   9.155
 7713POPC   GL129389  36.160  33.025   8.855
 7713POPC   GL229390  36.168  33.101   8.855
 7713POPC   C1A29391  36.159  33.033   8.555
 7713POPC   D2A29392  36.157  32.995   8.255
 7713POPC   C3A29393  36.085  33.009   7.955
 7713POPC   C4A29394  36.084  32.983   7.655
 7713POPC   C1B29395  36.178  33.310   8.555
 7713POPC   C2B29396  36.166  33.321   8.255
 7713POPC   C3B29397  36.110  33.308   7.955
 7713POPC   C4B29398  36.185  33.257   7.655
 7714POPC   NC329399   5.891  36.864   9.455
 7714POPC   PO429400   5.892  36.921   9.155
 7714POPC   GL129401   5.832  36.909   8.855
 7714POPC   GL229402   5.786  36.929   8.855
 7714POPC   C1A29403   5.881  36.901   8.555
 7714POPC   D2A29404   5.873  36.894   8.255
 7714POPC   C3A29405   5.885  36.939   7.955
 7714POPC   C4A29406   5.873  36.876   7.655
 7714POPC   C1B29407   5.600  36.996   8.555
 7714POPC   C2B29408   5.640  37.013   8.255
 7714POPC   C3B29409   5.606  37.060   7.955
 7714POPC   C4B29410   5.691  37.053   7.655
 7715POPC   NC329411   1.957  38.484   9.455
 7715POPC   PO429412   1.997  38.436   9.155
 7715POPC   GL129413   1.972  38.481   8.855
 7715POPC   GL229414   1.998  38.594   8.855
 7715POPC   C1A29415   1.976  38.442   8.555
 7715POPC   D2A29416   1.953  38.444   8.255
 7715POPC   C3A29417   2.034  38.470   7.955
 7715POPC   C4A29418   1.978  38.454   7.655
 7715POPC   C1B29419   1.975  38.668   8.555
 7715POPC   C2B29420   1.948  38.753   8.255
 7715POPC   C3B29421   1.997  38.740   7.955
 7715POPC   C4B29422   1.975  38.689   7.655
 7716POPC   NC329423  15.214  23.716   9.455
 7716POPC   PO429424  15.193  23.715   9.155
 7716POPC   GL129425  15.218  23.701   8.855
 7716POPC   GL229426  15.309  23.823   8.855
 7716POPC   C1A29427  15.129  23.742   8.555
 7716POPC   D2A29428  15.135  23.717   8.255
 7716POPC   C3A29429  15.137  23.752   7.955
 7716POPC   C4A29430  15.172  23.729   7.655
 7716POPC   C1B29431  15.414  23.897   8.555
 7716POPC   C2B29432  15.428  23.895   8.255
 7716POPC   C3B29433  15.406  23.882   7.955
 7716POPC   C4B29434  15.377  23.881   7.655
 7717POPC   NC329435  24.514  20.592   9.455
 7717POPC   PO429436  24.514  20.641   9.155
 7717POPC   GL129437  24.518  20.634   8.855
 7717POPC   GL229438  24.619  20.674   8.855
 7717POPC   C1A29439  24.510  20.638   8.555
 7717POPC   D2A29440  24.485  20.640   8.255
 7717POPC   C3A29441  24.450  20.632   7.955
 7717POPC   C4A29442  24.505  20.608   7.655
 7717POPC   C1B29443  24.674  20.803   8.555
 7717POPC   C2B29444  24.654  20.776   8.255
 7717POPC   C3B29445  24.667  20.750   7.955
 7717POPC   C4B29446  24.705  20.766   7.655
 7718POPC   NC329447  43.894   6.642   9.455
 7718POPC   PO429448  43.862   6.604   9.155
 7718POPC   GL129449  43.860   6.596   8.855
 7718POPC   GL229450  43.884   6.735   8.855
 7718POPC   C1A29451  43.904   6.636   8.555
 7718POPC   D2A29452  43.869   6.621   8.255
 7718POPC   C3A29453  43.905   6.688   7.955
 7718POPC   C4A29454  43.841   6.660   7.655
 7718POPC   C1B29455  43.885   6.849   8.555
 7718POPC   C2B29456  43.915   6.941   8.255
 7718POPC   C3B29457  43.921   6.894   7.955
 7718POPC   C4B29458  43.890   6.882   7.655
 7719POPC   NC329459  29.183  36.934   9.455
 7719POPC   PO429460  29.101  36.866   9.155
 7719POPC   GL129461  29.169  36.914   8.855
 7719POPC   GL229462  29.204  36.804   8.855
 7719POPC   C1A29463  29.136  36.941   8.555
 7719POPC   D2A29464  29.184  36.909   8.255
 7719POPC   C3A29465  29.097  36.906   7.955
 7719POPC   C4A29466  29.185  36.875   7.655
 7719POPC   C1B29467  29.202  36.701   8.555
 7719POPC   C2B29468  29.209  36.691   8.255
 7719POPC   C3B29469  29.202  36.713   7.955
 7719POPC   C4B29470  29.204  36.712   7.655
 7720POPC   NC329471   2.728  12.071   9.455
 7720POPC   PO429472   2.725  12.093   9.155
 7720POPC   GL129473   2.799  12.059   8.855
 7720POPC   GL229474   2.681  12.174   8.855
 7720POPC   C1A29475   2.724  12.080   8.555
 7720POPC   D2A29476   2.753  12.111   8.255
 7720POPC   C3A29477   2.770  12.090   7.955
 7720POPC   C4A29478   2.766  12.084   7.655
 7720POPC   C1B29479   2.622  12.319   8.555
 7720POPC   C2B29480   2.701  12.318   8.255
 7720POPC   C3B29481   2.653  12.350   7.955
 7720POPC   C4B29482   2.709  12.268   7.655
 7721POPC   NC329483  20.592  43.887   9.455
 7721POPC   PO429484  20.596  43.906   9.155
 7721POPC   GL129485  20.562  43.887   8.855
 7721POPC   GL229486  20.525  43.948   8.855
 7721POPC   C1A29487  20.568  43.931   8.555
 7721POPC   D2A29488  20.562  43.844   8.255
 7721POPC   C3A29489  20.591  43.858   7.955
 7721POPC   C4A29490  20.585  43.929   7.655
 7721POPC   C1B29491  20.406  43.991   8.555
 7721POPC   C2B29492  20.368  43.938   8.255
 7721POPC   C3B29493  20.368  43.976   7.955
 7721POPC   C4B29494  20.334  43.937   7.655
 7722POPC   NC329495  14.451   2.750   9.455
 7722POPC   PO429496  14.442   2.808   9.155
 7722POPC   GL129497  14.433   2.779   8.855
 7722POPC   GL229498  14.544   2.683   8.855
 7722POPC   C1A29499  14.410   2.736   8.555
 7722POPC   D2A29500  14.394   2.737   8.255
 7722POPC   C3A29501  14.416   2.783   7.955
 7722POPC   C4A29502  14.393   2.730   7.655
 7722POPC   C1B29503  14.635   2.664   8.555
 7722POPC   C2B29504  14.645   2.623   8.255
 7722POPC   C3B29505  14.589   2.640   7.955
 7722POPC   C4B29506  14.619   2.632   7.655
 7723POPC   NC329507  38.413  30.738   9.455
 7723POPC   PO429508  38.441  30.709   9.155
 7723POPC   GL129509  38.439  30.681   8.855
 7723POPC   GL229510  38.407  30.623   8.855
 7723POPC   C1A29511  38.480  30.738   8.555
 7723POPC   D2A29512  38.486  30.665   8.255
 7723POPC   C3A29513  38.491  30.703   7.955
 7723POPC   C4A29514  38.465  30.729   7.655
 7723POPC   C1B29515  38.223  30.497   8.555
 7723POPC   C2B29516  38.318  30.489   8.255
 7723POPC   C3B29517  38.266  30.575   7.955
 7723POPC   C4B29518  38.282  30.539   7.655
 7724POPC   NC329519  35.303  34.600   9.455
 7724POPC   PO429520  35.365  34.617   9.155
 7724POPC   GL129521  35.392  34.593   8.855
 7724POPC   GL229522  35.370  34.667   8.855
 7724POPC   C1A29523  35.394  34.562   8.555
 7724POPC   D2A29524  35.360  34.625   8.255
 7724POPC   C3A29525  35.387  34.559   7.955
 7724POPC   C4A29526  35.359  34.578   7.655
 7724POPC   C1B29527  35.338  34.831   8.555
 7724POPC   C2B29528  35.278  34.787   8.255
 7724POPC   C3B29529  35.328  34.845   7.955
 7724POPC   C4B29530  35.328  34.823   7.655
 7725POPC   NC329531   2.724   1.218   9.455
 7725POPC   PO429532   2.753   1.170   9.155
 7725POPC   GL129533   2.721   1.175   8.855
 7725POPC   GL229534   2.861   1.222   8.855
 7725POPC   C1A29535   2.786   1.208   8.555
 7725POPC   D2A29536   2.732   1.251   8.255
 7725POPC   C3A29537   2.737   1.175   7.955
 7725POPC   C4A29538   2.778   1.211   7.655
 7725POPC   C1B29539   3.023   1.237   8.555
 7725POPC   C2B29540   3.048   1.237   8.255
 7725POPC   C3B29541   3.002   1.229   7.955
 7725POPC   C4B29542   2.975   1.190   7.655
 7726POPC   NC329543  29.134  40.746   9.455
 7726POPC   PO429544  29.191  40.788   9.155
 7726POPC   GL129545  29.114  40.748   8.855
 7726POPC   GL229546  29.183  40.835   8.855
 7726POPC   C1A29547  29.170  40.742   8.555
 7726POPC   D2A29548  29.179  40.832   8.255
 7726POPC   C3A29549  29.129  40.759   7.955
 7726POPC   C4A29550  29.148  40.762   7.655
 7726POPC   C1B29551  29.279  40.988   8.555
 7726POPC   C2B29552  29.342  40.937   8.255
 7726POPC   C3B29553  29.340  40.946   7.955
 7726POPC   C4B29554  29.273  40.982   7.655
 7727POPC   NC329555   1.169  40.016   9.455
 7727POPC   PO429556   1.194  40.040   9.155
 7727POPC   GL129557   1.226  39.988   8.855
 7727POPC   GL229558   1.099  40.125   8.855
 7727POPC   C1A29559   1.246  39.974   8.555
 7727POPC   D2A29560   1.228  40.002   8.255
 7727POPC   C3A29561   1.229  40.009   7.955
 7727POPC   C4A29562   1.252  39.985   7.655
 7727POPC   C1B29563   1.035  40.143   8.555
 7727POPC   C2B29564   0.964  40.199   8.255
 7727POPC   C3B29565   0.994  40.126   7.955
 7727POPC   C4B29566   1.036  40.123   7.655
 7728POPC   NC329567  37.666  18.255   9.455
 7728POPC   PO429568  37.714  18.235   9.155
 7728POPC   GL129569  37.634  18.333   8.855
 7728POPC   GL229570  37.647  18.143   8.855
 7728POPC   C1A29571  37.723  18.257   8.555
 7728POPC   D2A29572  37.670  18.314   8.255
 7728POPC   C3A29573  37.643  18.261   7.955
 7728POPC   C4A29574  37.669  18.263   7.655
 7728POPC   C1B29575  37.671  18.033   8.555
 7728POPC   C2B29576  37.669  18.015   8.255
 7728POPC   C3B29577  37.701  18.066   7.955
 7728POPC   C4B29578  37.645  18.042   7.655
 7729POPC   NC329579  44.705  19.052   9.455
 7729POPC   PO429580  44.708  19.079   9.155
 7729POPC   GL129581  44.681  19.009   8.855
 7729POPC   GL229582  44.747  19.127   8.855
 7729POPC   C1A29583  44.657  19.101   8.555
 7729POPC   D2A29584  44.682  19.091   8.255
 7729POPC   C3A29585  44.629  19.058   7.955
 7729POPC   C4A29586  44.634  19.069   7.655
 7729POPC   C1B29587  44.911  19.184   8.555
 7729POPC   C2B29588  44.875  19.141   8.255
 7729POPC   C3B29589  44.860  19.175   7.955
 7729POPC   C4B29590  44.903  19.181   7.655
 7730POPC   NC329591   8.998   0.429   9.455
 7730POPC   PO429592   8.979   0.445   9.155
 7730POPC   GL129593   8.995   0.402   8.855
 7730POPC   GL229594   8.910   0.518   8.855
 7730POPC   C1A29595   8.955   0.449   8.555
 7730POPC   D2A29596   8.979   0.488   8.255
 7730POPC   C3A29597   8.964   0.415   7.955
 7730POPC   C4A29598   8.953   0.462   7.655
 7730POPC   C1B29599   8.932   0.708   8.555
 7730POPC   C2B29600   8.944   0.661   8.255
 7730POPC   C3B29601   8.941   0.655   7.955
 7730POPC   C4B29602   8.918   0.642   7.655
 7731POPC   NC329603  32.244  36.918   9.455
 7731POPC   PO429604  32.290  36.894   9.155
 7731POPC   GL129605  32.202  36.927   8.855
 7731POPC   GL229606  32.128  36.996   8.855
 7731POPC   C1A29607  32.278  36.896   8.555
 7731POPC   D2A29608  32.297  36.944   8.255
 7731POPC   C3A29609  32.296  36.926   7.955
 7731POPC   C4A29610  32.265  36.930   7.655
 7731POPC   C1B29611  32.052  37.012   8.555
 7731POPC   C2B29612  32.007  36.998   8.255
 7731POPC   C3B29613  31.979  37.014   7.955
 7731POPC   C4B29614  32.017  37.062   7.655
 7732POPC   NC329615   8.239  13.581   9.455
 7732POPC   PO429616   8.152  13.647   9.155
 7732POPC   GL129617   8.167  13.626   8.855
 7732POPC   GL229618   8.093  13.755   8.855
 7732POPC   C1A29619   8.165  13.619   8.555
 7732POPC   D2A29620   8.168  13.650   8.255
 7732POPC   C3A29621   8.159  13.589   7.955
 7732POPC   C4A29622   8.176  13.606   7.655
 7732POPC   C1B29623   8.016  13.860   8.555
 7732POPC   C2B29624   8.069  13.829   8.255
 7732POPC   C3B29625   8.050  13.813   7.955
 7732POPC   C4B29626   8.013  13.877   7.655
 7733POPC   NC329627   4.346  36.140   9.455
 7733POPC   PO429628   4.360  36.170   9.155
 7733POPC   GL129629   4.313  36.176   8.855
 7733POPC   GL229630   4.223  36.203   8.855
 7733POPC   C1A29631   4.308  36.163   8.555
 7733POPC   D2A29632   4.356  36.153   8.255
 7733POPC   C3A29633   4.323  36.130   7.955
 7733POPC   C4A29634   4.363  36.157   7.655
 7733POPC   C1B29635   4.269  36.365   8.555
 7733POPC   C2B29636   4.213  36.378   8.255
 7733POPC   C3B29637   4.222  36.372   7.955
 7733POPC   C4B29638   4.238  36.377   7.655
 7734POPC   NC329639  21.347  39.982   9.455
 7734POPC   PO429640  21.404  40.002   9.155
 7734POPC   GL129641  21.380  40.002   8.855
 7734POPC   GL229642  21.366  39.910   8.855
 7734POPC   C1A29643  21.404  40.031   8.555
 7734POPC   D2A29644  21.417  39.972   8.255
 7734POPC   C3A29645  21.413  39.994   7.955
 7734POPC   C4A29646  21.424  40.032   7.655
 7734POPC   C1B29647  21.390  39.795   8.555
 7734POPC   C2B29648  21.407  39.720   8.255
 7734POPC   C3B29649  21.348  39.741   7.955
 7734POPC   C4B29650  21.417  39.749   7.655
 7735POPC   NC329651  27.545   6.664   9.455
 7735POPC   PO429652  27.641   6.689   9.155
 7735POPC   GL129653  27.637   6.604   8.855
 7735POPC   GL229654  27.524   6.576   8.855
 7735POPC   C1A29655  27.602   6.614   8.555
 7735POPC   D2A29656  27.614   6.605   8.255
 7735POPC   C3A29657  27.615   6.663   7.955
 7735POPC   C4A29658  27.613   6.658   7.655
 7735POPC   C1B29659  27.408   6.434   8.555
 7735POPC   C2B29660  27.362   6.462   8.255
 7735POPC   C3B29661  27.399   6.435   7.955
 7735POPC   C4B29662  27.441   6.503   7.655
 7736POPC   NC329663  15.220   5.898   9.455
 7736POPC   PO429664  15.214   5.905   9.155
 7736POPC   GL129665  15.150   5.874   8.855
 7736POPC   GL229666  15.336   5.858   8.855
 7736POPC   C1A29667  15.202   5.841   8.555
 7736POPC   D2A29668  15.149   5.840   8.255
 7736POPC   C3A29669  15.224   5.895   7.955
 7736POPC   C4A29670  15.142   5.902   7.655
 7736POPC   C1B29671  15.396   5.886   8.555
 7736POPC   C2B29672  15.429   5.850   8.255
 7736POPC   C3B29673  15.431   5.906   7.955
 7736POPC   C4B29674  15.429   5.861   7.655
 7737POPC   NC329675  10.477  40.789   9.455
 7737POPC   PO429676  10.515  40.808   9.155
 7737POPC   GL129677  10.489  40.799   8.855
 7737POPC   GL229678  10.453  40.702   8.855
 7737POPC   C1A29679  10.506  40.751   8.555
 7737POPC   D2A29680  10.497  40.752   8.255
 7737POPC   C3A29681  10.548  40.747   7.955
 7737POPC   C4A29682  10.557  40.779   7.655
 7737POPC   C1B29683  10.337  40.586   8.555
 7737POPC   C2B29684  10.359  40.614   8.255
 7737POPC   C3B29685  10.300  40.663   7.955
 7737POPC   C4B29686  10.302  40.641   7.655
 7738POPC   NC329687   3.532  16.701   9.455
 7738POPC   PO429688   3.516  16.766   9.155
 7738POPC   GL129689   3.571  16.710   8.855
 7738POPC   GL229690   3.674  16.776   8.855
 7738POPC   C1A29691   3.494  16.691   8.555
 7738POPC   D2A29692   3.534  16.776   8.255
 7738POPC   C3A29693   3.590  16.744   7.955
 7738POPC   C4A29694   3.510  16.683   7.655
 7738POPC   C1B29695   3.755  16.852   8.555
 7738POPC   C2B29696   3.784  16.916   8.255
 7738POPC   C3B29697   3.765  16.840   7.955
 7738POPC   C4B29698   3.698  16.869   7.655
 7739POPC   NC329699  14.452  43.126   9.455
 7739POPC   PO429700  14.424  43.080   9.155
 7739POPC   GL129701  14.360  43.092   8.855
 7739POPC   GL229702  14.281  43.161   8.855
 7739POPC   C1A29703  14.381  43.152   8.555
 7739POPC   D2A29704  14.441  43.158   8.255
 7739POPC   C3A29705  14.430  43.079   7.955
 7739POPC   C4A29706  14.409  43.110   7.655
 7739POPC   C1B29707  14.157  43.253   8.555
 7739POPC   C2B29708  14.205  43.242   8.255
 7739POPC   C3B29709  14.143  43.181   7.955
 7739POPC   C4B29710  14.160  43.203   7.655
 7740POPC   NC329711  41.565  19.831   9.455
 7740POPC   PO429712  41.587  19.789   9.155
 7740POPC   GL129713  41.581  19.815   8.855
 7740POPC   GL229714  41.521  19.943   8.855
 7740POPC   C1A29715  41.543  19.845   8.555
 7740POPC   D2A29716  41.532  19.835   8.255
 7740POPC   C3A29717  41.547  19.815   7.955
 7740POPC   C4A29718  41.606  19.873   7.655
 7740POPC   C1B29719  41.447  20.117   8.555
 7740POPC   C2B29720  41.478  20.054   8.255
 7740POPC   C3B29721  41.468  20.096   7.955
 7740POPC   C4B29722  41.522  20.044   7.655
 7741POPC   NC329723   2.719  19.813   9.455
 7741POPC   PO429724   2.720  19.872   9.155
 7741POPC   GL129725   2.803  19.843   8.855
 7741POPC   GL229726   2.816  19.963   8.855
 7741POPC   C1A29727   2.781  19.872   8.555
 7741POPC   D2A29728   2.727  19.824   8.255
 7741POPC   C3A29729   2.757  19.875   7.955
 7741POPC   C4A29730   2.740  19.826   7.655
 7741POPC   C1B29731   2.894  20.044   8.555
 7741POPC   C2B29732   2.941  20.045   8.255
 7741POPC   C3B29733   2.897  20.033   7.955
 7741POPC   C4B29734   2.911  20.007   7.655
 7742POPC   NC329735  22.177   9.707   9.455
 7742POPC   PO429736  22.175   9.711   9.155
 7742POPC   GL129737  22.200   9.715   8.855
 7742POPC   GL229738  22.185   9.580   8.855
 7742POPC   C1A29739  22.135   9.755   8.555
 7742POPC   D2A29740  22.139   9.737   8.255
 7742POPC   C3A29741  22.131   9.704   7.955
 7742POPC   C4A29742  22.114   9.758   7.655
 7742POPC   C1B29743  22.124   9.510   8.555
 7742POPC   C2B29744  22.173   9.474   8.255
 7742POPC   C3B29745  22.170   9.506   7.955
 7742POPC   C4B29746  22.130   9.511   7.655
 7743POPC   NC329747   3.529  43.134   9.455
 7743POPC   PO429748   3.567  43.097   9.155
 7743POPC   GL129749   3.501  43.062   8.855
 7743POPC   GL229750   3.654  43.205   8.855
 7743POPC   C1A29751   3.560  43.080   8.555
 7743POPC   D2A29752   3.569  43.085   8.255
 7743POPC   C3A29753   3.514  43.072   7.955
 7743POPC   C4A29754   3.562  43.098   7.655
 7743POPC   C1B29755   3.762  43.299   8.555
 7743POPC   C2B29756   3.755  43.270   8.255
 7743POPC   C3B29757   3.685  43.314   7.955
 7743POPC   C4B29758   3.756  43.268   7.655
 7744POPC   NC329759   6.678  41.547   9.455
 7744POPC   PO429760   6.635  41.608   9.155
 7744POPC   GL129761   6.688  41.580   8.855
 7744POPC   GL229762   6.750  41.579   8.855
 7744POPC   C1A29763   6.653  41.537   8.555
 7744POPC   D2A29764   6.596  41.596   8.255
 7744POPC   C3A29765   6.600  41.583   7.955
 7744POPC   C4A29766   6.661  41.588   7.655
 7744POPC   C1B29767   6.841  41.524   8.555
 7744POPC   C2B29768   6.911  41.541   8.255
 7744POPC   C3B29769   6.889  41.479   7.955
 7744POPC   C4B29770   6.899  41.491   7.655
 7745POPC   NC329771  32.256  37.679   9.455
 7745POPC   PO429772  32.231  37.633   9.155
 7745POPC   GL129773  32.218  37.697   8.855
 7745POPC   GL229774  32.333  37.527   8.855
 7745POPC   C1A29775  32.292  37.723   8.555
 7745POPC   D2A29776  32.261  37.664   8.255
 7745POPC   C3A29777  32.289  37.695   7.955
 7745POPC   C4A29778  32.248  37.724   7.655
 7745POPC   C1B29779  32.351  37.411   8.555
 7745POPC   C2B29780  32.347  37.494   8.255
 7745POPC   C3B29781  32.325  37.450   7.955
 7745POPC   C4B29782  32.371  37.431   7.655
 7746POPC   NC329783  22.946  40.782   9.455
 7746POPC   PO429784  22.935  40.767   9.155
 7746POPC   GL129785  22.983  40.740   8.855
 7746POPC   GL229786  22.969  40.911   8.855
 7746POPC   C1A29787  22.965  40.829   8.555
 7746POPC   D2A29788  22.940  40.781   8.255
 7746POPC   C3A29789  22.977  40.737   7.955
 7746POPC   C4A29790  22.969  40.752   7.655
 7746POPC   C1B29791  22.994  40.983   8.555
 7746POPC   C2B29792  23.042  41.033   8.255
 7746POPC   C3B29793  22.970  41.018   7.955
 7746POPC   C4B29794  22.973  41.016   7.655
 7747POPC   NC329795  29.902  32.240   9.455
 7747POPC   PO429796  29.921  32.254   9.155
 7747POPC   GL129797  29.885  32.249   8.855
 7747POPC   GL229798  29.915  32.089   8.855
 7747POPC   C1A29799  29.951  32.242   8.555
 7747POPC   D2A29800  29.960  32.287   8.255
 7747POPC   C3A29801  29.901  32.238   7.955
 7747POPC   C4A29802  29.910  32.263   7.655
 7747POPC   C1B29803  29.909  32.021   8.555
 7747POPC   C2B29804  29.955  32.001   8.255
 7747POPC   C3B29805  29.962  32.018   7.955
 7747POPC   C4B29806  29.940  32.013   7.655
 7748POPC   NC329807  39.213  34.532   9.455
 7748POPC   PO429808  39.232  34.600   9.155
 7748POPC   GL129809  39.224  34.611   8.855
 7748POPC   GL229810  39.237  34.712   8.855
 7748POPC   C1A29811  39.200  34.556   8.555
 7748POPC   D2A29812  39.226  34.603   8.255
 7748POPC   C3A29813  39.263  34.588   7.955
 7748POPC   C4A29814  39.223  34.559   7.655
 7748POPC   C1B29815  39.180  34.837   8.555
 7748POPC   C2B29816  39.184  34.858   8.255
 7748POPC   C3B29817  39.191  34.770   7.955
 7748POPC   C4B29818  39.161  34.784   7.655
 7749POPC   NC329819  26.055   2.033   9.455
 7749POPC   PO429820  26.063   2.021   9.155
 7749POPC   GL129821  26.087   2.021   8.855
 7749POPC   GL229822  25.969   1.915   8.855
 7749POPC   C1A29823  26.008   1.997   8.555
 7749POPC   D2A29824  26.046   1.972   8.255
 7749POPC   C3A29825  26.037   1.971   7.955
 7749POPC   C4A29826  26.019   1.984   7.655
 7749POPC   C1B29827  25.809   1.853   8.555
 7749POPC   C2B29828  25.884   1.783   8.255
 7749POPC   C3B29829  25.882   1.813   7.955
 7749POPC   C4B29830  25.844   1.854   7.655
 7750POPC   NC329831   8.953  35.399   9.455
 7750POPC   PO429832   9.016  35.349   9.155
 7750POPC   GL129833   8.943  35.392   8.855
 7750POPC   GL229834   9.044  35.442   8.855
 7750POPC   C1A29835   8.986  35.363   8.555
 7750POPC   D2A29836   9.007  35.391   8.255
 7750POPC   C3A29837   8.980  35.379   7.955
 7750POPC   C4A29838   8.933  35.345   7.655
 7750POPC   C1B29839   9.163  35.550   8.555
 7750POPC   C2B29840   9.163  35.485   8.255
 7750POPC   C3B29841   9.172  35.513   7.955
 7750POPC   C4B29842   9.169  35.544   7.655
 7751POPC   NC329843  38.415  23.716   9.455
 7751POPC   PO429844  38.423  23.695   9.155
 7751POPC   GL129845  38.432  23.693   8.855
 7751POPC   GL229846  38.591  23.655   8.855
 7751POPC   C1A29847  38.483  23.729   8.555
 7751POPC   D2A29848  38.413  23.702   8.255
 7751POPC   C3A29849  38.440  23.725   7.955
 7751POPC   C4A29850  38.415  23.747   7.655
 7751POPC   C1B29851  38.664  23.575   8.555
 7751POPC   C2B29852  38.652  23.627   8.255
 7751POPC   C3B29853  38.730  23.607   7.955
 7751POPC   C4B29854  38.712  23.603   7.655
 7752POPC   NC329855   7.378  14.394   9.455
 7752POPC   PO429856   7.445  14.368   9.155
 7752POPC   GL129857   7.383  14.375   8.855
 7752POPC   GL229858   7.457  14.541   8.855
 7752POPC   C1A29859   7.463  14.393   8.555
 7752POPC   D2A29860   7.438  14.354   8.255
 7752POPC   C3A29861   7.413  14.383   7.955
 7752POPC   C4A29862   7.455  14.354   7.655
 7752POPC   C1B29863   7.449  14.667   8.555
 7752POPC   C2B29864   7.388  14.669   8.255
 7752POPC   C3B29865   7.408  14.622   7.955
 7752POPC   C4B29866   7.459  14.605   7.655
 7753POPC   NC329867  22.956  38.477   9.455
 7753POPC   PO429868  22.971  38.464   9.155
 7753POPC   GL129869  22.891  38.461   8.855
 7753POPC   GL229870  22.803  38.380   8.855
 7753POPC   C1A29871  22.888  38.439   8.555
 7753POPC   D2A29872  22.981  38.489   8.255
 7753POPC   C3A29873  22.952  38.484   7.955
 7753POPC   C4A29874  22.940  38.432   7.655
 7753POPC   C1B29875  22.731  38.346   8.555
 7753POPC   C2B29876  22.704  38.377   8.255
 7753POPC   C3B29877  22.664  38.327   7.955
 7753POPC   C4B29878  22.737  38.402   7.655
 7754POPC   NC329879  24.506   1.178   9.455
 7754POPC   PO429880  24.485   1.218   9.155
 7754POPC   GL129881  24.521   1.241   8.855
 7754POPC   GL229882  24.578   1.187   8.855
 7754POPC   C1A29883  24.532   1.242   8.555
 7754POPC   D2A29884  24.496   1.184   8.255
 7754POPC   C3A29885  24.455   1.198   7.955
 7754POPC   C4A29886  24.479   1.231   7.655
 7754POPC   C1B29887  24.755   1.287   8.555
 7754POPC   C2B29888  24.699   1.240   8.255
 7754POPC   C3B29889  24.783   1.295   7.955
 7754POPC   C4B29890  24.704   1.212   7.655
 7755POPC   NC329891  43.070  43.871   9.455
 7755POPC   PO429892  43.094  43.878   9.155
 7755POPC   GL129893  43.096  43.886   8.855
 7755POPC   GL229894  43.230  43.875   8.855
 7755POPC   C1A29895  43.089  43.925   8.555
 7755POPC   D2A29896  43.111  43.874   8.255
 7755POPC   C3A29897  43.111  43.843   7.955
 7755POPC   C4A29898  43.100  43.905   7.655
 7755POPC   C1B29899  43.363  43.777   8.555
 7755POPC   C2B29900  43.367  43.820   8.255
 7755POPC   C3B29901  43.307  43.791   7.955
 7755POPC   C4B29902  43.343  43.794   7.655
 7756POPC   NC329903  29.173  15.180   9.455
 7756POPC   PO429904  29.098  15.200   9.155
 7756POPC   GL129905  29.134  15.164   8.855
 7756POPC   GL229906  29.220  15.037   8.855
 7756POPC   C1A29907  29.112  15.159   8.555
 7756POPC   D2A29908  29.127  15.217   8.255
 7756POPC   C3A29909  29.129  15.170   7.955
 7756POPC   C4A29910  29.167  15.140   7.655
 7756POPC   C1B29911  29.273  14.960   8.555
 7756POPC   C2B29912  29.310  14.981   8.255
 7756POPC   C3B29913  29.277  15.003   7.955
 7756POPC   C4B29914  29.252  14.997   7.655
 7757POPC   NC329915  22.176  30.682   9.455
 7757POPC   PO429916  22.139  30.668   9.155
 7757POPC   GL129917  22.195  30.661   8.855
 7757POPC   GL229918  22.007  30.691   8.855
 7757POPC   C1A29919  22.125  30.714   8.555
 7757POPC   D2A29920  22.134  30.648   8.255
 7757POPC   C3A29921  22.136  30.694   7.955
 7757POPC   C4A29922  22.127  30.715   7.655
 7757POPC   C1B29923  21.908  30.625   8.555
 7757POPC   C2B29924  21.958  30.601   8.255
 7757POPC   C3B29925  21.953  30.674   7.955
 7757POPC   C4B29926  21.948  30.654   7.655
 7758POPC   NC329927  28.328  31.483   9.455
 7758POPC   PO429928  28.382  31.514   9.155
 7758POPC   GL129929  28.347  31.469   8.855
 7758POPC   GL229930  28.285  31.453   8.855
 7758POPC   C1A29931  28.416  31.475   8.555
 7758POPC   D2A29932  28.344  31.470   8.255
 7758POPC   C3A29933  28.371  31.519   7.955
 7758POPC   C4A29934  28.393  31.462   7.655
 7758POPC   C1B29935  28.165  31.520   8.555
 7758POPC   C2B29936  28.128  31.522   8.255
 7758POPC   C3B29937  28.108  31.530   7.955
 7758POPC   C4B29938  28.107  31.501   7.655
 7759POPC   NC329939   4.304   2.010   9.455
 7759POPC   PO429940   4.346   2.004   9.155
 7759POPC   GL129941   4.277   1.969   8.855
 7759POPC   GL229942   4.355   1.922   8.855
 7759POPC   C1A29943   4.327   1.946   8.555
 7759POPC   D2A29944   4.334   1.943   8.255
 7759POPC   C3A29945   4.324   1.997   7.955
 7759POPC   C4A29946   4.309   1.960   7.655
 7759POPC   C1B29947   4.436   1.760   8.555
 7759POPC   C2B29948   4.475   1.777   8.255
 7759POPC   C3B29949   4.395   1.743   7.955
 7759POPC   C4B29950   4.445   1.810   7.655
 7760POPC   NC329951  13.647   1.216   9.455
 7760POPC   PO429952  13.607   1.195   9.155
 7760POPC   GL129953  13.654   1.256   8.855
 7760POPC   GL229954  13.520   1.300   8.855
 7760POPC   C1A29955  13.610   1.176   8.555
 7760POPC   D2A29956  13.647   1.181   8.255
 7760POPC   C3A29957  13.593   1.226   7.955
 7760POPC   C4A29958  13.663   1.258   7.655
 7760POPC   C1B29959  13.442   1.339   8.555
 7760POPC   C2B29960  13.387   1.342   8.255
 7760POPC   C3B29961  13.441   1.267   7.955
 7760POPC   C4B29962  13.432   1.323   7.655
 7761POPC   NC329963  29.102   5.853   9.455
 7761POPC   PO429964  29.133   5.909   9.155
 7761POPC   GL129965  29.157   5.828   8.855
 7761POPC   GL229966  29.104   5.762   8.855
 7761POPC   C1A29967  29.169   5.824   8.555
 7761POPC   D2A29968  29.177   5.897   8.255
 7761POPC   C3A29969  29.099   5.866   7.955
 7761POPC   C4A29970  29.154   5.877   7.655
 7761POPC   C1B29971  28.942   5.740   8.555
 7761POPC   C2B29972  29.011   5.652   8.255
 7761POPC   C3B29973  29.012   5.721   7.955
 7761POPC   C4B29974  28.980   5.735   7.655
 7762POPC   NC329975  39.970  34.596   9.455
 7762POPC   PO429976  39.980  34.575   9.155
 7762POPC   GL129977  39.963  34.618   8.855
 7762POPC   GL229978  40.021  34.679   8.855
 7762POPC   C1A29979  39.996  34.624   8.555
 7762POPC   D2A29980  40.049  34.595   8.255
 7762POPC   C3A29981  39.971  34.623   7.955
 7762POPC   C4A29982  39.961  34.614   7.655
 7762POPC   C1B29983  39.962  34.808   8.555
 7762POPC   C2B29984  39.947  34.857   8.255
 7762POPC   C3B29985  39.941  34.824   7.955
 7762POPC   C4B29986  39.964  34.809   7.655
 7763POPC   NC329987  21.366  22.981   9.455
 7763POPC   PO429988  21.360  22.936   9.155
 7763POPC   GL129989  21.365  22.980   8.855
 7763POPC   GL229990  21.407  23.100   8.855
 7763POPC   C1A29991  21.409  22.981   8.555
 7763POPC   D2A29992  21.346  22.935   8.255
 7763POPC   C3A29993  21.388  22.889   7.955
 7763POPC   C4A29994  21.362  22.899   7.655
 7763POPC   C1B29995  21.389  23.217   8.555
 7763POPC   C2B29996  21.421  23.153   8.255
 7763POPC   C3B29997  21.423  23.217   7.955
 7763POPC   C4B29998  21.414  23.140   7.655
 7764POPC   NC329999   5.832   2.732   9.455
 7764POPC   PO430000   5.831   2.813   9.155
 7764POPC   GL130001   5.857   2.789   8.855
 7764POPC   GL230002   5.861   2.936   8.855
 7764POPC   C1A30003   5.873   2.720   8.555
 7764POPC   D2A30004   5.833   2.803   8.255
 7764POPC   C3A30005   5.882   2.742   7.955
 7764POPC   C4A30006   5.838   2.799   7.655
 7764POPC   C1B30007   5.837   2.989   8.555
 7764POPC   C2B30008   5.905   3.015   8.255
 7764POPC   C3B30009   5.929   2.973   7.955
 7764POPC   C4B30010   5.911   3.006   7.655
 7765POPC   NC330011  15.182  12.057   9.455
 7765POPC   PO430012  15.158  12.046   9.155
 7765POPC   GL130013  15.133  12.047   8.855
 7765POPC   GL230014  15.316  12.076   8.855
 7765POPC   C1A30015  15.176  12.093   8.555
 7765POPC   D2A30016  15.195  12.081   8.255
 7765POPC   C3A30017  15.147  12.075   7.955
 7765POPC   C4A30018  15.209  12.067   7.655
 7765POPC   C1B30019  15.462  12.052   8.555
 7765POPC   C2B30020  15.410  12.106   8.255
 7765POPC   C3B30021  15.411  12.092   7.955
 7765POPC   C4B30022  15.418  12.048   7.655
 7766POPC   NC330023  44.640  41.544   9.455
 7766POPC   PO430024  44.654  41.532   9.155
 7766POPC   GL130025  44.637  41.535   8.855
 7766POPC   GL230026  44.683  41.654   8.855
 7766POPC   C1A30027  44.710  41.575   8.555
 7766POPC   D2A30028  44.622  41.537   8.255
 7766POPC   C3A30029  44.623  41.520   7.955
 7766POPC   C4A30030  44.658  41.550   7.655
 7766POPC   C1B30031  44.769  41.731   8.555
 7766POPC   C2B30032  44.786  41.735   8.255
 7766POPC   C3B30033  44.801  41.717   7.955
 7766POPC   C4B30034  44.814  41.720   7.655
 7767POPC   NC330035   6.610  15.197   9.455
 7767POPC   PO430036   6.626  15.134   9.155
 7767POPC   GL130037   6.611  15.166   8.855
 7767POPC   GL230038   6.694  15.271   8.855
 7767POPC   C1A30039   6.608  15.160   8.555
 7767POPC   D2A30040   6.654  15.146   8.255
 7767POPC   C3A30041   6.681  15.174   7.955
 7767POPC   C4A30042   6.651  15.140   7.655
 7767POPC   C1B30043   6.778  15.369   8.555
 7767POPC   C2B30044   6.807  15.328   8.255
 7767POPC   C3B30045   6.780  15.332   7.955
 7767POPC   C4B30046   6.833  15.358   7.655
 7768POPC   NC330047  41.554   6.636   9.455
 7768POPC   PO430048  41.535   6.628   9.155
 7768POPC   GL130049  41.516   6.694   8.855
 7768POPC   GL230050  41.609   6.738   8.855
 7768POPC   C1A30051  41.577   6.658   8.555
 7768POPC   D2A30052  41.546   6.644   8.255
 7768POPC   C3A30053  41.557   6.669   7.955
 7768POPC   C4A30054  41.609   6.673   7.655
 7768POPC   C1B30055  41.700   6.878   8.555
 7768POPC   C2B30056  41.673   6.792   8.255
 7768POPC   C3B30057  41.736   6.883   7.955
 7768POPC   C4B30058  41.680   6.871   7.655
 7769POPC   NC330059  33.027   5.051   9.455
 7769POPC   PO430060  33.046   5.102   9.155
 7769POPC   GL130061  33.011   5.116   8.855
 7769POPC   GL230062  32.975   5.166   8.855
 7769POPC   C1A30063  33.030   5.099   8.555
 7769POPC   D2A30064  33.017   5.113   8.255
 7769POPC   C3A30065  33.004   5.109   7.955
 7769POPC   C4A30066  33.052   5.093   7.655
 7769POPC   C1B30067  32.924   5.275   8.555
 7769POPC   C2B30068  32.882   5.320   8.255
 7769POPC   C3B30069  32.889   5.316   7.955
 7769POPC   C4B30070  32.852   5.323   7.655
 7770POPC   NC330071  37.658  35.310   9.455
 7770POPC   PO430072  37.654  35.323   9.155
 7770POPC   GL130073  37.661  35.362   8.855
 7770POPC   GL230074  37.539  35.385   8.855
 7770POPC   C1A30075  37.699  35.392   8.555
 7770POPC   D2A30076  37.637  35.332   8.255
 7770POPC   C3A30077  37.675  35.322   7.955
 7770POPC   C4A30078  37.652  35.308   7.655
 7770POPC   C1B30079  37.461  35.323   8.555
 7770POPC   C2B30080  37.383  35.359   8.255
 7770POPC   C3B30081  37.382  35.347   7.955
 7770POPC   C4B30082  37.410  35.294   7.655
 7771POPC   NC330083  32.284  40.037   9.455
 7771POPC   PO430084  32.281  39.964   9.155
 7771POPC   GL130085  32.223  40.042   8.855
 7771POPC   GL230086  32.185  40.053   8.855
 7771POPC   C1A30087  32.295  40.010   8.555
 7771POPC   D2A30088  32.230  40.056   8.255
 7771POPC   C3A30089  32.293  40.044   7.955
 7771POPC   C4A30090  32.213  40.045   7.655
 7771POPC   C1B30091  32.084  40.155   8.555
 7771POPC   C2B30092  32.071  40.228   8.255
 7771POPC   C3B30093  32.122  40.239   7.955
 7771POPC   C4B30094  32.070  40.156   7.655
 7772POPC   NC330095  33.020   1.965   9.455
 7772POPC   PO430096  33.051   1.965   9.155
 7772POPC   GL130097  33.042   2.017   8.855
 7772POPC   GL230098  33.031   1.922   8.855
 7772POPC   C1A30099  33.021   1.999   8.555
 7772POPC   D2A30100  33.027   1.942   8.255
 7772POPC   C3A30101  32.993   2.037   7.955
 7772POPC   C4A30102  33.053   2.033   7.655
 7772POPC   C1B30103  33.074   1.759   8.555
 7772POPC   C2B30104  33.170   1.782   8.255
 7772POPC   C3B30105  33.108   1.806   7.955
 7772POPC   C4B30106  33.171   1.786   7.655
 7773POPC   NC330107  16.710  39.992   9.455
 7773POPC   PO430108  16.773  39.994   9.155
 7773POPC   GL130109  16.756  40.035   8.855
 7773POPC   GL230110  16.802  40.088   8.855
 7773POPC   C1A30111  16.763  39.958   8.555
 7773POPC   D2A30112  16.691  39.996   8.255
 7773POPC   C3A30113  16.715  39.968   7.955
 7773POPC   C4A30114  16.775  40.037   7.655
 7773POPC   C1B30115  16.983  40.098   8.555
 7773POPC   C2B30116  17.007  40.120   8.255
 7773POPC   C3B30117  17.019  40.062   7.955
 7773POPC   C4B30118  16.947  40.044   7.655
 7774POPC   NC330119  38.498   8.995   9.455
 7774POPC   PO430120  38.435   9.000   9.155
 7774POPC   GL130121  38.431   8.977   8.855
 7774POPC   GL230122  38.312   8.959   8.855
 7774POPC   C1A30123  38.449   9.016   8.555
 7774POPC   D2A30124  38.503   8.934   8.255
 7774POPC   C3A30125  38.411   8.998   7.955
 7774POPC   C4A30126  38.490   8.958   7.655
 7774POPC   C1B30127  38.258   8.937   8.555
 7774POPC   C2B30128  38.258   8.930   8.255
 7774POPC   C3B30129  38.178   8.873   7.955
 7774POPC   C4B30130  38.203   8.891   7.655
 7775POPC   NC330131  18.271  30.668   9.455
 7775POPC   PO430132  18.240  30.676   9.155
 7775POPC   GL130133  18.280  30.682   8.855
 7775POPC   GL230134  18.299  30.556   8.855
 7775POPC   C1A30135  18.275  30.737   8.555
 7775POPC   D2A30136  18.260  30.693   8.255
 7775POPC   C3A30137  18.255  30.682   7.955
 7775POPC   C4A30138  18.245  30.669   7.655
 7775POPC   C1B30139  18.373  30.487   8.555
 7775POPC   C2B30140  18.381  30.439   8.255
 7775POPC   C3B30141  18.409  30.490   7.955
 7775POPC   C4B30142  18.356  30.454   7.655
 7776POPC   NC330143  19.081  31.503   9.455
 7776POPC   PO430144  19.088  31.491   9.155
 7776POPC   GL130145  19.049  31.514   8.855
 7776POPC   GL230146  19.095  31.640   8.855
 7776POPC   C1A30147  19.061  31.521   8.555
 7776POPC   D2A30148  19.029  31.426   8.255
 7776POPC   C3A30149  19.060  31.475   7.955
 7776POPC   C4A30150  19.057  31.493   7.655
 7776POPC   C1B30151  19.097  31.674   8.555
 7776POPC   C2B30152  19.092  31.686   8.255
 7776POPC   C3B30153  19.169  31.720   7.955
 7776POPC   C4B30154  19.141  31.704   7.655
 7777POPC   NC330155  26.769  36.176   9.455
 7777POPC   PO430156  26.790  36.169   9.155
 7777POPC   GL130157  26.835  36.120   8.855
 7777POPC   GL230158  26.709  36.214   8.855
 7777POPC   C1A30159  26.866  36.111   8.555
 7777POPC   D2A30160  26.824  36.106   8.255
 7777POPC   C3A30161  26.825  36.124   7.955
 7777POPC   C4A30162  26.773  36.123   7.655
 7777POPC   C1B30163  26.670  36.330   8.555
 7777POPC   C2B30164  26.697  36.307   8.255
 7777POPC   C3B30165  26.655  36.289   7.955
 7777POPC   C4B30166  26.635  36.366   7.655
 7778POPC   NC330167  40.048  15.219   9.455
 7778POPC   PO430168  39.962  15.142   9.155
 7778POPC   GL130169  40.027  15.208   8.855
 7778POPC   GL230170  39.837  15.097   8.855
 7778POPC   C1A30171  39.974  15.193   8.555
 7778POPC   D2A30172  39.989  15.191   8.255
 7778POPC   C3A30173  40.000  15.223   7.955
 7778POPC   C4A30174  39.982  15.142   7.655
 7778POPC   C1B30175  39.795  15.093   8.555
 7778POPC   C2B30176  39.763  15.098   8.255
 7778POPC   C3B30177  39.751  15.084   7.955
 7778POPC   C4B30178  39.757  15.124   7.655
 7779POPC   NC330179  15.166   2.034   9.455
 7779POPC   PO430180  15.165   1.985   9.155
 7779POPC   GL130181  15.146   2.031   8.855
 7779POPC   GL230182  15.262   1.920   8.855
 7779POPC   C1A30183  15.147   2.006   8.555
 7779POPC   D2A30184  15.224   2.037   8.255
 7779POPC   C3A30185  15.227   1.983   7.955
 7779POPC   C4A30186  15.179   2.036   7.655
 7779POPC   C1B30187  15.347   1.844   8.555
 7779POPC   C2B30188  15.371   1.808   8.255
 7779POPC   C3B30189  15.396   1.847   7.955
 7779POPC   C4B30190  15.415   1.787   7.655
 7780POPC   NC330191  19.878   0.417   9.455
 7780POPC   PO430192  19.840   0.465   9.155
 7780POPC   GL130193  19.792   0.431   8.855
 7780POPC   GL230194  19.809   0.272   8.855
 7780POPC   C1A30195  19.833   0.463   8.555
 7780POPC   D2A30196  19.820   0.403   8.255
 7780POPC   C3A30197  19.787   0.487   7.955
 7780POPC   C4A30198  19.842   0.473   7.655
 7780POPC   C1B30199  19.800   0.159   8.555
 7780POPC   C2B30200  19.780   0.175   8.255
 7780POPC   C3B30201  19.793   0.238   7.955
 7780POPC   C4B30202  19.758   0.188   7.655
 7781POPC   NC330203   3.572  11.332   9.455
 7781POPC   PO430204   3.588  11.282   9.155
 7781POPC   GL130205   3.553  11.272   8.855
 7781POPC   GL230206   3.598  11.197   8.855
 7781POPC   C1A30207   3.545  11.256   8.555
 7781POPC   D2A30208   3.580  11.348   8.255
 7781POPC   C3A30209   3.516  11.279   7.955
 7781POPC   C4A30210   3.558  11.264   7.655
 7781POPC   C1B30211   3.562  11.045   8.555
 7781POPC   C2B30212   3.595  11.010   8.255
 7781POPC   C3B30213   3.557  11.007   7.955
 7781POPC   C4B30214   3.627  11.093   7.655
 7782POPC   NC330215  15.990  12.859   9.455
 7782POPC   PO430216  15.997  12.814   9.155
 7782POPC   GL130217  15.979  12.868   8.855
 7782POPC   GL230218  16.022  12.940   8.855
 7782POPC   C1A30219  15.970  12.814   8.555
 7782POPC   D2A30220  15.917  12.871   8.255
 7782POPC   C3A30221  15.955  12.812   7.955
 7782POPC   C4A30222  15.976  12.900   7.655
 7782POPC   C1B30223  16.037  13.107   8.555
 7782POPC   C2B30224  16.065  13.056   8.255
 7782POPC   C3B30225  15.991  13.107   7.955
 7782POPC   C4B30226  15.997  13.068   7.655
 7783POPC   NC330227  30.650  19.803   9.455
 7783POPC   PO430228  30.677  19.866   9.155
 7783POPC   GL130229  30.681  19.793   8.855
 7783POPC   GL230230  30.571  19.798   8.855
 7783POPC   C1A30231  30.679  19.787   8.555
 7783POPC   D2A30232  30.699  19.810   8.255
 7783POPC   C3A30233  30.650  19.786   7.955
 7783POPC   C4A30234  30.678  19.797   7.655
 7783POPC   C1B30235  30.406  19.841   8.555
 7783POPC   C2B30236  30.463  19.890   8.255
 7783POPC   C3B30237  30.452  19.867   7.955
 7783POPC   C4B30238  30.468  19.884   7.655
 7784POPC   NC330239  27.604   0.478   9.455
 7784POPC   PO430240  27.614   0.466   9.155
 7784POPC   GL130241  27.571   0.414   8.855
 7784POPC   GL230242  27.461   0.367   8.855
 7784POPC   C1A30243  27.584   0.477   8.555
 7784POPC   D2A30244  27.592   0.395   8.255
 7784POPC   C3A30245  27.598   0.423   7.955
 7784POPC   C4A30246  27.623   0.420   7.655
 7784POPC   C1B30247  27.356   0.342   8.555
 7784POPC   C2B30248  27.349   0.313   8.255
 7784POPC   C3B30249  27.418   0.266   7.955
 7784POPC   C4B30250  27.399   0.342   7.655
 7785POPC   NC330251  29.165  36.141   9.455
 7785POPC   PO430252  29.101  36.103   9.155
 7785POPC   GL130253  29.163  36.128   8.855
 7785POPC   GL230254  29.262  36.000   8.855
 7785POPC   C1A30255  29.114  36.169   8.555
 7785POPC   D2A30256  29.097  36.130   8.255
 7785POPC   C3A30257  29.195  36.148   7.955
 7785POPC   C4A30258  29.096  36.149   7.655
 7785POPC   C1B30259  29.325  35.943   8.555
 7785POPC   C2B30260  29.329  35.901   8.255
 7785POPC   C3B30261  29.233  35.922   7.955
 7785POPC   C4B30262  29.260  35.915   7.655
 7786POPC   NC330263   5.824  33.794   9.455
 7786POPC   PO430264   5.879  33.780   9.155
 7786POPC   GL130265   5.820  33.838   8.855
 7786POPC   GL230266   6.010  33.871   8.855
 7786POPC   C1A30267   5.899  33.822   8.555
 7786POPC   D2A30268   5.842  33.820   8.255
 7786POPC   C3A30269   5.828  33.778   7.955
 7786POPC   C4A30270   5.915  33.788   7.655
 7786POPC   C1B30271   6.086  33.876   8.555
 7786POPC   C2B30272   6.120  33.852   8.255
 7786POPC   C3B30273   6.137  33.844   7.955
 7786POPC   C4B30274   6.100  33.884   7.655
 7787POPC   NC330275  36.862  19.801   9.455
 7787POPC   PO430276  36.877  19.823   9.155
 7787POPC   GL130277  36.888  19.796   8.855
 7787POPC   GL230278  37.039  19.877   8.855
 7787POPC   C1A30279  36.946  19.824   8.555
 7787POPC   D2A30280  36.897  19.818   8.255
 7787POPC   C3A30281  36.904  19.871   7.955
 7787POPC   C4A30282  36.912  19.808   7.655
 7787POPC   C1B30283  37.076  19.977   8.555
 7787POPC   C2B30284  37.119  19.974   8.255
 7787POPC   C3B30285  37.110  20.030   7.955
 7787POPC   C4B30286  37.059  20.031   7.655
 7788POPC   NC330287   5.858  15.200   9.455
 7788POPC   PO430288   5.860  15.132   9.155
 7788POPC   GL130289   5.832  15.180   8.855
 7788POPC   GL230290   5.714  15.153   8.855
 7788POPC   C1A30291   5.836  15.205   8.555
 7788POPC   D2A30292   5.841  15.212   8.255
 7788POPC   C3A30293   5.894  15.141   7.955
 7788POPC   C4A30294   5.837  15.192   7.655
 7788POPC   C1B30295   5.652  15.032   8.555
 7788POPC   C2B30296   5.674  15.035   8.255
 7788POPC   C3B30297   5.674  15.070   7.955
 7788POPC   C4B30298   5.643  15.028   7.655
 7789POPC   NC330299   9.785  31.481   9.455
 7789POPC   PO430300   9.735  31.506   9.155
 7789POPC   GL130301   9.718  31.452   8.855
 7789POPC   GL230302   9.720  31.306   8.855
 7789POPC   C1A30303   9.709  31.447   8.555
 7789POPC   D2A30304   9.713  31.491   8.255
 7789POPC   C3A30305   9.746  31.473   7.955
 7789POPC   C4A30306   9.781  31.449   7.655
 7789POPC   C1B30307   9.736  31.241   8.555
 7789POPC   C2B30308   9.788  31.175   8.255
 7789POPC   C3B30309   9.780  31.203   7.955
 7789POPC   C4B30310   9.755  31.204   7.655
 7790POPC   NC330311  34.554  15.217   9.455
 7790POPC   PO430312  34.557  15.226   9.155
 7790POPC   GL130313  34.619  15.135   8.855
 7790POPC   GL230314  34.506  15.225   8.855
 7790POPC   C1A30315  34.581  15.215   8.555
 7790POPC   D2A30316  34.564  15.223   8.255
 7790POPC   C3A30317  34.539  15.139   7.955
 7790POPC   C4A30318  34.574  15.202   7.655
 7790POPC   C1B30319  34.402  15.332   8.555
 7790POPC   C2B30320  34.337  15.359   8.255
 7790POPC   C3B30321  34.343  15.341   7.955
 7790POPC   C4B30322  34.335  15.346   7.655
 7791POPC   NC330323  36.858  41.583   9.455
 7791POPC   PO430324  36.893  41.566   9.155
 7791POPC   GL130325  36.861  41.583   8.855
 7791POPC   GL230326  36.904  41.427   8.855
 7791POPC   C1A30327  36.857  41.568   8.555
 7791POPC   D2A30328  36.927  41.550   8.255
 7791POPC   C3A30329  36.866  41.539   7.955
 7791POPC   C4A30330  36.888  41.540   7.655
 7791POPC   C1B30331  36.758  41.296   8.555
 7791POPC   C2B30332  36.850  41.365   8.255
 7791POPC   C3B30333  36.789  41.341   7.955
 7791POPC   C4B30334  36.856  41.350   7.655
 7792POPC   NC330335   2.716  16.753   9.455
 7792POPC   PO430336   2.797  16.704   9.155
 7792POPC   GL130337   2.752  16.778   8.855
 7792POPC   GL230338   2.661  16.850   8.855
 7792POPC   C1A30339   2.759  16.742   8.555
 7792POPC   D2A30340   2.740  16.775   8.255
 7792POPC   C3A30341   2.725  16.726   7.955
 7792POPC   C4A30342   2.754  16.774   7.655
 7792POPC   C1B30343   2.626  16.938   8.555
 7792POPC   C2B30344   2.592  16.900   8.255
 7792POPC   C3B30345   2.583  16.946   7.955
 7792POPC   C4B30346   2.585  16.974   7.655
 7793POPC   NC330347  20.601  15.144   9.455
 7793POPC   PO430348  20.622  15.165   9.155
 7793POPC   GL130349  20.642  15.161   8.855
 7793POPC   GL230350  20.632  15.260   8.855
 7793POPC   C1A30351  20.658  15.154   8.555
 7793POPC   D2A30352  20.622  15.170   8.255
 7793POPC   C3A30353  20.643  15.223   7.955
 7793POPC   C4A30354  20.603  15.190   7.655
 7793POPC   C1B30355  20.626  15.393   8.555
 7793POPC   C2B30356  20.666  15.380   8.255
 7793POPC   C3B30357  20.604  15.446   7.955
 7793POPC   C4B30358  20.648  15.406   7.655
 7794POPC   NC330359  29.970  42.336   9.455
 7794POPC   PO430360  29.943  42.327   9.155
 7794POPC   GL130361  29.890  42.289   8.855
 7794POPC   GL230362  30.031  42.387   8.855
 7794POPC   C1A30363  29.950  42.297   8.555
 7794POPC   D2A30364  29.873  42.362   8.255
 7794POPC   C3A30365  29.926  42.285   7.955
 7794POPC   C4A30366  29.910  42.328   7.655
 7794POPC   C1B30367  30.142  42.398   8.555
 7794POPC   C2B30368  30.174  42.465   8.255
 7794POPC   C3B30369  30.117  42.405   7.955
 7794POPC   C4B30370  30.183  42.420   7.655
 7795POPC   NC330371  14.448  38.448   9.455
 7795POPC   PO430372  14.402  38.438   9.155
 7795POPC   GL130373  14.413  38.470   8.855
 7795POPC   GL230374  14.441  38.349   8.855
 7795POPC   C1A30375  14.433  38.465   8.555
 7795POPC   D2A30376  14.416  38.502   8.255
 7795POPC   C3A30377  14.372  38.428   7.955
 7795POPC   C4A30378  14.398  38.488   7.655
 7795POPC   C1B30379  14.572  38.255   8.555
 7795POPC   C2B30380  14.536  38.272   8.255
 7795POPC   C3B30381  14.574  38.296   7.955
 7795POPC   C4B30382  14.610  38.265   7.655
 7796POPC   NC330383  34.601  32.219   9.455
 7796POPC   PO430384  34.573  32.298   9.155
 7796POPC   GL130385  34.570  32.291   8.855
 7796POPC   GL230386  34.644  32.210   8.855
 7796POPC   C1A30387  34.617  32.281   8.555
 7796POPC   D2A30388  34.554  32.268   8.255
 7796POPC   C3A30389  34.578  32.295   7.955
 7796POPC   C4A30390  34.618  32.204   7.655
 7796POPC   C1B30391  34.737  32.055   8.555
 7796POPC   C2B30392  34.814  32.100   8.255
 7796POPC   C3B30393  34.763  32.066   7.955
 7796POPC   C4B30394  34.737  32.046   7.655
 7797POPC   NC330395  31.518  18.299   9.455
 7797POPC   PO430396  31.478  18.308   9.155
 7797POPC   GL130397  31.459  18.263   8.855
 7797POPC   GL230398  31.372  18.206   8.855
 7797POPC   C1A30399  31.437  18.330   8.555
 7797POPC   D2A30400  31.496  18.248   8.255
 7797POPC   C3A30401  31.452  18.237   7.955
 7797POPC   C4A30402  31.433  18.331   7.655
 7797POPC   C1B30403  31.263  18.175   8.555
 7797POPC   C2B30404  31.206  18.188   8.255
 7797POPC   C3B30405  31.210  18.192   7.955
 7797POPC   C4B30406  31.211  18.127   7.655
 7798POPC   NC330407  15.180  33.064   9.455
 7798POPC   PO430408  15.182  33.000   9.155
 7798POPC   GL130409  15.204  32.983   8.855
 7798POPC   GL230410  15.160  33.118   8.855
 7798POPC   C1A30411  15.142  33.050   8.555
 7798POPC   D2A30412  15.137  33.041   8.255
 7798POPC   C3A30413  15.192  33.009   7.955
 7798POPC   C4A30414  15.167  33.017   7.655
 7798POPC   C1B30415  15.148  33.233   8.555
 7798POPC   C2B30416  15.073  33.288   8.255
 7798POPC   C3B30417  15.111  33.298   7.955
 7798POPC   C4B30418  15.083  33.299   7.655
 7799POPC   NC330419  12.845  39.985   9.455
 7799POPC   PO430420  12.867  40.027   9.155
 7799POPC   GL130421  12.844  40.052   8.855
 7799POPC   GL230422  12.956  39.977   8.855
 7799POPC   C1A30423  12.832  39.965   8.555
 7799POPC   D2A30424  12.891  40.043   8.255
 7799POPC   C3A30425  12.820  40.030   7.955
 7799POPC   C4A30426  12.842  40.008   7.655
 7799POPC   C1B30427  13.061  39.893   8.555
 7799POPC   C2B30428  13.075  39.809   8.255
 7799POPC   C3B30429  13.043  39.859   7.955
 7799POPC   C4B30430  13.084  39.871   7.655
 7800POPC   NC330431   0.452   2.021   9.455
 7800POPC   PO430432   0.428   1.967   9.155
 7800POPC   GL130433   0.488   1.968   8.855
 7800POPC   GL230434   0.313   2.103   8.855
 7800POPC   C1A30435   0.403   2.027   8.555
 7800POPC   D2A30436   0.398   2.010   8.255
 7800POPC   C3A30437   0.439   1.999   7.955
 7800POPC   C4A30438   0.436   1.943   7.655
 7800POPC   C1B30439   0.236   2.186   8.555
 7800POPC   C2B30440   0.201   2.150   8.255
 7800POPC   C3B30441   0.261   2.133   7.955
 7800POPC   C4B30442   0.204   2.176   7.655
 7801POPC   NC330443  41.582   4.316   9.455
 7801POPC   PO430444  41.552   4.366   9.155
 7801POPC   GL130445  41.577   4.358   8.855
 7801POPC   GL230446  41.695   4.388   8.855
 7801POPC   C1A30447  41.542   4.271   8.555
 7801POPC   D2A30448  41.525   4.358   8.255
 7801POPC   C3A30449  41.596   4.367   7.955
 7801POPC   C4A30450  41.524   4.290   7.655
 7801POPC   C1B30451  41.726   4.492   8.555
 7801POPC   C2B30452  41.797   4.423   8.255
 7801POPC   C3B30453  41.787   4.503   7.955
 7801POPC   C4B30454  41.725   4.512   7.655
 7802POPC   NC330455  26.077  28.416   9.455
 7802POPC   PO430456  26.089  28.328   9.155
 7802POPC   GL130457  26.023  28.357   8.855
 7802POPC   GL230458  25.926  28.398   8.855
 7802POPC   C1A30459  25.992  28.392   8.555
 7802POPC   D2A30460  26.059  28.356   8.255
 7802POPC   C3A30461  26.072  28.363   7.955
 7802POPC   C4A30462  26.081  28.324   7.655
 7802POPC   C1B30463  25.789  28.315   8.555
 7802POPC   C2B30464  25.795  28.352   8.255
 7802POPC   C3B30465  25.840  28.386   7.955
 7802POPC   C4B30466  25.837  28.309   7.655
 7803POPC   NC330467  36.165  11.340   9.455
 7803POPC   PO430468  36.168  11.318   9.155
 7803POPC   GL130469  36.139  11.345   8.855
 7803POPC   GL230470  36.096  11.190   8.855
 7803POPC   C1A30471  36.147  11.342   8.555
 7803POPC   D2A30472  36.080  11.334   8.255
 7803POPC   C3A30473  36.172  11.296   7.955
 7803POPC   C4A30474  36.104  11.328   7.655
 7803POPC   C1B30475  35.988  11.088   8.555
 7803POPC   C2B30476  36.009  11.059   8.255
 7803POPC   C3B30477  36.018  11.051   7.955
 7803POPC   C4B30478  36.006  11.123   7.655
 7804POPC   NC330479  25.283   2.025   9.455
 7804POPC   PO430480  25.298   1.995   9.155
 7804POPC   GL130481  25.295   1.981   8.855
 7804POPC   GL230482  25.287   1.842   8.855
 7804POPC   C1A30483  25.299   1.977   8.555
 7804POPC   D2A30484  25.220   2.039   8.255
 7804POPC   C3A30485  25.255   2.006   7.955
 7804POPC   C4A30486  25.231   2.038   7.655
 7804POPC   C1B30487  25.202   1.775   8.555
 7804POPC   C2B30488  25.247   1.750   8.255
 7804POPC   C3B30489  25.192   1.712   7.955
 7804POPC   C4B30490  25.245   1.766   7.655
 7805POPC   NC330491   9.786  39.214   9.455
 7805POPC   PO430492   9.792  39.242   9.155
 7805POPC   GL130493   9.739  39.231   8.855
 7805POPC   GL230494   9.649  39.261   8.855
 7805POPC   C1A30495   9.756  39.201   8.555
 7805POPC   D2A30496   9.776  39.241   8.255
 7805POPC   C3A30497   9.707  39.255   7.955
 7805POPC   C4A30498   9.783  39.266   7.655
 7805POPC   C1B30499   9.454  39.322   8.555
 7805POPC   C2B30500   9.483  39.321   8.255
 7805POPC   C3B30501   9.502  39.248   7.955
 7805POPC   C4B30502   9.548  39.302   7.655
 7806POPC   NC330503  25.269  24.538   9.455
 7806POPC   PO430504  25.247  24.496   9.155
 7806POPC   GL130505  25.272  24.501   8.855
 7806POPC   GL230506  25.174  24.626   8.855
 7806POPC   C1A30507  25.298  24.492   8.555
 7806POPC   D2A30508  25.303  24.527   8.255
 7806POPC   C3A30509  25.280  24.480   7.955
 7806POPC   C4A30510  25.296  24.500   7.655
 7806POPC   C1B30511  25.164  24.655   8.555
 7806POPC   C2B30512  25.134  24.704   8.255
 7806POPC   C3B30513  25.097  24.666   7.955
 7806POPC   C4B30514  25.160  24.669   7.655
 7807POPC   NC330515  38.437  35.356   9.455
 7807POPC   PO430516  38.426  35.307   9.155
 7807POPC   GL130517  38.493  35.368   8.855
 7807POPC   GL230518  38.444  35.467   8.855
 7807POPC   C1A30519  38.460  35.395   8.555
 7807POPC   D2A30520  38.497  35.348   8.255
 7807POPC   C3A30521  38.419  35.360   7.955
 7807POPC   C4A30522  38.481  35.354   7.655
 7807POPC   C1B30523  38.475  35.563   8.555
 7807POPC   C2B30524  38.493  35.620   8.255
 7807POPC   C3B30525  38.485  35.604   7.955
 7807POPC   C4B30526  38.462  35.637   7.655
 7808POPC   NC330527  38.412   5.875   9.455
 7808POPC   PO430528  38.481   5.890   9.155
 7808POPC   GL130529  38.486   5.858   8.855
 7808POPC   GL230530  38.330   5.919   8.855
 7808POPC   C1A30531  38.414   5.836   8.555
 7808POPC   D2A30532  38.477   5.853   8.255
 7808POPC   C3A30533  38.440   5.916   7.955
 7808POPC   C4A30534  38.460   5.836   7.655
 7808POPC   C1B30535  38.226   5.866   8.555
 7808POPC   C2B30536  38.245   5.918   8.255
 7808POPC   C3B30537  38.224   5.893   7.955
 7808POPC   C4B30538  38.229   5.950   7.655
 7809POPC   NC330539  11.336  16.771   9.455
 7809POPC   PO430540  11.325  16.756   9.155
 7809POPC   GL130541  11.276  16.693   8.855
 7809POPC   GL230542  11.309  16.645   8.855
 7809POPC   C1A30543  11.341  16.682   8.555
 7809POPC   D2A30544  11.297  16.756   8.255
 7809POPC   C3A30545  11.273  16.713   7.955
 7809POPC   C4A30546  11.288  16.733   7.655
 7809POPC   C1B30547  11.275  16.463   8.555
 7809POPC   C2B30548  11.243  16.435   8.255
 7809POPC   C3B30549  11.233  16.498   7.955
 7809POPC   C4B30550  11.302  16.509   7.655
 7810POPC   NC330551  29.189   7.418   9.455
 7810POPC   PO430552  29.158   7.389   9.155
 7810POPC   GL130553  29.176   7.376   8.855
 7810POPC   GL230554  29.249   7.272   8.855
 7810POPC   C1A30555  29.173   7.393   8.555
 7810POPC   D2A30556  29.147   7.405   8.255
 7810POPC   C3A30557  29.100   7.445   7.955
 7810POPC   C4A30558  29.127   7.454   7.655
 7810POPC   C1B30559  29.310   7.233   8.555
 7810POPC   C2B30560  29.330   7.168   8.255
 7810POPC   C3B30561  29.325   7.241   7.955
 7810POPC   C4B30562  29.274   7.171   7.655
 7811POPC   NC330563  43.114  43.093   9.455
 7811POPC   PO430564  43.076  43.095   9.155
 7811POPC   GL130565  43.151  43.110   8.855
 7811POPC   GL230566  43.157  43.265   8.855
 7811POPC   C1A30567  43.089  43.063   8.555
 7811POPC   D2A30568  43.147  43.121   8.255
 7811POPC   C3A30569  43.112  43.160   7.955
 7811POPC   C4A30570  43.082  43.067   7.655
 7811POPC   C1B30571  43.269  43.370   8.555
 7811POPC   C2B30572  43.192  43.372   8.255
 7811POPC   C3B30573  43.278  43.319   7.955
 7811POPC   C4B30574  43.260  43.328   7.655
 7812POPC   NC330575  30.670  22.173   9.455
 7812POPC   PO430576  30.707  22.128   9.155
 7812POPC   GL130577  30.693  22.120   8.855
 7812POPC   GL230578  30.582  22.112   8.855
 7812POPC   C1A30579  30.689  22.164   8.555
 7812POPC   D2A30580  30.647  22.117   8.255
 7812POPC   C3A30581  30.656  22.116   7.955
 7812POPC   C4A30582  30.701  22.177   7.655
 7812POPC   C1B30583  30.439  22.142   8.555
 7812POPC   C2B30584  30.408  22.131   8.255
 7812POPC   C3B30585  30.428  22.144   7.955
 7812POPC   C4B30586  30.455  22.167   7.655
 7813POPC   NC330587  36.932  26.778   9.455
 7813POPC   PO430588  36.879  26.853   9.155
 7813POPC   GL130589  36.893  26.856   8.855
 7813POPC   GL230590  36.946  26.672   8.855
 7813POPC   C1A30591  36.909  26.835   8.555
 7813POPC   D2A30592  36.921  26.810   8.255
 7813POPC   C3A30593  36.948  26.801   7.955
 7813POPC   C4A30594  36.929  26.787   7.655
 7813POPC   C1B30595  36.984  26.578   8.555
 7813POPC   C2B30596  36.977  26.556   8.255
 7813POPC   C3B30597  36.993  26.602   7.955
 7813POPC   C4B30598  37.007  26.550   7.655
 7814POPC   NC330599  14.367  30.695   9.455
 7814POPC   PO430600  14.355  30.647   9.155
 7814POPC   GL130601  14.392  30.668   8.855
 7814POPC   GL230602  14.484  30.731   8.855
 7814POPC   C1A30603  14.398  30.746   8.555
 7814POPC   D2A30604  14.415  30.736   8.255
 7814POPC   C3A30605  14.391  30.660   7.955
 7814POPC   C4A30606  14.436  30.728   7.655
 7814POPC   C1B30607  14.647  30.711   8.555
 7814POPC   C2B30608  14.643  30.691   8.255
 7814POPC   C3B30609  14.614  30.763   7.955
 7814POPC   C4B30610  14.607  30.785   7.655
 7815POPC   NC330611   2.030  33.071   9.455
 7815POPC   PO430612   1.943  33.000   9.155
 7815POPC   GL130613   2.016  33.064   8.855
 7815POPC   GL230614   1.982  32.876   8.855
 7815POPC   C1A30615   1.987  33.071   8.555
 7815POPC   D2A30616   1.940  33.069   8.255
 7815POPC   C3A30617   2.009  33.005   7.955
 7815POPC   C4A30618   1.944  33.026   7.655
 7815POPC   C1B30619   1.875  32.821   8.555
 7815POPC   C2B30620   1.859  32.823   8.255
 7815POPC   C3B30621   1.916  32.826   7.955
 7815POPC   C4B30622   1.870  32.836   7.655
 7816POPC   NC330623  38.447  29.899   9.455
 7816POPC   PO430624  38.448  29.892   9.155
 7816POPC   GL130625  38.481  29.912   8.855
 7816POPC   GL230626  38.443  30.027   8.855
 7816POPC   C1A30627  38.483  29.951   8.555
 7816POPC   D2A30628  38.478  29.970   8.255
 7816POPC   C3A30629  38.459  29.943   7.955
 7816POPC   C4A30630  38.481  29.930   7.655
 7816POPC   C1B30631  38.512  30.203   8.555
 7816POPC   C2B30632  38.448  30.149   8.255
 7816POPC   C3B30633  38.480  30.144   7.955
 7816POPC   C4B30634  38.433  30.124   7.655
 7817POPC   NC330635  41.536   1.965   9.455
 7817POPC   PO430636  41.565   1.977   9.155
 7817POPC   GL130637  41.515   1.984   8.855
 7817POPC   GL230638  41.483   1.827   8.855
 7817POPC   C1A30639  41.602   2.034   8.555
 7817POPC   D2A30640  41.560   1.980   8.255
 7817POPC   C3A30641  41.512   2.032   7.955
 7817POPC   C4A30642  41.608   1.951   7.655
 7817POPC   C1B30643  41.525   1.756   8.555
 7817POPC   C2B30644  41.487   1.768   8.255
 7817POPC   C3B30645  41.453   1.775   7.955
 7817POPC   C4B30646  41.516   1.794   7.655
 7818POPC   NC330647   0.456   5.126   9.455
 7818POPC   PO430648   0.455   5.049   9.155
 7818POPC   GL130649   0.475   5.128   8.855
 7818POPC   GL230650   0.610   5.142   8.855
 7818POPC   C1A30651   0.417   5.086   8.555
 7818POPC   D2A30652   0.479   5.122   8.255
 7818POPC   C3A30653   0.471   5.133   7.955
 7818POPC   C4A30654   0.440   5.122   7.655
 7818POPC   C1B30655   0.647   5.162   8.555
 7818POPC   C2B30656   0.666   5.124   8.255
 7818POPC   C3B30657   0.678   5.090   7.955
 7818POPC   C4B30658   0.711   5.089   7.655
 7819POPC   NC330659   0.449  33.064   9.455
 7819POPC   PO430660   0.396  33.010   9.155
 7819POPC   GL130661   0.392  33.021   8.855
 7819POPC   GL230662   0.414  33.194   8.855
 7819POPC   C1A30663   0.465  33.060   8.555
 7819POPC   D2A30664   0.432  33.060   8.255
 7819POPC   C3A30665   0.431  33.018   7.955
 7819POPC   C4A30666   0.396  32.991   7.655
 7819POPC   C1B30667   0.433  33.286   8.555
 7819POPC   C2B30668   0.479  33.250   8.255
 7819POPC   C3B30669   0.438  33.262   7.955
 7819POPC   C4B30670   0.467  33.236   7.655
 7820POPC   NC330671  12.091  19.011   9.455
 7820POPC   PO430672  12.078  19.030   9.155
 7820POPC   GL130673  12.122  19.083   8.855
 7820POPC   GL230674  12.236  19.142   8.855
 7820POPC   C1A30675  12.059  19.069   8.555
 7820POPC   D2A30676  12.030  19.021   8.255
 7820POPC   C3A30677  12.047  19.034   7.955
 7820POPC   C4A30678  12.076  19.103   7.655
 7820POPC   C1B30679  12.322  19.119   8.555
 7820POPC   C2B30680  12.346  19.105   8.255
 7820POPC   C3B30681  12.343  19.142   7.955
 7820POPC   C4B30682  12.319  19.170   7.655
 7821POPC   NC330683  15.949  43.062   9.455
 7821POPC   PO430684  16.002  43.156   9.155
 7821POPC   GL130685  15.911  43.087   8.855
 7821POPC   GL230686  16.020  43.229   8.855
 7821POPC   C1A30687  15.917  43.063   8.555
 7821POPC   D2A30688  15.989  43.088   8.255
 7821POPC   C3A30689  15.916  43.151   7.955
 7821POPC   C4A30690  15.943  43.126   7.655
 7821POPC   C1B30691  16.106  43.269   8.555
 7821POPC   C2B30692  16.083  43.258   8.255
 7821POPC   C3B30693  16.152  43.311   7.955
 7821POPC   C4B30694  16.173  43.260   7.655
 7822POPC   NC330695  13.655   4.323   9.455
 7822POPC   PO430696  13.670   4.348   9.155
 7822POPC   GL130697  13.631   4.282   8.855
 7822POPC   GL230698  13.633   4.489   8.855
 7822POPC   C1A30699  13.581   4.356   8.555
 7822POPC   D2A30700  13.671   4.339   8.255
 7822POPC   C3A30701  13.615   4.342   7.955
 7822POPC   C4A30702  13.654   4.324   7.655
 7822POPC   C1B30703  13.614   4.604   8.555
 7822POPC   C2B30704  13.640   4.528   8.255
 7822POPC   C3B30705  13.657   4.598   7.955
 7822POPC   C4B30706  13.643   4.546   7.655
 7823POPC   NC330707  23.703   0.461   9.455
 7823POPC   PO430708  23.725   0.407   9.155
 7823POPC   GL130709  23.693   0.453   8.855
 7823POPC   GL230710  23.600   0.473   8.855
 7823POPC   C1A30711  23.675   0.476   8.555
 7823POPC   D2A30712  23.688   0.488   8.255
 7823POPC   C3A30713  23.748   0.466   7.955
 7823POPC   C4A30714  23.665   0.435   7.655
 7823POPC   C1B30715  23.455   0.443   8.555
 7823POPC   C2B30716  23.507   0.509   8.255
 7823POPC   C3B30717  23.437   0.523   7.955
 7823POPC   C4B30718  23.437   0.472   7.655
 7824POPC   NC330719  21.337  33.030   9.455
 7824POPC   PO430720  21.353  33.054   9.155
 7824POPC   GL130721  21.428  33.034   8.855
 7824POPC   GL230722  21.442  33.125   8.855
 7824POPC   C1A30723  21.338  33.043   8.555
 7824POPC   D2A30724  21.345  32.982   8.255
 7824POPC   C3A30725  21.425  32.982   7.955
 7824POPC   C4A30726  21.395  32.984   7.655
 7824POPC   C1B30727  21.581  33.131   8.555
 7824POPC   C2B30728  21.590  33.159   8.255
 7824POPC   C3B30729  21.560  33.168   7.955
 7824POPC   C4B30730  21.631  33.181   7.655
 7825POPC   NC330731  12.112  33.826   9.455
 7825POPC   PO430732  12.064  33.771   9.155
 7825POPC   GL130733  12.044  33.848   8.855
 7825POPC   GL230734  11.930  33.819   8.855
 7825POPC   C1A30735  12.105  33.764   8.555
 7825POPC   D2A30736  12.072  33.771   8.255
 7825POPC   C3A30737  12.095  33.829   7.955
 7825POPC   C4A30738  12.061  33.750   7.655
 7825POPC   C1B30739  11.828  33.901   8.555
 7825POPC   C2B30740  11.832  33.898   8.255
 7825POPC   C3B30741  11.863  33.898   7.955
 7825POPC   C4B30742  11.850  33.943   7.655
 7826POPC   NC330743   2.006  31.477   9.455
 7826POPC   PO430744   1.956  31.437   9.155
 7826POPC   GL130745   1.940  31.438   8.855
 7826POPC   GL230746   1.863  31.486   8.855
 7826POPC   C1A30747   1.999  31.496   8.555
 7826POPC   D2A30748   2.036  31.499   8.255
 7826POPC   C3A30749   2.013  31.507   7.955
 7826POPC   C4A30750   2.013  31.449   7.655
 7826POPC   C1B30751   1.715  31.555   8.555
 7826POPC   C2B30752   1.789  31.576   8.255
 7826POPC   C3B30753   1.755  31.530   7.955
 7826POPC   C4B30754   1.805  31.576   7.655
 7827POPC   NC330755  22.966  12.110   9.455
 7827POPC   PO430756  22.986  12.091   9.155
 7827POPC   GL130757  22.901  12.115   8.855
 7827POPC   GL230758  23.069  12.165   8.855
 7827POPC   C1A30759  22.982  12.070   8.555
 7827POPC   D2A30760  22.980  12.066   8.255
 7827POPC   C3A30761  22.950  12.064   7.955
 7827POPC   C4A30762  22.902  12.037   7.655
 7827POPC   C1B30763  23.072  12.249   8.555
 7827POPC   C2B30764  23.128  12.286   8.255
 7827POPC   C3B30765  23.099  12.293   7.955
 7827POPC   C4B30766  23.137  12.249   7.655
 7828POPC   NC330767   5.111  10.479   9.455
 7828POPC   PO430768   5.055  10.527   9.155
 7828POPC   GL130769   5.060  10.490   8.855
 7828POPC   GL230770   5.081  10.631   8.855
 7828POPC   C1A30771   5.115  10.494   8.555
 7828POPC   D2A30772   5.083  10.566   8.255
 7828POPC   C3A30773   5.090  10.548   7.955
 7828POPC   C4A30774   5.118  10.535   7.655
 7828POPC   C1B30775   5.017  10.727   8.555
 7828POPC   C2B30776   5.003  10.735   8.255
 7828POPC   C3B30777   4.947  10.727   7.955
 7828POPC   C4B30778   5.020  10.748   7.655
 7829POPC   NC330779  41.558  34.548   9.455
 7829POPC   PO430780  41.569  34.576   9.155
 7829POPC   GL130781  41.518  34.580   8.855
 7829POPC   GL230782  41.508  34.458   8.855
 7829POPC   C1A30783  41.562  34.596   8.555
 7829POPC   D2A30784  41.539  34.607   8.255
 7829POPC   C3A30785  41.532  34.608   7.955
 7829POPC   C4A30786  41.595  34.565   7.655
 7829POPC   C1B30787  41.348  34.458   8.555
 7829POPC   C2B30788  41.309  34.375   8.255
 7829POPC   C3B30789  41.357  34.398   7.955
 7829POPC   C4B30790  41.341  34.418   7.655
 7830POPC   NC330791  41.527   1.243   9.455
 7830POPC   PO430792  41.602   1.261   9.155
 7830POPC   GL130793  41.515   1.195   8.855
 7830POPC   GL230794  41.452   1.237   8.855
 7830POPC   C1A30795  41.597   1.186   8.555
 7830POPC   D2A30796  41.541   1.230   8.255
 7830POPC   C3A30797  41.594   1.232   7.955
 7830POPC   C4A30798  41.539   1.171   7.655
 7830POPC   C1B30799  41.315   1.167   8.555
 7830POPC   C2B30800  41.360   1.151   8.255
 7830POPC   C3B30801  41.352   1.204   7.955
 7830POPC   C4B30802  41.303   1.149   7.655
 7831POPC   NC330803  44.670  27.554   9.455
 7831POPC   PO430804  44.663  27.551   9.155
 7831POPC   GL130805  44.665  27.612   8.855
 7831POPC   GL230806  44.525  27.694   8.855
 7831POPC   C1A30807  44.622  27.555   8.555
 7831POPC   D2A30808  44.677  27.572   8.255
 7831POPC   C3A30809  44.661  27.620   7.955
 7831POPC   C4A30810  44.648  27.601   7.655
 7831POPC   C1B30811  44.412  27.742   8.555
 7831POPC   C2B30812  44.435  27.706   8.255
 7831POPC   C3B30813  44.481  27.733   7.955
 7831POPC   C4B30814  44.460  27.731   7.655
 7832POPC   NC330815  13.665  20.595   9.455
 7832POPC   PO430816  13.676  20.621   9.155
 7832POPC   GL130817  13.606  20.591   8.855
 7832POPC   GL230818  13.557  20.742   8.855
 7832POPC   C1A30819  13.578  20.634   8.555
 7832POPC   D2A30820  13.666  20.639   8.255
 7832POPC   C3A30821  13.664  20.609   7.955
 7832POPC   C4A30822  13.660  20.643   7.655
 7832POPC   C1B30823  13.602  20.838   8.555
 7832POPC   C2B30824  13.619  20.890   8.255
 7832POPC   C3B30825  13.569  20.865   7.955
 7832POPC   C4B30826  13.533  20.854   7.655
 7833POPC   NC330827  43.155  17.480   9.455
 7833POPC   PO430828  43.083  17.501   9.155
 7833POPC   GL130829  43.140  17.519   8.855
 7833POPC   GL230830  43.190  17.341   8.855
 7833POPC   C1A30831  43.127  17.535   8.555
 7833POPC   D2A30832  43.150  17.549   8.255
 7833POPC   C3A30833  43.063  17.527   7.955
 7833POPC   C4A30834  43.149  17.555   7.655
 7833POPC   C1B30835  43.217  17.270   8.555
 7833POPC   C2B30836  43.209  17.264   8.255
 7833POPC   C3B30837  43.198  17.295   7.955
 7833POPC   C4B30838  43.129  17.285   7.655
 7834POPC   NC330839  14.372   0.422   9.455
 7834POPC   PO430840  14.401   0.407   9.155
 7834POPC   GL130841  14.438   0.406   8.855
 7834POPC   GL230842  14.542   0.427   8.855
 7834POPC   C1A30843  14.363   0.434   8.555
 7834POPC   D2A30844  14.375   0.394   8.255
 7834POPC   C3A30845  14.386   0.398   7.955
 7834POPC   C4A30846  14.378   0.452   7.655
 7834POPC   C1B30847  14.668   0.318   8.555
 7834POPC   C2B30848  14.596   0.357   8.255
 7834POPC   C3B30849  14.646   0.388   7.955
 7834POPC   C4B30850  14.616   0.379   7.655
 7835POPC   NC330851  13.639  28.416   9.455
 7835POPC   PO430852  13.624  28.384   9.155
 7835POPC   GL130853  13.636  28.347   8.855
 7835POPC   GL230854  13.631  28.283   8.855
 7835POPC   C1A30855  13.639  28.417   8.555
 7835POPC   D2A30856  13.645  28.357   8.255
 7835POPC   C3A30857  13.613  28.359   7.955
 7835POPC   C4A30858  13.579  28.418   7.655
 7835POPC   C1B30859  13.511  28.113   8.555
 7835POPC   C2B30860  13.510  28.111   8.255
 7835POPC   C3B30861  13.519  28.144   7.955
 7835POPC   C4B30862  13.574  28.121   7.655
 7836POPC   NC330863  35.380  12.057   9.455
 7836POPC   PO430864  35.356  12.036   9.155
 7836POPC   GL130865  35.314  12.112   8.855
 7836POPC   GL230866  35.289  11.987   8.855
 7836POPC   C1A30867  35.308  12.027   8.555
 7836POPC   D2A30868  35.375  12.092   8.255
 7836POPC   C3A30869  35.340  12.043   7.955
 7836POPC   C4A30870  35.384  12.062   7.655
 7836POPC   C1B30871  35.342  11.792   8.555
 7836POPC   C2B30872  35.355  11.872   8.255
 7836POPC   C3B30873  35.343  11.806   7.955
 7836POPC   C4B30874  35.274  11.829   7.655
 7837POPC   NC330875  17.535  12.059   9.455
 7837POPC   PO430876  17.487  12.091   9.155
 7837POPC   GL130877  17.524  12.055   8.855
 7837POPC   GL230878  17.405  12.031   8.855
 7837POPC   C1A30879  17.484  12.117   8.555
 7837POPC   D2A30880  17.510  12.091   8.255
 7837POPC   C3A30881  17.460  12.121   7.955
 7837POPC   C4A30882  17.482  12.037   7.655
 7837POPC   C1B30883  17.336  11.926   8.555
 7837POPC   C2B30884  17.296  11.888   8.255
 7837POPC   C3B30885  17.344  11.932   7.955
 7837POPC   C4B30886  17.284  11.926   7.655
 7838POPC   NC330887  13.672  13.622   9.455
 7838POPC   PO430888  13.647  13.617   9.155
 7838POPC   GL130889  13.597  13.610   8.855
 7838POPC   GL230890  13.736  13.485   8.855
 7838POPC   C1A30891  13.605  13.598   8.555
 7838POPC   D2A30892  13.627  13.600   8.255
 7838POPC   C3A30893  13.625  13.656   7.955
 7838POPC   C4A30894  13.654  13.662   7.655
 7838POPC   C1B30895  13.789  13.390   8.555
 7838POPC   C2B30896  13.811  13.428   8.255
 7838POPC   C3B30897  13.801  13.374   7.955
 7838POPC   C4B30898  13.726  13.403   7.655
 7839POPC   NC330899  18.307   3.535   9.455
 7839POPC   PO430900  18.274   3.495   9.155
 7839POPC   GL130901  18.331   3.553   8.855
 7839POPC   GL230902  18.176   3.645   8.855
 7839POPC   C1A30903  18.252   3.574   8.555
 7839POPC   D2A30904  18.279   3.540   8.255
 7839POPC   C3A30905  18.292   3.512   7.955
 7839POPC   C4A30906  18.270   3.584   7.655
 7839POPC   C1B30907  18.088   3.709   8.555
 7839POPC   C2B30908  18.144   3.742   8.255
 7839POPC   C3B30909  18.150   3.709   7.955
 7839POPC   C4B30910  18.106   3.743   7.655
 7840POPC   NC330911   5.099  17.553   9.455
 7840POPC   PO430912   5.056  17.475   9.155
 7840POPC   GL130913   5.094  17.473   8.855
 7840POPC   GL230914   5.178  17.436   8.855
 7840POPC   C1A30915   5.110  17.512   8.555
 7840POPC   D2A30916   5.066  17.489   8.255
 7840POPC   C3A30917   5.103  17.547   7.955
 7840POPC   C4A30918   5.090  17.497   7.655
 7840POPC   C1B30919   5.268  17.390   8.555
 7840POPC   C2B30920   5.271  17.369   8.255
 7840POPC   C3B30921   5.337  17.358   7.955
 7840POPC   C4B30922   5.292  17.338   7.655
 7841POPC   NC330923  29.963  43.113   9.455
 7841POPC   PO430924  29.956  43.092   9.155
 7841POPC   GL130925  29.877  43.080   8.855
 7841POPC   GL230926  29.839  43.114   8.855
 7841POPC   C1A30927  29.945  43.124   8.555
 7841POPC   D2A30928  29.889  43.067   8.255
 7841POPC   C3A30929  29.883  43.063   7.955
 7841POPC   C4A30930  29.883  43.151   7.655
 7841POPC   C1B30931  29.708  43.075   8.555
 7841POPC   C2B30932  29.660  43.095   8.255
 7841POPC   C3B30933  29.703  43.115   7.955
 7841POPC   C4B30934  29.715  43.098   7.655
 7842POPC   NC330935  20.609  30.692   9.455
 7842POPC   PO430936  20.633  30.700   9.155
 7842POPC   GL130937  20.625  30.660   8.855
 7842POPC   GL230938  20.508  30.642   8.855
 7842POPC   C1A30939  20.574  30.725   8.555
 7842POPC   D2A30940  20.585  30.654   8.255
 7842POPC   C3A30941  20.652  30.683   7.955
 7842POPC   C4A30942  20.612  30.655   7.655
 7842POPC   C1B30943  20.403  30.583   8.555
 7842POPC   C2B30944  20.388  30.620   8.255
 7842POPC   C3B30945  20.379  30.665   7.955
 7842POPC   C4B30946  20.400  30.576   7.655
 7843POPC   NC330947  31.479  43.882   9.455
 7843POPC   PO430948  31.520  43.851   9.155
 7843POPC   GL130949  31.500  43.874   8.855
 7843POPC   GL230950  31.545  43.956   8.855
 7843POPC   C1A30951  31.470  43.852   8.555
 7843POPC   D2A30952  31.457  43.839   8.255
 7843POPC   C3A30953  31.437  43.904   7.955
 7843POPC   C4A30954  31.520  43.931   7.655
 7843POPC   C1B30955  31.698  44.056   8.555
 7843POPC   C2B30956  31.677  44.032   8.255
 7843POPC   C3B30957  31.707  44.061   7.955
 7843POPC   C4B30958  31.683  44.068   7.655
 7844POPC   NC330959  38.423  17.548   9.455
 7844POPC   PO430960  38.406  17.503   9.155
 7844POPC   GL130961  38.408  17.471   8.855
 7844POPC   GL230962  38.570  17.513   8.855
 7844POPC   C1A30963  38.434  17.483   8.555
 7844POPC   D2A30964  38.431  17.546   8.255
 7844POPC   C3A30965  38.426  17.475   7.955
 7844POPC   C4A30966  38.456  17.525   7.655
 7844POPC   C1B30967  38.703  17.517   8.555
 7844POPC   C2B30968  38.684  17.552   8.255
 7844POPC   C3B30969  38.691  17.486   7.955
 7844POPC   C4B30970  38.714  17.523   7.655
 7845POPC   NC330971  34.567   6.625   9.455
 7845POPC   PO430972  34.620   6.681   9.155
 7845POPC   GL130973  34.606   6.630   8.855
 7845POPC   GL230974  34.493   6.511   8.855
 7845POPC   C1A30975  34.574   6.676   8.555
 7845POPC   D2A30976  34.619   6.641   8.255
 7845POPC   C3A30977  34.590   6.637   7.955
 7845POPC   C4A30978  34.589   6.621   7.655
 7845POPC   C1B30979  34.373   6.478   8.555
 7845POPC   C2B30980  34.392   6.461   8.255
 7845POPC   C3B30981  34.362   6.432   7.955
 7845POPC   C4B30982  34.399   6.461   7.655
 7846POPC   NC330983  36.085   5.897   9.455
 7846POPC   PO430984  36.116   5.836   9.155
 7846POPC   GL130985  36.125   5.906   8.855
 7846POPC   GL230986  36.203   6.005   8.855
 7846POPC   C1A30987  36.148   5.875   8.555
 7846POPC   D2A30988  36.121   5.871   8.255
 7846POPC   C3A30989  36.149   5.918   7.955
 7846POPC   C4A30990  36.170   5.836   7.655
 7846POPC   C1B30991  36.314   6.068   8.555
 7846POPC   C2B30992  36.346   6.073   8.255
 7846POPC   C3B30993  36.312   6.044   7.955
 7846POPC   C4B30994  36.283   6.008   7.655
 7847POPC   NC330995  25.992  25.271   9.455
 7847POPC   PO430996  26.033  25.281   9.155
 7847POPC   GL130997  26.035  25.267   8.855
 7847POPC   GL230998  25.879  25.223   8.855
 7847POPC   C1A30999  26.070  25.276   8.555
 7847POPC   D2A31000  26.063  25.223   8.255
 7847POPC   C3A31001  26.054  25.255   7.955
 7847POPC   C4A31002  26.088  25.315   7.655
 7847POPC   C1B31003  25.760  25.220   8.555
 7847POPC   C2B31004  25.748  25.191   8.255
 7847POPC   C3B31005  25.832  25.225   7.955
 7847POPC   C4B31006  25.825  25.256   7.655
 7848POPC   NC331007  36.126  40.821   9.455
 7848POPC   PO431008  36.118  40.792   9.155
 7848POPC   GL131009  36.087  40.810   8.855
 7848POPC   GL231010  35.979  40.802   8.855
 7848POPC   C1A31011  36.079  40.774   8.555
 7848POPC   D2A31012  36.147  40.768   8.255
 7848POPC   C3A31013  36.171  40.755   7.955
 7848POPC   C4A31014  36.154  40.829   7.655
 7848POPC   C1B31015  35.881  40.944   8.555
 7848POPC   C2B31016  35.888  40.920   8.255
 7848POPC   C3B31017  35.964  40.951   7.955
 7848POPC   C4B31018  35.928  40.893   7.655
 7849POPC   NC331019  38.477  19.102   9.455
 7849POPC   PO431020  38.444  19.061   9.155
 7849POPC   GL131021  38.497  19.055   8.855
 7849POPC   GL231022  38.536  19.104   8.855
 7849POPC   C1A31023  38.493  19.106   8.555
 7849POPC   D2A31024  38.454  19.050   8.255
 7849POPC   C3A31025  38.440  19.079   7.955
 7849POPC   C4A31026  38.441  19.069   7.655
 7849POPC   C1B31027  38.714  19.191   8.555
 7849POPC   C2B31028  38.686  19.229   8.255
 7849POPC   C3B31029  38.677  19.217   7.955
 7849POPC   C4B31030  38.666  19.189   7.655
 7850POPC   NC331031  25.304  43.934   9.455
 7850POPC   PO431032  25.267  43.907   9.155
 7850POPC   GL131033  25.257  43.928   8.855
 7850POPC   GL231034  25.293  44.030   8.855
 7850POPC   C1A31035  25.239  43.854   8.555
 7850POPC   D2A31036  25.241  43.909   8.255
 7850POPC   C3A31037  25.220  43.922   7.955
 7850POPC   C4A31038  25.252  43.932   7.655
 7850POPC   C1B31039  25.287  44.121   8.555
 7850POPC   C2B31040  25.326  44.154   8.255
 7850POPC   C3B31041  25.256  44.147   7.955
 7850POPC   C4B31042  25.245  44.142   7.655
 7851POPC   NC331043  30.671  44.705   9.455
 7851POPC   PO431044  30.658  44.709   9.155
 7851POPC   GL131045  30.738  44.651   8.855
 7851POPC   GL231046  30.785  44.506   8.855
 7851POPC   C1A31047  30.673  44.683   8.555
 7851POPC   D2A31048  30.687  44.637   8.255
 7851POPC   C3A31049  30.655  44.640   7.955
 7851POPC   C4A31050  30.717  44.675   7.655
 7851POPC   C1B31051  30.761  44.400   8.555
 7851POPC   C2B31052  30.811  44.475   8.255
 7851POPC   C3B31053  30.800  44.433   7.955
 7851POPC   C4B31054  30.820  44.433   7.655
 7852POPC   NC331055  35.341  14.387   9.455
 7852POPC   PO431056  35.333  14.451   9.155
 7852POPC   GL131057  35.387  14.381   8.855
 7852POPC   GL231058  35.443  14.317   8.855
 7852POPC   C1A31059  35.330  14.427   8.555
 7852POPC   D2A31060  35.326  14.437   8.255
 7852POPC   C3A31061  35.397  14.375   7.955
 7852POPC   C4A31062  35.324  14.370   7.655
 7852POPC   C1B31063  35.522  14.302   8.555
 7852POPC   C2B31064  35.554  14.235   8.255
 7852POPC   C3B31065  35.616  14.262   7.955
 7852POPC   C4B31066  35.588  14.240   7.655
 7853POPC   NC331067  42.286   2.029   9.455
 7853POPC   PO431068  42.377   2.011   9.155
 7853POPC   GL131069  42.291   2.018   8.855
 7853POPC   GL231070  42.369   2.082   8.855
 7853POPC   C1A31071  42.297   1.941   8.555
 7853POPC   D2A31072  42.315   1.982   8.255
 7853POPC   C3A31073  42.367   1.943   7.955
 7853POPC   C4A31074  42.348   2.018   7.655
 7853POPC   C1B31075  42.497   2.182   8.555
 7853POPC   C2B31076  42.503   2.235   8.255
 7853POPC   C3B31077  42.539   2.182   7.955
 7853POPC   C4B31078  42.523   2.168   7.655
 7854POPC   NC331079  20.586  27.606   9.455
 7854POPC   PO431080  20.632  27.564   9.155
 7854POPC   GL131081  20.568  27.586   8.855
 7854POPC   GL231082  20.500  27.583   8.855
 7854POPC   C1A31083  20.581  27.627   8.555
 7854POPC   D2A31084  20.583  27.638   8.255
 7854POPC   C3A31085  20.636  27.545   7.955
 7854POPC   C4A31086  20.626  27.603   7.655
 7854POPC   C1B31087  20.402  27.561   8.555
 7854POPC   C2B31088  20.406  27.486   8.255
 7854POPC   C3B31089  20.341  27.514   7.955
 7854POPC   C4B31090  20.343  27.556   7.655
 7855POPC   NC331091  43.064  36.885   9.455
 7855POPC   PO431092  43.070  36.887   9.155
 7855POPC   GL131093  43.108  36.876   8.855
 7855POPC   GL231094  43.191  36.906   8.855
 7855POPC   C1A31095  43.154  36.870   8.555
 7855POPC   D2A31096  43.101  36.869   8.255
 7855POPC   C3A31097  43.077  36.905   7.955
 7855POPC   C4A31098  43.067  36.953   7.655
 7855POPC   C1B31099  43.316  36.947   8.555
 7855POPC   C2B31100  43.407  36.910   8.255
 7855POPC   C3B31101  43.392  36.946   7.955
 7855POPC   C4B31102  43.310  36.938   7.655
 7856POPC   NC331103  19.878  43.846   9.455
 7856POPC   PO431104  19.831  43.888   9.155
 7856POPC   GL131105  19.810  43.905   8.855
 7856POPC   GL231106  19.688  43.829   8.855
 7856POPC   C1A31107  19.829  43.913   8.555
 7856POPC   D2A31108  19.870  43.873   8.255
 7856POPC   C3A31109  19.833  43.864   7.955
 7856POPC   C4A31110  19.855  43.904   7.655
 7856POPC   C1B31111  19.551  43.815   8.555
 7856POPC   C2B31112  19.611  43.773   8.255
 7856POPC   C3B31113  19.565  43.751   7.955
 7856POPC   C4B31114  19.573  43.836   7.655
 7857POPC   NC331115  39.263  26.842   9.455
 7857POPC   PO431116  39.246  26.773   9.155
 7857POPC   GL131117  39.257  26.828   8.855
 7857POPC   GL231118  39.317  26.943   8.855
 7857POPC   C1A31119  39.269  26.855   8.555
 7857POPC   D2A31120  39.255  26.798   8.255
 7857POPC   C3A31121  39.279  26.782   7.955
 7857POPC   C4A31122  39.274  26.827   7.655
 7857POPC   C1B31123  39.407  27.032   8.555
 7857POPC   C2B31124  39.366  27.002   8.255
 7857POPC   C3B31125  39.414  26.989   7.955
 7857POPC   C4B31126  39.421  26.951   7.655
 7858POPC   NC331127  30.664  16.708   9.455
 7858POPC   PO431128  30.685  16.731   9.155
 7858POPC   GL131129  30.700  16.738   8.855
 7858POPC   GL231130  30.783  16.868   8.855
 7858POPC   C1A31131  30.680  16.736   8.555
 7858POPC   D2A31132  30.653  16.683   8.255
 7858POPC   C3A31133  30.676  16.705   7.955
 7858POPC   C4A31134  30.663  16.683   7.655
 7858POPC   C1B31135  30.891  16.969   8.555
 7858POPC   C2B31136  30.898  16.959   8.255
 7858POPC   C3B31137  30.843  16.925   7.955
 7858POPC   C4B31138  30.891  16.916   7.655
 7859POPC   NC331139  33.829   2.027   9.455
 7859POPC   PO431140  33.751   2.001   9.155
 7859POPC   GL131141  33.840   2.031   8.855
 7859POPC   GL231142  33.763   2.102   8.855
 7859POPC   C1A31143  33.812   1.999   8.555
 7859POPC   D2A31144  33.803   1.978   8.255
 7859POPC   C3A31145  33.826   1.993   7.955
 7859POPC   C4A31146  33.835   1.951   7.655
 7859POPC   C1B31147  33.741   2.234   8.555
 7859POPC   C2B31148  33.742   2.211   8.255
 7859POPC   C3B31149  33.792   2.255   7.955
 7859POPC   C4B31150  33.748   2.263   7.655
 7860POPC   NC331151  32.280   4.318   9.455
 7860POPC   PO431152  32.258   4.340   9.155
 7860POPC   GL131153  32.223   4.338   8.855
 7860POPC   GL231154  32.155   4.416   8.855
 7860POPC   C1A31155  32.218   4.284   8.555
 7860POPC   D2A31156  32.258   4.355   8.255
 7860POPC   C3A31157  32.264   4.286   7.955
 7860POPC   C4A31158  32.273   4.335   7.655
 7860POPC   C1B31159  32.012   4.439   8.555
 7860POPC   C2B31160  32.049   4.478   8.255
 7860POPC   C3B31161  32.082   4.443   7.955
 7860POPC   C4B31162  32.003   4.438   7.655
 7861POPC   NC331163  43.143  41.514   9.455
 7861POPC   PO431164  43.066  41.524   9.155
 7861POPC   GL131165  43.096  41.530   8.855
 7861POPC   GL231166  43.192  41.666   8.855
 7861POPC   C1A31167  43.061  41.545   8.555
 7861POPC   D2A31168  43.110  41.555   8.255
 7861POPC   C3A31169  43.127  41.600   7.955
 7861POPC   C4A31170  43.117  41.557   7.655
 7861POPC   C1B31171  43.145  41.760   8.555
 7861POPC   C2B31172  43.173  41.799   8.255
 7861POPC   C3B31173  43.242  41.748   7.955
 7861POPC   C4B31174  43.228  41.837   7.655
 7862POPC   NC331175  13.641  25.993   9.455
 7862POPC   PO431176  13.669  26.009   9.155
 7862POPC   GL131177  13.593  26.037   8.855
 7862POPC   GL231178  13.613  25.951   8.855
 7862POPC   C1A31179  13.581  26.072   8.555
 7862POPC   D2A31180  13.622  26.081   8.255
 7862POPC   C3A31181  13.653  26.011   7.955
 7862POPC   C4A31182  13.582  26.086   7.655
 7862POPC   C1B31183  13.663  25.773   8.555
 7862POPC   C2B31184  13.623  25.780   8.255
 7862POPC   C3B31185  13.631  25.760   7.955
 7862POPC   C4B31186  13.689  25.825   7.655
 7863POPC   NC331187  29.179   4.279   9.455
 7863POPC   PO431188  29.147   4.269   9.155
 7863POPC   GL131189  29.184   4.340   8.855
 7863POPC   GL231190  29.036   4.282   8.855
 7863POPC   C1A31191  29.179   4.336   8.555
 7863POPC   D2A31192  29.167   4.340   8.255
 7863POPC   C3A31193  29.108   4.320   7.955
 7863POPC   C4A31194  29.190   4.353   7.655
 7863POPC   C1B31195  28.897   4.197   8.555
 7863POPC   C2B31196  28.889   4.218   8.255
 7863POPC   C3B31197  28.884   4.157   7.955
 7863POPC   C4B31198  28.946   4.193   7.655
 7864POPC   NC331199   4.284  15.179   9.455
 7864POPC   PO431200   4.272  15.133   9.155
 7864POPC   GL131201   4.350  15.155   8.855
 7864POPC   GL231202   4.196  15.228   8.855
 7864POPC   C1A31203   4.366  15.157   8.555
 7864POPC   D2A31204   4.282  15.194   8.255
 7864POPC   C3A31205   4.307  15.181   7.955
 7864POPC   C4A31206   4.343  15.181   7.655
 7864POPC   C1B31207   4.150  15.335   8.555
 7864POPC   C2B31208   4.149  15.358   8.255
 7864POPC   C3B31209   4.136  15.363   7.955
 7864POPC   C4B31210   4.116  15.351   7.655
 7865POPC   NC331211  39.991  32.218   9.455
 7865POPC   PO431212  39.958  32.293   9.155
 7865POPC   GL131213  39.980  32.271   8.855
 7865POPC   GL231214  39.960  32.373   8.855
 7865POPC   C1A31215  40.037  32.245   8.555
 7865POPC   D2A31216  40.017  32.231   8.255
 7865POPC   C3A31217  39.976  32.292   7.955
 7865POPC   C4A31218  40.009  32.272   7.655
 7865POPC   C1B31219  39.984  32.446   8.555
 7865POPC   C2B31220  39.970  32.523   8.255
 7865POPC   C3B31221  39.907  32.468   7.955
 7865POPC   C4B31222  39.980  32.518   7.655
 7866POPC   NC331223   5.866  43.913   9.455
 7866POPC   PO431224   5.833  43.900   9.155
 7866POPC   GL131225   5.830  43.858   8.855
 7866POPC   GL231226   6.040  43.917   8.855
 7866POPC   C1A31227   5.851  43.876   8.555
 7866POPC   D2A31228   5.913  43.929   8.255
 7866POPC   C3A31229   5.894  43.871   7.955
 7866POPC   C4A31230   5.847  43.845   7.655
 7866POPC   C1B31231   6.109  43.914   8.555
 7866POPC   C2B31232   6.150  43.914   8.255
 7866POPC   C3B31233   6.117  43.844   7.955
 7866POPC   C4B31234   6.138  43.900   7.655
 7867POPC   NC331235   8.969  15.990   9.455
 7867POPC   PO431236   8.988  15.999   9.155
 7867POPC   GL131237   9.019  15.935   8.855
 7867POPC   GL231238   9.070  15.932   8.855
 7867POPC   C1A31239   8.976  15.933   8.555
 7867POPC   D2A31240   9.007  16.001   8.255
 7867POPC   C3A31241   8.949  15.948   7.955
 7867POPC   C4A31242   8.934  15.958   7.655
 7867POPC   C1B31243   9.206  15.989   8.555
 7867POPC   C2B31244   9.268  16.000   8.255
 7867POPC   C3B31245   9.186  15.980   7.955
 7867POPC   C4B31246   9.207  15.976   7.655
 7868POPC   NC331247  31.447  12.839   9.455
 7868POPC   PO431248  31.429  12.832   9.155
 7868POPC   GL131249  31.473  12.807   8.855
 7868POPC   GL231250  31.606  12.812   8.855
 7868POPC   C1A31251  31.484  12.898   8.555
 7868POPC   D2A31252  31.499  12.854   8.255
 7868POPC   C3A31253  31.437  12.826   7.955
 7868POPC   C4A31254  31.458  12.899   7.655
 7868POPC   C1B31255  31.770  12.817   8.555
 7868POPC   C2B31256  31.735  12.842   8.255
 7868POPC   C3B31257  31.700  12.790   7.955
 7868POPC   C4B31258  31.751  12.775   7.655
 7869POPC   NC331259  26.026   7.433   9.455
 7869POPC   PO431260  26.013   7.469   9.155
 7869POPC   GL131261  26.034   7.372   8.855
 7869POPC   GL231262  25.968   7.261   8.855
 7869POPC   C1A31263  25.994   7.410   8.555
 7869POPC   D2A31264  26.026   7.379   8.255
 7869POPC   C3A31265  26.042   7.396   7.955
 7869POPC   C4A31266  26.009   7.426   7.655
 7869POPC   C1B31267  25.997   7.236   8.555
 7869POPC   C2B31268  25.967   7.145   8.255
 7869POPC   C3B31269  25.907   7.200   7.955
 7869POPC   C4B31270  25.968   7.161   7.655
 7870POPC   NC331271  27.617  43.096   9.455
 7870POPC   PO431272  27.564  43.097   9.155
 7870POPC   GL131273  27.598  43.119   8.855
 7870POPC   GL231274  27.575  42.945   8.855
 7870POPC   C1A31275  27.604  43.105   8.555
 7870POPC   D2A31276  27.622  43.129   8.255
 7870POPC   C3A31277  27.605  43.062   7.955
 7870POPC   C4A31278  27.588  43.105   7.655
 7870POPC   C1B31279  27.648  42.841   8.555
 7870POPC   C2B31280  27.623  42.893   8.255
 7870POPC   C3B31281  27.638  42.876   7.955
 7870POPC   C4B31282  27.597  42.827   7.655
 7871POPC   NC331283  35.314  10.493   9.455
 7871POPC   PO431284  35.353  10.542   9.155
 7871POPC   GL131285  35.313  10.489   8.855
 7871POPC   GL231286  35.303  10.658   8.855
 7871POPC   C1A31287  35.386  10.549   8.555
 7871POPC   D2A31288  35.385  10.552   8.255
 7871POPC   C3A31289  35.314  10.558   7.955
 7871POPC   C4A31290  35.323  10.553   7.655
 7871POPC   C1B31291  35.234  10.771   8.555
 7871POPC   C2B31292  35.263  10.761   8.255
 7871POPC   C3B31293  35.282  10.790   7.955
 7871POPC   C4B31294  35.299  10.723   7.655
 7872POPC   NC331295  24.493  21.338   9.455
 7872POPC   PO431296  24.511  21.413   9.155
 7872POPC   GL131297  24.458  21.377   8.855
 7872POPC   GL231298  24.540  21.338   8.855
 7872POPC   C1A31299  24.535  21.423   8.555
 7872POPC   D2A31300  24.447  21.416   8.255
 7872POPC   C3A31301  24.494  21.398   7.955
 7872POPC   C4A31302  24.516  21.393   7.655
 7872POPC   C1B31303  24.708  21.210   8.555
 7872POPC   C2B31304  24.692  21.201   8.255
 7872POPC   C3B31305  24.649  21.246   7.955
 7872POPC   C4B31306  24.735  21.269   7.655
 7873POPC   NC331307  43.093  22.183   9.455
 7873POPC   PO431308  43.118  22.133   9.155
 7873POPC   GL131309  43.130  22.199   8.855
 7873POPC   GL231310  43.112  22.040   8.855
 7873POPC   C1A31311  43.087  22.136   8.555
 7873POPC   D2A31312  43.149  22.189   8.255
 7873POPC   C3A31313  43.074  22.160   7.955
 7873POPC   C4A31314  43.097  22.204   7.655
 7873POPC   C1B31315  43.090  21.922   8.555
 7873POPC   C2B31316  43.083  21.887   8.255
 7873POPC   C3B31317  43.114  21.895   7.955
 7873POPC   C4B31318  43.088  21.863   7.655
 7874POPC   NC331319  33.022   8.220   9.455
 7874POPC   PO431320  33.002   8.233   9.155
 7874POPC   GL131321  33.012   8.198   8.855
 7874POPC   GL231322  32.978   8.353   8.855
 7874POPC   C1A31323  33.070   8.173   8.555
 7874POPC   D2A31324  32.983   8.162   8.255
 7874POPC   C3A31325  32.986   8.197   7.955
 7874POPC   C4A31326  33.004   8.244   7.655
 7874POPC   C1B31327  32.967   8.431   8.555
 7874POPC   C2B31328  32.990   8.444   8.255
 7874POPC   C3B31329  32.934   8.388   7.955
 7874POPC   C4B31330  32.971   8.486   7.655
 7875POPC   NC331331  42.320  26.066   9.455
 7875POPC   PO431332  42.368  26.087   9.155
 7875POPC   GL131333  42.342  26.034   8.855
 7875POPC   GL231334  42.344  26.171   8.855
 7875POPC   C1A31335  42.298  26.045   8.555
 7875POPC   D2A31336  42.360  26.057   8.255
 7875POPC   C3A31337  42.314  26.053   7.955
 7875POPC   C4A31338  42.316  26.064   7.655
 7875POPC   C1B31339  42.342  26.309   8.555
 7875POPC   C2B31340  42.294  26.259   8.255
 7875POPC   C3B31341  42.325  26.311   7.955
 7875POPC   C4B31342  42.337  26.273   7.655
 7876POPC   NC331343  10.498  35.328   9.455
 7876POPC   PO431344  10.553  35.371   9.155
 7876POPC   GL131345  10.556  35.329   8.855
 7876POPC   GL231346  10.654  35.381   8.855
 7876POPC   C1A31347  10.523  35.391   8.555
 7876POPC   D2A31348  10.486  35.338   8.255
 7876POPC   C3A31349  10.479  35.381   7.955
 7876POPC   C4A31350  10.550  35.345   7.655
 7876POPC   C1B31351  10.788  35.460   8.555
 7876POPC   C2B31352  10.729  35.453   8.255
 7876POPC   C3B31353  10.708  35.456   7.955
 7876POPC   C4B31354  10.708  35.476   7.655
 7877POPC   NC331355  12.859  40.803   9.455
 7877POPC   PO431356  12.835  40.739   9.155
 7877POPC   GL131357  12.861  40.799   8.855
 7877POPC   GL231358  12.718  40.801   8.855
 7877POPC   C1A31359  12.873  40.759   8.555
 7877POPC   D2A31360  12.857  40.807   8.255
 7877POPC   C3A31361  12.811  40.798   7.955
 7877POPC   C4A31362  12.867  40.736   7.655
 7877POPC   C1B31363  12.661  40.818   8.555
 7877POPC   C2B31364  12.608  40.891   8.255
 7877POPC   C3B31365  12.585  40.849   7.955
 7877POPC   C4B31366  12.661  40.867   7.655
 7878POPC   NC331367  33.065  15.177   9.455
 7878POPC   PO431368  33.002  15.180   9.155
 7878POPC   GL131369  33.047  15.144   8.855
 7878POPC   GL231370  33.046  15.064   8.855
 7878POPC   C1A31371  33.048  15.223   8.555
 7878POPC   D2A31372  33.056  15.193   8.255
 7878POPC   C3A31373  33.015  15.170   7.955
 7878POPC   C4A31374  33.007  15.159   7.655
 7878POPC   C1B31375  33.169  14.930   8.555
 7878POPC   C2B31376  33.166  14.949   8.255
 7878POPC   C3B31377  33.148  15.009   7.955
 7878POPC   C4B31378  33.174  14.983   7.655
 7879POPC   NC331379  36.136  29.905   9.455
 7879POPC   PO431380  36.117  29.886   9.155
 7879POPC   GL131381  36.126  29.889   8.855
 7879POPC   GL231382  36.280  29.873   8.855
 7879POPC   C1A31383  36.167  29.929   8.555
 7879POPC   D2A31384  36.116  29.963   8.255
 7879POPC   C3A31385  36.162  29.964   7.955
 7879POPC   C4A31386  36.154  29.872   7.655
 7879POPC   C1B31387  36.393  29.934   8.555
 7879POPC   C2B31388  36.412  29.940   8.255
 7879POPC   C3B31389  36.350  29.898   7.955
 7879POPC   C4B31390  36.341  29.910   7.655
 7880POPC   NC331391   9.007  20.643   9.455
 7880POPC   PO431392   8.960  20.646   9.155
 7880POPC   GL131393   8.954  20.659   8.855
 7880POPC   GL231394   8.881  20.483   8.855
 7880POPC   C1A31395   9.014  20.653   8.555
 7880POPC   D2A31396   8.958  20.649   8.255
 7880POPC   C3A31397   8.982  20.573   7.955
 7880POPC   C4A31398   9.012  20.598   7.655
 7880POPC   C1B31399   8.787  20.413   8.555
 7880POPC   C2B31400   8.798  20.429   8.255
 7880POPC   C3B31401   8.764  20.411   7.955
 7880POPC   C4B31402   8.762  20.431   7.655
 7881POPC   NC331403  17.522  12.818   9.455
 7881POPC   PO431404  17.497  12.842   9.155
 7881POPC   GL131405  17.527  12.855   8.855
 7881POPC   GL231406  17.381  12.875   8.855
 7881POPC   C1A31407  17.460  12.817   8.555
 7881POPC   D2A31408  17.530  12.878   8.255
 7881POPC   C3A31409  17.482  12.884   7.955
 7881POPC   C4A31410  17.516  12.889   7.655
 7881POPC   C1B31411  17.319  12.979   8.555
 7881POPC   C2B31412  17.289  12.936   8.255
 7881POPC   C3B31413  17.324  12.966   7.955
 7881POPC   C4B31414  17.295  12.906   7.655
 7882POPC   NC331415  15.225  42.357   9.455
 7882POPC   PO431416  15.140  42.313   9.155
 7882POPC   GL131417  15.142  42.329   8.855
 7882POPC   GL231418  15.295  42.427   8.855
 7882POPC   C1A31419  15.177  42.349   8.555
 7882POPC   D2A31420  15.203  42.293   8.255
 7882POPC   C3A31421  15.215  42.327   7.955
 7882POPC   C4A31422  15.198  42.301   7.655
 7882POPC   C1B31423  15.392  42.399   8.555
 7882POPC   C2B31424  15.392  42.414   8.255
 7882POPC   C3B31425  15.412  42.484   7.955
 7882POPC   C4B31426  15.353  42.437   7.655
 7883POPC   NC331427  14.452  22.184   9.455
 7883POPC   PO431428  14.417  22.135   9.155
 7883POPC   GL131429  14.381  22.188   8.855
 7883POPC   GL231430  14.468  22.092   8.855
 7883POPC   C1A31431  14.364  22.196   8.555
 7883POPC   D2A31432  14.409  22.164   8.255
 7883POPC   C3A31433  14.372  22.172   7.955
 7883POPC   C4A31434  14.419  22.116   7.655
 7883POPC   C1B31435  14.620  22.056   8.555
 7883POPC   C2B31436  14.591  22.033   8.255
 7883POPC   C3B31437  14.610  22.021   7.955
 7883POPC   C4B31438  14.574  22.060   7.655
 7884POPC   NC331439  29.941  30.744   9.455
 7884POPC   PO431440  29.968  30.704   9.155
 7884POPC   GL131441  29.879  30.718   8.855
 7884POPC   GL231442  29.838  30.700   8.855
 7884POPC   C1A31443  29.887  30.726   8.555
 7884POPC   D2A31444  29.923  30.661   8.255
 7884POPC   C3A31445  29.899  30.701   7.955
 7884POPC   C4A31446  29.955  30.690   7.655
 7884POPC   C1B31447  29.638  30.673   8.555
 7884POPC   C2B31448  29.671  30.676   8.255
 7884POPC   C3B31449  29.632  30.649   7.955
 7884POPC   C4B31450  29.651  30.719   7.655
 7885POPC   NC331451  15.191   2.758   9.455
 7885POPC   PO431452  15.173   2.721   9.155
 7885POPC   GL131453  15.196   2.775   8.855
 7885POPC   GL231454  15.058   2.698   8.855
 7885POPC   C1A31455  15.159   2.742   8.555
 7885POPC   D2A31456  15.173   2.762   8.255
 7885POPC   C3A31457  15.207   2.758   7.955
 7885POPC   C4A31458  15.215   2.743   7.655
 7885POPC   C1B31459  14.950   2.693   8.555
 7885POPC   C2B31460  14.896   2.638   8.255
 7885POPC   C3B31461  14.918   2.660   7.955
 7885POPC   C4B31462  14.941   2.674   7.655
 7886POPC   NC331463  16.777  25.250   9.455
 7886POPC   PO431464  16.701  25.218   9.155
 7886POPC   GL131465  16.722  25.219   8.855
 7886POPC   GL231466  16.663  25.233   8.855
 7886POPC   C1A31467  16.763  25.224   8.555
 7886POPC   D2A31468  16.697  25.258   8.255
 7886POPC   C3A31469  16.740  25.216   7.955
 7886POPC   C4A31470  16.764  25.315   7.655
 7886POPC   C1B31471  16.502  25.154   8.555
 7886POPC   C2B31472  16.546  25.165   8.255
 7886POPC   C3B31473  16.558  25.162   7.955
 7886POPC   C4B31474  16.482  25.131   7.655
 7887POPC   NC331475  24.473  11.310   9.455
 7887POPC   PO431476  24.470  11.308   9.155
 7887POPC   GL131477  24.525  11.329   8.855
 7887POPC   GL231478  24.642  11.244   8.855
 7887POPC   C1A31479  24.482  11.297   8.555
 7887POPC   D2A31480  24.469  11.347   8.255
 7887POPC   C3A31481  24.494  11.274   7.955
 7887POPC   C4A31482  24.504  11.296   7.655
 7887POPC   C1B31483  24.718  11.195   8.555
 7887POPC   C2B31484  24.698  11.199   8.255
 7887POPC   C3B31485  24.709  11.254   7.955
 7887POPC   C4B31486  24.702  11.235   7.655
 7888POPC   NC331487   1.202   8.995   9.455
 7888POPC   PO431488   1.217   8.974   9.155
 7888POPC   GL131489   1.197   9.004   8.855
 7888POPC   GL231490   1.300   9.024   8.855
 7888POPC   C1A31491   1.202   9.014   8.555
 7888POPC   D2A31492   1.176   8.928   8.255
 7888POPC   C3A31493   1.194   8.959   7.955
 7888POPC   C4A31494   1.187   9.000   7.655
 7888POPC   C1B31495   1.451   9.088   8.555
 7888POPC   C2B31496   1.493   9.099   8.255
 7888POPC   C3B31497   1.437   9.108   7.955
 7888POPC   C4B31498   1.422   9.047   7.655
 7889POPC   NC331499  43.158  44.625   9.455
 7889POPC   PO431500  43.149  44.689   9.155
 7889POPC   GL131501  43.130  44.662   8.855
 7889POPC   GL231502  43.104  44.783   8.855
 7889POPC   C1A31503  43.076  44.646   8.555
 7889POPC   D2A31504  43.149  44.664   8.255
 7889POPC   C3A31505  43.129  44.677   7.955
 7889POPC   C4A31506  43.074  44.635   7.655
 7889POPC   C1B31507  43.169  44.878   8.555
 7889POPC   C2B31508  43.116  44.916   8.255
 7889POPC   C3B31509  43.132  44.900   7.955
 7889POPC   C4B31510  43.183  44.917   7.655
 7890POPC   NC331511  24.506  25.286   9.455
 7890POPC   PO431512  24.539  25.216   9.155
 7890POPC   GL131513  24.523  25.307   8.855
 7890POPC   GL231514  24.442  25.412   8.855
 7890POPC   C1A31515  24.483  25.250   8.555
 7890POPC   D2A31516  24.485  25.236   8.255
 7890POPC   C3A31517  24.511  25.294   7.955
 7890POPC   C4A31518  24.491  25.243   7.655
 7890POPC   C1B31519  24.430  25.514   8.555
 7890POPC   C2B31520  24.471  25.538   8.255
 7890POPC   C3B31521  24.485  25.511   7.955
 7890POPC   C4B31522  24.482  25.509   7.655
 7891POPC   NC331523  41.536  28.418   9.455
 7891POPC   PO431524  41.562  28.354   9.155
 7891POPC   GL131525  41.518  28.415   8.855
 7891POPC   GL231526  41.717  28.351   8.855
 7891POPC   C1A31527  41.572  28.413   8.555
 7891POPC   D2A31528  41.533  28.369   8.255
 7891POPC   C3A31529  41.532  28.366   7.955
 7891POPC   C4A31530  41.563  28.343   7.655
 7891POPC   C1B31531  41.760  28.438   8.555
 7891POPC   C2B31532  41.766  28.421   8.255
 7891POPC   C3B31533  41.818  28.341   7.955
 7891POPC   C4B31534  41.775  28.364   7.655
 7892POPC   NC331535   5.055  41.523   9.455
 7892POPC   PO431536   5.125  41.518   9.155
 7892POPC   GL131537   5.061  41.606   8.855
 7892POPC   GL231538   5.007  41.628   8.855
 7892POPC   C1A31539   5.107  41.595   8.555
 7892POPC   D2A31540   5.049  41.577   8.255
 7892POPC   C3A31541   5.064  41.586   7.955
 7892POPC   C4A31542   5.046  41.527   7.655
 7892POPC   C1B31543   4.804  41.597   8.555
 7892POPC   C2B31544   4.838  41.656   8.255
 7892POPC   C3B31545   4.858  41.642   7.955
 7892POPC   C4B31546   4.870  41.582   7.655
 7893POPC   NC331547   1.208  36.919   9.455
 7893POPC   PO431548   1.254  36.924   9.155
 7893POPC   GL131549   1.228  36.905   8.855
 7893POPC   GL231550   1.342  36.924   8.855
 7893POPC   C1A31551   1.213  36.918   8.555
 7893POPC   D2A31552   1.259  36.874   8.255
 7893POPC   C3A31553   1.183  36.932   7.955
 7893POPC   C4A31554   1.232  36.862   7.655
 7893POPC   C1B31555   1.455  36.899   8.555
 7893POPC   C2B31556   1.425  36.839   8.255
 7893POPC   C3B31557   1.443  36.902   7.955
 7893POPC   C4B31558   1.484  36.813   7.655
 7894POPC   NC331559  27.547  33.071   9.455
 7894POPC   PO431560  27.569  33.014   9.155
 7894POPC   GL131561  27.620  32.994   8.855
 7894POPC   GL231562  27.707  33.034   8.855
 7894POPC   C1A31563  27.554  33.046   8.555
 7894POPC   D2A31564  27.552  33.029   8.255
 7894POPC   C3A31565  27.635  33.056   7.955
 7894POPC   C4A31566  27.583  33.022   7.655
 7894POPC   C1B31567  27.825  33.156   8.555
 7894POPC   C2B31568  27.785  33.084   8.255
 7894POPC   C3B31569  27.808  33.078   7.955
 7894POPC   C4B31570  27.823  33.070   7.655
 7895POPC   NC331571  20.586  16.727   9.455
 7895POPC   PO431572  20.576  16.704   9.155
 7895POPC   GL131573  20.581  16.742   8.855
 7895POPC   GL231574  20.692  16.737   8.855
 7895POPC   C1A31575  20.651  16.713   8.555
 7895POPC   D2A31576  20.580  16.703   8.255
 7895POPC   C3A31577  20.595  16.760   7.955
 7895POPC   C4A31578  20.568  16.758   7.655
 7895POPC   C1B31579  20.866  16.776   8.555
 7895POPC   C2B31580  20.906  16.796   8.255
 7895POPC   C3B31581  20.849  16.735   7.955
 7895POPC   C4B31582  20.900  16.716   7.655
 7896POPC   NC331583  35.303  39.980   9.455
 7896POPC   PO431584  35.381  39.998   9.155
 7896POPC   GL131585  35.370  40.021   8.855
 7896POPC   GL231586  35.351  39.886   8.855
 7896POPC   C1A31587  35.306  39.999   8.555
 7896POPC   D2A31588  35.308  40.041   8.255
 7896POPC   C3A31589  35.308  39.998   7.955
 7896POPC   C4A31590  35.329  39.963   7.655
 7896POPC   C1B31591  35.273  39.784   8.555
 7896POPC   C2B31592  35.284  39.801   8.255
 7896POPC   C3B31593  35.245  39.783   7.955
 7896POPC   C4B31594  35.304  39.746   7.655
 7897POPC   NC331595  43.103   4.296   9.455
 7897POPC   PO431596  43.071   4.333   9.155
 7897POPC   GL131597  43.094   4.326   8.855
 7897POPC   GL231598  43.186   4.417   8.855
 7897POPC   C1A31599  43.122   4.292   8.555
 7897POPC   D2A31600  43.093   4.310   8.255
 7897POPC   C3A31601  43.099   4.309   7.955
 7897POPC   C4A31602  43.098   4.315   7.655
 7897POPC   C1B31603  43.227   4.578   8.555
 7897POPC   C2B31604  43.214   4.505   8.255
 7897POPC   C3B31605  43.202   4.549   7.955
 7897POPC   C4B31606  43.237   4.508   7.655
 7898POPC   NC331607  28.365   8.215   9.455
 7898POPC   PO431608  28.353   8.244   9.155
 7898POPC   GL131609  28.375   8.213   8.855
 7898POPC   GL231610  28.398   8.283   8.855
 7898POPC   C1A31611  28.360   8.206   8.555
 7898POPC   D2A31612  28.320   8.205   8.255
 7898POPC   C3A31613  28.371   8.171   7.955
 7898POPC   C4A31614  28.362   8.233   7.655
 7898POPC   C1B31615  28.409   8.406   8.555
 7898POPC   C2B31616  28.365   8.475   8.255
 7898POPC   C3B31617  28.403   8.439   7.955
 7898POPC   C4B31618  28.383   8.403   7.655
 7899POPC   NC331619  22.162  23.718   9.455
 7899POPC   PO431620  22.158  23.709   9.155
 7899POPC   GL131621  22.130  23.716   8.855
 7899POPC   GL231622  22.019  23.791   8.855
 7899POPC   C1A31623  22.192  23.735   8.555
 7899POPC   D2A31624  22.180  23.671   8.255
 7899POPC   C3A31625  22.209  23.681   7.955
 7899POPC   C4A31626  22.123  23.762   7.655
 7899POPC   C1B31627  21.983  23.848   8.555
 7899POPC   C2B31628  21.928  23.821   8.255
 7899POPC   C3B31629  21.962  23.802   7.955
 7899POPC   C4B31630  21.918  23.864   7.655
 7900POPC   NC331631   7.419   6.637   9.455
 7900POPC   PO431632   7.469   6.676   9.155
 7900POPC   GL131633   7.430   6.621   8.855
 7900POPC   GL231634   7.565   6.684   8.855
 7900POPC   C1A31635   7.446   6.653   8.555
 7900POPC   D2A31636   7.470   6.623   8.255
 7900POPC   C3A31637   7.399   6.690   7.955
 7900POPC   C4A31638   7.438   6.672   7.655
 7900POPC   C1B31639   7.694   6.715   8.555
 7900POPC   C2B31640   7.626   6.662   8.255
 7900POPC   C3B31641   7.710   6.630   7.955
 7900POPC   C4B31642   7.652   6.621   7.655
 7901POPC   NC331643  36.894  36.166   9.455
 7901POPC   PO431644  36.903  36.149   9.155
 7901POPC   GL131645  36.939  36.146   8.855
 7901POPC   GL231646  36.730  36.103   8.855
 7901POPC   C1A31647  36.939  36.089   8.555
 7901POPC   D2A31648  36.953  36.125   8.255
 7901POPC   C3A31649  36.893  36.152   7.955
 7901POPC   C4A31650  36.909  36.086   7.655
 7901POPC   C1B31651  36.696  36.158   8.555
 7901POPC   C2B31652  36.626  36.150   8.255
 7901POPC   C3B31653  36.704  36.081   7.955
 7901POPC   C4B31654  36.667  36.144   7.655
 7902POPC   NC331655   1.958  40.830   9.455
 7902POPC   PO431656   2.016  40.827   9.155
 7902POPC   GL131657   1.955  40.782   8.855
 7902POPC   GL231658   2.043  40.817   8.855
 7902POPC   C1A31659   1.975  40.809   8.555
 7902POPC   D2A31660   1.940  40.745   8.255
 7902POPC   C3A31661   2.010  40.777   7.955
 7902POPC   C4A31662   1.980  40.778   7.655
 7902POPC   C1B31663   2.149  40.946   8.555
 7902POPC   C2B31664   2.178  40.976   8.255
 7902POPC   C3B31665   2.188  40.902   7.955
 7902POPC   C4B31666   2.188  40.910   7.655
 7903POPC   NC331667  40.736  40.736   9.455
 7903POPC   PO431668  40.806  40.777   9.155
 7903POPC   GL131669  40.779  40.749   8.855
 7903POPC   GL231670  40.691  40.680   8.855
 7903POPC   C1A31671  40.783  40.743   8.555
 7903POPC   D2A31672  40.757  40.754   8.255
 7903POPC   C3A31673  40.799  40.744   7.955
 7903POPC   C4A31674  40.764  40.774   7.655
 7903POPC   C1B31675  40.635  40.561   8.555
 7903POPC   C2B31676  40.663  40.608   8.255
 7903POPC   C3B31677  40.610  40.515   7.955
 7903POPC   C4B31678  40.672  40.575   7.655
 7904POPC   NC331679   9.723   5.053   9.455
 7904POPC   PO431680   9.769   5.073   9.155
 7904POPC   GL131681   9.777   5.116   8.855
 7904POPC   GL231682   9.738   5.259   8.855
 7904POPC   C1A31683   9.788   5.054   8.555
 7904POPC   D2A31684   9.780   5.115   8.255
 7904POPC   C3A31685   9.721   5.079   7.955
 7904POPC   C4A31686   9.737   5.066   7.655
 7904POPC   C1B31687   9.723   5.357   8.555
 7904POPC   C2B31688   9.642   5.366   8.255
 7904POPC   C3B31689   9.632   5.322   7.955
 7904POPC   C4B31690   9.627   5.361   7.655
 7905POPC   NC331691   5.068  35.344   9.455
 7905POPC   PO431692   5.073  35.366   9.155
 7905POPC   GL131693   5.082  35.363   8.855
 7905POPC   GL231694   5.020  35.244   8.855
 7905POPC   C1A31695   5.112  35.397   8.555
 7905POPC   D2A31696   5.136  35.318   8.255
 7905POPC   C3A31697   5.125  35.340   7.955
 7905POPC   C4A31698   5.141  35.387   7.655
 7905POPC   C1B31699   4.894  35.125   8.555
 7905POPC   C2B31700   4.916  35.208   8.255
 7905POPC   C3B31701   4.924  35.209   7.955
 7905POPC   C4B31702   4.918  35.213   7.655
 7906POPC   NC331703  25.269  12.861   9.455
 7906POPC   PO431704  25.226  12.888   9.155
 7906POPC   GL131705  25.231  12.873   8.855
 7906POPC   GL231706  25.184  12.918   8.855
 7906POPC   C1A31707  25.265  12.862   8.555
 7906POPC   D2A31708  25.271  12.816   8.255
 7906POPC   C3A31709  25.261  12.841   7.955
 7906POPC   C4A31710  25.292  12.899   7.655
 7906POPC   C1B31711  25.140  13.095   8.555
 7906POPC   C2B31712  25.160  13.077   8.255
 7906POPC   C3B31713  25.110  13.104   7.955
 7906POPC   C4B31714  25.166  13.042   7.655
 7907POPC   NC331715   8.944  22.965   9.455
 7907POPC   PO431716   8.928  22.941   9.155
 7907POPC   GL131717   8.965  22.949   8.855
 7907POPC   GL231718   9.074  22.855   8.855
 7907POPC   C1A31719   9.018  22.975   8.555
 7907POPC   D2A31720   8.966  22.930   8.255
 7907POPC   C3A31721   8.979  22.918   7.955
 7907POPC   C4A31722   8.931  22.890   7.655
 7907POPC   C1B31723   9.175  22.823   8.555
 7907POPC   C2B31724   9.148  22.801   8.255
 7907POPC   C3B31725   9.138  22.803   7.955
 7907POPC   C4B31726   9.169  22.782   7.655
 7908POPC   NC331727  18.324  26.777   9.455
 7908POPC   PO431728  18.274  26.805   9.155
 7908POPC   GL131729  18.263  26.769   8.855
 7908POPC   GL231730  18.322  26.661   8.855
 7908POPC   C1A31731  18.295  26.815   8.555
 7908POPC   D2A31732  18.254  26.838   8.255
 7908POPC   C3A31733  18.330  26.861   7.955
 7908POPC   C4A31734  18.320  26.835   7.655
 7908POPC   C1B31735  18.352  26.549   8.555
 7908POPC   C2B31736  18.357  26.605   8.255
 7908POPC   C3B31737  18.334  26.551   7.955
 7908POPC   C4B31738  18.325  26.593   7.655
 7909POPC   NC331739  13.653  33.798   9.455
 7909POPC   PO431740  13.632  33.845   9.155
 7909POPC   GL131741  13.672  33.849   8.855
 7909POPC   GL231742  13.728  33.816   8.855
 7909POPC   C1A31743  13.666  33.830   8.555
 7909POPC   D2A31744  13.639  33.778   8.255
 7909POPC   C3A31745  13.662  33.795   7.955
 7909POPC   C4A31746  13.614  33.849   7.655
 7909POPC   C1B31747  13.847  33.798   8.555
 7909POPC   C2B31748  13.864  33.755   8.255
 7909POPC   C3B31749  13.847  33.756   7.955
 7909POPC   C4B31750  13.923  33.762   7.655
 7910POPC   NC331751  35.388  22.178   9.455
 7910POPC   PO431752  35.383  22.204   9.155
 7910POPC   GL131753  35.382  22.115   8.855
 7910POPC   GL231754  35.428  22.212   8.855
 7910POPC   C1A31755  35.365  22.174   8.555
 7910POPC   D2A31756  35.381  22.208   8.255
 7910POPC   C3A31757  35.331  22.206   7.955
 7910POPC   C4A31758  35.330  22.160   7.655
 7910POPC   C1B31759  35.609  22.255   8.555
 7910POPC   C2B31760  35.559  22.312   8.255
 7910POPC   C3B31761  35.538  22.307   7.955
 7910POPC   C4B31762  35.612  22.269   7.655
 7911POPC   NC331763   3.522   2.722   9.455
 7911POPC   PO431764   3.551   2.735   9.155
 7911POPC   GL131765   3.534   2.736   8.855
 7911POPC   GL231766   3.486   2.619   8.855
 7911POPC   C1A31767   3.591   2.736   8.555
 7911POPC   D2A31768   3.542   2.778   8.255
 7911POPC   C3A31769   3.560   2.775   7.955
 7911POPC   C4A31770   3.545   2.810   7.655
 7911POPC   C1B31771   3.400   2.520   8.555
 7911POPC   C2B31772   3.399   2.588   8.255
 7911POPC   C3B31773   3.383   2.577   7.955
 7911POPC   C4B31774   3.440   2.581   7.655
 7912POPC   NC331775  15.923  10.502   9.455
 7912POPC   PO431776  15.968  10.530   9.155
 7912POPC   GL131777  15.940  10.530   8.855
 7912POPC   GL231778  15.837  10.506   8.855
 7912POPC   C1A31779  15.981  10.547   8.555
 7912POPC   D2A31780  15.909  10.502   8.255
 7912POPC   C3A31781  15.995  10.539   7.955
 7912POPC   C4A31782  15.925  10.491   7.655
 7912POPC   C1B31783  15.742  10.477   8.555
 7912POPC   C2B31784  15.758  10.517   8.255
 7912POPC   C3B31785  15.748  10.516   7.955
 7912POPC   C4B31786  15.740  10.485   7.655
 7913POPC   NC331787  36.870  31.443   9.455
 7913POPC   PO431788  36.937  31.439   9.155
 7913POPC   GL131789  36.899  31.482   8.855
 7913POPC   GL231790  37.004  31.580   8.855
 7913POPC   C1A31791  36.924  31.500   8.555
 7913POPC   D2A31792  36.940  31.470   8.255
 7913POPC   C3A31793  36.928  31.455   7.955
 7913POPC   C4A31794  36.896  31.435   7.655
 7913POPC   C1B31795  37.057  31.596   8.555
 7913POPC   C2B31796  37.055  31.668   8.255
 7913POPC   C3B31797  37.073  31.656   7.955
 7913POPC   C4B31798  37.092  31.632   7.655
 7914POPC   NC331799  13.612  23.699   9.455
 7914POPC   PO431800  13.599  23.713   9.155
 7914POPC   GL131801  13.638  23.732   8.855
 7914POPC   GL231802  13.731  23.637   8.855
 7914POPC   C1A31803  13.624  23.670   8.555
 7914POPC   D2A31804  13.622  23.694   8.255
 7914POPC   C3A31805  13.604  23.695   7.955
 7914POPC   C4A31806  13.639  23.698   7.655
 7914POPC   C1B31807  13.753  23.513   8.555
 7914POPC   C2B31808  13.742  23.546   8.255
 7914POPC   C3B31809  13.708  23.496   7.955
 7914POPC   C4B31810  13.715  23.543   7.655
 7915POPC   NC331811  26.090  13.594   9.455
 7915POPC   PO431812  26.065  13.588   9.155
 7915POPC   GL131813  26.048  13.582   8.855
 7915POPC   GL231814  25.972  13.503   8.855
 7915POPC   C1A31815  26.083  13.654   8.555
 7915POPC   D2A31816  26.025  13.622   8.255
 7915POPC   C3A31817  26.019  13.634   7.955
 7915POPC   C4A31818  26.079  13.578   7.655
 7915POPC   C1B31819  25.885  13.384   8.555
 7915POPC   C2B31820  25.901  13.451   8.255
 7915POPC   C3B31821  25.907  13.383   7.955
 7915POPC   C4B31822  25.910  13.402   7.655
 7916POPC   NC331823  39.203  30.738   9.455
 7916POPC   PO431824  39.191  30.653   9.155
 7916POPC   GL131825  39.202  30.709   8.855
 7916POPC   GL231826  39.334  30.697   8.855
 7916POPC   C1A31827  39.214  30.650   8.555
 7916POPC   D2A31828  39.184  30.682   8.255
 7916POPC   C3A31829  39.200  30.665   7.955
 7916POPC   C4A31830  39.277  30.732   7.655
 7916POPC   C1B31831  39.475  30.716   8.555
 7916POPC   C2B31832  39.513  30.728   8.255
 7916POPC   C3B31833  39.433  30.774   7.955
 7916POPC   C4B31834  39.490  30.729   7.655
 7917POPC   NC331835  12.842  35.395   9.455
 7917POPC   PO431836  12.805  35.369   9.155
 7917POPC   GL131837  12.835  35.316   8.855
 7917POPC   GL231838  12.796  35.236   8.855
 7917POPC   C1A31839  12.824  35.312   8.555
 7917POPC   D2A31840  12.869  35.390   8.255
 7917POPC   C3A31841  12.835  35.339   7.955
 7917POPC   C4A31842  12.810  35.336   7.655
 7917POPC   C1B31843  12.780  35.106   8.555
 7917POPC   C2B31844  12.795  35.142   8.255
 7917POPC   C3B31845  12.840  35.128   7.955
 7917POPC   C4B31846  12.828  35.151   7.655
 7918POPC   NC331847  16.682  28.363   9.455
 7918POPC   PO431848  16.779  28.388   9.155
 7918POPC   GL131849  16.701  28.346   8.855
 7918POPC   GL231850  16.573  28.432   8.855
 7918POPC   C1A31851  16.769  28.384   8.555
 7918POPC   D2A31852  16.715  28.371   8.255
 7918POPC   C3A31853  16.761  28.351   7.955
 7918POPC   C4A31854  16.746  28.388   7.655
 7918POPC   C1B31855  16.486  28.446   8.555
 7918POPC   C2B31856  16.534  28.474   8.255
 7918POPC   C3B31857  16.484  28.458   7.955
 7918POPC   C4B31858  16.528  28.493   7.655
 7919POPC   NC331859   9.711  12.106   9.455
 7919POPC   PO431860   9.710  12.118   9.155
 7919POPC   GL131861   9.783  12.042   8.855
 7919POPC   GL231862   9.871  12.056   8.855
 7919POPC   C1A31863   9.768  12.118   8.555
 7919POPC   D2A31864   9.725  12.029   8.255
 7919POPC   C3A31865   9.758  12.057   7.955
 7919POPC   C4A31866   9.739  12.072   7.655
 7919POPC   C1B31867   9.951  12.022   8.555
 7919POPC   C2B31868   9.994  12.028   8.255
 7919POPC   C3B31869  10.010  12.046   7.955
 7919POPC   C4B31870   9.959  12.032   7.655
 7920POPC   NC331871   0.479   2.754   9.455
 7920POPC   PO431872   0.414   2.757   9.155
 7920POPC   GL131873   0.418   2.800   8.855
 7920POPC   GL231874   0.574   2.881   8.855
 7920POPC   C1A31875   0.466   2.736   8.555
 7920POPC   D2A31876   0.483   2.807   8.255
 7920POPC   C3A31877   0.479   2.747   7.955
 7920POPC   C4A31878   0.452   2.748   7.655
 7920POPC   C1B31879   0.647   2.874   8.555
 7920POPC   C2B31880   0.679   2.905   8.255
 7920POPC   C3B31881   0.627   2.930   7.955
 7920POPC   C4B31882   0.655   2.892   7.655
 7921POPC   NC331883  20.580  12.850   9.455
 7921POPC   PO431884  20.575  12.831   9.155
 7921POPC   GL131885  20.607  12.857   8.855
 7921POPC   GL231886  20.657  12.748   8.855
 7921POPC   C1A31887  20.572  12.822   8.555
 7921POPC   D2A31888  20.566  12.840   8.255
 7921POPC   C3A31889  20.573  12.898   7.955
 7921POPC   C4A31890  20.630  12.877   7.655
 7921POPC   C1B31891  20.772  12.654   8.555
 7921POPC   C2B31892  20.815  12.709   8.255
 7921POPC   C3B31893  20.776  12.649   7.955
 7921POPC   C4B31894  20.817  12.633   7.655
 7922POPC   NC331895  44.678  39.217   9.455
 7922POPC   PO431896  44.651  39.254   9.155
 7922POPC   GL131897  44.683  39.262   8.855
 7922POPC   GL231898  44.701  39.316   8.855
 7922POPC   C1A31899  44.647  39.225   8.555
 7922POPC   D2A31900  44.659  39.195   8.255
 7922POPC   C3A31901  44.691  39.183   7.955
 7922POPC   C4A31902  44.680  39.230   7.655
 7922POPC   C1B31903  44.783  39.476   8.555
 7922POPC   C2B31904  44.721  39.443   8.255
 7922POPC   C3B31905  44.767  39.459   7.955
 7922POPC   C4B31906  44.791  39.422   7.655
 7923POPC   NC331907  12.104  36.875   9.455
 7923POPC   PO431908  12.049  36.903   9.155
 7923POPC   GL131909  12.045  36.880   8.855
 7923POPC   GL231910  12.212  36.786   8.855
 7923POPC   C1A31911  12.066  36.885   8.555
 7923POPC   D2A31912  12.080  36.920   8.255
 7923POPC   C3A31913  12.124  36.942   7.955
 7923POPC   C4A31914  12.069  36.877   7.655
 7923POPC   C1B31915  12.269  36.716   8.555
 7923POPC   C2B31916  12.291  36.712   8.255
 7923POPC   C3B31917  12.304  36.751   7.955
 7923POPC   C4B31918  12.241  36.776   7.655
 7924POPC   NC331919  37.660  28.333   9.455
 7924POPC   PO431920  37.722  28.343   9.155
 7924POPC   GL131921  37.664  28.345   8.855
 7924POPC   GL231922  37.821  28.292   8.855
 7924POPC   C1A31923  37.713  28.392   8.555
 7924POPC   D2A31924  37.657  28.397   8.255
 7924POPC   C3A31925  37.633  28.372   7.955
 7924POPC   C4A31926  37.697  28.411   7.655
 7924POPC   C1B31927  37.923  28.346   8.555
 7924POPC   C2B31928  37.895  28.311   8.255
 7924POPC   C3B31929  37.923  28.334   7.955
 7924POPC   C4B31930  37.897  28.287   7.655
 7925POPC   NC331931  21.421  43.112   9.455
 7925POPC   PO431932  21.428  43.111   9.155
 7925POPC   GL131933  21.357  43.131   8.855
 7925POPC   GL231934  21.535  43.180   8.855
 7925POPC   C1A31935  21.403  43.150   8.555
 7925POPC   D2A31936  21.417  43.109   8.255
 7925POPC   C3A31937  21.346  43.095   7.955
 7925POPC   C4A31938  21.434  43.070   7.655
 7925POPC   C1B31939  21.638  43.184   8.555
 7925POPC   C2B31940  21.643  43.123   8.255
 7925POPC   C3B31941  21.612  43.140   7.955
 7925POPC   C4B31942  21.663  43.164   7.655
 7926POPC   NC331943  39.974  36.144   9.455
 7926POPC   PO431944  40.011  36.175   9.155
 7926POPC   GL131945  40.046  36.157   8.855
 7926POPC   GL231946  40.165  36.042   8.855
 7926POPC   C1A31947  39.999  36.088   8.555
 7926POPC   D2A31948  39.976  36.100   8.255
 7926POPC   C3A31949  40.029  36.159   7.955
 7926POPC   C4A31950  39.960  36.155   7.655
 7926POPC   C1B31951  40.277  36.040   8.555
 7926POPC   C2B31952  40.293  36.057   8.255
 7926POPC   C3B31953  40.248  36.006   7.955
 7926POPC   C4B31954  40.283  36.026   7.655
 7927POPC   NC331955  21.400  27.589   9.455
 7927POPC   PO431956  21.383  27.595   9.155
 7927POPC   GL131957  21.378  27.549   8.855
 7927POPC   GL231958  21.334  27.713   8.855
 7927POPC   C1A31959  21.415  27.620   8.555
 7927POPC   D2A31960  21.378  27.564   8.255
 7927POPC   C3A31961  21.337  27.574   7.955
 7927POPC   C4A31962  21.406  27.584   7.655
 7927POPC   C1B31963  21.387  27.877   8.555
 7927POPC   C2B31964  21.333  27.839   8.255
 7927POPC   C3B31965  21.333  27.857   7.955
 7927POPC   C4B31966  21.360  27.807   7.655
 7928POPC   NC331967  19.815   5.896   9.455
 7928POPC   PO431968  19.861   5.837   9.155
 7928POPC   GL131969  19.830   5.913   8.855
 7928POPC   GL231970  19.752   5.989   8.855
 7928POPC   C1A31971  19.818   5.901   8.555
 7928POPC   D2A31972  19.841   5.905   8.255
 7928POPC   C3A31973  19.835   5.917   7.955
 7928POPC   C4A31974  19.811   5.849   7.655
 7928POPC   C1B31975  19.694   6.069   8.555
 7928POPC   C2B31976  19.718   6.110   8.255
 7928POPC   C3B31977  19.670   6.027   7.955
 7928POPC   C4B31978  19.702   6.022   7.655
 7929POPC   NC331979   7.465  23.758   9.455
 7929POPC   PO431980   7.447  23.708   9.155
 7929POPC   GL131981   7.422  23.740   8.855
 7929POPC   GL231982   7.389  23.602   8.855
 7929POPC   C1A31983   7.445  23.716   8.555
 7929POPC   D2A31984   7.385  23.726   8.255
 7929POPC   C3A31985   7.434  23.730   7.955
 7929POPC   C4A31986   7.461  23.689   7.655
 7929POPC   C1B31987   7.402  23.463   8.555
 7929POPC   C2B31988   7.446  23.420   8.255
 7929POPC   C3B31989   7.397  23.417   7.955
 7929POPC   C4B31990   7.430  23.441   7.655
 7930POPC   NC331991   5.124  38.462   9.455
 7930POPC   PO431992   5.140  38.456   9.155
 7930POPC   GL131993   5.119  38.444   8.855
 7930POPC   GL231994   5.074  38.617   8.855
 7930POPC   C1A31995   5.126  38.443   8.555
 7930POPC   D2A31996   5.081  38.431   8.255
 7930POPC   C3A31997   5.043  38.450   7.955
 7930POPC   C4A31998   5.110  38.425   7.655
 7930POPC   C1B31999   5.010  38.674   8.555
 7930POPC   C2B32000   5.014  38.665   8.255
 7930POPC   C3B32001   5.047  38.734   7.955
 7930POPC   C4B32002   5.026  38.658   7.655
 7931POPC   NC332003  10.528  39.206   9.455
 7931POPC   PO432004  10.523  39.261   9.155
 7931POPC   GL132005  10.477  39.214   8.855
 7931POPC   GL232006  10.361  39.195   8.855
 7931POPC   C1A32007  10.549  39.218   8.555
 7931POPC   D2A32008  10.570  39.216   8.255
 7931POPC   C3A32009  10.556  39.224   7.955
 7931POPC   C4A32010  10.485  39.239   7.655
 7931POPC   C1B32011  10.281  39.153   8.555
 7931POPC   C2B32012  10.239  39.234   8.255
 7931POPC   C3B32013  10.289  39.187   7.955
 7931POPC   C4B32014  10.228  39.169   7.655
 7932POPC   NC332015   4.317  21.424   9.455
 7932POPC   PO432016   4.305  21.346   9.155
 7932POPC   GL132017   4.271  21.346   8.855
 7932POPC   GL232018   4.281  21.307   8.855
 7932POPC   C1A32019   4.282  21.398   8.555
 7932POPC   D2A32020   4.353  21.388   8.255
 7932POPC   C3A32021   4.298  21.370   7.955
 7932POPC   C4A32022   4.354  21.407   7.655
 7932POPC   C1B32023   4.109  21.182   8.555
 7932POPC   C2B32024   4.204  21.193   8.255
 7932POPC   C3B32025   4.128  21.177   7.955
 7932POPC   C4B32026   4.156  21.194   7.655
 7933POPC   NC332027   9.702  38.471   9.455
 7933POPC   PO432028   9.735  38.428   9.155
 7933POPC   GL132029   9.735  38.483   8.855
 7933POPC   GL232030   9.899  38.481   8.855
 7933POPC   C1A32031   9.787  38.422   8.555
 7933POPC   D2A32032   9.711  38.496   8.255
 7933POPC   C3A32033   9.718  38.502   7.955
 7933POPC   C4A32034   9.744  38.489   7.655
 7933POPC   C1B32035  10.022  38.465   8.555
 7933POPC   C2B32036   9.961  38.427   8.255
 7933POPC   C3B32037  10.003  38.458   7.955
 7933POPC   C4B32038  10.044  38.439   7.655
 7934POPC   NC332039  25.290  26.839   9.455
 7934POPC   PO432040  25.289  26.850   9.155
 7934POPC   GL132041  25.257  26.858   8.855
 7934POPC   GL232042  25.336  26.719   8.855
 7934POPC   C1A32043  25.228  26.812   8.555
 7934POPC   D2A32044  25.234  26.786   8.255
 7934POPC   C3A32045  25.231  26.771   7.955
 7934POPC   C4A32046  25.272  26.837   7.655
 7934POPC   C1B32047  25.384  26.621   8.555
 7934POPC   C2B32048  25.356  26.624   8.255
 7934POPC   C3B32049  25.372  26.556   7.955
 7934POPC   C4B32050  25.373  26.556   7.655
 7935POPC   NC332051  36.170  32.259   9.455
 7935POPC   PO432052  36.103  32.238   9.155
 7935POPC   GL132053  36.168  32.298   8.855
 7935POPC   GL232054  36.005  32.137   8.855
 7935POPC   C1A32055  36.168  32.218   8.555
 7935POPC   D2A32056  36.094  32.269   8.255
 7935POPC   C3A32057  36.081  32.269   7.955
 7935POPC   C4A32058  36.087  32.279   7.655
 7935POPC   C1B32059  35.894  32.089   8.555
 7935POPC   C2B32060  35.932  32.112   8.255
 7935POPC   C3B32061  35.949  32.048   7.955
 7935POPC   C4B32062  35.941  32.052   7.655
 7936POPC   NC332063  15.183  28.337   9.455
 7936POPC   PO432064  15.219  28.349   9.155
 7936POPC   GL132065  15.199  28.337   8.855
 7936POPC   GL232066  15.250  28.280   8.855
 7936POPC   C1A32067  15.221  28.336   8.555
 7936POPC   D2A32068  15.191  28.332   8.255
 7936POPC   C3A32069  15.146  28.376   7.955
 7936POPC   C4A32070  15.161  28.381   7.655
 7936POPC   C1B32071  15.298  28.198   8.555
 7936POPC   C2B32072  15.350  28.150   8.255
 7936POPC   C3B32073  15.392  28.184   7.955
 7936POPC   C4B32074  15.373  28.181   7.655
 7937POPC   NC332075   9.751  32.250   9.455
 7937POPC   PO432076   9.789  32.258   9.155
 7937POPC   GL132077   9.740  32.277   8.855
 7937POPC   GL232078   9.660  32.290   8.855
 7937POPC   C1A32079   9.764  32.247   8.555
 7937POPC   D2A32080   9.725  32.255   8.255
 7937POPC   C3A32081   9.785  32.236   7.955
 7937POPC   C4A32082   9.768  32.245   7.655
 7937POPC   C1B32083   9.503  32.272   8.555
 7937POPC   C2B32084   9.542  32.266   8.255
 7937POPC   C3B32085   9.516  32.274   7.955
 7937POPC   C4B32086   9.469  32.240   7.655
 7938POPC   NC332087  43.856  42.381   9.455
 7938POPC   PO432088  43.846  42.376   9.155
 7938POPC   GL132089  43.837  42.331   8.855
 7938POPC   GL232090  43.788  42.443   8.855
 7938POPC   C1A32091  43.905  42.368   8.555
 7938POPC   D2A32092  43.933  42.374   8.255
 7938POPC   C3A32093  43.848  42.326   7.955
 7938POPC   C4A32094  43.908  42.378   7.655
 7938POPC   C1B32095  43.684  42.497   8.555
 7938POPC   C2B32096  43.760  42.551   8.255
 7938POPC   C3B32097  43.700  42.495   7.955
 7938POPC   C4B32098  43.695  42.513   7.655
 7939POPC   NC332099   3.509   4.322   9.455
 7939POPC   PO432100   3.553   4.362   9.155
 7939POPC   GL132101   3.502   4.293   8.855
 7939POPC   GL232102   3.649   4.256   8.855
 7939POPC   C1A32103   3.509   4.316   8.555
 7939POPC   D2A32104   3.562   4.302   8.255
 7939POPC   C3A32105   3.567   4.274   7.955
 7939POPC   C4A32106   3.494   4.302   7.655
 7939POPC   C1B32107   3.651   4.108   8.555
 7939POPC   C2B32108   3.686   4.160   8.255
 7939POPC   C3B32109   3.709   4.114   7.955
 7939POPC   C4B32110   3.663   4.164   7.655
 7940POPC   NC332111  42.349  16.717   9.455
 7940POPC   PO432112  42.290  16.737   9.155
 7940POPC   GL132113  42.322  16.708   8.855
 7940POPC   GL232114  42.431  16.836   8.855
 7940POPC   C1A32115  42.336  16.759   8.555
 7940POPC   D2A32116  42.369  16.764   8.255
 7940POPC   C3A32117  42.314  16.732   7.955
 7940POPC   C4A32118  42.329  16.745   7.655
 7940POPC   C1B32119  42.525  16.862   8.555
 7940POPC   C2B32120  42.588  16.901   8.255
 7940POPC   C3B32121  42.563  16.809   7.955
 7940POPC   C4B32122  42.521  16.822   7.655
 7941POPC   NC332123  27.621  22.911   9.455
 7941POPC   PO432124  27.553  22.934   9.155
 7941POPC   GL132125  27.599  22.985   8.855
 7941POPC   GL232126  27.510  23.083   8.855
 7941POPC   C1A32127  27.638  22.903   8.555
 7941POPC   D2A32128  27.609  22.934   8.255
 7941POPC   C3A32129  27.549  22.921   7.955
 7941POPC   C4A32130  27.613  22.973   7.655
 7941POPC   C1B32131  27.460  23.127   8.555
 7941POPC   C2B32132  27.550  23.161   8.255
 7941POPC   C3B32133  27.497  23.187   7.955
 7941POPC   C4B32134  27.545  23.126   7.655
 7942POPC   NC332135  44.701  22.965   9.455
 7942POPC   PO432136  44.624  22.944   9.155
 7942POPC   GL132137  44.638  22.911   8.855
 7942POPC   GL232138  44.640  23.093   8.855
 7942POPC   C1A32139  44.675  22.908   8.555
 7942POPC   D2A32140  44.674  22.960   8.255
 7942POPC   C3A32141  44.704  22.941   7.955
 7942POPC   C4A32142  44.676  22.978   7.655
 7942POPC   C1B32143  44.628  23.216   8.555
 7942POPC   C2B32144  44.646  23.187   8.255
 7942POPC   C3B32145  44.606  23.228   7.955
 7942POPC   C4B32146  44.611  23.181   7.655
 7943POPC   NC332147   2.016   8.240   9.455
 7943POPC   PO432148   2.038   8.197   9.155
 7943POPC   GL132149   2.027   8.243   8.855
 7943POPC   GL232150   1.944   8.090   8.855
 7943POPC   C1A32151   1.968   8.162   8.555
 7943POPC   D2A32152   1.947   8.237   8.255
 7943POPC   C3A32153   1.986   8.241   7.955
 7943POPC   C4A32154   1.958   8.212   7.655
 7943POPC   C1B32155   1.758   8.020   8.555
 7943POPC   C2B32156   1.759   8.013   8.255
 7943POPC   C3B32157   1.797   7.985   7.955
 7943POPC   C4B32158   1.824   7.993   7.655
 7944POPC   NC332159  26.814   2.023   9.455
 7944POPC   PO432160  26.816   2.007   9.155
 7944POPC   GL132161  26.846   1.955   8.855
 7944POPC   GL232162  26.963   1.952   8.855
 7944POPC   C1A32163  26.806   2.000   8.555
 7944POPC   D2A32164  26.837   1.948   8.255
 7944POPC   C3A32165  26.768   1.970   7.955
 7944POPC   C4A32166  26.790   2.038   7.655
 7944POPC   C1B32167  27.089   1.987   8.555
 7944POPC   C2B32168  27.107   1.994   8.255
 7944POPC   C3B32169  27.075   1.990   7.955
 7944POPC   C4B32170  27.103   1.910   7.655
 7945POPC   NC332171  15.188  43.858   9.455
 7945POPC   PO432172  15.219  43.887   9.155
 7945POPC   GL132173  15.180  43.840   8.855
 7945POPC   GL232174  15.106  43.979   8.855
 7945POPC   C1A32175  15.192  43.908   8.555
 7945POPC   D2A32176  15.177  43.847   8.255
 7945POPC   C3A32177  15.216  43.894   7.955
 7945POPC   C4A32178  15.222  43.874   7.655
 7945POPC   C1B32179  14.988  43.994   8.555
 7945POPC   C2B32180  14.967  44.063   8.255
 7945POPC   C3B32181  15.000  44.048   7.955
 7945POPC   C4B32182  15.000  44.041   7.655
 7946POPC   NC332183   5.844  16.763   9.455
 7946POPC   PO432184   5.852  16.769   9.155
 7946POPC   GL132185   5.827  16.740   8.855
 7946POPC   GL232186   5.994  16.731   8.855
 7946POPC   C1A32187   5.865  16.708   8.555
 7946POPC   D2A32188   5.836  16.683   8.255
 7946POPC   C3A32189   5.856  16.763   7.955
 7946POPC   C4A32190   5.916  16.761   7.655
 7946POPC   C1B32191   6.151  16.772   8.555
 7946POPC   C2B32192   6.087  16.823   8.255
 7946POPC   C3B32193   6.066  16.805   7.955
 7946POPC   C4B32194   6.107  16.805   7.655
 7947POPC   NC332195  35.316  28.371   9.455
 7947POPC   PO432196  35.359  28.407   9.155
 7947POPC   GL132197  35.347  28.384   8.855
 7947POPC   GL232198  35.421  28.488   8.855
 7947POPC   C1A32199  35.354  28.368   8.555
 7947POPC   D2A32200  35.336  28.362   8.255
 7947POPC   C3A32201  35.337  28.398   7.955
 7947POPC   C4A32202  35.359  28.340   7.655
 7947POPC   C1B32203  35.508  28.488   8.555
 7947POPC   C2B32204  35.585  28.473   8.255
 7947POPC   C3B32205  35.551  28.491   7.955
 7947POPC   C4B32206  35.533  28.501   7.655
 7948POPC   NC332207  12.055  35.342   9.455
 7948POPC   PO432208  12.116  35.344   9.155
 7948POPC   GL132209  12.119  35.309   8.855
 7948POPC   GL232210  11.910  35.341   8.855
 7948POPC   C1A32211  12.029  35.320   8.555
 7948POPC   D2A32212  12.084  35.381   8.255
 7948POPC   C3A32213  12.096  35.321   7.955
 7948POPC   C4A32214  12.093  35.304   7.655
 7948POPC   C1B32215  11.837  35.270   8.555
 7948POPC   C2B32216  11.853  35.240   8.255
 7948POPC   C3B32217  11.820  35.254   7.955
 7948POPC   C4B32218  11.873  35.256   7.655
 7949POPC   NC332219   3.566  13.593   9.455
 7949POPC   PO432220   3.492  13.613   9.155
 7949POPC   GL132221   3.536  13.640   8.855
 7949POPC   GL232222   3.465  13.653   8.855
 7949POPC   C1A32223   3.518  13.668   8.555
 7949POPC   D2A32224   3.527  13.615   8.255
 7949POPC   C3A32225   3.576  13.662   7.955
 7949POPC   C4A32226   3.507  13.647   7.655
 7949POPC   C1B32227   3.326  13.713   8.555
 7949POPC   C2B32228   3.312  13.721   8.255
 7949POPC   C3B32229   3.286  13.717   7.955
 7949POPC   C4B32230   3.272  13.748   7.655
 7950POPC   NC332231   6.648  40.026   9.455
 7950POPC   PO432232   6.641  39.980   9.155
 7950POPC   GL132233   6.658  39.994   8.855
 7950POPC   GL232234   6.543  39.984   8.855
 7950POPC   C1A32235   6.634  40.009   8.555
 7950POPC   D2A32236   6.603  40.013   8.255
 7950POPC   C3A32237   6.656  40.007   7.955
 7950POPC   C4A32238   6.597  40.006   7.655
 7950POPC   C1B32239   6.363  39.992   8.555
 7950POPC   C2B32240   6.383  40.025   8.255
 7950POPC   C3B32241   6.403  39.997   7.955
 7950POPC   C4B32242   6.413  40.002   7.655
 7951POPC   NC332243  32.981  15.956   9.455
 7951POPC   PO432244  33.043  15.990   9.155
 7951POPC   GL132245  33.007  15.947   8.855
 7951POPC   GL232246  33.048  16.109   8.855
 7951POPC   C1A32247  33.037  15.927   8.555
 7951POPC   D2A32248  33.014  15.964   8.255
 7951POPC   C3A32249  33.024  15.921   7.955
 7951POPC   C4A32250  32.976  15.976   7.655
 7951POPC   C1B32251  33.135  16.137   8.555
 7951POPC   C2B32252  33.177  16.167   8.255
 7951POPC   C3B32253  33.188  16.173   7.955
 7951POPC   C4B32254  33.148  16.147   7.655
 7952POPC   NC332255  36.140   9.698   9.455
 7952POPC   PO432256  36.125   9.776   9.155
 7952POPC   GL132257  36.120   9.759   8.855
 7952POPC   GL232258  36.054   9.690   8.855
 7952POPC   C1A32259  36.103   9.712   8.555
 7952POPC   D2A32260  36.172   9.727   8.255
 7952POPC   C3A32261  36.134   9.759   7.955
 7952POPC   C4A32262  36.168   9.714   7.655
 7952POPC   C1B32263  35.960   9.636   8.555
 7952POPC   C2B32264  35.957   9.620   8.255
 7952POPC   C3B32265  35.937   9.647   7.955
 7952POPC   C4B32266  35.912   9.648   7.655
 7953POPC   NC332267  32.238  43.904   9.455
 7953POPC   PO432268  32.262  43.880   9.155
 7953POPC   GL132269  32.298  43.862   8.855
 7953POPC   GL232270  32.306  43.921   8.855
 7953POPC   C1A32271  32.278  43.913   8.555
 7953POPC   D2A32272  32.244  43.842   8.255
 7953POPC   C3A32273  32.252  43.902   7.955
 7953POPC   C4A32274  32.248  43.867   7.655
 7953POPC   C1B32275  32.437  44.026   8.555
 7953POPC   C2B32276  32.412  44.067   8.255
 7953POPC   C3B32277  32.428  44.014   7.955
 7953POPC   C4B32278  32.485  44.041   7.655
 7954POPC   NC332279  40.774   9.780   9.455
 7954POPC   PO432280  40.766   9.718   9.155
 7954POPC   GL132281  40.770   9.715   8.855
 7954POPC   GL232282  40.691   9.707   8.855
 7954POPC   C1A32283  40.739   9.717   8.555
 7954POPC   D2A32284  40.812   9.773   8.255
 7954POPC   C3A32285  40.802   9.780   7.955
 7954POPC   C4A32286  40.818   9.776   7.655
 7954POPC   C1B32287  40.495   9.763   8.555
 7954POPC   C2B32288  40.569   9.749   8.255
 7954POPC   C3B32289  40.493   9.746   7.955
 7954POPC   C4B32290  40.569   9.751   7.655
 7955POPC   NC332291   6.626   8.194   9.455
 7955POPC   PO432292   6.613   8.221   9.155
 7955POPC   GL132293   6.656   8.233   8.855
 7955POPC   GL232294   6.497   8.131   8.855
 7955POPC   C1A32295   6.638   8.171   8.555
 7955POPC   D2A32296   6.681   8.212   8.255
 7955POPC   C3A32297   6.665   8.236   7.955
 7955POPC   C4A32298   6.644   8.222   7.655
 7955POPC   C1B32299   6.397   8.072   8.555
 7955POPC   C2B32300   6.424   8.084   8.255
 7955POPC   C3B32301   6.384   8.095   7.955
 7955POPC   C4B32302   6.453   8.107   7.655
 7956POPC   NC332303  14.381  17.469   9.455
 7956POPC   PO432304  14.453  17.522   9.155
 7956POPC   GL132305  14.358  17.482   8.855
 7956POPC   GL232306  14.288  17.579   8.855
 7956POPC   C1A32307  14.372  17.515   8.555
 7956POPC   D2A32308  14.360  17.514   8.255
 7956POPC   C3A32309  14.426  17.544   7.955
 7956POPC   C4A32310  14.378  17.504   7.655
 7956POPC   C1B32311  14.138  17.636   8.555
 7956POPC   C2B32312  14.216  17.646   8.255
 7956POPC   C3B32313  14.133  17.635   7.955
 7956POPC   C4B32314  14.218  17.606   7.655
 7957POPC   NC332315  15.958  23.691   9.455
 7957POPC   PO432316  15.998  23.752   9.155
 7957POPC   GL132317  15.991  23.712   8.855
 7957POPC   GL232318  15.844  23.610   8.855
 7957POPC   C1A32319  15.922  23.732   8.555
 7957POPC   D2A32320  15.974  23.741   8.255
 7957POPC   C3A32321  15.997  23.682   7.955
 7957POPC   C4A32322  15.972  23.709   7.655
 7957POPC   C1B32323  15.833  23.497   8.555
 7957POPC   C2B32324  15.783  23.509   8.255
 7957POPC   C3B32325  15.823  23.486   7.955
 7957POPC   C4B32326  15.802  23.472   7.655
 7958POPC   NC332327  24.483   1.962   9.455
 7958POPC   PO432328  24.479   1.954   9.155
 7958POPC   GL132329  24.521   1.982   8.855
 7958POPC   GL232330  24.604   2.074   8.855
 7958POPC   C1A32331  24.465   2.034   8.555
 7958POPC   D2A32332  24.469   1.942   8.255
 7958POPC   C3A32333  24.524   1.999   7.955
 7958POPC   C4A32334  24.494   1.976   7.655
 7958POPC   C1B32335  24.696   2.172   8.555
 7958POPC   C2B32336  24.750   2.134   8.255
 7958POPC   C3B32337  24.668   2.079   7.955
 7958POPC   C4B32338  24.662   2.167   7.655
 7959POPC   NC332339   2.015  42.334   9.455
 7959POPC   PO432340   1.971  42.312   9.155
 7959POPC   GL132341   1.996  42.323   8.855
 7959POPC   GL232342   1.877  42.250   8.855
 7959POPC   C1A32343   2.012  42.373   8.555
 7959POPC   D2A32344   1.984  42.370   8.255
 7959POPC   C3A32345   1.975  42.334   7.955
 7959POPC   C4A32346   1.978  42.353   7.655
 7959POPC   C1B32347   1.804  42.196   8.555
 7959POPC   C2B32348   1.803  42.265   8.255
 7959POPC   C3B32349   1.817  42.241   7.955
 7959POPC   C4B32350   1.802  42.225   7.655
 7960POPC   NC332351   1.983   1.165   9.455
 7960POPC   PO432352   2.030   1.250   9.155
 7960POPC   GL132353   1.945   1.203   8.855
 7960POPC   GL232354   2.102   1.164   8.855
 7960POPC   C1A32355   1.982   1.234   8.555
 7960POPC   D2A32356   1.992   1.236   8.255
 7960POPC   C3A32357   2.027   1.192   7.955
 7960POPC   C4A32358   1.952   1.187   7.655
 7960POPC   C1B32359   2.166   1.077   8.555
 7960POPC   C2B32360   2.176   1.079   8.255
 7960POPC   C3B32361   2.210   1.071   7.955
 7960POPC   C4B32362   2.189   1.046   7.655
 7961POPC   NC332363  18.313  29.123   9.455
 7961POPC   PO432364  18.288  29.124   9.155
 7961POPC   GL132365  18.308  29.106   8.855
 7961POPC   GL232366  18.211  29.182   8.855
 7961POPC   C1A32367  18.296  29.111   8.555
 7961POPC   D2A32368  18.263  29.114   8.255
 7961POPC   C3A32369  18.257  29.105   7.955
 7961POPC   C4A32370  18.233  29.166   7.655
 7961POPC   C1B32371  18.027  29.284   8.555
 7961POPC   C2B32372  18.079  29.289   8.255
 7961POPC   C3B32373  18.023  29.264   7.955
 7961POPC   C4B32374  18.055  29.223   7.655
 7962POPC   NC332375  18.283   2.761   9.455
 7962POPC   PO432376  18.284   2.779   9.155
 7962POPC   GL132377  18.278   2.753   8.855
 7962POPC   GL232378  18.316   2.924   8.855
 7962POPC   C1A32379  18.284   2.747   8.555
 7962POPC   D2A32380  18.289   2.738   8.255
 7962POPC   C3A32381  18.267   2.782   7.955
 7962POPC   C4A32382  18.244   2.769   7.655
 7962POPC   C1B32383  18.296   3.031   8.555
 7962POPC   C2B32384  18.283   2.967   8.255
 7962POPC   C3B32385  18.264   2.984   7.955
 7962POPC   C4B32386  18.294   2.993   7.655
 7963POPC   NC332387   2.770  30.691   9.455
 7963POPC   PO432388   2.737  30.723   9.155
 7963POPC   GL132389   2.751  30.678   8.855
 7963POPC   GL232390   2.715  30.572   8.855
 7963POPC   C1A32391   2.737  30.662   8.555
 7963POPC   D2A32392   2.762  30.721   8.255
 7963POPC   C3A32393   2.717  30.689   7.955
 7963POPC   C4A32394   2.784  30.691   7.655
 7963POPC   C1B32395   2.746  30.491   8.555
 7963POPC   C2B32396   2.725  30.474   8.255
 7963POPC   C3B32397   2.724  30.459   7.955
 7963POPC   C4B32398   2.684  30.446   7.655
 7964POPC   NC332399  26.798  14.404   9.455
 7964POPC   PO432400  26.811  14.422   9.155
 7964POPC   GL132401  26.861  14.445   8.855
 7964POPC   GL232402  26.866  14.527   8.855
 7964POPC   C1A32403  26.832  14.370   8.555
 7964POPC   D2A32404  26.825  14.392   8.255
 7964POPC   C3A32405  26.843  14.380   7.955
 7964POPC   C4A32406  26.786  14.374   7.655
 7964POPC   C1B32407  26.986  14.574   8.555
 7964POPC   C2B32408  26.920  14.587   8.255
 7964POPC   C3B32409  26.976  14.631   7.955
 7964POPC   C4B32410  26.915  14.633   7.655
 7965POPC   NC332411  17.463  42.296   9.455
 7965POPC   PO432412  17.473  42.333   9.155
 7965POPC   GL132413  17.465  42.299   8.855
 7965POPC   GL232414  17.409  42.309   8.855
 7965POPC   C1A32415  17.547  42.307   8.555
 7965POPC   D2A32416  17.531  42.375   8.255
 7965POPC   C3A32417  17.529  42.376   7.955
 7965POPC   C4A32418  17.508  42.291   7.655
 7965POPC   C1B32419  17.272  42.365   8.555
 7965POPC   C2B32420  17.232  42.285   8.255
 7965POPC   C3B32421  17.212  42.271   7.955
 7965POPC   C4B32422  17.244  42.335   7.655
 7966POPC   NC332423   3.497   0.472   9.455
 7966POPC   PO432424   3.509   0.422   9.155
 7966POPC   GL132425   3.553   0.439   8.855
 7966POPC   GL232426   3.547   0.360   8.855
 7966POPC   C1A32427   3.534   0.473   8.555
 7966POPC   D2A32428   3.509   0.475   8.255
 7966POPC   C3A32429   3.575   0.442   7.955
 7966POPC   C4A32430   3.543   0.448   7.655
 7966POPC   C1B32431   3.554   0.150   8.555
 7966POPC   C2B32432   3.541   0.202   8.255
 7966POPC   C3B32433   3.549   0.178   7.955
 7966POPC   C4B32434   3.583   0.229   7.655
 7967POPC   NC332435  23.735  29.136   9.455
 7967POPC   PO432436  23.682  29.145   9.155
 7967POPC   GL132437  23.669  29.182   8.855
 7967POPC   GL232438  23.657  28.979   8.855
 7967POPC   C1A32439  23.671  29.168   8.555
 7967POPC   D2A32440  23.683  29.163   8.255
 7967POPC   C3A32441  23.737  29.126   7.955
 7967POPC   C4A32442  23.678  29.099   7.655
 7967POPC   C1B32443  23.730  28.884   8.555
 7967POPC   C2B32444  23.654  28.868   8.255
 7967POPC   C3B32445  23.708  28.858   7.955
 7967POPC   C4B32446  23.641  28.904   7.655
 7968POPC   NC332447   3.526  15.917   9.455
 7968POPC   PO432448   3.531  15.979   9.155
 7968POPC   GL132449   3.565  15.936   8.855
 7968POPC   GL232450   3.613  16.065   8.855
 7968POPC   C1A32451   3.525  15.981   8.555
 7968POPC   D2A32452   3.552  15.951   8.255
 7968POPC   C3A32453   3.534  15.917   7.955
 7968POPC   C4A32454   3.540  15.972   7.655
 7968POPC   C1B32455   3.724  16.075   8.555
 7968POPC   C2B32456   3.735  16.056   8.255
 7968POPC   C3B32457   3.741  16.036   7.955
 7968POPC   C4B32458   3.803  16.079   7.655
 7969POPC   NC332459  28.354  12.060   9.455
 7969POPC   PO432460  28.325  12.050   9.155
 7969POPC   GL132461  28.333  12.055   8.855
 7969POPC   GL232462  28.222  12.092   8.855
 7969POPC   C1A32463  28.385  12.026   8.555
 7969POPC   D2A32464  28.379  12.040   8.255
 7969POPC   C3A32465  28.345  12.078   7.955
 7969POPC   C4A32466  28.350  12.108   7.655
 7969POPC   C1B32467  28.179  12.216   8.555
 7969POPC   C2B32468  28.167  12.223   8.255
 7969POPC   C3B32469  28.177  12.178   7.955
 7969POPC   C4B32470  28.129  12.236   7.655
 7970POPC   NC332471  30.656  22.898   9.455
 7970POPC   PO432472  30.678  22.962   9.155
 7970POPC   GL132473  30.698  22.961   8.855
 7970POPC   GL232474  30.631  22.844   8.855
 7970POPC   C1A32475  30.657  22.979   8.555
 7970POPC   D2A32476  30.724  22.969   8.255
 7970POPC   C3A32477  30.672  22.986   7.955
 7970POPC   C4A32478  30.668  22.927   7.655
 7970POPC   C1B32479  30.593  22.715   8.555
 7970POPC   C2B32480  30.618  22.738   8.255
 7970POPC   C3B32481  30.663  22.697   7.955
 7970POPC   C4B32482  30.666  22.670   7.655
 7971POPC   NC332483  36.169   9.009   9.455
 7971POPC   PO432484  36.140   8.985   9.155
 7971POPC   GL132485  36.132   8.967   8.855
 7971POPC   GL232486  36.205   9.064   8.855
 7971POPC   C1A32487  36.164   8.941   8.555
 7971POPC   D2A32488  36.150   8.948   8.255
 7971POPC   C3A32489  36.115   8.986   7.955
 7971POPC   C4A32490  36.083   8.956   7.655
 7971POPC   C1B32491  36.380   9.150   8.555
 7971POPC   C2B32492  36.321   9.123   8.255
 7971POPC   C3B32493  36.309   9.103   7.955
 7971POPC   C4B32494  36.347   9.101   7.655
 7972POPC   NC332495  15.974   9.704   9.455
 7972POPC   PO432496  15.977   9.702   9.155
 7972POPC   GL132497  15.999   9.765   8.855
 7972POPC   GL232498  15.847   9.682   8.855
 7972POPC   C1A32499  15.912   9.794   8.555
 7972POPC   D2A32500  15.910   9.755   8.255
 7972POPC   C3A32501  15.936   9.745   7.955
 7972POPC   C4A32502  15.948   9.700   7.655
 7972POPC   C1B32503  15.671   9.683   8.555
 7972POPC   C2B32504  15.679   9.726   8.255
 7972POPC   C3B32505  15.681   9.720   7.955
 7972POPC   C4B32506  15.702   9.660   7.655
 7973POPC   NC332507   8.168  16.748   9.455
 7973POPC   PO432508   8.206  16.768   9.155
 7973POPC   GL132509   8.212  16.703   8.855
 7973POPC   GL232510   8.237  16.592   8.855
 7973POPC   C1A32511   8.234  16.749   8.555
 7973POPC   D2A32512   8.220  16.744   8.255
 7973POPC   C3A32513   8.197  16.769   7.955
 7973POPC   C4A32514   8.222  16.738   7.655
 7973POPC   C1B32515   8.393  16.561   8.555
 7973POPC   C2B32516   8.323  16.517   8.255
 7973POPC   C3B32517   8.335  16.579   7.955
 7973POPC   C4B32518   8.356  16.517   7.655
 7974POPC   NC332519   8.173  19.850   9.455
 7974POPC   PO432520   8.193  19.880   9.155
 7974POPC   GL132521   8.167  19.861   8.855
 7974POPC   GL232522   8.059  19.952   8.855
 7974POPC   C1A32523   8.162  19.865   8.555
 7974POPC   D2A32524   8.159  19.843   8.255
 7974POPC   C3A32525   8.223  19.811   7.955
 7974POPC   C4A32526   8.183  19.877   7.655
 7974POPC   C1B32527   7.976  19.953   8.555
 7974POPC   C2B32528   8.003  19.983   8.255
 7974POPC   C3B32529   7.967  19.968   7.955
 7974POPC   C4B32530   8.018  19.969   7.655
 7975POPC   NC332531   5.082   7.454   9.455
 7975POPC   PO432532   5.056   7.408   9.155
 7975POPC   GL132533   5.137   7.413   8.855
 7975POPC   GL232534   5.058   7.270   8.855
 7975POPC   C1A32535   5.060   7.418   8.555
 7975POPC   D2A32536   5.087   7.396   8.255
 7975POPC   C3A32537   5.100   7.412   7.955
 7975POPC   C4A32538   5.114   7.436   7.655
 7975POPC   C1B32539   5.037   7.142   8.555
 7975POPC   C2B32540   5.091   7.210   8.255
 7975POPC   C3B32541   5.052   7.176   7.955
 7975POPC   C4B32542   5.109   7.134   7.655
 7976POPC   NC332543   9.721  32.996   9.455
 7976POPC   PO432544   9.786  33.030   9.155
 7976POPC   GL132545   9.768  33.060   8.855
 7976POPC   GL232546   9.907  33.090   8.855
 7976POPC   C1A32547   9.778  32.997   8.555
 7976POPC   D2A32548   9.779  32.982   8.255
 7976POPC   C3A32549   9.758  33.002   7.955
 7976POPC   C4A32550   9.748  33.040   7.655
 7976POPC   C1B32551  10.026  33.021   8.555
 7976POPC   C2B32552  10.044  33.047   8.255
 7976POPC   C3B32553   9.949  33.101   7.955
 7976POPC   C4B32554  10.034  33.028   7.655
 7977POPC   NC332555  20.653  31.456   9.455
 7977POPC   PO432556  20.571  31.487   9.155
 7977POPC   GL132557  20.617  31.508   8.855
 7977POPC   GL232558  20.485  31.478   8.855
 7977POPC   C1A32559  20.565  31.433   8.555
 7977POPC   D2A32560  20.611  31.522   8.255
 7977POPC   C3A32561  20.637  31.453   7.955
 7977POPC   C4A32562  20.568  31.462   7.655
 7977POPC   C1B32563  20.403  31.366   8.555
 7977POPC   C2B32564  20.344  31.373   8.255
 7977POPC   C3B32565  20.374  31.453   7.955
 7977POPC   C4B32566  20.366  31.443   7.655
 7978POPC   NC332567  22.130  26.781   9.455
 7978POPC   PO432568  22.174  26.799   9.155
 7978POPC   GL132569  22.140  26.819   8.855
 7978POPC   GL232570  22.165  26.910   8.855
 7978POPC   C1A32571  22.171  26.801   8.555
 7978POPC   D2A32572  22.135  26.787   8.255
 7978POPC   C3A32573  22.128  26.788   7.955
 7978POPC   C4A32574  22.202  26.840   7.655
 7978POPC   C1B32575  22.167  27.072   8.555
 7978POPC   C2B32576  22.187  27.048   8.255
 7978POPC   C3B32577  22.235  27.071   7.955
 7978POPC   C4B32578  22.171  27.034   7.655
 7979POPC   NC332579  40.804  33.835   9.455
 7979POPC   PO432580  40.753  33.804   9.155
 7979POPC   GL132581  40.754  33.752   8.855
 7979POPC   GL232582  40.804  33.933   8.855
 7979POPC   C1A32583  40.758  33.833   8.555
 7979POPC   D2A32584  40.755  33.799   8.255
 7979POPC   C3A32585  40.753  33.790   7.955
 7979POPC   C4A32586  40.765  33.836   7.655
 7979POPC   C1B32587  40.855  34.034   8.555
 7979POPC   C2B32588  40.847  34.035   8.255
 7979POPC   C3B32589  40.851  34.075   7.955
 7979POPC   C4B32590  40.776  34.064   7.655
 7980POPC   NC332591  39.228   8.197   9.455
 7980POPC   PO432592  39.255   8.246   9.155
 7980POPC   GL132593  39.232   8.212   8.855
 7980POPC   GL232594  39.356   8.220   8.855
 7980POPC   C1A32595  39.219   8.172   8.555
 7980POPC   D2A32596  39.278   8.190   8.255
 7980POPC   C3A32597  39.261   8.200   7.955
 7980POPC   C4A32598  39.266   8.186   7.655
 7980POPC   C1B32599  39.446   8.188   8.555
 7980POPC   C2B32600  39.527   8.208   8.255
 7980POPC   C3B32601  39.442   8.251   7.955
 7980POPC   C4B32602  39.467   8.247   7.655
 7981POPC   NC332603  39.973  13.584   9.455
 7981POPC   PO432604  39.980  13.607   9.155
 7981POPC   GL132605  40.051  13.579   8.855
 7981POPC   GL232606  39.904  13.722   8.855
 7981POPC   C1A32607  39.958  13.592   8.555
 7981POPC   D2A32608  40.025  13.672   8.255
 7981POPC   C3A32609  40.021  13.644   7.955
 7981POPC   C4A32610  40.008  13.585   7.655
 7981POPC   C1B32611  39.805  13.809   8.555
 7981POPC   C2B32612  39.870  13.849   8.255
 7981POPC   C3B32613  39.885  13.814   7.955
 7981POPC   C4B32614  39.816  13.829   7.655
 7982POPC   NC332615  36.938  30.715   9.455
 7982POPC   PO432616  36.888  30.701   9.155
 7982POPC   GL132617  36.909  30.695   8.855
 7982POPC   GL232618  37.029  30.556   8.855
 7982POPC   C1A32619  36.897  30.649   8.555
 7982POPC   D2A32620  36.951  30.684   8.255
 7982POPC   C3A32621  36.860  30.688   7.955
 7982POPC   C4A32622  36.899  30.699   7.655
 7982POPC   C1B32623  37.044  30.532   8.555
 7982POPC   C2B32624  37.046  30.498   8.255
 7982POPC   C3B32625  37.038  30.462   7.955
 7982POPC   C4B32626  37.114  30.513   7.655
 7983POPC   NC332627  20.656  44.708   9.455
 7983POPC   PO432628  20.605  44.618   9.155
 7983POPC   GL132629  20.650  44.706   8.855
 7983POPC   GL232630  20.561  44.585   8.855
 7983POPC   C1A32631  20.585  44.679   8.555
 7983POPC   D2A32632  20.564  44.671   8.255
 7983POPC   C3A32633  20.597  44.669   7.955
 7983POPC   C4A32634  20.629  44.612   7.655
 7983POPC   C1B32635  20.552  44.389   8.555
 7983POPC   C2B32636  20.523  44.383   8.255
 7983POPC   C3B32637  20.533  44.418   7.955
 7983POPC   C4B32638  20.523  44.470   7.655
 7984POPC   NC332639  39.261  11.256   9.455
 7984POPC   PO432640  39.240  11.306   9.155
 7984POPC   GL132641  39.239  11.326   8.855
 7984POPC   GL232642  39.208  11.162   8.855
 7984POPC   C1A32643  39.267  11.306   8.555
 7984POPC   D2A32644  39.185  11.309   8.255
 7984POPC   C3A32645  39.193  11.319   7.955
 7984POPC   C4A32646  39.274  11.319   7.655
 7984POPC   C1B32647  39.235  11.099   8.555
 7984POPC   C2B32648  39.173  11.091   8.255
 7984POPC   C3B32649  39.219  11.073   7.955
 7984POPC   C4B32650  39.226  11.092   7.655
 7985POPC   NC332651  17.511   9.793   9.455
 7985POPC   PO432652  17.547   9.719   9.155
 7985POPC   GL132653  17.522   9.754   8.855
 7985POPC   GL232654  17.572   9.593   8.855
 7985POPC   C1A32655  17.499   9.724   8.555
 7985POPC   D2A32656  17.530   9.781   8.255
 7985POPC   C3A32657  17.460   9.706   7.955
 7985POPC   C4A32658  17.531   9.731   7.655
 7985POPC   C1B32659  17.586   9.517   8.555
 7985POPC   C2B32660  17.580   9.491   8.255
 7985POPC   C3B32661  17.650   9.498   7.955
 7985POPC   C4B32662  17.580   9.560   7.655
 7986POPC   NC332663  40.794  12.836   9.455
 7986POPC   PO432664  40.818  12.880   9.155
 7986POPC   GL132665  40.739  12.847   8.855
 7986POPC   GL232666  40.871  12.773   8.855
 7986POPC   C1A32667  40.786  12.842   8.555
 7986POPC   D2A32668  40.802  12.864   8.255
 7986POPC   C3A32669  40.789  12.894   7.955
 7986POPC   C4A32670  40.791  12.835   7.655
 7986POPC   C1B32671  40.870  12.632   8.555
 7986POPC   C2B32672  40.899  12.565   8.255
 7986POPC   C3B32673  40.825  12.567   7.955
 7986POPC   C4B32674  40.909  12.629   7.655
 7987POPC   NC332675  31.457  21.353   9.455
 7987POPC   PO432676  31.497  21.373   9.155
 7987POPC   GL132677  31.446  21.388   8.855
 7987POPC   GL232678  31.379  21.483   8.855
 7987POPC   C1A32679  31.509  21.382   8.555
 7987POPC   D2A32680  31.429  21.336   8.255
 7987POPC   C3A32681  31.509  21.367   7.955
 7987POPC   C4A32682  31.436  21.410   7.655
 7987POPC   C1B32683  31.344  21.591   8.555
 7987POPC   C2B32684  31.290  21.624   8.255
 7987POPC   C3B32685  31.298  21.566   7.955
 7987POPC   C4B32686  31.379  21.627   7.655
 7988POPC   NC332687   8.194   0.392   9.455
 7988POPC   PO432688   8.225   0.402   9.155
 7988POPC   GL132689   8.185   0.476   8.855
 7988POPC   GL232690   8.235   0.561   8.855
 7988POPC   C1A32691   8.161   0.484   8.555
 7988POPC   D2A32692   8.161   0.413   8.255
 7988POPC   C3A32693   8.219   0.480   7.955
 7988POPC   C4A32694   8.192   0.471   7.655
 7988POPC   C1B32695   8.332   0.634   8.555
 7988POPC   C2B32696   8.344   0.601   8.255
 7988POPC   C3B32697   8.397   0.648   7.955
 7988POPC   C4B32698   8.320   0.634   7.655
 7989POPC   NC332699   0.426  43.090   9.455
 7989POPC   PO432700   0.393  43.141   9.155
 7989POPC   GL132701   0.485  43.118   8.855
 7989POPC   GL232702   0.565  43.101   8.855
 7989POPC   C1A32703   0.408  43.110   8.555
 7989POPC   D2A32704   0.475  43.116   8.255
 7989POPC   C3A32705   0.460  43.146   7.955
 7989POPC   C4A32706   0.391  43.109   7.655
 7989POPC   C1B32707   0.675  43.111   8.555
 7989POPC   C2B32708   0.703  43.069   8.255
 7989POPC   C3B32709   0.713  43.092   7.955
 7989POPC   C4B32710   0.715  43.100   7.655
 7990POPC   NC332711  16.685  12.109   9.455
 7990POPC   PO432712  16.777  12.082   9.155
 7990POPC   GL132713  16.711  12.076   8.855
 7990POPC   GL232714  16.606  12.124   8.855
 7990POPC   C1A32715  16.765  12.030   8.555
 7990POPC   D2A32716  16.769  12.076   8.255
 7990POPC   C3A32717  16.746  12.122   7.955
 7990POPC   C4A32718  16.708  12.048   7.655
 7990POPC   C1B32719  16.462  12.212   8.555
 7990POPC   C2B32720  16.528  12.172   8.255
 7990POPC   C3B32721  16.513  12.145   7.955
 7990POPC   C4B32722  16.474  12.210   7.655
 7991POPC   NC332723  20.603  24.490   9.455
 7991POPC   PO432724  20.597  24.505   9.155
 7991POPC   GL132725  20.564  24.512   8.855
 7991POPC   GL232726  20.532  24.436   8.855
 7991POPC   C1A32727  20.608  24.538   8.555
 7991POPC   D2A32728  20.616  24.518   8.255
 7991POPC   C3A32729  20.657  24.537   7.955
 7991POPC   C4A32730  20.625  24.440   7.655
 7991POPC   C1B32731  20.440  24.350   8.555
 7991POPC   C2B32732  20.394  24.417   8.255
 7991POPC   C3B32733  20.377  24.374   7.955
 7991POPC   C4B32734  20.394  24.390   7.655
 7992POPC   NC332735  15.150  24.472   9.455
 7992POPC   PO432736  15.162  24.461   9.155
 7992POPC   GL132737  15.132  24.458   8.855
 7992POPC   GL232738  15.081  24.547   8.855
 7992POPC   C1A32739  15.150  24.465   8.555
 7992POPC   D2A32740  15.200  24.522   8.255
 7992POPC   C3A32741  15.147  24.472   7.955
 7992POPC   C4A32742  15.227  24.522   7.655
 7992POPC   C1B32743  14.913  24.572   8.555
 7992POPC   C2B32744  14.958  24.514   8.255
 7992POPC   C3B32745  14.925  24.578   7.955
 7992POPC   C4B32746  14.944  24.498   7.655
 7993POPC   NC332747   8.239  33.787   9.455
 7993POPC   PO432748   8.163  33.752   9.155
 7993POPC   GL132749   8.212  33.812   8.855
 7993POPC   GL232750   8.241  33.872   8.855
 7993POPC   C1A32751   8.177  33.797   8.555
 7993POPC   D2A32752   8.213  33.790   8.255
 7993POPC   C3A32753   8.147  33.839   7.955
 7993POPC   C4A32754   8.245  33.846   7.655
 7993POPC   C1B32755   8.322  34.049   8.555
 7993POPC   C2B32756   8.333  34.062   8.255
 7993POPC   C3B32757   8.291  34.046   7.955
 7993POPC   C4B32758   8.286  34.060   7.655
 7994POPC   NC332759  35.376  33.007   9.455
 7994POPC   PO432760  35.342  33.059   9.155
 7994POPC   GL132761  35.400  32.988   8.855
 7994POPC   GL232762  35.245  32.952   8.855
 7994POPC   C1A32763  35.379  33.014   8.555
 7994POPC   D2A32764  35.400  33.005   8.255
 7994POPC   C3A32765  35.308  33.015   7.955
 7994POPC   C4A32766  35.370  32.993   7.655
 7994POPC   C1B32767  35.248  32.856   8.555
 7994POPC   C2B32768  35.205  32.818   8.255
 7994POPC   C3B32769  35.254  32.836   7.955
 7994POPC   C4B32770  35.205  32.766   7.655
 7995POPC   NC332771   8.231  35.369   9.455
 7995POPC   PO432772   8.227  35.348   9.155
 7995POPC   GL132773   8.236  35.379   8.855
 7995POPC   GL232774   8.029  35.341   8.855
 7995POPC   C1A32775   8.190  35.352   8.555
 7995POPC   D2A32776   8.193  35.354   8.255
 7995POPC   C3A32777   8.164  35.327   7.955
 7995POPC   C4A32778   8.214  35.339   7.655
 7995POPC   C1B32779   7.925  35.410   8.555
 7995POPC   C2B32780   7.969  35.404   8.255
 7995POPC   C3B32781   7.992  35.404   7.955
 7995POPC   C4B32782   7.997  35.379   7.655
 7996POPC   NC332783  21.379   9.732   9.455
 7996POPC   PO432784  21.411   9.775   9.155
 7996POPC   GL132785  21.414   9.734   8.855
 7996POPC   GL232786  21.272   9.793   8.855
 7996POPC   C1A32787  21.348   9.732   8.555
 7996POPC   D2A32788  21.398   9.738   8.255
 7996POPC   C3A32789  21.386   9.720   7.955
 7996POPC   C4A32790  21.364   9.749   7.655
 7996POPC   C1B32791  21.119   9.775   8.555
 7996POPC   C2B32792  21.130   9.753   8.255
 7996POPC   C3B32793  21.156   9.823   7.955
 7996POPC   C4B32794  21.136   9.772   7.655
 7997POPC   NC332795  40.747  34.566   9.455
 7997POPC   PO432796  40.774  34.620   9.155
 7997POPC   GL132797  40.733  34.578   8.855
 7997POPC   GL232798  40.785  34.443   8.855
 7997POPC   C1A32799  40.822  34.586   8.555
 7997POPC   D2A32800  40.830  34.572   8.255
 7997POPC   C3A32801  40.746  34.543   7.955
 7997POPC   C4A32802  40.800  34.559   7.655
 7997POPC   C1B32803  40.677  34.339   8.555
 7997POPC   C2B32804  40.698  34.348   8.255
 7997POPC   C3B32805  40.699  34.325   7.955
 7997POPC   C4B32806  40.693  34.375   7.655
 7998POPC   NC332807   4.317  43.879   9.455
 7998POPC   PO432808   4.272  43.880   9.155
 7998POPC   GL132809   4.302  43.855   8.855
 7998POPC   GL232810   4.387  43.806   8.855
 7998POPC   C1A32811   4.271  43.892   8.555
 7998POPC   D2A32812   4.275  43.906   8.255
 7998POPC   C3A32813   4.299  43.912   7.955
 7998POPC   C4A32814   4.276  43.935   7.655
 7998POPC   C1B32815   4.542  43.786   8.555
 7998POPC   C2B32816   4.525  43.745   8.255
 7998POPC   C3B32817   4.554  43.769   7.955
 7998POPC   C4B32818   4.525  43.790   7.655
 7999POPC   NC332819  11.261  36.914   9.455
 7999POPC   PO432820  11.301  36.856   9.155
 7999POPC   GL132821  11.326  36.891   8.855
 7999POPC   GL232822  11.358  36.851   8.855
 7999POPC   C1A32823  11.272  36.876   8.555
 7999POPC   D2A32824  11.256  36.899   8.255
 7999POPC   C3A32825  11.276  36.916   7.955
 7999POPC   C4A32826  11.261  36.905   7.655
 7999POPC   C1B32827  11.507  36.673   8.555
 7999POPC   C2B32828  11.456  36.742   8.255
 7999POPC   C3B32829  11.458  36.708   7.955
 7999POPC   C4B32830  11.457  36.679   7.655
 8000POPC   NC332831  12.033  24.464   9.455
 8000POPC   PO432832  12.105  24.469   9.155
 8000POPC   GL132833  12.095  24.518   8.855
 8000POPC   GL232834  12.006  24.632   8.855
 8000POPC   C1A32835  12.126  24.517   8.555
 8000POPC   D2A32836  12.109  24.440   8.255
 8000POPC   C3A32837  12.040  24.455   7.955
 8000POPC   C4A32838  12.035  24.471   7.655
 8000POPC   C1B32839  11.981  24.719   8.555
 8000POPC   C2B32840  12.000  24.677   8.255
 8000POPC   C3B32841  11.952  24.716   7.955
 8000POPC   C4B32842  11.961  24.759   7.655
 8001POPC   NC332843  13.641  24.470   9.455
 8001POPC   PO432844  13.581  24.449   9.155
 8001POPC   GL132845  13.650  24.457   8.855
 8001POPC   GL232846  13.544  24.495   8.855
 8001POPC   C1A32847  13.616  24.502   8.555
 8001POPC   D2A32848  13.653  24.508   8.255
 8001POPC   C3A32849  13.588  24.530   7.955
 8001POPC   C4A32850  13.669  24.440   7.655
 8001POPC   C1B32851  13.416  24.424   8.555
 8001POPC   C2B32852  13.432  24.448   8.255
 8001POPC   C3B32853  13.422  24.387   7.955
 8001POPC   C4B32854  13.423  24.433   7.655
 8002POPC   NC332855  42.315  25.313   9.455
 8002POPC   PO432856  42.369  25.291   9.155
 8002POPC   GL132857  42.354  25.265   8.855
 8002POPC   GL232858  42.286  25.334   8.855
 8002POPC   C1A32859  42.325  25.250   8.555
 8002POPC   D2A32860  42.299  25.305   8.255
 8002POPC   C3A32861  42.327  25.255   7.955
 8002POPC   C4A32862  42.341  25.225   7.655
 8002POPC   C1B32863  42.250  25.449   8.555
 8002POPC   C2B32864  42.173  25.510   8.255
 8002POPC   C3B32865  42.234  25.516   7.955
 8002POPC   C4B32866  42.185  25.480   7.655
 8003POPC   NC332867   6.620  11.311   9.455
 8003POPC   PO432868   6.678  11.296   9.155
 8003POPC   GL132869   6.632  11.308   8.855
 8003POPC   GL232870   6.508  11.249   8.855
 8003POPC   C1A32871   6.644  11.315   8.555
 8003POPC   D2A32872   6.637  11.276   8.255
 8003POPC   C3A32873   6.620  11.307   7.955
 8003POPC   C4A32874   6.677  11.324   7.655
 8003POPC   C1B32875   6.357  11.198   8.555
 8003POPC   C2B32876   6.375  11.222   8.255
 8003POPC   C3B32877   6.445  11.215   7.955
 8003POPC   C4B32878   6.409  11.274   7.655
 8004POPC   NC332879  30.697  30.699   9.455
 8004POPC   PO432880  30.715  30.744   9.155
 8004POPC   GL132881  30.673  30.690   8.855
 8004POPC   GL232882  30.640  30.813   8.855
 8004POPC   C1A32883  30.701  30.742   8.555
 8004POPC   D2A32884  30.703  30.712   8.255
 8004POPC   C3A32885  30.733  30.674   7.955
 8004POPC   C4A32886  30.672  30.720   7.655
 8004POPC   C1B32887  30.595  30.918   8.555
 8004POPC   C2B32888  30.656  30.979   8.255
 8004POPC   C3B32889  30.634  30.982   7.955
 8004POPC   C4B32890  30.680  30.897   7.655
 8005POPC   NC332891  35.372  16.698   9.455
 8005POPC   PO432892  35.351  16.726   9.155
 8005POPC   GL132893  35.329  16.777   8.855
 8005POPC   GL232894  35.339  16.573   8.855
 8005POPC   C1A32895  35.317  16.729   8.555
 8005POPC   D2A32896  35.306  16.692   8.255
 8005POPC   C3A32897  35.390  16.754   7.955
 8005POPC   C4A32898  35.338  16.702   7.655
 8005POPC   C1B32899  35.462  16.517   8.555
 8005POPC   C2B32900  35.471  16.525   8.255
 8005POPC   C3B32901  35.441  16.474   7.955
 8005POPC   C4B32902  35.402  16.488   7.655
 8006POPC   NC332903  35.362  25.274   9.455
 8006POPC   PO432904  35.308  25.260   9.155
 8006POPC   GL132905  35.335  25.288   8.855
 8006POPC   GL232906  35.281  25.355   8.855
 8006POPC   C1A32907  35.387  25.249   8.555
 8006POPC   D2A32908  35.383  25.298   8.255
 8006POPC   C3A32909  35.346  25.278   7.955
 8006POPC   C4A32910  35.352  25.259   7.655
 8006POPC   C1B32911  35.143  25.446   8.555
 8006POPC   C2B32912  35.116  25.412   8.255
 8006POPC   C3B32913  35.188  25.438   7.955
 8006POPC   C4B32914  35.171  25.389   7.655
 8007POPC   NC332915   2.815  36.929   9.455
 8007POPC   PO432916   2.736  36.881   9.155
 8007POPC   GL132917   2.780  36.912   8.855
 8007POPC   GL232918   2.879  36.899   8.855
 8007POPC   C1A32919   2.807  36.941   8.555
 8007POPC   D2A32920   2.739  36.923   8.255
 8007POPC   C3A32921   2.722  36.882   7.955
 8007POPC   C4A32922   2.757  36.889   7.655
 8007POPC   C1B32923   2.988  36.815   8.555
 8007POPC   C2B32924   3.034  36.806   8.255
 8007POPC   C3B32925   3.018  36.808   7.955
 8007POPC   C4B32926   3.026  36.861   7.655
 8008POPC   NC332927  15.986   1.948   9.455
 8008POPC   PO432928  15.975   2.012   9.155
 8008POPC   GL132929  15.949   1.949   8.855
 8008POPC   GL232930  15.870   2.082   8.855
 8008POPC   C1A32931  15.928   2.000   8.555
 8008POPC   D2A32932  15.985   2.011   8.255
 8008POPC   C3A32933  15.937   2.033   7.955
 8008POPC   C4A32934  15.954   1.956   7.655
 8008POPC   C1B32935  15.767   2.041   8.555
 8008POPC   C2B32936  15.738   2.043   8.255
 8008POPC   C3B32937  15.743   2.094   7.955
 8008POPC   C4B32938  15.720   2.077   7.655
 8009POPC   NC332939   7.385  10.519   9.455
 8009POPC   PO432940   7.398  10.557   9.155
 8009POPC   GL132941   7.412  10.541   8.855
 8009POPC   GL232942   7.312  10.615   8.855
 8009POPC   C1A32943   7.398  10.563   8.555
 8009POPC   D2A32944   7.377  10.561   8.255
 8009POPC   C3A32945   7.461  10.555   7.955
 8009POPC   C4A32946   7.419  10.499   7.655
 8009POPC   C1B32947   7.266  10.717   8.555
 8009POPC   C2B32948   7.188  10.738   8.255
 8009POPC   C3B32949   7.222  10.713   7.955
 8009POPC   C4B32950   7.204  10.696   7.655
 8010POPC   NC332951  37.641   6.659   9.455
 8010POPC   PO432952  37.638   6.595   9.155
 8010POPC   GL132953  37.656   6.684   8.855
 8010POPC   GL232954  37.551   6.545   8.855
 8010POPC   C1A32955  37.680   6.636   8.555
 8010POPC   D2A32956  37.633   6.600   8.255
 8010POPC   C3A32957  37.645   6.683   7.955
 8010POPC   C4A32958  37.701   6.673   7.655
 8010POPC   C1B32959  37.425   6.490   8.555
 8010POPC   C2B32960  37.416   6.561   8.255
 8010POPC   C3B32961  37.474   6.548   7.955
 8010POPC   C4B32962  37.485   6.533   7.655
 8011POPC   NC332963  12.820  30.651   9.455
 8011POPC   PO432964  12.812  30.703   9.155
 8011POPC   GL132965  12.847  30.688   8.855
 8011POPC   GL232966  12.878  30.616   8.855
 8011POPC   C1A32967  12.829  30.702   8.555
 8011POPC   D2A32968  12.844  30.714   8.255
 8011POPC   C3A32969  12.894  30.682   7.955
 8011POPC   C4A32970  12.880  30.674   7.655
 8011POPC   C1B32971  12.883  30.442   8.555
 8011POPC   C2B32972  12.976  30.487   8.255
 8011POPC   C3B32973  12.929  30.491   7.955
 8011POPC   C4B32974  12.957  30.472   7.655
 8012POPC   NC332975  33.814  41.598   9.455
 8012POPC   PO432976  33.768  41.556   9.155
 8012POPC   GL132977  33.780  41.515   8.855
 8012POPC   GL232978  33.679  41.537   8.855
 8012POPC   C1A32979  33.816  41.524   8.555
 8012POPC   D2A32980  33.840  41.541   8.255
 8012POPC   C3A32981  33.816  41.509   7.955
 8012POPC   C4A32982  33.784  41.539   7.655
 8012POPC   C1B32983  33.606  41.496   8.555
 8012POPC   C2B32984  33.599  41.487   8.255
 8012POPC   C3B32985  33.601  41.448   7.955
 8012POPC   C4B32986  33.526  41.464   7.655
 8013POPC   NC332987  28.408  15.178   9.455
 8013POPC   PO432988  28.402  15.228   9.155
 8013POPC   GL132989  28.369  15.166   8.855
 8013POPC   GL232990  28.409  15.090   8.855
 8013POPC   C1A32991  28.398  15.204   8.555
 8013POPC   D2A32992  28.414  15.216   8.255
 8013POPC   C3A32993  28.362  15.163   7.955
 8013POPC   C4A32994  28.322  15.209   7.655
 8013POPC   C1B32995  28.537  15.030   8.555
 8013POPC   C2B32996  28.520  15.003   8.255
 8013POPC   C3B32997  28.558  14.999   7.955
 8013POPC   C4B32998  28.554  15.008   7.655
 8014POPC   NC332999  13.652  17.459   9.455
 8014POPC   PO433000  13.578  17.548   9.155
 8014POPC   GL133001  13.594  17.479   8.855
 8014POPC   GL233002  13.619  17.361   8.855
 8014POPC   C1A33003  13.588  17.545   8.555
 8014POPC   D2A33004  13.676  17.512   8.255
 8014POPC   C3A33005  13.666  17.547   7.955
 8014POPC   C4A33006  13.596  17.476   7.655
 8014POPC   C1B33007  13.522  17.244   8.555
 8014POPC   C2B33008  13.586  17.316   8.255
 8014POPC   C3B33009  13.532  17.231   7.955
 8014POPC   C4B33010  13.601  17.242   7.655
 8015POPC   NC333011  16.747   2.800   9.455
 8015POPC   PO433012  16.738   2.798   9.155
 8015POPC   GL133013  16.742   2.735   8.855
 8015POPC   GL233014  16.717   2.658   8.855
 8015POPC   C1A33015  16.752   2.754   8.555
 8015POPC   D2A33016  16.740   2.786   8.255
 8015POPC   C3A33017  16.723   2.783   7.955
 8015POPC   C4A33018  16.760   2.781   7.655
 8015POPC   C1B33019  16.796   2.540   8.555
 8015POPC   C2B33020  16.826   2.556   8.255
 8015POPC   C3B33021  16.752   2.552   7.955
 8015POPC   C4B33022  16.794   2.475   7.655
 8016POPC   NC333023  19.787  41.560   9.455
 8016POPC   PO433024  19.812  41.605   9.155
 8016POPC   GL133025  19.805  41.510   8.855
 8016POPC   GL233026  19.829  41.388   8.855
 8016POPC   C1A33027  19.836  41.579   8.555
 8016POPC   D2A33028  19.849  41.513   8.255
 8016POPC   C3A33029  19.812  41.602   7.955
 8016POPC   C4A33030  19.873  41.576   7.655
 8016POPC   C1B33031  19.816  41.343   8.555
 8016POPC   C2B33032  19.774  41.285   8.255
 8016POPC   C3B33033  19.778  41.358   7.955
 8016POPC   C4B33034  19.828  41.341   7.655
 8017POPC   NC333035   1.941   2.742   9.455
 8017POPC   PO433036   1.940   2.749   9.155
 8017POPC   GL133037   1.988   2.720   8.855
 8017POPC   GL233038   2.112   2.814   8.855
 8017POPC   C1A33039   2.009   2.782   8.555
 8017POPC   D2A33040   2.027   2.802   8.255
 8017POPC   C3A33041   1.986   2.805   7.955
 8017POPC   C4A33042   1.982   2.786   7.655
 8017POPC   C1B33043   2.164   2.880   8.555
 8017POPC   C2B33044   2.175   2.921   8.255
 8017POPC   C3B33045   2.205   2.913   7.955
 8017POPC   C4B33046   2.179   2.936   7.655
 8018POPC   NC333047   2.038  17.512   9.455
 8018POPC   PO433048   2.008  17.475   9.155
 8018POPC   GL133049   1.968  17.520   8.855
 8018POPC   GL233050   2.154  17.537   8.855
 8018POPC   C1A33051   1.997  17.469   8.555
 8018POPC   D2A33052   1.989  17.523   8.255
 8018POPC   C3A33053   2.004  17.529   7.955
 8018POPC   C4A33054   2.001  17.509   7.655
 8018POPC   C1B33055   2.195  17.531   8.555
 8018POPC   C2B33056   2.204  17.533   8.255
 8018POPC   C3B33057   2.263  17.517   7.955
 8018POPC   C4B33058   2.199  17.554   7.655
 8019POPC   NC333059  10.492  20.602   9.455
 8019POPC   PO433060  10.523  20.609   9.155
 8019POPC   GL133061  10.491  20.624   8.855
 8019POPC   GL233062  10.566  20.471   8.855
 8019POPC   C1A33063  10.498  20.573   8.555
 8019POPC   D2A33064  10.525  20.604   8.255
 8019POPC   C3A33065  10.515  20.632   7.955
 8019POPC   C4A33066  10.573  20.562   7.655
 8019POPC   C1B33067  10.508  20.358   8.555
 8019POPC   C2B33068  10.509  20.381   8.255
 8019POPC   C3B33069  10.509  20.392   7.955
 8019POPC   C4B33070  10.579  20.341   7.655
 8020POPC   NC333071  35.317  37.696   9.455
 8020POPC   PO433072  35.306  37.686   9.155
 8020POPC   GL133073  35.401  37.660   8.855
 8020POPC   GL233074  35.328  37.802   8.855
 8020POPC   C1A33075  35.391  37.636   8.555
 8020POPC   D2A33076  35.377  37.642   8.255
 8020POPC   C3A33077  35.386  37.657   7.955
 8020POPC   C4A33078  35.315  37.709   7.655
 8020POPC   C1B33079  35.286  37.904   8.555
 8020POPC   C2B33080  35.261  37.898   8.255
 8020POPC   C3B33081  35.267  37.934   7.955
 8020POPC   C4B33082  35.235  37.896   7.655
 8021POPC   NC333083  10.562  18.260   9.455
 8021POPC   PO433084  10.481  18.279   9.155
 8021POPC   GL133085  10.507  18.276   8.855
 8021POPC   GL233086  10.593  18.226   8.855
 8021POPC   C1A33087  10.535  18.311   8.555
 8021POPC   D2A33088  10.552  18.330   8.255
 8021POPC   C3A33089  10.492  18.233   7.955
 8021POPC   C4A33090  10.507  18.243   7.655
 8021POPC   C1B33091  10.664  18.101   8.555
 8021POPC   C2B33092  10.702  18.095   8.255
 8021POPC   C3B33093  10.744  18.134   7.955
 8021POPC   C4B33094  10.733  18.099   7.655
 8022POPC   NC333095   2.021  37.655   9.455
 8022POPC   PO433096   2.018  37.706   9.155
 8022POPC   GL133097   1.956  37.652   8.855
 8022POPC   GL233098   1.953  37.816   8.855
 8022POPC   C1A33099   1.945  37.659   8.555
 8022POPC   D2A33100   1.985  37.633   8.255
 8022POPC   C3A33101   2.024  37.661   7.955
 8022POPC   C4A33102   1.995  37.726   7.655
 8022POPC   C1B33103   1.900  37.923   8.555
 8022POPC   C2B33104   1.941  37.914   8.255
 8022POPC   C3B33105   1.921  37.882   7.955
 8022POPC   C4B33106   1.870  37.920   7.655
 8023POPC   NC333107  15.192  37.725   9.455
 8023POPC   PO433108  15.168  37.684   9.155
 8023POPC   GL133109  15.202  37.694   8.855
 8023POPC   GL233110  15.283  37.687   8.855
 8023POPC   C1A33111  15.192  37.705   8.555
 8023POPC   D2A33112  15.160  37.654   8.255
 8023POPC   C3A33113  15.216  37.644   7.955
 8023POPC   C4A33114  15.219  37.643   7.655
 8023POPC   C1B33115  15.450  37.679   8.555
 8023POPC   C2B33116  15.391  37.744   8.255
 8023POPC   C3B33117  15.399  37.742   7.955
 8023POPC   C4B33118  15.433  37.662   7.655
 8024POPC   NC333119   8.952  14.375   9.455
 8024POPC   PO433120   8.948  14.417   9.155
 8024POPC   GL133121   8.927  14.405   8.855
 8024POPC   GL233122   8.890  14.306   8.855
 8024POPC   C1A33123   8.928  14.396   8.555
 8024POPC   D2A33124   9.021  14.437   8.255
 8024POPC   C3A33125   8.991  14.388   7.955
 8024POPC   C4A33126   8.999  14.443   7.655
 8024POPC   C1B33127   8.823  14.175   8.555
 8024POPC   C2B33128   8.847  14.175   8.255
 8024POPC   C3B33129   8.818  14.186   7.955
 8024POPC   C4B33130   8.867  14.251   7.655
 8025POPC   NC333131  32.284   3.521   9.455
 8025POPC   PO433132  32.270   3.535   9.155
 8025POPC   GL133133  32.257   3.553   8.855
 8025POPC   GL233134  32.248   3.429   8.855
 8025POPC   C1A33135  32.241   3.521   8.555
 8025POPC   D2A33136  32.277   3.559   8.255
 8025POPC   C3A33137  32.298   3.547   7.955
 8025POPC   C4A33138  32.259   3.549   7.655
 8025POPC   C1B33139  32.318   3.255   8.555
 8025POPC   C2B33140  32.308   3.292   8.255
 8025POPC   C3B33141  32.329   3.313   7.955
 8025POPC   C4B33142  32.249   3.299   7.655
 8026POPC   NC333143  15.188  41.521   9.455
 8026POPC   PO433144  15.173  41.580   9.155
 8026POPC   GL133145  15.140  41.524   8.855
 8026POPC   GL233146  15.313  41.681   8.855
 8026POPC   C1A33147  15.141  41.560   8.555
 8026POPC   D2A33148  15.167  41.593   8.255
 8026POPC   C3A33149  15.165  41.556   7.955
 8026POPC   C4A33150  15.175  41.556   7.655
 8026POPC   C1B33151  15.391  41.721   8.555
 8026POPC   C2B33152  15.348  41.686   8.255
 8026POPC   C3B33153  15.361  41.691   7.955
 8026POPC   C4B33154  15.381  41.740   7.655
 8027POPC   NC333155  12.816   2.036   9.455
 8027POPC   PO433156  12.839   2.037   9.155
 8027POPC   GL133157  12.840   2.009   8.855
 8027POPC   GL233158  12.751   1.912   8.855
 8027POPC   C1A33159  12.811   2.035   8.555
 8027POPC   D2A33160  12.870   1.985   8.255
 8027POPC   C3A33161  12.807   1.975   7.955
 8027POPC   C4A33162  12.834   2.020   7.655
 8027POPC   C1B33163  12.759   1.798   8.555
 8027POPC   C2B33164  12.692   1.807   8.255
 8027POPC   C3B33165  12.741   1.775   7.955
 8027POPC   C4B33166  12.755   1.757   7.655
 8028POPC   NC333167  30.743  29.100   9.455
 8028POPC   PO433168  30.707  29.179   9.155
 8028POPC   GL133169  30.660  29.116   8.855
 8028POPC   GL233170  30.788  29.247   8.855
 8028POPC   C1A33171  30.688  29.136   8.555
 8028POPC   D2A33172  30.661  29.106   8.255
 8028POPC   C3A33173  30.673  29.193   7.955
 8028POPC   C4A33174  30.658  29.178   7.655
 8028POPC   C1B33175  30.779  29.353   8.555
 8028POPC   C2B33176  30.835  29.401   8.255
 8028POPC   C3B33177  30.841  29.312   7.955
 8028POPC   C4B33178  30.823  29.370   7.655
 8029POPC   NC333179  29.953  13.631   9.455
 8029POPC   PO433180  29.955  13.651   9.155
 8029POPC   GL133181  29.882  13.600   8.855
 8029POPC   GL233182  29.916  13.502   8.855
 8029POPC   C1A33183  29.950  13.658   8.555
 8029POPC   D2A33184  29.927  13.601   8.255
 8029POPC   C3A33185  29.894  13.675   7.955
 8029POPC   C4A33186  29.883  13.613   7.655
 8029POPC   C1B33187  29.893  13.388   8.555
 8029POPC   C2B33188  29.908  13.340   8.255
 8029POPC   C3B33189  29.902  13.396   7.955
 8029POPC   C4B33190  29.981  13.375   7.655
 8030POPC   NC333191   0.432  20.571   9.455
 8030POPC   PO433192   0.455  20.624   9.155
 8030POPC   GL133193   0.432  20.610   8.855
 8030POPC   GL233194   0.531  20.636   8.855
 8030POPC   C1A33195   0.400  20.607   8.555
 8030POPC   D2A33196   0.409  20.573   8.255
 8030POPC   C3A33197   0.398  20.587   7.955
 8030POPC   C4A33198   0.435  20.655   7.655
 8030POPC   C1B33199   0.696  20.713   8.555
 8030POPC   C2B33200   0.654  20.676   8.255
 8030POPC   C3B33201   0.655  20.682   7.955
 8030POPC   C4B33202   0.707  20.742   7.655
 8031POPC   NC333203  37.656  33.018   9.455
 8031POPC   PO433204  37.649  33.024   9.155
 8031POPC   GL133205  37.671  33.022   8.855
 8031POPC   GL233206  37.825  33.114   8.855
 8031POPC   C1A33207  37.687  33.014   8.555
 8031POPC   D2A33208  37.653  33.018   8.255
 8031POPC   C3A33209  37.642  33.013   7.955
 8031POPC   C4A33210  37.711  33.071   7.655
 8031POPC   C1B33211  37.856  33.157   8.555
 8031POPC   C2B33212  37.893  33.209   8.255
 8031POPC   C3B33213  37.883  33.182   7.955
 8031POPC   C4B33214  37.834  33.133   7.655
 8032POPC   NC333215  18.248   1.259   9.455
 8032POPC   PO433216  18.300   1.262   9.155
 8032POPC   GL133217  18.246   1.182   8.855
 8032POPC   GL233218  18.165   1.271   8.855
 8032POPC   C1A33219  18.318   1.259   8.555
 8032POPC   D2A33220  18.264   1.177   8.255
 8032POPC   C3A33221  18.238   1.182   7.955
 8032POPC   C4A33222  18.297   1.232   7.655
 8032POPC   C1B33223  18.026   1.234   8.555
 8032POPC   C2B33224  18.006   1.253   8.255
 8032POPC   C3B33225  18.041   1.255   7.955
 8032POPC   C4B33226  18.086   1.255   7.655
 8033POPC   NC333227  17.494  27.570   9.455
 8033POPC   PO433228  17.467  27.588   9.155
 8033POPC   GL133229  17.464  27.577   8.855
 8033POPC   GL233230  17.651  27.587   8.855
 8033POPC   C1A33231  17.527  27.570   8.555
 8033POPC   D2A33232  17.472  27.624   8.255
 8033POPC   C3A33233  17.465  27.616   7.955
 8033POPC   C4A33234  17.518  27.588   7.655
 8033POPC   C1B33235  17.780  27.572   8.555
 8033POPC   C2B33236  17.721  27.586   8.255
 8033POPC   C3B33237  17.761  27.598   7.955
 8033POPC   C4B33238  17.788  27.645   7.655
 8034POPC   NC333239  40.052   5.054   9.455
 8034POPC   PO433240  40.002   5.068   9.155
 8034POPC   GL133241  40.014   5.080   8.855
 8034POPC   GL233242  40.157   5.009   8.855
 8034POPC   C1A33243  39.992   5.105   8.555
 8034POPC   D2A33244  40.000   5.082   8.255
 8034POPC   C3A33245  40.047   5.094   7.955
 8034POPC   C4A33246  40.044   5.055   7.655
 8034POPC   C1B33247  40.278   4.997   8.555
 8034POPC   C2B33248  40.271   5.040   8.255
 8034POPC   C3B33249  40.274   4.979   7.955
 8034POPC   C4B33250  40.271   5.019   7.655
 8035POPC   NC333251  21.337  28.333   9.455
 8035POPC   PO433252  21.367  28.392   9.155
 8035POPC   GL133253  21.360  28.325   8.855
 8035POPC   GL233254  21.420  28.249   8.855
 8035POPC   C1A33255  21.349  28.364   8.555
 8035POPC   D2A33256  21.336  28.331   8.255
 8035POPC   C3A33257  21.367  28.365   7.955
 8035POPC   C4A33258  21.391  28.331   7.655
 8035POPC   C1B33259  21.387  28.105   8.555
 8035POPC   C2B33260  21.449  28.156   8.255
 8035POPC   C3B33261  21.387  28.094   7.955
 8035POPC   C4B33262  21.410  28.103   7.655
 8036POPC   NC333263  19.836  26.780   9.455
 8036POPC   PO433264  19.846  26.818   9.155
 8036POPC   GL133265  19.850  26.795   8.855
 8036POPC   GL233266  19.909  26.679   8.855
 8036POPC   C1A33267  19.806  26.835   8.555
 8036POPC   D2A33268  19.805  26.834   8.255
 8036POPC   C3A33269  19.851  26.811   7.955
 8036POPC   C4A33270  19.799  26.856   7.655
 8036POPC   C1B33271  19.980  26.615   8.555
 8036POPC   C2B33272  19.918  26.597   8.255
 8036POPC   C3B33273  19.936  26.547   7.955
 8036POPC   C4B33274  19.888  26.554   7.655
 8037POPC   NC333275  12.822   3.508   9.455
 8037POPC   PO433276  12.889   3.559   9.155
 8037POPC   GL133277  12.875   3.575   8.855
 8037POPC   GL233278  12.880   3.405   8.855
 8037POPC   C1A33279  12.896   3.509   8.555
 8037POPC   D2A33280  12.873   3.511   8.255
 8037POPC   C3A33281  12.873   3.553   7.955
 8037POPC   C4A33282  12.868   3.507   7.655
 8037POPC   C1B33283  12.944   3.262   8.555
 8037POPC   C2B33284  12.923   3.249   8.255
 8037POPC   C3B33285  12.932   3.251   7.955
 8037POPC   C4B33286  12.951   3.281   7.655
 8038POPC   NC333287   3.559  36.171   9.455
 8038POPC   PO433288   3.534  36.090   9.155
 8038POPC   GL133289   3.586  36.130   8.855
 8038POPC   GL233290   3.505  35.955   8.855
 8038POPC   C1A33291   3.509  36.093   8.555
 8038POPC   D2A33292   3.516  36.154   8.255
 8038POPC   C3A33293   3.558  36.175   7.955
 8038POPC   C4A33294   3.569  36.140   7.655
 8038POPC   C1B33295   3.558  35.854   8.555
 8038POPC   C2B33296   3.573  35.869   8.255
 8038POPC   C3B33297   3.532  35.870   7.955
 8038POPC   C4B33298   3.584  35.908   7.655
 8039POPC   NC333299  12.073  16.748   9.455
 8039POPC   PO433300  12.122  16.762   9.155
 8039POPC   GL133301  12.075  16.725   8.855
 8039POPC   GL233302  12.167  16.806   8.855
 8039POPC   C1A33303  12.101  16.712   8.555
 8039POPC   D2A33304  12.063  16.703   8.255
 8039POPC   C3A33305  12.101  16.748   7.955
 8039POPC   C4A33306  12.107  16.724   7.655
 8039POPC   C1B33307  12.183  16.992   8.555
 8039POPC   C2B33308  12.141  16.996   8.255
 8039POPC   C3B33309  12.116  16.923   7.955
 8039POPC   C4B33310  12.208  16.926   7.655
 8040POPC   NC333311  39.182  27.617   9.455
 8040POPC   PO433312  39.213  27.637   9.155
 8040POPC   GL133313  39.232  27.638   8.855
 8040POPC   GL233314  39.330  27.570   8.855
 8040POPC   C1A33315  39.242  27.628   8.555
 8040POPC   D2A33316  39.211  27.621   8.255
 8040POPC   C3A33317  39.189  27.570   7.955
 8040POPC   C4A33318  39.205  27.578   7.655
 8040POPC   C1B33319  39.430  27.632   8.555
 8040POPC   C2B33320  39.435  27.667   8.255
 8040POPC   C3B33321  39.506  27.605   7.955
 8040POPC   C4B33322  39.498  27.662   7.655
 8041POPC   NC333323  15.977  26.805   9.455
 8041POPC   PO433324  15.957  26.811   9.155
 8041POPC   GL133325  15.985  26.795   8.855
 8041POPC   GL233326  15.835  26.893   8.855
 8041POPC   C1A33327  15.951  26.852   8.555
 8041POPC   D2A33328  15.993  26.832   8.255
 8041POPC   C3A33329  15.907  26.784   7.955
 8041POPC   C4A33330  15.913  26.821   7.655
 8041POPC   C1B33331  15.720  26.849   8.555
 8041POPC   C2B33332  15.704  26.929   8.255
 8041POPC   C3B33333  15.702  26.850   7.955
 8041POPC   C4B33334  15.720  26.853   7.655
 8042POPC   NC333335  12.875  15.221   9.455
 8042POPC   PO433336  12.833  15.192   9.155
 8042POPC   GL133337  12.843  15.197   8.855
 8042POPC   GL233338  12.829  15.090   8.855
 8042POPC   C1A33339  12.806  15.222   8.555
 8042POPC   D2A33340  12.870  15.162   8.255
 8042POPC   C3A33341  12.826  15.167   7.955
 8042POPC   C4A33342  12.864  15.193   7.655
 8042POPC   C1B33343  12.752  14.957   8.555
 8042POPC   C2B33344  12.741  14.942   8.255
 8042POPC   C3B33345  12.775  14.932   7.955
 8042POPC   C4B33346  12.748  14.983   7.655
 8043POPC   NC333347   7.417  11.338   9.455
 8043POPC   PO433348   7.444  11.317   9.155
 8043POPC   GL133349   7.420  11.316   8.855
 8043POPC   GL233350   7.341  11.219   8.855
 8043POPC   C1A33351   7.459  11.300   8.555
 8043POPC   D2A33352   7.443  11.340   8.255
 8043POPC   C3A33353   7.463  11.305   7.955
 8043POPC   C4A33354   7.385  11.268   7.655
 8043POPC   C1B33355   7.246  11.107   8.555
 8043POPC   C2B33356   7.228  11.075   8.255
 8043POPC   C3B33357   7.299  11.141   7.955
 8043POPC   C4B33358   7.237  11.129   7.655
 8044POPC   NC333359  16.683  22.975   9.455
 8044POPC   PO433360  16.734  22.982   9.155
 8044POPC   GL133361  16.684  22.935   8.855
 8044POPC   GL233362  16.714  23.007   8.855
 8044POPC   C1A33363  16.719  22.983   8.555
 8044POPC   D2A33364  16.740  22.906   8.255
 8044POPC   C3A33365  16.703  22.951   7.955
 8044POPC   C4A33366  16.700  22.963   7.655
 8044POPC   C1B33367  16.618  23.192   8.555
 8044POPC   C2B33368  16.628  23.136   8.255
 8044POPC   C3B33369  16.644  23.126   7.955
 8044POPC   C4B33370  16.657  23.183   7.655
 8045POPC   NC333371  28.380  44.651   9.455
 8045POPC   PO433372  28.355  44.628   9.155
 8045POPC   GL133373  28.386  44.659   8.855
 8045POPC   GL233374  28.289  44.582   8.855
 8045POPC   C1A33375  28.367  44.699   8.555
 8045POPC   D2A33376  28.400  44.630   8.255
 8045POPC   C3A33377  28.367  44.672   7.955
 8045POPC   C4A33378  28.367  44.699   7.655
 8045POPC   C1B33379  28.121  44.495   8.555
 8045POPC   C2B33380  28.166  44.550   8.255
 8045POPC   C3B33381  28.168  44.578   7.955
 8045POPC   C4B33382  28.200  44.531   7.655
 8046POPC   NC333383  34.589   8.999   9.455
 8046POPC   PO433384  34.601   8.923   9.155
 8046POPC   GL133385  34.531   9.004   8.855
 8046POPC   GL233386  34.603   8.877   8.855
 8046POPC   C1A33387  34.557   8.949   8.555
 8046POPC   D2A33388  34.579   8.952   8.255
 8046POPC   C3A33389  34.541   8.986   7.955
 8046POPC   C4A33390  34.577   8.967   7.655
 8046POPC   C1B33391  34.528   8.737   8.555
 8046POPC   C2B33392  34.524   8.700   8.255
 8046POPC   C3B33393  34.558   8.703   7.955
 8046POPC   C4B33394  34.577   8.756   7.655
 8047POPC   NC333395  41.598  31.446   9.455
 8047POPC   PO433396  41.579  31.461   9.155
 8047POPC   GL133397  41.539  31.522   8.855
 8047POPC   GL233398  41.453  31.612   8.855
 8047POPC   C1A33399  41.567  31.429   8.555
 8047POPC   D2A33400  41.522  31.505   8.255
 8047POPC   C3A33401  41.592  31.452   7.955
 8047POPC   C4A33402  41.560  31.446   7.655
 8047POPC   C1B33403  41.444  31.663   8.555
 8047POPC   C2B33404  41.444  31.640   8.255
 8047POPC   C3B33405  41.444  31.698   7.955
 8047POPC   C4B33406  41.383  31.674   7.655
 8048POPC   NC333407  12.124  12.892   9.455
 8048POPC   PO433408  12.084  12.866   9.155
 8048POPC   GL133409  12.074  12.880   8.855
 8048POPC   GL233410  12.002  12.897   8.855
 8048POPC   C1A33411  12.086  12.869   8.555
 8048POPC   D2A33412  12.061  12.820   8.255
 8048POPC   C3A33413  12.037  12.823   7.955
 8048POPC   C4A33414  12.039  12.856   7.655
 8048POPC   C1B33415  11.847  13.017   8.555
 8048POPC   C2B33416  11.882  13.018   8.255
 8048POPC   C3B33417  11.931  12.997   7.955
 8048POPC   C4B33418  11.905  13.019   7.655
 8049POPC   NC333419  44.695  26.061   9.455
 8049POPC   PO433420  44.700  26.075   9.155
 8049POPC   GL133421  44.689  26.005   8.855
 8049POPC   GL233422  44.762  26.051   8.855
 8049POPC   C1A33423  44.681  26.012   8.555
 8049POPC   D2A33424  44.639  26.017   8.255
 8049POPC   C3A33425  44.689  26.059   7.955
 8049POPC   C4A33426  44.688  26.026   7.655
 8049POPC   C1B33427  44.923  26.178   8.555
 8049POPC   C2B33428  44.850  26.180   8.255
 8049POPC   C3B33429  44.874  26.161   7.955
 8049POPC   C4B33430  44.902  26.164   7.655
 8050POPC   NC333431   7.443  31.446   9.455
 8050POPC   PO433432   7.419  31.494   9.155
 8050POPC   GL133433   7.376  31.497   8.855
 8050POPC   GL233434   7.307  31.410   8.855
 8050POPC   C1A33435   7.467  31.520   8.555
 8050POPC   D2A33436   7.441  31.500   8.255
 8050POPC   C3A33437   7.444  31.444   7.955
 8050POPC   C4A33438   7.456  31.429   7.655
 8050POPC   C1B33439   7.289  31.314   8.555
 8050POPC   C2B33440   7.227  31.319   8.255
 8050POPC   C3B33441   7.214  31.304   7.955
 8050POPC   C4B33442   7.298  31.312   7.655
 8051POPC   NC333443  11.342  14.387   9.455
 8051POPC   PO433444  11.307  14.382   9.155
 8051POPC   GL133445  11.350  14.422   8.855
 8051POPC   GL233446  11.204  14.348   8.855
 8051POPC   C1A33447  11.257  14.418   8.555
 8051POPC   D2A33448  11.280  14.356   8.255
 8051POPC   C3A33449  11.257  14.382   7.955
 8051POPC   C4A33450  11.333  14.446   7.655
 8051POPC   C1B33451  11.116  14.238   8.555
 8051POPC   C2B33452  11.090  14.213   8.255
 8051POPC   C3B33453  11.125  14.214   7.955
 8051POPC   C4B33454  11.076  14.259   7.655
 8052POPC   NC333455  39.968  31.471   9.455
 8052POPC   PO433456  39.963  31.428   9.155
 8052POPC   GL133457  40.019  31.454   8.855
 8052POPC   GL233458  40.098  31.345   8.855
 8052POPC   C1A33459  39.982  31.423   8.555
 8052POPC   D2A33460  39.961  31.467   8.255
 8052POPC   C3A33461  40.012  31.490   7.955
 8052POPC   C4A33462  39.963  31.485   7.655
 8052POPC   C1B33463  40.169  31.232   8.555
 8052POPC   C2B33464  40.077  31.281   8.255
 8052POPC   C3B33465  40.083  31.232   7.955
 8052POPC   C4B33466  40.096  31.222   7.655
 8053POPC   NC333467   6.632  13.667   9.455
 8053POPC   PO433468   6.619  13.591   9.155
 8053POPC   GL133469   6.691  13.587   8.855
 8053POPC   GL233470   6.613  13.546   8.855
 8053POPC   C1A33471   6.612  13.614   8.555
 8053POPC   D2A33472   6.638  13.605   8.255
 8053POPC   C3A33473   6.598  13.657   7.955
 8053POPC   C4A33474   6.674  13.618   7.655
 8053POPC   C1B33475   6.526  13.365   8.555
 8053POPC   C2B33476   6.496  13.364   8.255
 8053POPC   C3B33477   6.560  13.446   7.955
 8053POPC   C4B33478   6.527  13.373   7.655
 8054POPC   NC333479  30.651   6.681   9.455
 8054POPC   PO433480  30.742   6.629   9.155
 8054POPC   GL133481  30.691   6.665   8.855
 8054POPC   GL233482  30.648   6.741   8.855
 8054POPC   C1A33483  30.725   6.615   8.555
 8054POPC   D2A33484  30.685   6.646   8.255
 8054POPC   C3A33485  30.666   6.660   7.955
 8054POPC   C4A33486  30.690   6.631   7.655
 8054POPC   C1B33487  30.576   6.824   8.555
 8054POPC   C2B33488  30.542   6.877   8.255
 8054POPC   C3B33489  30.576   6.813   7.955
 8054POPC   C4B33490  30.532   6.835   7.655
 8055POPC   NC333491  12.083  23.727   9.455
 8055POPC   PO433492  12.051  23.763   9.155
 8055POPC   GL133493  12.113  23.703   8.855
 8055POPC   GL233494  12.040  23.625   8.855
 8055POPC   C1A33495  12.098  23.756   8.555
 8055POPC   D2A33496  12.098  23.705   8.255
 8055POPC   C3A33497  12.124  23.697   7.955
 8055POPC   C4A33498  12.071  23.684   7.655
 8055POPC   C1B33499  12.037  23.471   8.555
 8055POPC   C2B33500  12.011  23.503   8.255
 8055POPC   C3B33501  11.963  23.429   7.955
 8055POPC   C4B33502  11.947  23.513   7.655
 8056POPC   NC333503  15.996  25.217   9.455
 8056POPC   PO433504  15.980  25.271   9.155
 8056POPC   GL133505  15.996  25.244   8.855
 8056POPC   GL233506  15.870  25.240   8.855
 8056POPC   C1A33507  15.941  25.276   8.555
 8056POPC   D2A33508  15.945  25.298   8.255
 8056POPC   C3A33509  16.001  25.307   7.955
 8056POPC   C4A33510  15.945  25.313   7.655
 8056POPC   C1B33511  15.750  25.275   8.555
 8056POPC   C2B33512  15.715  25.240   8.255
 8056POPC   C3B33513  15.670  25.250   7.955
 8056POPC   C4B33514  15.680  25.232   7.655
 8057POPC   NC333515   2.039  33.777   9.455
 8057POPC   PO433516   1.996  33.848   9.155
 8057POPC   GL133517   2.009  33.798   8.855
 8057POPC   GL233518   1.892  33.911   8.855
 8057POPC   C1A33519   2.021  33.834   8.555
 8057POPC   D2A33520   1.940  33.836   8.255
 8057POPC   C3A33521   1.949  33.801   7.955
 8057POPC   C4A33522   2.022  33.801   7.655
 8057POPC   C1B33523   1.823  34.062   8.555
 8057POPC   C2B33524   1.828  34.025   8.255
 8057POPC   C3B33525   1.902  34.065   7.955
 8057POPC   C4B33526   1.825  33.987   7.655
 8058POPC   NC333527  17.480  10.501   9.455
 8058POPC   PO433528  17.509  10.499   9.155
 8058POPC   GL133529  17.486  10.500   8.855
 8058POPC   GL233530  17.564  10.440   8.855
 8058POPC   C1A33531  17.549  10.550   8.555
 8058POPC   D2A33532  17.473  10.522   8.255
 8058POPC   C3A33533  17.539  10.529   7.955
 8058POPC   C4A33534  17.515  10.545   7.655
 8058POPC   C1B33535  17.653  10.352   8.555
 8058POPC   C2B33536  17.634  10.342   8.255
 8058POPC   C3B33537  17.695  10.320   7.955
 8058POPC   C4B33538  17.672  10.353   7.655
 8059POPC   NC333539  34.620  17.472   9.455
 8059POPC   PO433540  34.543  17.462   9.155
 8059POPC   GL133541  34.535  17.536   8.855
 8059POPC   GL233542  34.587  17.363   8.855
 8059POPC   C1A33543  34.581  17.517   8.555
 8059POPC   D2A33544  34.622  17.490   8.255
 8059POPC   C3A33545  34.621  17.539   7.955
 8059POPC   C4A33546  34.553  17.521   7.655
 8059POPC   C1B33547  34.649  17.216   8.555
 8059POPC   C2B33548  34.623  17.246   8.255
 8059POPC   C3B33549  34.608  17.246   7.955
 8059POPC   C4B33550  34.621  17.232   7.655
 8060POPC   NC333551  34.547  40.779   9.455
 8060POPC   PO433552  34.620  40.799   9.155
 8060POPC   GL133553  34.578  40.801   8.855
 8060POPC   GL233554  34.729  40.754   8.855
 8060POPC   C1A33555  34.533  40.805   8.555
 8060POPC   D2A33556  34.553  40.790   8.255
 8060POPC   C3A33557  34.570  40.745   7.955
 8060POPC   C4A33558  34.613  40.795   7.655
 8060POPC   C1B33559  34.849  40.682   8.555
 8060POPC   C2B33560  34.787  40.688   8.255
 8060POPC   C3B33561  34.773  40.719   7.955
 8060POPC   C4B33562  34.853  40.689   7.655
 8061POPC   NC333563   5.823  10.569   9.455
 8061POPC   PO433564   5.863  10.494   9.155
 8061POPC   GL133565   5.825  10.548   8.855
 8061POPC   GL233566   5.855  10.619   8.855
 8061POPC   C1A33567   5.863  10.492   8.555
 8061POPC   D2A33568   5.850  10.482   8.255
 8061POPC   C3A33569   5.837  10.572   7.955
 8061POPC   C4A33570   5.840  10.511   7.655
 8061POPC   C1B33571   5.721  10.699   8.555
 8061POPC   C2B33572   5.796  10.785   8.255
 8061POPC   C3B33573   5.788  10.785   7.955
 8061POPC   C4B33574   5.709  10.771   7.655
 8062POPC   NC333575  43.862   5.087   9.455
 8062POPC   PO433576  43.860   5.106   9.155
 8062POPC   GL133577  43.868   5.122   8.855
 8062POPC   GL233578  43.788   5.077   8.855
 8062POPC   C1A33579  43.893   5.053   8.555
 8062POPC   D2A33580  43.893   5.058   8.255
 8062POPC   C3A33581  43.894   5.132   7.955
 8062POPC   C4A33582  43.933   5.083   7.655
 8062POPC   C1B33583  43.613   4.983   8.555
 8062POPC   C2B33584  43.671   4.950   8.255
 8062POPC   C3B33585  43.686   4.950   7.955
 8062POPC   C4B33586  43.609   4.965   7.655
 8063POPC   NC333587  15.172  11.290   9.455
 8063POPC   PO433588  15.136  11.328   9.155
 8063POPC   GL133589  15.167  11.293   8.855
 8063POPC   GL233590  15.117  11.422   8.855
 8063POPC   C1A33591  15.157  11.329   8.555
 8063POPC   D2A33592  15.161  11.312   8.255
 8063POPC   C3A33593  15.212  11.278   7.955
 8063POPC   C4A33594  15.167  11.313   7.655
 8063POPC   C1B33595  15.062  11.537   8.555
 8063POPC   C2B33596  15.092  11.527   8.255
 8063POPC   C3B33597  15.126  11.531   7.955
 8063POPC   C4B33598  15.124  11.573   7.655
 8064POPC   NC333599  39.965  15.977   9.455
 8064POPC   PO433600  40.030  15.915   9.155
 8064POPC   GL133601  40.027  15.960   8.855
 8064POPC   GL233602  40.090  15.971   8.855
 8064POPC   C1A33603  40.001  15.918   8.555
 8064POPC   D2A33604  40.033  15.962   8.255
 8064POPC   C3A33605  40.017  15.968   7.955
 8064POPC   C4A33606  39.991  15.940   7.655
 8064POPC   C1B33607  40.247  15.874   8.555
 8064POPC   C2B33608  40.294  15.933   8.255
 8064POPC   C3B33609  40.237  15.879   7.955
 8064POPC   C4B33610  40.217  15.911   7.655
 8065POPC   NC333611  43.116  15.130   9.455
 8065POPC   PO433612  43.100  15.166   9.155
 8065POPC   GL133613  43.123  15.169   8.855
 8065POPC   GL233614  43.151  15.255   8.855
 8065POPC   C1A33615  43.110  15.161   8.555
 8065POPC   D2A33616  43.103  15.220   8.255
 8065POPC   C3A33617  43.093  15.152   7.955
 8065POPC   C4A33618  43.079  15.188   7.655
 8065POPC   C1B33619  43.129  15.447   8.555
 8065POPC   C2B33620  43.170  15.424   8.255
 8065POPC   C3B33621  43.124  15.393   7.955
 8065POPC   C4B33622  43.163  15.469   7.655
 8066POPC   NC333623  27.643   9.771   9.455
 8066POPC   PO433624  27.606   9.749   9.155
 8066POPC   GL133625  27.585   9.769   8.855
 8066POPC   GL233626  27.650   9.844   8.855
 8066POPC   C1A33627  27.563   9.722   8.555
 8066POPC   D2A33628  27.637   9.742   8.255
 8066POPC   C3A33629  27.594   9.757   7.955
 8066POPC   C4A33630  27.576   9.728   7.655
 8066POPC   C1B33631  27.736   9.965   8.555
 8066POPC   C2B33632  27.817   9.899   8.255
 8066POPC   C3B33633  27.727   9.894   7.955
 8066POPC   C4B33634  27.756   9.953   7.655
 8067POPC   NC333635  36.110  37.652   9.455
 8067POPC   PO433636  36.079  37.723   9.155
 8067POPC   GL133637  36.138  37.728   8.855
 8067POPC   GL233638  36.065  37.745   8.855
 8067POPC   C1A33639  36.097  37.630   8.555
 8067POPC   D2A33640  36.104  37.645   8.255
 8067POPC   C3A33641  36.176  37.723   7.955
 8067POPC   C4A33642  36.154  37.642   7.655
 8067POPC   C1B33643  35.937  37.861   8.555
 8067POPC   C2B33644  35.966  37.859   8.255
 8067POPC   C3B33645  35.923  37.869   7.955
 8067POPC   C4B33646  35.967  37.829   7.655
 8068POPC   NC333647  43.862   0.487   9.455
 8068POPC   PO433648  43.837   0.420   9.155
 8068POPC   GL133649  43.872   0.434   8.855
 8068POPC   GL233650  43.895   0.590   8.855
 8068POPC   C1A33651  43.838   0.470   8.555
 8068POPC   D2A33652  43.847   0.415   8.255
 8068POPC   C3A33653  43.916   0.458   7.955
 8068POPC   C4A33654  43.849   0.440   7.655
 8068POPC   C1B33655  44.038   0.617   8.555
 8068POPC   C2B33656  44.021   0.658   8.255
 8068POPC   C3B33657  44.026   0.708   7.955
 8068POPC   C4B33658  44.030   0.629   7.655
 8069POPC   NC333659  18.261  37.718   9.455
 8069POPC   PO433660  18.321  37.635   9.155
 8069POPC   GL133661  18.319  37.726   8.855
 8069POPC   GL233662  18.378  37.713   8.855
 8069POPC   C1A33663  18.258  37.709   8.555
 8069POPC   D2A33664  18.236  37.721   8.255
 8069POPC   C3A33665  18.252  37.685   7.955
 8069POPC   C4A33666  18.267  37.691   7.655
 8069POPC   C1B33667  18.569  37.751   8.555
 8069POPC   C2B33668  18.531  37.706   8.255
 8069POPC   C3B33669  18.548  37.721   7.955
 8069POPC   C4B33670  18.509  37.698   7.655
 8070POPC   NC333671  20.563  40.743   9.455
 8070POPC   PO433672  20.634  40.817   9.155
 8070POPC   GL133673  20.650  40.788   8.855
 8070POPC   GL233674  20.714  40.775   8.855
 8070POPC   C1A33675  20.589  40.790   8.555
 8070POPC   D2A33676  20.573  40.784   8.255
 8070POPC   C3A33677  20.643  40.752   7.955
 8070POPC   C4A33678  20.568  40.761   7.655
 8070POPC   C1B33679  20.886  40.826   8.555
 8070POPC   C2B33680  20.823  40.783   8.255
 8070POPC   C3B33681  20.875  40.824   7.955
 8070POPC   C4B33682  20.843  40.770   7.655
 8071POPC   NC333683  43.840   8.153   9.455
 8071POPC   PO433684  43.889   8.246   9.155
 8071POPC   GL133685  43.860   8.175   8.855
 8071POPC   GL233686  43.956   8.277   8.855
 8071POPC   C1A33687  43.851   8.169   8.555
 8071POPC   D2A33688  43.890   8.208   8.255
 8071POPC   C3A33689  43.894   8.155   7.955
 8071POPC   C4A33690  43.912   8.166   7.655
 8071POPC   C1B33691  44.074   8.329   8.555
 8071POPC   C2B33692  44.064   8.335   8.255
 8071POPC   C3B33693  44.079   8.392   7.955
 8071POPC   C4B33694  44.036   8.374   7.655
 8072POPC   NC333695  28.389  32.985   9.455
 8072POPC   PO433696  28.391  33.018   9.155
 8072POPC   GL133697  28.361  33.032   8.855
 8072POPC   GL233698  28.286  33.082   8.855
 8072POPC   C1A33699  28.366  33.004   8.555
 8072POPC   D2A33700  28.328  33.015   8.255
 8072POPC   C3A33701  28.397  33.059   7.955
 8072POPC   C4A33702  28.325  33.010   7.655
 8072POPC   C1B33703  28.081  33.113   8.555
 8072POPC   C2B33704  28.117  33.063   8.255
 8072POPC   C3B33705  28.173  33.117   7.955
 8072POPC   C4B33706  28.120  33.106   7.655
 8073POPC   NC333707  24.471  40.002   9.455
 8073POPC   PO433708  24.516  39.993   9.155
 8073POPC   GL133709  24.481  39.980   8.855
 8073POPC   GL233710  24.318  40.017   8.855
 8073POPC   C1A33711  24.470  40.004   8.555
 8073POPC   D2A33712  24.507  39.960   8.255
 8073POPC   C3A33713  24.530  39.960   7.955
 8073POPC   C4A33714  24.456  39.982   7.655
 8073POPC   C1B33715  24.271  40.004   8.555
 8073POPC   C2B33716  24.214  40.086   8.255
 8073POPC   C3B33717  24.217  40.020   7.955
 8073POPC   C4B33718  24.216  40.085   7.655
 8074POPC   NC333719   0.432  30.734   9.455
 8074POPC   PO433720   0.421  30.723   9.155
 8074POPC   GL133721   0.432  30.700   8.855
 8074POPC   GL233722   0.372  30.750   8.855
 8074POPC   C1A33723   0.480  30.661   8.555
 8074POPC   D2A33724   0.408  30.713   8.255
 8074POPC   C3A33725   0.454  30.688   7.955
 8074POPC   C4A33726   0.425  30.659   7.655
 8074POPC   C1B33727   0.296  30.852   8.555
 8074POPC   C2B33728   0.285  30.866   8.255
 8074POPC   C3B33729   0.318  30.886   7.955
 8074POPC   C4B33730   0.251  30.860   7.655
 8075POPC   NC333731  33.764  20.601   9.455
 8075POPC   PO433732  33.812  20.643   9.155
 8075POPC   GL133733  33.796  20.645   8.855
 8075POPC   GL233734  33.834  20.696   8.855
 8075POPC   C1A33735  33.848  20.638   8.555
 8075POPC   D2A33736  33.804  20.566   8.255
 8075POPC   C3A33737  33.836  20.653   7.955
 8075POPC   C4A33738  33.790  20.631   7.655
 8075POPC   C1B33739  33.814  20.836   8.555
 8075POPC   C2B33740  33.803  20.854   8.255
 8075POPC   C3B33741  33.831  20.901   7.955
 8075POPC   C4B33742  33.875  20.899   7.655
 8076POPC   NC333743  17.500   8.947   9.455
 8076POPC   PO433744  17.462   8.943   9.155
 8076POPC   GL133745  17.515   8.983   8.855
 8076POPC   GL233746  17.615   9.101   8.855
 8076POPC   C1A33747  17.492   8.940   8.555
 8076POPC   D2A33748  17.487   8.950   8.255
 8076POPC   C3A33749  17.517   9.013   7.955
 8076POPC   C4A33750  17.534   8.950   7.655
 8076POPC   C1B33751  17.674   9.183   8.555
 8076POPC   C2B33752  17.704   9.204   8.255
 8076POPC   C3B33753  17.641   9.183   7.955
 8076POPC   C4B33754  17.626   9.161   7.655
 8077POPC   NC333755  29.933  16.700   9.455
 8077POPC   PO433756  29.963  16.779   9.155
 8077POPC   GL133757  29.925  16.687   8.855
 8077POPC   GL233758  29.857  16.884   8.855
 8077POPC   C1A33759  29.880  16.770   8.555
 8077POPC   D2A33760  29.951  16.712   8.255
 8077POPC   C3A33761  29.927  16.746   7.955
 8077POPC   C4A33762  29.945  16.699   7.655
 8077POPC   C1B33763  29.827  16.916   8.555
 8077POPC   C2B33764  29.782  16.966   8.255
 8077POPC   C3B33765  29.804  16.973   7.955
 8077POPC   C4B33766  29.837  16.948   7.655
 8078POPC   NC333767   5.882   4.348   9.455
 8078POPC   PO433768   5.871   4.324   9.155
 8078POPC   GL133769   5.885   4.325   8.855
 8078POPC   GL233770   5.844   4.407   8.855
 8078POPC   C1A33771   5.822   4.284   8.555
 8078POPC   D2A33772   5.876   4.276   8.255
 8078POPC   C3A33773   5.850   4.269   7.955
 8078POPC   C4A33774   5.892   4.319   7.655
 8078POPC   C1B33775   5.868   4.571   8.555
 8078POPC   C2B33776   5.910   4.591   8.255
 8078POPC   C3B33777   5.904   4.606   7.955
 8078POPC   C4B33778   5.871   4.518   7.655
 8079POPC   NC333779  19.840  29.124   9.455
 8079POPC   PO433780  19.836  29.182   9.155
 8079POPC   GL133781  19.803  29.163   8.855
 8079POPC   GL233782  19.708  29.088   8.855
 8079POPC   C1A33783  19.823  29.100   8.555
 8079POPC   D2A33784  19.821  29.124   8.255
 8079POPC   C3A33785  19.844  29.127   7.955
 8079POPC   C4A33786  19.869  29.101   7.655
 8079POPC   C1B33787  19.633  28.956   8.555
 8079POPC   C2B33788  19.637  28.933   8.255
 8079POPC   C3B33789  19.646  28.921   7.955
 8079POPC   C4B33790  19.631  28.969   7.655
 8080POPC   NC333791  33.773  31.429   9.455
 8080POPC   PO433792  33.769  31.504   9.155
 8080POPC   GL133793  33.763  31.462   8.855
 8080POPC   GL233794  33.867  31.407   8.855
 8080POPC   C1A33795  33.791  31.480   8.555
 8080POPC   D2A33796  33.782  31.451   8.255
 8080POPC   C3A33797  33.801  31.503   7.955
 8080POPC   C4A33798  33.819  31.424   7.655
 8080POPC   C1B33799  34.058  31.383   8.555
 8080POPC   C2B33800  34.048  31.394   8.255
 8080POPC   C3B33801  34.048  31.362   7.955
 8080POPC   C4B33802  34.026  31.353   7.655
 8081POPC   NC333803  13.581   3.541   9.455
 8081POPC   PO433804  13.665   3.494   9.155
 8081POPC   GL133805  13.661   3.526   8.855
 8081POPC   GL233806  13.498   3.462   8.855
 8081POPC   C1A33807  13.596   3.527   8.555
 8081POPC   D2A33808  13.587   3.588   8.255
 8081POPC   C3A33809  13.630   3.565   7.955
 8081POPC   C4A33810  13.619   3.542   7.655
 8081POPC   C1B33811  13.454   3.384   8.555
 8081POPC   C2B33812  13.514   3.345   8.255
 8081POPC   C3B33813  13.494   3.380   7.955
 8081POPC   C4B33814  13.509   3.312   7.655
 8082POPC   NC333815   0.418  36.097   9.455
 8082POPC   PO433816   0.468  36.108   9.155
 8082POPC   GL133817   0.440  36.151   8.855
 8082POPC   GL233818   0.356  35.975   8.855
 8082POPC   C1A33819   0.446  36.123   8.555
 8082POPC   D2A33820   0.443  36.174   8.255
 8082POPC   C3A33821   0.470  36.116   7.955
 8082POPC   C4A33822   0.417  36.163   7.655
 8082POPC   C1B33823   0.359  35.904   8.555
 8082POPC   C2B33824   0.282  35.924   8.255
 8082POPC   C3B33825   0.304  35.921   7.955
 8082POPC   C4B33826   0.329  35.887   7.655
 8083POPC   NC333827  36.934  22.127   9.455
 8083POPC   PO433828  36.897  22.168   9.155
 8083POPC   GL133829  36.940  22.114   8.855
 8083POPC   GL233830  36.978  22.147   8.855
 8083POPC   C1A33831  36.934  22.137   8.555
 8083POPC   D2A33832  36.892  22.170   8.255
 8083POPC   C3A33833  36.885  22.201   7.955
 8083POPC   C4A33834  36.944  22.164   7.655
 8083POPC   C1B33835  37.174  22.056   8.555
 8083POPC   C2B33836  37.158  22.013   8.255
 8083POPC   C3B33837  37.081  22.103   7.955
 8083POPC   C4B33838  37.099  22.076   7.655
 8084POPC   NC333839   3.513  21.362   9.455
 8084POPC   PO433840   3.517  21.345   9.155
 8084POPC   GL133841   3.576  21.384   8.855
 8084POPC   GL233842   3.482  21.444   8.855
 8084POPC   C1A33843   3.530  21.378   8.555
 8084POPC   D2A33844   3.519  21.379   8.255
 8084POPC   C3A33845   3.521  21.416   7.955
 8084POPC   C4A33846   3.552  21.401   7.655
 8084POPC   C1B33847   3.368  21.498   8.555
 8084POPC   C2B33848   3.370  21.518   8.255
 8084POPC   C3B33849   3.386  21.555   7.955
 8084POPC   C4B33850   3.309  21.559   7.655
 8085POPC   NC333851   6.673  20.594   9.455
 8085POPC   PO433852   6.608  20.581   9.155
 8085POPC   GL133853   6.606  20.641   8.855
 8085POPC   GL233854   6.614  20.454   8.855
 8085POPC   C1A33855   6.664  20.601   8.555
 8085POPC   D2A33856   6.658  20.617   8.255
 8085POPC   C3A33857   6.604  20.585   7.955
 8085POPC   C4A33858   6.621  20.620   7.655
 8085POPC   C1B33859   6.569  20.388   8.555
 8085POPC   C2B33860   6.642  20.331   8.255
 8085POPC   C3B33861   6.636  20.351   7.955
 8085POPC   C4B33862   6.562  20.396   7.655
 8086POPC   NC333863   5.087  36.103   9.455
 8086POPC   PO433864   5.098  36.153   9.155
 8086POPC   GL133865   5.074  36.109   8.855
 8086POPC   GL233866   5.016  36.010   8.855
 8086POPC   C1A33867   5.099  36.129   8.555
 8086POPC   D2A33868   5.075  36.161   8.255
 8086POPC   C3A33869   5.134  36.154   7.955
 8086POPC   C4A33870   5.097  36.132   7.655
 8086POPC   C1B33871   4.940  35.925   8.555
 8086POPC   C2B33872   4.966  35.921   8.255
 8086POPC   C3B33873   4.916  35.922   7.955
 8086POPC   C4B33874   4.907  35.886   7.655
 8087POPC   NC333875  16.698  39.201   9.455
 8087POPC   PO433876  16.768  39.199   9.155
 8087POPC   GL133877  16.755  39.187   8.855
 8087POPC   GL233878  16.708  39.113   8.855
 8087POPC   C1A33879  16.702  39.202   8.555
 8087POPC   D2A33880  16.723  39.198   8.255
 8087POPC   C3A33881  16.780  39.208   7.955
 8087POPC   C4A33882  16.746  39.231   7.655
 8087POPC   C1B33883  16.774  38.999   8.555
 8087POPC   C2B33884  16.751  39.017   8.255
 8087POPC   C3B33885  16.784  39.013   7.955
 8087POPC   C4B33886  16.808  38.960   7.655
 8088POPC   NC333887  40.055  26.787   9.455
 8088POPC   PO433888  39.983  26.787   9.155
 8088POPC   GL133889  39.964  26.790   8.855
 8088POPC   GL233890  40.103  26.705   8.855
 8088POPC   C1A33891  40.006  26.853   8.555
 8088POPC   D2A33892  40.012  26.801   8.255
 8088POPC   C3A33893  40.034  26.848   7.955
 8088POPC   C4A33894  39.996  26.793   7.655
 8088POPC   C1B33895  40.131  26.554   8.555
 8088POPC   C2B33896  40.148  26.555   8.255
 8088POPC   C3B33897  40.117  26.555   7.955
 8088POPC   C4B33898  40.085  26.580   7.655
 8089POPC   NC333899  19.099   5.884   9.455
 8089POPC   PO433900  19.009   5.873   9.155
 8089POPC   GL133901  19.023   5.884   8.855
 8089POPC   GL233902  19.164   5.917   8.855
 8089POPC   C1A33903  19.024   5.911   8.555
 8089POPC   D2A33904  19.091   5.870   8.255
 8089POPC   C3A33905  19.046   5.917   7.955
 8089POPC   C4A33906  19.080   5.916   7.655
 8089POPC   C1B33907  19.236   6.082   8.555
 8089POPC   C2B33908  19.289   6.049   8.255
 8089POPC   C3B33909  19.252   6.022   7.955
 8089POPC   C4B33910  19.198   6.082   7.655
 8090POPC   NC333911  34.562   5.072   9.455
 8090POPC   PO433912  34.566   5.060   9.155
 8090POPC   GL133913  34.558   5.104   8.855
 8090POPC   GL233914  34.554   4.969   8.855
 8090POPC   C1A33915  34.599   5.080   8.555
 8090POPC   D2A33916  34.581   5.072   8.255
 8090POPC   C3A33917  34.542   5.073   7.955
 8090POPC   C4A33918  34.618   5.090   7.655
 8090POPC   C1B33919  34.637   4.879   8.555
 8090POPC   C2B33920  34.661   4.868   8.255
 8090POPC   C3B33921  34.664   4.803   7.955
 8090POPC   C4B33922  34.609   4.845   7.655
 8091POPC   NC333923  36.884  13.671   9.455
 8091POPC   PO433924  36.926  13.590   9.155
 8091POPC   GL133925  36.940  13.650   8.855
 8091POPC   GL233926  36.944  13.770   8.855
 8091POPC   C1A33927  36.888  13.661   8.555
 8091POPC   D2A33928  36.914  13.673   8.255
 8091POPC   C3A33929  36.943  13.645   7.955
 8091POPC   C4A33930  36.898  13.594   7.655
 8091POPC   C1B33931  37.016  13.858   8.555
 8091POPC   C2B33932  36.932  13.876   8.255
 8091POPC   C3B33933  37.013  13.825   7.955
 8091POPC   C4B33934  36.996  13.843   7.655
 8092POPC   NC333935  28.409   2.814   9.455
 8092POPC   PO433936  28.418   2.801   9.155
 8092POPC   GL133937  28.381   2.770   8.855
 8092POPC   GL233938  28.353   2.935   8.855
 8092POPC   C1A33939  28.401   2.781   8.555
 8092POPC   D2A33940  28.346   2.775   8.255
 8092POPC   C3A33941  28.371   2.792   7.955
 8092POPC   C4A33942  28.399   2.754   7.655
 8092POPC   C1B33943  28.391   3.029   8.555
 8092POPC   C2B33944  28.447   3.044   8.255
 8092POPC   C3B33945  28.467   3.040   7.955
 8092POPC   C4B33946  28.402   2.969   7.655
 8093POPC   NC333947  24.519  29.949   9.455
 8093POPC   PO433948  24.500  29.910   9.155
 8093POPC   GL133949  24.506  29.949   8.855
 8093POPC   GL233950  24.578  29.913   8.855
 8093POPC   C1A33951  24.499  29.895   8.555
 8093POPC   D2A33952  24.501  29.894   8.255
 8093POPC   C3A33953  24.506  29.891   7.955
 8093POPC   C4A33954  24.503  29.938   7.655
 8093POPC   C1B33955  24.709  29.835   8.555
 8093POPC   C2B33956  24.749  29.858   8.255
 8093POPC   C3B33957  24.700  29.873   7.955
 8093POPC   C4B33958  24.687  29.851   7.655
 8094POPC   NC333959   9.777  40.004   9.455
 8094POPC   PO433960   9.797  39.980   9.155
 8094POPC   GL133961   9.745  39.965   8.855
 8094POPC   GL233962   9.825  40.140   8.855
 8094POPC   C1A33963   9.740  39.988   8.555
 8094POPC   D2A33964   9.710  40.046   8.255
 8094POPC   C3A33965   9.787  40.016   7.955
 8094POPC   C4A33966   9.754  40.047   7.655
 8094POPC   C1B33967   9.916  40.184   8.555
 8094POPC   C2B33968   9.978  40.216   8.255
 8094POPC   C3B33969   9.886  40.188   7.955
 8094POPC   C4B33970   9.963  40.167   7.655
 8095POPC   NC333971  22.977  30.743   9.455
 8095POPC   PO433972  22.936  30.733   9.155
 8095POPC   GL133973  22.906  30.677   8.855
 8095POPC   GL233974  23.080  30.752   8.855
 8095POPC   C1A33975  22.942  30.680   8.555
 8095POPC   D2A33976  22.951  30.656   8.255
 8095POPC   C3A33977  22.931  30.689   7.955
 8095POPC   C4A33978  22.982  30.659   7.655
 8095POPC   C1B33979  23.178  30.742   8.555
 8095POPC   C2B33980  23.222  30.785   8.255
 8095POPC   C3B33981  23.144  30.732   7.955
 8095POPC   C4B33982  23.192  30.804   7.655
 8096POPC   NC333983   9.709  43.110   9.455
 8096POPC   PO433984   9.757  43.098   9.155
 8096POPC   GL133985   9.716  43.142   8.855
 8096POPC   GL233986   9.655  43.008   8.855
 8096POPC   C1A33987   9.718  43.133   8.555
 8096POPC   D2A33988   9.710  43.106   8.255
 8096POPC   C3A33989   9.748  43.092   7.955
 8096POPC   C4A33990   9.773  43.156   7.655
 8096POPC   C1B33991   9.625  42.924   8.555
 8096POPC   C2B33992   9.660  42.929   8.255
 8096POPC   C3B33993   9.597  42.889   7.955
 8096POPC   C4B33994   9.646  42.931   7.655
 8097POPC   NC333995  30.712  35.347   9.455
 8097POPC   PO433996  30.651  35.338   9.155
 8097POPC   GL133997  30.734  35.369   8.855
 8097POPC   GL233998  30.545  35.236   8.855
 8097POPC   C1A33999  30.655  35.335   8.555
 8097POPC   D2A34000  30.659  35.320   8.255
 8097POPC   C3A34001  30.651  35.344   7.955
 8097POPC   C4A34002  30.675  35.337   7.655
 8097POPC   C1B34003  30.489  35.162   8.555
 8097POPC   C2B34004  30.477  35.203   8.255
 8097POPC   C3B34005  30.539  35.200   7.955
 8097POPC   C4B34006  30.454  35.192   7.655
 8098POPC   NC334007   4.294  12.871   9.455
 8098POPC   PO434008   4.270  12.806   9.155
 8098POPC   GL134009   4.314  12.879   8.855
 8098POPC   GL234010   4.306  12.944   8.855
 8098POPC   C1A34011   4.346  12.839   8.555
 8098POPC   D2A34012   4.274  12.858   8.255
 8098POPC   C3A34013   4.327  12.804   7.955
 8098POPC   C4A34014   4.282  12.833   7.655
 8098POPC   C1B34015   4.361  13.105   8.555
 8098POPC   C2B34016   4.325  13.124   8.255
 8098POPC   C3B34017   4.365  13.123   7.955
 8098POPC   C4B34018   4.351  13.056   7.655
 8099POPC   NC334019   6.648  40.749   9.455
 8099POPC   PO434020   6.618  40.780   9.155
 8099POPC   GL134021   6.670  40.815   8.855
 8099POPC   GL234022   6.562  40.784   8.855
 8099POPC   C1A34023   6.689  40.750   8.555
 8099POPC   D2A34024   6.659  40.785   8.255
 8099POPC   C3A34025   6.693  40.751   7.955
 8099POPC   C4A34026   6.662  40.766   7.655
 8099POPC   C1B34027   6.441  40.712   8.555
 8099POPC   C2B34028   6.444  40.746   8.255
 8099POPC   C3B34029   6.430  40.692   7.955
 8099POPC   C4B34030   6.359  40.727   7.655
 8100POPC   NC334031   8.175  40.747   9.455
 8100POPC   PO434032   8.174  40.809   9.155
 8100POPC   GL134033   8.150  40.788   8.855
 8100POPC   GL234034   8.041  40.790   8.855
 8100POPC   C1A34035   8.166  40.734   8.555
 8100POPC   D2A34036   8.177  40.759   8.255
 8100POPC   C3A34037   8.192  40.734   7.955
 8100POPC   C4A34038   8.238  40.751   7.655
 8100POPC   C1B34039   8.016  40.849   8.555
 8100POPC   C2B34040   8.016  40.869   8.255
 8100POPC   C3B34041   7.984  40.884   7.955
 8100POPC   C4B34042   7.922  40.880   7.655
 8101POPC   NC334043  39.962  40.776   9.455
 8101POPC   PO434044  40.029  40.762   9.155
 8101POPC   GL134045  40.003  40.739   8.855
 8101POPC   GL234046  39.914  40.741   8.855
 8101POPC   C1A34047  40.025  40.758   8.555
 8101POPC   D2A34048  39.993  40.769   8.255
 8101POPC   C3A34049  39.999  40.817   7.955
 8101POPC   C4A34050  39.959  40.815   7.655
 8101POPC   C1B34051  39.830  40.658   8.555
 8101POPC   C2B34052  39.796  40.630   8.255
 8101POPC   C3B34053  39.834  40.679   7.955
 8101POPC   C4B34054  39.827  40.676   7.655
 8102POPC   NC334055  43.151  25.238   9.455
 8102POPC   PO434056  43.141  25.274   9.155
 8102POPC   GL134057  43.134  25.275   8.855
 8102POPC   GL234058  43.080  25.428   8.855
 8102POPC   C1A34059  43.129  25.290   8.555
 8102POPC   D2A34060  43.088  25.258   8.255
 8102POPC   C3A34061  43.126  25.274   7.955
 8102POPC   C4A34062  43.134  25.289   7.655
 8102POPC   C1B34063  43.125  25.503   8.555
 8102POPC   C2B34064  43.101  25.495   8.255
 8102POPC   C3B34065  43.140  25.558   7.955
 8102POPC   C4B34066  43.128  25.467   7.655
 8103POPC   NC334067  42.289   4.284   9.455
 8103POPC   PO434068  42.369   4.292   9.155
 8103POPC   GL134069  42.334   4.289   8.855
 8103POPC   GL234070  42.256   4.330   8.855
 8103POPC   C1A34071  42.288   4.357   8.555
 8103POPC   D2A34072  42.341   4.339   8.255
 8103POPC   C3A34073  42.335   4.328   7.955
 8103POPC   C4A34074  42.303   4.342   7.655
 8103POPC   C1B34075  42.104   4.257   8.555
 8103POPC   C2B34076  42.054   4.294   8.255
 8103POPC   C3B34077  42.044   4.267   7.955
 8103POPC   C4B34078  42.128   4.279   7.655
 8104POPC   NC334079   3.514  38.414   9.455
 8104POPC   PO434080   3.514  38.456   9.155
 8104POPC   GL134081   3.531  38.494   8.855
 8104POPC   GL234082   3.533  38.575   8.855
 8104POPC   C1A34083   3.587  38.423   8.555
 8104POPC   D2A34084   3.517  38.457   8.255
 8104POPC   C3A34085   3.526  38.500   7.955
 8104POPC   C4A34086   3.586  38.412   7.655
 8104POPC   C1B34087   3.473  38.643   8.555
 8104POPC   C2B34088   3.447  38.719   8.255
 8104POPC   C3B34089   3.461  38.696   7.955
 8104POPC   C4B34090   3.413  38.656   7.655
 8105POPC   NC334091   4.362  15.927   9.455
 8105POPC   PO434092   4.329  15.964   9.155
 8105POPC   GL134093   4.280  15.952   8.855
 8105POPC   GL234094   4.332  15.790   8.855
 8105POPC   C1A34095   4.348  15.992   8.555
 8105POPC   D2A34096   4.313  15.975   8.255
 8105POPC   C3A34097   4.302  15.983   7.955
 8105POPC   C4A34098   4.324  15.958   7.655
 8105POPC   C1B34099   4.372  15.714   8.555
 8105POPC   C2B34100   4.327  15.672   8.255
 8105POPC   C3B34101   4.343  15.747   7.955
 8105POPC   C4B34102   4.371  15.662   7.655
 8106POPC   NC334103  36.095  33.797   9.455
 8106POPC   PO434104  36.148  33.780   9.155
 8106POPC   GL134105  36.106  33.798   8.855
 8106POPC   GL234106  36.139  33.655   8.855
 8106POPC   C1A34107  36.153  33.804   8.555
 8106POPC   D2A34108  36.161  33.841   8.255
 8106POPC   C3A34109  36.160  33.846   7.955
 8106POPC   C4A34110  36.082  33.783   7.655
 8106POPC   C1B34111  36.184  33.542   8.555
 8106POPC   C2B34112  36.185  33.552   8.255
 8106POPC   C3B34113  36.117  33.561   7.955
 8106POPC   C4B34114  36.120  33.538   7.655
 8107POPC   NC334115  16.726  14.390   9.455
 8107POPC   PO434116  16.766  14.402   9.155
 8107POPC   GL134117  16.702  14.385   8.855
 8107POPC   GL234118  16.616  14.423   8.855
 8107POPC   C1A34119  16.733  14.398   8.555
 8107POPC   D2A34120  16.768  14.374   8.255
 8107POPC   C3A34121  16.760  14.373   7.955
 8107POPC   C4A34122  16.722  14.427   7.655
 8107POPC   C1B34123  16.533  14.516   8.555
 8107POPC   C2B34124  16.464  14.522   8.255
 8107POPC   C3B34125  16.534  14.545   7.955
 8107POPC   C4B34126  16.525  14.511   7.655
 8108POPC   NC334127  37.635  41.520   9.455
 8108POPC   PO434128  37.639  41.587   9.155
 8108POPC   GL134129  37.683  41.544   8.855
 8108POPC   GL234130  37.757  41.636   8.855
 8108POPC   C1A34131  37.706  41.517   8.555
 8108POPC   D2A34132  37.729  41.566   8.255
 8108POPC   C3A34133  37.714  41.585   7.955
 8108POPC   C4A34134  37.636  41.533   7.655
 8108POPC   C1B34135  37.920  41.611   8.555
 8108POPC   C2B34136  37.881  41.641   8.255
 8108POPC   C3B34137  37.888  41.600   7.955
 8108POPC   C4B34138  37.932  41.577   7.655
 8109POPC   NC334139  20.653  14.402   9.455
 8109POPC   PO434140  20.645  14.371   9.155
 8109POPC   GL134141  20.654  14.415   8.855
 8109POPC   GL234142  20.499  14.408   8.855
 8109POPC   C1A34143  20.629  14.382   8.555
 8109POPC   D2A34144  20.639  14.402   8.255
 8109POPC   C3A34145  20.660  14.368   7.955
 8109POPC   C4A34146  20.653  14.428   7.655
 8109POPC   C1B34147  20.328  14.283   8.555
 8109POPC   C2B34148  20.374  14.310   8.255
 8109POPC   C3B34149  20.414  14.309   7.955
 8109POPC   C4B34150  20.331  14.376   7.655
 8110POPC   NC334151  24.440  43.065   9.455
 8110POPC   PO434152  24.446  43.062   9.155
 8110POPC   GL134153  24.513  43.107   8.855
 8110POPC   GL234154  24.346  43.001   8.855
 8110POPC   C1A34155  24.532  43.073   8.555
 8110POPC   D2A34156  24.503  43.134   8.255
 8110POPC   C3A34157  24.530  43.102   7.955
 8110POPC   C4A34158  24.537  43.158   7.655
 8110POPC   C1B34159  24.333  42.980   8.555
 8110POPC   C2B34160  24.314  42.930   8.255
 8110POPC   C3B34161  24.286  42.918   7.955
 8110POPC   C4B34162  24.290  42.940   7.655
 8111POPC   NC334163   1.233  20.592   9.455
 8111POPC   PO434164   1.246  20.638   9.155
 8111POPC   GL134165   1.248  20.608   8.855
 8111POPC   GL234166   1.375  20.658   8.855
 8111POPC   C1A34167   1.232  20.631   8.555
 8111POPC   D2A34168   1.221  20.591   8.255
 8111POPC   C3A34169   1.249  20.659   7.955
 8111POPC   C4A34170   1.252  20.627   7.655
 8111POPC   C1B34171   1.501  20.678   8.555
 8111POPC   C2B34172   1.463  20.612   8.255
 8111POPC   C3B34173   1.452  20.675   7.955
 8111POPC   C4B34174   1.421  20.629   7.655
 8112POPC   NC334175  42.353  29.129   9.455
 8112POPC   PO434176  42.301  29.131   9.155
 8112POPC   GL134177  42.347  29.147   8.855
 8112POPC   GL234178  42.268  29.072   8.855
 8112POPC   C1A34179  42.349  29.184   8.555
 8112POPC   D2A34180  42.325  29.123   8.255
 8112POPC   C3A34181  42.349  29.147   7.955
 8112POPC   C4A34182  42.365  29.130   7.655
 8112POPC   C1B34183  42.122  29.064   8.555
 8112POPC   C2B34184  42.147  29.065   8.255
 8112POPC   C3B34185  42.139  29.028   7.955
 8112POPC   C4B34186  42.074  29.063   7.655
 8113POPC   NC334187  41.559   5.841   9.455
 8113POPC   PO434188  41.544   5.880   9.155
 8113POPC   GL134189  41.576   5.909   8.855
 8113POPC   GL234190  41.527   5.744   8.855
 8113POPC   C1A34191  41.597   5.854   8.555
 8113POPC   D2A34192  41.537   5.827   8.255
 8113POPC   C3A34193  41.517   5.900   7.955
 8113POPC   C4A34194  41.569   5.909   7.655
 8113POPC   C1B34195  41.553   5.610   8.555
 8113POPC   C2B34196  41.560   5.647   8.255
 8113POPC   C3B34197  41.496   5.671   7.955
 8113POPC   C4B34198  41.542   5.637   7.655
 8114POPC   NC334199   2.005  20.644   9.455
 8114POPC   PO434200   2.023  20.651   9.155
 8114POPC   GL134201   1.999  20.608   8.855
 8114POPC   GL234202   1.842  20.567   8.855
 8114POPC   C1A34203   2.006  20.625   8.555
 8114POPC   D2A34204   2.031  20.631   8.255
 8114POPC   C3A34205   1.972  20.583   7.955
 8114POPC   C4A34206   1.963  20.583   7.655
 8114POPC   C1B34207   1.794  20.571   8.555
 8114POPC   C2B34208   1.711  20.545   8.255
 8114POPC   C3B34209   1.801  20.480   7.955
 8114POPC   C4B34210   1.781  20.510   7.655
 8115POPC   NC334211  19.824  25.309   9.455
 8115POPC   PO434212  19.813  25.250   9.155
 8115POPC   GL134213  19.812  25.248   8.855
 8115POPC   GL234214  19.767  25.114   8.855
 8115POPC   C1A34215  19.815  25.312   8.555
 8115POPC   D2A34216  19.803  25.243   8.255
 8115POPC   C3A34217  19.842  25.292   7.955
 8115POPC   C4A34218  19.837  25.275   7.655
 8115POPC   C1B34219  19.755  24.979   8.555
 8115POPC   C2B34220  19.794  25.006   8.255
 8115POPC   C3B34221  19.757  24.986   7.955
 8115POPC   C4B34222  19.837  24.996   7.655
 8116POPC   NC334223  24.500  29.124   9.455
 8116POPC   PO434224  24.514  29.119   9.155
 8116POPC   GL134225  24.475  29.118   8.855
 8116POPC   GL234226  24.360  29.182   8.855
 8116POPC   C1A34227  24.486  29.101   8.555
 8116POPC   D2A34228  24.539  29.140   8.255
 8116POPC   C3A34229  24.471  29.194   7.955
 8116POPC   C4A34230  24.495  29.194   7.655
 8116POPC   C1B34231  24.296  29.194   8.555
 8116POPC   C2B34232  24.262  29.241   8.255
 8116POPC   C3B34233  24.243  29.154   7.955
 8116POPC   C4B34234  24.291  29.216   7.655
 8117POPC   NC334235  10.489  10.486   9.455
 8117POPC   PO434236  10.549  10.519   9.155
 8117POPC   GL134237  10.547  10.562   8.855
 8117POPC   GL234238  10.646  10.474   8.855
 8117POPC   C1A34239  10.509  10.557   8.555
 8117POPC   D2A34240  10.572  10.508   8.255
 8117POPC   C3A34241  10.541  10.518   7.955
 8117POPC   C4A34242  10.550  10.477   7.655
 8117POPC   C1B34243  10.638  10.339   8.555
 8117POPC   C2B34244  10.710  10.324   8.255
 8117POPC   C3B34245  10.649  10.331   7.955
 8117POPC   C4B34246  10.628  10.366   7.655
 8118POPC   NC334247  18.295  28.394   9.455
 8118POPC   PO434248  18.288  28.406   9.155
 8118POPC   GL134249  18.242  28.322   8.855
 8118POPC   GL234250  18.390  28.294   8.855
 8118POPC   C1A34251  18.259  28.415   8.555
 8118POPC   D2A34252  18.240  28.345   8.255
 8118POPC   C3A34253  18.285  28.411   7.955
 8118POPC   C4A34254  18.274  28.365   7.655
 8118POPC   C1B34255  18.466  28.171   8.555
 8118POPC   C2B34256  18.425  28.160   8.255
 8118POPC   C3B34257  18.462  28.183   7.955
 8118POPC   C4B34258  18.492  28.198   7.655
 8119POPC   NC334259  28.377  40.768   9.455
 8119POPC   PO434260  28.372  40.797   9.155
 8119POPC   GL134261  28.344  40.738   8.855
 8119POPC   GL234262  28.521  40.782   8.855
 8119POPC   C1A34263  28.393  40.821   8.555
 8119POPC   D2A34264  28.379  40.774   8.255
 8119POPC   C3A34265  28.379  40.778   7.955
 8119POPC   C4A34266  28.369  40.824   7.655
 8119POPC   C1B34267  28.665  40.752   8.555
 8119POPC   C2B34268  28.661  40.737   8.255
 8119POPC   C3B34269  28.579  40.743   7.955
 8119POPC   C4B34270  28.573  40.777   7.655
 8120POPC   NC334271  18.241   1.956   9.455
 8120POPC   PO434272  18.237   2.019   9.155
 8120POPC   GL134273  18.277   1.953   8.855
 8120POPC   GL234274  18.336   1.917   8.855
 8120POPC   C1A34275  18.277   1.978   8.555
 8120POPC   D2A34276  18.282   1.969   8.255
 8120POPC   C3A34277  18.282   1.970   7.955
 8120POPC   C4A34278  18.290   2.013   7.655
 8120POPC   C1B34279  18.465   1.784   8.555
 8120POPC   C2B34280  18.410   1.830   8.255
 8120POPC   C3B34281  18.450   1.775   7.955
 8120POPC   C4B34282  18.508   1.767   7.655
 8121POPC   NC334283  30.730  41.553   9.455
 8121POPC   PO434284  30.671  41.563   9.155
 8121POPC   GL134285  30.702  41.553   8.855
 8121POPC   GL234286  30.824  41.518   8.855
 8121POPC   C1A34287  30.658  41.550   8.555
 8121POPC   D2A34288  30.743  41.517   8.255
 8121POPC   C3A34289  30.688  41.544   7.955
 8121POPC   C4A34290  30.692  41.528   7.655
 8121POPC   C1B34291  30.906  41.445   8.555
 8121POPC   C2B34292  30.891  41.398   8.255
 8121POPC   C3B34293  30.957  41.461   7.955
 8121POPC   C4B34294  30.903  41.417   7.655
 8122POPC   NC334295   2.798  15.197   9.455
 8122POPC   PO434296   2.776  15.160   9.155
 8122POPC   GL134297   2.753  15.225   8.855
 8122POPC   GL234298   2.842  15.256   8.855
 8122POPC   C1A34299   2.780  15.135   8.555
 8122POPC   D2A34300   2.766  15.214   8.255
 8122POPC   C3A34301   2.763  15.133   7.955
 8122POPC   C4A34302   2.725  15.203   7.655
 8122POPC   C1B34303   2.982  15.238   8.555
 8122POPC   C2B34304   3.006  15.242   8.255
 8122POPC   C3B34305   2.964  15.248   7.955
 8122POPC   C4B34306   2.965  15.234   7.655
 8123POPC   NC334307   8.181  36.920   9.455
 8123POPC   PO434308   8.157  36.898   9.155
 8123POPC   GL134309   8.198  36.902   8.855
 8123POPC   GL234310   8.332  36.939   8.855
 8123POPC   C1A34311   8.208  36.912   8.555
 8123POPC   D2A34312   8.186  36.883   8.255
 8123POPC   C3A34313   8.241  36.932   7.955
 8123POPC   C4A34314   8.195  36.889   7.655
 8123POPC   C1B34315   8.470  36.855   8.555
 8123POPC   C2B34316   8.421  36.894   8.255
 8123POPC   C3B34317   8.478  36.910   7.955
 8123POPC   C4B34318   8.494  36.903   7.655
 8124POPC   NC334319  29.905  43.896   9.455
 8124POPC   PO434320  29.900  43.869   9.155
 8124POPC   GL134321  29.919  43.884   8.855
 8124POPC   GL234322  29.955  43.987   8.855
 8124POPC   C1A34323  29.954  43.888   8.555
 8124POPC   D2A34324  29.871  43.868   8.255
 8124POPC   C3A34325  29.921  43.852   7.955
 8124POPC   C4A34326  29.904  43.911   7.655
 8124POPC   C1B34327  29.957  44.128   8.555
 8124POPC   C2B34328  30.021  44.161   8.255
 8124POPC   C3B34329  30.033  44.093   7.955
 8124POPC   C4B34330  29.958  44.095   7.655
 8125POPC   NC334331   8.216  18.294   9.455
 8125POPC   PO434332   8.181  18.272   9.155
 8125POPC   GL134333   8.193  18.301   8.855
 8125POPC   GL234334   8.229  18.391   8.855
 8125POPC   C1A34335   8.235  18.331   8.555
 8125POPC   D2A34336   8.181  18.254   8.255
 8125POPC   C3A34337   8.214  18.295   7.955
 8125POPC   C4A34338   8.238  18.323   7.655
 8125POPC   C1B34339   8.270  18.485   8.555
 8125POPC   C2B34340   8.242  18.517   8.255
 8125POPC   C3B34341   8.276  18.539   7.955
 8125POPC   C4B34342   8.316  18.489   7.655
 8126POPC   NC334343   3.553   1.260   9.455
 8126POPC   PO434344   3.504   1.208   9.155
 8126POPC   GL134345   3.568   1.242   8.855
 8126POPC   GL234346   3.465   1.067   8.855
 8126POPC   C1A34347   3.537   1.246   8.555
 8126POPC   D2A34348   3.562   1.242   8.255
 8126POPC   C3A34349   3.543   1.257   7.955
 8126POPC   C4A34350   3.511   1.195   7.655
 8126POPC   C1B34351   3.391   0.975   8.555
 8126POPC   C2B34352   3.452   0.950   8.255
 8126POPC   C3B34353   3.426   1.038   7.955
 8126POPC   C4B34354   3.414   0.967   7.655
 8127POPC   NC334355   8.200  17.495   9.455
 8127POPC   PO434356   8.210  17.481   9.155
 8127POPC   GL134357   8.177  17.524   8.855
 8127POPC   GL234358   8.109  17.438   8.855
 8127POPC   C1A34359   8.181  17.557   8.555
 8127POPC   D2A34360   8.177  17.461   8.255
 8127POPC   C3A34361   8.170  17.503   7.955
 8127POPC   C4A34362   8.230  17.519   7.655
 8127POPC   C1B34363   8.060  17.262   8.555
 8127POPC   C2B34364   8.076  17.238   8.255
 8127POPC   C3B34365   8.122  17.261   7.955
 8127POPC   C4B34366   8.090  17.264   7.655
 8128POPC   NC334367   4.358   0.443   9.455
 8128POPC   PO434368   4.319   0.483   9.155
 8128POPC   GL134369   4.306   0.426   8.855
 8128POPC   GL234370   4.454   0.389   8.855
 8128POPC   C1A34371   4.343   0.388   8.555
 8128POPC   D2A34372   4.302   0.435   8.255
 8128POPC   C3A34373   4.353   0.441   7.955
 8128POPC   C4A34374   4.325   0.487   7.655
 8128POPC   C1B34375   4.537   0.335   8.555
 8128POPC   C2B34376   4.538   0.294   8.255
 8128POPC   C3B34377   4.546   0.264   7.955
 8128POPC   C4B34378   4.533   0.319   7.655
 8129POPC   NC334379  39.230  29.139   9.455
 8129POPC   PO434380  39.274  29.148   9.155
 8129POPC   GL134381  39.208  29.148   8.855
 8129POPC   GL234382  39.114  29.021   8.855
 8129POPC   C1A34383  39.197  29.186   8.555
 8129POPC   D2A34384  39.204  29.126   8.255
 8129POPC   C3A34385  39.223  29.115   7.955
 8129POPC   C4A34386  39.257  29.129   7.655
 8129POPC   C1B34387  39.084  28.970   8.555
 8129POPC   C2B34388  39.049  28.977   8.255
 8129POPC   C3B34389  39.014  28.979   7.955
 8129POPC   C4B34390  38.988  29.024   7.655
 8130POPC   NC334391  38.453  15.156   9.455
 8130POPC   PO434392  38.442  15.139   9.155
 8130POPC   GL134393  38.444  15.178   8.855
 8130POPC   GL234394  38.408  15.306   8.855
 8130POPC   C1A34395  38.445  15.194   8.555
 8130POPC   D2A34396  38.411  15.181   8.255
 8130POPC   C3A34397  38.442  15.195   7.955
 8130POPC   C4A34398  38.423  15.171   7.655
 8130POPC   C1B34399  38.328  15.423   8.555
 8130POPC   C2B34400  38.302  15.384   8.255
 8130POPC   C3B34401  38.370  15.355   7.955
 8130POPC   C4B34402  38.304  15.349   7.655
 8131POPC   NC334403   7.438  34.625   9.455
 8131POPC   PO434404   7.389  34.583   9.155
 8131POPC   GL134405   7.450  34.545   8.855
 8131POPC   GL234406   7.311  34.542   8.855
 8131POPC   C1A34407   7.408  34.556   8.555
 8131POPC   D2A34408   7.466  34.616   8.255
 8131POPC   C3A34409   7.382  34.571   7.955
 8131POPC   C4A34410   7.376  34.567   7.655
 8131POPC   C1B34411   7.200  34.469   8.555
 8131POPC   C2B34412   7.209  34.415   8.255
 8131POPC   C3B34413   7.185  34.453   7.955
 8131POPC   C4B34414   7.191  34.427   7.655
 8132POPC   NC334415  27.631   8.205   9.455
 8132POPC   PO434416  27.574   8.179   9.155
 8132POPC   GL134417  27.607   8.155   8.855
 8132POPC   GL234418  27.428   8.147   8.855
 8132POPC   C1A34419  27.596   8.216   8.555
 8132POPC   D2A34420  27.591   8.205   8.255
 8132POPC   C3A34421  27.552   8.156   7.955
 8132POPC   C4A34422  27.601   8.161   7.655
 8132POPC   C1B34423  27.401   8.086   8.555
 8132POPC   C2B34424  27.345   8.132   8.255
 8132POPC   C3B34425  27.391   8.107   7.955
 8132POPC   C4B34426  27.372   8.153   7.655
 8133POPC   NC334427  44.671   5.105   9.455
 8133POPC   PO434428  44.709   5.138   9.155
 8133POPC   GL134429  44.702   5.128   8.855
 8133POPC   GL234430  44.768   5.004   8.855
 8133POPC   C1A34431  44.633   5.095   8.555
 8133POPC   D2A34432  44.636   5.091   8.255
 8133POPC   C3A34433  44.711   5.110   7.955
 8133POPC   C4A34434  44.712   5.125   7.655
 8133POPC   C1B34435  44.882   5.016   8.555
 8133POPC   C2B34436  44.889   5.041   8.255
 8133POPC   C3B34437  44.882   4.962   7.955
 8133POPC   C4B34438  44.929   4.957   7.655
 8134POPC   NC334439  20.646  32.284   9.455
 8134POPC   PO434440  20.580  32.239   9.155
 8134POPC   GL134441  20.630  32.229   8.855
 8134POPC   GL234442  20.589  32.364   8.855
 8134POPC   C1A34443  20.562  32.285   8.555
 8134POPC   D2A34444  20.623  32.224   8.255
 8134POPC   C3A34445  20.574  32.245   7.955
 8134POPC   C4A34446  20.655  32.295   7.655
 8134POPC   C1B34447  20.556  32.519   8.555
 8134POPC   C2B34448  20.629  32.514   8.255
 8134POPC   C3B34449  20.546  32.538   7.955
 8134POPC   C4B34450  20.572  32.526   7.655
 8135POPC   NC334451  29.130  21.340   9.455
 8135POPC   PO434452  29.189  21.430   9.155
 8135POPC   GL134453  29.097  21.403   8.855
 8135POPC   GL234454  29.101  21.305   8.855
 8135POPC   C1A34455  29.173  21.431   8.555
 8135POPC   D2A34456  29.154  21.427   8.255
 8135POPC   C3A34457  29.187  21.380   7.955
 8135POPC   C4A34458  29.151  21.410   7.655
 8135POPC   C1B34459  29.121  21.156   8.555
 8135POPC   C2B34460  29.053  21.157   8.255
 8135POPC   C3B34461  29.123  21.189   7.955
 8135POPC   C4B34462  29.146  21.175   7.655
 8136POPC   NC334463  12.836  34.576   9.455
 8136POPC   PO434464  12.814  34.623   9.155
 8136POPC   GL134465  12.805  34.610   8.855
 8136POPC   GL234466  12.731  34.647   8.855
 8136POPC   C1A34467  12.844  34.534   8.555
 8136POPC   D2A34468  12.828  34.566   8.255
 8136POPC   C3A34469  12.803  34.604   7.955
 8136POPC   C4A34470  12.830  34.538   7.655
 8136POPC   C1B34471  12.589  34.700   8.555
 8136POPC   C2B34472  12.660  34.682   8.255
 8136POPC   C3B34473  12.622  34.666   7.955
 8136POPC   C4B34474  12.613  34.638   7.655
 8137POPC   NC334475  40.053  36.895   9.455
 8137POPC   PO434476  40.036  36.860   9.155
 8137POPC   GL134477  39.975  36.878   8.855
 8137POPC   GL234478  40.039  37.036   8.855
 8137POPC   C1A34479  40.046  36.915   8.555
 8137POPC   D2A34480  40.046  36.942   8.255
 8137POPC   C3A34481  39.959  36.865   7.955
 8137POPC   C4A34482  39.963  36.918   7.655
 8137POPC   C1B34483  40.186  37.121   8.555
 8137POPC   C2B34484  40.133  37.103   8.255
 8137POPC   C3B34485  40.138  37.116   7.955
 8137POPC   C4B34486  40.153  37.110   7.655
 8138POPC   NC334487  19.807  33.031   9.455
 8138POPC   PO434488  19.863  33.058   9.155
 8138POPC   GL134489  19.789  33.073   8.855
 8138POPC   GL234490  19.940  32.917   8.855
 8138POPC   C1A34491  19.838  33.005   8.555
 8138POPC   D2A34492  19.803  33.070   8.255
 8138POPC   C3A34493  19.840  32.990   7.955
 8138POPC   C4A34494  19.816  33.014   7.655
 8138POPC   C1B34495  20.007  32.908   8.555
 8138POPC   C2B34496  20.033  32.877   8.255
 8138POPC   C3B34497  20.009  32.838   7.955
 8138POPC   C4B34498  20.044  32.888   7.655
 8139POPC   NC334499  37.641  42.377   9.455
 8139POPC   PO434500  37.676  42.321   9.155
 8139POPC   GL134501  37.655  42.293   8.855
 8139POPC   GL234502  37.703  42.202   8.855
 8139POPC   C1A34503  37.671  42.368   8.555
 8139POPC   D2A34504  37.657  42.289   8.255
 8139POPC   C3A34505  37.698  42.341   7.955
 8139POPC   C4A34506  37.706  42.288   7.655
 8139POPC   C1B34507  37.805  42.091   8.555
 8139POPC   C2B34508  37.846  42.107   8.255
 8139POPC   C3B34509  37.765  42.107   7.955
 8139POPC   C4B34510  37.829  42.158   7.655
 8140POPC   NC334511  33.015  22.144   9.455
 8140POPC   PO434512  33.017  22.129   9.155
 8140POPC   GL134513  33.065  22.127   8.855
 8140POPC   GL234514  32.890  22.080   8.855
 8140POPC   C1A34515  33.060  22.123   8.555
 8140POPC   D2A34516  33.021  22.212   8.255
 8140POPC   C3A34517  33.008  22.175   7.955
 8140POPC   C4A34518  33.044  22.160   7.655
 8140POPC   C1B34519  32.843  22.078   8.555
 8140POPC   C2B34520  32.844  22.048   8.255
 8140POPC   C3B34521  32.756  22.070   7.955
 8140POPC   C4B34522  32.796  22.058   7.655
 8141POPC   NC334523  20.660  33.037   9.455
 8141POPC   PO434524  20.594  32.974   9.155
 8141POPC   GL134525  20.659  33.004   8.855
 8141POPC   GL234526  20.668  33.135   8.855
 8141POPC   C1A34527  20.564  32.994   8.555
 8141POPC   D2A34528  20.573  33.030   8.255
 8141POPC   C3A34529  20.646  32.993   7.955
 8141POPC   C4A34530  20.644  33.065   7.655
 8141POPC   C1B34531  20.754  33.209   8.555
 8141POPC   C2B34532  20.812  33.180   8.255
 8141POPC   C3B34533  20.770  33.255   7.955
 8141POPC   C4B34534  20.763  33.259   7.655
 8142POPC   NC334535  22.156  41.529   9.455
 8142POPC   PO434536  22.172  41.596   9.155
 8142POPC   GL134537  22.182  41.579   8.855
 8142POPC   GL234538  22.222  41.470   8.855
 8142POPC   C1A34539  22.169  41.585   8.555
 8142POPC   D2A34540  22.130  41.537   8.255
 8142POPC   C3A34541  22.150  41.607   7.955
 8142POPC   C4A34542  22.203  41.533   7.655
 8142POPC   C1B34543  22.339  41.367   8.555
 8142POPC   C2B34544  22.363  41.376   8.255
 8142POPC   C3B34545  22.301  41.342   7.955
 8142POPC   C4B34546  22.290  41.346   7.655
 8143POPC   NC334547  40.775   8.180   9.455
 8143POPC   PO434548  40.763   8.162   9.155
 8143POPC   GL134549  40.745   8.213   8.855
 8143POPC   GL234550  40.916   8.244   8.855
 8143POPC   C1A34551  40.751   8.194   8.555
 8143POPC   D2A34552  40.814   8.230   8.255
 8143POPC   C3A34553  40.752   8.172   7.955
 8143POPC   C4A34554  40.752   8.148   7.655
 8143POPC   C1B34555  41.062   8.283   8.555
 8143POPC   C2B34556  40.978   8.297   8.255
 8143POPC   C3B34557  41.029   8.296   7.955
 8143POPC   C4B34558  41.054   8.334   7.655
 8144POPC   NC334559   5.060   5.073   9.455
 8144POPC   PO434560   5.091   5.106   9.155
 8144POPC   GL134561   5.120   5.092   8.855
 8144POPC   GL234562   5.050   5.164   8.855
 8144POPC   C1A34563   5.102   5.111   8.555
 8144POPC   D2A34564   5.130   5.051   8.255
 8144POPC   C3A34565   5.104   5.137   7.955
 8144POPC   C4A34566   5.119   5.112   7.655
 8144POPC   C1B34567   4.964   5.264   8.555
 8144POPC   C2B34568   4.899   5.259   8.255
 8144POPC   C3B34569   4.981   5.253   7.955
 8144POPC   C4B34570   4.992   5.261   7.655
 8145POPC   NC334571  26.799   5.103   9.455
 8145POPC   PO434572  26.803   5.095   9.155
 8145POPC   GL134573  26.796   5.123   8.855
 8145POPC   GL234574  26.839   5.201   8.855
 8145POPC   C1A34575  26.780   5.077   8.555
 8145POPC   D2A34576  26.818   5.072   8.255
 8145POPC   C3A34577  26.829   5.089   7.955
 8145POPC   C4A34578  26.847   5.058   7.655
 8145POPC   C1B34579  26.961   5.346   8.555
 8145POPC   C2B34580  26.958   5.307   8.255
 8145POPC   C3B34581  26.930   5.283   7.955
 8145POPC   C4B34582  26.925   5.361   7.655
 8146POPC   NC334583  26.030  12.862   9.455
 8146POPC   PO434584  26.003  12.868   9.155
 8146POPC   GL134585  26.041  12.825   8.855
 8146POPC   GL234586  26.209  12.787   8.855
 8146POPC   C1A34587  26.091  12.842   8.555
 8146POPC   D2A34588  26.020  12.815   8.255
 8146POPC   C3A34589  26.051  12.861   7.955
 8146POPC   C4A34590  26.023  12.849   7.655
 8146POPC   C1B34591  26.248  12.861   8.555
 8146POPC   C2B34592  26.256  12.848   8.255
 8146POPC   C3B34593  26.302  12.859   7.955
 8146POPC   C4B34594  26.273  12.841   7.655
 8147POPC   NC334595  43.855   5.822   9.455
 8147POPC   PO434596  43.933   5.872   9.155
 8147POPC   GL134597  43.860   5.898   8.855
 8147POPC   GL234598  44.031   5.758   8.855
 8147POPC   C1A34599  43.863   5.840   8.555
 8147POPC   D2A34600  43.883   5.840   8.255
 8147POPC   C3A34601  43.903   5.908   7.955
 8147POPC   C4A34602  43.850   5.826   7.655
 8147POPC   C1B34603  44.140   5.731   8.555
 8147POPC   C2B34604  44.148   5.746   8.255
 8147POPC   C3B34605  44.084   5.711   7.955
 8147POPC   C4B34606  44.111   5.725   7.655
 8148POPC   NC334607  32.229   7.384   9.455
 8148POPC   PO434608  32.289   7.394   9.155
 8148POPC   GL134609  32.287   7.413   8.855
 8148POPC   GL234610  32.331   7.556   8.855
 8148POPC   C1A34611  32.215   7.381   8.555
 8148POPC   D2A34612  32.230   7.466   8.255
 8148POPC   C3A34613  32.265   7.450   7.955
 8148POPC   C4A34614  32.279   7.431   7.655
 8148POPC   C1B34615  32.364   7.689   8.555
 8148POPC   C2B34616  32.355   7.672   8.255
 8148POPC   C3B34617  32.313   7.611   7.955
 8148POPC   C4B34618  32.288   7.668   7.655
 8149POPC   NC334619  19.786  42.354   9.455
 8149POPC   PO434620  19.811  42.361   9.155
 8149POPC   GL134621  19.811  42.323   8.855
 8149POPC   GL234622  19.862  42.171   8.855
 8149POPC   C1A34623  19.795  42.327   8.555
 8149POPC   D2A34624  19.861  42.370   8.255
 8149POPC   C3A34625  19.830  42.374   7.955
 8149POPC   C4A34626  19.842  42.360   7.655
 8149POPC   C1B34627  19.837  42.089   8.555
 8149POPC   C2B34628  19.812  42.068   8.255
 8149POPC   C3B34629  19.788  42.060   7.955
 8149POPC   C4B34630  19.874  42.114   7.655
 8150POPC   NC334631  25.274  29.137   9.455
 8150POPC   PO434632  25.277  29.145   9.155
 8150POPC   GL134633  25.313  29.145   8.855
 8150POPC   GL234634  25.271  29.272   8.855
 8150POPC   C1A34635  25.309  29.140   8.555
 8150POPC   D2A34636  25.271  29.119   8.255
 8150POPC   C3A34637  25.238  29.151   7.955
 8150POPC   C4A34638  25.257  29.194   7.655
 8150POPC   C1B34639  25.315  29.406   8.555
 8150POPC   C2B34640  25.387  29.371   8.255
 8150POPC   C3B34641  25.387  29.347   7.955
 8150POPC   C4B34642  25.374  29.338   7.655
 8151POPC   NC334643  10.530  31.454   9.455
 8151POPC   PO434644  10.556  31.445   9.155
 8151POPC   GL134645  10.566  31.459   8.855
 8151POPC   GL234646  10.390  31.437   8.855
 8151POPC   C1A34647  10.516  31.423   8.555
 8151POPC   D2A34648  10.495  31.449   8.255
 8151POPC   C3A34649  10.496  31.457   7.955
 8151POPC   C4A34650  10.508  31.507   7.655
 8151POPC   C1B34651  10.311  31.339   8.555
 8151POPC   C2B34652  10.300  31.352   8.255
 8151POPC   C3B34653  10.339  31.335   7.955
 8151POPC   C4B34654  10.355  31.293   7.655
 8152POPC   NC334655   6.620  43.857   9.455
 8152POPC   PO434656   6.619  43.905   9.155
 8152POPC   GL134657   6.596  43.841   8.855
 8152POPC   GL234658   6.566  43.934   8.855
 8152POPC   C1A34659   6.635  43.904   8.555
 8152POPC   D2A34660   6.598  43.930   8.255
 8152POPC   C3A34661   6.627  43.845   7.955
 8152POPC   C4A34662   6.643  43.919   7.655
 8152POPC   C1B34663   6.447  44.063   8.555
 8152POPC   C2B34664   6.475  43.988   8.255
 8152POPC   C3B34665   6.399  44.049   7.955
 8152POPC   C4B34666   6.489  44.054   7.655
 8153POPC   NC334667   5.914  35.401   9.455
 8153POPC   PO434668   5.846  35.351   9.155
 8153POPC   GL134669   5.885  35.337   8.855
 8153POPC   GL234670   5.969  35.377   8.855
 8153POPC   C1A34671   5.831  35.346   8.555
 8153POPC   D2A34672   5.824  35.395   8.255
 8153POPC   C3A34673   5.846  35.369   7.955
 8153POPC   C4A34674   5.877  35.381   7.655
 8153POPC   C1B34675   6.135  35.420   8.555
 8153POPC   C2B34676   6.096  35.406   8.255
 8153POPC   C3B34677   6.107  35.384   7.955
 8153POPC   C4B34678   6.103  35.392   7.655
 8154POPC   NC334679  31.429  38.442   9.455
 8154POPC   PO434680  31.470  38.445   9.155
 8154POPC   GL134681  31.503  38.481   8.855
 8154POPC   GL234682  31.518  38.514   8.855
 8154POPC   C1A34683  31.473  38.473   8.555
 8154POPC   D2A34684  31.441  38.465   8.255
 8154POPC   C3A34685  31.494  38.483   7.955
 8154POPC   C4A34686  31.465  38.484   7.655
 8154POPC   C1B34687  31.661  38.617   8.555
 8154POPC   C2B34688  31.658  38.607   8.255
 8154POPC   C3B34689  31.610  38.674   7.955
 8154POPC   C4B34690  31.589  38.603   7.655
 8155POPC   NC334691  27.639  34.612   9.455
 8155POPC   PO434692  27.563  34.591   9.155
 8155POPC   GL134693  27.639  34.552   8.855
 8155POPC   GL234694  27.718  34.571   8.855
 8155POPC   C1A34695  27.606  34.529   8.555
 8155POPC   D2A34696  27.543  34.540   8.255
 8155POPC   C3A34697  27.640  34.589   7.955
 8155POPC   C4A34698  27.543  34.528   7.655
 8155POPC   C1B34699  27.858  34.505   8.555
 8155POPC   C2B34700  27.823  34.454   8.255
 8155POPC   C3B34701  27.830  34.545   7.955
 8155POPC   C4B34702  27.794  34.473   7.655
 8156POPC   NC334703   5.824  32.254   9.455
 8156POPC   PO434704   5.894  32.282   9.155
 8156POPC   GL134705   5.878  32.255   8.855
 8156POPC   GL234706   5.787  32.205   8.855
 8156POPC   C1A34707   5.865  32.288   8.555
 8156POPC   D2A34708   5.878  32.232   8.255
 8156POPC   C3A34709   5.834  32.201   7.955
 8156POPC   C4A34710   5.854  32.245   7.655
 8156POPC   C1B34711   5.632  32.155   8.555
 8156POPC   C2B34712   5.671  32.118   8.255
 8156POPC   C3B34713   5.643  32.181   7.955
 8156POPC   C4B34714   5.670  32.184   7.655
 8157POPC   NC334715  36.098  30.668   9.455
 8157POPC   PO434716  36.102  30.659   9.155
 8157POPC   GL134717  36.151  30.704   8.855
 8157POPC   GL234718  36.131  30.775   8.855
 8157POPC   C1A34719  36.122  30.671   8.555
 8157POPC   D2A34720  36.153  30.679   8.255
 8157POPC   C3A34721  36.156  30.660   7.955
 8157POPC   C4A34722  36.169  30.678   7.655
 8157POPC   C1B34723  36.133  30.940   8.555
 8157POPC   C2B34724  36.128  30.978   8.255
 8157POPC   C3B34725  36.075  30.916   7.955
 8157POPC   C4B34726  36.150  30.971   7.655
 8158POPC   NC334727  27.568  10.486   9.455
 8158POPC   PO434728  27.637  10.543   9.155
 8158POPC   GL134729  27.600  10.514   8.855
 8158POPC   GL234730  27.499  10.534   8.855
 8158POPC   C1A34731  27.548  10.474   8.555
 8158POPC   D2A34732  27.626  10.479   8.255
 8158POPC   C3A34733  27.629  10.545   7.955
 8158POPC   C4A34734  27.642  10.494   7.655
 8158POPC   C1B34735  27.320  10.520   8.555
 8158POPC   C2B34736  27.350  10.553   8.255
 8158POPC   C3B34737  27.324  10.534   7.955
 8158POPC   C4B34738  27.394  10.558   7.655
 8159POPC   NC334739  38.428  19.880   9.455
 8159POPC   PO434740  38.446  19.857   9.155
 8159POPC   GL134741  38.499  19.796   8.855
 8159POPC   GL234742  38.339  19.927   8.855
 8159POPC   C1A34743  38.496  19.815   8.555
 8159POPC   D2A34744  38.419  19.859   8.255
 8159POPC   C3A34745  38.459  19.866   7.955
 8159POPC   C4A34746  38.428  19.813   7.655
 8159POPC   C1B34747  38.327  20.039   8.555
 8159POPC   C2B34748  38.334  20.050   8.255
 8159POPC   C3B34749  38.256  20.050   7.955
 8159POPC   C4B34750  38.327  20.030   7.655
 8160POPC   NC334751  38.422  12.108   9.455
 8160POPC   PO434752  38.410  12.032   9.155
 8160POPC   GL134753  38.429  12.093   8.855
 8160POPC   GL234754  38.561  12.201   8.855
 8160POPC   C1A34755  38.504  12.036   8.555
 8160POPC   D2A34756  38.495  12.071   8.255
 8160POPC   C3A34757  38.456  12.109   7.955
 8160POPC   C4A34758  38.499  12.028   7.655
 8160POPC   C1B34759  38.567  12.243   8.555
 8160POPC   C2B34760  38.568  12.315   8.255
 8160POPC   C3B34761  38.574  12.315   7.955
 8160POPC   C4B34762  38.550  12.319   7.655
 8161POPC   NC334763  28.383  13.650   9.455
 8161POPC   PO434764  28.353  13.645   9.155
 8161POPC   GL134765  28.337  13.597   8.855
 8161POPC   GL234766  28.492  13.665   8.855
 8161POPC   C1A34767  28.403  13.624   8.555
 8161POPC   D2A34768  28.418  13.636   8.255
 8161POPC   C3A34769  28.334  13.618   7.955
 8161POPC   C4A34770  28.368  13.629   7.655
 8161POPC   C1B34771  28.525  13.785   8.555
 8161POPC   C2B34772  28.547  13.799   8.255
 8161POPC   C3B34773  28.554  13.791   7.955
 8161POPC   C4B34774  28.577  13.807   7.655
 8162POPC   NC334775  21.379  29.104   9.455
 8162POPC   PO434776  21.357  29.127   9.155
 8162POPC   GL134777  21.393  29.110   8.855
 8162POPC   GL234778  21.532  29.089   8.855
 8162POPC   C1A34779  21.356  29.148   8.555
 8162POPC   D2A34780  21.387  29.149   8.255
 8162POPC   C3A34781  21.435  29.163   7.955
 8162POPC   C4A34782  21.397  29.193   7.655
 8162POPC   C1B34783  21.609  29.029   8.555
 8162POPC   C2B34784  21.646  28.998   8.255
 8162POPC   C3B34785  21.648  29.007   7.955
 8162POPC   C4B34786  21.595  29.047   7.655
 8163POPC   NC334787  19.868   5.087   9.455
 8163POPC   PO434788  19.807   5.056   9.155
 8163POPC   GL134789  19.873   5.133   8.855
 8163POPC   GL234790  19.932   5.035   8.855
 8163POPC   C1A34791  19.791   5.064   8.555
 8163POPC   D2A34792  19.848   5.081   8.255
 8163POPC   C3A34793  19.815   5.069   7.955
 8163POPC   C4A34794  19.799   5.068   7.655
 8163POPC   C1B34795  20.132   5.110   8.555
 8163POPC   C2B34796  20.074   5.099   8.255
 8163POPC   C3B34797  20.060   5.066   7.955
 8163POPC   C4B34798  20.131   5.031   7.655
 8164POPC   NC334799  40.045  16.698   9.455
 8164POPC   PO434800  40.052  16.757   9.155
 8164POPC   GL134801  40.039  16.754   8.855
 8164POPC   GL234802  39.905  16.839   8.855
 8164POPC   C1A34803  39.966  16.740   8.555
 8164POPC   D2A34804  40.053  16.709   8.255
 8164POPC   C3A34805  40.006  16.699   7.955
 8164POPC   C4A34806  40.036  16.718   7.655
 8164POPC   C1B34807  39.860  16.876   8.555
 8164POPC   C2B34808  39.856  16.910   8.255
 8164POPC   C3B34809  39.867  16.916   7.955
 8164POPC   C4B34810  39.789  16.951   7.655
 8165POPC   NC334811  16.769   0.436   9.455
 8165POPC   PO434812  16.712   0.397   9.155
 8165POPC   GL134813  16.712   0.483   8.855
 8165POPC   GL234814  16.775   0.606   8.855
 8165POPC   C1A34815  16.779   0.406   8.555
 8165POPC   D2A34816  16.683   0.407   8.255
 8165POPC   C3A34817  16.733   0.461   7.955
 8165POPC   C4A34818  16.732   0.423   7.655
 8165POPC   C1B34819  16.746   0.648   8.555
 8165POPC   C2B34820  16.784   0.687   8.255
 8165POPC   C3B34821  16.826   0.689   7.955
 8165POPC   C4B34822  16.835   0.658   7.655
 8166POPC   NC334823   3.554  19.036   9.455
 8166POPC   PO434824   3.521  19.085   9.155
 8166POPC   GL134825   3.540  19.095   8.855
 8166POPC   GL234826   3.435  19.060   8.855
 8166POPC   C1A34827   3.530  19.036   8.555
 8166POPC   D2A34828   3.572  19.054   8.255
 8166POPC   C3A34829   3.583  19.078   7.955
 8166POPC   C4A34830   3.509  19.096   7.655
 8166POPC   C1B34831   3.291  19.086   8.555
 8166POPC   C2B34832   3.265  19.136   8.255
 8166POPC   C3B34833   3.288  19.079   7.955
 8166POPC   C4B34834   3.256  19.092   7.655
 8167POPC   NC334835  22.174  12.071   9.455
 8167POPC   PO434836  22.161  12.112   9.155
 8167POPC   GL134837  22.169  12.114   8.855
 8167POPC   GL234838  22.173  11.949   8.855
 8167POPC   C1A34839  22.197  12.070   8.555
 8167POPC   D2A34840  22.196  12.116   8.255
 8167POPC   C3A34841  22.189  12.078   7.955
 8167POPC   C4A34842  22.203  12.078   7.655
 8167POPC   C1B34843  22.158  11.792   8.555
 8167POPC   C2B34844  22.191  11.878   8.255
 8167POPC   C3B34845  22.206  11.849   7.955
 8167POPC   C4B34846  22.239  11.801   7.655
 8168POPC   NC334847  28.330   1.197   9.455
 8168POPC   PO434848  28.396   1.234   9.155
 8168POPC   GL134849  28.325   1.213   8.855
 8168POPC   GL234850  28.373   1.052   8.855
 8168POPC   C1A34851  28.348   1.216   8.555
 8168POPC   D2A34852  28.341   1.222   8.255
 8168POPC   C3A34853  28.365   1.168   7.955
 8168POPC   C4A34854  28.363   1.210   7.655
 8168POPC   C1B34855  28.351   0.930   8.555
 8168POPC   C2B34856  28.341   0.924   8.255
 8168POPC   C3B34857  28.335   0.935   7.955
 8168POPC   C4B34858  28.321   0.925   7.655
 8169POPC   NC334859  11.252   1.997   9.455
 8169POPC   PO434860  11.348   1.961   9.155
 8169POPC   GL134861  11.312   2.002   8.855
 8169POPC   GL234862  11.200   2.147   8.855
 8169POPC   C1A34863  11.286   2.021   8.555
 8169POPC   D2A34864  11.281   1.996   8.255
 8169POPC   C3A34865  11.312   1.988   7.955
 8169POPC   C4A34866  11.312   2.040   7.655
 8169POPC   C1B34867  11.122   2.236   8.555
 8169POPC   C2B34868  11.131   2.234   8.255
 8169POPC   C3B34869  11.187   2.198   7.955
 8169POPC   C4B34870  11.205   2.224   7.655
 8170POPC   NC334871  16.746  23.754   9.455
 8170POPC   PO434872  16.723  23.749   9.155
 8170POPC   GL134873  16.725  23.682   8.855
 8170POPC   GL234874  16.687  23.849   8.855
 8170POPC   C1A34875  16.684  23.732   8.555
 8170POPC   D2A34876  16.755  23.665   8.255
 8170POPC   C3A34877  16.688  23.674   7.955
 8170POPC   C4A34878  16.713  23.682   7.655
 8170POPC   C1B34879  16.559  23.931   8.555
 8170POPC   C2B34880  16.546  23.955   8.255
 8170POPC   C3B34881  16.588  23.875   7.955
 8170POPC   C4B34882  16.558  23.876   7.655
 8171POPC   NC334883  43.096  15.959   9.455
 8171POPC   PO434884  43.067  15.955   9.155
 8171POPC   GL134885  43.064  15.978   8.855
 8171POPC   GL234886  43.247  15.931   8.855
 8171POPC   C1A34887  43.072  15.997   8.555
 8171POPC   D2A34888  43.148  15.946   8.255
 8171POPC   C3A34889  43.138  15.981   7.955
 8171POPC   C4A34890  43.148  15.981   7.655
 8171POPC   C1B34891  43.346  15.903   8.555
 8171POPC   C2B34892  43.311  15.883   8.255
 8171POPC   C3B34893  43.313  15.933   7.955
 8171POPC   C4B34894  43.398  15.880   7.655
 8172POPC   NC334895  43.875   4.338   9.455
 8172POPC   PO434896  43.884   4.290   9.155
 8172POPC   GL134897  43.867   4.287   8.855
 8172POPC   GL234898  43.749   4.427   8.855
 8172POPC   C1A34899  43.926   4.332   8.555
 8172POPC   D2A34900  43.862   4.333   8.255
 8172POPC   C3A34901  43.900   4.327   7.955
 8172POPC   C4A34902  43.889   4.341   7.655
 8172POPC   C1B34903  43.683   4.475   8.555
 8172POPC   C2B34904  43.694   4.477   8.255
 8172POPC   C3B34905  43.667   4.459   7.955
 8172POPC   C4B34906  43.688   4.522   7.655
 8173POPC   NC334907  11.257  41.597   9.455
 8173POPC   PO434908  11.347  41.571   9.155
 8173POPC   GL134909  11.338  41.597   8.855
 8173POPC   GL234910  11.422  41.672   8.855
 8173POPC   C1A34911  11.344  41.576   8.555
 8173POPC   D2A34912  11.323  41.555   8.255
 8173POPC   C3A34913  11.286  41.524   7.955
 8173POPC   C4A34914  11.320  41.564   7.655
 8173POPC   C1B34915  11.550  41.698   8.555
 8173POPC   C2B34916  11.515  41.725   8.255
 8173POPC   C3B34917  11.504  41.740   7.955
 8173POPC   C4B34918  11.539  41.668   7.655
 8174POPC   NC334919  34.605  37.672   9.455
 8174POPC   PO434920  34.598  37.649   9.155
 8174POPC   GL134921  34.581  37.651   8.855
 8174POPC   GL234922  34.543  37.821   8.855
 8174POPC   C1A34923  34.613  37.714   8.555
 8174POPC   D2A34924  34.567  37.696   8.255
 8174POPC   C3A34925  34.549  37.649   7.955
 8174POPC   C4A34926  34.622  37.632   7.655
 8174POPC   C1B34927  34.404  37.832   8.555
 8174POPC   C2B34928  34.423  37.843   8.255
 8174POPC   C3B34929  34.414  37.892   7.955
 8174POPC   C4B34930  34.401  37.853   7.655
 8175POPC   NC334931  24.534  26.067   9.455
 8175POPC   PO434932  24.452  26.032   9.155
 8175POPC   GL134933  24.470  26.082   8.855
 8175POPC   GL234934  24.615  26.094   8.855
 8175POPC   C1A34935  24.503  26.068   8.555
 8175POPC   D2A34936  24.486  26.086   8.255
 8175POPC   C3A34937  24.444  26.027   7.955
 8175POPC   C4A34938  24.516  26.029   7.655
 8175POPC   C1B34939  24.744  26.137   8.555
 8175POPC   C2B34940  24.782  26.087   8.255
 8175POPC   C3B34941  24.750  26.105   7.955
 8175POPC   C4B34942  24.721  26.061   7.655
 8176POPC   NC334943  11.282   0.417   9.455
 8176POPC   PO434944  11.310   0.443   9.155
 8176POPC   GL134945  11.341   0.475   8.855
 8176POPC   GL234946  11.274   0.603   8.855
 8176POPC   C1A34947  11.309   0.434   8.555
 8176POPC   D2A34948  11.345   0.482   8.255
 8176POPC   C3A34949  11.264   0.407   7.955
 8176POPC   C4A34950  11.326   0.430   7.655
 8176POPC   C1B34951  11.178   0.675   8.555
 8176POPC   C2B34952  11.236   0.644   8.255
 8176POPC   C3B34953  11.175   0.670   7.955
 8176POPC   C4B34954  11.239   0.632   7.655
 8177POPC   NC334955   8.961   4.349   9.455
 8177POPC   PO434956   8.987   4.333   9.155
 8177POPC   GL134957   9.022   4.285   8.855
 8177POPC   GL234958   8.883   4.234   8.855
 8177POPC   C1A34959   8.945   4.361   8.555
 8177POPC   D2A34960   8.972   4.332   8.255
 8177POPC   C3A34961   9.001   4.356   7.955
 8177POPC   C4A34962   8.977   4.347   7.655
 8177POPC   C1B34963   8.831   4.120   8.555
 8177POPC   C2B34964   8.865   4.131   8.255
 8177POPC   C3B34965   8.869   4.111   7.955
 8177POPC   C4B34966   8.804   4.139   7.655
 8178POPC   NC334967  27.589   4.355   9.455
 8178POPC   PO434968  27.565   4.337   9.155
 8178POPC   GL134969  27.612   4.358   8.855
 8178POPC   GL234970  27.714   4.317   8.855
 8178POPC   C1A34971  27.605   4.319   8.555
 8178POPC   D2A34972  27.631   4.313   8.255
 8178POPC   C3A34973  27.625   4.299   7.955
 8178POPC   C4A34974  27.572   4.330   7.655
 8178POPC   C1B34975  27.824   4.310   8.555
 8178POPC   C2B34976  27.839   4.277   8.255
 8178POPC   C3B34977  27.844   4.270   7.955
 8178POPC   C4B34978  27.819   4.304   7.655
 8179POPC   NC334979   9.732  11.313   9.455
 8179POPC   PO434980   9.721  11.257   9.155
 8179POPC   GL134981   9.729  11.307   8.855
 8179POPC   GL234982   9.669  11.340   8.855
 8179POPC   C1A34983   9.733  11.285   8.555
 8179POPC   D2A34984   9.738  11.276   8.255
 8179POPC   C3A34985   9.708  11.297   7.955
 8179POPC   C4A34986   9.702  11.269   7.655
 8179POPC   C1B34987   9.493  11.464   8.555
 8179POPC   C2B34988   9.535  11.405   8.255
 8179POPC   C3B34989   9.560  11.384   7.955
 8179POPC   C4B34990   9.568  11.389   7.655
 8180POPC   NC334991  12.869  32.227   9.455
 8180POPC   PO434992  12.805  32.246   9.155
 8180POPC   GL134993  12.835  32.241   8.855
 8180POPC   GL234994  12.894  32.156   8.855
 8180POPC   C1A34995  12.863  32.223   8.555
 8180POPC   D2A34996  12.836  32.231   8.255
 8180POPC   C3A34997  12.806  32.245   7.955
 8180POPC   C4A34998  12.813  32.274   7.655
 8180POPC   C1B34999  13.004  31.989   8.555
 8180POPC   C2B35000  12.988  31.990   8.255
 8180POPC   C3B35001  13.016  32.071   7.955
 8180POPC   C4B35002  12.999  32.046   7.655
 8181POPC   NC335003  43.853  19.848   9.455
 8181POPC   PO435004  43.882  19.807   9.155
 8181POPC   GL135005  43.874  19.791   8.855
 8181POPC   GL235006  43.882  19.762   8.855
 8181POPC   C1A35007  43.920  19.792   8.555
 8181POPC   D2A35008  43.907  19.800   8.255
 8181POPC   C3A35009  43.926  19.822   7.955
 8181POPC   C4A35010  43.897  19.792   7.655
 8181POPC   C1B35011  43.999  19.636   8.555
 8181POPC   C2B35012  43.956  19.640   8.255
 8181POPC   C3B35013  43.949  19.550   7.955
 8181POPC   C4B35014  43.950  19.628   7.655
 8182POPC   NC335015  15.170  16.734   9.455
 8182POPC   PO435016  15.175  16.681   9.155
 8182POPC   GL135017  15.133  16.771   8.855
 8182POPC   GL235018  15.346  16.773   8.855
 8182POPC   C1A35019  15.200  16.686   8.555
 8182POPC   D2A35020  15.161  16.694   8.255
 8182POPC   C3A35021  15.210  16.688   7.955
 8182POPC   C4A35022  15.229  16.765   7.655
 8182POPC   C1B35023  15.433  16.844   8.555
 8182POPC   C2B35024  15.421  16.770   8.255
 8182POPC   C3B35025  15.445  16.789   7.955
 8182POPC   C4B35026  15.432  16.821   7.655
 8183POPC   NC335027  26.795  44.651   9.455
 8183POPC   PO435028  26.808  44.698   9.155
 8183POPC   GL135029  26.800  44.644   8.855
 8183POPC   GL235030  26.859  44.519   8.855
 8183POPC   C1A35031  26.821  44.672   8.555
 8183POPC   D2A35032  26.827  44.708   8.255
 8183POPC   C3A35033  26.860  44.704   7.955
 8183POPC   C4A35034  26.815  44.694   7.655
 8183POPC   C1B35035  26.944  44.426   8.555
 8183POPC   C2B35036  26.886  44.457   8.255
 8183POPC   C3B35037  26.876  44.415   7.955
 8183POPC   C4B35038  26.860  44.463   7.655
 8184POPC   NC335039  11.259  32.239   9.455
 8184POPC   PO435040  11.280  32.272   9.155
 8184POPC   GL135041  11.350  32.237   8.855
 8184POPC   GL235042  11.177  32.280   8.855
 8184POPC   C1A35043  11.302  32.215   8.555
 8184POPC   D2A35044  11.349  32.206   8.255
 8184POPC   C3A35045  11.269  32.206   7.955
 8184POPC   C4A35046  11.331  32.223   7.655
 8184POPC   C1B35047  11.054  32.358   8.555
 8184POPC   C2B35048  11.114  32.359   8.255
 8184POPC   C3B35049  11.050  32.362   7.955
 8184POPC   C4B35050  11.047  32.421   7.655
 8185POPC   NC335051  39.963  41.562   9.455
 8185POPC   PO435052  39.982  41.522   9.155
 8185POPC   GL135053  39.989  41.586   8.855
 8185POPC   GL235054  39.950  41.426   8.855
 8185POPC   C1A35055  40.020  41.543   8.555
 8185POPC   D2A35056  39.995  41.594   8.255
 8185POPC   C3A35057  40.052  41.545   7.955
 8185POPC   C4A35058  40.055  41.563   7.655
 8185POPC   C1B35059  39.919  41.310   8.555
 8185POPC   C2B35060  39.884  41.349   8.255
 8185POPC   C3B35061  39.911  41.305   7.955
 8185POPC   C4B35062  39.858  41.372   7.655
 8186POPC   NC335063   2.034  34.597   9.455
 8186POPC   PO435064   1.950  34.547   9.155
 8186POPC   GL135065   1.997  34.595   8.855
 8186POPC   GL235066   1.899  34.681   8.855
 8186POPC   C1A35067   2.035  34.530   8.555
 8186POPC   D2A35068   2.005  34.528   8.255
 8186POPC   C3A35069   1.974  34.605   7.955
 8186POPC   C4A35070   1.960  34.617   7.655
 8186POPC   C1B35071   1.870  34.789   8.555
 8186POPC   C2B35072   1.859  34.822   8.255
 8186POPC   C3B35073   1.843  34.827   7.955
 8186POPC   C4B35074   1.896  34.761   7.655
 8187POPC   NC335075  26.862  11.344   9.455
 8187POPC   PO435076  26.821  11.305   9.155
 8187POPC   GL135077  26.793  11.348   8.855
 8187POPC   GL235078  26.965  11.313   8.855
 8187POPC   C1A35079  26.831  11.310   8.555
 8187POPC   D2A35080  26.816  11.274   8.255
 8187POPC   C3A35081  26.782  11.282   7.955
 8187POPC   C4A35082  26.864  11.311   7.655
 8187POPC   C1B35083  27.001  11.394   8.555
 8187POPC   C2B35084  27.031  11.458   8.255
 8187POPC   C3B35085  26.989  11.404   7.955
 8187POPC   C4B35086  27.007  11.440   7.655
 8188POPC   NC335087  38.469  34.589   9.455
 8188POPC   PO435088  38.494  34.552   9.155
 8188POPC   GL135089  38.479  34.555   8.855
 8188POPC   GL235090  38.303  34.600   8.855
 8188POPC   C1A35091  38.412  34.598   8.555
 8188POPC   D2A35092  38.425  34.575   8.255
 8188POPC   C3A35093  38.420  34.561   7.955
 8188POPC   C4A35094  38.432  34.560   7.655
 8188POPC   C1B35095  38.205  34.664   8.555
 8188POPC   C2B35096  38.214  34.624   8.255
 8188POPC   C3B35097  38.193  34.678   7.955
 8188POPC   C4B35098  38.209  34.630   7.655
 8189POPC   NC335099  39.226  10.477   9.455
 8189POPC   PO435100  39.258  10.565   9.155
 8189POPC   GL135101  39.252  10.536   8.855
 8189POPC   GL235102  39.337  10.576   8.855
 8189POPC   C1A35103  39.191  10.541   8.555
 8189POPC   D2A35104  39.248  10.546   8.255
 8189POPC   C3A35105  39.209  10.569   7.955
 8189POPC   C4A35106  39.231  10.551   7.655
 8189POPC   C1B35107  39.457  10.517   8.555
 8189POPC   C2B35108  39.469  10.564   8.255
 8189POPC   C3B35109  39.436  10.596   7.955
 8189POPC   C4B35110  39.519  10.558   7.655
 8190POPC   NC335111  16.751  12.815   9.455
 8190POPC   PO435112  16.744  12.824   9.155
 8190POPC   GL135113  16.738  12.810   8.855
 8190POPC   GL235114  16.891  12.879   8.855
 8190POPC   C1A35115  16.764  12.830   8.555
 8190POPC   D2A35116  16.712  12.819   8.255
 8190POPC   C3A35117  16.779  12.877   7.955
 8190POPC   C4A35118  16.780  12.812   7.655
 8190POPC   C1B35119  17.014  12.889   8.555
 8190POPC   C2B35120  17.018  12.893   8.255
 8190POPC   C3B35121  16.931  12.903   7.955
 8190POPC   C4B35122  16.980  12.968   7.655
 8191POPC   NC335123  25.244  42.291   9.455
 8191POPC   PO435124  25.289  42.369   9.155
 8191POPC   GL135125  25.236  42.341   8.855
 8191POPC   GL235126  25.242  42.207   8.855
 8191POPC   C1A35127  25.296  42.366   8.555
 8191POPC   D2A35128  25.225  42.305   8.255
 8191POPC   C3A35129  25.274  42.328   7.955
 8191POPC   C4A35130  25.305  42.377   7.655
 8191POPC   C1B35131  25.169  42.093   8.555
 8191POPC   C2B35132  25.120  42.094   8.255
 8191POPC   C3B35133  25.118  42.105   7.955
 8191POPC   C4B35134  25.209  42.129   7.655
 8192POPC   NC335135  43.069  19.844   9.455
 8192POPC   PO435136  43.145  19.836   9.155
 8192POPC   GL135137  43.076  19.829   8.855
 8192POPC   GL235138  43.169  19.951   8.855
 8192POPC   C1A35139  43.141  19.849   8.555
 8192POPC   D2A35140  43.063  19.865   8.255
 8192POPC   C3A35141  43.111  19.839   7.955
 8192POPC   C4A35142  43.080  19.826   7.655
 8192POPC   C1B35143  43.362  19.991   8.555
 8192POPC   C2B35144  43.321  19.995   8.255
 8192POPC   C3B35145  43.271  19.948   7.955
 8192POPC   C4B35146  43.353  19.983   7.655
 8193POPC   NC335147   5.121  32.268   9.455
 8193POPC   PO435148   5.127  32.227   9.155
 8193POPC   GL135149   5.059  32.271   8.855
 8193POPC   GL235150   5.013  32.385   8.855
 8193POPC   C1A35151   5.062  32.266   8.555
 8193POPC   D2A35152   5.127  32.259   8.255
 8193POPC   C3A35153   5.078  32.250   7.955
 8193POPC   C4A35154   5.126  32.227   7.655
 8193POPC   C1B35155   4.915  32.476   8.555
 8193POPC   C2B35156   4.890  32.394   8.255
 8193POPC   C3B35157   4.891  32.468   7.955
 8193POPC   C4B35158   4.870  32.462   7.655
 8194POPC   NC335159   8.972  19.048   9.455
 8194POPC   PO435160   8.992  19.085   9.155
 8194POPC   GL135161   8.994  19.079   8.855
 8194POPC   GL235162   9.049  18.997   8.855
 8194POPC   C1A35163   8.949  19.098   8.555
 8194POPC   D2A35164   8.975  19.039   8.255
 8194POPC   C3A35165   8.996  19.037   7.955
 8194POPC   C4A35166   8.948  19.055   7.655
 8194POPC   C1B35167   9.195  19.066   8.555
 8194POPC   C2B35168   9.184  19.011   8.255
 8194POPC   C3B35169   9.243  19.022   7.955
 8194POPC   C4B35170   9.268  19.010   7.655
 8195POPC   NC335171  19.103  16.775   9.455
 8195POPC   PO435172  19.053  16.691   9.155
 8195POPC   GL135173  19.095  16.739   8.855
 8195POPC   GL235174  19.199  16.694   8.855
 8195POPC   C1A35175  19.076  16.755   8.555
 8195POPC   D2A35176  19.084  16.711   8.255
 8195POPC   C3A35177  19.051  16.707   7.955
 8195POPC   C4A35178  19.064  16.728   7.655
 8195POPC   C1B35179  19.327  16.687   8.555
 8195POPC   C2B35180  19.329  16.684   8.255
 8195POPC   C3B35181  19.271  16.609   7.955
 8195POPC   C4B35182  19.260  16.688   7.655
 8196POPC   NC335183  43.156  16.704   9.455
 8196POPC   PO435184  43.062  16.763   9.155
 8196POPC   GL135185  43.074  16.728   8.855
 8196POPC   GL235186  43.193  16.761   8.855
 8196POPC   C1A35187  43.160  16.730   8.555
 8196POPC   D2A35188  43.079  16.703   8.255
 8196POPC   C3A35189  43.110  16.689   7.955
 8196POPC   C4A35190  43.160  16.713   7.655
 8196POPC   C1B35191  43.344  16.858   8.555
 8196POPC   C2B35192  43.350  16.840   8.255
 8196POPC   C3B35193  43.331  16.893   7.955
 8196POPC   C4B35194  43.346  16.854   7.655
 8197POPC   NC335195  43.098  33.822   9.455
 8197POPC   PO435196  43.081  33.825   9.155
 8197POPC   GL135197  43.098  33.751   8.855
 8197POPC   GL235198  43.198  33.931   8.855
 8197POPC   C1A35199  43.110  33.816   8.555
 8197POPC   D2A35200  43.114  33.791   8.255
 8197POPC   C3A35201  43.066  33.763   7.955
 8197POPC   C4A35202  43.111  33.824   7.655
 8197POPC   C1B35203  43.234  34.019   8.555
 8197POPC   C2B35204  43.211  34.073   8.255
 8197POPC   C3B35205  43.152  34.026   7.955
 8197POPC   C4B35206  43.140  34.048   7.655
 8198POPC   NC335207   4.284   2.755   9.455
 8198POPC   PO435208   4.299   2.791   9.155
 8198POPC   GL135209   4.290   2.786   8.855
 8198POPC   GL235210   4.350   2.633   8.855
 8198POPC   C1A35211   4.337   2.749   8.555
 8198POPC   D2A35212   4.355   2.748   8.255
 8198POPC   C3A35213   4.303   2.770   7.955
 8198POPC   C4A35214   4.276   2.718   7.655
 8198POPC   C1B35215   4.338   2.506   8.555
 8198POPC   C2B35216   4.370   2.478   8.255
 8198POPC   C3B35217   4.416   2.504   7.955
 8198POPC   C4B35218   4.370   2.553   7.655
 8199POPC   NC335219  21.425  33.763   9.455
 8199POPC   PO435220  21.386  33.795   9.155
 8199POPC   GL135221  21.432  33.777   8.855
 8199POPC   GL235222  21.543  33.880   8.855
 8199POPC   C1A35223  21.341  33.769   8.555
 8199POPC   D2A35224  21.369  33.806   8.255
 8199POPC   C3A35225  21.432  33.795   7.955
 8199POPC   C4A35226  21.381  33.803   7.655
 8199POPC   C1B35227  21.596  33.916   8.555
 8199POPC   C2B35228  21.668  33.920   8.255
 8199POPC   C3B35229  21.667  33.845   7.955
 8199POPC   C4B35230  21.635  33.892   7.655
 8200POPC   NC335231  42.356   0.484   9.455
 8200POPC   PO435232  42.338   0.455   9.155
 8200POPC   GL135233  42.293   0.424   8.855
 8200POPC   GL235234  42.445   0.320   8.855
 8200POPC   C1A35235  42.353   0.432   8.555
 8200POPC   D2A35236  42.360   0.476   8.255
 8200POPC   C3A35237  42.309   0.395   7.955
 8200POPC   C4A35238  42.351   0.424   7.655
 8200POPC   C1B35239  42.523   0.285   8.555
 8200POPC   C2B35240  42.513   0.265   8.255
 8200POPC   C3B35241  42.546   0.228   7.955
 8200POPC   C4B35242  42.544   0.281   7.655
 8201POPC   NC335243  42.319  31.452   9.455
 8201POPC   PO435244  42.337  31.459   9.155
 8201POPC   GL135245  42.335  31.438   8.855
 8201POPC   GL235246  42.161  31.468   8.855
 8201POPC   C1A35247  42.296  31.517   8.555
 8201POPC   D2A35248  42.350  31.448   8.255
 8201POPC   C3A35249  42.384  31.434   7.955
 8201POPC   C4A35250  42.291  31.436   7.655
 8201POPC   C1B35251  42.134  31.534   8.555
 8201POPC   C2B35252  42.124  31.501   8.255
 8201POPC   C3B35253  42.127  31.527   7.955
 8201POPC   C4B35254  42.104  31.456   7.655
 8202POPC   NC335255  34.602  12.820   9.455
 8202POPC   PO435256  34.531  12.818   9.155
 8202POPC   GL135257  34.579  12.827   8.855
 8202POPC   GL235258  34.420  12.910   8.855
 8202POPC   C1A35259  34.579  12.802   8.555
 8202POPC   D2A35260  34.551  12.891   8.255
 8202POPC   C3A35261  34.576  12.820   7.955
 8202POPC   C4A35262  34.532  12.858   7.655
 8202POPC   C1B35263  34.309  12.897   8.555
 8202POPC   C2B35264  34.316  12.962   8.255
 8202POPC   C3B35265  34.289  12.962   7.955
 8202POPC   C4B35266  34.315  12.931   7.655
 8203POPC   NC335267   3.531  33.795   9.455
 8203POPC   PO435268   3.540  33.776   9.155
 8203POPC   GL135269   3.560  33.753   8.855
 8203POPC   GL235270   3.432  33.775   8.855
 8203POPC   C1A35271   3.518  33.821   8.555
 8203POPC   D2A35272   3.551  33.837   8.255
 8203POPC   C3A35273   3.503  33.833   7.955
 8203POPC   C4A35274   3.532  33.777   7.655
 8203POPC   C1B35275   3.299  33.730   8.555
 8203POPC   C2B35276   3.262  33.700   8.255
 8203POPC   C3B35277   3.263  33.705   7.955
 8203POPC   C4B35278   3.265  33.713   7.655
 8204POPC   NC335279  22.169  22.938   9.455
 8204POPC   PO435280  22.134  22.978   9.155
 8204POPC   GL135281  22.140  22.963   8.855
 8204POPC   GL235282  22.096  22.998   8.855
 8204POPC   C1A35283  22.207  22.932   8.555
 8204POPC   D2A35284  22.173  22.910   8.255
 8204POPC   C3A35285  22.194  22.970   7.955
 8204POPC   C4A35286  22.167  22.925   7.655
 8204POPC   C1B35287  21.900  23.070   8.555
 8204POPC   C2B35288  21.925  23.107   8.255
 8204POPC   C3B35289  21.942  23.063   7.955
 8204POPC   C4B35290  21.931  23.086   7.655
 8205POPC   NC335291   7.448  43.837   9.455
 8205POPC   PO435292   7.450  43.901   9.155
 8205POPC   GL135293   7.441  43.852   8.855
 8205POPC   GL235294   7.504  43.873   8.855
 8205POPC   C1A35295   7.434  43.872   8.555
 8205POPC   D2A35296   7.403  43.879   8.255
 8205POPC   C3A35297   7.441  43.920   7.955
 8205POPC   C4A35298   7.407  43.923   7.655
 8205POPC   C1B35299   7.715  43.951   8.555
 8205POPC   C2B35300   7.677  43.890   8.255
 8205POPC   C3B35301   7.628  43.951   7.955
 8205POPC   C4B35302   7.704  43.887   7.655
 8206POPC   NC335303  33.811  12.094   9.455
 8206POPC   PO435304  33.827  12.057   9.155
 8206POPC   GL135305  33.794  12.039   8.855
 8206POPC   GL235306  33.723  12.030   8.855
 8206POPC   C1A35307  33.758  12.086   8.555
 8206POPC   D2A35308  33.752  12.117   8.255
 8206POPC   C3A35309  33.799  12.099   7.955
 8206POPC   C4A35310  33.770  12.038   7.655
 8206POPC   C1B35311  33.625  11.933   8.555
 8206POPC   C2B35312  33.677  11.842   8.255
 8206POPC   C3B35313  33.657  11.916   7.955
 8206POPC   C4B35314  33.587  11.887   7.655
 8207POPC   NC335315   5.846   0.446   9.455
 8207POPC   PO435316   5.850   0.451   9.155
 8207POPC   GL135317   5.892   0.452   8.855
 8207POPC   GL235318   5.810   0.362   8.855
 8207POPC   C1A35319   5.918   0.396   8.555
 8207POPC   D2A35320   5.889   0.411   8.255
 8207POPC   C3A35321   5.843   0.478   7.955
 8207POPC   C4A35322   5.904   0.459   7.655
 8207POPC   C1B35323   5.773   0.186   8.555
 8207POPC   C2B35324   5.749   0.262   8.255
 8207POPC   C3B35325   5.741   0.246   7.955
 8207POPC   C4B35326   5.796   0.184   7.655
 8208POPC   NC335327  32.997  35.322   9.455
 8208POPC   PO435328  33.014  35.317   9.155
 8208POPC   GL135329  32.991  35.357   8.855
 8208POPC   GL235330  33.109  35.340   8.855
 8208POPC   C1A35331  33.056  35.363   8.555
 8208POPC   D2A35332  33.034  35.371   8.255
 8208POPC   C3A35333  33.000  35.397   7.955
 8208POPC   C4A35334  33.054  35.396   7.655
 8208POPC   C1B35335  33.266  35.249   8.555
 8208POPC   C2B35336  33.242  35.236   8.255
 8208POPC   C3B35337  33.302  35.264   7.955
 8208POPC   C4B35338  33.268  35.292   7.655
 8209POPC   NC335339   8.931  29.105   9.455
 8209POPC   PO435340   8.969  29.193   9.155
 8209POPC   GL135341   8.938  29.167   8.855
 8209POPC   GL235342   9.035  29.261   8.855
 8209POPC   C1A35343   9.004  29.115   8.555
 8209POPC   D2A35344   8.992  29.108   8.255
 8209POPC   C3A35345   8.965  29.183   7.955
 8209POPC   C4A35346   8.973  29.171   7.655
 8209POPC   C1B35347   9.039  29.375   8.555
 8209POPC   C2B35348   9.021  29.440   8.255
 8209POPC   C3B35349   9.058  29.386   7.955
 8209POPC   C4B35350   8.978  29.436   7.655
 8210POPC   NC335351  23.708  31.480   9.455
 8210POPC   PO435352  23.718  31.508   9.155
 8210POPC   GL135353  23.741  31.500   8.855
 8210POPC   GL235354  23.599  31.583   8.855
 8210POPC   C1A35355  23.731  31.469   8.555
 8210POPC   D2A35356  23.682  31.440   8.255
 8210POPC   C3A35357  23.679  31.475   7.955
 8210POPC   C4A35358  23.717  31.510   7.655
 8210POPC   C1B35359  23.521  31.621   8.555
 8210POPC   C2B35360  23.469  31.570   8.255
 8210POPC   C3B35361  23.530  31.627   7.955
 8210POPC   C4B35362  23.490  31.565   7.655
 8211POPC   NC335363  38.494   6.631   9.455
 8211POPC   PO435364  38.492   6.646   9.155
 8211POPC   GL135365  38.412   6.645   8.855
 8211POPC   GL235366  38.367   6.666   8.855
 8211POPC   C1A35367  38.467   6.637   8.555
 8211POPC   D2A35368  38.414   6.654   8.255
 8211POPC   C3A35369  38.478   6.642   7.955
 8211POPC   C4A35370  38.426   6.600   7.655
 8211POPC   C1B35371  38.215   6.646   8.555
 8211POPC   C2B35372  38.239   6.595   8.255
 8211POPC   C3B35373  38.221   6.591   7.955
 8211POPC   C4B35374  38.232   6.654   7.655
 8212POPC   NC335375  40.012   4.293   9.455
 8212POPC   PO435376  40.055   4.293   9.155
 8212POPC   GL135377  39.996   4.337   8.855
 8212POPC   GL235378  40.141   4.321   8.855
 8212POPC   C1A35379  40.018   4.300   8.555
 8212POPC   D2A35380  40.018   4.345   8.255
 8212POPC   C3A35381  40.041   4.311   7.955
 8212POPC   C4A35382  40.004   4.363   7.655
 8212POPC   C1B35383  40.251   4.280   8.555
 8212POPC   C2B35384  40.249   4.294   8.255
 8212POPC   C3B35385  40.282   4.249   7.955
 8212POPC   C4B35386  40.240   4.250   7.655
 8213POPC   NC335387  13.583  43.874   9.455
 8213POPC   PO435388  13.623  43.842   9.155
 8213POPC   GL135389  13.677  43.866   8.855
 8213POPC   GL235390  13.742  43.754   8.855
 8213POPC   C1A35391  13.596  43.869   8.555
 8213POPC   D2A35392  13.588  43.846   8.255
 8213POPC   C3A35393  13.596  43.899   7.955
 8213POPC   C4A35394  13.663  43.893   7.655
 8213POPC   C1B35395  13.815  43.662   8.555
 8213POPC   C2B35396  13.760  43.659   8.255
 8213POPC   C3B35397  13.838  43.732   7.955
 8213POPC   C4B35398  13.760  43.654   7.655
 8214POPC   NC335399  36.885  32.974   9.455
 8214POPC   PO435400  36.930  32.994   9.155
 8214POPC   GL135401  36.949  32.987   8.855
 8214POPC   GL235402  36.877  32.897   8.855
 8214POPC   C1A35403  36.941  33.028   8.555
 8214POPC   D2A35404  36.939  33.028   8.255
 8214POPC   C3A35405  36.926  33.037   7.955
 8214POPC   C4A35406  36.891  33.061   7.655
 8214POPC   C1B35407  36.898  32.806   8.555
 8214POPC   C2B35408  36.899  32.769   8.255
 8214POPC   C3B35409  36.924  32.813   7.955
 8214POPC   C4B35410  36.879  32.774   7.655
 8215POPC   NC335411   7.375  22.145   9.455
 8215POPC   PO435412   7.386  22.199   9.155
 8215POPC   GL135413   7.445  22.120   8.855
 8215POPC   GL235414   7.339  22.080   8.855
 8215POPC   C1A35415   7.409  22.158   8.555
 8215POPC   D2A35416   7.466  22.159   8.255
 8215POPC   C3A35417   7.463  22.165   7.955
 8215POPC   C4A35418   7.451  22.143   7.655
 8215POPC   C1B35419   7.228  22.013   8.555
 8215POPC   C2B35420   7.255  21.968   8.255
 8215POPC   C3B35421   7.311  21.994   7.955
 8215POPC   C4B35422   7.310  21.954   7.655
 8216POPC   NC335423  19.044  10.551   9.455
 8216POPC   PO435424  19.039  10.553   9.155
 8216POPC   GL135425  19.067  10.519   8.855
 8216POPC   GL235426  19.181  10.441   8.855
 8216POPC   C1A35427  19.096  10.479   8.555
 8216POPC   D2A35428  19.056  10.492   8.255
 8216POPC   C3A35429  19.083  10.564   7.955
 8216POPC   C4A35430  19.012  10.552   7.655
 8216POPC   C1B35431  19.270  10.401   8.555
 8216POPC   C2B35432  19.256  10.398   8.255
 8216POPC   C3B35433  19.237  10.397   7.955
 8216POPC   C4B35434  19.284  10.384   7.655
 8217POPC   NC335435  17.468   1.942   9.455
 8217POPC   PO435436  17.459   1.978   9.155
 8217POPC   GL135437  17.500   1.950   8.855
 8217POPC   GL235438  17.581   2.000   8.855
 8217POPC   C1A35439  17.481   1.969   8.555
 8217POPC   D2A35440  17.537   1.960   8.255
 8217POPC   C3A35441  17.489   1.998   7.955
 8217POPC   C4A35442  17.484   1.966   7.655
 8217POPC   C1B35443  17.724   2.112   8.555
 8217POPC   C2B35444  17.749   2.080   8.255
 8217POPC   C3B35445  17.782   2.102   7.955
 8217POPC   C4B35446  17.748   2.052   7.655
 8218POPC   NC335447  19.056  17.493   9.455
 8218POPC   PO435448  19.015  17.489   9.155
 8218POPC   GL135449  19.091  17.482   8.855
 8218POPC   GL235450  19.143  17.424   8.855
 8218POPC   C1A35451  19.107  17.504   8.555
 8218POPC   D2A35452  19.098  17.469   8.255
 8218POPC   C3A35453  19.101  17.555   7.955
 8218POPC   C4A35454  19.084  17.554   7.655
 8218POPC   C1B35455  19.251  17.411   8.555
 8218POPC   C2B35456  19.339  17.391   8.255
 8218POPC   C3B35457  19.334  17.401   7.955
 8218POPC   C4B35458  19.292  17.370   7.655
 8219POPC   NC335459   6.631  34.607   9.455
 8219POPC   PO435460   6.617  34.556   9.155
 8219POPC   GL135461   6.680  34.548   8.855
 8219POPC   GL235462   6.782  34.495   8.855
 8219POPC   C1A35463   6.595  34.596   8.555
 8219POPC   D2A35464   6.631  34.538   8.255
 8219POPC   C3A35465   6.654  34.626   7.955
 8219POPC   C4A35466   6.651  34.528   7.655
 8219POPC   C1B35467   6.857  34.385   8.555
 8219POPC   C2B35468   6.845  34.379   8.255
 8219POPC   C3B35469   6.805  34.354   7.955
 8219POPC   C4B35470   6.834  34.353   7.655
 8220POPC   NC335471  26.860  29.935   9.455
 8220POPC   PO435472  26.840  29.960   9.155
 8220POPC   GL135473  26.831  29.944   8.855
 8220POPC   GL235474  26.727  29.887   8.855
 8220POPC   C1A35475  26.845  29.934   8.555
 8220POPC   D2A35476  26.782  29.894   8.255
 8220POPC   C3A35477  26.857  29.965   7.955
 8220POPC   C4A35478  26.823  29.876   7.655
 8220POPC   C1B35479  26.595  29.788   8.555
 8220POPC   C2B35480  26.552  29.800   8.255
 8220POPC   C3B35481  26.626  29.870   7.955
 8220POPC   C4B35482  26.573  29.800   7.655
 8221POPC   NC335483  11.259  39.220   9.455
 8221POPC   PO435484  11.332  39.235   9.155
 8221POPC   GL135485  11.260  39.231   8.855
 8221POPC   GL235486  11.426  39.225   8.855
 8221POPC   C1A35487  11.274  39.245   8.555
 8221POPC   D2A35488  11.258  39.199   8.255
 8221POPC   C3A35489  11.278  39.225   7.955
 8221POPC   C4A35490  11.330  39.212   7.655
 8221POPC   C1B35491  11.576  39.209   8.555
 8221POPC   C2B35492  11.591  39.205   8.255
 8221POPC   C3B35493  11.523  39.228   7.955
 8221POPC   C4B35494  11.551  39.258   7.655
 8222POPC   NC335495   8.148  41.608   9.455
 8222POPC   PO435496   8.192  41.593   9.155
 8222POPC   GL135497   8.242  41.594   8.855
 8222POPC   GL235498   8.293  41.448   8.855
 8222POPC   C1A35499   8.184  41.525   8.555
 8222POPC   D2A35500   8.178  41.547   8.255
 8222POPC   C3A35501   8.203  41.518   7.955
 8222POPC   C4A35502   8.215  41.596   7.655
 8222POPC   C1B35503   8.341  41.318   8.555
 8222POPC   C2B35504   8.287  41.349   8.255
 8222POPC   C3B35505   8.279  41.309   7.955
 8222POPC   C4B35506   8.318  41.291   7.655
 8223POPC   NC335507  39.281  39.189   9.455
 8223POPC   PO435508  39.252  39.226   9.155
 8223POPC   GL135509  39.208  39.250   8.855
 8223POPC   GL235510  39.319  39.195   8.855
 8223POPC   C1A35511  39.247  39.226   8.555
 8223POPC   D2A35512  39.185  39.222   8.255
 8223POPC   C3A35513  39.266  39.188   7.955
 8223POPC   C4A35514  39.196  39.203   7.655
 8223POPC   C1B35515  39.442  39.168   8.555
 8223POPC   C2B35516  39.443  39.243   8.255
 8223POPC   C3B35517  39.502  39.238   7.955
 8223POPC   C4B35518  39.528  39.230   7.655
 8224POPC   NC335519  33.072  13.619   9.455
 8224POPC   PO435520  33.008  13.621   9.155
 8224POPC   GL135521  32.984  13.608   8.855
 8224POPC   GL235522  32.962  13.695   8.855
 8224POPC   C1A35523  33.008  13.657   8.555
 8224POPC   D2A35524  33.015  13.662   8.255
 8224POPC   C3A35525  33.021  13.626   7.955
 8224POPC   C4A35526  33.049  13.668   7.655
 8224POPC   C1B35527  32.879  13.826   8.555
 8224POPC   C2B35528  32.916  13.862   8.255
 8224POPC   C3B35529  32.907  13.854   7.955
 8224POPC   C4B35530  32.879  13.804   7.655
 8225POPC   NC335531  16.779  29.116   9.455
 8225POPC   PO435532  16.714  29.134   9.155
 8225POPC   GL135533  16.746  29.124   8.855
 8225POPC   GL235534  16.808  29.145   8.855
 8225POPC   C1A35535  16.695  29.171   8.555
 8225POPC   D2A35536  16.740  29.183   8.255
 8225POPC   C3A35537  16.726  29.155   7.955
 8225POPC   C4A35538  16.701  29.167   7.655
 8225POPC   C1B35539  16.955  29.093   8.555
 8225POPC   C2B35540  16.940  29.092   8.255
 8225POPC   C3B35541  16.939  29.115   7.955
 8225POPC   C4B35542  16.980  29.141   7.655
 8226POPC   NC335543  11.252  44.626   9.455
 8226POPC   PO435544  11.291  44.634   9.155
 8226POPC   GL135545  11.314  44.693   8.855
 8226POPC   GL235546  11.419  44.569   8.855
 8226POPC   C1A35547  11.253  44.648   8.555
 8226POPC   D2A35548  11.305  44.643   8.255
 8226POPC   C3A35549  11.268  44.631   7.955
 8226POPC   C4A35550  11.322  44.626   7.655
 8226POPC   C1B35551  11.497  44.597   8.555
 8226POPC   C2B35552  11.478  44.570   8.255
 8226POPC   C3B35553  11.571  44.578   7.955
 8226POPC   C4B35554  11.508  44.595   7.655
 8227POPC   NC335555   7.407   3.551   9.455
 8227POPC   PO435556   7.433   3.504   9.155
 8227POPC   GL135557   7.452   3.540   8.855
 8227POPC   GL235558   7.444   3.616   8.855
 8227POPC   C1A35559   7.437   3.573   8.555
 8227POPC   D2A35560   7.377   3.509   8.255
 8227POPC   C3A35561   7.424   3.516   7.955
 8227POPC   C4A35562   7.436   3.561   7.655
 8227POPC   C1B35563   7.576   3.770   8.555
 8227POPC   C2B35564   7.559   3.784   8.255
 8227POPC   C3B35565   7.534   3.713   7.955
 8227POPC   C4B35566   7.560   3.775   7.655
 8228POPC   NC335567   9.726  33.804   9.455
 8228POPC   PO435568   9.755  33.827   9.155
 8228POPC   GL135569   9.753  33.830   8.855
 8228POPC   GL235570   9.669  33.847   8.855
 8228POPC   C1A35571   9.739  33.780   8.555
 8228POPC   D2A35572   9.723  33.849   8.255
 8228POPC   C3A35573   9.788  33.835   7.955
 8228POPC   C4A35574   9.714  33.834   7.655
 8228POPC   C1B35575   9.547  33.803   8.555
 8228POPC   C2B35576   9.534  33.862   8.255
 8228POPC   C3B35577   9.547  33.870   7.955
 8228POPC   C4B35578   9.500  33.838   7.655
 8229POPC   NC335579  31.475  15.989   9.455
 8229POPC   PO435580  31.462  15.936   9.155
 8229POPC   GL135581  31.434  15.912   8.855
 8229POPC   GL235582  31.481  16.095   8.855
 8229POPC   C1A35583  31.492  15.942   8.555
 8229POPC   D2A35584  31.463  15.978   8.255
 8229POPC   C3A35585  31.476  15.985   7.955
 8229POPC   C4A35586  31.455  15.922   7.655
 8229POPC   C1B35587  31.418  16.242   8.555
 8229POPC   C2B35588  31.502  16.223   8.255
 8229POPC   C3B35589  31.493  16.255   7.955
 8229POPC   C4B35590  31.470  16.239   7.655
 8230POPC   NC335591  12.060  15.995   9.455
 8230POPC   PO435592  12.094  15.907   9.155
 8230POPC   GL135593  12.030  16.003   8.855
 8230POPC   GL235594  11.957  15.962   8.855
 8230POPC   C1A35595  12.054  15.937   8.555
 8230POPC   D2A35596  12.105  15.932   8.255
 8230POPC   C3A35597  12.052  15.999   7.955
 8230POPC   C4A35598  12.097  15.919   7.655
 8230POPC   C1B35599  11.831  16.020   8.555
 8230POPC   C2B35600  11.870  15.972   8.255
 8230POPC   C3B35601  11.819  15.959   7.955
 8230POPC   C4B35602  11.816  16.026   7.655
 8231POPC   NC335603  36.080  29.112   9.455
 8231POPC   PO435604  36.175  29.139   9.155
 8231POPC   GL135605  36.082  29.185   8.855
 8231POPC   GL235606  36.138  29.231   8.855
 8231POPC   C1A35607  36.138  29.105   8.555
 8231POPC   D2A35608  36.105  29.102   8.255
 8231POPC   C3A35609  36.145  29.157   7.955
 8231POPC   C4A35610  36.167  29.176   7.655
 8231POPC   C1B35611  36.132  29.412   8.555
 8231POPC   C2B35612  36.163  29.416   8.255
 8231POPC   C3B35613  36.126  29.400   7.955
 8231POPC   C4B35614  36.111  29.394   7.655
 8232POPC   NC335615   5.855  12.831   9.455
 8232POPC   PO435616   5.840  12.827   9.155
 8232POPC   GL135617   5.852  12.830   8.855
 8232POPC   GL235618   5.859  12.700   8.855
 8232POPC   C1A35619   5.863  12.834   8.555
 8232POPC   D2A35620   5.912  12.885   8.255
 8232POPC   C3A35621   5.824  12.863   7.955
 8232POPC   C4A35622   5.849  12.821   7.655
 8232POPC   C1B35623   5.833  12.561   8.555
 8232POPC   C2B35624   5.848  12.614   8.255
 8232POPC   C3B35625   5.793  12.606   7.955
 8232POPC   C4B35626   5.783  12.656   7.655
 8233POPC   NC335627  17.530  44.634   9.455
 8233POPC   PO435628  17.525  44.672   9.155
 8233POPC   GL135629  17.557  44.637   8.855
 8233POPC   GL235630  17.421  44.670   8.855
 8233POPC   C1A35631  17.509  44.711   8.555
 8233POPC   D2A35632  17.471  44.645   8.255
 8233POPC   C3A35633  17.527  44.681   7.955
 8233POPC   C4A35634  17.546  44.687   7.655
 8233POPC   C1B35635  17.325  44.732   8.555
 8233POPC   C2B35636  17.252  44.766   8.255
 8233POPC   C3B35637  17.267  44.788   7.955
 8233POPC   C4B35638  17.286  44.762   7.655
 8234POPC   NC335639  18.311  14.415   9.455
 8234POPC   PO435640  18.261  14.442   9.155
 8234POPC   GL135641  18.252  14.438   8.855
 8234POPC   GL235642  18.375  14.358   8.855
 8234POPC   C1A35643  18.266  14.420   8.555
 8234POPC   D2A35644  18.299  14.382   8.255
 8234POPC   C3A35645  18.329  14.427   7.955
 8234POPC   C4A35646  18.237  14.382   7.655
 8234POPC   C1B35647  18.434  14.225   8.555
 8234POPC   C2B35648  18.453  14.260   8.255
 8234POPC   C3B35649  18.398  14.257   7.955
 8234POPC   C4B35650  18.463  14.235   7.655
 8235POPC   NC335651  42.361   9.798   9.455
 8235POPC   PO435652  42.348   9.745   9.155
 8235POPC   GL135653  42.294   9.735   8.855
 8235POPC   GL235654  42.220   9.793   8.855
 8235POPC   C1A35655  42.375   9.768   8.555
 8235POPC   D2A35656  42.323   9.728   8.255
 8235POPC   C3A35657  42.318   9.715   7.955
 8235POPC   C4A35658  42.331   9.700   7.655
 8235POPC   C1B35659  42.090   9.799   8.555
 8235POPC   C2B35660  42.133   9.802   8.255
 8235POPC   C3B35661  42.117   9.815   7.955
 8235POPC   C4B35662  42.060   9.773   7.655
 8236POPC   NC335663  42.320   2.729   9.455
 8236POPC   PO435664  42.381   2.811   9.155
 8236POPC   GL135665  42.326   2.746   8.855
 8236POPC   GL235666  42.201   2.757   8.855
 8236POPC   C1A35667  42.303   2.807   8.555
 8236POPC   D2A35668  42.356   2.728   8.255
 8236POPC   C3A35669  42.300   2.766   7.955
 8236POPC   C4A35670  42.374   2.735   7.655
 8236POPC   C1B35671  42.081   2.675   8.555
 8236POPC   C2B35672  42.144   2.683   8.255
 8236POPC   C3B35673  42.100   2.694   7.955
 8236POPC   C4B35674  42.140   2.719   7.655
 8237POPC   NC335675  14.385  37.712   9.455
 8237POPC   PO435676  14.446  37.652   9.155
 8237POPC   GL135677  14.446  37.675   8.855
 8237POPC   GL235678  14.394  37.576   8.855
 8237POPC   C1A35679  14.439  37.639   8.555
 8237POPC   D2A35680  14.390  37.696   8.255
 8237POPC   C3A35681  14.450  37.697   7.955
 8237POPC   C4A35682  14.432  37.642   7.655
 8237POPC   C1B35683  14.393  37.456   8.555
 8237POPC   C2B35684  14.432  37.386   8.255
 8237POPC   C3B35685  14.347  37.470   7.955
 8237POPC   C4B35686  14.418  37.469   7.655
 8238POPC   NC335687  44.679   4.286   9.455
 8238POPC   PO435688  44.685   4.286   9.155
 8238POPC   GL135689  44.684   4.319   8.855
 8238POPC   GL235690  44.571   4.373   8.855
 8238POPC   C1A35691  44.702   4.356   8.555
 8238POPC   D2A35692  44.674   4.347   8.255
 8238POPC   C3A35693  44.649   4.294   7.955
 8238POPC   C4A35694  44.653   4.309   7.655
 8238POPC   C1B35695  44.393   4.468   8.555
 8238POPC   C2B35696  44.414   4.458   8.255
 8238POPC   C3B35697  44.483   4.437   7.955
 8238POPC   C4B35698  44.480   4.399   7.655
 8239POPC   NC335699   1.183  17.473   9.455
 8239POPC   PO435700   1.208  17.474   9.155
 8239POPC   GL135701   1.167  17.494   8.855
 8239POPC   GL235702   1.185  17.421   8.855
 8239POPC   C1A35703   1.219  17.525   8.555
 8239POPC   D2A35704   1.204  17.469   8.255
 8239POPC   C3A35705   1.172  17.523   7.955
 8239POPC   C4A35706   1.175  17.467   7.655
 8239POPC   C1B35707   1.235  17.264   8.555
 8239POPC   C2B35708   1.235  17.220   8.255
 8239POPC   C3B35709   1.241  17.228   7.955
 8239POPC   C4B35710   1.276  17.243   7.655
 8240POPC   NC335711  12.860  36.142   9.455
 8240POPC   PO435712  12.852  36.124   9.155
 8240POPC   GL135713  12.814  36.144   8.855
 8240POPC   GL235714  12.708  36.213   8.855
 8240POPC   C1A35715  12.889  36.081   8.555
 8240POPC   D2A35716  12.885  36.168   8.255
 8240POPC   C3A35717  12.897  36.101   7.955
 8240POPC   C4A35718  12.858  36.105   7.655
 8240POPC   C1B35719  12.647  36.186   8.555
 8240POPC   C2B35720  12.580  36.177   8.255
 8240POPC   C3B35721  12.571  36.175   7.955
 8240POPC   C4B35722  12.631  36.194   7.655
 8241POPC   NC335723  39.975  17.548   9.455
 8241POPC   PO435724  39.985  17.549   9.155
 8241POPC   GL135725  40.053  17.531   8.855
 8241POPC   GL235726  39.908  17.436   8.855
 8241POPC   C1A35727  40.033  17.465   8.555
 8241POPC   D2A35728  39.975  17.527   8.255
 8241POPC   C3A35729  39.972  17.489   7.955
 8241POPC   C4A35730  40.012  17.514   7.655
 8241POPC   C1B35731  39.805  17.342   8.555
 8241POPC   C2B35732  39.838  17.410   8.255
 8241POPC   C3B35733  39.810  17.350   7.955
 8241POPC   C4B35734  39.843  17.413   7.655
 8242POPC   NC335735  42.301   8.229   9.455
 8242POPC   PO435736  42.296   8.187   9.155
 8242POPC   GL135737  42.291   8.218   8.855
 8242POPC   GL235738  42.369   8.114   8.855
 8242POPC   C1A35739  42.358   8.221   8.555
 8242POPC   D2A35740  42.367   8.184   8.255
 8242POPC   C3A35741  42.343   8.176   7.955
 8242POPC   C4A35742  42.368   8.210   7.655
 8242POPC   C1B35743  42.441   7.987   8.555
 8242POPC   C2B35744  42.421   7.929   8.255
 8242POPC   C3B35745  42.410   7.930   7.955
 8242POPC   C4B35746  42.451   8.009   7.655
 8243POPC   NC335747  40.790  41.565   9.455
 8243POPC   PO435748  40.804  41.532   9.155
 8243POPC   GL135749  40.762  41.534   8.855
 8243POPC   GL235750  40.750  41.457   8.855
 8243POPC   C1A35751  40.796  41.557   8.555
 8243POPC   D2A35752  40.818  41.565   8.255
 8243POPC   C3A35753  40.767  41.597   7.955
 8243POPC   C4A35754  40.769  41.568   7.655
 8243POPC   C1B35755  40.690  41.389   8.555
 8243POPC   C2B35756  40.660  41.310   8.255
 8243POPC   C3B35757  40.629  41.313   7.955
 8243POPC   C4B35758  40.688  41.339   7.655
 8244POPC   NC335759  33.793  43.870   9.455
 8244POPC   PO435760  33.795  43.910   9.155
 8244POPC   GL135761  33.785  43.896   8.855
 8244POPC   GL235762  33.852  44.012   8.855
 8244POPC   C1A35763  33.820  43.843   8.555
 8244POPC   D2A35764  33.788  43.859   8.255
 8244POPC   C3A35765  33.829  43.876   7.955
 8244POPC   C4A35766  33.757  43.861   7.655
 8244POPC   C1B35767  33.848  44.157   8.555
 8244POPC   C2B35768  33.903  44.149   8.255
 8244POPC   C3B35769  33.886  44.072   7.955
 8244POPC   C4B35770  33.946  44.098   7.655
 8245POPC   NC335771  39.184   5.850   9.455
 8245POPC   PO435772  39.266   5.853   9.155
 8245POPC   GL135773  39.222   5.865   8.855
 8245POPC   GL235774  39.079   5.921   8.855
 8245POPC   C1A35775  39.225   5.899   8.555
 8245POPC   D2A35776  39.225   5.823   8.255
 8245POPC   C3A35777  39.196   5.888   7.955
 8245POPC   C4A35778  39.249   5.857   7.655
 8245POPC   C1B35779  39.012   5.967   8.555
 8245POPC   C2B35780  38.969   6.013   8.255
 8245POPC   C3B35781  38.988   6.030   7.955
 8245POPC   C4B35782  39.051   5.961   7.655
 8246POPC   NC335783  36.123   6.668   9.455
 8246POPC   PO435784  36.166   6.652   9.155
 8246POPC   GL135785  36.152   6.606   8.855
 8246POPC   GL235786  36.233   6.639   8.855
 8246POPC   C1A35787  36.138   6.642   8.555
 8246POPC   D2A35788  36.168   6.639   8.255
 8246POPC   C3A35789  36.129   6.630   7.955
 8246POPC   C4A35790  36.122   6.604   7.655
 8246POPC   C1B35791  36.412   6.640   8.555
 8246POPC   C2B35792  36.340   6.590   8.255
 8246POPC   C3B35793  36.369   6.625   7.955
 8246POPC   C4B35794  36.386   6.622   7.655
 8247POPC   NC335795  12.821  14.435   9.455
 8247POPC   PO435796  12.824  14.360   9.155
 8247POPC   GL135797  12.813  14.373   8.855
 8247POPC   GL235798  12.857  14.527   8.855
 8247POPC   C1A35799  12.882  14.427   8.555
 8247POPC   D2A35800  12.813  14.435   8.255
 8247POPC   C3A35801  12.863  14.379   7.955
 8247POPC   C4A35802  12.887  14.438   7.655
 8247POPC   C1B35803  12.966  14.601   8.555
 8247POPC   C2B35804  12.908  14.694   8.255
 8247POPC   C3B35805  12.929  14.610   7.955
 8247POPC   C4B35806  12.888  14.647   7.655
 8248POPC   NC335807  30.674  33.006   9.455
 8248POPC   PO435808  30.729  33.028   9.155
 8248POPC   GL135809  30.656  33.073   8.855
 8248POPC   GL235810  30.652  33.088   8.855
 8248POPC   C1A35811  30.740  33.045   8.555
 8248POPC   D2A35812  30.680  33.058   8.255
 8248POPC   C3A35813  30.740  33.009   7.955
 8248POPC   C4A35814  30.657  33.000   7.655
 8248POPC   C1B35815  30.524  33.255   8.555
 8248POPC   C2B35816  30.570  33.213   8.255
 8248POPC   C3B35817  30.531  33.190   7.955
 8248POPC   C4B35818  30.505  33.237   7.655
 8249POPC   NC335819  36.080  21.391   9.455
 8249POPC   PO435820  36.145  21.397   9.155
 8249POPC   GL135821  36.167  21.337   8.855
 8249POPC   GL235822  36.030  21.405   8.855
 8249POPC   C1A35823  36.141  21.339   8.555
 8249POPC   D2A35824  36.166  21.389   8.255
 8249POPC   C3A35825  36.135  21.417   7.955
 8249POPC   C4A35826  36.093  21.430   7.655
 8249POPC   C1B35827  35.837  21.416   8.555
 8249POPC   C2B35828  35.911  21.478   8.255
 8249POPC   C3B35829  35.913  21.467   7.955
 8249POPC   C4B35830  35.894  21.427   7.655
 8250POPC   NC335831  12.088  38.437   9.455
 8250POPC   PO435832  12.046  38.424   9.155
 8250POPC   GL135833  12.043  38.433   8.855
 8250POPC   GL235834  12.021  38.541   8.855
 8250POPC   C1A35835  12.035  38.483   8.555
 8250POPC   D2A35836  12.059  38.488   8.255
 8250POPC   C3A35837  12.120  38.431   7.955
 8250POPC   C4A35838  12.092  38.468   7.655
 8250POPC   C1B35839  11.966  38.677   8.555
 8250POPC   C2B35840  11.974  38.703   8.255
 8250POPC   C3B35841  11.985  38.655   7.955
 8250POPC   C4B35842  11.962  38.677   7.655
 8251POPC   NC335843  19.040   1.196   9.455
 8251POPC   PO435844  19.108   1.169   9.155
 8251POPC   GL135845  19.107   1.214   8.855
 8251POPC   GL235846  19.220   1.138   8.855
 8251POPC   C1A35847  19.066   1.264   8.555
 8251POPC   D2A35848  19.014   1.202   8.255
 8251POPC   C3A35849  19.027   1.164   7.955
 8251POPC   C4A35850  19.054   1.183   7.655
 8251POPC   C1B35851  19.308   1.092   8.555
 8251POPC   C2B35852  19.252   1.087   8.255
 8251POPC   C3B35853  19.240   1.142   7.955
 8251POPC   C4B35854  19.294   1.137   7.655
 8252POPC   NC335855  39.975  22.164   9.455
 8252POPC   PO435856  39.973  22.182   9.155
 8252POPC   GL135857  39.957  22.129   8.855
 8252POPC   GL235858  40.002  22.267   8.855
 8252POPC   C1A35859  39.964  22.173   8.555
 8252POPC   D2A35860  39.961  22.116   8.255
 8252POPC   C3A35861  40.025  22.154   7.955
 8252POPC   C4A35862  40.022  22.129   7.655
 8252POPC   C1B35863  40.072  22.441   8.555
 8252POPC   C2B35864  40.066  22.348   8.255
 8252POPC   C3B35865  40.133  22.445   7.955
 8252POPC   C4B35866  40.083  22.414   7.655
 8253POPC   NC335867   2.033  18.299   9.455
 8253POPC   PO435868   1.954  18.251   9.155
 8253POPC   GL135869   1.976  18.278   8.855
 8253POPC   GL235870   2.061  18.300   8.855
 8253POPC   C1A35871   1.959  18.315   8.555
 8253POPC   D2A35872   1.983  18.273   8.255
 8253POPC   C3A35873   2.004  18.253   7.955
 8253POPC   C4A35874   2.032  18.253   7.655
 8253POPC   C1B35875   2.229  18.437   8.555
 8253POPC   C2B35876   2.170  18.412   8.255
 8253POPC   C3B35877   2.159  18.435   7.955
 8253POPC   C4B35878   2.225  18.395   7.655
 8254POPC   NC335879  21.384  12.044   9.455
 8254POPC   PO435880  21.381  12.118   9.155
 8254POPC   GL135881  21.425  12.031   8.855
 8254POPC   GL235882  21.482  12.006   8.855
 8254POPC   C1A35883  21.425  12.114   8.555
 8254POPC   D2A35884  21.338  12.106   8.255
 8254POPC   C3A35885  21.359  12.053   7.955
 8254POPC   C4A35886  21.352  12.107   7.655
 8254POPC   C1B35887  21.654  11.988   8.555
 8254POPC   C2B35888  21.590  11.999   8.255
 8254POPC   C3B35889  21.664  12.053   7.955
 8254POPC   C4B35890  21.652  12.026   7.655
 8255POPC   NC335891   7.387   4.340   9.455
 8255POPC   PO435892   7.407   4.326   9.155
 8255POPC   GL135893   7.465   4.366   8.855
 8255POPC   GL235894   7.442   4.426   8.855
 8255POPC   C1A35895   7.442   4.356   8.555
 8255POPC   D2A35896   7.397   4.327   8.255
 8255POPC   C3A35897   7.434   4.300   7.955
 8255POPC   C4A35898   7.452   4.281   7.655
 8255POPC   C1B35899   7.475   4.568   8.555
 8255POPC   C2B35900   7.476   4.575   8.255
 8255POPC   C3B35901   7.470   4.581   7.955
 8255POPC   C4B35902   7.530   4.558   7.655
 8256POPC   NC335903   1.176   1.224   9.455
 8256POPC   PO435904   1.259   1.192   9.155
 8256POPC   GL135905   1.262   1.237   8.855
 8256POPC   GL235906   1.069   1.180   8.855
 8256POPC   C1A35907   1.175   1.221   8.555
 8256POPC   D2A35908   1.261   1.169   8.255
 8256POPC   C3A35909   1.188   1.263   7.955
 8256POPC   C4A35910   1.233   1.167   7.655
 8256POPC   C1B35911   0.970   1.164   8.555
 8256POPC   C2B35912   0.951   1.124   8.255
 8256POPC   C3B35913   1.023   1.137   7.955
 8256POPC   C4B35914   1.005   1.154   7.655
 8257POPC   NC335915   5.887   7.394   9.455
 8257POPC   PO435916   5.831   7.411   9.155
 8257POPC   GL135917   5.893   7.441   8.855
 8257POPC   GL235918   6.034   7.510   8.855
 8257POPC   C1A35919   5.849   7.407   8.555
 8257POPC   D2A35920   5.904   7.468   8.255
 8257POPC   C3A35921   5.831   7.447   7.955
 8257POPC   C4A35922   5.863   7.469   7.655
 8257POPC   C1B35923   6.060   7.486   8.555
 8257POPC   C2B35924   6.062   7.494   8.255
 8257POPC   C3B35925   6.060   7.500   7.955
 8257POPC   C4B35926   6.058   7.560   7.655
 8258POPC   NC335927  44.618  37.701   9.455
 8258POPC   PO435928  44.687  37.673   9.155
 8258POPC   GL135929  44.650  37.707   8.855
 8258POPC   GL235930  44.526  37.642   8.855
 8258POPC   C1A35931  44.633  37.650   8.555
 8258POPC   D2A35932  44.634  37.647   8.255
 8258POPC   C3A35933  44.621  37.673   7.955
 8258POPC   C4A35934  44.634  37.682   7.655
 8258POPC   C1B35935  44.416  37.607   8.555
 8258POPC   C2B35936  44.386  37.567   8.255
 8258POPC   C3B35937  44.454  37.534   7.955
 8258POPC   C4B35938  44.416  37.582   7.655
 8259POPC   NC335939   7.427   2.781   9.455
 8259POPC   PO435940   7.466   2.734   9.155
 8259POPC   GL135941   7.454   2.747   8.855
 8259POPC   GL235942   7.407   2.926   8.855
 8259POPC   C1A35943   7.378   2.768   8.555
 8259POPC   D2A35944   7.442   2.744   8.255
 8259POPC   C3A35945   7.372   2.756   7.955
 8259POPC   C4A35946   7.445   2.794   7.655
 8259POPC   C1B35947   7.321   3.031   8.555
 8259POPC   C2B35948   7.333   3.004   8.255
 8259POPC   C3B35949   7.285   2.945   7.955
 8259POPC   C4B35950   7.337   2.982   7.655
 8260POPC   NC335951   1.994  19.788   9.455
 8260POPC   PO435952   1.976  19.816   9.155
 8260POPC   GL135953   1.984  19.843   8.855
 8260POPC   GL235954   1.836  19.777   8.855
 8260POPC   C1A35955   2.022  19.840   8.555
 8260POPC   D2A35956   1.976  19.798   8.255
 8260POPC   C3A35957   1.983  19.818   7.955
 8260POPC   C4A35958   2.027  19.853   7.655
 8260POPC   C1B35959   1.779  19.712   8.555
 8260POPC   C2B35960   1.831  19.701   8.255
 8260POPC   C3B35961   1.776  19.672   7.955
 8260POPC   C4B35962   1.752  19.690   7.655
 8261POPC   NC335963   7.469  19.836   9.455
 8261POPC   PO435964   7.379  19.883   9.155
 8261POPC   GL135965   7.431  19.788   8.855
 8261POPC   GL235966   7.320  19.759   8.855
 8261POPC   C1A35967   7.401  19.806   8.555
 8261POPC   D2A35968   7.459  19.795   8.255
 8261POPC   C3A35969   7.387  19.804   7.955
 8261POPC   C4A35970   7.444  19.836   7.655
 8261POPC   C1B35971   7.257  19.618   8.555
 8261POPC   C2B35972   7.291  19.629   8.255
 8261POPC   C3B35973   7.243  19.678   7.955
 8261POPC   C4B35974   7.261  19.663   7.655
 8262POPC   NC335975  13.615  11.300   9.455
 8262POPC   PO435976  13.590  11.252   9.155
 8262POPC   GL135977  13.586  11.286   8.855
 8262POPC   GL235978  13.614  11.209   8.855
 8262POPC   C1A35979  13.646  11.329   8.555
 8262POPC   D2A35980  13.661  11.276   8.255
 8262POPC   C3A35981  13.590  11.267   7.955
 8262POPC   C4A35982  13.620  11.260   7.655
 8262POPC   C1B35983  13.518  11.079   8.555
 8262POPC   C2B35984  13.494  11.030   8.255
 8262POPC   C3B35985  13.538  11.114   7.955
 8262POPC   C4B35986  13.529  11.039   7.655
 8263POPC   NC335987  11.289   9.732   9.455
 8263POPC   PO435988  11.324   9.782   9.155
 8263POPC   GL135989  11.256   9.770   8.855
 8263POPC   GL235990  11.417   9.662   8.855
 8263POPC   C1A35991  11.303   9.778   8.555
 8263POPC   D2A35992  11.292   9.798   8.255
 8263POPC   C3A35993  11.310   9.789   7.955
 8263POPC   C4A35994  11.288   9.724   7.655
 8263POPC   C1B35995  11.499   9.605   8.555
 8263POPC   C2B35996  11.475   9.599   8.255
 8263POPC   C3B35997  11.486   9.582   7.955
 8263POPC   C4B35998  11.434   9.596   7.655
 8264POPC   NC335999  41.515  30.710   9.455
 8264POPC   PO436000  41.548  30.708   9.155
 8264POPC   GL136001  41.529  30.682   8.855
 8264POPC   GL236002  41.546  30.598   8.855
 8264POPC   C1A36003  41.554  30.739   8.555
 8264POPC   D2A36004  41.571  30.696   8.255
 8264POPC   C3A36005  41.566  30.708   7.955
 8264POPC   C4A36006  41.523  30.740   7.655
 8264POPC   C1B36007  41.475  30.435   8.555
 8264POPC   C2B36008  41.506  30.455   8.255
 8264POPC   C3B36009  41.456  30.453   7.955
 8264POPC   C4B36010  41.520  30.467   7.655
 8265POPC   NC336011  43.121  39.210   9.455
 8265POPC   PO436012  43.081  39.247   9.155
 8265POPC   GL136013  43.108  39.253   8.855
 8265POPC   GL236014  43.062  39.358   8.855
 8265POPC   C1A36015  43.065  39.240   8.555
 8265POPC   D2A36016  43.102  39.254   8.255
 8265POPC   C3A36017  43.115  39.268   7.955
 8265POPC   C4A36018  43.100  39.249   7.655
 8265POPC   C1B36019  43.060  39.466   8.555
 8265POPC   C2B36020  43.044  39.491   8.255
 8265POPC   C3B36021  43.073  39.456   7.955
 8265POPC   C4B36022  43.095  39.507   7.655
 8266POPC   NC336023  23.683  15.172   9.455
 8266POPC   PO436024  23.718  15.152   9.155
 8266POPC   GL136025  23.760  15.153   8.855
 8266POPC   GL236026  23.621  15.291   8.855
 8266POPC   C1A36027  23.722  15.151   8.555
 8266POPC   D2A36028  23.666  15.171   8.255
 8266POPC   C3A36029  23.664  15.210   7.955
 8266POPC   C4A36030  23.693  15.172   7.655
 8266POPC   C1B36031  23.571  15.386   8.555
 8266POPC   C2B36032  23.613  15.425   8.255
 8266POPC   C3B36033  23.652  15.460   7.955
 8266POPC   C4B36034  23.664  15.385   7.655
 8267POPC   NC336035  29.875  41.526   9.455
 8267POPC   PO436036  29.874  41.592   9.155
 8267POPC   GL136037  29.919  41.602   8.855
 8267POPC   GL236038  29.991  41.543   8.855
 8267POPC   C1A36039  29.890  41.523   8.555
 8267POPC   D2A36040  29.905  41.522   8.255
 8267POPC   C3A36041  29.921  41.585   7.955
 8267POPC   C4A36042  29.947  41.556   7.655
 8267POPC   C1B36043  30.164  41.464   8.555
 8267POPC   C2B36044  30.102  41.452   8.255
 8267POPC   C3B36045  30.098  41.480   7.955
 8267POPC   C4B36046  30.096  41.447   7.655
 8268POPC   NC336047  26.065  15.917   9.455
 8268POPC   PO436048  26.077  15.930   9.155
 8268POPC   GL136049  26.018  15.991   8.855
 8268POPC   GL236050  25.976  16.066   8.855
 8268POPC   C1A36051  26.019  15.936   8.555
 8268POPC   D2A36052  26.053  15.942   8.255
 8268POPC   C3A36053  26.041  15.983   7.955
 8268POPC   C4A36054  25.992  15.971   7.655
 8268POPC   C1B36055  25.866  16.132   8.555
 8268POPC   C2B36056  25.884  16.160   8.255
 8268POPC   C3B36057  25.876  16.124   7.955
 8268POPC   C4B36058  25.937  16.172   7.655
 8269POPC   NC336059  29.931   7.405   9.455
 8269POPC   PO436060  29.935   7.459   9.155
 8269POPC   GL136061  29.921   7.393   8.855
 8269POPC   GL236062  29.790   7.333   8.855
 8269POPC   C1A36063  29.939   7.416   8.555
 8269POPC   D2A36064  29.955   7.461   8.255
 8269POPC   C3A36065  29.962   7.432   7.955
 8269POPC   C4A36066  29.927   7.404   7.655
 8269POPC   C1B36067  29.670   7.315   8.555
 8269POPC   C2B36068  29.720   7.280   8.255
 8269POPC   C3B36069  29.729   7.327   7.955
 8269POPC   C4B36070  29.756   7.326   7.655
 8270POPC   NC336071  36.946  18.296   9.455
 8270POPC   PO436072  36.901  18.319   9.155
 8270POPC   GL136073  36.953  18.270   8.855
 8270POPC   GL236074  36.821  18.222   8.855
 8270POPC   C1A36075  36.899  18.298   8.555
 8270POPC   D2A36076  36.909  18.266   8.255
 8270POPC   C3A36077  36.933  18.328   7.955
 8270POPC   C4A36078  36.912  18.235   7.655
 8270POPC   C1B36079  36.629  18.151   8.555
 8270POPC   C2B36080  36.675  18.199   8.255
 8270POPC   C3B36081  36.689  18.134   7.955
 8270POPC   C4B36082  36.632  18.191   7.655
 8271POPC   NC336083  15.951  26.043   9.455
 8271POPC   PO436084  15.921  26.088   9.155
 8271POPC   GL136085  15.912  26.031   8.855
 8271POPC   GL236086  16.065  25.884   8.855
 8271POPC   C1A36087  16.000  26.019   8.555
 8271POPC   D2A36088  15.984  26.031   8.255
 8271POPC   C3A36089  15.992  26.091   7.955
 8271POPC   C4A36090  15.938  26.006   7.655
 8271POPC   C1B36091  16.100  25.831   8.555
 8271POPC   C2B36092  16.124  25.798   8.255
 8271POPC   C3B36093  16.057  25.798   7.955
 8271POPC   C4B36094  16.118  25.842   7.655
 8272POPC   NC336095  11.319  29.107   9.455
 8272POPC   PO436096  11.250  29.118   9.155
 8272POPC   GL136097  11.280  29.133   8.855
 8272POPC   GL236098  11.179  29.160   8.855
 8272POPC   C1A36099  11.340  29.180   8.555
 8272POPC   D2A36100  11.340  29.168   8.255
 8272POPC   C3A36101  11.307  29.192   7.955
 8272POPC   C4A36102  11.267  29.125   7.655
 8272POPC   C1B36103  11.065  29.101   8.555
 8272POPC   C2B36104  11.028  29.137   8.255
 8272POPC   C3B36105  11.043  29.063   7.955
 8272POPC   C4B36106  11.019  29.134   7.655
 8273POPC   NC336107  35.312  38.486   9.455
 8273POPC   PO436108  35.302  38.479   9.155
 8273POPC   GL136109  35.400  38.464   8.855
 8273POPC   GL236110  35.435  38.486   8.855
 8273POPC   C1A36111  35.371  38.415   8.555
 8273POPC   D2A36112  35.368  38.489   8.255
 8273POPC   C3A36113  35.380  38.469   7.955
 8273POPC   C4A36114  35.383  38.408   7.655
 8273POPC   C1B36115  35.572  38.613   8.555
 8273POPC   C2B36116  35.581  38.584   8.255
 8273POPC   C3B36117  35.519  38.604   7.955
 8273POPC   C4B36118  35.541  38.628   7.655
 8274POPC   NC336119  16.735  24.449   9.455
 8274POPC   PO436120  16.705  24.493   9.155
 8274POPC   GL136121  16.775  24.461   8.855
 8274POPC   GL236122  16.820  24.496   8.855
 8274POPC   C1A36123  16.721  24.494   8.555
 8274POPC   D2A36124  16.706  24.503   8.255
 8274POPC   C3A36125  16.732  24.525   7.955
 8274POPC   C4A36126  16.701  24.514   7.655
 8274POPC   C1B36127  16.945  24.491   8.555
 8274POPC   C2B36128  17.019  24.496   8.255
 8274POPC   C3B36129  16.982  24.536   7.955
 8274POPC   C4B36130  16.932  24.506   7.655
 8275POPC   NC336131  37.716  38.485   9.455
 8275POPC   PO436132  37.680  38.497   9.155
 8275POPC   GL136133  37.695  38.451   8.855
 8275POPC   GL236134  37.825  38.396   8.855
 8275POPC   C1A36135  37.678  38.406   8.555
 8275POPC   D2A36136  37.643  38.499   8.255
 8275POPC   C3A36137  37.708  38.411   7.955
 8275POPC   C4A36138  37.680  38.419   7.655
 8275POPC   C1B36139  37.895  38.338   8.555
 8275POPC   C2B36140  37.881  38.383   8.255
 8275POPC   C3B36141  37.890  38.375   7.955
 8275POPC   C4B36142  37.921  38.393   7.655
 8276POPC   NC336143  11.315  37.660   9.455
 8276POPC   PO436144  11.297  37.717   9.155
 8276POPC   GL136145  11.259  37.720   8.855
 8276POPC   GL236146  11.200  37.694   8.855
 8276POPC   C1A36147  11.342  37.708   8.555
 8276POPC   D2A36148  11.344  37.654   8.255
 8276POPC   C3A36149  11.261  37.714   7.955
 8276POPC   C4A36150  11.316  37.638   7.655
 8276POPC   C1B36151  11.029  37.590   8.555
 8276POPC   C2B36152  11.066  37.649   8.255
 8276POPC   C3B36153  11.010  37.613   7.955
 8276POPC   C4B36154  11.107  37.594   7.655
 8277POPC   NC336155  41.519  33.766   9.455
 8277POPC   PO436156  41.581  33.840   9.155
 8277POPC   GL136157  41.566  33.848   8.855
 8277POPC   GL236158  41.397  33.762   8.855
 8277POPC   C1A36159  41.597  33.769   8.555
 8277POPC   D2A36160  41.556  33.799   8.255
 8277POPC   C3A36161  41.533  33.753   7.955
 8277POPC   C4A36162  41.563  33.811   7.655
 8277POPC   C1B36163  41.290  33.756   8.555
 8277POPC   C2B36164  41.362  33.678   8.255
 8277POPC   C3B36165  41.334  33.768   7.955
 8277POPC   C4B36166  41.300  33.682   7.655
 8278POPC   NC336167  43.101  20.623   9.455
 8278POPC   PO436168  43.127  20.560   9.155
 8278POPC   GL136169  43.089  20.627   8.855
 8278POPC   GL236170  43.191  20.565   8.855
 8278POPC   C1A36171  43.139  20.599   8.555
 8278POPC   D2A36172  43.116  20.591   8.255
 8278POPC   C3A36173  43.103  20.565   7.955
 8278POPC   C4A36174  43.154  20.565   7.655
 8278POPC   C1B36175  43.272  20.413   8.555
 8278POPC   C2B36176  43.313  20.450   8.255
 8278POPC   C3B36177  43.324  20.445   7.955
 8278POPC   C4B36178  43.310  20.440   7.655
 8279POPC   NC336179  29.952  29.947   9.455
 8279POPC   PO436180  29.877  29.918   9.155
 8279POPC   GL136181  29.967  29.944   8.855
 8279POPC   GL236182  29.945  30.021   8.855
 8279POPC   C1A36183  29.873  29.968   8.555
 8279POPC   D2A36184  29.900  29.945   8.255
 8279POPC   C3A36185  29.873  29.920   7.955
 8279POPC   C4A36186  29.967  29.956   7.655
 8279POPC   C1B36187  29.931  30.172   8.555
 8279POPC   C2B36188  29.957  30.130   8.255
 8279POPC   C3B36189  29.983  30.139   7.955
 8279POPC   C4B36190  29.945  30.167   7.655
 8280POPC   NC336191  22.170  22.163   9.455
 8280POPC   PO436192  22.156  22.121   9.155
 8280POPC   GL136193  22.185  22.117   8.855
 8280POPC   GL236194  22.249  22.095   8.855
 8280POPC   C1A36195  22.163  22.159   8.555
 8280POPC   D2A36196  22.145  22.186   8.255
 8280POPC   C3A36197  22.119  22.167   7.955
 8280POPC   C4A36198  22.162  22.161   7.655
 8280POPC   C1B36199  22.253  21.959   8.555
 8280POPC   C2B36200  22.280  21.949   8.255
 8280POPC   C3B36201  22.321  21.931   7.955
 8280POPC   C4B36202  22.343  21.914   7.655
 8281POPC   NC336203  22.968  22.954   9.455
 8281POPC   PO436204  22.961  22.962   9.155
 8281POPC   GL136205  22.973  22.950   8.855
 8281POPC   GL236206  22.878  22.824   8.855
 8281POPC   C1A36207  22.958  22.951   8.555
 8281POPC   D2A36208  22.900  22.950   8.255
 8281POPC   C3A36209  22.959  22.961   7.955
 8281POPC   C4A36210  22.977  22.892   7.655
 8281POPC   C1B36211  22.789  22.740   8.555
 8281POPC   C2B36212  22.796  22.797   8.255
 8281POPC   C3B36213  22.728  22.716   7.955
 8281POPC   C4B36214  22.763  22.706   7.655
 8282POPC   NC336215  43.863  19.036   9.455
 8282POPC   PO436216  43.928  19.016   9.155
 8282POPC   GL136217  43.842  19.079   8.855
 8282POPC   GL236218  43.810  18.988   8.855
 8282POPC   C1A36219  43.901  19.011   8.555
 8282POPC   D2A36220  43.868  19.086   8.255
 8282POPC   C3A36221  43.871  19.037   7.955
 8282POPC   C4A36222  43.903  19.039   7.655
 8282POPC   C1B36223  43.747  18.880   8.555
 8282POPC   C2B36224  43.749  18.838   8.255
 8282POPC   C3B36225  43.682  18.883   7.955
 8282POPC   C4B36226  43.679  18.897   7.655
 8283POPC   NC336227  40.025  22.984   9.455
 8283POPC   PO436228  39.990  22.910   9.155
 8283POPC   GL136229  40.033  22.974   8.855
 8283POPC   GL236230  39.897  22.997   8.855
 8283POPC   C1A36231  40.053  22.898   8.555
 8283POPC   D2A36232  39.973  22.895   8.255
 8283POPC   C3A36233  40.036  22.985   7.955
 8283POPC   C4A36234  39.963  22.902   7.655
 8283POPC   C1B36235  39.777  23.083   8.555
 8283POPC   C2B36236  39.808  23.096   8.255
 8283POPC   C3B36237  39.803  23.073   7.955
 8283POPC   C4B36238  39.810  23.153   7.655
 8284POPC   NC336239  34.565  18.294   9.455
 8284POPC   PO436240  34.531  18.296   9.155
 8284POPC   GL136241  34.562  18.236   8.855
 8284POPC   GL236242  34.694  18.186   8.855
 8284POPC   C1A36243  34.575  18.291   8.555
 8284POPC   D2A36244  34.622  18.330   8.255
 8284POPC   C3A36245  34.618  18.303   7.955
 8284POPC   C4A36246  34.560  18.272   7.655
 8284POPC   C1B36247  34.815  18.156   8.555
 8284POPC   C2B36248  34.806  18.106   8.255
 8284POPC   C3B36249  34.747  18.107   7.955
 8284POPC   C4B36250  34.775  18.130   7.655
 8285POPC   NC336251  30.651  13.634   9.455
 8285POPC   PO436252  30.652  13.643   9.155
 8285POPC   GL136253  30.669  13.671   8.855
 8285POPC   GL236254  30.557  13.550   8.855
 8285POPC   C1A36255  30.674  13.668   8.555
 8285POPC   D2A36256  30.703  13.636   8.255
 8285POPC   C3A36257  30.656  13.581   7.955
 8285POPC   C4A36258  30.656  13.598   7.655
 8285POPC   C1B36259  30.432  13.460   8.555
 8285POPC   C2B36260  30.456  13.471   8.255
 8285POPC   C3B36261  30.434  13.489   7.955
 8285POPC   C4B36262  30.441  13.508   7.655
 8286POPC   NC336263  38.443  39.197   9.455
 8286POPC   PO436264  38.502  39.250   9.155
 8286POPC   GL136265  38.499  39.227   8.855
 8286POPC   GL236266  38.310  39.336   8.855
 8286POPC   C1A36267  38.451  39.241   8.555
 8286POPC   D2A36268  38.434  39.279   8.255
 8286POPC   C3A36269  38.490  39.188   7.955
 8286POPC   C4A36270  38.483  39.210   7.655
 8286POPC   C1B36271  38.195  39.385   8.555
 8286POPC   C2B36272  38.263  39.350   8.255
 8286POPC   C3B36273  38.212  39.353   7.955
 8286POPC   C4B36274  38.283  39.341   7.655
 8287POPC   NC336275  43.904  29.112   9.455
 8287POPC   PO436276  43.895  29.109   9.155
 8287POPC   GL136277  43.840  29.104   8.855
 8287POPC   GL236278  43.767  29.072   8.855
 8287POPC   C1A36279  43.847  29.146   8.555
 8287POPC   D2A36280  43.858  29.140   8.255
 8287POPC   C3A36281  43.865  29.117   7.955
 8287POPC   C4A36282  43.898  29.117   7.655
 8287POPC   C1B36283  43.659  29.062   8.555
 8287POPC   C2B36284  43.612  28.997   8.255
 8287POPC   C3B36285  43.671  29.047   7.955
 8287POPC   C4B36286  43.703  29.076   7.655
 8288POPC   NC336287  11.333   2.756   9.455
 8288POPC   PO436288  11.301   2.795   9.155
 8288POPC   GL136289  11.303   2.770   8.855
 8288POPC   GL236290  11.453   2.818   8.855
 8288POPC   C1A36291  11.295   2.808   8.555
 8288POPC   D2A36292  11.336   2.803   8.255
 8288POPC   C3A36293  11.334   2.777   7.955
 8288POPC   C4A36294  11.346   2.742   7.655
 8288POPC   C1B36295  11.578   2.853   8.555
 8288POPC   C2B36296  11.507   2.767   8.255
 8288POPC   C3B36297  11.566   2.793   7.955
 8288POPC   C4B36298  11.508   2.842   7.655
 8289POPC   NC336299  38.442  22.945   9.455
 8289POPC   PO436300  38.502  22.969   9.155
 8289POPC   GL136301  38.494  22.967   8.855
 8289POPC   GL236302  38.319  23.010   8.855
 8289POPC   C1A36303  38.455  22.973   8.555
 8289POPC   D2A36304  38.425  22.966   8.255
 8289POPC   C3A36305  38.410  22.927   7.955
 8289POPC   C4A36306  38.437  22.978   7.655
 8289POPC   C1B36307  38.280  23.069   8.555
 8289POPC   C2B36308  38.243  23.040   8.255
 8289POPC   C3B36309  38.218  23.032   7.955
 8289POPC   C4B36310  38.210  23.063   7.655
 8290POPC   NC336311   7.433  32.255   9.455
 8290POPC   PO436312   7.414  32.210   9.155
 8290POPC   GL136313   7.417  32.241   8.855
 8290POPC   GL236314   7.526  32.245   8.855
 8290POPC   C1A36315   7.459  32.260   8.555
 8290POPC   D2A36316   7.468  32.278   8.255
 8290POPC   C3A36317   7.380  32.199   7.955
 8290POPC   C4A36318   7.466  32.219   7.655
 8290POPC   C1B36319   7.643  32.182   8.555
 8290POPC   C2B36320   7.660  32.237   8.255
 8290POPC   C3B36321   7.692  32.187   7.955
 8290POPC   C4B36322   7.679  32.267   7.655
 8291POPC   NC336323  39.257  33.018   9.455
 8291POPC   PO436324  39.268  33.021   9.155
 8291POPC   GL136325  39.191  33.060   8.855
 8291POPC   GL236326  39.137  33.104   8.855
 8291POPC   C1A36327  39.258  33.056   8.555
 8291POPC   D2A36328  39.237  33.050   8.255
 8291POPC   C3A36329  39.207  32.998   7.955
 8291POPC   C4A36330  39.207  33.073   7.655
 8291POPC   C1B36331  39.105  33.297   8.555
 8291POPC   C2B36332  39.123  33.212   8.255
 8291POPC   C3B36333  39.096  33.266   7.955
 8291POPC   C4B36334  39.173  33.280   7.655
 8292POPC   NC336335  42.291   7.434   9.455
 8292POPC   PO436336  42.331   7.399   9.155
 8292POPC   GL136337  42.379   7.461   8.855
 8292POPC   GL236338  42.264   7.313   8.855
 8292POPC   C1A36339  42.364   7.420   8.555
 8292POPC   D2A36340  42.341   7.425   8.255
 8292POPC   C3A36341  42.353   7.433   7.955
 8292POPC   C4A36342  42.327   7.372   7.655
 8292POPC   C1B36343  42.149   7.292   8.555
 8292POPC   C2B36344  42.183   7.242   8.255
 8292POPC   C3B36345  42.142   7.307   7.955
 8292POPC   C4B36346  42.164   7.222   7.655
 8293POPC   NC336347  15.228   8.927   9.455
 8293POPC   PO436348  15.212   8.936   9.155
 8293POPC   GL136349  15.150   8.939   8.855
 8293POPC   GL236350  15.096   8.825   8.855
 8293POPC   C1A36351  15.174   8.937   8.555
 8293POPC   D2A36352  15.162   8.992   8.255
 8293POPC   C3A36353  15.149   8.968   7.955
 8293POPC   C4A36354  15.155   8.947   7.655
 8293POPC   C1B36355  15.104   8.735   8.555
 8293POPC   C2B36356  15.145   8.743   8.255
 8293POPC   C3B36357  15.111   8.747   7.955
 8293POPC   C4B36358  15.075   8.773   7.655
 8294POPC   NC336359  29.102  34.542   9.455
 8294POPC   PO436360  29.168  34.570   9.155
 8294POPC   GL136361  29.125  34.556   8.855
 8294POPC   GL236362  29.204  34.431   8.855
 8294POPC   C1A36363  29.185  34.548   8.555
 8294POPC   D2A36364  29.179  34.565   8.255
 8294POPC   C3A36365  29.122  34.623   7.955
 8294POPC   C4A36366  29.187  34.607   7.655
 8294POPC   C1B36367  29.210  34.381   8.555
 8294POPC   C2B36368  29.194  34.349   8.255
 8294POPC   C3B36369  29.186  34.382   7.955
 8294POPC   C4B36370  29.222  34.307   7.655
 8295POPC   NC336371  31.429   0.447   9.455
 8295POPC   PO436372  31.456   0.480   9.155
 8295POPC   GL136373  31.461   0.475   8.855
 8295POPC   GL236374  31.464   0.328   8.855
 8295POPC   C1A36375  31.471   0.465   8.555
 8295POPC   D2A36376  31.490   0.456   8.255
 8295POPC   C3A36377  31.487   0.457   7.955
 8295POPC   C4A36378  31.485   0.466   7.655
 8295POPC   C1B36379  31.528   0.175   8.555
 8295POPC   C2B36380  31.539   0.224   8.255
 8295POPC   C3B36381  31.584   0.188   7.955
 8295POPC   C4B36382  31.584   0.239   7.655
 8296POPC   NC336383  19.844   8.169   9.455
 8296POPC   PO436384  19.851   8.183   9.155
 8296POPC   GL136385  19.877   8.152   8.855
 8296POPC   GL236386  19.685   8.211   8.855
 8296POPC   C1A36387  19.839   8.220   8.555
 8296POPC   D2A36388  19.849   8.164   8.255
 8296POPC   C3A36389  19.851   8.205   7.955
 8296POPC   C4A36390  19.830   8.174   7.655
 8296POPC   C1B36391  19.573   8.158   8.555
 8296POPC   C2B36392  19.540   8.126   8.255
 8296POPC   C3B36393  19.622   8.133   7.955
 8296POPC   C4B36394  19.595   8.118   7.655
 8297POPC   NC336395  42.305  19.088   9.455
 8297POPC   PO436396  42.321  19.085   9.155
 8297POPC   GL136397  42.365  19.069   8.855
 8297POPC   GL236398  42.224  19.021   8.855
 8297POPC   C1A36399  42.359  19.098   8.555
 8297POPC   D2A36400  42.347  19.059   8.255
 8297POPC   C3A36401  42.333  19.046   7.955
 8297POPC   C4A36402  42.375  19.096   7.655
 8297POPC   C1B36403  42.043  19.057   8.555
 8297POPC   C2B36404  42.068  19.071   8.255
 8297POPC   C3B36405  42.081  19.037   7.955
 8297POPC   C4B36406  42.115  19.090   7.655
 8298POPC   NC336407  37.696  23.742   9.455
 8298POPC   PO436408  37.721  23.713   9.155
 8298POPC   GL136409  37.712  23.673   8.855
 8298POPC   GL236410  37.793  23.622   8.855
 8298POPC   C1A36411  37.643  23.684   8.555
 8298POPC   D2A36412  37.701  23.726   8.255
 8298POPC   C3A36413  37.672  23.694   7.955
 8298POPC   C4A36414  37.664  23.754   7.655
 8298POPC   C1B36415  37.924  23.613   8.555
 8298POPC   C2B36416  37.881  23.647   8.255
 8298POPC   C3B36417  37.938  23.599   7.955
 8298POPC   C4B36418  37.919  23.661   7.655
 8299POPC   NC336419  12.090  12.112   9.455
 8299POPC   PO436420  12.103  12.059   9.155
 8299POPC   GL136421  12.053  12.069   8.855
 8299POPC   GL236422  12.219  12.103   8.855
 8299POPC   C1A36423  12.112  12.034   8.555
 8299POPC   D2A36424  12.109  12.041   8.255
 8299POPC   C3A36425  12.077  12.078   7.955
 8299POPC   C4A36426  12.063  12.062   7.655
 8299POPC   C1B36427  12.243  12.189   8.555
 8299POPC   C2B36428  12.303  12.186   8.255
 8299POPC   C3B36429  12.267  12.250   7.955
 8299POPC   C4B36430  12.324  12.239   7.655
 8300POPC   NC336431   3.577   1.942   9.455
 8300POPC   PO436432   3.572   2.007   9.155
 8300POPC   GL136433   3.560   2.032   8.855
 8300POPC   GL236434   3.584   1.919   8.855
 8300POPC   C1A36435   3.507   1.946   8.555
 8300POPC   D2A36436   3.520   1.946   8.255
 8300POPC   C3A36437   3.574   1.947   7.955
 8300POPC   C4A36438   3.559   2.031   7.655
 8300POPC   C1B36439   3.642   1.723   8.555
 8300POPC   C2B36440   3.669   1.710   8.255
 8300POPC   C3B36441   3.620   1.735   7.955
 8300POPC   C4B36442   3.607   1.780   7.655
 8301POPC   NC336443  23.671  43.149   9.455
 8301POPC   PO436444  23.756  43.060   9.155
 8301POPC   GL136445  23.719  43.147   8.855
 8301POPC   GL236446  23.837  43.214   8.855
 8301POPC   C1A36447  23.666  43.092   8.555
 8301POPC   D2A36448  23.726  43.145   8.255
 8301POPC   C3A36449  23.755  43.073   7.955
 8301POPC   C4A36450  23.735  43.077   7.655
 8301POPC   C1B36451  23.904  43.259   8.555
 8301POPC   C2B36452  23.878  43.314   8.255
 8301POPC   C3B36453  23.886  43.325   7.955
 8301POPC   C4B36454  23.924  43.237   7.655
 8302POPC   NC336455  42.367  42.333   9.455
 8302POPC   PO436456  42.339  42.288   9.155
 8302POPC   GL136457  42.322  42.351   8.855
 8302POPC   GL236458  42.379  42.254   8.855
 8302POPC   C1A36459  42.286  42.335   8.555
 8302POPC   D2A36460  42.370  42.303   8.255
 8302POPC   C3A36461  42.300  42.349   7.955
 8302POPC   C4A36462  42.340  42.302   7.655
 8302POPC   C1B36463  42.382  42.115   8.555
 8302POPC   C2B36464  42.338  42.096   8.255
 8302POPC   C3B36465  42.379  42.044   7.955
 8302POPC   C4B36466  42.335  42.083   7.655
 8303POPC   NC336467  10.567  43.920   9.455
 8303POPC   PO436468  10.491  43.899   9.155
 8303POPC   GL136469  10.476  43.907   8.855
 8303POPC   GL236470  10.378  43.819   8.855
 8303POPC   C1A36471  10.571  43.921   8.555
 8303POPC   D2A36472  10.494  43.845   8.255
 8303POPC   C3A36473  10.562  43.918   7.955
 8303POPC   C4A36474  10.548  43.853   7.655
 8303POPC   C1B36475  10.315  43.721   8.555
 8303POPC   C2B36476  10.280  43.750   8.255
 8303POPC   C3B36477  10.314  43.757   7.955
 8303POPC   C4B36478  10.300  43.744   7.655
 8304POPC   NC336479  33.836  36.146   9.455
 8304POPC   PO436480  33.839  36.150   9.155
 8304POPC   GL136481  33.791  36.114   8.855
 8304POPC   GL236482  33.796  35.977   8.855
 8304POPC   C1A36483  33.833  36.129   8.555
 8304POPC   D2A36484  33.836  36.152   8.255
 8304POPC   C3A36485  33.771  36.092   7.955
 8304POPC   C4A36486  33.819  36.097   7.655
 8304POPC   C1B36487  33.865  35.881   8.555
 8304POPC   C2B36488  33.816  35.892   8.255
 8304POPC   C3B36489  33.801  35.912   7.955
 8304POPC   C4B36490  33.847  35.841   7.655
 8305POPC   NC336491  13.616  36.121   9.455
 8305POPC   PO436492  13.587  36.099   9.155
 8305POPC   GL136493  13.659  36.094   8.855
 8305POPC   GL236494  13.518  35.998   8.855
 8305POPC   C1A36495  13.588  36.140   8.555
 8305POPC   D2A36496  13.670  36.085   8.255
 8305POPC   C3A36497  13.626  36.124   7.955
 8305POPC   C4A36498  13.604  36.126   7.655
 8305POPC   C1B36499  13.399  35.977   8.555
 8305POPC   C2B36500  13.453  36.001   8.255
 8305POPC   C3B36501  13.452  35.974   7.955
 8305POPC   C4B36502  13.460  36.003   7.655
 8306POPC   NC336503  15.149  20.604   9.455
 8306POPC   PO436504  15.160  20.642   9.155
 8306POPC   GL136505  15.172  20.629   8.855
 8306POPC   GL236506  15.272  20.663   8.855
 8306POPC   C1A36507  15.222  20.599   8.555
 8306POPC   D2A36508  15.191  20.570   8.255
 8306POPC   C3A36509  15.218  20.622   7.955
 8306POPC   C4A36510  15.186  20.653   7.655
 8306POPC   C1B36511  15.348  20.784   8.555
 8306POPC   C2B36512  15.423  20.732   8.255
 8306POPC   C3B36513  15.378  20.690   7.955
 8306POPC   C4B36514  15.354  20.742   7.655
 8307POPC   NC336515   3.559  30.664   9.455
 8307POPC   PO436516   3.568  30.697   9.155
 8307POPC   GL136517   3.578  30.667   8.855
 8307POPC   GL236518   3.665  30.819   8.855
 8307POPC   C1A36519   3.546  30.705   8.555
 8307POPC   D2A36520   3.492  30.682   8.255
 8307POPC   C3A36521   3.585  30.694   7.955
 8307POPC   C4A36522   3.497  30.710   7.655
 8307POPC   C1B36523   3.740  30.859   8.555
 8307POPC   C2B36524   3.697  30.901   8.255
 8307POPC   C3B36525   3.683  30.855   7.955
 8307POPC   C4B36526   3.738  30.868   7.655
 8308POPC   NC336527  42.370  35.351   9.455
 8308POPC   PO436528  42.295  35.370   9.155
 8308POPC   GL136529  42.291  35.365   8.855
 8308POPC   GL236530  42.179  35.374   8.855
 8308POPC   C1A36531  42.317  35.367   8.555
 8308POPC   D2A36532  42.291  35.341   8.255
 8308POPC   C3A36533  42.382  35.361   7.955
 8308POPC   C4A36534  42.376  35.324   7.655
 8308POPC   C1B36535  42.096  35.371   8.555
 8308POPC   C2B36536  42.072  35.344   8.255
 8308POPC   C3B36537  42.127  35.432   7.955
 8308POPC   C4B36538  42.094  35.426   7.655
 8309POPC   NC336539  10.510   0.470   9.455
 8309POPC   PO436540  10.518   0.419   9.155
 8309POPC   GL136541  10.489   0.444   8.855
 8309POPC   GL236542  10.531   0.339   8.855
 8309POPC   C1A36543  10.564   0.446   8.555
 8309POPC   D2A36544  10.525   0.487   8.255
 8309POPC   C3A36545  10.497   0.449   7.955
 8309POPC   C4A36546  10.483   0.485   7.655
 8309POPC   C1B36547  10.409   0.232   8.555
 8309POPC   C2B36548  10.432   0.156   8.255
 8309POPC   C3B36549  10.495   0.228   7.955
 8309POPC   C4B36550  10.439   0.217   7.655
 8310POPC   NC336551  33.796  36.903   9.455
 8310POPC   PO436552  33.806  36.898   9.155
 8310POPC   GL136553  33.781  36.925   8.855
 8310POPC   GL236554  33.723  37.005   8.855
 8310POPC   C1A36555  33.774  36.921   8.555
 8310POPC   D2A36556  33.804  36.941   8.255
 8310POPC   C3A36557  33.808  36.938   7.955
 8310POPC   C4A36558  33.825  36.866   7.655
 8310POPC   C1B36559  33.534  37.061   8.555
 8310POPC   C2B36560  33.546  37.059   8.255
 8310POPC   C3B36561  33.610  36.980   7.955
 8310POPC   C4B36562  33.530  37.050   7.655
 8311POPC   NC336563  33.800   6.642   9.455
 8311POPC   PO436564  33.819   6.660   9.155
 8311POPC   GL136565  33.788   6.608   8.855
 8311POPC   GL236566  33.791   6.568   8.855
 8311POPC   C1A36567  33.796   6.641   8.555
 8311POPC   D2A36568  33.770   6.644   8.255
 8311POPC   C3A36569  33.801   6.691   7.955
 8311POPC   C4A36570  33.751   6.687   7.655
 8311POPC   C1B36571  33.651   6.454   8.555
 8311POPC   C2B36572  33.730   6.450   8.255
 8311POPC   C3B36573  33.653   6.396   7.955
 8311POPC   C4B36574  33.645   6.438   7.655
 8312POPC   NC336575  29.904  36.117   9.455
 8312POPC   PO436576  29.956  36.120   9.155
 8312POPC   GL136577  29.924  36.103   8.855
 8312POPC   GL236578  29.788  36.156   8.855
 8312POPC   C1A36579  29.905  36.171   8.555
 8312POPC   D2A36580  29.908  36.161   8.255
 8312POPC   C3A36581  29.872  36.140   7.955
 8312POPC   C4A36582  29.961  36.134   7.655
 8312POPC   C1B36583  29.663  36.263   8.555
 8312POPC   C2B36584  29.698  36.228   8.255
 8312POPC   C3B36585  29.670  36.292   7.955
 8312POPC   C4B36586  29.695  36.234   7.655
 8313POPC   NC336587  22.953  25.237   9.455
 8313POPC   PO436588  22.981  25.267   9.155
 8313POPC   GL136589  22.902  25.248   8.855
 8313POPC   GL236590  22.971  25.343   8.855
 8313POPC   C1A36591  22.964  25.302   8.555
 8313POPC   D2A36592  22.957  25.220   8.255
 8313POPC   C3A36593  22.971  25.272   7.955
 8313POPC   C4A36594  22.941  25.290   7.655
 8313POPC   C1B36595  22.963  25.476   8.555
 8313POPC   C2B36596  22.950  25.524   8.255
 8313POPC   C3B36597  23.004  25.541   7.955
 8313POPC   C4B36598  22.954  25.470   7.655
 8314POPC   NC336599  18.267  35.381   9.455
 8314POPC   PO436600  18.236  35.393   9.155
 8314POPC   GL136601  18.261  35.303   8.855
 8314POPC   GL236602  18.398  35.321   8.855
 8314POPC   C1A36603  18.242  35.388   8.555
 8314POPC   D2A36604  18.275  35.395   8.255
 8314POPC   C3A36605  18.256  35.396   7.955
 8314POPC   C4A36606  18.292  35.373   7.655
 8314POPC   C1B36607  18.473  35.296   8.555
 8314POPC   C2B36608  18.544  35.306   8.255
 8314POPC   C3B36609  18.473  35.225   7.955
 8314POPC   C4B36610  18.524  35.264   7.655
 8315POPC   NC336611  10.493  22.157   9.455
 8315POPC   PO436612  10.571  22.173   9.155
 8315POPC   GL136613  10.532  22.132   8.855
 8315POPC   GL236614  10.688  22.176   8.855
 8315POPC   C1A36615  10.490  22.164   8.555
 8315POPC   D2A36616  10.548  22.203   8.255
 8315POPC   C3A36617  10.511  22.188   7.955
 8315POPC   C4A36618  10.512  22.192   7.655
 8315POPC   C1B36619  10.766  22.167   8.555
 8315POPC   C2B36620  10.795  22.203   8.255
 8315POPC   C3B36621  10.750  22.227   7.955
 8315POPC   C4B36622  10.719  22.175   7.655
 8316POPC   NC336623  13.625  19.077   9.455
 8316POPC   PO436624  13.595  19.080   9.155
 8316POPC   GL136625  13.632  19.104   8.855
 8316POPC   GL236626  13.518  19.013   8.855
 8316POPC   C1A36627  13.639  19.022   8.555
 8316POPC   D2A36628  13.582  19.053   8.255
 8316POPC   C3A36629  13.581  19.070   7.955
 8316POPC   C4A36630  13.595  19.017   7.655
 8316POPC   C1B36631  13.510  18.887   8.555
 8316POPC   C2B36632  13.466  18.831   8.255
 8316POPC   C3B36633  13.511  18.897   7.955
 8316POPC   C4B36634  13.413  18.842   7.655
 8317POPC   NC336635  15.997  40.787   9.455
 8317POPC   PO436636  15.933  40.757   9.155
 8317POPC   GL136637  15.995  40.822   8.855
 8317POPC   GL236638  15.950  40.855   8.855
 8317POPC   C1A36639  15.983  40.796   8.555
 8317POPC   D2A36640  15.962  40.812   8.255
 8317POPC   C3A36641  15.945  40.799   7.955
 8317POPC   C4A36642  15.950  40.823   7.655
 8317POPC   C1B36643  16.049  41.028   8.555
 8317POPC   C2B36644  16.026  40.992   8.255
 8317POPC   C3B36645  15.996  41.031   7.955
 8317POPC   C4B36646  16.046  41.038   7.655
 8318POPC   NC336647   9.751  15.186   9.455
 8318POPC   PO436648   9.771  15.143   9.155
 8318POPC   GL136649   9.781  15.194   8.855
 8318POPC   GL236650   9.646  15.142   8.855
 8318POPC   C1A36651   9.723  15.146   8.555
 8318POPC   D2A36652   9.702  15.157   8.255
 8318POPC   C3A36653   9.723  15.156   7.955
 8318POPC   C4A36654   9.791  15.193   7.655
 8318POPC   C1B36655   9.502  15.176   8.555
 8318POPC   C2B36656   9.478  15.222   8.255
 8318POPC   C3B36657   9.476  15.181   7.955
 8318POPC   C4B36658   9.475  15.157   7.655
 8319POPC   NC336659  17.505  43.909   9.455
 8319POPC   PO436660  17.535  43.900   9.155
 8319POPC   GL136661  17.556  43.848   8.855
 8319POPC   GL236662  17.659  43.873   8.855
 8319POPC   C1A36663  17.487  43.897   8.555
 8319POPC   D2A36664  17.530  43.843   8.255
 8319POPC   C3A36665  17.491  43.855   7.955
 8319POPC   C4A36666  17.545  43.931   7.655
 8319POPC   C1B36667  17.709  43.836   8.555
 8319POPC   C2B36668  17.748  43.824   8.255
 8319POPC   C3B36669  17.756  43.755   7.955
 8319POPC   C4B36670  17.694  43.832   7.655
 8320POPC   NC336671  39.204  19.052   9.455
 8320POPC   PO436672  39.240  19.072   9.155
 8320POPC   GL136673  39.279  19.040   8.855
 8320POPC   GL236674  39.186  19.180   8.855
 8320POPC   C1A36675  39.224  19.032   8.555
 8320POPC   D2A36676  39.185  19.029   8.255
 8320POPC   C3A36677  39.223  19.052   7.955
 8320POPC   C4A36678  39.221  19.037   7.655
 8320POPC   C1B36679  39.284  19.351   8.555
 8320POPC   C2B36680  39.212  19.315   8.255
 8320POPC   C3B36681  39.268  19.295   7.955
 8320POPC   C4B36682  39.201  19.283   7.655
 8321POPC   NC336683   5.063  12.050   9.455
 8321POPC   PO436684   5.080  12.111   9.155
 8321POPC   GL136685   5.068  12.083   8.855
 8321POPC   GL236686   5.066  12.142   8.855
 8321POPC   C1A36687   5.114  12.049   8.555
 8321POPC   D2A36688   5.135  12.107   8.255
 8321POPC   C3A36689   5.124  12.058   7.955
 8321POPC   C4A36690   5.074  12.092   7.655
 8321POPC   C1B36691   5.030  12.328   8.555
 8321POPC   C2B36692   4.997  12.341   8.255
 8321POPC   C3B36693   4.988  12.311   7.955
 8321POPC   C4B36694   4.974  12.283   7.655
 8322POPC   NC336695  33.762  35.380   9.455
 8322POPC   PO436696  33.831  35.369   9.155
 8322POPC   GL136697  33.786  35.358   8.855
 8322POPC   GL236698  33.872  35.289   8.855
 8322POPC   C1A36699  33.753  35.335   8.555
 8322POPC   D2A36700  33.849  35.309   8.255
 8322POPC   C3A36701  33.781  35.344   7.955
 8322POPC   C4A36702  33.841  35.369   7.655
 8322POPC   C1B36703  33.977  35.191   8.555
 8322POPC   C2B36704  33.962  35.140   8.255
 8322POPC   C3B36705  33.939  35.201   7.955
 8322POPC   C4B36706  33.980  35.211   7.655
 8323POPC   NC336707   9.777   3.541   9.455
 8323POPC   PO436708   9.764   3.553   9.155
 8323POPC   GL136709   9.782   3.547   8.855
 8323POPC   GL236710   9.682   3.371   8.855
 8323POPC   C1A36711   9.717   3.503   8.555
 8323POPC   D2A36712   9.764   3.509   8.255
 8323POPC   C3A36713   9.755   3.522   7.955
 8323POPC   C4A36714   9.736   3.552   7.655
 8323POPC   C1B36715   9.724   3.259   8.555
 8323POPC   C2B36716   9.750   3.248   8.255
 8323POPC   C3B36717   9.653   3.262   7.955
 8323POPC   C4B36718   9.700   3.289   7.655
 8324POPC   NC336719  19.819  36.929   9.455
 8324POPC   PO436720  19.866  36.860   9.155
 8324POPC   GL136721  19.876  36.879   8.855
 8324POPC   GL236722  19.881  36.962   8.855
 8324POPC   C1A36723  19.805  36.870   8.555
 8324POPC   D2A36724  19.855  36.897   8.255
 8324POPC   C3A36725  19.842  36.920   7.955
 8324POPC   C4A36726  19.826  36.860   7.655
 8324POPC   C1B36727  20.044  37.090   8.555
 8324POPC   C2B36728  19.974  37.080   8.255
 8324POPC   C3B36729  20.040  37.089   7.955
 8324POPC   C4B36730  20.058  37.073   7.655
 8325POPC   NC336731   3.513   5.887   9.455
 8325POPC   PO436732   3.528   5.865   9.155
 8325POPC   GL136733   3.581   5.841   8.855
 8325POPC   GL236734   3.616   5.781   8.855
 8325POPC   C1A36735   3.526   5.862   8.555
 8325POPC   D2A36736   3.504   5.866   8.255
 8325POPC   C3A36737   3.564   5.853   7.955
 8325POPC   C4A36738   3.513   5.858   7.655
 8325POPC   C1B36739   3.647   5.600   8.555
 8325POPC   C2B36740   3.632   5.630   8.255
 8325POPC   C3B36741   3.688   5.614   7.955
 8325POPC   C4B36742   3.641   5.667   7.655
 8326POPC   NC336743  32.288  21.369   9.455
 8326POPC   PO436744  32.278  21.391   9.155
 8326POPC   GL136745  32.240  21.401   8.855
 8326POPC   GL236746  32.115  21.263   8.855
 8326POPC   C1A36747  32.229  21.434   8.555
 8326POPC   D2A36748  32.293  21.373   8.255
 8326POPC   C3A36749  32.296  21.398   7.955
 8326POPC   C4A36750  32.282  21.388   7.655
 8326POPC   C1B36751  32.091  21.229   8.555
 8326POPC   C2B36752  32.100  21.167   8.255
 8326POPC   C3B36753  32.026  21.204   7.955
 8326POPC   C4B36754  32.086  21.216   7.655
 8327POPC   NC336755  19.081  11.290   9.455
 8327POPC   PO436756  19.093  11.253   9.155
 8327POPC   GL136757  19.052  11.306   8.855
 8327POPC   GL236758  18.952  11.232   8.855
 8327POPC   C1A36759  19.092  11.342   8.555
 8327POPC   D2A36760  19.049  11.269   8.255
 8327POPC   C3A36761  19.071  11.340   7.955
 8327POPC   C4A36762  19.093  11.252   7.655
 8327POPC   C1B36763  18.878  11.085   8.555
 8327POPC   C2B36764  18.936  11.119   8.255
 8327POPC   C3B36765  18.868  11.106   7.955
 8327POPC   C4B36766  18.948  11.140   7.655
 8328POPC   NC336767  41.570  29.117   9.455
 8328POPC   PO436768  41.608  29.112   9.155
 8328POPC   GL136769  41.565  29.126   8.855
 8328POPC   GL236770  41.497  29.044   8.855
 8328POPC   C1A36771  41.587  29.187   8.555
 8328POPC   D2A36772  41.529  29.099   8.255
 8328POPC   C3A36773  41.591  29.190   7.955
 8328POPC   C4A36774  41.526  29.131   7.655
 8328POPC   C1B36775  41.463  28.908   8.555
 8328POPC   C2B36776  41.477  28.905   8.255
 8328POPC   C3B36777  41.454  28.943   7.955
 8328POPC   C4B36778  41.514  28.924   7.655
 8329POPC   NC336779  40.751  21.342   9.455
 8329POPC   PO436780  40.734  21.424   9.155
 8329POPC   GL136781  40.767  21.387   8.855
 8329POPC   GL236782  40.705  21.496   8.855
 8329POPC   C1A36783  40.779  21.389   8.555
 8329POPC   D2A36784  40.790  21.358   8.255
 8329POPC   C3A36785  40.831  21.420   7.955
 8329POPC   C4A36786  40.768  21.401   7.655
 8329POPC   C1B36787  40.758  21.598   8.555
 8329POPC   C2B36788  40.694  21.592   8.255
 8329POPC   C3B36789  40.742  21.608   7.955
 8329POPC   C4B36790  40.683  21.672   7.655
 8330POPC   NC336791  14.403  42.330   9.455
 8330POPC   PO436792  14.427  42.360   9.155
 8330POPC   GL136793  14.417  42.316   8.855
 8330POPC   GL236794  14.312  42.414   8.855
 8330POPC   C1A36795  14.370  42.347   8.555
 8330POPC   D2A36796  14.373  42.328   8.255
 8330POPC   C3A36797  14.373  42.348   7.955
 8330POPC   C4A36798  14.385  42.371   7.655
 8330POPC   C1B36799  14.214  42.458   8.555
 8330POPC   C2B36800  14.202  42.434   8.255
 8330POPC   C3B36801  14.183  42.378   7.955
 8330POPC   C4B36802  14.152  42.379   7.655
 8331POPC   NC336803  14.376  32.246   9.455
 8331POPC   PO436804  14.410  32.253   9.155
 8331POPC   GL136805  14.432  32.270   8.855
 8331POPC   GL236806  14.405  32.357   8.855
 8331POPC   C1A36807  14.389  32.275   8.555
 8331POPC   D2A36808  14.412  32.223   8.255
 8331POPC   C3A36809  14.355  32.209   7.955
 8331POPC   C4A36810  14.434  32.272   7.655
 8331POPC   C1B36811  14.306  32.437   8.555
 8331POPC   C2B36812  14.323  32.478   8.255
 8331POPC   C3B36813  14.356  32.469   7.955
 8331POPC   C4B36814  14.339  32.528   7.655
 8332POPC   NC336815  39.277  31.435   9.455
 8332POPC   PO436816  39.185  31.451   9.155
 8332POPC   GL136817  39.183  31.511   8.855
 8332POPC   GL236818  39.130  31.367   8.855
 8332POPC   C1A36819  39.219  31.429   8.555
 8332POPC   D2A36820  39.221  31.489   8.255
 8332POPC   C3A36821  39.272  31.447   7.955
 8332POPC   C4A36822  39.211  31.517   7.655
 8332POPC   C1B36823  39.101  31.277   8.555
 8332POPC   C2B36824  39.030  31.279   8.255
 8332POPC   C3B36825  39.082  31.228   7.955
 8332POPC   C4B36826  39.053  31.311   7.655
 8333POPC   NC336827  29.165   0.478   9.455
 8333POPC   PO436828  29.172   0.483   9.155
 8333POPC   GL136829  29.158   0.452   8.855
 8333POPC   GL236830  29.241   0.434   8.855
 8333POPC   C1A36831  29.133   0.396   8.555
 8333POPC   D2A36832  29.096   0.395   8.255
 8333POPC   C3A36833  29.117   0.463   7.955
 8333POPC   C4A36834  29.101   0.403   7.655
 8333POPC   C1B36835  29.380   0.416   8.555
 8333POPC   C2B36836  29.350   0.422   8.255
 8333POPC   C3B36837  29.432   0.364   7.955
 8333POPC   C4B36838  29.406   0.456   7.655
 8334POPC   NC336839  15.952  34.623   9.455
 8334POPC   PO436840  15.971  34.618   9.155
 8334POPC   GL136841  16.003  34.560   8.855
 8334POPC   GL236842  15.963  34.463   8.855
 8334POPC   C1A36843  15.920  34.581   8.555
 8334POPC   D2A36844  15.978  34.540   8.255
 8334POPC   C3A36845  15.948  34.558   7.955
 8334POPC   C4A36846  15.965  34.608   7.655
 8334POPC   C1B36847  15.908  34.307   8.555
 8334POPC   C2B36848  15.942  34.283   8.255
 8334POPC   C3B36849  15.858  34.360   7.955
 8334POPC   C4B36850  15.853  34.365   7.655
 8335POPC   NC336851  41.513  39.280   9.455
 8335POPC   PO436852  41.577  39.265   9.155
 8335POPC   GL136853  41.539  39.275   8.855
 8335POPC   GL236854  41.702  39.153   8.855
 8335POPC   C1A36855  41.519  39.223   8.555
 8335POPC   D2A36856  41.603  39.184   8.255
 8335POPC   C3A36857  41.555  39.247   7.955
 8335POPC   C4A36858  41.516  39.188   7.655
 8335POPC   C1B36859  41.764  39.139   8.555
 8335POPC   C2B36860  41.744  39.142   8.255
 8335POPC   C3B36861  41.783  39.176   7.955
 8335POPC   C4B36862  41.748  39.120   7.655
 8336POPC   NC336863  19.099   7.443   9.455
 8336POPC   PO436864  19.011   7.372   9.155
 8336POPC   GL136865  19.062   7.455   8.855
 8336POPC   GL236866  18.996   7.300   8.855
 8336POPC   C1A36867  19.029   7.461   8.555
 8336POPC   D2A36868  19.100   7.372   8.255
 8336POPC   C3A36869  19.040   7.377   7.955
 8336POPC   C4A36870  19.034   7.388   7.655
 8336POPC   C1B36871  18.927   7.212   8.555
 8336POPC   C2B36872  18.918   7.223   8.255
 8336POPC   C3B36873  18.947   7.202   7.955
 8336POPC   C4B36874  18.922   7.219   7.655
 8337POPC   NC336875   4.289  29.180   9.455
 8337POPC   PO436876   4.290  29.190   9.155
 8337POPC   GL136877   4.331  29.168   8.855
 8337POPC   GL236878   4.357  29.286   8.855
 8337POPC   C1A36879   4.325  29.104   8.555
 8337POPC   D2A36880   4.345  29.139   8.255
 8337POPC   C3A36881   4.350  29.156   7.955
 8337POPC   C4A36882   4.344  29.170   7.655
 8337POPC   C1B36883   4.375  29.352   8.555
 8337POPC   C2B36884   4.372  29.400   8.255
 8337POPC   C3B36885   4.328  29.430   7.955
 8337POPC   C4B36886   4.294  29.407   7.655
 8338POPC   NC336887  16.742   9.792   9.455
 8338POPC   PO436888  16.749   9.747   9.155
 8338POPC   GL136889  16.749   9.723   8.855
 8338POPC   GL236890  16.816   9.812   8.855
 8338POPC   C1A36891  16.769   9.771   8.555
 8338POPC   D2A36892  16.712   9.727   8.255
 8338POPC   C3A36893  16.779   9.765   7.955
 8338POPC   C4A36894  16.776   9.785   7.655
 8338POPC   C1B36895  16.953   9.785   8.555
 8338POPC   C2B36896  16.984   9.855   8.255
 8338POPC   C3B36897  17.010   9.777   7.955
 8338POPC   C4B36898  16.946   9.849   7.655
 8339POPC   NC336899  17.528  31.444   9.455
 8339POPC   PO436900  17.482  31.488   9.155
 8339POPC   GL136901  17.514  31.429   8.855
 8339POPC   GL236902  17.539  31.368   8.855
 8339POPC   C1A36903  17.476  31.503   8.555
 8339POPC   D2A36904  17.479  31.434   8.255
 8339POPC   C3A36905  17.485  31.437   7.955
 8339POPC   C4A36906  17.468  31.452   7.655
 8339POPC   C1B36907  17.434  31.203   8.555
 8339POPC   C2B36908  17.479  31.202   8.255
 8339POPC   C3B36909  17.507  31.242   7.955
 8339POPC   C4B36910  17.457  31.202   7.655
 8340POPC   NC336911  30.699  20.656   9.455
 8340POPC   PO436912  30.744  20.569   9.155
 8340POPC   GL136913  30.692  20.626   8.855
 8340POPC   GL236914  30.831  20.513   8.855
 8340POPC   C1A36915  30.670  20.595   8.555
 8340POPC   D2A36916  30.662  20.571   8.255
 8340POPC   C3A36917  30.720  20.574   7.955
 8340POPC   C4A36918  30.656  20.629   7.655
 8340POPC   C1B36919  30.906  20.460   8.555
 8340POPC   C2B36920  30.820  20.475   8.255
 8340POPC   C3B36921  30.841  20.418   7.955
 8340POPC   C4B36922  30.885  20.444   7.655
 8341POPC   NC336923  29.169  14.369   9.455
 8341POPC   PO436924  29.184  14.397   9.155
 8341POPC   GL136925  29.098  14.365   8.855
 8341POPC   GL236926  29.024  14.400   8.855
 8341POPC   C1A36927  29.122  14.360   8.555
 8341POPC   D2A36928  29.177  14.375   8.255
 8341POPC   C3A36929  29.138  14.360   7.955
 8341POPC   C4A36930  29.186  14.384   7.655
 8341POPC   C1B36931  28.889  14.405   8.555
 8341POPC   C2B36932  28.908  14.352   8.255
 8341POPC   C3B36933  28.886  14.403   7.955
 8341POPC   C4B36934  28.855  14.323   7.655
 8342POPC   NC336935  28.320  42.374   9.455
 8342POPC   PO436936  28.378  42.306   9.155
 8342POPC   GL136937  28.407  42.336   8.855
 8342POPC   GL236938  28.371  42.184   8.855
 8342POPC   C1A36939  28.391  42.329   8.555
 8342POPC   D2A36940  28.402  42.346   8.255
 8342POPC   C3A36941  28.396  42.339   7.955
 8342POPC   C4A36942  28.380  42.376   7.655
 8342POPC   C1B36943  28.505  42.057   8.555
 8342POPC   C2B36944  28.496  42.123   8.255
 8342POPC   C3B36945  28.477  42.073   7.955
 8342POPC   C4B36946  28.443  42.084   7.655
 8343POPC   NC336947  22.194  29.159   9.455
 8343POPC   PO436948  22.196  29.109   9.155
 8343POPC   GL136949  22.147  29.101   8.855
 8343POPC   GL236950  22.273  29.089   8.855
 8343POPC   C1A36951  22.184  29.183   8.555
 8343POPC   D2A36952  22.150  29.095   8.255
 8343POPC   C3A36953  22.199  29.136   7.955
 8343POPC   C4A36954  22.201  29.163   7.655
 8343POPC   C1B36955  22.345  29.031   8.555
 8343POPC   C2B36956  22.370  28.951   8.255
 8343POPC   C3B36957  22.322  29.035   7.955
 8343POPC   C4B36958  22.325  29.029   7.655
 8344POPC   NC336959  23.694  23.749   9.455
 8344POPC   PO436960  23.703  23.716   9.155
 8344POPC   GL136961  23.745  23.707   8.855
 8344POPC   GL236962  23.656  23.586   8.855
 8344POPC   C1A36963  23.672  23.705   8.555
 8344POPC   D2A36964  23.756  23.673   8.255
 8344POPC   C3A36965  23.734  23.739   7.955
 8344POPC   C4A36966  23.706  23.762   7.655
 8344POPC   C1B36967  23.563  23.462   8.555
 8344POPC   C2B36968  23.573  23.473   8.255
 8344POPC   C3B36969  23.635  23.501   7.955
 8344POPC   C4B36970  23.629  23.484   7.655
 8345POPC   NC336971   4.320  37.682   9.455
 8345POPC   PO436972   4.336  37.656   9.155
 8345POPC   GL136973   4.350  37.631   8.855
 8345POPC   GL236974   4.474  37.728   8.855
 8345POPC   C1A36975   4.286  37.631   8.555
 8345POPC   D2A36976   4.280  37.688   8.255
 8345POPC   C3A36977   4.354  37.718   7.955
 8345POPC   C4A36978   4.313  37.635   7.655
 8345POPC   C1B36979   4.576  37.805   8.555
 8345POPC   C2B36980   4.508  37.797   8.255
 8345POPC   C3B36981   4.558  37.804   7.955
 8345POPC   C4B36982   4.498  37.835   7.655
 8346POPC   NC336983  19.836  24.526   9.455
 8346POPC   PO436984  19.855  24.453   9.155
 8346POPC   GL136985  19.830  24.523   8.855
 8346POPC   GL236986  19.957  24.572   8.855
 8346POPC   C1A36987  19.855  24.519   8.555
 8346POPC   D2A36988  19.809  24.506   8.255
 8346POPC   C3A36989  19.857  24.529   7.955
 8346POPC   C4A36990  19.806  24.518   7.655
 8346POPC   C1B36991  20.070  24.597   8.555
 8346POPC   C2B36992  20.080  24.533   8.255
 8346POPC   C3B36993  20.023  24.546   7.955
 8346POPC   C4B36994  20.087  24.558   7.655
 8347POPC   NC336995  33.782   9.017   9.455
 8347POPC   PO436996  33.800   9.008   9.155
 8347POPC   GL136997  33.782   9.010   8.855
 8347POPC   GL236998  33.905   8.863   8.855
 8347POPC   C1A36999  33.845   8.925   8.555
 8347POPC   D2A37000  33.846   8.981   8.255
 8347POPC   C3A37001  33.776   8.967   7.955
 8347POPC   C4A37002  33.776   8.960   7.655
 8347POPC   C1B37003  33.976   8.811   8.555
 8347POPC   C2B37004  33.979   8.851   8.255
 8347POPC   C3B37005  33.992   8.872   7.955
 8347POPC   C4B37006  34.028   8.882   7.655
 8348POPC   NC337007   5.124  29.097   9.455
 8348POPC   PO437008   5.114  29.148   9.155
 8348POPC   GL137009   5.084  29.095   8.855
 8348POPC   GL237010   5.230  29.136   8.855
 8348POPC   C1A37011   5.114  29.101   8.555
 8348POPC   D2A37012   5.112  29.137   8.255
 8348POPC   C3A37013   5.060  29.100   7.955
 8348POPC   C4A37014   5.105  29.170   7.655
 8348POPC   C1B37015   5.355  29.035   8.555
 8348POPC   C2B37016   5.319  29.036   8.255
 8348POPC   C3B37017   5.369  29.052   7.955
 8348POPC   C4B37018   5.305  29.048   7.655
 8349POPC   NC337019  43.900  20.644   9.455
 8349POPC   PO437020  43.846  20.566   9.155
 8349POPC   GL137021  43.929  20.571   8.855
 8349POPC   GL237022  43.834  20.526   8.855
 8349POPC   C1A37023  43.843  20.574   8.555
 8349POPC   D2A37024  43.912  20.640   8.255
 8349POPC   C3A37025  43.905  20.645   7.955
 8349POPC   C4A37026  43.865  20.624   7.655
 8349POPC   C1B37027  43.851  20.342   8.555
 8349POPC   C2B37028  43.828  20.374   8.255
 8349POPC   C3B37029  43.866  20.354   7.955
 8349POPC   C4B37030  43.847  20.339   7.655
 8350POPC   NC337031  43.076  28.383   9.455
 8350POPC   PO437032  43.094  28.407   9.155
 8350POPC   GL137033  43.112  28.388   8.855
 8350POPC   GL237034  43.173  28.507   8.855
 8350POPC   C1A37035  43.091  28.370   8.555
 8350POPC   D2A37036  43.134  28.414   8.255
 8350POPC   C3A37037  43.093  28.322   7.955
 8350POPC   C4A37038  43.079  28.323   7.655
 8350POPC   C1B37039  43.177  28.575   8.555
 8350POPC   C2B37040  43.211  28.651   8.255
 8350POPC   C3B37041  43.184  28.597   7.955
 8350POPC   C4B37042  43.192  28.589   7.655
 8351POPC   NC337043  28.371   3.532   9.455
 8351POPC   PO437044  28.406   3.552   9.155
 8351POPC   GL137045  28.363   3.564   8.855
 8351POPC   GL237046  28.231   3.527   8.855
 8351POPC   C1A37047  28.384   3.524   8.555
 8351POPC   D2A37048  28.378   3.497   8.255
 8351POPC   C3A37049  28.407   3.537   7.955
 8351POPC   C4A37050  28.386   3.526   7.655
 8351POPC   C1B37051  28.162   3.514   8.555
 8351POPC   C2B37052  28.081   3.448   8.255
 8351POPC   C3B37053  28.120   3.505   7.955
 8351POPC   C4B37054  28.151   3.493   7.655
 8352POPC   NC337055  29.098  29.158   9.455
 8352POPC   PO437056  29.147  29.101   9.155
 8352POPC   GL137057  29.097  29.096   8.855
 8352POPC   GL237058  29.013  29.132   8.855
 8352POPC   C1A37059  29.148  29.147   8.555
 8352POPC   D2A37060  29.183  29.114   8.255
 8352POPC   C3A37061  29.143  29.134   7.955
 8352POPC   C4A37062  29.175  29.164   7.655
 8352POPC   C1B37063  28.869  29.099   8.555
 8352POPC   C2B37064  28.900  29.063   8.255
 8352POPC   C3B37065  28.885  29.083   7.955
 8352POPC   C4B37066  28.893  29.033   7.655
 8353POPC   NC337067  28.372  14.449   9.455
 8353POPC   PO437068  28.329  14.400   9.155
 8353POPC   GL137069  28.350  14.361   8.855
 8353POPC   GL237070  28.389  14.314   8.855
 8353POPC   C1A37071  28.333  14.431   8.555
 8353POPC   D2A37072  28.396  14.363   8.255
 8353POPC   C3A37073  28.371  14.424   7.955
 8353POPC   C4A37074  28.345  14.446   7.655
 8353POPC   C1B37075  28.460  14.151   8.555
 8353POPC   C2B37076  28.444  14.156   8.255
 8353POPC   C3B37077  28.514  14.196   7.955
 8353POPC   C4B37078  28.463  14.157   7.655
 8354POPC   NC337079   1.941  21.407   9.455
 8354POPC   PO437080   2.006  21.385   9.155
 8354POPC   GL137081   1.946  21.411   8.855
 8354POPC   GL237082   1.935  21.521   8.855
 8354POPC   C1A37083   2.031  21.342   8.555
 8354POPC   D2A37084   1.956  21.425   8.255
 8354POPC   C3A37085   1.984  21.375   7.955
 8354POPC   C4A37086   2.008  21.425   7.655
 8354POPC   C1B37087   1.926  21.616   8.555
 8354POPC   C2B37088   2.014  21.593   8.255
 8354POPC   C3B37089   1.997  21.592   7.955
 8354POPC   C4B37090   2.013  21.633   7.655
 8355POPC   NC337091  15.133   0.459   9.455
 8355POPC   PO437092  15.164   0.418   9.155
 8355POPC   GL137093  15.163   0.455   8.855
 8355POPC   GL237094  15.036   0.436   8.855
 8355POPC   C1A37095  15.149   0.403   8.555
 8355POPC   D2A37096  15.194   0.427   8.255
 8355POPC   C3A37097  15.144   0.402   7.955
 8355POPC   C4A37098  15.229   0.434   7.655
 8355POPC   C1B37099  14.965   0.379   8.555
 8355POPC   C2B37100  14.907   0.382   8.255
 8355POPC   C3B37101  14.950   0.386   7.955
 8355POPC   C4B37102  14.891   0.359   7.655
 8356POPC   NC337103  29.101   2.739   9.455
 8356POPC   PO437104  29.175   2.767   9.155
 8356POPC   GL137105  29.158   2.733   8.855
 8356POPC   GL237106  29.273   2.710   8.855
 8356POPC   C1A37107  29.182   2.787   8.555
 8356POPC   D2A37108  29.127   2.717   8.255
 8356POPC   C3A37109  29.155   2.740   7.955
 8356POPC   C4A37110  29.126   2.794   7.655
 8356POPC   C1B37111  29.305   2.571   8.555
 8356POPC   C2B37112  29.308   2.659   8.255
 8356POPC   C3B37113  29.368   2.567   7.955
 8356POPC   C4B37114  29.342   2.567   7.655
 8357POPC   NC337115  24.507  24.531   9.455
 8357POPC   PO437116  24.504  24.470   9.155
 8357POPC   GL137117  24.533  24.534   8.855
 8357POPC   GL237118  24.567  24.405   8.855
 8357POPC   C1A37119  24.444  24.525   8.555
 8357POPC   D2A37120  24.535  24.539   8.255
 8357POPC   C3A37121  24.492  24.468   7.955
 8357POPC   C4A37122  24.457  24.514   7.655
 8357POPC   C1B37123  24.678  24.359   8.555
 8357POPC   C2B37124  24.766  24.433   8.255
 8357POPC   C3B37125  24.697  24.343   7.955
 8357POPC   C4B37126  24.749  24.395   7.655
 8358POPC   NC337127  15.207  35.310   9.455
 8358POPC   PO437128  15.197  35.371   9.155
 8358POPC   GL137129  15.136  35.387   8.855
 8358POPC   GL237130  15.070  35.347   8.855
 8358POPC   C1A37131  15.132  35.365   8.555
 8358POPC   D2A37132  15.194  35.322   8.255
 8358POPC   C3A37133  15.204  35.345   7.955
 8358POPC   C4A37134  15.148  35.385   7.655
 8358POPC   C1B37135  14.930  35.387   8.555
 8358POPC   C2B37136  14.964  35.368   8.255
 8358POPC   C3B37137  14.962  35.307   7.955
 8358POPC   C4B37138  14.889  35.342   7.655
 8359POPC   NC337139  38.504  40.771   9.455
 8359POPC   PO437140  38.487  40.786   9.155
 8359POPC   GL137141  38.503  40.745   8.855
 8359POPC   GL237142  38.327  40.760   8.855
 8359POPC   C1A37143  38.439  40.830   8.555
 8359POPC   D2A37144  38.458  40.733   8.255
 8359POPC   C3A37145  38.472  40.772   7.955
 8359POPC   C4A37146  38.501  40.750   7.655
 8359POPC   C1B37147  38.225  40.668   8.555
 8359POPC   C2B37148  38.198  40.644   8.255
 8359POPC   C3B37149  38.198  40.705   7.955
 8359POPC   C4B37150  38.286  40.641   7.655
 8360POPC   NC337151   2.774  37.658   9.455
 8360POPC   PO437152   2.810  37.671   9.155
 8360POPC   GL137153   2.749  37.661   8.855
 8360POPC   GL237154   2.717  37.785   8.855
 8360POPC   C1A37155   2.812  37.639   8.555
 8360POPC   D2A37156   2.737  37.666   8.255
 8360POPC   C3A37157   2.813  37.667   7.955
 8360POPC   C4A37158   2.784  37.713   7.655
 8360POPC   C1B37159   2.721  37.910   8.555
 8360POPC   C2B37160   2.725  37.922   8.255
 8360POPC   C3B37161   2.684  37.882   7.955
 8360POPC   C4B37162   2.657  37.934   7.655
 8361POPC   NC337163  39.232  17.546   9.455
 8361POPC   PO437164  39.232  17.461   9.155
 8361POPC   GL137165  39.209  17.481   8.855
 8361POPC   GL237166  39.227  17.627   8.855
 8361POPC   C1A37167  39.276  17.483   8.555
 8361POPC   D2A37168  39.240  17.510   8.255
 8361POPC   C3A37169  39.197  17.473   7.955
 8361POPC   C4A37170  39.229  17.524   7.655
 8361POPC   C1B37171  39.253  17.763   8.555
 8361POPC   C2B37172  39.273  17.774   8.255
 8361POPC   C3B37173  39.271  17.719   7.955
 8361POPC   C4B37174  39.243  17.789   7.655
 8362POPC   NC337175   0.483  39.959   9.455
 8362POPC   PO437176   0.414  40.024   9.155
 8362POPC   GL137177   0.477  40.016   8.855
 8362POPC   GL237178   0.583  40.073   8.855
 8362POPC   C1A37179   0.406  40.049   8.555
 8362POPC   D2A37180   0.450  39.959   8.255
 8362POPC   C3A37181   0.416  40.025   7.955
 8362POPC   C4A37182   0.467  40.016   7.655
 8362POPC   C1B37183   0.714  40.144   8.555
 8362POPC   C2B37184   0.630  40.076   8.255
 8362POPC   C3B37185   0.647  40.069   7.955
 8362POPC   C4B37186   0.698  40.135   7.655
 8363POPC   NC337187  15.921  29.900   9.455
 8363POPC   PO437188  16.004  29.946   9.155
 8363POPC   GL137189  15.983  29.897   8.855
 8363POPC   GL237190  15.860  29.915   8.855
 8363POPC   C1A37191  15.944  29.931   8.555
 8363POPC   D2A37192  15.934  29.897   8.255
 8363POPC   C3A37193  15.928  29.916   7.955
 8363POPC   C4A37194  15.951  29.880   7.655
 8363POPC   C1B37195  15.740  29.839   8.555
 8363POPC   C2B37196  15.698  29.816   8.255
 8363POPC   C3B37197  15.712  29.907   7.955
 8363POPC   C4B37198  15.699  29.865   7.655
 8364POPC   NC337199  25.271  27.556   9.455
 8364POPC   PO437200  25.301  27.631   9.155
 8364POPC   GL137201  25.309  27.632   8.855
 8364POPC   GL237202  25.099  27.643   8.855
 8364POPC   C1A37203  25.229  27.612   8.555
 8364POPC   D2A37204  25.282  27.602   8.255
 8364POPC   C3A37205  25.261  27.561   7.955
 8364POPC   C4A37206  25.303  27.605   7.655
 8364POPC   C1B37207  25.026  27.558   8.555
 8364POPC   C2B37208  25.036  27.564   8.255
 8364POPC   C3B37209  24.993  27.580   7.955
 8364POPC   C4B37210  25.048  27.595   7.655
 8365POPC   NC337211  32.279  20.580   9.455
 8365POPC   PO437212  32.291  20.564   9.155
 8365POPC   GL137213  32.232  20.609   8.855
 8365POPC   GL237214  32.148  20.510   8.855
 8365POPC   C1A37215  32.286  20.629   8.555
 8365POPC   D2A37216  32.240  20.575   8.255
 8365POPC   C3A37217  32.282  20.621   7.955
 8365POPC   C4A37218  32.212  20.631   7.655
 8365POPC   C1B37219  32.042  20.454   8.555
 8365POPC   C2B37220  32.058  20.488   8.255
 8365POPC   C3B37221  32.061  20.514   7.955
 8365POPC   C4B37222  32.069  20.456   7.655
 8366POPC   NC337223  43.129  23.722   9.455
 8366POPC   PO437224  43.143  23.700   9.155
 8366POPC   GL137225  43.067  23.680   8.855
 8366POPC   GL237226  43.250  23.707   8.855
 8366POPC   C1A37227  43.069  23.708   8.555
 8366POPC   D2A37228  43.149  23.698   8.255
 8366POPC   C3A37229  43.111  23.726   7.955
 8366POPC   C4A37230  43.146  23.678   7.655
 8366POPC   C1B37231  43.358  23.609   8.555
 8366POPC   C2B37232  43.308  23.701   8.255
 8366POPC   C3B37233  43.382  23.651   7.955
 8366POPC   C4B37234  43.340  23.634   7.655
 8367POPC   NC337235  11.256  19.102   9.455
 8367POPC   PO437236  11.319  19.085   9.155
 8367POPC   GL137237  11.269  19.025   8.855
 8367POPC   GL237238  11.400  19.197   8.855
 8367POPC   C1A37239  11.287  19.071   8.555
 8367POPC   D2A37240  11.289  19.019   8.255
 8367POPC   C3A37241  11.277  19.097   7.955
 8367POPC   C4A37242  11.316  19.067   7.655
 8367POPC   C1B37243  11.492  19.237   8.555
 8367POPC   C2B37244  11.447  19.283   8.255
 8367POPC   C3B37245  11.478  19.242   7.955
 8367POPC   C4B37246  11.451  19.258   7.655
 8368POPC   NC337247  43.850  18.318   9.455
 8368POPC   PO437248  43.845  18.325   9.155
 8368POPC   GL137249  43.913  18.306   8.855
 8368POPC   GL237250  44.044  18.238   8.855
 8368POPC   C1A37251  43.892  18.260   8.555
 8368POPC   D2A37252  43.931  18.251   8.255
 8368POPC   C3A37253  43.846  18.318   7.955
 8368POPC   C4A37254  43.854  18.308   7.655
 8368POPC   C1B37255  44.125  18.286   8.555
 8368POPC   C2B37256  44.140  18.270   8.255
 8368POPC   C3B37257  44.145  18.243   7.955
 8368POPC   C4B37258  44.185  18.332   7.655
 8369POPC   NC337259  19.024   2.747   9.455
 8369POPC   PO437260  19.034   2.789   9.155
 8369POPC   GL137261  19.095   2.748   8.855
 8369POPC   GL237262  18.938   2.866   8.855
 8369POPC   C1A37263  19.101   2.784   8.555
 8369POPC   D2A37264  19.077   2.774   8.255
 8369POPC   C3A37265  19.104   2.770   7.955
 8369POPC   C4A37266  19.077   2.725   7.655
 8369POPC   C1B37267  18.824   2.918   8.555
 8369POPC   C2B37268  18.834   2.894   8.255
 8369POPC   C3B37269  18.813   2.907   7.955
 8369POPC   C4B37270  18.848   2.914   7.655
 8370POPC   NC337271  30.699  14.385   9.455
 8370POPC   PO437272  30.726  14.404   9.155
 8370POPC   GL137273  30.664  14.388   8.855
 8370POPC   GL237274  30.559  14.338   8.855
 8370POPC   C1A37275  30.652  14.386   8.555
 8370POPC   D2A37276  30.726  14.429   8.255
 8370POPC   C3A37277  30.712  14.390   7.955
 8370POPC   C4A37278  30.720  14.373   7.655
 8370POPC   C1B37279  30.517  14.259   8.555
 8370POPC   C2B37280  30.541  14.216   8.255
 8370POPC   C3B37281  30.488  14.287   7.955
 8370POPC   C4B37282  30.527  14.292   7.655
 8371POPC   NC337283  19.015  26.060   9.455
 8371POPC   PO437284  19.055  25.992   9.155
 8371POPC   GL137285  19.103  25.997   8.855
 8371POPC   GL237286  19.162  25.929   8.855
 8371POPC   C1A37287  19.094  25.999   8.555
 8371POPC   D2A37288  19.091  26.074   8.255
 8371POPC   C3A37289  19.084  26.043   7.955
 8371POPC   C4A37290  19.084  26.008   7.655
 8371POPC   C1B37291  19.156  25.846   8.555
 8371POPC   C2B37292  19.169  25.800   8.255
 8371POPC   C3B37293  19.214  25.864   7.955
 8371POPC   C4B37294  19.175  25.780   7.655
 8372POPC   NC337295  28.348   9.007   9.455
 8372POPC   PO437296  28.334   8.995   9.155
 8372POPC   GL137297  28.404   9.013   8.855
 8372POPC   GL237298  28.256   9.088   8.855
 8372POPC   C1A37299  28.329   8.997   8.555
 8372POPC   D2A37300  28.392   8.999   8.255
 8372POPC   C3A37301  28.356   8.987   7.955
 8372POPC   C4A37302  28.364   9.021   7.655
 8372POPC   C1B37303  28.181   9.207   8.555
 8372POPC   C2B37304  28.183   9.158   8.255
 8372POPC   C3B37305  28.212   9.212   7.955
 8372POPC   C4B37306  28.214   9.113   7.655
 8373POPC   NC337307  29.951   5.835   9.455
 8373POPC   PO437308  29.926   5.826   9.155
 8373POPC   GL137309  29.962   5.859   8.855
 8373POPC   GL237310  29.777   5.846   8.855
 8373POPC   C1A37311  29.893   5.831   8.555
 8373POPC   D2A37312  29.881   5.820   8.255
 8373POPC   C3A37313  29.874   5.906   7.955
 8373POPC   C4A37314  29.947   5.841   7.655
 8373POPC   C1B37315  29.659   5.768   8.555
 8373POPC   C2B37316  29.700   5.849   8.255
 8373POPC   C3B37317  29.724   5.763   7.955
 8373POPC   C4B37318  29.678   5.798   7.655
 8374POPC   NC337319   5.881  43.151   9.455
 8374POPC   PO437320   5.876  43.061   9.155
 8374POPC   GL137321   5.866  43.129   8.855
 8374POPC   GL237322   5.877  43.203   8.855
 8374POPC   C1A37323   5.905  43.146   8.555
 8374POPC   D2A37324   5.909  43.155   8.255
 8374POPC   C3A37325   5.867  43.080   7.955
 8374POPC   C4A37326   5.915  43.072   7.655
 8374POPC   C1B37327   5.948  43.353   8.555
 8374POPC   C2B37328   5.950  43.392   8.255
 8374POPC   C3B37329   5.999  43.337   7.955
 8374POPC   C4B37330   5.954  43.315   7.655
 8375POPC   NC337331  43.143  26.847   9.455
 8375POPC   PO437332  43.118  26.864   9.155
 8375POPC   GL137333  43.091  26.834   8.855
 8375POPC   GL237334  43.007  26.711   8.855
 8375POPC   C1A37335  43.108  26.784   8.555
 8375POPC   D2A37336  43.138  26.840   8.255
 8375POPC   C3A37337  43.069  26.795   7.955
 8375POPC   C4A37338  43.087  26.831   7.655
 8375POPC   C1B37339  42.985  26.630   8.555
 8375POPC   C2B37340  42.937  26.658   8.255
 8375POPC   C3B37341  42.998  26.567   7.955
 8375POPC   C4B37342  42.991  26.589   7.655
 8376POPC   NC337343  22.938  26.851   9.455
 8376POPC   PO437344  22.899  26.834   9.155
 8376POPC   GL137345  22.906  26.818   8.855
 8376POPC   GL237346  22.849  26.862   8.855
 8376POPC   C1A37347  22.906  26.820   8.555
 8376POPC   D2A37348  22.925  26.813   8.255
 8376POPC   C3A37349  22.889  26.817   7.955
 8376POPC   C4A37350  22.940  26.856   7.655
 8376POPC   C1B37351  22.734  26.925   8.555
 8376POPC   C2B37352  22.721  26.879   8.255
 8376POPC   C3B37353  22.727  26.939   7.955
 8376POPC   C4B37354  22.742  26.911   7.655
 8377POPC   NC337355  29.155   3.501   9.455
 8377POPC   PO437356  29.190   3.516   9.155
 8377POPC   GL137357  29.167   3.549   8.855
 8377POPC   GL237358  29.055   3.584   8.855
 8377POPC   C1A37359  29.177   3.518   8.555
 8377POPC   D2A37360  29.110   3.571   8.255
 8377POPC   C3A37361  29.133   3.586   7.955
 8377POPC   C4A37362  29.144   3.544   7.655
 8377POPC   C1B37363  28.941   3.631   8.555
 8377POPC   C2B37364  28.946   3.659   8.255
 8377POPC   C3B37365  28.873   3.639   7.955
 8377POPC   C4B37366  28.913   3.667   7.655
 8378POPC   NC337367  19.804  31.473   9.455
 8378POPC   PO437368  19.791  31.480   9.155
 8378POPC   GL137369  19.842  31.501   8.855
 8378POPC   GL237370  19.887  31.358   8.855
 8378POPC   C1A37371  19.845  31.507   8.555
 8378POPC   D2A37372  19.865  31.518   8.255
 8378POPC   C3A37373  19.822  31.423   7.955
 8378POPC   C4A37374  19.879  31.456   7.655
 8378POPC   C1B37375  19.998  31.243   8.555
 8378POPC   C2B37376  19.978  31.292   8.255
 8378POPC   C3B37377  20.006  31.271   7.955
 8378POPC   C4B37378  20.045  31.244   7.655
 8379POPC   NC337379   8.970  29.919   9.455
 8379POPC   PO437380   8.931  29.933   9.155
 8379POPC   GL137381   8.980  29.929   8.855
 8379POPC   GL237382   8.811  29.904   8.855
 8379POPC   C1A37383   9.004  29.937   8.555
 8379POPC   D2A37384   9.017  29.943   8.255
 8379POPC   C3A37385   8.942  29.925   7.955
 8379POPC   C4A37386   8.934  29.915   7.655
 8379POPC   C1B37387   8.739  29.881   8.555
 8379POPC   C2B37388   8.705  29.959   8.255
 8379POPC   C3B37389   8.710  29.922   7.955
 8379POPC   C4B37390   8.727  29.924   7.655
 8380POPC   NC337391  22.915  29.960   9.455
 8380POPC   PO437392  22.976  29.944   9.155
 8380POPC   GL137393  22.966  29.936   8.855
 8380POPC   GL237394  22.813  29.887   8.855
 8380POPC   C1A37395  22.936  29.907   8.555
 8380POPC   D2A37396  22.987  29.913   8.255
 8380POPC   C3A37397  22.982  29.965   7.955
 8380POPC   C4A37398  22.905  29.910   7.655
 8380POPC   C1B37399  22.691  29.798   8.555
 8380POPC   C2B37400  22.714  29.815   8.255
 8380POPC   C3B37401  22.747  29.807   7.955
 8380POPC   C4B37402  22.766  29.811   7.655
 8381POPC   NC337403   7.426  19.103   9.455
 8381POPC   PO437404   7.378  19.084   9.155
 8381POPC   GL137405   7.430  19.045   8.855
 8381POPC   GL237406   7.455  18.958   8.855
 8381POPC   C1A37407   7.375  19.061   8.555
 8381POPC   D2A37408   7.413  19.047   8.255
 8381POPC   C3A37409   7.451  19.030   7.955
 8381POPC   C4A37410   7.418  19.013   7.655
 8381POPC   C1B37411   7.534  18.899   8.555
 8381POPC   C2B37412   7.581  18.845   8.255
 8381POPC   C3B37413   7.576  18.828   7.955
 8381POPC   C4B37414   7.587  18.885   7.655
 8382POPC   NC337415   2.032  15.159   9.455
 8382POPC   PO437416   2.015  15.175   9.155
 8382POPC   GL137417   1.958  15.139   8.855
 8382POPC   GL237418   1.839  15.200   8.855
 8382POPC   C1A37419   1.992  15.165   8.555
 8382POPC   D2A37420   2.004  15.150   8.255
 8382POPC   C3A37421   2.018  15.166   7.955
 8382POPC   C4A37422   1.980  15.166   7.655
 8382POPC   C1B37423   1.735  15.161   8.555
 8382POPC   C2B37424   1.777  15.113   8.255
 8382POPC   C3B37425   1.779  15.185   7.955
 8382POPC   C4B37426   1.707  15.093   7.655
 8383POPC   NC337427   6.684  31.497   9.455
 8383POPC   PO437428   6.602  31.474   9.155
 8383POPC   GL137429   6.656  31.434   8.855
 8383POPC   GL237430   6.781  31.517   8.855
 8383POPC   C1A37431   6.604  31.438   8.555
 8383POPC   D2A37432   6.672  31.518   8.255
 8383POPC   C3A37433   6.650  31.501   7.955
 8383POPC   C4A37434   6.657  31.441   7.655
 8383POPC   C1B37435   6.840  31.486   8.555
 8383POPC   C2B37436   6.857  31.518   8.255
 8383POPC   C3B37437   6.927  31.564   7.955
 8383POPC   C4B37438   6.904  31.518   7.655
 8384POPC   NC337439  31.468   4.359   9.455
 8384POPC   PO437440  31.443   4.364   9.155
 8384POPC   GL137441  31.466   4.314   8.855
 8384POPC   GL237442  31.353   4.219   8.855
 8384POPC   C1A37443  31.510   4.338   8.555
 8384POPC   D2A37444  31.484   4.344   8.255
 8384POPC   C3A37445  31.474   4.306   7.955
 8384POPC   C4A37446  31.466   4.306   7.655
 8384POPC   C1B37447  31.276   4.108   8.555
 8384POPC   C2B37448  31.331   4.151   8.255
 8384POPC   C3B37449  31.277   4.194   7.955
 8384POPC   C4B37450  31.303   4.147   7.655
 8385POPC   NC337451   2.732  21.347   9.455
 8385POPC   PO437452   2.721  21.406   9.155
 8385POPC   GL137453   2.738  21.362   8.855
 8385POPC   GL237454   2.851  21.411   8.855
 8385POPC   C1A37455   2.773  21.401   8.555
 8385POPC   D2A37456   2.799  21.394   8.255
 8385POPC   C3A37457   2.722  21.358   7.955
 8385POPC   C4A37458   2.806  21.397   7.655
 8385POPC   C1B37459   3.052  21.410   8.555
 8385POPC   C2B37460   2.962  21.458   8.255
 8385POPC   C3B37461   3.031  21.419   7.955
 8385POPC   C4B37462   2.978  21.446   7.655
 8386POPC   NC337463   1.955   7.413   9.455
 8386POPC   PO437464   2.038   7.464   9.155
 8386POPC   GL137465   1.947   7.388   8.855
 8386POPC   GL237466   2.029   7.301   8.855
 8386POPC   C1A37467   1.949   7.454   8.555
 8386POPC   D2A37468   1.960   7.431   8.255
 8386POPC   C3A37469   1.966   7.444   7.955
 8386POPC   C4A37470   2.036   7.400   7.655
 8386POPC   C1B37471   2.066   7.169   8.555
 8386POPC   C2B37472   2.009   7.177   8.255
 8386POPC   C3B37473   2.000   7.194   7.955
 8386POPC   C4B37474   2.056   7.222   7.655
 8387POPC   NC337475  26.847  13.611   9.455
 8387POPC   PO437476  26.792  13.670   9.155
 8387POPC   GL137477  26.840  13.586   8.855
 8387POPC   GL237478  26.963  13.586   8.855
 8387POPC   C1A37479  26.779  13.590   8.555
 8387POPC   D2A37480  26.840  13.617   8.255
 8387POPC   C3A37481  26.853  13.629   7.955
 8387POPC   C4A37482  26.848  13.634   7.655
 8387POPC   C1B37483  27.043  13.652   8.555
 8387POPC   C2B37484  27.027  13.625   8.255
 8387POPC   C3B37485  27.022  13.653   7.955
 8387POPC   C4B37486  27.082  13.623   7.655
 8388POPC   NC337487  36.898  34.567   9.455
 8388POPC   PO437488  36.937  34.587   9.155
 8388POPC   GL137489  36.855  34.542   8.855
 8388POPC   GL237490  36.898  34.721   8.855
 8388POPC   C1A37491  36.932  34.582   8.555
 8388POPC   D2A37492  36.925  34.555   8.255
 8388POPC   C3A37493  36.913  34.577   7.955
 8388POPC   C4A37494  36.944  34.531   7.655
 8388POPC   C1B37495  36.944  34.792   8.555
 8388POPC   C2B37496  36.984  34.813   8.255
 8388POPC   C3B37497  36.961  34.796   7.955
 8388POPC   C4B37498  36.930  34.815   7.655
 8389POPC   NC337499  15.947  14.386   9.455
 8389POPC   PO437500  15.999  14.436   9.155
 8389POPC   GL137501  15.960  14.444   8.855
 8389POPC   GL237502  16.084  14.432   8.855
 8389POPC   C1A37503  15.984  14.426   8.555
 8389POPC   D2A37504  15.964  14.447   8.255
 8389POPC   C3A37505  15.960  14.354   7.955
 8389POPC   C4A37506  15.923  14.406   7.655
 8389POPC   C1B37507  16.170  14.495   8.555
 8389POPC   C2B37508  16.233  14.448   8.255
 8389POPC   C3B37509  16.164  14.438   7.955
 8389POPC   C4B37510  16.173  14.439   7.655
 8390POPC   NC337511   5.837   5.917   9.455
 8390POPC   PO437512   5.844   5.825   9.155
 8390POPC   GL137513   5.912   5.865   8.855
 8390POPC   GL237514   5.857   6.034   8.855
 8390POPC   C1A37515   5.834   5.849   8.555
 8390POPC   D2A37516   5.856   5.898   8.255
 8390POPC   C3A37517   5.915   5.824   7.955
 8390POPC   C4A37518   5.859   5.831   7.655
 8390POPC   C1B37519   5.840   6.102   8.555
 8390POPC   C2B37520   5.855   6.158   8.255
 8390POPC   C3B37521   5.837   6.079   7.955
 8390POPC   C4B37522   5.792   6.086   7.655
 8391POPC   NC337523  13.649   1.960   9.455
 8391POPC   PO437524  13.659   2.021   9.155
 8391POPC   GL137525  13.640   1.997   8.855
 8391POPC   GL237526  13.741   1.880   8.855
 8391POPC   C1A37527  13.657   2.013   8.555
 8391POPC   D2A37528  13.622   1.953   8.255
 8391POPC   C3A37529  13.607   2.018   7.955
 8391POPC   C4A37530  13.601   2.004   7.655
 8391POPC   C1B37531  13.849   1.865   8.555
 8391POPC   C2B37532  13.823   1.839   8.255
 8391POPC   C3B37533  13.822   1.804   7.955
 8391POPC   C4B37534  13.872   1.879   7.655
 8392POPC   NC337535   3.564   8.966   9.455
 8392POPC   PO437536   3.588   8.986   9.155
 8392POPC   GL137537   3.498   8.958   8.855
 8392POPC   GL237538   3.626   9.082   8.855
 8392POPC   C1A37539   3.588   8.994   8.555
 8392POPC   D2A37540   3.561   8.958   8.255
 8392POPC   C3A37541   3.527   8.950   7.955
 8392POPC   C4A37542   3.546   8.987   7.655
 8392POPC   C1B37543   3.723   9.168   8.555
 8392POPC   C2B37544   3.718   9.212   8.255
 8392POPC   C3B37545   3.659   9.178   7.955
 8392POPC   C4B37546   3.697   9.219   7.655
 8393POPC   NC337547  25.230  41.509   9.455
 8393POPC   PO437548  25.283  41.523   9.155
 8393POPC   GL137549  25.271  41.531   8.855
 8393POPC   GL237550  25.352  41.518   8.855
 8393POPC   C1A37551  25.234  41.602   8.555
 8393POPC   D2A37552  25.274  41.525   8.255
 8393POPC   C3A37553  25.276  41.560   7.955
 8393POPC   C4A37554  25.304  41.572   7.655
 8393POPC   C1B37555  25.419  41.430   8.555
 8393POPC   C2B37556  25.412  41.441   8.255
 8393POPC   C3B37557  25.446  41.372   7.955
 8393POPC   C4B37558  25.503  41.423   7.655
 8394POPC   NC337559  40.817  39.186   9.455
 8394POPC   PO437560  40.805  39.266   9.155
 8394POPC   GL137561  40.761  39.214   8.855
 8394POPC   GL237562  40.929  39.334   8.855
 8394POPC   C1A37563  40.763  39.221   8.555
 8394POPC   D2A37564  40.787  39.278   8.255
 8394POPC   C3A37565  40.820  39.250   7.955
 8394POPC   C4A37566  40.767  39.257   7.655
 8394POPC   C1B37567  40.983  39.376   8.555
 8394POPC   C2B37568  40.948  39.404   8.255
 8394POPC   C3B37569  40.961  39.374   7.955
 8394POPC   C4B37570  41.001  39.428   7.655
 8395POPC   NC337571  14.418  33.812   9.455
 8395POPC   PO437572  14.438  33.766   9.155
 8395POPC   GL137573  14.445  33.776   8.855
 8395POPC   GL237574  14.419  33.917   8.855
 8395POPC   C1A37575  14.389  33.805   8.555
 8395POPC   D2A37576  14.440  33.841   8.255
 8395POPC   C3A37577  14.424  33.813   7.955
 8395POPC   C4A37578  14.366  33.812   7.655
 8395POPC   C1B37579  14.460  34.034   8.555
 8395POPC   C2B37580  14.463  34.019   8.255
 8395POPC   C3B37581  14.476  34.093   7.955
 8395POPC   C4B37582  14.446  34.077   7.655
 8396POPC   NC337583  23.708  21.336   9.455
 8396POPC   PO437584  23.713  21.344   9.155
 8396POPC   GL137585  23.686  21.400   8.855
 8396POPC   GL237586  23.663  21.230   8.855
 8396POPC   C1A37587  23.702  21.411   8.555
 8396POPC   D2A37588  23.683  21.420   8.255
 8396POPC   C3A37589  23.739  21.370   7.955
 8396POPC   C4A37590  23.694  21.339   7.655
 8396POPC   C1B37591  23.608  21.160   8.555
 8396POPC   C2B37592  23.648  21.127   8.255
 8396POPC   C3B37593  23.637  21.165   7.955
 8396POPC   C4B37594  23.586  21.200   7.655
 8397POPC   NC337595  39.225  15.214   9.455
 8397POPC   PO437596  39.221  15.157   9.155
 8397POPC   GL137597  39.247  15.211   8.855
 8397POPC   GL237598  39.221  15.274   8.855
 8397POPC   C1A37599  39.244  15.154   8.555
 8397POPC   D2A37600  39.235  15.130   8.255
 8397POPC   C3A37601  39.186  15.150   7.955
 8397POPC   C4A37602  39.189  15.223   7.655
 8397POPC   C1B37603  39.114  15.380   8.555
 8397POPC   C2B37604  39.192  15.404   8.255
 8397POPC   C3B37605  39.157  15.383   7.955
 8397POPC   C4B37606  39.124  15.405   7.655
 8398POPC   NC337607  25.293  40.048   9.455
 8398POPC   PO437608  25.252  39.980   9.155
 8398POPC   GL137609  25.240  39.971   8.855
 8398POPC   GL237610  25.350  40.122   8.855
 8398POPC   C1A37611  25.257  40.033   8.555
 8398POPC   D2A37612  25.283  40.017   8.255
 8398POPC   C3A37613  25.236  40.049   7.955
 8398POPC   C4A37614  25.273  40.027   7.655
 8398POPC   C1B37615  25.430  40.154   8.555
 8398POPC   C2B37616  25.432  40.154   8.255
 8398POPC   C3B37617  25.480  40.123   7.955
 8398POPC   C4B37618  25.460  40.157   7.655
 8399POPC   NC337619  39.999  43.135   9.455
 8399POPC   PO437620  39.978  43.150   9.155
 8399POPC   GL137621  40.023  43.135   8.855
 8399POPC   GL237622  39.942  43.020   8.855
 8399POPC   C1A37623  40.021  43.114   8.555
 8399POPC   D2A37624  39.971  43.100   8.255
 8399POPC   C3A37625  40.016  43.142   7.955
 8399POPC   C4A37626  40.031  43.132   7.655
 8399POPC   C1B37627  39.928  42.836   8.555
 8399POPC   C2B37628  39.911  42.912   8.255
 8399POPC   C3B37629  39.963  42.876   7.955
 8399POPC   C4B37630  39.939  42.859   7.655
 8400POPC   NC337631  29.096  39.245   9.455
 8400POPC   PO437632  29.161  39.271   9.155
 8400POPC   GL137633  29.102  39.260   8.855
 8400POPC   GL237634  28.982  39.229   8.855
 8400POPC   C1A37635  29.143  39.263   8.555
 8400POPC   D2A37636  29.162  39.209   8.255
 8400POPC   C3A37637  29.125  39.267   7.955
 8400POPC   C4A37638  29.182  39.236   7.655
 8400POPC   C1B37639  28.900  39.254   8.555
 8400POPC   C2B37640  28.859  39.268   8.255
 8400POPC   C3B37641  28.854  39.214   7.955
 8400POPC   C4B37642  28.849  39.205   7.655
 8401POPC   NC337643  19.792  43.145   9.455
 8401POPC   PO437644  19.818  43.154   9.155
 8401POPC   GL137645  19.879  43.145   8.855
 8401POPC   GL237646  19.850  43.228   8.855
 8401POPC   C1A37647  19.881  43.071   8.555
 8401POPC   D2A37648  19.832  43.091   8.255
 8401POPC   C3A37649  19.836  43.107   7.955
 8401POPC   C4A37650  19.817  43.125   7.655
 8401POPC   C1B37651  19.785  43.371   8.555
 8401POPC   C2B37652  19.798  43.405   8.255
 8401POPC   C3B37653  19.805  43.336   7.955
 8401POPC   C4B37654  19.830  43.335   7.655
 8402POPC   NC337655   5.074  43.092   9.455
 8402POPC   PO437656   5.052  43.112   9.155
 8402POPC   GL137657   5.132  43.145   8.855
 8402POPC   GL237658   5.179  43.196   8.855
 8402POPC   C1A37659   5.111  43.092   8.555
 8402POPC   D2A37660   5.137  43.135   8.255
 8402POPC   C3A37661   5.104  43.095   7.955
 8402POPC   C4A37662   5.139  43.107   7.655
 8402POPC   C1B37663   5.362  43.217   8.555
 8402POPC   C2B37664   5.330  43.273   8.255
 8402POPC   C3B37665   5.292  43.255   7.955
 8402POPC   C4B37666   5.363  43.189   7.655
 8403POPC   NC337667  39.231  43.092   9.455
 8403POPC   PO437668  39.246  43.064   9.155
 8403POPC   GL137669  39.239  43.094   8.855
 8403POPC   GL237670  39.303  42.963   8.855
 8403POPC   C1A37671  39.194  43.091   8.555
 8403POPC   D2A37672  39.213  43.105   8.255
 8403POPC   C3A37673  39.195  43.097   7.955
 8403POPC   C4A37674  39.245  43.130   7.655
 8403POPC   C1B37675  39.290  42.834   8.555
 8403POPC   C2B37676  39.269  42.868   8.255
 8403POPC   C3B37677  39.283  42.871   7.955
 8403POPC   C4B37678  39.307  42.849   7.655
 8404POPC   NC337679   4.343  25.251   9.455
 8404POPC   PO437680   4.333  25.265   9.155
 8404POPC   GL137681   4.294  25.252   8.855
 8404POPC   GL237682   4.298  25.138   8.855
 8404POPC   C1A37683   4.276  25.241   8.555
 8404POPC   D2A37684   4.281  25.308   8.255
 8404POPC   C3A37685   4.313  25.239   7.955
 8404POPC   C4A37686   4.363  25.295   7.655
 8404POPC   C1B37687   4.341  25.025   8.555
 8404POPC   C2B37688   4.388  24.995   8.255
 8404POPC   C3B37689   4.338  25.007   7.955
 8404POPC   C4B37690   4.372  24.998   7.655
 8405POPC   NC337691  29.905  35.306   9.455
 8405POPC   PO437692  29.915  35.343   9.155
 8405POPC   GL137693  29.888  35.376   8.855
 8405POPC   GL237694  30.030  35.423   8.855
 8405POPC   C1A37695  29.880  35.329   8.555
 8405POPC   D2A37696  29.878  35.340   8.255
 8405POPC   C3A37697  29.939  35.391   7.955
 8405POPC   C4A37698  29.969  35.399   7.655
 8405POPC   C1B37699  30.007  35.566   8.555
 8405POPC   C2B37700  30.035  35.597   8.255
 8405POPC   C3B37701  30.094  35.526   7.955
 8405POPC   C4B37702  30.000  35.523   7.655
 8406POPC   NC337703  21.416  42.378   9.455
 8406POPC   PO437704  21.357  42.342   9.155
 8406POPC   GL137705  21.365  42.300   8.855
 8406POPC   GL237706  21.281  42.452   8.855
 8406POPC   C1A37707  21.412  42.308   8.555
 8406POPC   D2A37708  21.404  42.373   8.255
 8406POPC   C3A37709  21.435  42.335   7.955
 8406POPC   C4A37710  21.370  42.344   7.655
 8406POPC   C1B37711  21.141  42.520   8.555
 8406POPC   C2B37712  21.144  42.535   8.255
 8406POPC   C3B37713  21.138  42.446   7.955
 8406POPC   C4B37714  21.168  42.492   7.655
 8407POPC   NC337715  11.297  16.000   9.455
 8407POPC   PO437716  11.291  15.994   9.155
 8407POPC   GL137717  11.316  15.928   8.855
 8407POPC   GL237718  11.379  15.813   8.855
 8407POPC   C1A37719  11.252  15.999   8.555
 8407POPC   D2A37720  11.281  15.911   8.255
 8407POPC   C3A37721  11.341  15.982   7.955
 8407POPC   C4A37722  11.315  15.942   7.655
 8407POPC   C1B37723  11.356  15.713   8.555
 8407POPC   C2B37724  11.402  15.727   8.255
 8407POPC   C3B37725  11.394  15.706   7.955
 8407POPC   C4B37726  11.357  15.742   7.655
 8408POPC   NC337727   1.207  32.295   9.455
 8408POPC   PO437728   1.175  32.264   9.155
 8408POPC   GL137729   1.169  32.208   8.855
 8408POPC   GL237730   1.331  32.142   8.855
 8408POPC   C1A37731   1.262  32.208   8.555
 8408POPC   D2A37732   1.181  32.235   8.255
 8408POPC   C3A37733   1.182  32.204   7.955
 8408POPC   C4A37734   1.191  32.210   7.655
 8408POPC   C1B37735   1.430  32.145   8.555
 8408POPC   C2B37736   1.379  32.129   8.255
 8408POPC   C3B37737   1.472  32.089   7.955
 8408POPC   C4B37738   1.454  32.162   7.655
 8409POPC   NC337739   8.190  36.082   9.455
 8409POPC   PO437740   8.168  36.126   9.155
 8409POPC   GL137741   8.166  36.154   8.855
 8409POPC   GL237742   8.278  35.992   8.855
 8409POPC   C1A37743   8.213  36.147   8.555
 8409POPC   D2A37744   8.212  36.174   8.255
 8409POPC   C3A37745   8.207  36.130   7.955
 8409POPC   C4A37746   8.158  36.087   7.655
 8409POPC   C1B37747   8.340  35.913   8.555
 8409POPC   C2B37748   8.347  35.951   8.255
 8409POPC   C3B37749   8.303  35.887   7.955
 8409POPC   C4B37750   8.283  35.890   7.655
 8410POPC   NC337751   0.485   4.329   9.455
 8410POPC   PO437752   0.391   4.339   9.155
 8410POPC   GL137753   0.478   4.361   8.855
 8410POPC   GL237754   0.573   4.278   8.855
 8410POPC   C1A37755   0.434   4.323   8.555
 8410POPC   D2A37756   0.415   4.291   8.255
 8410POPC   C3A37757   0.469   4.302   7.955
 8410POPC   C4A37758   0.417   4.287   7.655
 8410POPC   C1B37759   0.684   4.212   8.555
 8410POPC   C2B37760   0.639   4.213   8.255
 8410POPC   C3B37761   0.664   4.241   7.955
 8410POPC   C4B37762   0.628   4.204   7.655
 8411POPC   NC337763  16.721  34.561   9.455
 8411POPC   PO437764  16.776  34.576   9.155
 8411POPC   GL137765  16.687  34.607   8.855
 8411POPC   GL237766  16.649  34.541   8.855
 8411POPC   C1A37767  16.682  34.593   8.555
 8411POPC   D2A37768  16.731  34.579   8.255
 8411POPC   C3A37769  16.739  34.547   7.955
 8411POPC   C4A37770  16.707  34.551   7.655
 8411POPC   C1B37771  16.521  34.523   8.555
 8411POPC   C2B37772  16.468  34.484   8.255
 8411POPC   C3B37773  16.492  34.447   7.955
 8411POPC   C4B37774  16.529  34.517   7.655
 8412POPC   NC337775   3.583   3.521   9.455
 8412POPC   PO437776   3.522   3.506   9.155
 8412POPC   GL137777   3.509   3.499   8.855
 8412POPC   GL237778   3.560   3.440   8.855
 8412POPC   C1A37779   3.514   3.576   8.555
 8412POPC   D2A37780   3.550   3.514   8.255
 8412POPC   C3A37781   3.585   3.574   7.955
 8412POPC   C4A37782   3.502   3.556   7.655
 8412POPC   C1B37783   3.591   3.299   8.555
 8412POPC   C2B37784   3.617   3.331   8.255
 8412POPC   C3B37785   3.615   3.323   7.955
 8412POPC   C4B37786   3.568   3.291   7.655
 8413POPC   NC337787   3.515  29.915   9.455
 8413POPC   PO437788   3.511  29.954   9.155
 8413POPC   GL137789   3.559  29.875   8.855
 8413POPC   GL237790   3.512  29.849   8.855
 8413POPC   C1A37791   3.507  29.879   8.555
 8413POPC   D2A37792   3.525  29.946   8.255
 8413POPC   C3A37793   3.577  29.891   7.955
 8413POPC   C4A37794   3.581  29.943   7.655
 8413POPC   C1B37795   3.437  29.667   8.555
 8413POPC   C2B37796   3.471  29.670   8.255
 8413POPC   C3B37797   3.447  29.675   7.955
 8413POPC   C4B37798   3.464  29.710   7.655
 8414POPC   NC337799  31.481   5.119   9.455
 8414POPC   PO437800  31.457   5.105   9.155
 8414POPC   GL137801  31.437   5.115   8.855
 8414POPC   GL237802  31.361   5.187   8.855
 8414POPC   C1A37803  31.466   5.115   8.555
 8414POPC   D2A37804  31.495   5.074   8.255
 8414POPC   C3A37805  31.478   5.069   7.955
 8414POPC   C4A37806  31.472   5.054   7.655
 8414POPC   C1B37807  31.388   5.291   8.555
 8414POPC   C2B37808  31.332   5.260   8.255
 8414POPC   C3B37809  31.315   5.312   7.955
 8414POPC   C4B37810  31.397   5.334   7.655
 8415POPC   NC337811   3.505   0.396   5.555
 8415POPC   PO437812   3.579   0.412   5.855
 8415POPC   GL137813   3.571   0.451   6.155
 8415POPC   GL237814   3.420   0.512   6.155
 8415POPC   C1A37815   3.541   0.428   6.455
 8415POPC   D2A37816   3.496   0.448   6.755
 8415POPC   C3A37817   3.517   0.409   7.055
 8415POPC   C4A37818   3.548   0.482   7.355
 8415POPC   C1B37819   3.353   0.580   6.455
 8415POPC   C2B37820   3.288   0.487   6.755
 8415POPC   C3B37821   3.314   0.533   7.055
 8415POPC   C4B37822   3.309   0.496   7.355
 8416POPC   NC337823  44.616  34.544   5.555
 8416POPC   PO437824  44.633  34.547   5.855
 8416POPC   GL137825  44.622  34.609   6.155
 8416POPC   GL237826  44.788  34.659   6.155
 8416POPC   C1A37827  44.709  34.590   6.455
 8416POPC   D2A37828  44.641  34.625   6.755
 8416POPC   C3A37829  44.643  34.551   7.055
 8416POPC   C4A37830  44.635  34.572   7.355
 8416POPC   C1B37831  44.869  34.730   6.455
 8416POPC   C2B37832  44.855  34.688   6.755
 8416POPC   C3B37833  44.828  34.702   7.055
 8416POPC   C4B37834  44.846  34.708   7.355
 8417POPC   NC337835  21.401  27.582   5.555
 8417POPC   PO437836  21.346  27.600   5.855
 8417POPC   GL137837  21.402  27.611   6.155
 8417POPC   GL237838  21.269  27.541   6.155
 8417POPC   C1A37839  21.337  27.635   6.455
 8417POPC   D2A37840  21.421  27.592   6.755
 8417POPC   C3A37841  21.379  27.601   7.055
 8417POPC   C4A37842  21.340  27.635   7.355
 8417POPC   C1B37843  21.231  27.441   6.455
 8417POPC   C2B37844  21.267  27.379   6.755
 8417POPC   C3B37845  21.182  27.395   7.055
 8417POPC   C4B37846  21.187  27.375   7.355
 8418POPC   NC337847   0.401   3.578   5.555
 8418POPC   PO437848   0.401   3.549   5.855
 8418POPC   GL137849   0.411   3.565   6.155
 8418POPC   GL237850   0.517   3.616   6.155
 8418POPC   C1A37851   0.443   3.522   6.455
 8418POPC   D2A37852   0.398   3.578   6.755
 8418POPC   C3A37853   0.443   3.522   7.055
 8418POPC   C4A37854   0.433   3.506   7.355
 8418POPC   C1B37855   0.682   3.622   6.455
 8418POPC   C2B37856   0.639   3.622   6.755
 8418POPC   C3B37857   0.632   3.605   7.055
 8418POPC   C4B37858   0.630   3.652   7.355
 8419POPC   NC337859   2.757  31.427   5.555
 8419POPC   PO437860   2.747  31.458   5.855
 8419POPC   GL137861   2.762  31.503   6.155
 8419POPC   GL237862   2.681  31.454   6.155
 8419POPC   C1A37863   2.812  31.434   6.455
 8419POPC   D2A37864   2.809  31.494   6.755
 8419POPC   C3A37865   2.795  31.444   7.055
 8419POPC   C4A37866   2.728  31.464   7.355
 8419POPC   C1B37867   2.487  31.423   6.455
 8419POPC   C2B37868   2.518  31.425   6.755
 8419POPC   C3B37869   2.555  31.460   7.055
 8419POPC   C4B37870   2.542  31.414   7.355
 8420POPC   NC337871  21.432  26.003   5.555
 8420POPC   PO437872  21.402  26.062   5.855
 8420POPC   GL137873  21.350  26.030   6.155
 8420POPC   GL237874  21.238  26.159   6.155
 8420POPC   C1A37875  21.434  26.023   6.455
 8420POPC   D2A37876  21.414  26.089   6.755
 8420POPC   C3A37877  21.349  26.076   7.055
 8420POPC   C4A37878  21.395  26.076   7.355
 8420POPC   C1B37879  21.137  26.217   6.455
 8420POPC   C2B37880  21.154  26.163   6.755
 8420POPC   C3B37881  21.220  26.212   7.055
 8420POPC   C4B37882  21.202  26.197   7.355
 8421POPC   NC337883  19.806   3.521   5.555
 8421POPC   PO437884  19.792   3.570   5.855
 8421POPC   GL137885  19.789   3.563   6.155
 8421POPC   GL237886  19.765   3.456   6.155
 8421POPC   C1A37887  19.841   3.492   6.455
 8421POPC   D2A37888  19.854   3.572   6.755
 8421POPC   C3A37889  19.862   3.575   7.055
 8421POPC   C4A37890  19.824   3.543   7.355
 8421POPC   C1B37891  19.618   3.402   6.455
 8421POPC   C2B37892  19.604   3.407   6.755
 8421POPC   C3B37893  19.605   3.419   7.055
 8421POPC   C4B37894  19.689   3.395   7.355
 8422POPC   NC337895   6.686  40.751   5.555
 8422POPC   PO437896   6.669  40.830   5.855
 8422POPC   GL137897   6.644  40.736   6.155
 8422POPC   GL237898   6.773  40.842   6.155
 8422POPC   C1A37899   6.695  40.782   6.455
 8422POPC   D2A37900   6.669  40.779   6.755
 8422POPC   C3A37901   6.620  40.741   7.055
 8422POPC   C4A37902   6.662  40.755   7.355
 8422POPC   C1B37903   6.914  40.833   6.455
 8422POPC   C2B37904   6.902  40.774   6.755
 8422POPC   C3B37905   6.915  40.803   7.055
 8422POPC   C4B37906   6.876  40.815   7.355
 8423POPC   NC337907   1.963  32.278   5.555
 8423POPC   PO437908   2.029  32.199   5.855
 8423POPC   GL137909   1.970  32.223   6.155
 8423POPC   GL237910   1.968  32.386   6.155
 8423POPC   C1A37911   1.992  32.276   6.455
 8423POPC   D2A37912   1.964  32.257   6.755
 8423POPC   C3A37913   2.029  32.252   7.055
 8423POPC   C4A37914   2.019  32.199   7.355
 8423POPC   C1B37915   1.824  32.437   6.455
 8423POPC   C2B37916   1.853  32.479   6.755
 8423POPC   C3B37917   1.870  32.501   7.055
 8423POPC   C4B37918   1.877  32.489   7.355
 8424POPC   NC337919  20.561  32.261   5.555
 8424POPC   PO437920  20.640  32.231   5.855
 8424POPC   GL137921  20.600  32.277   6.155
 8424POPC   GL237922  20.446  32.247   6.155
 8424POPC   C1A37923  20.562  32.293   6.455
 8424POPC   D2A37924  20.574  32.208   6.755
 8424POPC   C3A37925  20.588  32.251   7.055
 8424POPC   C4A37926  20.598  32.220   7.355
 8424POPC   C1B37927  20.402  32.263   6.455
 8424POPC   C2B37928  20.391  32.270   6.755
 8424POPC   C3B37929  20.412  32.287   7.055
 8424POPC   C4B37930  20.376  32.323   7.355
 8425POPC   NC337931  14.410  26.068   5.555
 8425POPC   PO437932  14.386  26.080   5.855
 8425POPC   GL137933  14.434  26.083   6.155
 8425POPC   GL237934  14.441  25.942   6.155
 8425POPC   C1A37935  14.419  26.029   6.455
 8425POPC   D2A37936  14.447  26.039   6.755
 8425POPC   C3A37937  14.393  26.083   7.055
 8425POPC   C4A37938  14.384  25.992   7.355
 8425POPC   C1B37939  14.401  25.766   6.455
 8425POPC   C2B37940  14.425  25.842   6.755
 8425POPC   C3B37941  14.353  25.830   7.055
 8425POPC   C4B37942  14.374  25.794   7.355
 8426POPC   NC337943  43.093   2.754   5.555
 8426POPC   PO437944  43.069   2.741   5.855
 8426POPC   GL137945  43.117   2.807   6.155
 8426POPC   GL237946  43.248   2.713   6.155
 8426POPC   C1A37947  43.089   2.729   6.455
 8426POPC   D2A37948  43.158   2.717   6.755
 8426POPC   C3A37949  43.071   2.718   7.055
 8426POPC   C4A37950  43.149   2.810   7.355
 8426POPC   C1B37951  43.292   2.643   6.455
 8426POPC   C2B37952  43.344   2.652   6.755
 8426POPC   C3B37953  43.329   2.628   7.055
 8426POPC   C4B37954  43.291   2.622   7.355
 8427POPC   NC337955   7.393  38.456   5.555
 8427POPC   PO437956   7.465  38.410   5.855
 8427POPC   GL137957   7.400  38.465   6.155
 8427POPC   GL237958   7.273  38.462   6.155
 8427POPC   C1A37959   7.395  38.493   6.455
 8427POPC   D2A37960   7.390  38.491   6.755
 8427POPC   C3A37961   7.400  38.427   7.055
 8427POPC   C4A37962   7.466  38.493   7.355
 8427POPC   C1B37963   7.218  38.446   6.455
 8427POPC   C2B37964   7.213  38.413   6.755
 8427POPC   C3B37965   7.181  38.376   7.055
 8427POPC   C4B37966   7.204  38.389   7.355
 8428POPC   NC337967  24.488  10.555   5.555
 8428POPC   PO437968  24.519  10.526   5.855
 8428POPC   GL137969  24.509  10.489   6.155
 8428POPC   GL237970  24.334  10.480   6.155
 8428POPC   C1A37971  24.452  10.495   6.455
 8428POPC   D2A37972  24.512  10.496   6.755
 8428POPC   C3A37973  24.499  10.531   7.055
 8428POPC   C4A37974  24.525  10.511   7.355
 8428POPC   C1B37975  24.204  10.533   6.455
 8428POPC   C2B37976  24.268  10.520   6.755
 8428POPC   C3B37977  24.231  10.457   7.055
 8428POPC   C4B37978  24.216  10.444   7.355
 8429POPC   NC337979  20.628   9.788   5.555
 8429POPC   PO437980  20.640   9.718   5.855
 8429POPC   GL137981  20.588   9.727   6.155
 8429POPC   GL237982  20.643   9.643   6.155
 8429POPC   C1A37983  20.640   9.704   6.455
 8429POPC   D2A37984  20.659   9.755   6.755
 8429POPC   C3A37985  20.603   9.726   7.055
 8429POPC   C4A37986  20.651   9.787   7.355
 8429POPC   C1B37987  20.778   9.510   6.455
 8429POPC   C2B37988  20.785   9.531   6.755
 8429POPC   C3B37989  20.741   9.598   7.055
 8429POPC   C4B37990  20.816   9.574   7.355
 8430POPC   NC337991  34.615   5.840   5.555
 8430POPC   PO437992  34.611   5.823   5.855
 8430POPC   GL137993  34.561   5.850   6.155
 8430POPC   GL237994  34.525   5.958   6.155
 8430POPC   C1A37995  34.554   5.869   6.455
 8430POPC   D2A37996  34.544   5.856   6.755
 8430POPC   C3A37997  34.596   5.833   7.055
 8430POPC   C4A37998  34.534   5.833   7.355
 8430POPC   C1B37999  34.570   6.139   6.455
 8430POPC   C2B38000  34.520   6.113   6.755
 8430POPC   C3B38001  34.540   6.164   7.055
 8430POPC   C4B38002  34.534   6.117   7.355
 8431POPC   NC338003   6.617  29.171   5.555
 8431POPC   PO438004   6.603  29.158   5.855
 8431POPC   GL138005   6.651  29.183   6.155
 8431POPC   GL238006   6.735  29.101   6.155
 8431POPC   C1A38007   6.674  29.188   6.455
 8431POPC   D2A38008   6.608  29.175   6.755
 8431POPC   C3A38009   6.609  29.177   7.055
 8431POPC   C4A38010   6.613  29.147   7.355
 8431POPC   C1B38011   6.874  29.073   6.455
 8431POPC   C2B38012   6.930  29.079   6.755
 8431POPC   C3B38013   6.895  29.142   7.055
 8431POPC   C4B38014   6.894  29.142   7.355
 8432POPC   NC338015  12.900  43.918   5.555
 8432POPC   PO438016  12.884  43.857   5.855
 8432POPC   GL138017  12.841  43.927   6.155
 8432POPC   GL238018  12.944  43.729   6.155
 8432POPC   C1A38019  12.890  43.884   6.455
 8432POPC   D2A38020  12.807  43.862   6.755
 8432POPC   C3A38021  12.848  43.862   7.055
 8432POPC   C4A38022  12.858  43.846   7.355
 8432POPC   C1B38023  13.017  43.683   6.455
 8432POPC   C2B38024  12.956  43.673   6.755
 8432POPC   C3B38025  13.013  43.676   7.055
 8432POPC   C4B38026  12.966  43.660   7.355
 8433POPC   NC338027  16.738  11.337   5.555
 8433POPC   PO438028  16.746  11.337   5.855
 8433POPC   GL138029  16.692  11.340   6.155
 8433POPC   GL238030  16.829  11.337   6.155
 8433POPC   C1A38031  16.684  11.287   6.455
 8433POPC   D2A38032  16.719  11.340   6.755
 8433POPC   C3A38033  16.712  11.324   7.055
 8433POPC   C4A38034  16.748  11.274   7.355
 8433POPC   C1B38035  16.960  11.326   6.455
 8433POPC   C2B38036  17.009  11.343   6.755
 8433POPC   C3B38037  16.944  11.399   7.055
 8433POPC   C4B38038  17.019  11.388   7.355
 8434POPC   NC338039  16.771  29.877   5.555
 8434POPC   PO438040  16.772  29.906   5.855
 8434POPC   GL138041  16.697  29.886   6.155
 8434POPC   GL238042  16.895  29.917   6.155
 8434POPC   C1A38043  16.749  29.916   6.455
 8434POPC   D2A38044  16.709  29.938   6.755
 8434POPC   C3A38045  16.703  29.940   7.055
 8434POPC   C4A38046  16.698  29.970   7.355
 8434POPC   C1B38047  16.947  30.028   6.455
 8434POPC   C2B38048  16.944  29.974   6.755
 8434POPC   C3B38049  16.966  29.980   7.055
 8434POPC   C4B38050  17.015  29.955   7.355
 8435POPC   NC338051  22.977  44.693   5.555
 8435POPC   PO438052  22.973  44.676   5.855
 8435POPC   GL138053  22.916  44.663   6.155
 8435POPC   GL238054  23.023  44.688   6.155
 8435POPC   C1A38055  22.987  44.691   6.455
 8435POPC   D2A38056  22.946  44.652   6.755
 8435POPC   C3A38057  22.895  44.641   7.055
 8435POPC   C4A38058  22.951  44.633   7.355
 8435POPC   C1B38059  23.163  44.749   6.455
 8435POPC   C2B38060  23.136  44.819   6.755
 8435POPC   C3B38061  23.209  44.731   7.055
 8435POPC   C4B38062  23.137  44.730   7.355
 8436POPC   NC338063  40.054   1.180   5.555
 8436POPC   PO438064  40.004   1.184   5.855
 8436POPC   GL138065  40.004   1.183   6.155
 8436POPC   GL238066  40.128   1.188   6.155
 8436POPC   C1A38067  39.982   1.197   6.455
 8436POPC   D2A38068  39.986   1.194   6.755
 8436POPC   C3A38069  40.051   1.212   7.055
 8436POPC   C4A38070  39.976   1.186   7.355
 8436POPC   C1B38071  40.236   1.167   6.455
 8436POPC   C2B38072  40.257   1.195   6.755
 8436POPC   C3B38073  40.288   1.207   7.055
 8436POPC   C4B38074  40.219   1.182   7.355
 8437POPC   NC338075  34.558   6.657   5.555
 8437POPC   PO438076  34.562   6.603   5.855
 8437POPC   GL138077  34.618   6.626   6.155
 8437POPC   GL238078  34.665   6.513   6.155
 8437POPC   C1A38079  34.623   6.616   6.455
 8437POPC   D2A38080  34.619   6.651   6.755
 8437POPC   C3A38081  34.553   6.645   7.055
 8437POPC   C4A38082  34.570   6.615   7.355
 8437POPC   C1B38083  34.749   6.460   6.455
 8437POPC   C2B38084  34.762   6.431   6.755
 8437POPC   C3B38085  34.756   6.481   7.055
 8437POPC   C4B38086  34.704   6.432   7.355
 8438POPC   NC338087  31.481  12.063   5.555
 8438POPC   PO438088  31.489  12.083   5.855
 8438POPC   GL138089  31.452  12.085   6.155
 8438POPC   GL238090  31.516  11.982   6.155
 8438POPC   C1A38091  31.469  12.044   6.455
 8438POPC   D2A38092  31.510  12.125   6.755
 8438POPC   C3A38093  31.503  12.056   7.055
 8438POPC   C4A38094  31.496  12.052   7.355
 8438POPC   C1B38095  31.617  11.906   6.455
 8438POPC   C2B38096  31.691  11.856   6.755
 8438POPC   C3B38097  31.646  11.883   7.055
 8438POPC   C4B38098  31.666  11.930   7.355
 8439POPC   NC338099   1.171  43.157   5.555
 8439POPC   PO438100   1.189  43.074   5.855
 8439POPC   GL138101   1.183  43.096   6.155
 8439POPC   GL238102   1.275  43.189   6.155
 8439POPC   C1A38103   1.244  43.094   6.455
 8439POPC   D2A38104   1.174  43.073   6.755
 8439POPC   C3A38105   1.201  43.113   7.055
 8439POPC   C4A38106   1.207  43.154   7.355
 8439POPC   C1B38107   1.382  43.227   6.455
 8439POPC   C2B38108   1.420  43.295   6.755
 8439POPC   C3B38109   1.387  43.272   7.055
 8439POPC   C4B38110   1.402  43.269   7.355
 8440POPC   NC338111   8.947  42.356   5.555
 8440POPC   PO438112   8.984  42.324   5.855
 8440POPC   GL138113   8.995  42.351   6.155
 8440POPC   GL238114   8.914  42.194   6.155
 8440POPC   C1A38115   8.986  42.359   6.455
 8440POPC   D2A38116   8.976  42.368   6.755
 8440POPC   C3A38117   9.003  42.363   7.055
 8440POPC   C4A38118   9.018  42.381   7.355
 8440POPC   C1B38119   8.824  42.129   6.455
 8440POPC   C2B38120   8.835  42.116   6.755
 8440POPC   C3B38121   8.857  42.174   7.055
 8440POPC   C4B38122   8.835  42.113   7.355
 8441POPC   NC338123  11.275  41.532   5.555
 8441POPC   PO438124  11.251  41.523   5.855
 8441POPC   GL138125  11.316  41.564   6.155
 8441POPC   GL238126  11.365  41.498   6.155
 8441POPC   C1A38127  11.329  41.574   6.455
 8441POPC   D2A38128  11.251  41.591   6.755
 8441POPC   C3A38129  11.324  41.510   7.055
 8441POPC   C4A38130  11.300  41.529   7.355
 8441POPC   C1B38131  11.494  41.371   6.455
 8441POPC   C2B38132  11.497  41.392   6.755
 8441POPC   C3B38133  11.540  41.426   7.055
 8441POPC   C4B38134  11.455  41.452   7.355
 8442POPC   NC338135  30.734  33.760   5.555
 8442POPC   PO438136  30.704  33.820   5.855
 8442POPC   GL138137  30.722  33.782   6.155
 8442POPC   GL238138  30.610  33.928   6.155
 8442POPC   C1A38139  30.693  33.771   6.455
 8442POPC   D2A38140  30.695  33.791   6.755
 8442POPC   C3A38141  30.668  33.808   7.055
 8442POPC   C4A38142  30.671  33.840   7.355
 8442POPC   C1B38143  30.480  34.005   6.455
 8442POPC   C2B38144  30.514  34.021   6.755
 8442POPC   C3B38145  30.553  33.986   7.055
 8442POPC   C4B38146  30.489  33.997   7.355
 8443POPC   NC338147  25.227   8.201   5.555
 8443POPC   PO438148  25.246   8.161   5.855
 8443POPC   GL138149  25.237   8.246   6.155
 8443POPC   GL238150  25.407   8.225   6.155
 8443POPC   C1A38151  25.220   8.210   6.455
 8443POPC   D2A38152  25.262   8.236   6.755
 8443POPC   C3A38153  25.249   8.243   7.055
 8443POPC   C4A38154  25.257   8.160   7.355
 8443POPC   C1B38155  25.502   8.375   6.455
 8443POPC   C2B38156  25.448   8.335   6.755
 8443POPC   C3B38157  25.488   8.299   7.055
 8443POPC   C4B38158  25.512   8.338   7.355
 8444POPC   NC338159  40.772  26.058   5.555
 8444POPC   PO438160  40.744  25.992   5.855
 8444POPC   GL138161  40.744  26.047   6.155
 8444POPC   GL238162  40.886  26.088   6.155
 8444POPC   C1A38163  40.782  26.036   6.455
 8444POPC   D2A38164  40.769  26.029   6.755
 8444POPC   C3A38165  40.792  26.001   7.055
 8444POPC   C4A38166  40.751  26.035   7.355
 8444POPC   C1B38167  40.966  26.236   6.455
 8444POPC   C2B38168  40.909  26.183   6.755
 8444POPC   C3B38169  40.939  26.209   7.055
 8444POPC   C4B38170  40.935  26.179   7.355
 8445POPC   NC338171  32.993   9.018   5.555
 8445POPC   PO438172  33.026   8.951   5.855
 8445POPC   GL138173  33.047   8.985   6.155
 8445POPC   GL238174  33.167   8.999   6.155
 8445POPC   C1A38175  33.070   9.002   6.455
 8445POPC   D2A38176  33.040   9.006   6.755
 8445POPC   C3A38177  33.070   8.977   7.055
 8445POPC   C4A38178  32.997   8.977   7.355
 8445POPC   C1B38179  33.273   8.967   6.455
 8445POPC   C2B38180  33.320   9.000   6.755
 8445POPC   C3B38181  33.308   9.040   7.055
 8445POPC   C4B38182  33.258   9.011   7.355
 8446POPC   NC338183  29.124  12.828   5.555
 8446POPC   PO438184  29.184  12.817   5.855
 8446POPC   GL138185  29.108  12.896   6.155
 8446POPC   GL238186  29.075  12.770   6.155
 8446POPC   C1A38187  29.158  12.835   6.455
 8446POPC   D2A38188  29.145  12.823   6.755
 8446POPC   C3A38189  29.139  12.813   7.055
 8446POPC   C4A38190  29.109  12.833   7.355
 8446POPC   C1B38191  29.009  12.686   6.455
 8446POPC   C2B38192  29.033  12.673   6.755
 8446POPC   C3B38193  29.050  12.677   7.055
 8446POPC   C4B38194  28.997  12.595   7.355
 8447POPC   NC338195   5.104  23.742   5.555
 8447POPC   PO438196   5.113  23.695   5.855
 8447POPC   GL138197   5.117  23.759   6.155
 8447POPC   GL238198   4.970  23.602   6.155
 8447POPC   C1A38199   5.137  23.706   6.455
 8447POPC   D2A38200   5.121  23.743   6.755
 8447POPC   C3A38201   5.093  23.697   7.055
 8447POPC   C4A38202   5.075  23.720   7.355
 8447POPC   C1B38203   4.887  23.520   6.455
 8447POPC   C2B38204   4.898  23.571   6.755
 8447POPC   C3B38205   4.873  23.509   7.055
 8447POPC   C4B38206   4.880  23.507   7.355
 8448POPC   NC338207  22.160  44.680   5.555
 8448POPC   PO438208  22.114  44.661   5.855
 8448POPC   GL138209  22.145  44.648   6.155
 8448POPC   GL238210  22.058  44.656   6.155
 8448POPC   C1A38211  22.169  44.706   6.455
 8448POPC   D2A38212  22.200  44.692   6.755
 8448POPC   C3A38213  22.202  44.692   7.055
 8448POPC   C4A38214  22.123  44.648   7.355
 8448POPC   C1B38215  21.937  44.659   6.455
 8448POPC   C2B38216  21.912  44.630   6.755
 8448POPC   C3B38217  21.889  44.681   7.055
 8448POPC   C4B38218  21.959  44.670   7.355
 8449POPC   NC338219  29.169  36.915   5.555
 8449POPC   PO438220  29.133  36.867   5.855
 8449POPC   GL138221  29.148  36.930   6.155
 8449POPC   GL238222  29.042  36.756   6.155
 8449POPC   C1A38223  29.124  36.922   6.455
 8449POPC   D2A38224  29.150  36.875   6.755
 8449POPC   C3A38225  29.171  36.938   7.055
 8449POPC   C4A38226  29.162  36.873   7.355
 8449POPC   C1B38227  29.058  36.648   6.455
 8449POPC   C2B38228  29.040  36.713   6.755
 8449POPC   C3B38229  29.032  36.668   7.055
 8449POPC   C4B38230  29.002  36.719   7.355
 8450POPC   NC338231  28.338   0.440   5.555
 8450POPC   PO438232  28.400   0.472   5.855
 8450POPC   GL138233  28.338   0.462   6.155
 8450POPC   GL238234  28.261   0.493   6.155
 8450POPC   C1A38235  28.415   0.485   6.455
 8450POPC   D2A38236  28.408   0.450   6.755
 8450POPC   C3A38237  28.394   0.461   7.055
 8450POPC   C4A38238  28.328   0.393   7.355
 8450POPC   C1B38239  28.177   0.526   6.455
 8450POPC   C2B38240  28.125   0.468   6.755
 8450POPC   C3B38241  28.160   0.467   7.055
 8450POPC   C4B38242  28.128   0.497   7.355
 8451POPC   NC338243  26.089  12.079   5.555
 8451POPC   PO438244  26.076  12.080   5.855
 8451POPC   GL138245  26.044  12.100   6.155
 8451POPC   GL238246  26.124  12.203   6.155
 8451POPC   C1A38247  26.065  12.093   6.455
 8451POPC   D2A38248  25.995  12.094   6.755
 8451POPC   C3A38249  26.038  12.082   7.055
 8451POPC   C4A38250  26.044  12.048   7.355
 8451POPC   C1B38251  26.126  12.341   6.455
 8451POPC   C2B38252  26.146  12.268   6.755
 8451POPC   C3B38253  26.170  12.357   7.055
 8451POPC   C4B38254  26.131  12.359   7.355
 8452POPC   NC338255   8.147  13.672   5.555
 8452POPC   PO438256   8.169  13.630   5.855
 8452POPC   GL138257   8.232  13.595   6.155
 8452POPC   GL238258   8.205  13.705   6.155
 8452POPC   C1A38259   8.180  13.663   6.455
 8452POPC   D2A38260   8.216  13.605   6.755
 8452POPC   C3A38261   8.224  13.595   7.055
 8452POPC   C4A38262   8.212  13.651   7.355
 8452POPC   C1B38263   8.087  13.906   6.455
 8452POPC   C2B38264   8.173  13.916   6.755
 8452POPC   C3B38265   8.153  13.883   7.055
 8452POPC   C4B38266   8.103  13.857   7.355
 8453POPC   NC338267  44.624  40.764   5.555
 8453POPC   PO438268  44.683  40.779   5.855
 8453POPC   GL138269  44.626  40.814   6.155
 8453POPC   GL238270  44.724  40.829   6.155
 8453POPC   C1A38271  44.689  40.811   6.455
 8453POPC   D2A38272  44.705  40.806   6.755
 8453POPC   C3A38273  44.665  40.771   7.055
 8453POPC   C4A38274  44.692  40.832   7.355
 8453POPC   C1B38275  44.894  40.923   6.455
 8453POPC   C2B38276  44.897  40.961   6.755
 8453POPC   C3B38277  44.808  40.927   7.055
 8453POPC   C4B38278  44.874  40.934   7.355
 8454POPC   NC338279  12.843  38.474   5.555
 8454POPC   PO438280  12.820  38.443   5.855
 8454POPC   GL138281  12.885  38.417   6.155
 8454POPC   GL238282  12.869  38.381   6.155
 8454POPC   C1A38283  12.847  38.472   6.455
 8454POPC   D2A38284  12.876  38.441   6.755
 8454POPC   C3A38285  12.838  38.449   7.055
 8454POPC   C4A38286  12.852  38.491   7.355
 8454POPC   C1B38287  12.948  38.236   6.455
 8454POPC   C2B38288  12.980  38.191   6.755
 8454POPC   C3B38289  12.897  38.256   7.055
 8454POPC   C4B38290  12.947  38.189   7.355
 8455POPC   NC338291  43.109   3.586   5.555
 8455POPC   PO438292  43.099   3.576   5.855
 8455POPC   GL138293  43.139   3.530   6.155
 8455POPC   GL238294  43.135   3.474   6.155
 8455POPC   C1A38295  43.120   3.559   6.455
 8455POPC   D2A38296  43.144   3.579   6.755
 8455POPC   C3A38297  43.099   3.511   7.055
 8455POPC   C4A38298  43.101   3.527   7.355
 8455POPC   C1B38299  43.200   3.341   6.455
 8455POPC   C2B38300  43.210   3.348   6.755
 8455POPC   C3B38301  43.232   3.373   7.055
 8455POPC   C4B38302  43.238   3.298   7.355
 8456POPC   NC338303  26.041   1.950   5.555
 8456POPC   PO438304  26.029   2.029   5.855
 8456POPC   GL138305  26.080   1.957   6.155
 8456POPC   GL238306  25.939   1.830   6.155
 8456POPC   C1A38307  26.045   1.950   6.455
 8456POPC   D2A38308  26.070   1.972   6.755
 8456POPC   C3A38309  26.047   1.947   7.055
 8456POPC   C4A38310  26.007   1.998   7.355
 8456POPC   C1B38311  25.911   1.739   6.455
 8456POPC   C2B38312  25.913   1.721   6.755
 8456POPC   C3B38313  25.970   1.780   7.055
 8456POPC   C4B38314  25.945   1.739   7.355
 8457POPC   NC338315  20.599  31.506   5.555
 8457POPC   PO438316  20.604  31.499   5.855
 8457POPC   GL138317  20.652  31.498   6.155
 8457POPC   GL238318  20.784  31.450   6.155
 8457POPC   C1A38319  20.570  31.499   6.455
 8457POPC   D2A38320  20.625  31.474   6.755
 8457POPC   C3A38321  20.572  31.474   7.055
 8457POPC   C4A38322  20.635  31.453   7.355
 8457POPC   C1B38323  20.824  31.437   6.455
 8457POPC   C2B38324  20.871  31.503   6.755
 8457POPC   C3B38325  20.854  31.442   7.055
 8457POPC   C4B38326  20.887  31.474   7.355
 8458POPC   NC338327  24.440  26.028   5.555
 8458POPC   PO438328  24.508  26.052   5.855
 8458POPC   GL138329  24.489  26.025   6.155
 8458POPC   GL238330  24.509  25.933   6.155
 8458POPC   C1A38331  24.506  26.076   6.455
 8458POPC   D2A38332  24.500  26.073   6.755
 8458POPC   C3A38333  24.501  26.074   7.055
 8458POPC   C4A38334  24.510  26.086   7.355
 8458POPC   C1B38335  24.528  25.807   6.455
 8458POPC   C2B38336  24.504  25.823   6.755
 8458POPC   C3B38337  24.500  25.754   7.055
 8458POPC   C4B38338  24.516  25.837   7.355
 8459POPC   NC338339  26.862  36.153   5.555
 8459POPC   PO438340  26.813  36.086   5.855
 8459POPC   GL138341  26.829  36.088   6.155
 8459POPC   GL238342  26.963  36.226   6.155
 8459POPC   C1A38343  26.845  36.143   6.455
 8459POPC   D2A38344  26.772  36.086   6.755
 8459POPC   C3A38345  26.796  36.123   7.055
 8459POPC   C4A38346  26.858  36.176   7.355
 8459POPC   C1B38347  26.988  36.250   6.455
 8459POPC   C2B38348  27.011  36.256   6.755
 8459POPC   C3B38349  26.980  36.279   7.055
 8459POPC   C4B38350  27.053  36.259   7.355
 8460POPC   NC338351  32.209   6.659   5.555
 8460POPC   PO438352  32.281   6.659   5.855
 8460POPC   GL138353  32.264   6.649   6.155
 8460POPC   GL238354  32.183   6.785   6.155
 8460POPC   C1A38355  32.255   6.644   6.455
 8460POPC   D2A38356  32.216   6.623   6.755
 8460POPC   C3A38357  32.273   6.602   7.055
 8460POPC   C4A38358  32.205   6.636   7.355
 8460POPC   C1B38359  32.233   6.925   6.455
 8460POPC   C2B38360  32.205   6.843   6.755
 8460POPC   C3B38361  32.203   6.880   7.055
 8460POPC   C4B38362  32.180   6.858   7.355
 8461POPC   NC338363   5.095   5.901   5.555
 8461POPC   PO438364   5.141   5.842   5.855
 8461POPC   GL138365   5.095   5.825   6.155
 8461POPC   GL238366   4.956   5.813   6.155
 8461POPC   C1A38367   5.080   5.829   6.455
 8461POPC   D2A38368   5.138   5.868   6.755
 8461POPC   C3A38369   5.113   5.898   7.055
 8461POPC   C4A38370   5.122   5.839   7.355
 8461POPC   C1B38371   4.813   5.769   6.455
 8461POPC   C2B38372   4.874   5.770   6.755
 8461POPC   C3B38373   4.819   5.798   7.055
 8461POPC   C4B38374   4.852   5.784   7.355
 8462POPC   NC338375  16.771   6.676   5.555
 8462POPC   PO438376  16.704   6.674   5.855
 8462POPC   GL138377  16.744   6.672   6.155
 8462POPC   GL238378  16.701   6.728   6.155
 8462POPC   C1A38379  16.775   6.630   6.455
 8462POPC   D2A38380  16.740   6.673   6.755
 8462POPC   C3A38381  16.741   6.654   7.055
 8462POPC   C4A38382  16.686   6.676   7.355
 8462POPC   C1B38383  16.631   6.891   6.455
 8462POPC   C2B38384  16.640   6.832   6.755
 8462POPC   C3B38385  16.616   6.891   7.055
 8462POPC   C4B38386  16.644   6.844   7.355
 8463POPC   NC338387  42.355  15.217   5.555
 8463POPC   PO438388  42.381  15.223   5.855
 8463POPC   GL138389  42.361  15.196   6.155
 8463POPC   GL238390  42.232  15.303   6.155
 8463POPC   C1A38391  42.384  15.153   6.455
 8463POPC   D2A38392  42.317  15.137   6.755
 8463POPC   C3A38393  42.336  15.137   7.055
 8463POPC   C4A38394  42.320  15.228   7.355
 8463POPC   C1B38395  42.238  15.427   6.455
 8463POPC   C2B38396  42.270  15.412   6.755
 8463POPC   C3B38397  42.273  15.445   7.055
 8463POPC   C4B38398  42.206  15.388   7.355
 8464POPC   NC338399  30.722  43.139   5.555
 8464POPC   PO438400  30.678  43.129   5.855
 8464POPC   GL138401  30.718  43.109   6.155
 8464POPC   GL238402  30.803  43.063   6.155
 8464POPC   C1A38403  30.702  43.062   6.455
 8464POPC   D2A38404  30.694  43.153   6.755
 8464POPC   C3A38405  30.744  43.135   7.055
 8464POPC   C4A38406  30.697  43.106   7.355
 8464POPC   C1B38407  30.915  43.113   6.455
 8464POPC   C2B38408  30.969  43.092   6.755
 8464POPC   C3B38409  30.936  43.093   7.055
 8464POPC   C4B38410  30.990  43.114   7.355
 8465POPC   NC338411   3.586  22.161   5.555
 8465POPC   PO438412   3.542  22.166   5.855
 8465POPC   GL138413   3.568  22.163   6.155
 8465POPC   GL238414   3.458  22.266   6.155
 8465POPC   C1A38415   3.503  22.114   6.455
 8465POPC   D2A38416   3.525  22.200   6.755
 8465POPC   C3A38417   3.546  22.197   7.055
 8465POPC   C4A38418   3.515  22.176   7.355
 8465POPC   C1B38419   3.333  22.335   6.455
 8465POPC   C2B38420   3.371  22.302   6.755
 8465POPC   C3B38421   3.285  22.287   7.055
 8465POPC   C4B38422   3.368  22.270   7.355
 8466POPC   NC338423  19.835  43.891   5.555
 8466POPC   PO438424  19.807  43.933   5.855
 8466POPC   GL138425  19.855  43.906   6.155
 8466POPC   GL238426  19.714  43.788   6.155
 8466POPC   C1A38427  19.852  43.897   6.455
 8466POPC   D2A38428  19.832  43.906   6.755
 8466POPC   C3A38429  19.862  43.926   7.055
 8466POPC   C4A38430  19.812  43.860   7.355
 8466POPC   C1B38431  19.651  43.734   6.455
 8466POPC   C2B38432  19.661  43.748   6.755
 8466POPC   C3B38433  19.654  43.795   7.055
 8466POPC   C4B38434  19.666  43.732   7.355
 8467POPC   NC338435  12.059   2.780   5.555
 8467POPC   PO438436  12.107   2.783   5.855
 8467POPC   GL138437  12.102   2.746   6.155
 8467POPC   GL238438  12.242   2.731   6.155
 8467POPC   C1A38439  12.054   2.763   6.455
 8467POPC   D2A38440  12.093   2.811   6.755
 8467POPC   C3A38441  12.124   2.811   7.055
 8467POPC   C4A38442  12.083   2.722   7.355
 8467POPC   C1B38443  12.312   2.766   6.455
 8467POPC   C2B38444  12.306   2.766   6.755
 8467POPC   C3B38445  12.344   2.818   7.055
 8467POPC   C4B38446  12.317   2.834   7.355
 8468POPC   NC338447  17.525  25.229   5.555
 8468POPC   PO438448  17.484  25.235   5.855
 8468POPC   GL138449  17.547  25.302   6.155
 8468POPC   GL238450  17.572  25.096   6.155
 8468POPC   C1A38451  17.536  25.252   6.455
 8468POPC   D2A38452  17.483  25.264   6.755
 8468POPC   C3A38453  17.547  25.282   7.055
 8468POPC   C4A38454  17.489  25.248   7.355
 8468POPC   C1B38455  17.574  25.029   6.455
 8468POPC   C2B38456  17.592  25.046   6.755
 8468POPC   C3B38457  17.532  24.975   7.055
 8468POPC   C4B38458  17.554  25.038   7.355
 8469POPC   NC338459  26.782  15.136   5.555
 8469POPC   PO438460  26.807  15.173   5.855
 8469POPC   GL138461  26.829  15.223   6.155
 8469POPC   GL238462  26.911  15.252   6.155
 8469POPC   C1A38463  26.849  15.218   6.455
 8469POPC   D2A38464  26.791  15.157   6.755
 8469POPC   C3A38465  26.769  15.134   7.055
 8469POPC   C4A38466  26.786  15.226   7.355
 8469POPC   C1B38467  27.031  15.302   6.455
 8469POPC   C2B38468  26.975  15.291   6.755
 8469POPC   C3B38469  26.983  15.346   7.055
 8469POPC   C4B38470  27.060  15.318   7.355
 8470POPC   NC338471  40.796   1.216   5.555
 8470POPC   PO438472  40.804   1.212   5.855
 8470POPC   GL138473  40.738   1.209   6.155
 8470POPC   GL238474  40.783   1.123   6.155
 8470POPC   C1A38475  40.829   1.246   6.455
 8470POPC   D2A38476  40.817   1.168   6.755
 8470POPC   C3A38477  40.734   1.261   7.055
 8470POPC   C4A38478  40.768   1.169   7.355
 8470POPC   C1B38479  40.862   0.961   6.455
 8470POPC   C2B38480  40.846   0.931   6.755
 8470POPC   C3B38481  40.834   1.016   7.055
 8470POPC   C4B38482  40.878   0.973   7.355
 8471POPC   NC338483  43.112  26.777   5.555
 8471POPC   PO438484  43.064  26.818   5.855
 8471POPC   GL138485  43.073  26.819   6.155
 8471POPC   GL238486  43.010  26.666   6.155
 8471POPC   C1A38487  43.145  26.862   6.455
 8471POPC   D2A38488  43.087  26.780   6.755
 8471POPC   C3A38489  43.128  26.828   7.055
 8471POPC   C4A38490  43.136  26.816   7.355
 8471POPC   C1B38491  43.004  26.619   6.455
 8471POPC   C2B38492  43.007  26.569   6.755
 8471POPC   C3B38493  43.055  26.603   7.055
 8471POPC   C4B38494  43.003  26.579   7.355
 8472POPC   NC338495   1.241  18.263   5.555
 8472POPC   PO438496   1.256  18.332   5.855
 8472POPC   GL138497   1.169  18.253   6.155
 8472POPC   GL238498   1.113  18.391   6.155
 8472POPC   C1A38499   1.249  18.269   6.455
 8472POPC   D2A38500   1.165  18.276   6.755
 8472POPC   C3A38501   1.248  18.285   7.055
 8472POPC   C4A38502   1.216  18.235   7.355
 8472POPC   C1B38503   0.969  18.380   6.455
 8472POPC   C2B38504   0.996  18.389   6.755
 8472POPC   C3B38505   1.010  18.377   7.055
 8472POPC   C4B38506   0.963  18.400   7.355
 8473POPC   NC338507  15.162  22.199   5.555
 8473POPC   PO438508  15.180  22.189   5.855
 8473POPC   GL138509  15.163  22.136   6.155
 8473POPC   GL238510  15.261  22.091   6.155
 8473POPC   C1A38511  15.199  22.166   6.455
 8473POPC   D2A38512  15.189  22.154   6.755
 8473POPC   C3A38513  15.183  22.202   7.055
 8473POPC   C4A38514  15.152  22.191   7.355
 8473POPC   C1B38515  15.369  22.098   6.455
 8473POPC   C2B38516  15.417  22.017   6.755
 8473POPC   C3B38517  15.409  22.033   7.055
 8473POPC   C4B38518  15.394  22.046   7.355
 8474POPC   NC338519  18.251  17.486   5.555
 8474POPC   PO438520  18.271  17.486   5.855
 8474POPC   GL138521  18.298  17.551   6.155
 8474POPC   GL238522  18.122  17.490   6.155
 8474POPC   C1A38523  18.296  17.556   6.455
 8474POPC   D2A38524  18.237  17.480   6.755
 8474POPC   C3A38525  18.320  17.541   7.055
 8474POPC   C4A38526  18.313  17.507   7.355
 8474POPC   C1B38527  18.032  17.433   6.455
 8474POPC   C2B38528  17.999  17.426   6.755
 8474POPC   C3B38529  18.014  17.521   7.055
 8474POPC   C4B38530  18.030  17.437   7.355
 8475POPC   NC338531  41.556  43.899   5.555
 8475POPC   PO438532  41.599  43.926   5.855
 8475POPC   GL138533  41.521  43.880   6.155
 8475POPC   GL238534  41.390  43.911   6.155
 8475POPC   C1A38535  41.589  43.913   6.455
 8475POPC   D2A38536  41.598  43.929   6.755
 8475POPC   C3A38537  41.530  43.891   7.055
 8475POPC   C4A38538  41.539  43.908   7.355
 8475POPC   C1B38539  41.289  43.893   6.455
 8475POPC   C2B38540  41.357  43.863   6.755
 8475POPC   C3B38541  41.290  43.881   7.055
 8475POPC   C4B38542  41.302  43.827   7.355
 8476POPC   NC338543  25.999  12.816   5.555
 8476POPC   PO438544  26.019  12.889   5.855
 8476POPC   GL138545  26.053  12.884   6.155
 8476POPC   GL238546  25.945  12.844   6.155
 8476POPC   C1A38547  26.035  12.861   6.455
 8476POPC   D2A38548  26.019  12.893   6.755
 8476POPC   C3A38549  26.076  12.834   7.055
 8476POPC   C4A38550  26.036  12.851   7.355
 8476POPC   C1B38551  25.778  12.909   6.455
 8476POPC   C2B38552  25.834  12.930   6.755
 8476POPC   C3B38553  25.795  12.860   7.055
 8476POPC   C4B38554  25.801  12.907   7.355
 8477POPC   NC338555  29.873   3.542   5.555
 8477POPC   PO438556  29.963   3.544   5.855
 8477POPC   GL138557  29.950   3.591   6.155
 8477POPC   GL238558  30.025   3.473   6.155
 8477POPC   C1A38559  29.967   3.562   6.455
 8477POPC   D2A38560  29.914   3.525   6.755
 8477POPC   C3A38561  29.889   3.514   7.055
 8477POPC   C4A38562  29.935   3.524   7.355
 8477POPC   C1B38563  30.149   3.447   6.455
 8477POPC   C2B38564  30.158   3.462   6.755
 8477POPC   C3B38565  30.119   3.445   7.055
 8477POPC   C4B38566  30.148   3.454   7.355
 8478POPC   NC338567  30.647   8.945   5.555
 8478POPC   PO438568  30.738   8.982   5.855
 8478POPC   GL138569  30.698   9.012   6.155
 8478POPC   GL238570  30.785   8.925   6.155
 8478POPC   C1A38571  30.744   9.017   6.455
 8478POPC   D2A38572  30.725   8.939   6.755
 8478POPC   C3A38573  30.731   8.948   7.055
 8478POPC   C4A38574  30.725   8.978   7.355
 8478POPC   C1B38575  30.917   8.833   6.455
 8478POPC   C2B38576  30.861   8.852   6.755
 8478POPC   C3B38577  30.905   8.784   7.055
 8478POPC   C4B38578  30.845   8.800   7.355
 8479POPC   NC338579  24.472  24.471   5.555
 8479POPC   PO438580  24.476  24.442   5.855
 8479POPC   GL138581  24.498  24.506   6.155
 8479POPC   GL238582  24.602  24.501   6.155
 8479POPC   C1A38583  24.524  24.539   6.455
 8479POPC   D2A38584  24.453  24.491   6.755
 8479POPC   C3A38585  24.526  24.516   7.055
 8479POPC   C4A38586  24.507  24.514   7.355
 8479POPC   C1B38587  24.736  24.474   6.455
 8479POPC   C2B38588  24.736  24.454   6.755
 8479POPC   C3B38589  24.705  24.434   7.055
 8479POPC   C4B38590  24.731  24.415   7.355
 8480POPC   NC338591  29.910  33.018   5.555
 8480POPC   PO438592  29.949  33.004   5.855
 8480POPC   GL138593  29.943  33.028   6.155
 8480POPC   GL238594  29.938  33.101   6.155
 8480POPC   C1A38595  29.927  33.027   6.455
 8480POPC   D2A38596  29.896  33.033   6.755
 8480POPC   C3A38597  29.883  33.005   7.055
 8480POPC   C4A38598  29.935  33.058   7.355
 8480POPC   C1B38599  29.876  33.290   6.455
 8480POPC   C2B38600  29.965  33.240   6.755
 8480POPC   C3B38601  29.886  33.233   7.055
 8480POPC   C4B38602  29.931  33.310   7.355
 8481POPC   NC338603  11.315  33.849   5.555
 8481POPC   PO438604  11.297  33.809   5.855
 8481POPC   GL138605  11.311  33.844   6.155
 8481POPC   GL238606  11.379  33.827   6.155
 8481POPC   C1A38607  11.280  33.784   6.455
 8481POPC   D2A38608  11.271  33.752   6.755
 8481POPC   C3A38609  11.317  33.788   7.055
 8481POPC   C4A38610  11.333  33.755   7.355
 8481POPC   C1B38611  11.521  33.776   6.455
 8481POPC   C2B38612  11.543  33.864   6.755
 8481POPC   C3B38613  11.555  33.830   7.055
 8481POPC   C4B38614  11.501  33.858   7.355
 8482POPC   NC338615  24.530  41.532   5.555
 8482POPC   PO438616  24.492  41.514   5.855
 8482POPC   GL138617  24.515  41.563   6.155
 8482POPC   GL238618  24.562  41.535   6.155
 8482POPC   C1A38619  24.476  41.530   6.455
 8482POPC   D2A38620  24.459  41.578   6.755
 8482POPC   C3A38621  24.443  41.602   7.055
 8482POPC   C4A38622  24.484  41.590   7.355
 8482POPC   C1B38623  24.781  41.458   6.455
 8482POPC   C2B38624  24.714  41.535   6.755
 8482POPC   C3B38625  24.687  41.465   7.055
 8482POPC   C4B38626  24.784  41.507   7.355
 8483POPC   NC338627  29.941  18.259   5.555
 8483POPC   PO438628  29.965  18.243   5.855
 8483POPC   GL138629  29.917  18.263   6.155
 8483POPC   GL238630  30.039  18.159   6.155
 8483POPC   C1A38631  29.886  18.272   6.455
 8483POPC   D2A38632  29.940  18.234   6.755
 8483POPC   C3A38633  29.912  18.271   7.055
 8483POPC   C4A38634  29.891  18.264   7.355
 8483POPC   C1B38635  30.076  18.092   6.455
 8483POPC   C2B38636  30.144  18.059   6.755
 8483POPC   C3B38637  30.052  18.099   7.055
 8483POPC   C4B38638  30.079  18.104   7.355
 8484POPC   NC338639  29.906   6.682   5.555
 8484POPC   PO438640  29.945   6.616   5.855
 8484POPC   GL138641  29.905   6.679   6.155
 8484POPC   GL238642  29.994   6.574   6.155
 8484POPC   C1A38643  29.886   6.652   6.455
 8484POPC   D2A38644  29.897   6.686   6.755
 8484POPC   C3A38645  29.941   6.645   7.055
 8484POPC   C4A38646  29.968   6.632   7.355
 8484POPC   C1B38647  30.091   6.482   6.455
 8484POPC   C2B38648  30.148   6.550   6.755
 8484POPC   C3B38649  30.169   6.538   7.055
 8484POPC   C4B38650  30.167   6.555   7.355
 8485POPC   NC338651   0.477   2.039   5.555
 8485POPC   PO438652   0.398   1.963   5.855
 8485POPC   GL138653   0.402   1.956   6.155
 8485POPC   GL238654   0.554   1.982   6.155
 8485POPC   C1A38655   0.488   1.996   6.455
 8485POPC   D2A38656   0.440   2.038   6.755
 8485POPC   C3A38657   0.431   1.952   7.055
 8485POPC   C4A38658   0.468   1.955   7.355
 8485POPC   C1B38659   0.628   1.891   6.455
 8485POPC   C2B38660   0.652   1.878   6.755
 8485POPC   C3B38661   0.695   1.888   7.055
 8485POPC   C4B38662   0.634   1.856   7.355
 8486POPC   NC338663   0.469  32.293   5.555
 8486POPC   PO438664   0.478  32.277   5.855
 8486POPC   GL138665   0.443  32.209   6.155
 8486POPC   GL238666   0.552  32.176   6.155
 8486POPC   C1A38667   0.438  32.209   6.455
 8486POPC   D2A38668   0.464  32.222   6.755
 8486POPC   C3A38669   0.430  32.284   7.055
 8486POPC   C4A38670   0.425  32.229   7.355
 8486POPC   C1B38671   0.615  32.068   6.455
 8486POPC   C2B38672   0.643  32.104   6.755
 8486POPC   C3B38673   0.585  32.050   7.055
 8486POPC   C4B38674   0.630  32.030   7.355
 8487POPC   NC338675  42.375  32.269   5.555
 8487POPC   PO438676  42.296  32.236   5.855
 8487POPC   GL138677  42.313  32.293   6.155
 8487POPC   GL238678  42.422  32.294   6.155
 8487POPC   C1A38679  42.291  32.236   6.455
 8487POPC   D2A38680  42.328  32.266   6.755
 8487POPC   C3A38681  42.325  32.288   7.055
 8487POPC   C4A38682  42.302  32.214   7.355
 8487POPC   C1B38683  42.541  32.381   6.455
 8487POPC   C2B38684  42.597  32.342   6.755
 8487POPC   C3B38685  42.525  32.303   7.055
 8487POPC   C4B38686  42.563  32.337   7.355
 8488POPC   NC338687  19.881  24.520   5.555
 8488POPC   PO438688  19.835  24.503   5.855
 8488POPC   GL138689  19.871  24.445   6.155
 8488POPC   GL238690  19.714  24.460   6.155
 8488POPC   C1A38691  19.804  24.527   6.455
 8488POPC   D2A38692  19.844  24.527   6.755
 8488POPC   C3A38693  19.808  24.539   7.055
 8488POPC   C4A38694  19.811  24.515   7.355
 8488POPC   C1B38695  19.622  24.363   6.455
 8488POPC   C2B38696  19.582  24.329   6.755
 8488POPC   C3B38697  19.589  24.319   7.055
 8488POPC   C4B38698  19.659  24.304   7.355
 8489POPC   NC338699  13.581  38.485   5.555
 8489POPC   PO438700  13.587  38.437   5.855
 8489POPC   GL138701  13.626  38.487   6.155
 8489POPC   GL238702  13.763  38.566   6.155
 8489POPC   C1A38703  13.588  38.407   6.455
 8489POPC   D2A38704  13.651  38.446   6.755
 8489POPC   C3A38705  13.652  38.500   7.055
 8489POPC   C4A38706  13.625  38.418   7.355
 8489POPC   C1B38707  13.823  38.562   6.455
 8489POPC   C2B38708  13.853  38.544   6.755
 8489POPC   C3B38709  13.865  38.577   7.055
 8489POPC   C4B38710  13.810  38.622   7.355
 8490POPC   NC338711   1.952   8.203   5.555
 8490POPC   PO438712   1.999   8.196   5.855
 8490POPC   GL138713   1.946   8.147   6.155
 8490POPC   GL238714   1.927   8.166   6.155
 8490POPC   C1A38715   1.976   8.149   6.455
 8490POPC   D2A38716   2.002   8.147   6.755
 8490POPC   C3A38717   1.996   8.176   7.055
 8490POPC   C4A38718   2.009   8.170   7.355
 8490POPC   C1B38719   1.768   8.038   6.455
 8490POPC   C2B38720   1.823   8.081   6.755
 8490POPC   C3B38721   1.753   8.056   7.055
 8490POPC   C4B38722   1.821   8.052   7.355
 8491POPC   NC338723  37.704  30.654   5.555
 8491POPC   PO438724  37.685  30.692   5.855
 8491POPC   GL138725  37.691  30.710   6.155
 8491POPC   GL238726  37.730  30.745   6.155
 8491POPC   C1A38727  37.684  30.667   6.455
 8491POPC   D2A38728  37.725  30.706   6.755
 8491POPC   C3A38729  37.674  30.731   7.055
 8491POPC   C4A38730  37.716  30.744   7.355
 8491POPC   C1B38731  37.881  30.843   6.455
 8491POPC   C2B38732  37.862  30.891   6.755
 8491POPC   C3B38733  37.874  30.859   7.055
 8491POPC   C4B38734  37.825  30.888   7.355
 8492POPC   NC338735  40.821   5.051   5.555
 8492POPC   PO438736  40.820   5.111   5.855
 8492POPC   GL138737  40.751   5.069   6.155
 8492POPC   GL238738  40.678   5.105   6.155
 8492POPC   C1A38739  40.770   5.064   6.455
 8492POPC   D2A38740  40.813   5.076   6.755
 8492POPC   C3A38741  40.807   5.081   7.055
 8492POPC   C4A38742  40.799   5.044   7.355
 8492POPC   C1B38743  40.551   5.044   6.455
 8492POPC   C2B38744  40.532   5.080   6.755
 8492POPC   C3B38745  40.579   5.072   7.055
 8492POPC   C4B38746  40.514   5.006   7.355
 8493POPC   NC338747  29.115  40.806   5.555
 8493POPC   PO438748  29.139  40.826   5.855
 8493POPC   GL138749  29.172  40.783   6.155
 8493POPC   GL238750  29.250  40.760   6.155
 8493POPC   C1A38751  29.160  40.809   6.455
 8493POPC   D2A38752  29.163  40.800   6.755
 8493POPC   C3A38753  29.189  40.765   7.055
 8493POPC   C4A38754  29.139  40.829   7.355
 8493POPC   C1B38755  29.349  40.646   6.455
 8493POPC   C2B38756  29.310  40.629   6.755
 8493POPC   C3B38757  29.334  40.669   7.055
 8493POPC   C4B38758  29.356  40.666   7.355
 8494POPC   NC338759  40.035   4.350   5.555
 8494POPC   PO438760  40.042   4.315   5.855
 8494POPC   GL138761  40.056   4.343   6.155
 8494POPC   GL238762  39.913   4.167   6.155
 8494POPC   C1A38763  40.024   4.278   6.455
 8494POPC   D2A38764  39.965   4.303   6.755
 8494POPC   C3A38765  40.045   4.334   7.055
 8494POPC   C4A38766  39.977   4.301   7.355
 8494POPC   C1B38767  39.918   4.090   6.455
 8494POPC   C2B38768  39.937   4.126   6.755
 8494POPC   C3B38769  39.881   4.115   7.055
 8494POPC   C4B38770  39.941   4.095   7.355
 8495POPC   NC338771  18.309  33.000   5.555
 8495POPC   PO438772  18.240  32.984   5.855
 8495POPC   GL138773  18.278  33.065   6.155
 8495POPC   GL238774  18.418  32.987   6.155
 8495POPC   C1A38775  18.262  33.026   6.455
 8495POPC   D2A38776  18.239  33.017   6.755
 8495POPC   C3A38777  18.255  33.057   7.055
 8495POPC   C4A38778  18.258  33.058   7.355
 8495POPC   C1B38779  18.514  32.936   6.455
 8495POPC   C2B38780  18.489  32.862   6.755
 8495POPC   C3B38781  18.492  32.888   7.055
 8495POPC   C4B38782  18.466  32.905   7.355
 8496POPC   NC338783  38.451  19.809   5.555
 8496POPC   PO438784  38.458  19.816   5.855
 8496POPC   GL138785  38.438  19.811   6.155
 8496POPC   GL238786  38.474  19.931   6.155
 8496POPC   C1A38787  38.406  19.845   6.455
 8496POPC   D2A38788  38.494  19.797   6.755
 8496POPC   C3A38789  38.451  19.823   7.055
 8496POPC   C4A38790  38.501  19.856   7.355
 8496POPC   C1B38791  38.548  20.076   6.455
 8496POPC   C2B38792  38.613  20.011   6.755
 8496POPC   C3B38793  38.549  20.065   7.055
 8496POPC   C4B38794  38.552  20.034   7.355
 8497POPC   NC338795  39.236  29.172   5.555
 8497POPC   PO438796  39.279  29.152   5.855
 8497POPC   GL138797  39.262  29.137   6.155
 8497POPC   GL238798  39.119  29.272   6.155
 8497POPC   C1A38799  39.238  29.127   6.455
 8497POPC   D2A38800  39.226  29.189   6.755
 8497POPC   C3A38801  39.223  29.126   7.055
 8497POPC   C4A38802  39.214  29.167   7.355
 8497POPC   C1B38803  39.023  29.345   6.455
 8497POPC   C2B38804  38.999  29.259   6.755
 8497POPC   C3B38805  39.006  29.329   7.055
 8497POPC   C4B38806  38.992  29.321   7.355
 8498POPC   NC338807  40.791  32.204   5.555
 8498POPC   PO438808  40.798  32.230   5.855
 8498POPC   GL138809  40.772  32.266   6.155
 8498POPC   GL238810  40.670  32.223   6.155
 8498POPC   C1A38811  40.830  32.199   6.455
 8498POPC   D2A38812  40.746  32.253   6.755
 8498POPC   C3A38813  40.734  32.298   7.055
 8498POPC   C4A38814  40.814  32.198   7.355
 8498POPC   C1B38815  40.509  32.279   6.455
 8498POPC   C2B38816  40.524  32.284   6.755
 8498POPC   C3B38817  40.581  32.334   7.055
 8498POPC   C4B38818  40.581  32.255   7.355
 8499POPC   NC338819   0.450  40.021   5.555
 8499POPC   PO438820   0.461  40.042   5.855
 8499POPC   GL138821   0.402  40.046   6.155
 8499POPC   GL238822   0.344  40.102   6.155
 8499POPC   C1A38823   0.485  39.999   6.455
 8499POPC   D2A38824   0.453  39.997   6.755
 8499POPC   C3A38825   0.435  39.958   7.055
 8499POPC   C4A38826   0.393  39.965   7.355
 8499POPC   C1B38827   0.258  40.156   6.455
 8499POPC   C2B38828   0.282  40.194   6.755
 8499POPC   C3B38829   0.260  40.188   7.055
 8499POPC   C4B38830   0.271  40.211   7.355
 8500POPC   NC338831  43.861  30.690   5.555
 8500POPC   PO438832  43.875  30.665   5.855
 8500POPC   GL138833  43.859  30.685   6.155
 8500POPC   GL238834  43.978  30.808   6.155
 8500POPC   C1A38835  43.915  30.718   6.455
 8500POPC   D2A38836  43.920  30.702   6.755
 8500POPC   C3A38837  43.882  30.673   7.055
 8500POPC   C4A38838  43.929  30.700   7.355
 8500POPC   C1B38839  43.979  30.919   6.455
 8500POPC   C2B38840  43.960  30.898   6.755
 8500POPC   C3B38841  43.961  30.971   7.055
 8500POPC   C4B38842  43.944  30.923   7.355
 8501POPC   NC338843  40.787  28.412   5.555
 8501POPC   PO438844  40.800  28.364   5.855
 8501POPC   GL138845  40.779  28.361   6.155
 8501POPC   GL238846  40.886  28.256   6.155
 8501POPC   C1A38847  40.784  28.395   6.455
 8501POPC   D2A38848  40.759  28.393   6.755
 8501POPC   C3A38849  40.770  28.341   7.055
 8501POPC   C4A38850  40.738  28.345   7.355
 8501POPC   C1B38851  40.992  28.265   6.455
 8501POPC   C2B38852  41.025  28.247   6.755
 8501POPC   C3B38853  40.978  28.182   7.055
 8501POPC   C4B38854  40.965  28.209   7.355
 8502POPC   NC338855  33.764  33.799   5.555
 8502POPC   PO438856  33.805  33.784   5.855
 8502POPC   GL138857  33.790  33.765   6.155
 8502POPC   GL238858  33.740  33.930   6.155
 8502POPC   C1A38859  33.805  33.822   6.455
 8502POPC   D2A38860  33.792  33.784   6.755
 8502POPC   C3A38861  33.822  33.784   7.055
 8502POPC   C4A38862  33.826  33.830   7.355
 8502POPC   C1B38863  33.695  34.033   6.455
 8502POPC   C2B38864  33.657  33.985   6.755
 8502POPC   C3B38865  33.677  34.058   7.055
 8502POPC   C4B38866  33.730  34.011   7.355
 8503POPC   NC338867  20.646  43.912   5.555
 8503POPC   PO438868  20.618  43.859   5.855
 8503POPC   GL138869  20.658  43.877   6.155
 8503POPC   GL238870  20.632  44.041   6.155
 8503POPC   C1A38871  20.565  43.893   6.455
 8503POPC   D2A38872  20.640  43.910   6.755
 8503POPC   C3A38873  20.605  43.865   7.055
 8503POPC   C4A38874  20.578  43.884   7.355
 8503POPC   C1B38875  20.586  44.137   6.455
 8503POPC   C2B38876  20.570  44.114   6.755
 8503POPC   C3B38877  20.564  44.109   7.055
 8503POPC   C4B38878  20.546  44.177   7.355
 8504POPC   NC338879  41.527   1.176   5.555
 8504POPC   PO438880  41.572   1.173   5.855
 8504POPC   GL138881  41.536   1.175   6.155
 8504POPC   GL238882  41.546   1.384   6.155
 8504POPC   C1A38883  41.516   1.190   6.455
 8504POPC   D2A38884  41.605   1.198   6.755
 8504POPC   C3A38885  41.593   1.240   7.055
 8504POPC   C4A38886  41.546   1.257   7.355
 8504POPC   C1B38887  41.519   1.427   6.455
 8504POPC   C2B38888  41.547   1.428   6.755
 8504POPC   C3B38889  41.521   1.415   7.055
 8504POPC   C4B38890  41.575   1.443   7.355
 8505POPC   NC338891  17.467  33.833   5.555
 8505POPC   PO438892  17.496  33.792   5.855
 8505POPC   GL138893  17.519  33.835   6.155
 8505POPC   GL238894  17.594  33.803   6.155
 8505POPC   C1A38895  17.475  33.825   6.455
 8505POPC   D2A38896  17.472  33.840   6.755
 8505POPC   C3A38897  17.535  33.771   7.055
 8505POPC   C4A38898  17.531  33.844   7.355
 8505POPC   C1B38899  17.792  33.864   6.455
 8505POPC   C2B38900  17.803  33.820   6.755
 8505POPC   C3B38901  17.713  33.865   7.055
 8505POPC   C4B38902  17.781  33.816   7.355
 8506POPC   NC338903  35.387  41.558   5.555
 8506POPC   PO438904  35.378  41.576   5.855
 8506POPC   GL138905  35.372  41.511   6.155
 8506POPC   GL238906  35.476  41.655   6.155
 8506POPC   C1A38907  35.347  41.522   6.455
 8506POPC   D2A38908  35.330  41.582   6.755
 8506POPC   C3A38909  35.349  41.569   7.055
 8506POPC   C4A38910  35.372  41.579   7.355
 8506POPC   C1B38911  35.564  41.788   6.455
 8506POPC   C2B38912  35.527  41.765   6.755
 8506POPC   C3B38913  35.479  41.728   7.055
 8506POPC   C4B38914  35.567  41.715   7.355
 8507POPC   NC338915   8.186  29.936   5.555
 8507POPC   PO438916   8.184  29.919   5.855
 8507POPC   GL138917   8.189  29.912   6.155
 8507POPC   GL238918   8.225  30.086   6.155
 8507POPC   C1A38919   8.229  29.911   6.455
 8507POPC   D2A38920   8.172  29.874   6.755
 8507POPC   C3A38921   8.164  29.934   7.055
 8507POPC   C4A38922   8.246  29.876   7.355
 8507POPC   C1B38923   8.169  30.129   6.455
 8507POPC   C2B38924   8.217  30.171   6.755
 8507POPC   C3B38925   8.163  30.129   7.055
 8507POPC   C4B38926   8.187  30.195   7.355
 8508POPC   NC338927  26.768  27.637   5.555
 8508POPC   PO438928  26.809  27.588   5.855
 8508POPC   GL138929  26.769  27.629   6.155
 8508POPC   GL238930  26.893  27.507   6.155
 8508POPC   C1A38931  26.862  27.545   6.455
 8508POPC   D2A38932  26.784  27.607   6.755
 8508POPC   C3A38933  26.803  27.592   7.055
 8508POPC   C4A38934  26.815  27.619   7.355
 8508POPC   C1B38935  26.861  27.318   6.455
 8508POPC   C2B38936  26.921  27.368   6.755
 8508POPC   C3B38937  26.923  27.370   7.055
 8508POPC   C4B38938  26.903  27.311   7.355
 8509POPC   NC338939  37.669  19.019   5.555
 8509POPC   PO438940  37.676  19.053   5.855
 8509POPC   GL138941  37.724  19.071   6.155
 8509POPC   GL238942  37.522  19.022   6.155
 8509POPC   C1A38943  37.641  19.009   6.455
 8509POPC   D2A38944  37.715  19.096   6.755
 8509POPC   C3A38945  37.643  19.013   7.055
 8509POPC   C4A38946  37.698  19.036   7.355
 8509POPC   C1B38947  37.484  18.964   6.455
 8509POPC   C2B38948  37.483  18.968   6.755
 8509POPC   C3B38949  37.446  19.024   7.055
 8509POPC   C4B38950  37.466  18.974   7.355
 8510POPC   NC338951   4.341   1.993   5.555
 8510POPC   PO438952   4.339   1.964   5.855
 8510POPC   GL138953   4.321   1.978   6.155
 8510POPC   GL238954   4.439   1.992   6.155
 8510POPC   C1A38955   4.315   1.972   6.455
 8510POPC   D2A38956   4.294   1.963   6.755
 8510POPC   C3A38957   4.328   1.944   7.055
 8510POPC   C4A38958   4.351   1.977   7.355
 8510POPC   C1B38959   4.523   2.110   6.455
 8510POPC   C2B38960   4.498   2.096   6.755
 8510POPC   C3B38961   4.541   2.046   7.055
 8510POPC   C4B38962   4.545   2.064   7.355
 8511POPC   NC338963  43.924  27.572   5.555
 8511POPC   PO438964  43.875  27.560   5.855
 8511POPC   GL138965  43.891  27.637   6.155
 8511POPC   GL238966  44.010  27.631   6.155
 8511POPC   C1A38967  43.902  27.560   6.455
 8511POPC   D2A38968  43.928  27.585   6.755
 8511POPC   C3A38969  43.857  27.547   7.055
 8511POPC   C4A38970  43.930  27.573   7.355
 8511POPC   C1B38971  44.158  27.554   6.455
 8511POPC   C2B38972  44.172  27.577   6.755
 8511POPC   C3B38973  44.143  27.549   7.055
 8511POPC   C4B38974  44.122  27.611   7.355
 8512POPC   NC338975  22.919  41.572   5.555
 8512POPC   PO438976  22.916  41.557   5.855
 8512POPC   GL138977  22.953  41.530   6.155
 8512POPC   GL238978  22.861  41.393   6.155
 8512POPC   C1A38979  22.945  41.557   6.455
 8512POPC   D2A38980  22.943  41.591   6.755
 8512POPC   C3A38981  22.932  41.534   7.055
 8512POPC   C4A38982  22.940  41.587   7.355
 8512POPC   C1B38983  22.844  41.280   6.455
 8512POPC   C2B38984  22.906  41.277   6.755
 8512POPC   C3B38985  22.904  41.339   7.055
 8512POPC   C4B38986  22.850  41.318   7.355
 8513POPC   NC338987  12.828  17.460   5.555
 8513POPC   PO438988  12.831  17.545   5.855
 8513POPC   GL138989  12.806  17.538   6.155
 8513POPC   GL238990  13.004  17.607   6.155
 8513POPC   C1A38991  12.833  17.483   6.455
 8513POPC   D2A38992  12.820  17.541   6.755
 8513POPC   C3A38993  12.877  17.550   7.055
 8513POPC   C4A38994  12.857  17.491   7.355
 8513POPC   C1B38995  13.058  17.664   6.455
 8513POPC   C2B38996  13.074  17.646   6.755
 8513POPC   C3B38997  13.101  17.650   7.055
 8513POPC   C4B38998  13.032  17.595   7.355
 8514POPC   NC338999   1.214  33.042   5.555
 8514POPC   PO439000   1.174  33.051   5.855
 8514POPC   GL139001   1.180  33.070   6.155
 8514POPC   GL239002   1.132  33.126   6.155
 8514POPC   C1A39003   1.189  33.054   6.455
 8514POPC   D2A39004   1.249  33.027   6.755
 8514POPC   C3A39005   1.257  32.979   7.055
 8514POPC   C4A39006   1.192  33.016   7.355
 8514POPC   C1B39007   1.036  33.142   6.455
 8514POPC   C2B39008   0.985  33.144   6.755
 8514POPC   C3B39009   0.949  33.186   7.055
 8514POPC   C4B39010   0.973  33.096   7.355
 8515POPC   NC339011  31.469  15.978   5.555
 8515POPC   PO439012  31.519  15.989   5.855
 8515POPC   GL139013  31.449  15.980   6.155
 8515POPC   GL239014  31.586  16.039   6.155
 8515POPC   C1A39015  31.464  15.968   6.455
 8515POPC   D2A39016  31.475  15.948   6.755
 8515POPC   C3A39017  31.455  15.942   7.055
 8515POPC   C4A39018  31.479  15.991   7.355
 8515POPC   C1B39019  31.725  16.046   6.455
 8515POPC   C2B39020  31.656  16.030   6.755
 8515POPC   C3B39021  31.721  16.075   7.055
 8515POPC   C4B39022  31.657  15.996   7.355
 8516POPC   NC339023   0.441  14.408   5.555
 8516POPC   PO439024   0.485  14.407   5.855
 8516POPC   GL139025   0.405  14.367   6.155
 8516POPC   GL239026   0.600  14.313   6.155
 8516POPC   C1A39027   0.409  14.360   6.455
 8516POPC   D2A39028   0.425  14.429   6.755
 8516POPC   C3A39029   0.441  14.423   7.055
 8516POPC   C4A39030   0.473  14.412   7.355
 8516POPC   C1B39031   0.650  14.339   6.455
 8516POPC   C2B39032   0.693  14.264   6.755
 8516POPC   C3B39033   0.635  14.283   7.055
 8516POPC   C4B39034   0.650  14.291   7.355
 8517POPC   NC339035   2.783  41.571   5.555
 8517POPC   PO439036   2.802  41.603   5.855
 8517POPC   GL139037   2.739  41.575   6.155
 8517POPC   GL239038   2.713  41.430   6.155
 8517POPC   C1A39039   2.797  41.582   6.455
 8517POPC   D2A39040   2.748  41.608   6.755
 8517POPC   C3A39041   2.733  41.605   7.055
 8517POPC   C4A39042   2.764  41.526   7.355
 8517POPC   C1B39043   2.714  41.333   6.455
 8517POPC   C2B39044   2.756  41.323   6.755
 8517POPC   C3B39045   2.720  41.318   7.055
 8517POPC   C4B39046   2.783  41.264   7.355
 8518POPC   NC339047   2.749  18.302   5.555
 8518POPC   PO439048   2.726  18.316   5.855
 8518POPC   GL139049   2.815  18.233   6.155
 8518POPC   GL239050   2.909  18.282   6.155
 8518POPC   C1A39051   2.815  18.324   6.455
 8518POPC   D2A39052   2.812  18.333   6.755
 8518POPC   C3A39053   2.746  18.330   7.055
 8518POPC   C4A39054   2.786  18.277   7.355
 8518POPC   C1B39055   3.030  18.195   6.455
 8518POPC   C2B39056   3.041  18.270   6.755
 8518POPC   C3B39057   2.995  18.261   7.055
 8518POPC   C4B39058   3.051  18.242   7.355
 8519POPC   NC339059  23.713  43.920   5.555
 8519POPC   PO439060  23.714  43.918   5.855
 8519POPC   GL139061  23.710  43.847   6.155
 8519POPC   GL239062  23.707  43.802   6.155
 8519POPC   C1A39063  23.685  43.921   6.455
 8519POPC   D2A39064  23.707  43.876   6.755
 8519POPC   C3A39065  23.744  43.893   7.055
 8519POPC   C4A39066  23.683  43.866   7.355
 8519POPC   C1B39067  23.661  43.608   6.455
 8519POPC   C2B39068  23.644  43.646   6.755
 8519POPC   C3B39069  23.631  43.615   7.055
 8519POPC   C4B39070  23.684  43.623   7.355
 8520POPC   NC339071   7.404   2.752   5.555
 8520POPC   PO439072   7.414   2.769   5.855
 8520POPC   GL139073   7.425   2.814   6.155
 8520POPC   GL239074   7.548   2.793   6.155
 8520POPC   C1A39075   7.394   2.808   6.455
 8520POPC   D2A39076   7.455   2.777   6.755
 8520POPC   C3A39077   7.393   2.805   7.055
 8520POPC   C4A39078   7.465   2.787   7.355
 8520POPC   C1B39079   7.710   2.709   6.455
 8520POPC   C2B39080   7.691   2.704   6.755
 8520POPC   C3B39081   7.679   2.735   7.055
 8520POPC   C4B39082   7.639   2.691   7.355
 8521POPC   NC339083  33.781  15.961   5.555
 8521POPC   PO439084  33.763  15.925   5.855
 8521POPC   GL139085  33.786  15.905   6.155
 8521POPC   GL239086  33.864  15.842   6.155
 8521POPC   C1A39087  33.790  15.994   6.455
 8521POPC   D2A39088  33.773  15.973   6.755
 8521POPC   C3A39089  33.845  15.945   7.055
 8521POPC   C4A39090  33.788  15.940   7.355
 8521POPC   C1B39091  33.858  15.680   6.455
 8521POPC   C2B39092  33.842  15.695   6.755
 8521POPC   C3B39093  33.835  15.742   7.055
 8521POPC   C4B39094  33.806  15.749   7.355
 8522POPC   NC339095  42.376  37.645   5.555
 8522POPC   PO439096  42.289  37.711   5.855
 8522POPC   GL139097  42.340  37.707   6.155
 8522POPC   GL239098  42.250  37.675   6.155
 8522POPC   C1A39099  42.350  37.656   6.455
 8522POPC   D2A39100  42.292  37.685   6.755
 8522POPC   C3A39101  42.318  37.709   7.055
 8522POPC   C4A39102  42.346  37.711   7.355
 8522POPC   C1B39103  42.118  37.654   6.455
 8522POPC   C2B39104  42.112  37.698   6.755
 8522POPC   C3B39105  42.129  37.603   7.055
 8522POPC   C4B39106  42.097  37.678   7.355
 8523POPC   NC339107   0.421   8.967   5.555
 8523POPC   PO439108   0.410   8.992   5.855
 8523POPC   GL139109   0.487   8.950   6.155
 8523POPC   GL239110   0.577   9.013   6.155
 8523POPC   C1A39111   0.460   8.938   6.455
 8523POPC   D2A39112   0.444   8.997   6.755
 8523POPC   C3A39113   0.392   8.936   7.055
 8523POPC   C4A39114   0.451   8.944   7.355
 8523POPC   C1B39115   0.709   9.039   6.455
 8523POPC   C2B39116   0.682   8.975   6.755
 8523POPC   C3B39117   0.706   9.040   7.055
 8523POPC   C4B39118   0.664   8.958   7.355
 8524POPC   NC339119  14.388  31.467   5.555
 8524POPC   PO439120  14.449  31.521   5.855
 8524POPC   GL139121  14.363  31.436   6.155
 8524POPC   GL239122  14.303  31.513   6.155
 8524POPC   C1A39123  14.409  31.433   6.455
 8524POPC   D2A39124  14.377  31.457   6.755
 8524POPC   C3A39125  14.440  31.520   7.055
 8524POPC   C4A39126  14.395  31.514   7.355
 8524POPC   C1B39127  14.129  31.603   6.455
 8524POPC   C2B39128  14.142  31.592   6.755
 8524POPC   C3B39129  14.201  31.535   7.055
 8524POPC   C4B39130  14.194  31.590   7.355
 8525POPC   NC339131  19.024  36.953   5.555
 8525POPC   PO439132  19.084  36.940   5.855
 8525POPC   GL139133  19.060  36.932   6.155
 8525POPC   GL239134  19.081  36.993   6.155
 8525POPC   C1A39135  19.025  36.893   6.455
 8525POPC   D2A39136  19.010  36.909   6.755
 8525POPC   C3A39137  19.049  36.929   7.055
 8525POPC   C4A39138  19.062  36.941   7.355
 8525POPC   C1B39139  19.104  37.169   6.455
 8525POPC   C2B39140  19.054  37.193   6.755
 8525POPC   C3B39141  19.092  37.145   7.055
 8525POPC   C4B39142  19.129  37.198   7.355
 8526POPC   NC339143  29.891  22.957   5.555
 8526POPC   PO439144  29.924  22.986   5.855
 8526POPC   GL139145  29.937  22.948   6.155
 8526POPC   GL239146  29.781  22.918   6.155
 8526POPC   C1A39147  29.932  22.968   6.455
 8526POPC   D2A39148  29.963  22.961   6.755
 8526POPC   C3A39149  29.961  22.891   7.055
 8526POPC   C4A39150  29.900  22.903   7.355
 8526POPC   C1B39151  29.715  22.939   6.455
 8526POPC   C2B39152  29.677  22.987   6.755
 8526POPC   C3B39153  29.691  22.947   7.055
 8526POPC   C4B39154  29.630  22.922   7.355
 8527POPC   NC339155  25.272  44.627   5.555
 8527POPC   PO439156  25.263  44.639   5.855
 8527POPC   GL139157  25.224  44.666   6.155
 8527POPC   GL239158  25.123  44.641   6.155
 8527POPC   C1A39159  25.296  44.650   6.455
 8527POPC   D2A39160  25.252  44.661   6.755
 8527POPC   C3A39161  25.290  44.635   7.055
 8527POPC   C4A39162  25.272  44.712   7.355
 8527POPC   C1B39163  24.970  44.686   6.455
 8527POPC   C2B39164  24.985  44.668   6.755
 8527POPC   C3B39165  25.017  44.684   7.055
 8527POPC   C4B39166  24.977  44.642   7.355
 8528POPC   NC339167  40.747  42.378   5.555
 8528POPC   PO439168  40.767  42.338   5.855
 8528POPC   GL139169  40.823  42.381   6.155
 8528POPC   GL239170  40.714  42.433   6.155
 8528POPC   C1A39171  40.828  42.361   6.455
 8528POPC   D2A39172  40.797  42.377   6.755
 8528POPC   C3A39173  40.780  42.377   7.055
 8528POPC   C4A39174  40.788  42.290   7.355
 8528POPC   C1B39175  40.629  42.584   6.455
 8528POPC   C2B39176  40.671  42.579   6.755
 8528POPC   C3B39177  40.639  42.585   7.055
 8528POPC   C4B39178  40.645  42.506   7.355
 8529POPC   NC339179  27.571  36.095   5.555
 8529POPC   PO439180  27.555  36.157   5.855
 8529POPC   GL139181  27.568  36.111   6.155
 8529POPC   GL239182  27.631  36.288   6.155
 8529POPC   C1A39183  27.616  36.136   6.455
 8529POPC   D2A39184  27.548  36.167   6.755
 8529POPC   C3A39185  27.616  36.079   7.055
 8529POPC   C4A39186  27.601  36.116   7.355
 8529POPC   C1B39187  27.608  36.342   6.455
 8529POPC   C2B39188  27.622  36.405   6.755
 8529POPC   C3B39189  27.550  36.367   7.055
 8529POPC   C4B39190  27.630  36.416   7.355
 8530POPC   NC339191  43.836  29.106   5.555
 8530POPC   PO439192  43.935  29.098   5.855
 8530POPC   GL139193  43.852  29.167   6.155
 8530POPC   GL239194  43.927  29.223   6.155
 8530POPC   C1A39195  43.843  29.122   6.455
 8530POPC   D2A39196  43.893  29.190   6.755
 8530POPC   C3A39197  43.932  29.123   7.055
 8530POPC   C4A39198  43.870  29.165   7.355
 8530POPC   C1B39199  43.863  29.374   6.455
 8530POPC   C2B39200  43.925  29.423   6.755
 8530POPC   C3B39201  43.860  29.409   7.055
 8530POPC   C4B39202  43.949  29.360   7.355
 8531POPC   NC339203  15.955  36.864   5.555
 8531POPC   PO439204  15.963  36.867   5.855
 8531POPC   GL139205  15.914  36.916   6.155
 8531POPC   GL239206  15.956  37.061   6.155
 8531POPC   C1A39207  15.931  36.888   6.455
 8531POPC   D2A39208  15.914  36.890   6.755
 8531POPC   C3A39209  15.966  36.873   7.055
 8531POPC   C4A39210  15.972  36.890   7.355
 8531POPC   C1B39211  15.950  37.197   6.455
 8531POPC   C2B39212  15.975  37.110   6.755
 8531POPC   C3B39213  16.017  37.182   7.055
 8531POPC   C4B39214  15.972  37.123   7.355
 8532POPC   NC339215  35.368   5.118   5.555
 8532POPC   PO439216  35.321   5.051   5.855
 8532POPC   GL139217  35.374   5.071   6.155
 8532POPC   GL239218  35.485   4.968   6.155
 8532POPC   C1A39219  35.353   5.068   6.455
 8532POPC   D2A39220  35.302   5.072   6.755
 8532POPC   C3A39221  35.383   5.106   7.055
 8532POPC   C4A39222  35.323   5.114   7.355
 8532POPC   C1B39223  35.528   4.887   6.455
 8532POPC   C2B39224  35.532   4.982   6.755
 8532POPC   C3B39225  35.562   4.980   7.055
 8532POPC   C4B39226  35.576   4.924   7.355
 8533POPC   NC339227  20.646  16.689   5.555
 8533POPC   PO439228  20.644  16.734   5.855
 8533POPC   GL139229  20.620  16.762   6.155
 8533POPC   GL239230  20.520  16.836   6.155
 8533POPC   C1A39231  20.597  16.690   6.455
 8533POPC   D2A39232  20.562  16.723   6.755
 8533POPC   C3A39233  20.650  16.756   7.055
 8533POPC   C4A39234  20.583  16.745   7.355
 8533POPC   C1B39235  20.404  16.922   6.455
 8533POPC   C2B39236  20.446  16.962   6.755
 8533POPC   C3B39237  20.478  16.903   7.055
 8533POPC   C4B39238  20.469  16.960   7.355
 8534POPC   NC339239  44.696  21.401   5.555
 8534POPC   PO439240  44.640  21.364   5.855
 8534POPC   GL139241  44.672  21.395   6.155
 8534POPC   GL239242  44.682  21.554   6.155
 8534POPC   C1A39243  44.622  21.374   6.455
 8534POPC   D2A39244  44.624  21.421   6.755
 8534POPC   C3A39245  44.645  21.346   7.055
 8534POPC   C4A39246  44.688  21.354   7.355
 8534POPC   C1B39247  44.705  21.635   6.455
 8534POPC   C2B39248  44.701  21.596   6.755
 8534POPC   C3B39249  44.738  21.581   7.055
 8534POPC   C4B39250  44.672  21.672   7.355
 8535POPC   NC339251  30.739   7.407   5.555
 8535POPC   PO439252  30.651   7.398   5.855
 8535POPC   GL139253  30.687   7.400   6.155
 8535POPC   GL239254  30.756   7.516   6.155
 8535POPC   C1A39255  30.728   7.371   6.455
 8535POPC   D2A39256  30.715   7.447   6.755
 8535POPC   C3A39257  30.690   7.468   7.055
 8535POPC   C4A39258  30.654   7.463   7.355
 8535POPC   C1B39259  30.933   7.604   6.455
 8535POPC   C2B39260  30.869   7.592   6.755
 8535POPC   C3B39261  30.856   7.548   7.055
 8535POPC   C4B39262  30.905   7.584   7.355
 8536POPC   NC339263   9.006  35.319   5.555
 8536POPC   PO439264   8.945  35.339   5.855
 8536POPC   GL139265   8.949  35.396   6.155
 8536POPC   GL239266   9.117  35.419   6.155
 8536POPC   C1A39267   8.928  35.334   6.455
 8536POPC   D2A39268   8.979  35.385   6.755
 8536POPC   C3A39269   8.997  35.314   7.055
 8536POPC   C4A39270   8.936  35.331   7.355
 8536POPC   C1B39271   9.217  35.490   6.455
 8536POPC   C2B39272   9.223  35.500   6.755
 8536POPC   C3B39273   9.147  35.454   7.055
 8536POPC   C4B39274   9.150  35.520   7.355
 8537POPC   NC339275  11.256  15.964   5.555
 8537POPC   PO439276  11.264  15.981   5.855
 8537POPC   GL139277  11.251  15.925   6.155
 8537POPC   GL239278  11.296  15.826   6.155
 8537POPC   C1A39279  11.279  15.956   6.455
 8537POPC   D2A39280  11.313  16.000   6.755
 8537POPC   C3A39281  11.260  15.966   7.055
 8537POPC   C4A39282  11.269  15.940   7.355
 8537POPC   C1B39283  11.252  15.682   6.455
 8537POPC   C2B39284  11.259  15.683   6.755
 8537POPC   C3B39285  11.286  15.730   7.055
 8537POPC   C4B39286  11.230  15.721   7.355
 8538POPC   NC339287  14.395  16.751   5.555
 8538POPC   PO439288  14.402  16.774   5.855
 8538POPC   GL139289  14.438  16.747   6.155
 8538POPC   GL239290  14.340  16.701   6.155
 8538POPC   C1A39291  14.433  16.724   6.455
 8538POPC   D2A39292  14.379  16.686   6.755
 8538POPC   C3A39293  14.431  16.746   7.055
 8538POPC   C4A39294  14.418  16.745   7.355
 8538POPC   C1B39295  14.160  16.610   6.455
 8538POPC   C2B39296  14.197  16.611   6.755
 8538POPC   C3B39297  14.167  16.639   7.055
 8538POPC   C4B39298  14.212  16.635   7.355
 8539POPC   NC339299  29.901  16.734   5.555
 8539POPC   PO439300  29.884  16.694   5.855
 8539POPC   GL139301  29.902  16.720   6.155
 8539POPC   GL239302  30.040  16.710   6.155
 8539POPC   C1A39303  29.908  16.688   6.455
 8539POPC   D2A39304  29.916  16.764   6.755
 8539POPC   C3A39305  29.958  16.749   7.055
 8539POPC   C4A39306  29.892  16.731   7.355
 8539POPC   C1B39307  30.184  16.587   6.455
 8539POPC   C2B39308  30.151  16.617   6.755
 8539POPC   C3B39309  30.171  16.617   7.055
 8539POPC   C4B39310  30.097  16.672   7.355
 8540POPC   NC339311  39.209  31.439   5.555
 8540POPC   PO439312  39.259  31.430   5.855
 8540POPC   GL139313  39.246  31.501   6.155
 8540POPC   GL239314  39.230  31.313   6.155
 8540POPC   C1A39315  39.254  31.514   6.455
 8540POPC   D2A39316  39.190  31.517   6.755
 8540POPC   C3A39317  39.199  31.519   7.055
 8540POPC   C4A39318  39.238  31.520   7.355
 8540POPC   C1B39319  39.178  31.232   6.455
 8540POPC   C2B39320  39.161  31.284   6.755
 8540POPC   C3B39321  39.165  31.249   7.055
 8540POPC   C4B39322  39.120  31.263   7.355
 8541POPC   NC339323  10.543  13.663   5.555
 8541POPC   PO439324  10.498  13.610   5.855
 8541POPC   GL139325  10.520  13.671   6.155
 8541POPC   GL239326  10.410  13.540   6.155
 8541POPC   C1A39327  10.553  13.590   6.455
 8541POPC   D2A39328  10.483  13.613   6.755
 8541POPC   C3A39329  10.518  13.642   7.055
 8541POPC   C4A39330  10.557  13.584   7.355
 8541POPC   C1B39331  10.323  13.432   6.455
 8541POPC   C2B39332  10.350  13.447   6.755
 8541POPC   C3B39333  10.364  13.471   7.055
 8541POPC   C4B39334  10.325  13.389   7.355
 8542POPC   NC339335  17.516   4.341   5.555
 8542POPC   PO439336  17.473   4.311   5.855
 8542POPC   GL139337  17.487   4.291   6.155
 8542POPC   GL239338  17.509   4.492   6.155
 8542POPC   C1A39339  17.460   4.337   6.455
 8542POPC   D2A39340  17.466   4.284   6.755
 8542POPC   C3A39341  17.531   4.273   7.055
 8542POPC   C4A39342  17.556   4.349   7.355
 8542POPC   C1B39343  17.489   4.604   6.455
 8542POPC   C2B39344  17.557   4.519   6.755
 8542POPC   C3B39345  17.473   4.606   7.055
 8542POPC   C4B39346  17.486   4.590   7.355
 8543POPC   NC339347  41.581  39.190   5.555
 8543POPC   PO439348  41.559  39.212   5.855
 8543POPC   GL139349  41.521  39.248   6.155
 8543POPC   GL239350  41.721  39.304   6.155
 8543POPC   C1A39351  41.568  39.202   6.455
 8543POPC   D2A39352  41.548  39.241   6.755
 8543POPC   C3A39353  41.581  39.225   7.055
 8543POPC   C4A39354  41.526  39.273   7.355
 8543POPC   C1B39355  41.797  39.284   6.455
 8543POPC   C2B39356  41.808  39.310   6.755
 8543POPC   C3B39357  41.799  39.282   7.055
 8543POPC   C4B39358  41.785  39.339   7.355
 8544POPC   NC339359   9.012  11.252   5.555
 8544POPC   PO439360   8.997  11.346   5.855
 8544POPC   GL139361   8.923  11.261   6.155
 8544POPC   GL239362   8.869  11.254   6.155
 8544POPC   C1A39363   8.930  11.328   6.455
 8544POPC   D2A39364   8.926  11.262   6.755
 8544POPC   C3A39365   8.981  11.340   7.055
 8544POPC   C4A39366   9.016  11.316   7.355
 8544POPC   C1B39367   8.812  11.104   6.455
 8544POPC   C2B39368   8.780  11.110   6.755
 8544POPC   C3B39369   8.826  11.174   7.055
 8544POPC   C4B39370   8.831  11.088   7.355
 8545POPC   NC339371  26.058  26.864   5.555
 8545POPC   PO439372  26.030  26.768   5.855
 8545POPC   GL139373  26.007  26.840   6.155
 8545POPC   GL239374  26.159  26.816   6.155
 8545POPC   C1A39375  26.066  26.822   6.455
 8545POPC   D2A39376  26.046  26.823   6.755
 8545POPC   C3A39377  26.059  26.808   7.055
 8545POPC   C4A39378  26.024  26.792   7.355
 8545POPC   C1B39379  26.302  26.817   6.455
 8545POPC   C2B39380  26.303  26.794   6.755
 8545POPC   C3B39381  26.296  26.777   7.055
 8545POPC   C4B39382  26.253  26.822   7.355
 8546POPC   NC339383  30.733  13.630   5.555
 8546POPC   PO439384  30.715  13.643   5.855
 8546POPC   GL139385  30.709  13.615   6.155
 8546POPC   GL239386  30.565  13.631   6.155
 8546POPC   C1A39387  30.679  13.644   6.455
 8546POPC   D2A39388  30.717  13.610   6.755
 8546POPC   C3A39389  30.693  13.630   7.055
 8546POPC   C4A39390  30.662  13.668   7.355
 8546POPC   C1B39391  30.414  13.712   6.455
 8546POPC   C2B39392  30.478  13.686   6.755
 8546POPC   C3B39393  30.466  13.738   7.055
 8546POPC   C4B39394  30.496  13.680   7.355
 8547POPC   NC339395  26.045  25.991   5.555
 8547POPC   PO439396  26.042  26.045   5.855
 8547POPC   GL139397  26.004  26.038   6.155
 8547POPC   GL239398  26.040  26.197   6.155
 8547POPC   C1A39399  26.014  26.045   6.455
 8547POPC   D2A39400  26.039  26.053   6.755
 8547POPC   C3A39401  26.081  26.053   7.055
 8547POPC   C4A39402  26.007  26.024   7.355
 8547POPC   C1B39403  25.956  26.253   6.455
 8547POPC   C2B39404  25.945  26.313   6.755
 8547POPC   C3B39405  26.002  26.255   7.055
 8547POPC   C4B39406  25.954  26.303   7.355
 8548POPC   NC339407  36.882  40.789   5.555
 8548POPC   PO439408  36.941  40.740   5.855
 8548POPC   GL139409  36.879  40.829   6.155
 8548POPC   GL239410  36.750  40.805   6.155
 8548POPC   C1A39411  36.950  40.761   6.455
 8548POPC   D2A39412  36.861  40.746   6.755
 8548POPC   C3A39413  36.855  40.820   7.055
 8548POPC   C4A39414  36.922  40.825   7.355
 8548POPC   C1B39415  36.681  40.878   6.455
 8548POPC   C2B39416  36.619  40.869   6.755
 8548POPC   C3B39417  36.699  40.865   7.055
 8548POPC   C4B39418  36.640  40.836   7.355
 8549POPC   NC339419  43.087  38.477   5.555
 8549POPC   PO439420  43.134  38.450   5.855
 8549POPC   GL139421  43.138  38.479   6.155
 8549POPC   GL239422  43.143  38.341   6.155
 8549POPC   C1A39423  43.149  38.493   6.455
 8549POPC   D2A39424  43.117  38.489   6.755
 8549POPC   C3A39425  43.150  38.453   7.055
 8549POPC   C4A39426  43.152  38.407   7.355
 8549POPC   C1B39427  43.059  38.246   6.455
 8549POPC   C2B39428  43.080  38.168   6.755
 8549POPC   C3B39429  43.092  38.171   7.055
 8549POPC   C4B39430  43.132  38.213   7.355
 8550POPC   NC339431  37.664  26.028   5.555
 8550POPC   PO439432  37.697  26.008   5.855
 8550POPC   GL139433  37.645  26.013   6.155
 8550POPC   GL239434  37.628  25.907   6.155
 8550POPC   C1A39435  37.638  26.043   6.455
 8550POPC   D2A39436  37.644  26.037   6.755
 8550POPC   C3A39437  37.715  26.054   7.055
 8550POPC   C4A39438  37.663  26.051   7.355
 8550POPC   C1B39439  37.630  25.771   6.455
 8550POPC   C2B39440  37.615  25.770   6.755
 8550POPC   C3B39441  37.576  25.833   7.055
 8550POPC   C4B39442  37.589  25.853   7.355
 8551POPC   NC339443  29.195  44.631   5.555
 8551POPC   PO439444  29.120  44.709   5.855
 8551POPC   GL139445  29.104  44.701   6.155
 8551POPC   GL239446  29.283  44.705   6.155
 8551POPC   C1A39447  29.138  44.639   6.455
 8551POPC   D2A39448  29.144  44.670   6.755
 8551POPC   C3A39449  29.104  44.631   7.055
 8551POPC   C4A39450  29.125  44.622   7.355
 8551POPC   C1B39451  29.368  44.690   6.455
 8551POPC   C2B39452  29.384  44.665   6.755
 8551POPC   C3B39453  29.347  44.624   7.055
 8551POPC   C4B39454  29.395  44.637   7.355
 8552POPC   NC339455   4.314  22.134   5.555
 8552POPC   PO439456   4.329  22.196   5.855
 8552POPC   GL139457   4.312  22.173   6.155
 8552POPC   GL239458   4.462  22.265   6.155
 8552POPC   C1A39459   4.367  22.168   6.455
 8552POPC   D2A39460   4.346  22.142   6.755
 8552POPC   C3A39461   4.290  22.189   7.055
 8552POPC   C4A39462   4.308  22.209   7.355
 8552POPC   C1B39463   4.548  22.285   6.455
 8552POPC   C2B39464   4.475  22.325   6.755
 8552POPC   C3B39465   4.479  22.277   7.055
 8552POPC   C4B39466   4.542  22.305   7.355
 8553POPC   NC339467  36.914  15.227   5.555
 8553POPC   PO439468  36.927  15.184   5.855
 8553POPC   GL139469  36.880  15.221   6.155
 8553POPC   GL239470  36.955  15.088   6.155
 8553POPC   C1A39471  36.951  15.224   6.455
 8553POPC   D2A39472  36.913  15.143   6.755
 8553POPC   C3A39473  36.888  15.214   7.055
 8553POPC   C4A39474  36.916  15.172   7.355
 8553POPC   C1B39475  36.950  14.894   6.455
 8553POPC   C2B39476  36.915  14.945   6.755
 8553POPC   C3B39477  36.866  14.974   7.055
 8553POPC   C4B39478  36.939  14.935   7.355
 8554POPC   NC339479   5.110  43.111   5.555
 8554POPC   PO439480   5.129  43.094   5.855
 8554POPC   GL139481   5.142  43.109   6.155
 8554POPC   GL239482   4.959  42.995   6.155
 8554POPC   C1A39483   5.133  43.115   6.455
 8554POPC   D2A39484   5.056  43.067   6.755
 8554POPC   C3A39485   5.062  43.109   7.055
 8554POPC   C4A39486   5.113  43.077   7.355
 8554POPC   C1B39487   4.898  42.980   6.455
 8554POPC   C2B39488   4.900  42.912   6.755
 8554POPC   C3B39489   4.944  42.910   7.055
 8554POPC   C4B39490   4.912  42.970   7.355
 8555POPC   NC339491  15.206  11.265   5.555
 8555POPC   PO439492  15.183  11.321   5.855
 8555POPC   GL139493  15.225  11.260   6.155
 8555POPC   GL239494  15.281  11.258   6.155
 8555POPC   C1A39495  15.137  11.318   6.455
 8555POPC   D2A39496  15.198  11.276   6.755
 8555POPC   C3A39497  15.162  11.307   7.055
 8555POPC   C4A39498  15.134  11.335   7.355
 8555POPC   C1B39499  15.401  11.187   6.455
 8555POPC   C2B39500  15.359  11.176   6.755
 8555POPC   C3B39501  15.372  11.167   7.055
 8555POPC   C4B39502  15.442  11.153   7.355
 8556POPC   NC339503   2.739   7.396   5.555
 8556POPC   PO439504   2.747   7.465   5.855
 8556POPC   GL139505   2.771   7.411   6.155
 8556POPC   GL239506   2.690   7.341   6.155
 8556POPC   C1A39507   2.808   7.411   6.455
 8556POPC   D2A39508   2.772   7.462   6.755
 8556POPC   C3A39509   2.750   7.404   7.055
 8556POPC   C4A39510   2.731   7.424   7.355
 8556POPC   C1B39511   2.602   7.237   6.455
 8556POPC   C2B39512   2.590   7.171   6.755
 8556POPC   C3B39513   2.641   7.194   7.055
 8556POPC   C4B39514   2.592   7.238   7.355
 8557POPC   NC339515  36.115  16.769   5.555
 8557POPC   PO439516  36.149  16.746   5.855
 8557POPC   GL139517  36.169  16.729   6.155
 8557POPC   GL239518  36.225  16.704   6.155
 8557POPC   C1A39519  36.096  16.780   6.455
 8557POPC   D2A39520  36.167  16.751   6.755
 8557POPC   C3A39521  36.095  16.759   7.055
 8557POPC   C4A39522  36.136  16.770   7.355
 8557POPC   C1B39523  36.414  16.770   6.455
 8557POPC   C2B39524  36.388  16.707   6.755
 8557POPC   C3B39525  36.358  16.710   7.055
 8557POPC   C4B39526  36.378  16.776   7.355
 8558POPC   NC339527  39.261  15.163   5.555
 8558POPC   PO439528  39.276  15.176   5.855
 8558POPC   GL139529  39.186  15.151   6.155
 8558POPC   GL239530  39.280  15.027   6.155
 8558POPC   C1A39531  39.232  15.142   6.455
 8558POPC   D2A39532  39.226  15.159   6.755
 8558POPC   C3A39533  39.216  15.228   7.055
 8558POPC   C4A39534  39.247  15.206   7.355
 8558POPC   C1B39535  39.331  14.964   6.455
 8558POPC   C2B39536  39.289  14.986   6.755
 8558POPC   C3B39537  39.273  14.910   7.055
 8558POPC   C4B39538  39.304  14.924   7.355
 8559POPC   NC339539  17.519  29.896   5.555
 8559POPC   PO439540  17.549  29.891   5.855
 8559POPC   GL139541  17.484  29.934   6.155
 8559POPC   GL239542  17.393  29.971   6.155
 8559POPC   C1A39543  17.486  29.930   6.455
 8559POPC   D2A39544  17.555  29.951   6.755
 8559POPC   C3A39545  17.520  29.970   7.055
 8559POPC   C4A39546  17.459  29.959   7.355
 8559POPC   C1B39547  17.243  29.947   6.455
 8559POPC   C2B39548  17.222  29.918   6.755
 8559POPC   C3B39549  17.251  30.011   7.055
 8559POPC   C4B39550  17.234  29.921   7.355
 8560POPC   NC339551  23.716  13.637   5.555
 8560POPC   PO439552  23.674  13.672   5.855
 8560POPC   GL139553  23.703  13.629   6.155
 8560POPC   GL239554  23.746  13.491   6.155
 8560POPC   C1A39555  23.736  13.648   6.455
 8560POPC   D2A39556  23.756  13.639   6.755
 8560POPC   C3A39557  23.763  13.666   7.055
 8560POPC   C4A39558  23.749  13.598   7.355
 8560POPC   C1B39559  23.743  13.382   6.455
 8560POPC   C2B39560  23.741  13.399   6.755
 8560POPC   C3B39561  23.808  13.436   7.055
 8560POPC   C4B39562  23.747  13.403   7.355
 8561POPC   NC339563   8.194  32.232   5.555
 8561POPC   PO439564   8.240  32.261   5.855
 8561POPC   GL139565   8.190  32.227   6.155
 8561POPC   GL239566   8.276  32.314   6.155
 8561POPC   C1A39567   8.228  32.207   6.455
 8561POPC   D2A39568   8.208  32.250   6.755
 8561POPC   C3A39569   8.212  32.266   7.055
 8561POPC   C4A39570   8.148  32.278   7.355
 8561POPC   C1B39571   8.323  32.471   6.455
 8561POPC   C2B39572   8.403  32.407   6.755
 8561POPC   C3B39573   8.385  32.413   7.055
 8561POPC   C4B39574   8.355  32.454   7.355
 8562POPC   NC339575  38.494  12.091   5.555
 8562POPC   PO439576  38.491  12.102   5.855
 8562POPC   GL139577  38.432  12.096   6.155
 8562POPC   GL239578  38.599  12.138   6.155
 8562POPC   C1A39579  38.477  12.113   6.455
 8562POPC   D2A39580  38.435  12.061   6.755
 8562POPC   C3A39581  38.457  12.103   7.055
 8562POPC   C4A39582  38.503  12.049   7.355
 8562POPC   C1B39583  38.686  12.124   6.455
 8562POPC   C2B39584  38.714  12.149   6.755
 8562POPC   C3B39585  38.730  12.199   7.055
 8562POPC   C4B39586  38.674  12.191   7.355
 8563POPC   NC339587  39.977  21.430   5.555
 8563POPC   PO439588  39.983  21.339   5.855
 8563POPC   GL139589  40.034  21.406   6.155
 8563POPC   GL239590  39.950  21.474   6.155
 8563POPC   C1A39591  40.029  21.428   6.455
 8563POPC   D2A39592  40.048  21.367   6.755
 8563POPC   C3A39593  40.028  21.408   7.055
 8563POPC   C4A39594  40.047  21.432   7.355
 8563POPC   C1B39595  39.917  21.616   6.455
 8563POPC   C2B39596  39.889  21.645   6.755
 8563POPC   C3B39597  39.916  21.653   7.055
 8563POPC   C4B39598  39.926  21.667   7.355
 8564POPC   NC339599   8.223  37.645   5.555
 8564POPC   PO439600   8.186  37.698   5.855
 8564POPC   GL139601   8.180  37.640   6.155
 8564POPC   GL239602   8.197  37.537   6.155
 8564POPC   C1A39603   8.244  37.661   6.455
 8564POPC   D2A39604   8.223  37.721   6.755
 8564POPC   C3A39605   8.160  37.644   7.055
 8564POPC   C4A39606   8.245  37.723   7.355
 8564POPC   C1B39607   8.100  37.475   6.455
 8564POPC   C2B39608   8.162  37.426   6.755
 8564POPC   C3B39609   8.116  37.403   7.055
 8564POPC   C4B39610   8.163  37.472   7.355
 8565POPC   NC339611  17.502  43.854   5.555
 8565POPC   PO439612  17.554  43.935   5.855
 8565POPC   GL139613  17.530  43.837   6.155
 8565POPC   GL239614  17.601  43.813   6.155
 8565POPC   C1A39615  17.521  43.915   6.455
 8565POPC   D2A39616  17.554  43.885   6.755
 8565POPC   C3A39617  17.463  43.905   7.055
 8565POPC   C4A39618  17.525  43.904   7.355
 8565POPC   C1B39619  17.659  43.630   6.455
 8565POPC   C2B39620  17.624  43.716   6.755
 8565POPC   C3B39621  17.597  43.657   7.055
 8565POPC   C4B39622  17.679  43.705   7.355
 8566POPC   NC339623  38.446  34.624   5.555
 8566POPC   PO439624  38.431  34.570   5.855
 8566POPC   GL139625  38.481  34.544   6.155
 8566POPC   GL239626  38.310  34.508   6.155
 8566POPC   C1A39627  38.469  34.559   6.455
 8566POPC   D2A39628  38.433  34.594   6.755
 8566POPC   C3A39629  38.439  34.578   7.055
 8566POPC   C4A39630  38.503  34.553   7.355
 8566POPC   C1B39631  38.226  34.411   6.455
 8566POPC   C2B39632  38.214  34.458   6.755
 8566POPC   C3B39633  38.251  34.416   7.055
 8566POPC   C4B39634  38.245  34.478   7.355
 8567POPC   NC339635  19.056   6.605   5.555
 8567POPC   PO439636  19.076   6.606   5.855
 8567POPC   GL139637  19.019   6.614   6.155
 8567POPC   GL239638  19.165   6.651   6.155
 8567POPC   C1A39639  19.049   6.609   6.455
 8567POPC   D2A39640  19.089   6.637   6.755
 8567POPC   C3A39641  19.052   6.642   7.055
 8567POPC   C4A39642  19.018   6.626   7.355
 8567POPC   C1B39643  19.330   6.730   6.455
 8567POPC   C2B39644  19.308   6.730   6.755
 8567POPC   C3B39645  19.298   6.707   7.055
 8567POPC   C4B39646  19.317   6.733   7.355
 8568POPC   NC339647  10.573  11.347   5.555
 8568POPC   PO439648  10.518  11.271   5.855
 8568POPC   GL139649  10.490  11.307   6.155
 8568POPC   GL239650  10.536  11.210   6.155
 8568POPC   C1A39651  10.497  11.259   6.455
 8568POPC   D2A39652  10.553  11.264   6.755
 8568POPC   C3A39653  10.487  11.323   7.055
 8568POPC   C4A39654  10.538  11.282   7.355
 8568POPC   C1B39655  10.599  11.125   6.455
 8568POPC   C2B39656  10.651  11.096   6.755
 8568POPC   C3B39657  10.596  11.130   7.055
 8568POPC   C4B39658  10.613  11.043   7.355
 8569POPC   NC339659  36.109  37.678   5.555
 8569POPC   PO439660  36.150  37.662   5.855
 8569POPC   GL139661  36.130  37.684   6.155
 8569POPC   GL239662  36.146  37.825   6.155
 8569POPC   C1A39663  36.133  37.709   6.455
 8569POPC   D2A39664  36.131  37.716   6.755
 8569POPC   C3A39665  36.159  37.642   7.055
 8569POPC   C4A39666  36.151  37.646   7.355
 8569POPC   C1B39667  36.304  37.888   6.455
 8569POPC   C2B39668  36.218  37.921   6.755
 8569POPC   C3B39669  36.254  37.936   7.055
 8569POPC   C4B39670  36.282  37.917   7.355
 8570POPC   NC339671  30.723   3.587   5.555
 8570POPC   PO439672  30.651   3.568   5.855
 8570POPC   GL139673  30.665   3.510   6.155
 8570POPC   GL239674  30.677   3.645   6.155
 8570POPC   C1A39675  30.654   3.551   6.455
 8570POPC   D2A39676  30.684   3.574   6.755
 8570POPC   C3A39677  30.698   3.580   7.055
 8570POPC   C4A39678  30.701   3.517   7.355
 8570POPC   C1B39679  30.591   3.749   6.455
 8570POPC   C2B39680  30.555   3.770   6.755
 8570POPC   C3B39681  30.536   3.774   7.055
 8570POPC   C4B39682  30.537   3.767   7.355
 8571POPC   NC339683  32.255  31.516   5.555
 8571POPC   PO439684  32.283  31.456   5.855
 8571POPC   GL139685  32.214  31.443   6.155
 8571POPC   GL239686  32.342  31.424   6.155
 8571POPC   C1A39687  32.233  31.499   6.455
 8571POPC   D2A39688  32.290  31.477   6.755
 8571POPC   C3A39689  32.295  31.430   7.055
 8571POPC   C4A39690  32.221  31.434   7.355
 8571POPC   C1B39691  32.457  31.422   6.455
 8571POPC   C2B39692  32.506  31.408   6.755
 8571POPC   C3B39693  32.457  31.411   7.055
 8571POPC   C4B39694  32.466  31.426   7.355
 8572POPC   NC339695   8.230  17.531   5.555
 8572POPC   PO439696   8.192  17.471   5.855
 8572POPC   GL139697   8.244  17.541   6.155
 8572POPC   GL239698   8.136  17.588   6.155
 8572POPC   C1A39699   8.184  17.466   6.455
 8572POPC   D2A39700   8.199  17.489   6.755
 8572POPC   C3A39701   8.153  17.523   7.055
 8572POPC   C4A39702   8.244  17.528   7.355
 8572POPC   C1B39703   8.146  17.734   6.455
 8572POPC   C2B39704   8.156  17.779   6.755
 8572POPC   C3B39705   8.144  17.787   7.055
 8572POPC   C4B39706   8.184  17.753   7.355
 8573POPC   NC339707  12.050  15.958   5.555
 8573POPC   PO439708  12.113  16.001   5.855
 8573POPC   GL139709  12.054  15.932   6.155
 8573POPC   GL239710  11.968  15.986   6.155
 8573POPC   C1A39711  12.109  15.994   6.455
 8573POPC   D2A39712  12.027  15.970   6.755
 8573POPC   C3A39713  12.036  15.941   7.055
 8573POPC   C4A39714  12.066  16.004   7.355
 8573POPC   C1B39715  11.822  15.964   6.455
 8573POPC   C2B39716  11.875  15.967   6.755
 8573POPC   C3B39717  11.872  15.994   7.055
 8573POPC   C4B39718  11.843  15.950   7.355
 8574POPC   NC339719  40.030  35.354   5.555
 8574POPC   PO439720  40.009  35.306   5.855
 8574POPC   GL139721  39.980  35.356   6.155
 8574POPC   GL239722  40.024  35.497   6.155
 8574POPC   C1A39723  40.014  35.344   6.455
 8574POPC   D2A39724  39.971  35.334   6.755
 8574POPC   C3A39725  39.994  35.392   7.055
 8574POPC   C4A39726  40.013  35.330   7.355
 8574POPC   C1B39727  39.950  35.564   6.455
 8574POPC   C2B39728  39.971  35.591   6.755
 8574POPC   C3B39729  39.962  35.589   7.055
 8574POPC   C4B39730  40.019  35.648   7.355
 8575POPC   NC339731  23.707   0.429   5.555
 8575POPC   PO439732  23.697   0.446   5.855
 8575POPC   GL139733  23.709   0.394   6.155
 8575POPC   GL239734  23.848   0.418   6.155
 8575POPC   C1A39735  23.721   0.408   6.455
 8575POPC   D2A39736  23.722   0.476   6.755
 8575POPC   C3A39737  23.684   0.425   7.055
 8575POPC   C4A39738  23.752   0.405   7.355
 8575POPC   C1B39739  23.917   0.525   6.455
 8575POPC   C2B39740  23.966   0.517   6.755
 8575POPC   C3B39741  23.982   0.498   7.055
 8575POPC   C4B39742  23.991   0.470   7.355
 8576POPC   NC339743   1.948   9.724   5.555
 8576POPC   PO439744   1.951   9.790   5.855
 8576POPC   GL139745   1.942   9.764   6.155
 8576POPC   GL239746   1.888   9.689   6.155
 8576POPC   C1A39747   1.946   9.726   6.455
 8576POPC   D2A39748   1.947   9.777   6.755
 8576POPC   C3A39749   2.030   9.786   7.055
 8576POPC   C4A39750   1.980   9.787   7.355
 8576POPC   C1B39751   1.718   9.700   6.455
 8576POPC   C2B39752   1.743   9.764   6.755
 8576POPC   C3B39753   1.734   9.778   7.055
 8576POPC   C4B39754   1.752   9.737   7.355
 8577POPC   NC339755  27.558  10.481   5.555
 8577POPC   PO439756  27.579  10.565   5.855
 8577POPC   GL139757  27.576  10.529   6.155
 8577POPC   GL239758  27.578  10.435   6.155
 8577POPC   C1A39759  27.622  10.482   6.455
 8577POPC   D2A39760  27.617  10.483   6.755
 8577POPC   C3A39761  27.634  10.546   7.055
 8577POPC   C4A39762  27.589  10.534   7.355
 8577POPC   C1B39763  27.613  10.256   6.455
 8577POPC   C2B39764  27.615  10.288   6.755
 8577POPC   C3B39765  27.572  10.309   7.055
 8577POPC   C4B39766  27.604  10.244   7.355
 8578POPC   NC339767   3.517   2.767   5.555
 8578POPC   PO439768   3.527   2.764   5.855
 8578POPC   GL139769   3.523   2.724   6.155
 8578POPC   GL239770   3.570   2.687   6.155
 8578POPC   C1A39771   3.549   2.810   6.455
 8578POPC   D2A39772   3.513   2.800   6.755
 8578POPC   C3A39773   3.591   2.798   7.055
 8578POPC   C4A39774   3.534   2.740   7.355
 8578POPC   C1B39775   3.524   2.536   6.455
 8578POPC   C2B39776   3.523   2.550   6.755
 8578POPC   C3B39777   3.510   2.478   7.055
 8578POPC   C4B39778   3.531   2.565   7.355
 8579POPC   NC339779  33.823  34.558   5.555
 8579POPC   PO439780  33.796  34.624   5.855
 8579POPC   GL139781  33.783  34.528   6.155
 8579POPC   GL239782  33.884  34.707   6.155
 8579POPC   C1A39783  33.772  34.544   6.455
 8579POPC   D2A39784  33.832  34.623   6.755
 8579POPC   C3A39785  33.792  34.532   7.055
 8579POPC   C4A39786  33.796  34.566   7.355
 8579POPC   C1B39787  33.870  34.784   6.455
 8579POPC   C2B39788  33.871  34.815   6.755
 8579POPC   C3B39789  33.952  34.835   7.055
 8579POPC   C4B39790  33.902  34.816   7.355
 8580POPC   NC339791  28.319   4.341   5.555
 8580POPC   PO439792  28.411   4.306   5.855
 8580POPC   GL139793  28.403   4.318   6.155
 8580POPC   GL239794  28.485   4.318   6.155
 8580POPC   C1A39795  28.393   4.347   6.455
 8580POPC   D2A39796  28.356   4.321   6.755
 8580POPC   C3A39797  28.350   4.315   7.055
 8580POPC   C4A39798  28.408   4.352   7.355
 8580POPC   C1B39799  28.598   4.357   6.455
 8580POPC   C2B39800  28.595   4.356   6.755
 8580POPC   C3B39801  28.583   4.276   7.055
 8580POPC   C4B39802  28.661   4.332   7.355
 8581POPC   NC339803  18.307  41.559   5.555
 8581POPC   PO439804  18.273  41.549   5.855
 8581POPC   GL139805  18.322  41.532   6.155
 8581POPC   GL239806  18.337  41.410   6.155
 8581POPC   C1A39807  18.263  41.581   6.455
 8581POPC   D2A39808  18.307  41.552   6.755
 8581POPC   C3A39809  18.285  41.591   7.055
 8581POPC   C4A39810  18.297  41.592   7.355
 8581POPC   C1B39811  18.324  41.336   6.455
 8581POPC   C2B39812  18.350  41.348   6.755
 8581POPC   C3B39813  18.305  41.332   7.055
 8581POPC   C4B39814  18.296  41.321   7.355
 8582POPC   NC339815  43.885   5.053   5.555
 8582POPC   PO439816  43.903   5.107   5.855
 8582POPC   GL139817  43.875   5.051   6.155
 8582POPC   GL239818  43.738   5.096   6.155
 8582POPC   C1A39819  43.882   5.096   6.455
 8582POPC   D2A39820  43.925   5.135   6.755
 8582POPC   C3A39821  43.841   5.088   7.055
 8582POPC   C4A39822  43.881   5.096   7.355
 8582POPC   C1B39823  43.680   5.156   6.455
 8582POPC   C2B39824  43.643   5.084   6.755
 8582POPC   C3B39825  43.669   5.101   7.055
 8582POPC   C4B39826  43.599   5.097   7.355
 8583POPC   NC339827  15.956  28.383   5.555
 8583POPC   PO439828  15.998  28.391   5.855
 8583POPC   GL139829  15.942  28.354   6.155
 8583POPC   GL239830  16.028  28.444   6.155
 8583POPC   C1A39831  15.973  28.390   6.455
 8583POPC   D2A39832  15.909  28.407   6.755
 8583POPC   C3A39833  15.919  28.397   7.055
 8583POPC   C4A39834  15.986  28.332   7.355
 8583POPC   C1B39835  16.173  28.474   6.455
 8583POPC   C2B39836  16.165  28.510   6.755
 8583POPC   C3B39837  16.185  28.446   7.055
 8583POPC   C4B39838  16.144  28.472   7.355
 8584POPC   NC339839  21.346  29.947   5.555
 8584POPC   PO439840  21.424  29.891   5.855
 8584POPC   GL139841  21.377  29.919   6.155
 8584POPC   GL239842  21.452  29.880   6.155
 8584POPC   C1A39843  21.385  29.881   6.455
 8584POPC   D2A39844  21.421  29.883   6.755
 8584POPC   C3A39845  21.386  29.897   7.055
 8584POPC   C4A39846  21.429  29.892   7.355
 8584POPC   C1B39847  21.572  29.773   6.455
 8584POPC   C2B39848  21.639  29.845   6.755
 8584POPC   C3B39849  21.591  29.774   7.055
 8584POPC   C4B39850  21.558  29.809   7.355
 8585POPC   NC339851   7.431  40.830   5.555
 8585POPC   PO439852   7.392  40.776   5.855
 8585POPC   GL139853   7.438  40.793   6.155
 8585POPC   GL239854   7.318  40.870   6.155
 8585POPC   C1A39855   7.402  40.742   6.455
 8585POPC   D2A39856   7.435  40.755   6.755
 8585POPC   C3A39857   7.384  40.828   7.055
 8585POPC   C4A39858   7.395  40.768   7.355
 8585POPC   C1B39859   7.278  40.993   6.455
 8585POPC   C2B39860   7.293  40.995   6.755
 8585POPC   C3B39861   7.323  41.010   7.055
 8585POPC   C4B39862   7.334  41.043   7.355
 8586POPC   NC339863  13.629   1.225   5.555
 8586POPC   PO439864  13.631   1.220   5.855
 8586POPC   GL139865  13.618   1.206   6.155
 8586POPC   GL239866  13.703   1.272   6.155
 8586POPC   C1A39867  13.632   1.192   6.455
 8586POPC   D2A39868  13.595   1.212   6.755
 8586POPC   C3A39869  13.607   1.223   7.055
 8586POPC   C4A39870  13.579   1.256   7.355
 8586POPC   C1B39871  13.819   1.399   6.455
 8586POPC   C2B39872  13.779   1.427   6.755
 8586POPC   C3B39873  13.798   1.456   7.055
 8586POPC   C4B39874  13.767   1.377   7.355
 8587POPC   NC339875  11.307  15.210   5.555
 8587POPC   PO439876  11.295  15.210   5.855
 8587POPC   GL139877  11.327  15.170   6.155
 8587POPC   GL239878  11.312  15.086   6.155
 8587POPC   C1A39879  11.333  15.186   6.455
 8587POPC   D2A39880  11.278  15.229   6.755
 8587POPC   C3A39881  11.302  15.141   7.055
 8587POPC   C4A39882  11.328  15.173   7.355
 8587POPC   C1B39883  11.244  14.977   6.455
 8587POPC   C2B39884  11.219  14.932   6.755
 8587POPC   C3B39885  11.200  14.954   7.055
 8587POPC   C4B39886  11.213  14.965   7.355
 8588POPC   NC339887  36.153   9.723   5.555
 8588POPC   PO439888  36.092   9.710   5.855
 8588POPC   GL139889  36.113   9.767   6.155
 8588POPC   GL239890  36.095   9.903   6.155
 8588POPC   C1A39891  36.173   9.711   6.455
 8588POPC   D2A39892  36.121   9.790   6.755
 8588POPC   C3A39893  36.165   9.738   7.055
 8588POPC   C4A39894  36.142   9.731   7.355
 8588POPC   C1B39895  36.127   9.958   6.455
 8588POPC   C2B39896  36.167  10.006   6.755
 8588POPC   C3B39897  36.139  10.026   7.055
 8588POPC   C4B39898  36.182   9.977   7.355
 8589POPC   NC339899   5.820  15.996   5.555
 8589POPC   PO439900   5.882  15.928   5.855
 8589POPC   GL139901   5.877  15.940   6.155
 8589POPC   GL239902   5.724  16.056   6.155
 8589POPC   C1A39903   5.870  15.954   6.455
 8589POPC   D2A39904   5.838  15.961   6.755
 8589POPC   C3A39905   5.875  15.938   7.055
 8589POPC   C4A39906   5.847  15.987   7.355
 8589POPC   C1B39907   5.615  16.120   6.455
 8589POPC   C2B39908   5.688  16.093   6.755
 8589POPC   C3B39909   5.681  16.083   7.055
 8589POPC   C4B39910   5.659  16.068   7.355
 8590POPC   NC339911   7.435  12.892   5.555
 8590POPC   PO439912   7.385  12.847   5.855
 8590POPC   GL139913   7.404  12.849   6.155
 8590POPC   GL239914   7.274  12.777   6.155
 8590POPC   C1A39915   7.466  12.868   6.455
 8590POPC   D2A39916   7.415  12.837   6.755
 8590POPC   C3A39917   7.389  12.897   7.055
 8590POPC   C4A39918   7.450  12.825   7.355
 8590POPC   C1B39919   7.219  12.748   6.455
 8590POPC   C2B39920   7.248  12.764   6.755
 8590POPC   C3B39921   7.236  12.716   7.055
 8590POPC   C4B39922   7.176  12.697   7.355
 8591POPC   NC339923  10.481  15.993   5.555
 8591POPC   PO439924  10.535  15.939   5.855
 8591POPC   GL139925  10.544  15.910   6.155
 8591POPC   GL239926  10.597  16.072   6.155
 8591POPC   C1A39927  10.548  15.981   6.455
 8591POPC   D2A39928  10.548  15.922   6.755
 8591POPC   C3A39929  10.551  15.996   7.055
 8591POPC   C4A39930  10.489  15.907   7.355
 8591POPC   C1B39931  10.656  16.229   6.455
 8591POPC   C2B39932  10.636  16.219   6.755
 8591POPC   C3B39933  10.642  16.175   7.055
 8591POPC   C4B39934  10.619  16.211   7.355
 8592POPC   NC339935  41.563  22.910   5.555
 8592POPC   PO439936  41.575  22.907   5.855
 8592POPC   GL139937  41.575  22.954   6.155
 8592POPC   GL239938  41.436  23.014   6.155
 8592POPC   C1A39939  41.598  22.903   6.455
 8592POPC   D2A39940  41.513  22.933   6.755
 8592POPC   C3A39941  41.511  22.898   7.055
 8592POPC   C4A39942  41.562  22.977   7.355
 8592POPC   C1B39943  41.375  23.119   6.455
 8592POPC   C2B39944  41.387  23.176   6.755
 8592POPC   C3B39945  41.435  23.094   7.055
 8592POPC   C4B39946  41.410  23.133   7.355
 8593POPC   NC339947  28.320   9.746   5.555
 8593POPC   PO439948  28.379   9.746   5.855
 8593POPC   GL139949  28.334   9.755   6.155
 8593POPC   GL239950  28.492   9.684   6.155
 8593POPC   C1A39951  28.386   9.745   6.455
 8593POPC   D2A39952  28.370   9.792   6.755
 8593POPC   C3A39953  28.400   9.766   7.055
 8593POPC   C4A39954  28.410   9.730   7.355
 8593POPC   C1B39955  28.549   9.617   6.455
 8593POPC   C2B39956  28.546   9.637   6.755
 8593POPC   C3B39957  28.594   9.624   7.055
 8593POPC   C4B39958  28.572   9.663   7.355
 8594POPC   NC339959  30.653  19.104   5.555
 8594POPC   PO439960  30.709  19.067   5.855
 8594POPC   GL139961  30.740  19.104   6.155
 8594POPC   GL239962  30.825  19.116   6.155
 8594POPC   C1A39963  30.691  19.055   6.455
 8594POPC   D2A39964  30.703  19.015   6.755
 8594POPC   C3A39965  30.662  19.102   7.055
 8594POPC   C4A39966  30.667  19.060   7.355
 8594POPC   C1B39967  30.905  19.185   6.455
 8594POPC   C2B39968  30.974  19.160   6.755
 8594POPC   C3B39969  30.912  19.143   7.055
 8594POPC   C4B39970  30.933  19.161   7.355
 8595POPC   NC339971   1.251  16.770   5.555
 8595POPC   PO439972   1.176  16.684   5.855
 8595POPC   GL139973   1.180  16.712   6.155
 8595POPC   GL239974   1.248  16.618   6.155
 8595POPC   C1A39975   1.260  16.737   6.455
 8595POPC   D2A39976   1.175  16.701   6.755
 8595POPC   C3A39977   1.248  16.708   7.055
 8595POPC   C4A39978   1.252  16.708   7.355
 8595POPC   C1B39979   1.259  16.449   6.455
 8595POPC   C2B39980   1.250  16.506   6.755
 8595POPC   C3B39981   1.269  16.450   7.055
 8595POPC   C4B39982   1.245  16.510   7.355
 8596POPC   NC339983  27.553   5.851   5.555
 8596POPC   PO439984  27.616   5.837   5.855
 8596POPC   GL139985  27.630   5.860   6.155
 8596POPC   GL239986  27.684   5.996   6.155
 8596POPC   C1A39987  27.605   5.892   6.455
 8596POPC   D2A39988  27.640   5.856   6.755
 8596POPC   C3A39989  27.545   5.883   7.055
 8596POPC   C4A39990  27.569   5.842   7.355
 8596POPC   C1B39991  27.768   6.075   6.455
 8596POPC   C2B39992  27.684   6.050   6.755
 8596POPC   C3B39993  27.683   6.087   7.055
 8596POPC   C4B39994  27.757   6.063   7.355
 8597POPC   NC339995  37.720   5.823   5.555
 8597POPC   PO439996  37.687   5.907   5.855
 8597POPC   GL139997  37.668   5.857   6.155
 8597POPC   GL239998  37.797   5.821   6.155
 8597POPC   C1A39999  37.641   5.826   6.455
 8597POPC   D2A40000  37.657   5.885   6.755
 8597POPC   C3A40001  37.655   5.899   7.055
 8597POPC   C4A40002  37.686   5.917   7.355
 8597POPC   C1B40003  37.842   5.656   6.455
 8597POPC   C2B40004  37.801   5.627   6.755
 8597POPC   C3B40005  37.828   5.698   7.055
 8597POPC   C4B40006  37.809   5.648   7.355
 8598POPC   NC340007   2.031   5.107   5.555
 8598POPC   PO440008   1.959   5.132   5.855
 8598POPC   GL140009   1.955   5.087   6.155
 8598POPC   GL240010   2.072   5.019   6.155
 8598POPC   C1A40011   1.995   5.105   6.455
 8598POPC   D2A40012   1.949   5.108   6.755
 8598POPC   C3A40013   2.010   5.102   7.055
 8598POPC   C4A40014   1.978   5.064   7.355
 8598POPC   C1B40015   2.227   4.987   6.455
 8598POPC   C2B40016   2.248   5.024   6.755
 8598POPC   C3B40017   2.271   5.011   7.055
 8598POPC   C4B40018   2.183   5.009   7.355
 8599POPC   NC340019   9.710  33.824   5.555
 8599POPC   PO440020   9.730  33.778   5.855
 8599POPC   GL140021   9.790  33.771   6.155
 8599POPC   GL240022   9.751  33.673   6.155
 8599POPC   C1A40023   9.740  33.757   6.455
 8599POPC   D2A40024   9.739  33.784   6.755
 8599POPC   C3A40025   9.735  33.786   7.055
 8599POPC   C4A40026   9.761  33.803   7.355
 8599POPC   C1B40027   9.672  33.576   6.455
 8599POPC   C2B40028   9.684  33.593   6.755
 8599POPC   C3B40029   9.660  33.562   7.055
 8599POPC   C4B40030   9.704  33.538   7.355
 8600POPC   NC340031  24.469  12.892   5.555
 8600POPC   PO440032  24.474  12.837   5.855
 8600POPC   GL140033  24.464  12.827   6.155
 8600POPC   GL240034  24.338  12.926   6.155
 8600POPC   C1A40035  24.505  12.818   6.455
 8600POPC   D2A40036  24.539  12.855   6.755
 8600POPC   C3A40037  24.512  12.885   7.055
 8600POPC   C4A40038  24.444  12.849   7.355
 8600POPC   C1B40039  24.205  12.900   6.455
 8600POPC   C2B40040  24.251  12.894   6.755
 8600POPC   C3B40041  24.274  12.907   7.055
 8600POPC   C4B40042  24.207  12.936   7.355
 8601POPC   NC340043  23.744  15.137   5.555
 8601POPC   PO440044  23.748  15.174   5.855
 8601POPC   GL140045  23.758  15.165   6.155
 8601POPC   GL240046  23.723  15.051   6.155
 8601POPC   C1A40047  23.686  15.166   6.455
 8601POPC   D2A40048  23.726  15.214   6.755
 8601POPC   C3A40049  23.686  15.223   7.055
 8601POPC   C4A40050  23.710  15.208   7.355
 8601POPC   C1B40051  23.870  14.940   6.455
 8601POPC   C2B40052  23.794  14.923   6.755
 8601POPC   C3B40053  23.832  14.989   7.055
 8601POPC   C4B40054  23.820  14.958   7.355
 8602POPC   NC340055  34.562  34.566   5.555
 8602POPC   PO440056  34.558  34.574   5.855
 8602POPC   GL140057  34.579  34.598   6.155
 8602POPC   GL240058  34.661  34.668   6.155
 8602POPC   C1A40059  34.552  34.604   6.455
 8602POPC   D2A40060  34.565  34.552   6.755
 8602POPC   C3A40061  34.589  34.585   7.055
 8602POPC   C4A40062  34.603  34.571   7.355
 8602POPC   C1B40063  34.754  34.744   6.455
 8602POPC   C2B40064  34.746  34.698   6.755
 8602POPC   C3B40065  34.799  34.774   7.055
 8602POPC   C4B40066  34.722  34.768   7.355
 8603POPC   NC340067   5.856  15.170   5.555
 8603POPC   PO440068   5.846  15.132   5.855
 8603POPC   GL140069   5.907  15.226   6.155
 8603POPC   GL240070   5.831  15.317   6.155
 8603POPC   C1A40071   5.849  15.179   6.455
 8603POPC   D2A40072   5.882  15.169   6.755
 8603POPC   C3A40073   5.885  15.131   7.055
 8603POPC   C4A40074   5.858  15.200   7.355
 8603POPC   C1B40075   5.845  15.451   6.455
 8603POPC   C2B40076   5.877  15.386   6.755
 8603POPC   C3B40077   5.818  15.444   7.055
 8603POPC   C4B40078   5.869  15.408   7.355
 8604POPC   NC340079  14.399  44.629   5.555
 8604POPC   PO440080  14.364  44.647   5.855
 8604POPC   GL140081  14.376  44.652   6.155
 8604POPC   GL240082  14.496  44.619   6.155
 8604POPC   C1A40083  14.373  44.646   6.455
 8604POPC   D2A40084  14.374  44.637   6.755
 8604POPC   C3A40085  14.401  44.699   7.055
 8604POPC   C4A40086  14.417  44.675   7.355
 8604POPC   C1B40087  14.596  44.489   6.455
 8604POPC   C2B40088  14.570  44.492   6.755
 8604POPC   C3B40089  14.596  44.539   7.055
 8604POPC   C4B40090  14.627  44.573   7.355
 8605POPC   NC340091  20.660  23.678   5.555
 8605POPC   PO440092  20.591  23.673   5.855
 8605POPC   GL140093  20.637  23.678   6.155
 8605POPC   GL240094  20.694  23.721   6.155
 8605POPC   C1A40095  20.613  23.706   6.455
 8605POPC   D2A40096  20.653  23.758   6.755
 8605POPC   C3A40097  20.590  23.755   7.055
 8605POPC   C4A40098  20.573  23.717   7.355
 8605POPC   C1B40099  20.838  23.670   6.455
 8605POPC   C2B40100  20.886  23.628   6.755
 8605POPC   C3B40101  20.867  23.665   7.055
 8605POPC   C4B40102  20.848  23.648   7.355
 8606POPC   NC340103  40.754   8.964   5.555
 8606POPC   PO440104  40.828   8.947   5.855
 8606POPC   GL140105  40.767   9.022   6.155
 8606POPC   GL240106  40.715   9.054   6.155
 8606POPC   C1A40107  40.800   8.975   6.455
 8606POPC   D2A40108  40.735   9.012   6.755
 8606POPC   C3A40109  40.805   8.961   7.055
 8606POPC   C4A40110  40.789   8.978   7.355
 8606POPC   C1B40111  40.651   9.137   6.455
 8606POPC   C2B40112  40.605   9.129   6.755
 8606POPC   C3B40113  40.633   9.149   7.055
 8606POPC   C4B40114  40.666   9.180   7.355
 8607POPC   NC340115  44.646  20.605   5.555
 8607POPC   PO440116  44.650  20.627   5.855
 8607POPC   GL140117  44.671  20.612   6.155
 8607POPC   GL240118  44.759  20.736   6.155
 8607POPC   C1A40119  44.701  20.651   6.455
 8607POPC   D2A40120  44.656  20.657   6.755
 8607POPC   C3A40121  44.636  20.590   7.055
 8607POPC   C4A40122  44.615  20.602   7.355
 8607POPC   C1B40123  44.842  20.822   6.455
 8607POPC   C2B40124  44.817  20.807   6.755
 8607POPC   C3B40125  44.802  20.869   7.055
 8607POPC   C4B40126  44.797  20.842   7.355
 8608POPC   NC340127  42.301  27.609   5.555
 8608POPC   PO440128  42.352  27.607   5.855
 8608POPC   GL140129  42.375  27.566   6.155
 8608POPC   GL240130  42.359  27.490   6.155
 8608POPC   C1A40131  42.354  27.604   6.455
 8608POPC   D2A40132  42.355  27.612   6.755
 8608POPC   C3A40133  42.309  27.562   7.055
 8608POPC   C4A40134  42.377  27.560   7.355
 8608POPC   C1B40135  42.341  27.346   6.455
 8608POPC   C2B40136  42.350  27.385   6.755
 8608POPC   C3B40137  42.340  27.328   7.055
 8608POPC   C4B40138  42.380  27.375   7.355
 8609POPC   NC340139   7.429   1.197   5.555
 8609POPC   PO440140   7.405   1.262   5.855
 8609POPC   GL140141   7.460   1.242   6.155
 8609POPC   GL240142   7.257   1.210   6.155
 8609POPC   C1A40143   7.462   1.197   6.455
 8609POPC   D2A40144   7.465   1.253   6.755
 8609POPC   C3A40145   7.397   1.182   7.055
 8609POPC   C4A40146   7.431   1.183   7.355
 8609POPC   C1B40147   7.161   1.252   6.455
 8609POPC   C2B40148   7.219   1.283   6.755
 8609POPC   C3B40149   7.188   1.243   7.055
 8609POPC   C4B40150   7.139   1.323   7.355
 8610POPC   NC340151  25.243  11.298   5.555
 8610POPC   PO440152  25.292  11.302   5.855
 8610POPC   GL140153  25.236  11.261   6.155
 8610POPC   GL240154  25.165  11.426   6.155
 8610POPC   C1A40155  25.264  11.307   6.455
 8610POPC   D2A40156  25.243  11.279   6.755
 8610POPC   C3A40157  25.251  11.313   7.055
 8610POPC   C4A40158  25.252  11.317   7.355
 8610POPC   C1B40159  25.135  11.461   6.455
 8610POPC   C2B40160  25.066  11.545   6.755
 8610POPC   C3B40161  25.117  11.505   7.055
 8610POPC   C4B40162  25.129  11.478   7.355
 8611POPC   NC340163  15.909   2.743   5.555
 8611POPC   PO440164  15.964   2.780   5.855
 8611POPC   GL140165  15.947   2.769   6.155
 8611POPC   GL240166  15.877   2.879   6.155
 8611POPC   C1A40167  15.948   2.794   6.455
 8611POPC   D2A40168  15.978   2.804   6.755
 8611POPC   C3A40169  15.980   2.724   7.055
 8611POPC   C4A40170  15.986   2.814   7.355
 8611POPC   C1B40171  15.762   2.892   6.455
 8611POPC   C2B40172  15.697   2.950   6.755
 8611POPC   C3B40173  15.763   2.949   7.055
 8611POPC   C4B40174  15.780   2.862   7.355
 8612POPC   NC340175  26.017  22.900   5.555
 8612POPC   PO440176  26.056  22.924   5.855
 8612POPC   GL140177  26.053  22.966   6.155
 8612POPC   GL240178  25.994  23.071   6.155
 8612POPC   C1A40179  26.028  22.926   6.455
 8612POPC   D2A40180  26.021  22.981   6.755
 8612POPC   C3A40181  25.999  22.943   7.055
 8612POPC   C4A40182  26.081  22.910   7.355
 8612POPC   C1B40183  25.931  23.148   6.455
 8612POPC   C2B40184  25.944  23.188   6.755
 8612POPC   C3B40185  25.934  23.160   7.055
 8612POPC   C4B40186  25.944  23.140   7.355
 8613POPC   NC340187  36.882  39.258   5.555
 8613POPC   PO440188  36.919  39.230   5.855
 8613POPC   GL140189  36.935  39.209   6.155
 8613POPC   GL240190  36.984  39.308   6.155
 8613POPC   C1A40191  36.908  39.207   6.455
 8613POPC   D2A40192  36.858  39.258   6.755
 8613POPC   C3A40193  36.946  39.204   7.055
 8613POPC   C4A40194  36.950  39.189   7.355
 8613POPC   C1B40195  36.992  39.452   6.455
 8613POPC   C2B40196  36.961  39.461   6.755
 8613POPC   C3B40197  36.991  39.483   7.055
 8613POPC   C4B40198  37.049  39.443   7.355
 8614POPC   NC340199  43.899  18.242   5.555
 8614POPC   PO440200  43.839  18.329   5.855
 8614POPC   GL140201  43.909  18.283   6.155
 8614POPC   GL240202  43.786  18.330   6.155
 8614POPC   C1A40203  43.889  18.235   6.455
 8614POPC   D2A40204  43.847  18.324   6.755
 8614POPC   C3A40205  43.897  18.286   7.055
 8614POPC   C4A40206  43.889  18.246   7.355
 8614POPC   C1B40207  43.688  18.390   6.455
 8614POPC   C2B40208  43.609  18.319   6.755
 8614POPC   C3B40209  43.620  18.321   7.055
 8614POPC   C4B40210  43.696  18.362   7.355
 8615POPC   NC340211   1.943   7.461   5.555
 8615POPC   PO440212   2.007   7.403   5.855
 8615POPC   GL140213   1.947   7.423   6.155
 8615POPC   GL240214   2.107   7.447   6.155
 8615POPC   C1A40215   1.951   7.380   6.455
 8615POPC   D2A40216   1.947   7.464   6.755
 8615POPC   C3A40217   1.980   7.406   7.055
 8615POPC   C4A40218   2.039   7.409   7.355
 8615POPC   C1B40219   2.248   7.441   6.455
 8615POPC   C2B40220   2.200   7.437   6.755
 8615POPC   C3B40221   2.199   7.436   7.055
 8615POPC   C4B40222   2.201   7.390   7.355
 8616POPC   NC340223   9.714   4.356   5.555
 8616POPC   PO440224   9.730   4.272   5.855
 8616POPC   GL140225   9.731   4.325   6.155
 8616POPC   GL240226   9.609   4.384   6.155
 8616POPC   C1A40227   9.762   4.272   6.455
 8616POPC   D2A40228   9.731   4.269   6.755
 8616POPC   C3A40229   9.709   4.309   7.055
 8616POPC   C4A40230   9.711   4.329   7.355
 8616POPC   C1B40231   9.557   4.458   6.455
 8616POPC   C2B40232   9.571   4.433   6.755
 8616POPC   C3B40233   9.598   4.491   7.055
 8616POPC   C4B40234   9.503   4.470   7.355
 8617POPC   NC340235   2.805  30.736   5.555
 8617POPC   PO440236   2.724  30.670   5.855
 8617POPC   GL140237   2.791  30.688   6.155
 8617POPC   GL240238   2.838  30.747   6.155
 8617POPC   C1A40239   2.738  30.692   6.455
 8617POPC   D2A40240   2.775  30.648   6.755
 8617POPC   C3A40241   2.799  30.734   7.055
 8617POPC   C4A40242   2.735  30.664   7.355
 8617POPC   C1B40243   2.967  30.867   6.455
 8617POPC   C2B40244   2.935  30.921   6.755
 8617POPC   C3B40245   2.929  30.877   7.055
 8617POPC   C4B40246   2.957  30.861   7.355
 8618POPC   NC340247  17.485  29.160   5.555
 8618POPC   PO440248  17.510  29.192   5.855
 8618POPC   GL140249  17.522  29.175   6.155
 8618POPC   GL240250  17.463  29.057   6.155
 8618POPC   C1A40251  17.504  29.149   6.455
 8618POPC   D2A40252  17.553  29.122   6.755
 8618POPC   C3A40253  17.522  29.127   7.055
 8618POPC   C4A40254  17.470  29.126   7.355
 8618POPC   C1B40255  17.474  28.880   6.455
 8618POPC   C2B40256  17.496  28.893   6.755
 8618POPC   C3B40257  17.513  28.916   7.055
 8618POPC   C4B40258  17.517  28.856   7.355
 8619POPC   NC340259  15.134  44.702   5.555
 8619POPC   PO440260  15.215  44.672   5.855
 8619POPC   GL140261  15.201  44.625   6.155
 8619POPC   GL240262  15.295  44.643   6.155
 8619POPC   C1A40263  15.175  44.645   6.455
 8619POPC   D2A40264  15.223  44.693   6.755
 8619POPC   C3A40265  15.178  44.666   7.055
 8619POPC   C4A40266  15.196  44.688   7.355
 8619POPC   C1B40267  15.392  44.688   6.455
 8619POPC   C2B40268  15.424  44.666   6.755
 8619POPC   C3B40269  15.470  44.600   7.055
 8619POPC   C4B40270  15.439  44.610   7.355
 8620POPC   NC340271  23.682  42.370   5.555
 8620POPC   PO440272  23.752  42.358   5.855
 8620POPC   GL140273  23.704  42.331   6.155
 8620POPC   GL240274  23.720  42.470   6.155
 8620POPC   C1A40275  23.743  42.373   6.455
 8620POPC   D2A40276  23.711  42.367   6.755
 8620POPC   C3A40277  23.742  42.346   7.055
 8620POPC   C4A40278  23.689  42.368   7.355
 8620POPC   C1B40279  23.651  42.578   6.455
 8620POPC   C2B40280  23.676  42.602   6.755
 8620POPC   C3B40281  23.641  42.614   7.055
 8620POPC   C4B40282  23.604  42.619   7.355
 8621POPC   NC340283  10.529  32.986   5.555
 8621POPC   PO440284  10.486  32.976   5.855
 8621POPC   GL140285  10.480  32.975   6.155
 8621POPC   GL240286  10.608  32.991   6.155
 8621POPC   C1A40287  10.533  33.001   6.455
 8621POPC   D2A40288  10.537  32.986   6.755
 8621POPC   C3A40289  10.481  33.051   7.055
 8621POPC   C4A40290  10.490  33.043   7.355
 8621POPC   C1B40291  10.736  32.942   6.455
 8621POPC   C2B40292  10.766  33.002   6.755
 8621POPC   C3B40293  10.752  32.926   7.055
 8621POPC   C4B40294  10.804  32.938   7.355
 8622POPC   NC340295   7.443  21.383   5.555
 8622POPC   PO440296   7.378  21.367   5.855
 8622POPC   GL140297   7.417  21.432   6.155
 8622POPC   GL240298   7.259  21.324   6.155
 8622POPC   C1A40299   7.465  21.373   6.455
 8622POPC   D2A40300   7.423  21.408   6.755
 8622POPC   C3A40301   7.456  21.413   7.055
 8622POPC   C4A40302   7.423  21.387   7.355
 8622POPC   C1B40303   7.233  21.335   6.455
 8622POPC   C2B40304   7.221  21.341   6.755
 8622POPC   C3B40305   7.189  21.247   7.055
 8622POPC   C4B40306   7.160  21.245   7.355
 8623POPC   NC340307   8.937  12.086   5.555
 8623POPC   PO440308   9.000  12.036   5.855
 8623POPC   GL140309   9.012  12.088   6.155
 8623POPC   GL240310   9.089  11.986   6.155
 8623POPC   C1A40311   8.928  12.100   6.455
 8623POPC   D2A40312   8.964  12.094   6.755
 8623POPC   C3A40313   8.933  12.045   7.055
 8623POPC   C4A40314   8.925  12.066   7.355
 8623POPC   C1B40315   9.145  11.905   6.455
 8623POPC   C2B40316   9.188  11.921   6.755
 8623POPC   C3B40317   9.208  11.958   7.055
 8623POPC   C4B40318   9.138  11.861   7.355
 8624POPC   NC340319  33.008   1.199   5.555
 8624POPC   PO440320  33.053   1.234   5.855
 8624POPC   GL140321  33.045   1.237   6.155
 8624POPC   GL240322  32.965   1.052   6.155
 8624POPC   C1A40323  33.063   1.218   6.455
 8624POPC   D2A40324  33.071   1.190   6.755
 8624POPC   C3A40325  32.995   1.183   7.055
 8624POPC   C4A40326  33.003   1.214   7.355
 8624POPC   C1B40327  32.968   0.940   6.455
 8624POPC   C2B40328  32.965   0.923   6.755
 8624POPC   C3B40329  32.958   0.953   7.055
 8624POPC   C4B40330  32.978   0.969   7.355
 8625POPC   NC340331  38.446   9.009   5.555
 8625POPC   PO440332  38.504   8.958   5.855
 8625POPC   GL140333  38.444   8.940   6.155
 8625POPC   GL240334  38.354   8.898   6.155
 8625POPC   C1A40335  38.464   8.951   6.455
 8625POPC   D2A40336  38.455   8.927   6.755
 8625POPC   C3A40337  38.471   8.935   7.055
 8625POPC   C4A40338  38.406   8.983   7.355
 8625POPC   C1B40339  38.307   8.779   6.455
 8625POPC   C2B40340  38.309   8.819   6.755
 8625POPC   C3B40341  38.290   8.739   7.055
 8625POPC   C4B40342  38.329   8.815   7.355
 8626POPC   NC340343  14.372  36.144   5.555
 8626POPC   PO440344  14.430  36.175   5.855
 8626POPC   GL140345  14.389  36.117   6.155
 8626POPC   GL240346  14.319  36.155   6.155
 8626POPC   C1A40347  14.394  36.165   6.455
 8626POPC   D2A40348  14.400  36.118   6.755
 8626POPC   C3A40349  14.421  36.136   7.055
 8626POPC   C4A40350  14.389  36.096   7.355
 8626POPC   C1B40351  14.204  36.319   6.455
 8626POPC   C2B40352  14.242  36.248   6.755
 8626POPC   C3B40353  14.219  36.315   7.055
 8626POPC   C4B40354  14.216  36.252   7.355
 8627POPC   NC340355  12.850  41.606   5.555
 8627POPC   PO440356  12.849  41.549   5.855
 8627POPC   GL140357  12.832  41.593   6.155
 8627POPC   GL240358  12.944  41.659   6.155
 8627POPC   C1A40359  12.863  41.588   6.455
 8627POPC   D2A40360  12.834  41.574   6.755
 8627POPC   C3A40361  12.854  41.525   7.055
 8627POPC   C4A40362  12.873  41.517   7.355
 8627POPC   C1B40363  13.008  41.724   6.455
 8627POPC   C2B40364  12.983  41.748   6.755
 8627POPC   C3B40365  13.057  41.773   7.055
 8627POPC   C4B40366  13.044  41.786   7.355
 8628POPC   NC340367  15.225  24.521   5.555
 8628POPC   PO440368  15.179  24.537   5.855
 8628POPC   GL140369  15.139  24.500   6.155
 8628POPC   GL240370  15.095  24.504   6.155
 8628POPC   C1A40371  15.188  24.462   6.455
 8628POPC   D2A40372  15.167  24.480   6.755
 8628POPC   C3A40373  15.218  24.508   7.055
 8628POPC   C4A40374  15.147  24.467   7.355
 8628POPC   C1B40375  14.890  24.484   6.455
 8628POPC   C2B40376  14.965  24.532   6.755
 8628POPC   C3B40377  14.901  24.463   7.055
 8628POPC   C4B40378  14.977  24.470   7.355
 8629POPC   NC340379   8.975  32.241   5.555
 8629POPC   PO440380   8.979  32.263   5.855
 8629POPC   GL140381   9.018  32.260   6.155
 8629POPC   GL240382   8.812  32.194   6.155
 8629POPC   C1A40383   9.011  32.261   6.455
 8629POPC   D2A40384   8.962  32.283   6.755
 8629POPC   C3A40385   8.988  32.270   7.055
 8629POPC   C4A40386   9.011  32.270   7.355
 8629POPC   C1B40387   8.688  32.209   6.455
 8629POPC   C2B40388   8.742  32.229   6.755
 8629POPC   C3B40389   8.764  32.154   7.055
 8629POPC   C4B40390   8.775  32.162   7.355
 8630POPC   NC340391  42.372   8.198   5.555
 8630POPC   PO440392  42.381   8.157   5.855
 8630POPC   GL140393  42.319   8.181   6.155
 8630POPC   GL240394  42.254   8.190   6.155
 8630POPC   C1A40395  42.346   8.179   6.455
 8630POPC   D2A40396  42.354   8.223   6.755
 8630POPC   C3A40397  42.383   8.152   7.055
 8630POPC   C4A40398  42.321   8.195   7.355
 8630POPC   C1B40399  42.098   8.277   6.455
 8630POPC   C2B40400  42.046   8.252   6.755
 8630POPC   C3B40401  42.079   8.264   7.055
 8630POPC   C4B40402  42.132   8.289   7.355
 8631POPC   NC340403  17.500   1.185   5.555
 8631POPC   PO440404  17.532   1.169   5.855
 8631POPC   GL140405  17.493   1.227   6.155
 8631POPC   GL240406  17.549   1.319   6.155
 8631POPC   C1A40407  17.477   1.192   6.455
 8631POPC   D2A40408  17.491   1.167   6.755
 8631POPC   C3A40409  17.547   1.172   7.055
 8631POPC   C4A40410  17.466   1.170   7.355
 8631POPC   C1B40411  17.593   1.501   6.455
 8631POPC   C2B40412  17.558   1.445   6.755
 8631POPC   C3B40413  17.598   1.441   7.055
 8631POPC   C4B40414  17.533   1.501   7.355
 8632POPC   NC340415  43.091  24.520   5.555
 8632POPC   PO440416  43.077  24.505   5.855
 8632POPC   GL140417  43.105  24.477   6.155
 8632POPC   GL240418  43.120  24.369   6.155
 8632POPC   C1A40419  43.082  24.490   6.455
 8632POPC   D2A40420  43.132  24.465   6.755
 8632POPC   C3A40421  43.080  24.522   7.055
 8632POPC   C4A40422  43.084  24.537   7.355
 8632POPC   C1B40423  43.083  24.282   6.455
 8632POPC   C2B40424  43.113  24.278   6.755
 8632POPC   C3B40425  43.092  24.198   7.055
 8632POPC   C4B40426  43.147  24.289   7.355
 8633POPC   NC340427  19.084  42.357   5.555
 8633POPC   PO440428  19.018  42.289   5.855
 8633POPC   GL140429  19.036  42.312   6.155
 8633POPC   GL240430  19.167  42.440   6.155
 8633POPC   C1A40431  19.095  42.354   6.455
 8633POPC   D2A40432  19.050  42.338   6.755
 8633POPC   C3A40433  19.046  42.368   7.055
 8633POPC   C4A40434  19.035  42.355   7.355
 8633POPC   C1B40435  19.263  42.501   6.455
 8633POPC   C2B40436  19.233  42.507   6.755
 8633POPC   C3B40437  19.274  42.522   7.055
 8633POPC   C4B40438  19.238  42.528   7.355
 8634POPC   NC340439  20.627  25.227   5.555
 8634POPC   PO440440  20.660  25.229   5.855
 8634POPC   GL140441  20.575  25.281   6.155
 8634POPC   GL240442  20.745  25.276   6.155
 8634POPC   C1A40443  20.595  25.233   6.455
 8634POPC   D2A40444  20.565  25.239   6.755
 8634POPC   C3A40445  20.641  25.267   7.055
 8634POPC   C4A40446  20.591  25.218   7.355
 8634POPC   C1B40447  20.867  25.395   6.455
 8634POPC   C2B40448  20.827  25.350   6.755
 8634POPC   C3B40449  20.888  25.375   7.055
 8634POPC   C4B40450  20.879  25.384   7.355
 8635POPC   NC340451  18.235  15.917   5.555
 8635POPC   PO440452  18.235  15.915   5.855
 8635POPC   GL140453  18.281  15.922   6.155
 8635POPC   GL240454  18.341  15.864   6.155
 8635POPC   C1A40455  18.253  15.998   6.455
 8635POPC   D2A40456  18.297  15.907   6.755
 8635POPC   C3A40457  18.265  15.919   7.055
 8635POPC   C4A40458  18.274  15.984   7.355
 8635POPC   C1B40459  18.371  15.703   6.455
 8635POPC   C2B40460  18.367  15.710   6.755
 8635POPC   C3B40461  18.461  15.771   7.055
 8635POPC   C4B40462  18.437  15.727   7.355
 8636POPC   NC340463  20.588  29.931   5.555
 8636POPC   PO440464  20.654  29.876   5.855
 8636POPC   GL140465  20.599  29.881   6.155
 8636POPC   GL240466  20.585  30.019   6.155
 8636POPC   C1A40467  20.623  29.888   6.455
 8636POPC   D2A40468  20.631  29.893   6.755
 8636POPC   C3A40469  20.607  29.872   7.055
 8636POPC   C4A40470  20.570  29.906   7.355
 8636POPC   C1B40471  20.595  30.197   6.455
 8636POPC   C2B40472  20.577  30.143   6.755
 8636POPC   C3B40473  20.659  30.121   7.055
 8636POPC   C4B40474  20.651  30.179   7.355
 8637POPC   NC340475   9.743  21.414   5.555
 8637POPC   PO440476   9.750  21.381   5.855
 8637POPC   GL140477   9.740  21.351   6.155
 8637POPC   GL240478   9.824  21.329   6.155
 8637POPC   C1A40479   9.703  21.414   6.455
 8637POPC   D2A40480   9.765  21.360   6.755
 8637POPC   C3A40481   9.734  21.405   7.055
 8637POPC   C4A40482   9.745  21.426   7.355
 8637POPC   C1B40483   9.973  21.321   6.455
 8637POPC   C2B40484   9.994  21.285   6.755
 8637POPC   C3B40485  10.016  21.261   7.055
 8637POPC   C4B40486   9.971  21.283   7.355
 8638POPC   NC340487  19.078   3.539   5.555
 8638POPC   PO440488  19.028   3.563   5.855
 8638POPC   GL140489  19.059   3.560   6.155
 8638POPC   GL240490  18.942   3.601   6.155
 8638POPC   C1A40491  19.081   3.584   6.455
 8638POPC   D2A40492  19.106   3.527   6.755
 8638POPC   C3A40493  19.049   3.546   7.055
 8638POPC   C4A40494  19.064   3.520   7.355
 8638POPC   C1B40495  18.825   3.538   6.455
 8638POPC   C2B40496  18.813   3.609   6.755
 8638POPC   C3B40497  18.773   3.569   7.055
 8638POPC   C4B40498  18.835   3.611   7.355
 8639POPC   NC340499  26.040  41.587   5.555
 8639POPC   PO440500  26.090  41.510   5.855
 8639POPC   GL140501  26.062  41.515   6.155
 8639POPC   GL240502  26.043  41.430   6.155
 8639POPC   C1A40503  26.013  41.602   6.455
 8639POPC   D2A40504  26.047  41.588   6.755
 8639POPC   C3A40505  26.000  41.586   7.055
 8639POPC   C4A40506  26.074  41.590   7.355
 8639POPC   C1B40507  26.044  41.314   6.455
 8639POPC   C2B40508  26.071  41.320   6.755
 8639POPC   C3B40509  25.977  41.331   7.055
 8639POPC   C4B40510  26.046  41.315   7.355
 8640POPC   NC340511  41.545   4.298   5.555
 8640POPC   PO440512  41.599   4.277   5.855
 8640POPC   GL140513  41.599   4.357   6.155
 8640POPC   GL240514  41.611   4.216   6.155
 8640POPC   C1A40515  41.588   4.306   6.455
 8640POPC   D2A40516  41.521   4.347   6.755
 8640POPC   C3A40517  41.524   4.316   7.055
 8640POPC   C4A40518  41.568   4.355   7.355
 8640POPC   C1B40519  41.660   4.095   6.455
 8640POPC   C2B40520  41.643   4.106   6.755
 8640POPC   C3B40521  41.629   4.116   7.055
 8640POPC   C4B40522  41.693   4.127   7.355
 8641POPC   NC340523  12.075  22.917   5.555
 8641POPC   PO440524  12.051  22.955   5.855
 8641POPC   GL140525  12.084  22.927   6.155
 8641POPC   GL240526  11.976  22.848   6.155
 8641POPC   C1A40527  12.118  22.939   6.455
 8641POPC   D2A40528  12.061  22.951   6.755
 8641POPC   C3A40529  12.121  22.975   7.055
 8641POPC   C4A40530  12.099  22.893   7.355
 8641POPC   C1B40531  11.863  22.812   6.455
 8641POPC   C2B40532  11.863  22.860   6.755
 8641POPC   C3B40533  11.848  22.807   7.055
 8641POPC   C4B40534  11.804  22.889   7.355
 8642POPC   NC340535  38.435  15.913   5.555
 8642POPC   PO440536  38.483  15.953   5.855
 8642POPC   GL140537  38.422  15.959   6.155
 8642POPC   GL240538  38.564  15.965   6.155
 8642POPC   C1A40539  38.495  15.982   6.455
 8642POPC   D2A40540  38.466  15.941   6.755
 8642POPC   C3A40541  38.419  15.946   7.055
 8642POPC   C4A40542  38.495  15.943   7.355
 8642POPC   C1B40543  38.715  15.887   6.455
 8642POPC   C2B40544  38.662  15.955   6.755
 8642POPC   C3B40545  38.677  15.951   7.055
 8642POPC   C4B40546  38.662  15.910   7.355
 8643POPC   NC340547   6.649   0.404   5.555
 8643POPC   PO440548   6.627   0.418   5.855
 8643POPC   GL140549   6.629   0.454   6.155
 8643POPC   GL240550   6.648   0.364   6.155
 8643POPC   C1A40551   6.678   0.407   6.455
 8643POPC   D2A40552   6.653   0.398   6.755
 8643POPC   C3A40553   6.674   0.417   7.055
 8643POPC   C4A40554   6.607   0.432   7.355
 8643POPC   C1B40555   6.513   0.195   6.455
 8643POPC   C2B40556   6.578   0.184   6.755
 8643POPC   C3B40557   6.543   0.164   7.055
 8643POPC   C4B40558   6.508   0.226   7.355
 8644POPC   NC340559   1.940  20.610   5.555
 8644POPC   PO440560   1.941  20.568   5.855
 8644POPC   GL140561   1.958  20.611   6.155
 8644POPC   GL240562   1.994  20.438   6.155
 8644POPC   C1A40563   1.990  20.615   6.455
 8644POPC   D2A40564   1.977  20.634   6.755
 8644POPC   C3A40565   1.949  20.616   7.055
 8644POPC   C4A40566   2.033  20.610   7.355
 8644POPC   C1B40567   2.038  20.389   6.455
 8644POPC   C2B40568   2.050  20.386   6.755
 8644POPC   C3B40569   2.012  20.365   7.055
 8644POPC   C4B40570   1.978  20.339   7.355
 8645POPC   NC340571  36.944  10.573   5.555
 8645POPC   PO440572  36.867  10.478   5.855
 8645POPC   GL140573  36.872  10.484   6.155
 8645POPC   GL240574  37.008  10.374   6.155
 8645POPC   C1A40575  36.858  10.497   6.455
 8645POPC   D2A40576  36.871  10.569   6.755
 8645POPC   C3A40577  36.883  10.533   7.055
 8645POPC   C4A40578  36.857  10.474   7.355
 8645POPC   C1B40579  37.030  10.287   6.455
 8645POPC   C2B40580  37.012  10.342   6.755
 8645POPC   C3B40581  37.072  10.330   7.055
 8645POPC   C4B40582  37.018  10.259   7.355
 8646POPC   NC340583  16.748  14.363   5.555
 8646POPC   PO440584  16.733  14.399   5.855
 8646POPC   GL140585  16.685  14.370   6.155
 8646POPC   GL240586  16.760  14.485   6.155
 8646POPC   C1A40587  16.683  14.430   6.455
 8646POPC   D2A40588  16.712  14.415   6.755
 8646POPC   C3A40589  16.692  14.449   7.055
 8646POPC   C4A40590  16.707  14.392   7.355
 8646POPC   C1B40591  16.706  14.651   6.455
 8646POPC   C2B40592  16.682  14.633   6.755
 8646POPC   C3B40593  16.681  14.671   7.055
 8646POPC   C4B40594  16.701  14.670   7.355
 8647POPC   NC340595  22.947  13.606   5.555
 8647POPC   PO440596  22.896  13.623   5.855
 8647POPC   GL140597  22.900  13.580   6.155
 8647POPC   GL240598  22.964  13.480   6.155
 8647POPC   C1A40599  22.965  13.627   6.455
 8647POPC   D2A40600  22.940  13.584   6.755
 8647POPC   C3A40601  22.907  13.638   7.055
 8647POPC   C4A40602  22.960  13.653   7.355
 8647POPC   C1B40603  23.108  13.384   6.455
 8647POPC   C2B40604  23.124  13.396   6.755
 8647POPC   C3B40605  23.046  13.440   7.055
 8647POPC   C4B40606  23.059  13.402   7.355
 8648POPC   NC340607  27.630  27.608   5.555
 8648POPC   PO440608  27.596  27.568   5.855
 8648POPC   GL140609  27.599  27.639   6.155
 8648POPC   GL240610  27.453  27.634   6.155
 8648POPC   C1A40611  27.594  27.621   6.455
 8648POPC   D2A40612  27.566  27.596   6.755
 8648POPC   C3A40613  27.569  27.571   7.055
 8648POPC   C4A40614  27.551  27.567   7.355
 8648POPC   C1B40615  27.373  27.774   6.455
 8648POPC   C2B40616  27.415  27.772   6.755
 8648POPC   C3B40617  27.423  27.758   7.055
 8648POPC   C4B40618  27.367  27.795   7.355
 8649POPC   NC340619  39.999  31.455   5.555
 8649POPC   PO440620  39.988  31.482   5.855
 8649POPC   GL140621  39.960  31.477   6.155
 8649POPC   GL240622  39.890  31.402   6.155
 8649POPC   C1A40623  39.976  31.455   6.455
 8649POPC   D2A40624  39.988  31.442   6.755
 8649POPC   C3A40625  39.971  31.463   7.055
 8649POPC   C4A40626  40.017  31.504   7.355
 8649POPC   C1B40627  39.825  31.259   6.455
 8649POPC   C2B40628  39.801  31.278   6.755
 8649POPC   C3B40629  39.777  31.283   7.055
 8649POPC   C4B40630  39.795  31.306   7.355
 8650POPC   NC340631  11.268  12.816   5.555
 8650POPC   PO440632  11.272  12.868   5.855
 8650POPC   GL140633  11.277  12.897   6.155
 8650POPC   GL240634  11.298  12.756   6.155
 8650POPC   C1A40635  11.333  12.805   6.455
 8650POPC   D2A40636  11.330  12.815   6.755
 8650POPC   C3A40637  11.350  12.857   7.055
 8650POPC   C4A40638  11.341  12.866   7.355
 8650POPC   C1B40639  11.380  12.577   6.455
 8650POPC   C2B40640  11.324  12.635   6.755
 8650POPC   C3B40641  11.396  12.626   7.055
 8650POPC   C4B40642  11.411  12.561   7.355
 8651POPC   NC340643  19.077  14.361   5.555
 8651POPC   PO440644  19.013  14.374   5.855
 8651POPC   GL140645  19.058  14.398   6.155
 8651POPC   GL240646  19.010  14.545   6.155
 8651POPC   C1A40647  19.013  14.388   6.455
 8651POPC   D2A40648  19.053  14.371   6.755
 8651POPC   C3A40649  19.065  14.388   7.055
 8651POPC   C4A40650  19.077  14.369   7.355
 8651POPC   C1B40651  18.931  14.636   6.455
 8651POPC   C2B40652  18.865  14.588   6.755
 8651POPC   C3B40653  18.890  14.613   7.055
 8651POPC   C4B40654  18.924  14.631   7.355
 8652POPC   NC340655   1.190  36.100   5.555
 8652POPC   PO440656   1.241  36.088   5.855
 8652POPC   GL140657   1.176  36.146   6.155
 8652POPC   GL240658   1.263  36.255   6.155
 8652POPC   C1A40659   1.263  36.129   6.455
 8652POPC   D2A40660   1.252  36.129   6.755
 8652POPC   C3A40661   1.258  36.143   7.055
 8652POPC   C4A40662   1.194  36.123   7.355
 8652POPC   C1B40663   1.230  36.368   6.455
 8652POPC   C2B40664   1.303  36.361   6.755
 8652POPC   C3B40665   1.301  36.364   7.055
 8652POPC   C4B40666   1.253  36.358   7.355
 8653POPC   NC340667  43.841   0.399   5.555
 8653POPC   PO440668  43.880   0.433   5.855
 8653POPC   GL140669  43.898   0.408   6.155
 8653POPC   GL240670  43.806   0.513   6.155
 8653POPC   C1A40671  43.839   0.438   6.455
 8653POPC   D2A40672  43.839   0.414   6.755
 8653POPC   C3A40673  43.868   0.481   7.055
 8653POPC   C4A40674  43.909   0.480   7.355
 8653POPC   C1B40675  43.652   0.529   6.455
 8653POPC   C2B40676  43.696   0.527   6.755
 8653POPC   C3B40677  43.663   0.531   7.055
 8653POPC   C4B40678  43.612   0.589   7.355
 8654POPC   NC340679  38.446  17.474   5.555
 8654POPC   PO440680  38.460  17.472   5.855
 8654POPC   GL140681  38.413  17.495   6.155
 8654POPC   GL240682  38.402  17.361   6.155
 8654POPC   C1A40683  38.438  17.492   6.455
 8654POPC   D2A40684  38.413  17.514   6.755
 8654POPC   C3A40685  38.478  17.544   7.055
 8654POPC   C4A40686  38.445  17.509   7.355
 8654POPC   C1B40687  38.350  17.309   6.455
 8654POPC   C2B40688  38.347  17.310   6.755
 8654POPC   C3B40689  38.423  17.265   7.055
 8654POPC   C4B40690  38.350  17.217   7.355
 8655POPC   NC340691  28.352   9.011   5.555
 8655POPC   PO440692  28.355   9.004   5.855
 8655POPC   GL140693  28.383   8.970   6.155
 8655POPC   GL240694  28.490   8.987   6.155
 8655POPC   C1A40695  28.333   8.928   6.455
 8655POPC   D2A40696  28.355   8.976   6.755
 8655POPC   C3A40697  28.378   9.013   7.055
 8655POPC   C4A40698  28.329   8.967   7.355
 8655POPC   C1B40699  28.563   8.994   6.455
 8655POPC   C2B40700  28.588   9.056   6.755
 8655POPC   C3B40701  28.584   9.043   7.055
 8655POPC   C4B40702  28.617   9.082   7.355
 8656POPC   NC340703  33.752  35.393   5.555
 8656POPC   PO440704  33.849  35.400   5.855
 8656POPC   GL140705  33.806  35.307   6.155
 8656POPC   GL240706  33.847  35.202   6.155
 8656POPC   C1A40707  33.752  35.366   6.455
 8656POPC   D2A40708  33.813  35.315   6.755
 8656POPC   C3A40709  33.770  35.390   7.055
 8656POPC   C4A40710  33.813  35.321   7.355
 8656POPC   C1B40711  33.841  35.103   6.455
 8656POPC   C2B40712  33.791  35.105   6.755
 8656POPC   C3B40713  33.780  35.070   7.055
 8656POPC   C4B40714  33.782  35.091   7.355
 8657POPC   NC340715  18.321  28.374   5.555
 8657POPC   PO440716  18.287  28.332   5.855
 8657POPC   GL140717  18.322  28.356   6.155
 8657POPC   GL240718  18.385  28.436   6.155
 8657POPC   C1A40719  18.255  28.392   6.455
 8657POPC   D2A40720  18.271  28.340   6.755
 8657POPC   C3A40721  18.328  28.378   7.055
 8657POPC   C4A40722  18.253  28.394   7.355
 8657POPC   C1B40723  18.404  28.562   6.455
 8657POPC   C2B40724  18.479  28.542   6.755
 8657POPC   C3B40725  18.486  28.520   7.055
 8657POPC   C4B40726  18.469  28.588   7.355
 8658POPC   NC340727  10.500  44.635   5.555
 8658POPC   PO440728  10.539  44.624   5.855
 8658POPC   GL140729  10.508  44.656   6.155
 8658POPC   GL240730  10.441  44.610   6.155
 8658POPC   C1A40731  10.522  44.647   6.455
 8658POPC   D2A40732  10.494  44.691   6.755
 8658POPC   C3A40733  10.496  44.711   7.055
 8658POPC   C4A40734  10.569  44.642   7.355
 8658POPC   C1B40735  10.367  44.523   6.455
 8658POPC   C2B40736  10.389  44.487   6.755
 8658POPC   C3B40737  10.326  44.457   7.055
 8658POPC   C4B40738  10.330  44.500   7.355
 8659POPC   NC340739   4.315   1.194   5.555
 8659POPC   PO440740   4.332   1.173   5.855
 8659POPC   GL140741   4.337   1.195   6.155
 8659POPC   GL240742   4.315   1.082   6.155
 8659POPC   C1A40743   4.301   1.179   6.455
 8659POPC   D2A40744   4.350   1.252   6.755
 8659POPC   C3A40745   4.326   1.257   7.055
 8659POPC   C4A40746   4.325   1.230   7.355
 8659POPC   C1B40747   4.275   0.998   6.455
 8659POPC   C2B40748   4.329   0.944   6.755
 8659POPC   C3B40749   4.264   0.928   7.055
 8659POPC   C4B40750   4.283   1.003   7.355
 8660POPC   NC340751  30.659  12.122   5.555
 8660POPC   PO440752  30.668  12.084   5.855
 8660POPC   GL140753  30.728  12.059   6.155
 8660POPC   GL240754  30.644  12.004   6.155
 8660POPC   C1A40755  30.736  12.103   6.455
 8660POPC   D2A40756  30.717  12.094   6.755
 8660POPC   C3A40757  30.679  12.047   7.055
 8660POPC   C4A40758  30.669  12.057   7.355
 8660POPC   C1B40759  30.545  11.892   6.455
 8660POPC   C2B40760  30.571  11.892   6.755
 8660POPC   C3B40761  30.553  11.867   7.055
 8660POPC   C4B40762  30.598  11.884   7.355
 8661POPC   NC340763  43.897  16.732   5.555
 8661POPC   PO440764  43.838  16.764   5.855
 8661POPC   GL140765  43.880  16.702   6.155
 8661POPC   GL240766  43.762  16.668   6.155
 8661POPC   C1A40767  43.887  16.769   6.455
 8661POPC   D2A40768  43.851  16.709   6.755
 8661POPC   C3A40769  43.850  16.757   7.055
 8661POPC   C4A40770  43.916  16.738   7.355
 8661POPC   C1B40771  43.657  16.650   6.455
 8661POPC   C2B40772  43.619  16.669   6.755
 8661POPC   C3B40773  43.675  16.664   7.055
 8661POPC   C4B40774  43.604  16.737   7.355
 8662POPC   NC340775  36.138  12.813   5.555
 8662POPC   PO440776  36.105  12.885   5.855
 8662POPC   GL140777  36.090  12.867   6.155
 8662POPC   GL240778  36.173  12.692   6.155
 8662POPC   C1A40779  36.141  12.882   6.455
 8662POPC   D2A40780  36.102  12.810   6.755
 8662POPC   C3A40781  36.154  12.839   7.055
 8662POPC   C4A40782  36.120  12.869   7.355
 8662POPC   C1B40783  36.177  12.606   6.455
 8662POPC   C2B40784  36.177  12.614   6.755
 8662POPC   C3B40785  36.207  12.558   7.055
 8662POPC   C4B40786  36.211  12.629   7.355
 8663POPC   NC340787  37.676  33.061   5.555
 8663POPC   PO440788  37.692  33.042   5.855
 8663POPC   GL140789  37.707  33.002   6.155
 8663POPC   GL240790  37.767  32.901   6.155
 8663POPC   C1A40791  37.646  33.017   6.455
 8663POPC   D2A40792  37.703  33.005   6.755
 8663POPC   C3A40793  37.696  33.009   7.055
 8663POPC   C4A40794  37.701  33.042   7.355
 8663POPC   C1B40795  37.832  32.789   6.455
 8663POPC   C2B40796  37.763  32.853   6.755
 8663POPC   C3B40797  37.820  32.767   7.055
 8663POPC   C4B40798  37.803  32.855   7.355
 8664POPC   NC340799  12.891  36.140   5.555
 8664POPC   PO440800  12.815  36.140   5.855
 8664POPC   GL140801  12.849  36.142   6.155
 8664POPC   GL240802  12.744  36.172   6.155
 8664POPC   C1A40803  12.840  36.103   6.455
 8664POPC   D2A40804  12.878  36.146   6.755
 8664POPC   C3A40805  12.838  36.177   7.055
 8664POPC   C4A40806  12.848  36.141   7.355
 8664POPC   C1B40807  12.568  36.240   6.455
 8664POPC   C2B40808  12.613  36.200   6.755
 8664POPC   C3B40809  12.612  36.234   7.055
 8664POPC   C4B40810  12.583  36.197   7.355
 8665POPC   NC340811  12.858  26.811   5.555
 8665POPC   PO440812  12.859  26.815   5.855
 8665POPC   GL140813  12.871  26.768   6.155
 8665POPC   GL240814  12.832  26.891   6.155
 8665POPC   C1A40815  12.868  26.837   6.455
 8665POPC   D2A40816  12.842  26.862   6.755
 8665POPC   C3A40817  12.851  26.790   7.055
 8665POPC   C4A40818  12.841  26.833   7.355
 8665POPC   C1B40819  12.812  27.056   6.455
 8665POPC   C2B40820  12.852  27.101   6.755
 8665POPC   C3B40821  12.791  27.060   7.055
 8665POPC   C4B40822  12.802  27.071   7.355
 8666POPC   NC340823  29.942  38.409   5.555
 8666POPC   PO440824  29.942  38.411   5.855
 8666POPC   GL140825  29.917  38.417   6.155
 8666POPC   GL240826  30.037  38.481   6.155
 8666POPC   C1A40827  29.946  38.443   6.455
 8666POPC   D2A40828  29.888  38.418   6.755
 8666POPC   C3A40829  29.872  38.496   7.055
 8666POPC   C4A40830  29.962  38.437   7.355
 8666POPC   C1B40831  30.149  38.416   6.455
 8666POPC   C2B40832  30.160  38.408   6.755
 8666POPC   C3B40833  30.181  38.409   7.055
 8666POPC   C4B40834  30.127  38.437   7.355
 8667POPC   NC340835  37.707  29.937   5.555
 8667POPC   PO440836  37.636  29.968   5.855
 8667POPC   GL140837  37.700  29.881   6.155
 8667POPC   GL240838  37.758  29.842   6.155
 8667POPC   C1A40839  37.700  29.941   6.455
 8667POPC   D2A40840  37.659  29.913   6.755
 8667POPC   C3A40841  37.655  29.914   7.055
 8667POPC   C4A40842  37.718  29.906   7.355
 8667POPC   C1B40843  37.857  29.706   6.455
 8667POPC   C2B40844  37.830  29.776   6.755
 8667POPC   C3B40845  37.893  29.754   7.055
 8667POPC   C4B40846  37.823  29.746   7.355
 8668POPC   NC340847  40.767  31.446   5.555
 8668POPC   PO440848  40.748  31.462   5.855
 8668POPC   GL140849  40.788  31.473   6.155
 8668POPC   GL240850  40.662  31.375   6.155
 8668POPC   C1A40851  40.800  31.455   6.455
 8668POPC   D2A40852  40.821  31.457   6.755
 8668POPC   C3A40853  40.802  31.504   7.055
 8668POPC   C4A40854  40.790  31.467   7.355
 8668POPC   C1B40855  40.617  31.342   6.455
 8668POPC   C2B40856  40.583  31.271   6.755
 8668POPC   C3B40857  40.556  31.346   7.055
 8668POPC   C4B40858  40.617  31.277   7.355
 8669POPC   NC340859  17.540  41.517   5.555
 8669POPC   PO440860  17.474  41.604   5.855
 8669POPC   GL140861  17.494  41.554   6.155
 8669POPC   GL240862  17.666  41.559   6.155
 8669POPC   C1A40863  17.537  41.561   6.455
 8669POPC   D2A40864  17.459  41.604   6.755
 8669POPC   C3A40865  17.511  41.603   7.055
 8669POPC   C4A40866  17.532  41.564   7.355
 8669POPC   C1B40867  17.741  41.589   6.455
 8669POPC   C2B40868  17.749  41.597   6.755
 8669POPC   C3B40869  17.757  41.613   7.055
 8669POPC   C4B40870  17.803  41.584   7.355
 8670POPC   NC340871  24.531  14.367   5.555
 8670POPC   PO440872  24.503  14.429   5.855
 8670POPC   GL140873  24.526  14.453   6.155
 8670POPC   GL240874  24.532  14.477   6.155
 8670POPC   C1A40875  24.467  14.365   6.455
 8670POPC   D2A40876  24.497  14.383   6.755
 8670POPC   C3A40877  24.495  14.425   7.055
 8670POPC   C4A40878  24.494  14.397   7.355
 8670POPC   C1B40879  24.630  14.549   6.455
 8670POPC   C2B40880  24.660  14.577   6.755
 8670POPC   C3B40881  24.663  14.637   7.055
 8670POPC   C4B40882  24.647  14.596   7.355
 8671POPC   NC340883   2.801  35.364   5.555
 8671POPC   PO440884   2.799  35.355   5.855
 8671POPC   GL140885   2.748  35.342   6.155
 8671POPC   GL240886   2.664  35.260   6.155
 8671POPC   C1A40887   2.783  35.371   6.455
 8671POPC   D2A40888   2.771  35.351   6.755
 8671POPC   C3A40889   2.769  35.350   7.055
 8671POPC   C4A40890   2.775  35.316   7.355
 8671POPC   C1B40891   2.596  35.211   6.455
 8671POPC   C2B40892   2.604  35.207   6.755
 8671POPC   C3B40893   2.552  35.147   7.055
 8671POPC   C4B40894   2.604  35.233   7.355
 8672POPC   NC340895  34.614  23.758   5.555
 8672POPC   PO440896  34.575  23.737   5.855
 8672POPC   GL140897  34.615  23.720   6.155
 8672POPC   GL240898  34.437  23.662   6.155
 8672POPC   C1A40899  34.623  23.664   6.455
 8672POPC   D2A40900  34.598  23.762   6.755
 8672POPC   C3A40901  34.545  23.711   7.055
 8672POPC   C4A40902  34.608  23.741   7.355
 8672POPC   C1B40903  34.359  23.657   6.455
 8672POPC   C2B40904  34.302  23.714   6.755
 8672POPC   C3B40905  34.370  23.738   7.055
 8672POPC   C4B40906  34.375  23.736   7.355
 8673POPC   NC340907   1.957   8.940   5.555
 8673POPC   PO440908   1.962   8.996   5.855
 8673POPC   GL140909   1.982   8.954   6.155
 8673POPC   GL240910   2.021   8.827   6.155
 8673POPC   C1A40911   1.996   8.933   6.455
 8673POPC   D2A40912   1.994   9.011   6.755
 8673POPC   C3A40913   1.940   8.954   7.055
 8673POPC   C4A40914   1.951   8.986   7.355
 8673POPC   C1B40915   2.060   8.735   6.455
 8673POPC   C2B40916   2.036   8.723   6.755
 8673POPC   C3B40917   1.999   8.702   7.055
 8673POPC   C4B40918   2.002   8.710   7.355
 8674POPC   NC340919  15.225   1.230   5.555
 8674POPC   PO440920  15.155   1.202   5.855
 8674POPC   GL140921  15.173   1.208   6.155
 8674POPC   GL240922  15.233   1.382   6.155
 8674POPC   C1A40923  15.176   1.216   6.455
 8674POPC   D2A40924  15.132   1.232   6.755
 8674POPC   C3A40925  15.142   1.206   7.055
 8674POPC   C4A40926  15.189   1.178   7.355
 8674POPC   C1B40927  15.237   1.457   6.455
 8674POPC   C2B40928  15.289   1.427   6.755
 8674POPC   C3B40929  15.300   1.484   7.055
 8674POPC   C4B40930  15.244   1.419   7.355
 8675POPC   NC340931  17.469  10.499   5.555
 8675POPC   PO440932  17.483  10.494   5.855
 8675POPC   GL140933  17.481  10.552   6.155
 8675POPC   GL240934  17.385  10.552   6.155
 8675POPC   C1A40935  17.480  10.482   6.455
 8675POPC   D2A40936  17.462  10.533   6.755
 8675POPC   C3A40937  17.508  10.517   7.055
 8675POPC   C4A40938  17.527  10.564   7.355
 8675POPC   C1B40939  17.315  10.717   6.455
 8675POPC   C2B40940  17.349  10.729   6.755
 8675POPC   C3B40941  17.344  10.664   7.055
 8675POPC   C4B40942  17.351  10.653   7.355
 8676POPC   NC340943  27.615  12.885   5.555
 8676POPC   PO440944  27.565  12.825   5.855
 8676POPC   GL140945  27.632  12.813   6.155
 8676POPC   GL240946  27.535  12.962   6.155
 8676POPC   C1A40947  27.547  12.804   6.455
 8676POPC   D2A40948  27.561  12.821   6.755
 8676POPC   C3A40949  27.552  12.843   7.055
 8676POPC   C4A40950  27.551  12.881   7.355
 8676POPC   C1B40951  27.555  13.088   6.455
 8676POPC   C2B40952  27.572  13.135   6.755
 8676POPC   C3B40953  27.580  13.085   7.055
 8676POPC   C4B40954  27.529  13.091   7.355
 8677POPC   NC340955  43.861  40.784   5.555
 8677POPC   PO440956  43.866  40.826   5.855
 8677POPC   GL140957  43.908  40.749   6.155
 8677POPC   GL240958  43.810  40.796   6.155
 8677POPC   C1A40959  43.932  40.822   6.455
 8677POPC   D2A40960  43.922  40.739   6.755
 8677POPC   C3A40961  43.847  40.741   7.055
 8677POPC   C4A40962  43.849  40.807   7.355
 8677POPC   C1B40963  43.690  40.716   6.455
 8677POPC   C2B40964  43.626  40.745   6.755
 8677POPC   C3B40965  43.605  40.685   7.055
 8677POPC   C4B40966  43.650  40.686   7.355
 8678POPC   NC340967  41.539  16.717   5.555
 8678POPC   PO440968  41.526  16.769   5.855
 8678POPC   GL140969  41.542  16.720   6.155
 8678POPC   GL240970  41.386  16.773   6.155
 8678POPC   C1A40971  41.510  16.700   6.455
 8678POPC   D2A40972  41.536  16.717   6.755
 8678POPC   C3A40973  41.530  16.728   7.055
 8678POPC   C4A40974  41.584  16.766   7.355
 8678POPC   C1B40975  41.335  16.673   6.455
 8678POPC   C2B40976  41.259  16.681   6.755
 8678POPC   C3B40977  41.352  16.720   7.055
 8678POPC   C4B40978  41.311  16.720   7.355
 8679POPC   NC340979  28.326  32.230   5.555
 8679POPC   PO440980  28.364  32.255   5.855
 8679POPC   GL140981  28.410  32.240   6.155
 8679POPC   GL240982  28.323  32.320   6.155
 8679POPC   C1A40983  28.406  32.257   6.455
 8679POPC   D2A40984  28.389  32.265   6.755
 8679POPC   C3A40985  28.375  32.296   7.055
 8679POPC   C4A40986  28.364  32.243   7.355
 8679POPC   C1B40987  28.247  32.405   6.455
 8679POPC   C2B40988  28.221  32.413   6.755
 8679POPC   C3B40989  28.268  32.426   7.055
 8679POPC   C4B40990  28.216  32.458   7.355
 8680POPC   NC340991  24.483  44.685   5.555
 8680POPC   PO440992  24.461  44.644   5.855
 8680POPC   GL140993  24.468  44.661   6.155
 8680POPC   GL240994  24.380  44.673   6.155
 8680POPC   C1A40995  24.441  44.685   6.455
 8680POPC   D2A40996  24.483  44.672   6.755
 8680POPC   C3A40997  24.495  44.659   7.055
 8680POPC   C4A40998  24.510  44.659   7.355
 8680POPC   C1B40999  24.289  44.597   6.455
 8680POPC   C2B41000  24.229  44.560   6.755
 8680POPC   C3B41001  24.220  44.617   7.055
 8680POPC   C4B41002  24.227  44.570   7.355
 8681POPC   NC341003  37.679  36.153   5.555
 8681POPC   PO441004  37.667  36.104   5.855
 8681POPC   GL141005  37.695  36.122   6.155
 8681POPC   GL241006  37.708  36.244   6.155
 8681POPC   C1A41007  37.716  36.167   6.455
 8681POPC   D2A41008  37.673  36.114   6.755
 8681POPC   C3A41009  37.673  36.084   7.055
 8681POPC   C4A41010  37.703  36.140   7.355
 8681POPC   C1B41011  37.824  36.341   6.455
 8681POPC   C2B41012  37.748  36.350   6.755
 8681POPC   C3B41013  37.812  36.366   7.055
 8681POPC   C4B41014  37.811  36.318   7.355
 8682POPC   NC341015  33.766   9.778   5.555
 8682POPC   PO441016  33.837   9.786   5.855
 8682POPC   GL141017  33.765   9.723   6.155
 8682POPC   GL241018  33.868   9.851   6.155
 8682POPC   C1A41019  33.844   9.744   6.455
 8682POPC   D2A41020  33.783   9.735   6.755
 8682POPC   C3A41021  33.848   9.706   7.055
 8682POPC   C4A41022  33.807   9.729   7.355
 8682POPC   C1B41023  33.901   9.947   6.455
 8682POPC   C2B41024  33.844   9.989   6.755
 8682POPC   C3B41025  33.821   9.993   7.055
 8682POPC   C4B41026  33.839  10.007   7.355
 8683POPC   NC341027   8.185   7.418   5.555
 8683POPC   PO441028   8.168   7.433   5.855
 8683POPC   GL141029   8.214   7.405   6.155
 8683POPC   GL241030   8.322   7.534   6.155
 8683POPC   C1A41031   8.149   7.375   6.455
 8683POPC   D2A41032   8.203   7.394   6.755
 8683POPC   C3A41033   8.213   7.386   7.055
 8683POPC   C4A41034   8.207   7.426   7.355
 8683POPC   C1B41035   8.345   7.562   6.455
 8683POPC   C2B41036   8.337   7.558   6.755
 8683POPC   C3B41037   8.408   7.566   7.055
 8683POPC   C4B41038   8.339   7.621   7.355
 8684POPC   NC341039  11.310   1.227   5.555
 8684POPC   PO441040  11.322   1.184   5.855
 8684POPC   GL141041  11.288   1.223   6.155
 8684POPC   GL241042  11.391   1.340   6.155
 8684POPC   C1A41043  11.339   1.239   6.455
 8684POPC   D2A41044  11.297   1.211   6.755
 8684POPC   C3A41045  11.285   1.167   7.055
 8684POPC   C4A41046  11.294   1.171   7.355
 8684POPC   C1B41047  11.451   1.442   6.455
 8684POPC   C2B41048  11.514   1.433   6.755
 8684POPC   C3B41049  11.498   1.379   7.055
 8684POPC   C4B41050  11.494   1.387   7.355
 8685POPC   NC341051   5.077  28.369   5.555
 8685POPC   PO441052   5.086  28.415   5.855
 8685POPC   GL141053   5.079  28.418   6.155
 8685POPC   GL241054   5.127  28.242   6.155
 8685POPC   C1A41055   5.138  28.362   6.455
 8685POPC   D2A41056   5.080  28.379   6.755
 8685POPC   C3A41057   5.077  28.387   7.055
 8685POPC   C4A41058   5.137  28.372   7.355
 8685POPC   C1B41059   5.199  28.134   6.455
 8685POPC   C2B41060   5.203  28.177   6.755
 8685POPC   C3B41061   5.199  28.146   7.055
 8685POPC   C4B41062   5.240  28.169   7.355
 8686POPC   NC341063  13.643  32.292   5.555
 8686POPC   PO441064  13.611  32.201   5.855
 8686POPC   GL141065  13.659  32.247   6.155
 8686POPC   GL241066  13.720  32.172   6.155
 8686POPC   C1A41067  13.589  32.260   6.455
 8686POPC   D2A41068  13.647  32.285   6.755
 8686POPC   C3A41069  13.592  32.241   7.055
 8686POPC   C4A41070  13.604  32.207   7.355
 8686POPC   C1B41071  13.858  32.115   6.455
 8686POPC   C2B41072  13.768  32.077   6.755
 8686POPC   C3B41073  13.839  32.116   7.055
 8686POPC   C4B41074  13.855  32.086   7.355
 8687POPC   NC341075   8.976  41.599   5.555
 8687POPC   PO441076   8.938  41.532   5.855
 8687POPC   GL141077   8.945  41.591   6.155
 8687POPC   GL241078   8.871  41.654   6.155
 8687POPC   C1A41079   8.999  41.570   6.455
 8687POPC   D2A41080   8.971  41.562   6.755
 8687POPC   C3A41081   9.008  41.594   7.055
 8687POPC   C4A41082   8.947  41.530   7.355
 8687POPC   C1B41083   8.844  41.729   6.455
 8687POPC   C2B41084   8.827  41.811   6.755
 8687POPC   C3B41085   8.884  41.772   7.055
 8687POPC   C4B41086   8.878  41.796   7.355
 8688POPC   NC341087   5.819  43.090   5.555
 8688POPC   PO441088   5.918  43.064   5.855
 8688POPC   GL141089   5.830  43.079   6.155
 8688POPC   GL241090   5.987  43.204   6.155
 8688POPC   C1A41091   5.889  43.119   6.455
 8688POPC   D2A41092   5.820  43.100   6.755
 8688POPC   C3A41093   5.838  43.061   7.055
 8688POPC   C4A41094   5.900  43.100   7.355
 8688POPC   C1B41095   6.044  43.211   6.455
 8688POPC   C2B41096   6.069  43.224   6.755
 8688POPC   C3B41097   6.138  43.244   7.055
 8688POPC   C4B41098   6.139  43.238   7.355
 8689POPC   NC341099  10.517  21.376   5.555
 8689POPC   PO441100  10.535  21.425   5.855
 8689POPC   GL141101  10.508  21.404   6.155
 8689POPC   GL241102  10.458  21.479   6.155
 8689POPC   C1A41103  10.489  21.398   6.455
 8689POPC   D2A41104  10.562  21.375   6.755
 8689POPC   C3A41105  10.483  21.418   7.055
 8689POPC   C4A41106  10.518  21.346   7.355
 8689POPC   C1B41107  10.325  21.585   6.455
 8689POPC   C2B41108  10.292  21.567   6.755
 8689POPC   C3B41109  10.323  21.587   7.055
 8689POPC   C4B41110  10.356  21.554   7.355
 8690POPC   NC341111  15.957  30.682   5.555
 8690POPC   PO441112  15.975  30.667   5.855
 8690POPC   GL141113  15.937  30.657   6.155
 8690POPC   GL241114  15.991  30.582   6.155
 8690POPC   C1A41115  15.928  30.653   6.455
 8690POPC   D2A41116  15.962  30.680   6.755
 8690POPC   C3A41117  15.937  30.725   7.055
 8690POPC   C4A41118  15.994  30.659   7.355
 8690POPC   C1B41119  16.118  30.493   6.455
 8690POPC   C2B41120  16.103  30.516   6.755
 8690POPC   C3B41121  16.061  30.523   7.055
 8690POPC   C4B41122  16.045  30.456   7.355
 8691POPC   NC341123  12.837  31.432   5.555
 8691POPC   PO441124  12.820  31.429   5.855
 8691POPC   GL141125  12.884  31.424   6.155
 8691POPC   GL241126  12.921  31.564   6.155
 8691POPC   C1A41127  12.849  31.461   6.455
 8691POPC   D2A41128  12.833  31.505   6.755
 8691POPC   C3A41129  12.893  31.520   7.055
 8691POPC   C4A41130  12.838  31.522   7.355
 8691POPC   C1B41131  13.032  31.670   6.455
 8691POPC   C2B41132  13.001  31.672   6.755
 8691POPC   C3B41133  13.060  31.677   7.055
 8691POPC   C4B41134  12.990  31.699   7.355
 8692POPC   NC341135  30.744  29.153   5.555
 8692POPC   PO441136  30.726  29.185   5.855
 8692POPC   GL141137  30.690  29.130   6.155
 8692POPC   GL241138  30.630  29.075   6.155
 8692POPC   C1A41139  30.682  29.146   6.455
 8692POPC   D2A41140  30.671  29.144   6.755
 8692POPC   C3A41141  30.673  29.119   7.055
 8692POPC   C4A41142  30.649  29.142   7.355
 8692POPC   C1B41143  30.535  28.931   6.455
 8692POPC   C2B41144  30.560  28.980   6.755
 8692POPC   C3B41145  30.493  28.982   7.055
 8692POPC   C4B41146  30.567  28.919   7.355
 8693POPC   NC341147  26.044  24.539   5.555
 8693POPC   PO441148  26.053  24.527   5.855
 8693POPC   GL141149  26.062  24.448   6.155
 8693POPC   GL241150  26.164  24.568   6.155
 8693POPC   C1A41151  25.992  24.483   6.455
 8693POPC   D2A41152  26.081  24.523   6.755
 8693POPC   C3A41153  26.055  24.442   7.055
 8693POPC   C4A41154  26.058  24.442   7.355
 8693POPC   C1B41155  26.191  24.642   6.455
 8693POPC   C2B41156  26.202  24.621   6.755
 8693POPC   C3B41157  26.198  24.687   7.055
 8693POPC   C4B41158  26.255  24.688   7.355
 8694POPC   NC341159  32.238  33.770   5.555
 8694POPC   PO441160  32.237  33.786   5.855
 8694POPC   GL141161  32.261  33.845   6.155
 8694POPC   GL241162  32.124  33.723   6.155
 8694POPC   C1A41163  32.230  33.776   6.455
 8694POPC   D2A41164  32.273  33.826   6.755
 8694POPC   C3A41165  32.264  33.780   7.055
 8694POPC   C4A41166  32.284  33.768   7.355
 8694POPC   C1B41167  32.023  33.687   6.455
 8694POPC   C2B41168  31.985  33.695   6.755
 8694POPC   C3B41169  32.052  33.652   7.055
 8694POPC   C4B41170  32.034  33.713   7.355
 8695POPC   NC341171   7.383  22.891   5.555
 8695POPC   PO441172   7.410  22.909   5.855
 8695POPC   GL141173   7.381  22.943   6.155
 8695POPC   GL241174   7.272  22.925   6.155
 8695POPC   C1A41175   7.402  22.976   6.455
 8695POPC   D2A41176   7.414  22.948   6.755
 8695POPC   C3A41177   7.391  22.970   7.055
 8695POPC   C4A41178   7.453  22.897   7.355
 8695POPC   C1B41179   7.176  22.946   6.455
 8695POPC   C2B41180   7.171  23.017   6.755
 8695POPC   C3B41181   7.170  22.954   7.055
 8695POPC   C4B41182   7.151  22.974   7.355
 8696POPC   NC341183  43.126  20.649   5.555
 8696POPC   PO441184  43.152  20.566   5.855
 8696POPC   GL141185  43.147  20.582   6.155
 8696POPC   GL241186  43.219  20.602   6.155
 8696POPC   C1A41187  43.094  20.643   6.455
 8696POPC   D2A41188  43.109  20.629   6.755
 8696POPC   C3A41189  43.073  20.583   7.055
 8696POPC   C4A41190  43.069  20.629   7.355
 8696POPC   C1B41191  43.376  20.532   6.455
 8696POPC   C2B41192  43.337  20.591   6.755
 8696POPC   C3B41193  43.344  20.521   7.055
 8696POPC   C4B41194  43.332  20.510   7.355
 8697POPC   NC341195  11.321  13.659   5.555
 8697POPC   PO441196  11.322  13.621   5.855
 8697POPC   GL141197  11.263  13.645   6.155
 8697POPC   GL241198  11.270  13.548   6.155
 8697POPC   C1A41199  11.317  13.581   6.455
 8697POPC   D2A41200  11.255  13.598   6.755
 8697POPC   C3A41201  11.278  13.636   7.055
 8697POPC   C4A41202  11.259  13.606   7.355
 8697POPC   C1B41203  11.266  13.366   6.455
 8697POPC   C2B41204  11.234  13.342   6.755
 8697POPC   C3B41205  11.252  13.387   7.055
 8697POPC   C4B41206  11.320  13.336   7.355
 8698POPC   NC341207  15.180  13.585   5.555
 8698POPC   PO441208  15.152  13.655   5.855
 8698POPC   GL141209  15.206  13.616   6.155
 8698POPC   GL241210  15.255  13.687   6.155
 8698POPC   C1A41211  15.225  13.655   6.455
 8698POPC   D2A41212  15.173  13.608   6.755
 8698POPC   C3A41213  15.169  13.616   7.055
 8698POPC   C4A41214  15.188  13.612   7.355
 8698POPC   C1B41215  15.447  13.652   6.455
 8698POPC   C2B41216  15.420  13.695   6.755
 8698POPC   C3B41217  15.383  13.711   7.055
 8698POPC   C4B41218  15.434  13.676   7.355
 8699POPC   NC341219  10.524  19.819   5.555
 8699POPC   PO441220  10.513  19.869   5.855
 8699POPC   GL141221  10.569  19.814   6.155
 8699POPC   GL241222  10.493  19.662   6.155
 8699POPC   C1A41223  10.557  19.880   6.455
 8699POPC   D2A41224  10.524  19.884   6.755
 8699POPC   C3A41225  10.491  19.864   7.055
 8699POPC   C4A41226  10.572  19.818   7.355
 8699POPC   C1B41227  10.537  19.542   6.455
 8699POPC   C2B41228  10.460  19.542   6.755
 8699POPC   C3B41229  10.505  19.600   7.055
 8699POPC   C4B41230  10.546  19.543   7.355
 8700POPC   NC341231  12.078   0.414   5.555
 8700POPC   PO441232  12.082   0.403   5.855
 8700POPC   GL141233  12.053   0.479   6.155
 8700POPC   GL241234  12.196   0.427   6.155
 8700POPC   C1A41235  12.077   0.425   6.455
 8700POPC   D2A41236  12.047   0.422   6.755
 8700POPC   C3A41237  12.126   0.487   7.055
 8700POPC   C4A41238  12.093   0.471   7.355
 8700POPC   C1B41239  12.370   0.490   6.455
 8700POPC   C2B41240  12.331   0.422   6.755
 8700POPC   C3B41241  12.315   0.460   7.055
 8700POPC   C4B41242  12.367   0.452   7.355
 8701POPC   NC341243  13.632  25.279   5.555
 8701POPC   PO441244  13.640  25.226   5.855
 8701POPC   GL141245  13.615  25.308   6.155
 8701POPC   GL241246  13.505  25.202   6.155
 8701POPC   C1A41247  13.589  25.312   6.455
 8701POPC   D2A41248  13.579  25.225   6.755
 8701POPC   C3A41249  13.642  25.276   7.055
 8701POPC   C4A41250  13.578  25.219   7.355
 8701POPC   C1B41251  13.335  25.203   6.455
 8701POPC   C2B41252  13.340  25.213   6.755
 8701POPC   C3B41253  13.404  25.238   7.055
 8701POPC   C4B41254  13.430  25.235   7.355
 8702POPC   NC341255  16.724  32.285   5.555
 8702POPC   PO441256  16.705  32.238   5.855
 8702POPC   GL141257  16.724  32.293   6.155
 8702POPC   GL241258  16.595  32.341   6.155
 8702POPC   C1A41259  16.748  32.284   6.455
 8702POPC   D2A41260  16.778  32.232   6.755
 8702POPC   C3A41261  16.745  32.230   7.055
 8702POPC   C4A41262  16.717  32.209   7.355
 8702POPC   C1B41263  16.532  32.398   6.455
 8702POPC   C2B41264  16.565  32.362   6.755
 8702POPC   C3B41265  16.481  32.432   7.055
 8702POPC   C4B41266  16.573  32.381   7.355
 8703POPC   NC341267  40.736  29.115   5.555
 8703POPC   PO441268  40.749  29.188   5.855
 8703POPC   GL141269  40.793  29.127   6.155
 8703POPC   GL241270  40.740  29.316   6.155
 8703POPC   C1A41271  40.777  29.186   6.455
 8703POPC   D2A41272  40.832  29.112   6.755
 8703POPC   C3A41273  40.801  29.176   7.055
 8703POPC   C4A41274  40.822  29.108   7.355
 8703POPC   C1B41275  40.783  29.415   6.455
 8703POPC   C2B41276  40.787  29.379   6.755
 8703POPC   C3B41277  40.707  29.406   7.055
 8703POPC   C4B41278  40.705  29.414   7.355
 8704POPC   NC341279  26.007  23.698   5.555
 8704POPC   PO441280  26.073  23.703   5.855
 8704POPC   GL141281  26.081  23.737   6.155
 8704POPC   GL241282  26.118  23.726   6.155
 8704POPC   C1A41283  26.052  23.727   6.455
 8704POPC   D2A41284  25.992  23.675   6.755
 8704POPC   C3A41285  26.044  23.731   7.055
 8704POPC   C4A41286  26.025  23.760   7.355
 8704POPC   C1B41287  26.276  23.762   6.455
 8704POPC   C2B41288  26.257  23.826   6.755
 8704POPC   C3B41289  26.305  23.810   7.055
 8704POPC   C4B41290  26.230  23.829   7.355
 8705POPC   NC341291  44.629   2.739   5.555
 8705POPC   PO441292  44.691   2.802   5.855
 8705POPC   GL141293  44.647   2.812   6.155
 8705POPC   GL241294  44.802   2.868   6.155
 8705POPC   C1A41295  44.660   2.733   6.455
 8705POPC   D2A41296  44.672   2.801   6.755
 8705POPC   C3A41297  44.695   2.769   7.055
 8705POPC   C4A41298  44.650   2.762   7.355
 8705POPC   C1B41299  44.917   2.922   6.455
 8705POPC   C2B41300  44.911   2.906   6.755
 8705POPC   C3B41301  44.919   2.887   7.055
 8705POPC   C4B41302  44.863   2.896   7.355
 8706POPC   NC341303  41.566  35.382   5.555
 8706POPC   PO441304  41.563  35.368   5.855
 8706POPC   GL141305  41.523  35.315   6.155
 8706POPC   GL241306  41.476  35.419   6.155
 8706POPC   C1A41307  41.515  35.314   6.455
 8706POPC   D2A41308  41.520  35.337   6.755
 8706POPC   C3A41309  41.524  35.367   7.055
 8706POPC   C4A41310  41.519  35.321   7.355
 8706POPC   C1B41311  41.326  35.464   6.455
 8706POPC   C2B41312  41.302  35.467   6.755
 8706POPC   C3B41313  41.374  35.424   7.055
 8706POPC   C4B41314  41.297  35.488   7.355
 8707POPC   NC341315   6.691   9.000   5.555
 8707POPC   PO441316   6.641   8.974   5.855
 8707POPC   GL141317   6.614   8.933   6.155
 8707POPC   GL241318   6.634   9.118   6.155
 8707POPC   C1A41319   6.617   8.945   6.455
 8707POPC   D2A41320   6.689   8.990   6.755
 8707POPC   C3A41321   6.650   9.009   7.055
 8707POPC   C4A41322   6.615   9.010   7.355
 8707POPC   C1B41323   6.753   9.232   6.455
 8707POPC   C2B41324   6.701   9.173   6.755
 8707POPC   C3B41325   6.708   9.239   7.055
 8707POPC   C4B41326   6.671   9.218   7.355
 8708POPC   NC341327  25.999  31.423   5.555
 8708POPC   PO441328  26.013  31.489   5.855
 8708POPC   GL141329  26.016  31.490   6.155
 8708POPC   GL241330  25.938  31.451   6.155
 8708POPC   C1A41331  26.056  31.428   6.455
 8708POPC   D2A41332  25.995  31.501   6.755
 8708POPC   C3A41333  26.056  31.443   7.055
 8708POPC   C4A41334  26.079  31.461   7.355
 8708POPC   C1B41335  25.837  31.393   6.455
 8708POPC   C2B41336  25.857  31.394   6.755
 8708POPC   C3B41337  25.829  31.405   7.055
 8708POPC   C4B41338  25.836  31.316   7.355
 8709POPC   NC341339  18.251  37.631   5.555
 8709POPC   PO441340  18.285  37.642   5.855
 8709POPC   GL141341  18.280  37.664   6.155
 8709POPC   GL241342  18.336  37.604   6.155
 8709POPC   C1A41343  18.299  37.666   6.455
 8709POPC   D2A41344  18.268  37.669   6.755
 8709POPC   C3A41345  18.322  37.691   7.055
 8709POPC   C4A41346  18.246  37.650   7.355
 8709POPC   C1B41347  18.372  37.434   6.455
 8709POPC   C2B41348  18.435  37.471   6.755
 8709POPC   C3B41349  18.382  37.486   7.055
 8709POPC   C4B41350  18.414  37.425   7.355
 8710POPC   NC341351  10.539   3.580   5.555
 8710POPC   PO441352  10.478   3.513   5.855
 8710POPC   GL141353  10.570   3.511   6.155
 8710POPC   GL241354  10.577   3.669   6.155
 8710POPC   C1A41355  10.556   3.558   6.455
 8710POPC   D2A41356  10.511   3.536   6.755
 8710POPC   C3A41357  10.554   3.517   7.055
 8710POPC   C4A41358  10.518   3.518   7.355
 8710POPC   C1B41359  10.604   3.732   6.455
 8710POPC   C2B41360  10.635   3.746   6.755
 8710POPC   C3B41361  10.654   3.726   7.055
 8710POPC   C4B41362  10.592   3.731   7.355
 8711POPC   NC341363  34.559  22.182   5.555
 8711POPC   PO441364  34.582  22.198   5.855
 8711POPC   GL141365  34.592  22.198   6.155
 8711POPC   GL241366  34.672  22.050   6.155
 8711POPC   C1A41367  34.541  22.201   6.455
 8711POPC   D2A41368  34.618  22.152   6.755
 8711POPC   C3A41369  34.610  22.142   7.055
 8711POPC   C4A41370  34.547  22.120   7.355
 8711POPC   C1B41371  34.744  21.983   6.455
 8711POPC   C2B41372  34.745  21.968   6.755
 8711POPC   C3B41373  34.683  21.912   7.055
 8711POPC   C4B41374  34.739  21.937   7.355
 8712POPC   NC341375   6.665  43.078   5.555
 8712POPC   PO441376   6.666  43.109   5.855
 8712POPC   GL141377   6.642  43.069   6.155
 8712POPC   GL241378   6.502  43.044   6.155
 8712POPC   C1A41379   6.603  43.125   6.455
 8712POPC   D2A41380   6.689  43.090   6.755
 8712POPC   C3A41381   6.623  43.120   7.055
 8712POPC   C4A41382   6.651  43.061   7.355
 8712POPC   C1B41383   6.371  43.041   6.455
 8712POPC   C2B41384   6.411  43.059   6.755
 8712POPC   C3B41385   6.446  43.023   7.055
 8712POPC   C4B41386   6.381  43.021   7.355
 8713POPC   NC341387  38.424  43.105   5.555
 8713POPC   PO441388  38.499  43.140   5.855
 8713POPC   GL141389  38.480  43.122   6.155
 8713POPC   GL241390  38.501  43.019   6.155
 8713POPC   C1A41391  38.485  43.072   6.455
 8713POPC   D2A41392  38.412  43.062   6.755
 8713POPC   C3A41393  38.453  43.101   7.055
 8713POPC   C4A41394  38.442  43.135   7.355
 8713POPC   C1B41395  38.534  42.897   6.455
 8713POPC   C2B41396  38.566  42.845   6.755
 8713POPC   C3B41397  38.588  42.889   7.055
 8713POPC   C4B41398  38.623  42.925   7.355
 8714POPC   NC341399   0.444  19.039   5.555
 8714POPC   PO441400   0.455  19.061   5.855
 8714POPC   GL141401   0.453  19.028   6.155
 8714POPC   GL241402   0.325  19.034   6.155
 8714POPC   C1A41403   0.393  19.017   6.455
 8714POPC   D2A41404   0.419  19.058   6.755
 8714POPC   C3A41405   0.417  19.009   7.055
 8714POPC   C4A41406   0.458  19.047   7.355
 8714POPC   C1B41407   0.215  18.912   6.455
 8714POPC   C2B41408   0.268  18.939   6.755
 8714POPC   C3B41409   0.279  18.904   7.055
 8714POPC   C4B41410   0.223  18.930   7.355
 8715POPC   NC341411  35.369  43.873   5.555
 8715POPC   PO441412  35.321  43.905   5.855
 8715POPC   GL141413  35.368  43.878   6.155
 8715POPC   GL241414  35.315  43.805   6.155
 8715POPC   C1A41415  35.355  43.928   6.455
 8715POPC   D2A41416  35.342  43.847   6.755
 8715POPC   C3A41417  35.340  43.883   7.055
 8715POPC   C4A41418  35.334  43.870   7.355
 8715POPC   C1B41419  35.193  43.656   6.455
 8715POPC   C2B41420  35.197  43.659   6.755
 8715POPC   C3B41421  35.249  43.666   7.055
 8715POPC   C4B41422  35.186  43.706   7.355
 8716POPC   NC341423  37.702  37.690   5.555
 8716POPC   PO441424  37.680  37.705   5.855
 8716POPC   GL141425  37.719  37.681   6.155
 8716POPC   GL241426  37.768  37.681   6.155
 8716POPC   C1A41427  37.661  37.657   6.455
 8716POPC   D2A41428  37.638  37.673   6.755
 8716POPC   C3A41429  37.666  37.726   7.055
 8716POPC   C4A41430  37.654  37.680   7.355
 8716POPC   C1B41431  37.873  37.751   6.455
 8716POPC   C2B41432  37.951  37.759   6.755
 8716POPC   C3B41433  37.928  37.778   7.055
 8716POPC   C4B41434  37.890  37.775   7.355
 8717POPC   NC341435  13.609  15.922   5.555
 8717POPC   PO441436  13.601  15.927   5.855
 8717POPC   GL141437  13.633  15.913   6.155
 8717POPC   GL241438  13.647  15.817   6.155
 8717POPC   C1A41439  13.677  15.941   6.455
 8717POPC   D2A41440  13.631  15.908   6.755
 8717POPC   C3A41441  13.613  15.965   7.055
 8717POPC   C4A41442  13.637  15.994   7.355
 8717POPC   C1B41443  13.530  15.717   6.455
 8717POPC   C2B41444  13.619  15.754   6.755
 8717POPC   C3B41445  13.537  15.683   7.055
 8717POPC   C4B41446  13.575  15.754   7.355
 8718POPC   NC341447  43.075  18.323   5.555
 8718POPC   PO441448  43.144  18.274   5.855
 8718POPC   GL141449  43.101  18.302   6.155
 8718POPC   GL241450  43.246  18.264   6.155
 8718POPC   C1A41451  43.083  18.325   6.455
 8718POPC   D2A41452  43.065  18.289   6.755
 8718POPC   C3A41453  43.122  18.330   7.055
 8718POPC   C4A41454  43.139  18.327   7.355
 8718POPC   C1B41455  43.337  18.260   6.455
 8718POPC   C2B41456  43.349  18.299   6.755
 8718POPC   C3B41457  43.355  18.269   7.055
 8718POPC   C4B41458  43.361  18.233   7.355
 8719POPC   NC341459  22.200  29.130   5.555
 8719POPC   PO441460  22.136  29.097   5.855
 8719POPC   GL141461  22.169  29.126   6.155
 8719POPC   GL241462  22.178  29.068   6.155
 8719POPC   C1A41463  22.184  29.180   6.455
 8719POPC   D2A41464  22.118  29.135   6.755
 8719POPC   C3A41465  22.152  29.176   7.055
 8719POPC   C4A41466  22.168  29.104   7.355
 8719POPC   C1B41467  22.288  28.972   6.455
 8719POPC   C2B41468  22.233  28.877   6.755
 8719POPC   C3B41469  22.284  28.882   7.055
 8719POPC   C4B41470  22.316  28.955   7.355
 8720POPC   NC341471  31.492   5.823   5.555
 8720POPC   PO441472  31.511   5.894   5.855
 8720POPC   GL141473  31.491   5.847   6.155
 8720POPC   GL241474  31.351   6.009   6.155
 8720POPC   C1A41475  31.515   5.891   6.455
 8720POPC   D2A41476  31.451   5.905   6.755
 8720POPC   C3A41477  31.493   5.886   7.055
 8720POPC   C4A41478  31.479   5.881   7.355
 8720POPC   C1B41479  31.284   6.065   6.455
 8720POPC   C2B41480  31.301   6.078   6.755
 8720POPC   C3B41481  31.368   6.094   7.055
 8720POPC   C4B41482  31.287   6.098   7.355
 8721POPC   NC341483  28.362  36.881   5.555
 8721POPC   PO441484  28.383  36.865   5.855
 8721POPC   GL141485  28.389  36.929   6.155
 8721POPC   GL241486  28.252  37.010   6.155
 8721POPC   C1A41487  28.350  36.942   6.455
 8721POPC   D2A41488  28.382  36.918   6.755
 8721POPC   C3A41489  28.395  36.854   7.055
 8721POPC   C4A41490  28.416  36.927   7.355
 8721POPC   C1B41491  28.154  37.049   6.455
 8721POPC   C2B41492  28.136  37.026   6.755
 8721POPC   C3B41493  28.166  37.064   7.055
 8721POPC   C4B41494  28.198  37.050   7.355
 8722POPC   NC341495  14.369  12.107   5.555
 8722POPC   PO441496  14.432  12.047   5.855
 8722POPC   GL141497  14.402  12.035   6.155
 8722POPC   GL241498  14.314  12.149   6.155
 8722POPC   C1A41499  14.451  12.084   6.455
 8722POPC   D2A41500  14.403  12.030   6.755
 8722POPC   C3A41501  14.370  12.119   7.055
 8722POPC   C4A41502  14.404  12.062   7.355
 8722POPC   C1B41503  14.125  12.194   6.455
 8722POPC   C2B41504  14.178  12.117   6.755
 8722POPC   C3B41505  14.216  12.190   7.055
 8722POPC   C4B41506  14.158  12.153   7.355
 8723POPC   NC341507  11.262  19.835   5.555
 8723POPC   PO441508  11.279  19.842   5.855
 8723POPC   GL141509  11.257  19.864   6.155
 8723POPC   GL241510  11.330  19.757   6.155
 8723POPC   C1A41511  11.279  19.788   6.455
 8723POPC   D2A41512  11.346  19.797   6.755
 8723POPC   C3A41513  11.327  19.829   7.055
 8723POPC   C4A41514  11.319  19.801   7.355
 8723POPC   C1B41515  11.300  19.555   6.455
 8723POPC   C2B41516  11.240  19.547   6.755
 8723POPC   C3B41517  11.240  19.559   7.055
 8723POPC   C4B41518  11.247  19.551   7.355
 8724POPC   NC341519  25.251  12.123   5.555
 8724POPC   PO441520  25.310  12.076   5.855
 8724POPC   GL141521  25.288  12.035   6.155
 8724POPC   GL241522  25.330  11.955   6.155
 8724POPC   C1A41523  25.302  12.108   6.455
 8724POPC   D2A41524  25.297  12.071   6.755
 8724POPC   C3A41525  25.219  12.083   7.055
 8724POPC   C4A41526  25.218  12.061   7.355
 8724POPC   C1B41527  25.393  11.808   6.455
 8724POPC   C2B41528  25.345  11.885   6.755
 8724POPC   C3B41529  25.373  11.821   7.055
 8724POPC   C4B41530  25.329  11.879   7.355
 8725POPC   NC341531  44.709  29.142   5.555
 8725POPC   PO441532  44.695  29.130   5.855
 8725POPC   GL141533  44.615  29.174   6.155
 8725POPC   GL241534  44.610  29.284   6.155
 8725POPC   C1A41535  44.631  29.153   6.455
 8725POPC   D2A41536  44.646  29.112   6.755
 8725POPC   C3A41537  44.624  29.163   7.055
 8725POPC   C4A41538  44.668  29.191   7.355
 8725POPC   C1B41539  44.633  29.340   6.455
 8725POPC   C2B41540  44.572  29.388   6.755
 8725POPC   C3B41541  44.572  29.342   7.055
 8725POPC   C4B41542  44.624  29.372   7.355
 8726POPC   NC341543  14.378  15.200   5.555
 8726POPC   PO441544  14.383  15.219   5.855
 8726POPC   GL141545  14.407  15.195   6.155
 8726POPC   GL241546  14.550  15.123   6.155
 8726POPC   C1A41547  14.415  15.209   6.455
 8726POPC   D2A41548  14.422  15.135   6.755
 8726POPC   C3A41549  14.395  15.158   7.055
 8726POPC   C4A41550  14.400  15.197   7.355
 8726POPC   C1B41551  14.640  15.027   6.455
 8726POPC   C2B41552  14.651  15.063   6.755
 8726POPC   C3B41553  14.628  15.105   7.055
 8726POPC   C4B41554  14.658  15.048   7.355
 8727POPC   NC341555  17.460  13.647   5.555
 8727POPC   PO441556  17.555  13.632   5.855
 8727POPC   GL141557  17.524  13.617   6.155
 8727POPC   GL241558  17.530  13.455   6.155
 8727POPC   C1A41559  17.513  13.622   6.455
 8727POPC   D2A41560  17.488  13.644   6.755
 8727POPC   C3A41561  17.518  13.670   7.055
 8727POPC   C4A41562  17.530  13.598   7.355
 8727POPC   C1B41563  17.541  13.343   6.455
 8727POPC   C2B41564  17.547  13.414   6.755
 8727POPC   C3B41565  17.452  13.368   7.055
 8727POPC   C4B41566  17.488  13.409   7.355
 8728POPC   NC341567  41.535   8.991   5.555
 8728POPC   PO441568  41.555   9.011   5.855
 8728POPC   GL141569  41.555   9.008   6.155
 8728POPC   GL241570  41.481   8.840   6.155
 8728POPC   C1A41571  41.587   8.960   6.455
 8728POPC   D2A41572  41.563   8.984   6.755
 8728POPC   C3A41573  41.595   8.957   7.055
 8728POPC   C4A41574  41.556   8.930   7.355
 8728POPC   C1B41575  41.438   8.793   6.455
 8728POPC   C2B41576  41.390   8.771   6.755
 8728POPC   C3B41577  41.423   8.806   7.055
 8728POPC   C4B41578  41.362   8.803   7.355
 8729POPC   NC341579  22.186  14.385   5.555
 8729POPC   PO441580  22.191  14.414   5.855
 8729POPC   GL141581  22.112  14.370   6.155
 8729POPC   GL241582  22.328  14.405   6.155
 8729POPC   C1A41583  22.137  14.452   6.455
 8729POPC   D2A41584  22.164  14.379   6.755
 8729POPC   C3A41585  22.137  14.398   7.055
 8729POPC   C4A41586  22.160  14.424   7.355
 8729POPC   C1B41587  22.358  14.309   6.455
 8729POPC   C2B41588  22.401  14.357   6.755
 8729POPC   C3B41589  22.411  14.332   7.055
 8729POPC   C4B41590  22.401  14.370   7.355
 8730POPC   NC341591  22.135  12.045   5.555
 8730POPC   PO441592  22.132  12.045   5.855
 8730POPC   GL141593  22.200  12.088   6.155
 8730POPC   GL241594  22.307  12.077   6.155
 8730POPC   C1A41595  22.132  12.069   6.455
 8730POPC   D2A41596  22.173  12.083   6.755
 8730POPC   C3A41597  22.133  12.091   7.055
 8730POPC   C4A41598  22.146  12.097   7.355
 8730POPC   C1B41599  22.401  12.118   6.455
 8730POPC   C2B41600  22.419  12.061   6.755
 8730POPC   C3B41601  22.426  12.148   7.055
 8730POPC   C4B41602  22.404  12.131   7.355
 8731POPC   NC341603  15.141   0.460   5.555
 8731POPC   PO441604  15.206   0.488   5.855
 8731POPC   GL141605  15.212   0.457   6.155
 8731POPC   GL241606  15.220   0.531   6.155
 8731POPC   C1A41607  15.212   0.415   6.455
 8731POPC   D2A41608  15.203   0.486   6.755
 8731POPC   C3A41609  15.181   0.428   7.055
 8731POPC   C4A41610  15.151   0.420   7.355
 8731POPC   C1B41611  15.272   0.724   6.455
 8731POPC   C2B41612  15.280   0.664   6.755
 8731POPC   C3B41613  15.220   0.647   7.055
 8731POPC   C4B41614  15.224   0.665   7.355
 8732POPC   NC341615  26.085  40.819   5.555
 8732POPC   PO441616  26.027  40.801   5.855
 8732POPC   GL141617  26.001  40.734   6.155
 8732POPC   GL241618  26.078  40.928   6.155
 8732POPC   C1A41619  26.050  40.775   6.455
 8732POPC   D2A41620  26.000  40.811   6.755
 8732POPC   C3A41621  26.069  40.815   7.055
 8732POPC   C4A41622  26.014  40.819   7.355
 8732POPC   C1B41623  26.059  40.977   6.455
 8732POPC   C2B41624  26.060  41.023   6.755
 8732POPC   C3B41625  26.073  41.058   7.055
 8732POPC   C4B41626  26.100  41.073   7.355
 8733POPC   NC341627  40.008  26.865   5.555
 8733POPC   PO441628  40.023  26.796   5.855
 8733POPC   GL141629  39.968  26.798   6.155
 8733POPC   GL241630  40.058  26.693   6.155
 8733POPC   C1A41631  39.986  26.859   6.455
 8733POPC   D2A41632  39.986  26.777   6.755
 8733POPC   C3A41633  39.997  26.867   7.055
 8733POPC   C4A41634  39.964  26.825   7.355
 8733POPC   C1B41635  39.972  26.572   6.455
 8733POPC   C2B41636  40.052  26.593   6.755
 8733POPC   C3B41637  40.017  26.599   7.055
 8733POPC   C4B41638  39.984  26.579   7.355
 8734POPC   NC341639  32.983   1.978   5.555
 8734POPC   PO441640  33.043   1.985   5.855
 8734POPC   GL141641  33.012   1.950   6.155
 8734POPC   GL241642  32.991   2.086   6.155
 8734POPC   C1A41643  33.053   2.011   6.455
 8734POPC   D2A41644  33.006   1.940   6.755
 8734POPC   C3A41645  33.065   1.992   7.055
 8734POPC   C4A41646  33.066   1.994   7.355
 8734POPC   C1B41647  33.028   2.222   6.455
 8734POPC   C2B41648  33.023   2.242   6.755
 8734POPC   C3B41649  33.026   2.279   7.055
 8734POPC   C4B41650  33.020   2.274   7.355
 8735POPC   NC341651  25.293  41.606   5.555
 8735POPC   PO441652  25.231  41.600   5.855
 8735POPC   GL141653  25.235  41.540   6.155
 8735POPC   GL241654  25.331  41.494   6.155
 8735POPC   C1A41655  25.223  41.597   6.455
 8735POPC   D2A41656  25.265  41.602   6.755
 8735POPC   C3A41657  25.224  41.576   7.055
 8735POPC   C4A41658  25.303  41.593   7.355
 8735POPC   C1B41659  25.443  41.380   6.455
 8735POPC   C2B41660  25.424  41.334   6.755
 8735POPC   C3B41661  25.394  41.351   7.055
 8735POPC   C4B41662  25.434  41.365   7.355
 8736POPC   NC341663  23.673  29.915   5.555
 8736POPC   PO441664  23.688  29.924   5.855
 8736POPC   GL141665  23.722  29.906   6.155
 8736POPC   GL241666  23.715  29.998   6.155
 8736POPC   C1A41667  23.729  29.964   6.455
 8736POPC   D2A41668  23.673  29.926   6.755
 8736POPC   C3A41669  23.669  29.952   7.055
 8736POPC   C4A41670  23.693  29.909   7.355
 8736POPC   C1B41671  23.826  30.155   6.455
 8736POPC   C2B41672  23.812  30.159   6.755
 8736POPC   C3B41673  23.822  30.160   7.055
 8736POPC   C4B41674  23.837  30.115   7.355
 8737POPC   NC341675  26.060  44.630   5.555
 8737POPC   PO441676  26.011  44.665   5.855
 8737POPC   GL141677  26.048  44.676   6.155
 8737POPC   GL241678  26.110  44.727   6.155
 8737POPC   C1A41679  26.078  44.619   6.455
 8737POPC   D2A41680  26.032  44.667   6.755
 8737POPC   C3A41681  26.061  44.685   7.055
 8737POPC   C4A41682  26.016  44.699   7.355
 8737POPC   C1B41683  26.299  44.752   6.455
 8737POPC   C2B41684  26.296  44.813   6.755
 8737POPC   C3B41685  26.224  44.816   7.055
 8737POPC   C4B41686  26.253  44.753   7.355
 8738POPC   NC341687  28.415  15.221   5.555
 8738POPC   PO441688  28.392  15.162   5.855
 8738POPC   GL141689  28.353  15.221   6.155
 8738POPC   GL241690  28.505  15.127   6.155
 8738POPC   C1A41691  28.414  15.148   6.455
 8738POPC   D2A41692  28.341  15.202   6.755
 8738POPC   C3A41693  28.371  15.192   7.055
 8738POPC   C4A41694  28.403  15.228   7.355
 8738POPC   C1B41695  28.532  15.066   6.455
 8738POPC   C2B41696  28.558  15.048   6.755
 8738POPC   C3B41697  28.611  15.024   7.055
 8738POPC   C4B41698  28.570  15.034   7.355
 8739POPC   NC341699  29.908  29.961   5.555
 8739POPC   PO441700  29.913  29.969   5.855
 8739POPC   GL141701  29.892  29.899   6.155
 8739POPC   GL241702  30.012  29.817   6.155
 8739POPC   C1A41703  29.903  29.931   6.455
 8739POPC   D2A41704  29.946  29.936   6.755
 8739POPC   C3A41705  29.887  29.880   7.055
 8739POPC   C4A41706  29.952  29.900   7.355
 8739POPC   C1B41707  29.986  29.703   6.455
 8739POPC   C2B41708  30.035  29.682   6.755
 8739POPC   C3B41709  30.042  29.733   7.055
 8739POPC   C4B41710  30.001  29.647   7.355
 8740POPC   NC341711  30.744  14.414   5.555
 8740POPC   PO441712  30.723  14.362   5.855
 8740POPC   GL141713  30.721  14.397   6.155
 8740POPC   GL241714  30.607  14.425   6.155
 8740POPC   C1A41715  30.734  14.442   6.455
 8740POPC   D2A41716  30.726  14.447   6.755
 8740POPC   C3A41717  30.746  14.360   7.055
 8740POPC   C4A41718  30.690  14.389   7.355
 8740POPC   C1B41719  30.522  14.576   6.455
 8740POPC   C2B41720  30.453  14.518   6.755
 8740POPC   C3B41721  30.458  14.500   7.055
 8740POPC   C4B41722  30.466  14.555   7.355
 8741POPC   NC341723  43.077  23.759   5.555
 8741POPC   PO441724  43.128  23.665   5.855
 8741POPC   GL141725  43.126  23.720   6.155
 8741POPC   GL241726  43.096  23.583   6.155
 8741POPC   C1A41727  43.115  23.667   6.455
 8741POPC   D2A41728  43.124  23.680   6.755
 8741POPC   C3A41729  43.109  23.703   7.055
 8741POPC   C4A41730  43.101  23.757   7.355
 8741POPC   C1B41731  43.095  23.462   6.455
 8741POPC   C2B41732  43.090  23.502   6.755
 8741POPC   C3B41733  43.137  23.459   7.055
 8741POPC   C4B41734  43.130  23.499   7.355
 8742POPC   NC341735  16.750   7.388   5.555
 8742POPC   PO441736  16.742   7.468   5.855
 8742POPC   GL141737  16.722   7.434   6.155
 8742POPC   GL241738  16.844   7.361   6.155
 8742POPC   C1A41739  16.717   7.434   6.455
 8742POPC   D2A41740  16.751   7.430   6.755
 8742POPC   C3A41741  16.765   7.408   7.055
 8742POPC   C4A41742  16.775   7.380   7.355
 8742POPC   C1B41743  16.896   7.213   6.455
 8742POPC   C2B41744  16.881   7.212   6.755
 8742POPC   C3B41745  16.883   7.225   7.055
 8742POPC   C4B41746  16.831   7.188   7.355
 8743POPC   NC341747  11.343  42.312   5.555
 8743POPC   PO441748  11.317  42.334   5.855
 8743POPC   GL141749  11.319  42.309   6.155
 8743POPC   GL241750  11.468  42.370   6.155
 8743POPC   C1A41751  11.287  42.302   6.455
 8743POPC   D2A41752  11.285  42.315   6.755
 8743POPC   C3A41753  11.269  42.371   7.055
 8743POPC   C4A41754  11.326  42.359   7.355
 8743POPC   C1B41755  11.522  42.335   6.455
 8743POPC   C2B41756  11.565  42.385   6.755
 8743POPC   C3B41757  11.543  42.394   7.055
 8743POPC   C4B41758  11.518  42.394   7.355
 8744POPC   NC341759  24.509  13.579   5.555
 8744POPC   PO441760  24.502  13.601   5.855
 8744POPC   GL141761  24.497  13.650   6.155
 8744POPC   GL241762  24.458  13.719   6.155
 8744POPC   C1A41763  24.455  13.629   6.455
 8744POPC   D2A41764  24.507  13.652   6.755
 8744POPC   C3A41765  24.494  13.654   7.055
 8744POPC   C4A41766  24.513  13.597   7.355
 8744POPC   C1B41767  24.346  13.883   6.455
 8744POPC   C2B41768  24.364  13.875   6.755
 8744POPC   C3B41769  24.387  13.858   7.055
 8744POPC   C4B41770  24.404  13.868   7.355
 8745POPC   NC341771   3.529  31.461   5.555
 8745POPC   PO441772   3.578  31.500   5.855
 8745POPC   GL141773   3.521  31.502   6.155
 8745POPC   GL241774   3.636  31.591   6.155
 8745POPC   C1A41775   3.533  31.469   6.455
 8745POPC   D2A41776   3.505  31.459   6.755
 8745POPC   C3A41777   3.565  31.497   7.055
 8745POPC   C4A41778   3.537  31.479   7.355
 8745POPC   C1B41779   3.695  31.728   6.455
 8745POPC   C2B41780   3.614  31.721   6.755
 8745POPC   C3B41781   3.666  31.646   7.055
 8745POPC   C4B41782   3.611  31.663   7.355
 8746POPC   NC341783  41.530  12.835   5.555
 8746POPC   PO441784  41.510  12.849   5.855
 8746POPC   GL141785  41.537  12.870   6.155
 8746POPC   GL241786  41.602  12.711   6.155
 8746POPC   C1A41787  41.559  12.870   6.455
 8746POPC   D2A41788  41.553  12.803   6.755
 8746POPC   C3A41789  41.523  12.822   7.055
 8746POPC   C4A41790  41.597  12.868   7.355
 8746POPC   C1B41791  41.664  12.605   6.455
 8746POPC   C2B41792  41.635  12.570   6.755
 8746POPC   C3B41793  41.657  12.615   7.055
 8746POPC   C4B41794  41.647  12.603   7.355
 8747POPC   NC341795  10.541  15.133   5.555
 8747POPC   PO441796  10.530  15.207   5.855
 8747POPC   GL141797  10.569  15.199   6.155
 8747POPC   GL241798  10.610  15.111   6.155
 8747POPC   C1A41799  10.499  15.196   6.455
 8747POPC   D2A41800  10.554  15.221   6.755
 8747POPC   C3A41801  10.570  15.141   7.055
 8747POPC   C4A41802  10.521  15.178   7.355
 8747POPC   C1B41803  10.664  14.936   6.455
 8747POPC   C2B41804  10.692  15.004   6.755
 8747POPC   C3B41805  10.617  14.962   7.055
 8747POPC   C4B41806  10.693  15.019   7.355
 8748POPC   NC341807  31.478   9.717   5.555
 8748POPC   PO441808  31.479   9.782   5.855
 8748POPC   GL141809  31.477   9.745   6.155
 8748POPC   GL241810  31.539   9.651   6.155
 8748POPC   C1A41811  31.428   9.797   6.455
 8748POPC   D2A41812  31.483   9.708   6.755
 8748POPC   C3A41813  31.458   9.724   7.055
 8748POPC   C4A41814  31.473   9.735   7.355
 8748POPC   C1B41815  31.553   9.513   6.455
 8748POPC   C2B41816  31.591   9.534   6.755
 8748POPC   C3B41817  31.583   9.543   7.055
 8748POPC   C4B41818  31.517   9.537   7.355
 8749POPC   NC341819  43.869  37.689   5.555
 8749POPC   PO441820  43.905  37.630   5.855
 8749POPC   GL141821  43.905  37.642   6.155
 8749POPC   GL241822  43.991  37.650   6.155
 8749POPC   C1A41823  43.836  37.690   6.455
 8749POPC   D2A41824  43.873  37.704   6.755
 8749POPC   C3A41825  43.911  37.676   7.055
 8749POPC   C4A41826  43.903  37.713   7.355
 8749POPC   C1B41827  44.128  37.584   6.455
 8749POPC   C2B41828  44.092  37.515   6.755
 8749POPC   C3B41829  44.109  37.582   7.055
 8749POPC   C4B41830  44.091  37.566   7.355
 8750POPC   NC341831   9.734  13.608   5.555
 8750POPC   PO441832   9.765  13.651   5.855
 8750POPC   GL141833   9.737  13.626   6.155
 8750POPC   GL241834   9.660  13.609   6.155
 8750POPC   C1A41835   9.746  13.665   6.455
 8750POPC   D2A41836   9.783  13.591   6.755
 8750POPC   C3A41837   9.702  13.622   7.055
 8750POPC   C4A41838   9.735  13.578   7.355
 8750POPC   C1B41839   9.457  13.690   6.455
 8750POPC   C2B41840   9.520  13.629   6.755
 8750POPC   C3B41841   9.527  13.702   7.055
 8750POPC   C4B41842   9.458  13.653   7.355
 8751POPC   NC341843  40.744  36.096   5.555
 8751POPC   PO441844  40.763  36.110   5.855
 8751POPC   GL141845  40.777  36.080   6.155
 8751POPC   GL241846  40.917  36.058   6.155
 8751POPC   C1A41847  40.801  36.080   6.455
 8751POPC   D2A41848  40.795  36.130   6.755
 8751POPC   C3A41849  40.762  36.107   7.055
 8751POPC   C4A41850  40.804  36.086   7.355
 8751POPC   C1B41851  41.061  36.088   6.455
 8751POPC   C2B41852  41.025  36.071   6.755
 8751POPC   C3B41853  40.994  36.026   7.055
 8751POPC   C4B41854  41.068  36.043   7.355
 8752POPC   NC341855  32.975   5.047   5.555
 8752POPC   PO441856  33.065   5.056   5.855
 8752POPC   GL141857  33.018   5.100   6.155
 8752POPC   GL241858  32.920   4.948   6.155
 8752POPC   C1A41859  32.999   5.051   6.455
 8752POPC   D2A41860  33.066   5.119   6.755
 8752POPC   C3A41861  33.040   5.058   7.055
 8752POPC   C4A41862  33.006   5.114   7.355
 8752POPC   C1B41863  32.900   4.884   6.455
 8752POPC   C2B41864  32.904   4.891   6.755
 8752POPC   C3B41865  32.928   4.876   7.055
 8752POPC   C4B41866  32.899   4.832   7.355
 8753POPC   NC341867  40.038  32.245   5.555
 8753POPC   PO441868  40.027  32.246   5.855
 8753POPC   GL141869  40.040  32.198   6.155
 8753POPC   GL241870  39.927  32.300   6.155
 8753POPC   C1A41871  40.034  32.206   6.455
 8753POPC   D2A41872  40.010  32.283   6.755
 8753POPC   C3A41873  40.012  32.242   7.055
 8753POPC   C4A41874  40.040  32.275   7.355
 8753POPC   C1B41875  39.846  32.467   6.455
 8753POPC   C2B41876  39.864  32.387   6.755
 8753POPC   C3B41877  39.881  32.474   7.055
 8753POPC   C4B41878  39.818  32.426   7.355
 8754POPC   NC341879  39.228  38.435   5.555
 8754POPC   PO441880  39.231  38.477   5.855
 8754POPC   GL141881  39.211  38.409   6.155
 8754POPC   GL241882  39.188  38.604   6.155
 8754POPC   C1A41883  39.209  38.441   6.455
 8754POPC   D2A41884  39.204  38.501   6.755
 8754POPC   C3A41885  39.202  38.433   7.055
 8754POPC   C4A41886  39.258  38.475   7.355
 8754POPC   C1B41887  39.081  38.732   6.455
 8754POPC   C2B41888  39.171  38.687   6.755
 8754POPC   C3B41889  39.106  38.679   7.055
 8754POPC   C4B41890  39.170  38.641   7.355
 8755POPC   NC341891   9.779   2.770   5.555
 8755POPC   PO441892   9.796   2.757   5.855
 8755POPC   GL141893   9.743   2.719   6.155
 8755POPC   GL241894   9.722   2.860   6.155
 8755POPC   C1A41895   9.775   2.791   6.455
 8755POPC   D2A41896   9.735   2.720   6.755
 8755POPC   C3A41897   9.711   2.788   7.055
 8755POPC   C4A41898   9.780   2.812   7.355
 8755POPC   C1B41899   9.662   3.016   6.455
 8755POPC   C2B41900   9.612   2.954   6.755
 8755POPC   C3B41901   9.653   3.032   7.055
 8755POPC   C4B41902   9.578   2.969   7.355
 8756POPC   NC341903   7.466   8.236   5.555
 8756POPC   PO441904   7.457   8.204   5.855
 8756POPC   GL141905   7.399   8.232   6.155
 8756POPC   GL241906   7.523   8.235   6.155
 8756POPC   C1A41907   7.460   8.195   6.455
 8756POPC   D2A41908   7.411   8.237   6.755
 8756POPC   C3A41909   7.441   8.220   7.055
 8756POPC   C4A41910   7.417   8.172   7.355
 8756POPC   C1B41911   7.635   8.300   6.455
 8756POPC   C2B41912   7.664   8.238   6.755
 8756POPC   C3B41913   7.657   8.269   7.055
 8756POPC   C4B41914   7.703   8.201   7.355
 8757POPC   NC341915  17.483  26.852   5.555
 8757POPC   PO441916  17.519  26.863   5.855
 8757POPC   GL141917  17.465  26.826   6.155
 8757POPC   GL241918  17.431  26.713   6.155
 8757POPC   C1A41919  17.522  26.804   6.455
 8757POPC   D2A41920  17.478  26.783   6.755
 8757POPC   C3A41921  17.531  26.829   7.055
 8757POPC   C4A41922  17.536  26.770   7.355
 8757POPC   C1B41923  17.287  26.703   6.455
 8757POPC   C2B41924  17.262  26.726   6.755
 8757POPC   C3B41925  17.249  26.659   7.055
 8757POPC   C4B41926  17.264  26.649   7.355
 8758POPC   NC341927   7.426   5.108   5.555
 8758POPC   PO441928   7.375   5.092   5.855
 8758POPC   GL141929   7.437   5.048   6.155
 8758POPC   GL241930   7.416   4.953   6.155
 8758POPC   C1A41931   7.409   5.106   6.455
 8758POPC   D2A41932   7.417   5.073   6.755
 8758POPC   C3A41933   7.455   5.093   7.055
 8758POPC   C4A41934   7.378   5.055   7.355
 8758POPC   C1B41935   7.392   4.820   6.455
 8758POPC   C2B41936   7.412   4.872   6.755
 8758POPC   C3B41937   7.436   4.862   7.055
 8758POPC   C4B41938   7.412   4.887   7.355
 8759POPC   NC341939   2.740  16.730   5.555
 8759POPC   PO441940   2.721  16.727   5.855
 8759POPC   GL141941   2.794  16.712   6.155
 8759POPC   GL241942   2.705  16.868   6.155
 8759POPC   C1A41943   2.791  16.746   6.455
 8759POPC   D2A41944   2.812  16.775   6.755
 8759POPC   C3A41945   2.756  16.763   7.055
 8759POPC   C4A41946   2.813  16.763   7.355
 8759POPC   C1B41947   2.657  16.956   6.455
 8759POPC   C2B41948   2.671  16.921   6.755
 8759POPC   C3B41949   2.650  16.898   7.055
 8759POPC   C4B41950   2.647  16.972   7.355
 8760POPC   NC341951  29.168  32.985   5.555
 8760POPC   PO441952  29.175  33.039   5.855
 8760POPC   GL141953  29.122  33.054   6.155
 8760POPC   GL241954  29.047  32.928   6.155
 8760POPC   C1A41955  29.177  32.982   6.455
 8760POPC   D2A41956  29.190  33.041   6.755
 8760POPC   C3A41957  29.159  33.033   7.055
 8760POPC   C4A41958  29.141  32.979   7.355
 8760POPC   C1B41959  28.906  32.904   6.455
 8760POPC   C2B41960  28.881  32.947   6.755
 8760POPC   C3B41961  28.967  32.860   7.055
 8760POPC   C4B41962  28.904  32.896   7.355
 8761POPC   NC341963  43.085  33.055   5.555
 8761POPC   PO441964  43.149  32.990   5.855
 8761POPC   GL141965  43.088  33.071   6.155
 8761POPC   GL241966  43.134  33.120   6.155
 8761POPC   C1A41967  43.156  33.031   6.455
 8761POPC   D2A41968  43.121  33.007   6.755
 8761POPC   C3A41969  43.094  33.069   7.055
 8761POPC   C4A41970  43.078  33.005   7.355
 8761POPC   C1B41971  43.061  33.258   6.455
 8761POPC   C2B41972  43.032  33.270   6.755
 8761POPC   C3B41973  43.102  33.291   7.055
 8761POPC   C4B41974  43.062  33.306   7.355
 8762POPC   NC341975  30.729   6.642   5.555
 8762POPC   PO441976  30.680   6.621   5.855
 8762POPC   GL141977  30.719   6.679   6.155
 8762POPC   GL241978  30.750   6.708   6.155
 8762POPC   C1A41979  30.701   6.624   6.455
 8762POPC   D2A41980  30.707   6.664   6.755
 8762POPC   C3A41981  30.722   6.682   7.055
 8762POPC   C4A41982  30.731   6.686   7.355
 8762POPC   C1B41983  30.779   6.863   6.455
 8762POPC   C2B41984  30.847   6.859   6.755
 8762POPC   C3B41985  30.777   6.875   7.055
 8762POPC   C4B41986  30.816   6.919   7.355
 8763POPC   NC341987  33.808  16.764   5.555
 8763POPC   PO441988  33.825  16.729   5.855
 8763POPC   GL141989  33.841  16.752   6.155
 8763POPC   GL241990  33.733  16.617   6.155
 8763POPC   C1A41991  33.775  16.747   6.455
 8763POPC   D2A41992  33.780  16.731   6.755
 8763POPC   C3A41993  33.834  16.729   7.055
 8763POPC   C4A41994  33.819  16.753   7.355
 8763POPC   C1B41995  33.657  16.582   6.455
 8763POPC   C2B41996  33.605  16.584   6.755
 8763POPC   C3B41997  33.651  16.532   7.055
 8763POPC   C4B41998  33.621  16.540   7.355
 8764POPC   NC341999   3.533   4.361   5.555
 8764POPC   PO442000   3.540   4.281   5.855
 8764POPC   GL142001   3.502   4.363   6.155
 8764POPC   GL242002   3.543   4.417   6.155
 8764POPC   C1A42003   3.492   4.295   6.455
 8764POPC   D2A42004   3.579   4.302   6.755
 8764POPC   C3A42005   3.565   4.344   7.055
 8764POPC   C4A42006   3.576   4.338   7.355
 8764POPC   C1B42007   3.501   4.544   6.455
 8764POPC   C2B42008   3.524   4.578   6.755
 8764POPC   C3B42009   3.525   4.584   7.055
 8764POPC   C4B42010   3.555   4.599   7.355
 8765POPC   NC342011  33.050  31.455   5.555
 8765POPC   PO442012  33.018  31.457   5.855
 8765POPC   GL142013  33.037  31.484   6.155
 8765POPC   GL242014  32.999  31.375   6.155
 8765POPC   C1A42015  32.975  31.487   6.455
 8765POPC   D2A42016  33.057  31.482   6.755
 8765POPC   C3A42017  32.984  31.474   7.055
 8765POPC   C4A42018  33.022  31.469   7.355
 8765POPC   C1B42019  32.912  31.202   6.455
 8765POPC   C2B42020  32.915  31.231   6.755
 8765POPC   C3B42021  32.972  31.278   7.055
 8765POPC   C4B42022  32.941  31.219   7.355
 8766POPC   NC342023  34.591   8.163   5.555
 8766POPC   PO442024  34.597   8.171   5.855
 8766POPC   GL142025  34.603   8.178   6.155
 8766POPC   GL242026  34.670   8.142   6.155
 8766POPC   C1A42027  34.580   8.155   6.455
 8766POPC   D2A42028  34.612   8.208   6.755
 8766POPC   C3A42029  34.579   8.199   7.055
 8766POPC   C4A42030  34.538   8.180   7.355
 8766POPC   C1B42031  34.733   7.977   6.455
 8766POPC   C2B42032  34.695   7.958   6.755
 8766POPC   C3B42033  34.712   7.957   7.055
 8766POPC   C4B42034  34.737   7.957   7.355
 8767POPC   NC342035  32.202  37.649   5.555
 8767POPC   PO442036  32.293  37.653   5.855
 8767POPC   GL142037  32.210  37.687   6.155
 8767POPC   GL242038  32.367  37.642   6.155
 8767POPC   C1A42039  32.294  37.697   6.455
 8767POPC   D2A42040  32.248  37.662   6.755
 8767POPC   C3A42041  32.262  37.643   7.055
 8767POPC   C4A42042  32.264  37.719   7.355
 8767POPC   C1B42043  32.512  37.609   6.455
 8767POPC   C2B42044  32.490  37.620   6.755
 8767POPC   C3B42045  32.456  37.597   7.055
 8767POPC   C4B42046  32.458  37.619   7.355
 8768POPC   NC342047  35.387  36.895   5.555
 8768POPC   PO442048  35.366  36.909   5.855
 8768POPC   GL142049  35.343  36.890   6.155
 8768POPC   GL242050  35.425  36.750   6.155
 8768POPC   C1A42051  35.397  36.893   6.455
 8768POPC   D2A42052  35.356  36.877   6.755
 8768POPC   C3A42053  35.351  36.871   7.055
 8768POPC   C4A42054  35.370  36.905   7.355
 8768POPC   C1B42055  35.394  36.707   6.455
 8768POPC   C2B42056  35.482  36.704   6.755
 8768POPC   C3B42057  35.447  36.647   7.055
 8768POPC   C4B42058  35.460  36.702   7.355
 8769POPC   NC342059  36.146  14.406   5.555
 8769POPC   PO442060  36.145  14.356   5.855
 8769POPC   GL142061  36.159  14.439   6.155
 8769POPC   GL242062  36.056  14.352   6.155
 8769POPC   C1A42063  36.148  14.451   6.455
 8769POPC   D2A42064  36.161  14.386   6.755
 8769POPC   C3A42065  36.112  14.370   7.055
 8769POPC   C4A42066  36.161  14.384   7.355
 8769POPC   C1B42067  35.844  14.297   6.455
 8769POPC   C2B42068  35.844  14.305   6.755
 8769POPC   C3B42069  35.872  14.364   7.055
 8769POPC   C4B42070  35.894  14.335   7.355
 8770POPC   NC342071  30.716   4.291   5.555
 8770POPC   PO442072  30.706   4.286   5.855
 8770POPC   GL142073  30.682   4.343   6.155
 8770POPC   GL242074  30.799   4.404   6.155
 8770POPC   C1A42075  30.704   4.338   6.455
 8770POPC   D2A42076  30.666   4.343   6.755
 8770POPC   C3A42077  30.659   4.337   7.055
 8770POPC   C4A42078  30.710   4.314   7.355
 8770POPC   C1B42079  30.819   4.559   6.455
 8770POPC   C2B42080  30.807   4.480   6.755
 8770POPC   C3B42081  30.881   4.531   7.055
 8770POPC   C4B42082  30.846   4.558   7.355
 8771POPC   NC342083  37.705  16.755   5.555
 8771POPC   PO442084  37.661  16.736   5.855
 8771POPC   GL142085  37.692  16.764   6.155
 8771POPC   GL242086  37.800  16.807   6.155
 8771POPC   C1A42087  37.665  16.774   6.455
 8771POPC   D2A42088  37.707  16.719   6.755
 8771POPC   C3A42089  37.705  16.717   7.055
 8771POPC   C4A42090  37.695  16.684   7.355
 8771POPC   C1B42091  37.829  16.922   6.455
 8771POPC   C2B42092  37.878  16.898   6.755
 8771POPC   C3B42093  37.856  16.929   7.055
 8771POPC   C4B42094  37.802  16.940   7.355
 8772POPC   NC342095  44.691  36.896   5.555
 8772POPC   PO442096  44.629  36.900   5.855
 8772POPC   GL142097  44.663  36.910   6.155
 8772POPC   GL242098  44.657  37.007   6.155
 8772POPC   C1A42099  44.680  36.881   6.455
 8772POPC   D2A42100  44.633  36.888   6.755
 8772POPC   C3A42101  44.630  36.896   7.055
 8772POPC   C4A42102  44.704  36.908   7.355
 8772POPC   C1B42103  44.574  37.160   6.455
 8772POPC   C2B42104  44.637  37.153   6.755
 8772POPC   C3B42105  44.545  37.166   7.055
 8772POPC   C4B42106  44.564  37.105   7.355
 8773POPC   NC342107  14.392  23.713   5.555
 8773POPC   PO442108  14.375  23.715   5.855
 8773POPC   GL142109  14.421  23.680   6.155
 8773POPC   GL242110  14.285  23.607   6.155
 8773POPC   C1A42111  14.355  23.686   6.455
 8773POPC   D2A42112  14.411  23.747   6.755
 8773POPC   C3A42113  14.362  23.695   7.055
 8773POPC   C4A42114  14.400  23.702   7.355
 8773POPC   C1B42115  14.204  23.538   6.455
 8773POPC   C2B42116  14.193  23.547   6.755
 8773POPC   C3B42117  14.235  23.536   7.055
 8773POPC   C4B42118  14.239  23.531   7.355
 8774POPC   NC342119  35.353  19.039   5.555
 8774POPC   PO442120  35.398  19.077   5.855
 8774POPC   GL142121  35.309  19.081   6.155
 8774POPC   GL242122  35.288  18.912   6.155
 8774POPC   C1A42123  35.302  19.102   6.455
 8774POPC   D2A42124  35.315  19.080   6.755
 8774POPC   C3A42125  35.356  19.082   7.055
 8774POPC   C4A42126  35.346  19.101   7.355
 8774POPC   C1B42127  35.301  18.851   6.455
 8774POPC   C2B42128  35.277  18.790   6.755
 8774POPC   C3B42129  35.265  18.804   7.055
 8774POPC   C4B42130  35.316  18.785   7.355
 8775POPC   NC342131  24.487  28.326   5.555
 8775POPC   PO442132  24.491  28.381   5.855
 8775POPC   GL142133  24.460  28.336   6.155
 8775POPC   GL242134  24.364  28.359   6.155
 8775POPC   C1A42135  24.511  28.374   6.455
 8775POPC   D2A42136  24.458  28.339   6.755
 8775POPC   C3A42137  24.469  28.372   7.055
 8775POPC   C4A42138  24.527  28.411   7.355
 8775POPC   C1B42139  24.204  28.473   6.455
 8775POPC   C2B42140  24.229  28.419   6.755
 8775POPC   C3B42141  24.247  28.473   7.055
 8775POPC   C4B42142  24.261  28.476   7.355
 8776POPC   NC342143  11.294  36.165   5.555
 8776POPC   PO442144  11.331  36.083   5.855
 8776POPC   GL142145  11.275  36.085   6.155
 8776POPC   GL242146  11.134  36.113   6.155
 8776POPC   C1A42147  11.347  36.153   6.455
 8776POPC   D2A42148  11.330  36.099   6.755
 8776POPC   C3A42149  11.317  36.109   7.055
 8776POPC   C4A42150  11.278  36.154   7.355
 8776POPC   C1B42151  11.066  36.195   6.455
 8776POPC   C2B42152  11.045  36.143   6.755
 8776POPC   C3B42153  11.024  36.208   7.055
 8776POPC   C4B42154  11.081  36.170   7.355
 8777POPC   NC342155  30.668  40.737   5.555
 8777POPC   PO442156  30.690  40.804   5.855
 8777POPC   GL142157  30.699  40.791   6.155
 8777POPC   GL242158  30.721  40.713   6.155
 8777POPC   C1A42159  30.676  40.773   6.455
 8777POPC   D2A42160  30.686  40.807   6.755
 8777POPC   C3A42161  30.656  40.790   7.055
 8777POPC   C4A42162  30.696  40.761   7.355
 8777POPC   C1B42163  30.817  40.575   6.455
 8777POPC   C2B42164  30.878  40.562   6.755
 8777POPC   C3B42165  30.796  40.558   7.055
 8777POPC   C4B42166  30.820  40.573   7.355
 8778POPC   NC342167  26.797  10.479   5.555
 8778POPC   PO442168  26.778  10.511   5.855
 8778POPC   GL142169  26.798  10.532   6.155
 8778POPC   GL242170  26.944  10.598   6.155
 8778POPC   C1A42171  26.864  10.499   6.455
 8778POPC   D2A42172  26.776  10.514   6.755
 8778POPC   C3A42173  26.773  10.491   7.055
 8778POPC   C4A42174  26.769  10.566   7.355
 8778POPC   C1B42175  27.073  10.597   6.455
 8778POPC   C2B42176  27.027  10.598   6.755
 8778POPC   C3B42177  27.037  10.564   7.055
 8778POPC   C4B42178  27.018  10.581   7.355
 8779POPC   NC342179  17.483  11.256   5.555
 8779POPC   PO442180  17.506  11.251   5.855
 8779POPC   GL142181  17.517  11.302   6.155
 8779POPC   GL242182  17.435  11.270   6.155
 8779POPC   C1A42183  17.543  11.301   6.455
 8779POPC   D2A42184  17.485  11.286   6.755
 8779POPC   C3A42185  17.506  11.330   7.055
 8779POPC   C4A42186  17.518  11.332   7.355
 8779POPC   C1B42187  17.284  11.158   6.455
 8779POPC   C2B42188  17.290  11.211   6.755
 8779POPC   C3B42189  17.287  11.184   7.055
 8779POPC   C4B42190  17.322  11.167   7.355
 8780POPC   NC342191  32.986  11.327   5.555
 8780POPC   PO442192  33.055  11.279   5.855
 8780POPC   GL142193  33.067  11.282   6.155
 8780POPC   GL242194  32.875  11.405   6.155
 8780POPC   C1A42195  32.975  11.261   6.455
 8780POPC   D2A42196  32.986  11.290   6.755
 8780POPC   C3A42197  33.051  11.325   7.055
 8780POPC   C4A42198  33.019  11.322   7.355
 8780POPC   C1B42199  32.865  11.466   6.455
 8780POPC   C2B42200  32.774  11.436   6.755
 8780POPC   C3B42201  32.867  11.398   7.055
 8780POPC   C4B42202  32.784  11.421   7.355
 8781POPC   NC342203  18.314  14.367   5.555
 8781POPC   PO442204  18.329  14.408   5.855
 8781POPC   GL142205  18.314  14.377   6.155
 8781POPC   GL242206  18.330  14.526   6.155
 8781POPC   C1A42207  18.278  14.405   6.455
 8781POPC   D2A42208  18.250  14.436   6.755
 8781POPC   C3A42209  18.308  14.401   7.055
 8781POPC   C4A42210  18.252  14.451   7.355
 8781POPC   C1B42211  18.417  14.615   6.455
 8781POPC   C2B42212  18.461  14.566   6.755
 8781POPC   C3B42213  18.414  14.567   7.055
 8781POPC   C4B42214  18.414  14.581   7.355
 8782POPC   NC342215  24.477   9.010   5.555
 8782POPC   PO442216  24.479   8.936   5.855
 8782POPC   GL142217  24.459   9.013   6.155
 8782POPC   GL242218  24.459   8.855   6.155
 8782POPC   C1A42219  24.493   9.009   6.455
 8782POPC   D2A42220  24.499   9.005   6.755
 8782POPC   C3A42221  24.452   8.947   7.055
 8782POPC   C4A42222  24.528   8.979   7.355
 8782POPC   C1B42223  24.480   8.698   6.455
 8782POPC   C2B42224  24.504   8.769   6.755
 8782POPC   C3B42225  24.442   8.744   7.055
 8782POPC   C4B42226  24.464   8.701   7.355
 8783POPC   NC342227  15.198  36.104   5.555
 8783POPC   PO442228  15.138  36.164   5.855
 8783POPC   GL142229  15.155  36.132   6.155
 8783POPC   GL242230  15.252  36.125   6.155
 8783POPC   C1A42231  15.140  36.112   6.455
 8783POPC   D2A42232  15.201  36.170   6.755
 8783POPC   C3A42233  15.166  36.104   7.055
 8783POPC   C4A42234  15.227  36.133   7.355
 8783POPC   C1B42235  15.410  36.109   6.455
 8783POPC   C2B42236  15.432  36.118   6.755
 8783POPC   C3B42237  15.425  36.047   7.055
 8783POPC   C4B42238  15.458  36.089   7.355
 8784POPC   NC342239  30.662  38.419   5.555
 8784POPC   PO442240  30.670  38.490   5.855
 8784POPC   GL142241  30.698  38.444   6.155
 8784POPC   GL242242  30.773  38.417   6.155
 8784POPC   C1A42243  30.706  38.415   6.455
 8784POPC   D2A42244  30.707  38.431   6.755
 8784POPC   C3A42245  30.729  38.476   7.055
 8784POPC   C4A42246  30.685  38.420   7.355
 8784POPC   C1B42247  30.946  38.311   6.455
 8784POPC   C2B42248  30.871  38.319   6.755
 8784POPC   C3B42249  30.930  38.345   7.055
 8784POPC   C4B42250  30.889  38.280   7.355
 8785POPC   NC342251  31.515  42.376   5.555
 8785POPC   PO442252  31.442  42.373   5.855
 8785POPC   GL142253  31.475  42.293   6.155
 8785POPC   GL242254  31.639  42.276   6.155
 8785POPC   C1A42255  31.453  42.317   6.455
 8785POPC   D2A42256  31.494  42.312   6.755
 8785POPC   C3A42257  31.484  42.367   7.055
 8785POPC   C4A42258  31.481  42.380   7.355
 8785POPC   C1B42259  31.674  42.312   6.455
 8785POPC   C2B42260  31.683  42.353   6.755
 8785POPC   C3B42261  31.728  42.273   7.055
 8785POPC   C4B42262  31.683  42.354   7.355
 8786POPC   NC342263  39.276  39.277   5.555
 8786POPC   PO442264  39.185  39.281   5.855
 8786POPC   GL142265  39.234  39.273   6.155
 8786POPC   GL242266  39.162  39.283   6.155
 8786POPC   C1A42267  39.277  39.272   6.455
 8786POPC   D2A42268  39.192  39.225   6.755
 8786POPC   C3A42269  39.211  39.187   7.055
 8786POPC   C4A42270  39.230  39.188   7.355
 8786POPC   C1B42271  39.015  39.391   6.455
 8786POPC   C2B42272  39.050  39.424   6.755
 8786POPC   C3B42273  39.026  39.347   7.055
 8786POPC   C4B42274  39.058  39.377   7.355
 8787POPC   NC342275  43.097   7.452   5.555
 8787POPC   PO442276  43.061   7.411   5.855
 8787POPC   GL142277  43.147   7.414   6.155
 8787POPC   GL242278  43.093   7.499   6.155
 8787POPC   C1A42279  43.072   7.377   6.455
 8787POPC   D2A42280  43.102   7.463   6.755
 8787POPC   C3A42281  43.142   7.456   7.055
 8787POPC   C4A42282  43.123   7.470   7.355
 8787POPC   C1B42283  43.067   7.618   6.455
 8787POPC   C2B42284  43.091   7.666   6.755
 8787POPC   C3B42285  43.087   7.664   7.055
 8787POPC   C4B42286  43.022   7.683   7.355
 8788POPC   NC342287  27.642   5.096   5.555
 8788POPC   PO442288  27.599   5.058   5.855
 8788POPC   GL142289  27.607   5.047   6.155
 8788POPC   GL242290  27.533   5.012   6.155
 8788POPC   C1A42291  27.587   5.082   6.455
 8788POPC   D2A42292  27.586   5.110   6.755
 8788POPC   C3A42293  27.602   5.139   7.055
 8788POPC   C4A42294  27.601   5.097   7.355
 8788POPC   C1B42295  27.434   4.895   6.455
 8788POPC   C2B42296  27.360   4.966   6.755
 8788POPC   C3B42297  27.359   4.971   7.055
 8788POPC   C4B42298  27.448   4.890   7.355
 8789POPC   NC342299  16.704   1.217   5.555
 8789POPC   PO442300  16.720   1.167   5.855
 8789POPC   GL142301  16.720   1.228   6.155
 8789POPC   GL242302  16.802   1.169   6.155
 8789POPC   C1A42303  16.695   1.248   6.455
 8789POPC   D2A42304  16.712   1.191   6.755
 8789POPC   C3A42305  16.749   1.177   7.055
 8789POPC   C4A42306  16.773   1.185   7.355
 8789POPC   C1B42307  16.943   1.125   6.455
 8789POPC   C2B42308  16.926   1.155   6.755
 8789POPC   C3B42309  16.978   1.119   7.055
 8789POPC   C4B42310  16.964   1.080   7.355
 8790POPC   NC342311  39.274  43.119   5.555
 8790POPC   PO442312  39.182  43.091   5.855
 8790POPC   GL142313  39.246  43.138   6.155
 8790POPC   GL242314  39.231  43.236   6.155
 8790POPC   C1A42315  39.228  43.129   6.455
 8790POPC   D2A42316  39.235  43.112   6.755
 8790POPC   C3A42317  39.182  43.069   7.055
 8790POPC   C4A42318  39.271  43.101   7.355
 8790POPC   C1B42319  39.301  43.313   6.455
 8790POPC   C2B42320  39.356  43.347   6.755
 8790POPC   C3B42321  39.269  43.388   7.055
 8790POPC   C4B42322  39.327  43.346   7.355
 8791POPC   NC342323   6.614  32.241   5.555
 8791POPC   PO442324   6.667  32.263   5.855
 8791POPC   GL142325   6.642  32.245   6.155
 8791POPC   GL242326   6.524  32.142   6.155
 8791POPC   C1A42327   6.631  32.204   6.455
 8791POPC   D2A42328   6.625  32.288   6.755
 8791POPC   C3A42329   6.639  32.254   7.055
 8791POPC   C4A42330   6.694  32.228   7.355
 8791POPC   C1B42331   6.416  32.075   6.455
 8791POPC   C2B42332   6.461  32.057   6.755
 8791POPC   C3B42333   6.497  32.041   7.055
 8791POPC   C4B42334   6.497  32.112   7.355
 8792POPC   NC342335   6.609  16.737   5.555
 8792POPC   PO442336   6.609  16.772   5.855
 8792POPC   GL142337   6.619  16.738   6.155
 8792POPC   GL242338   6.647  16.633   6.155
 8792POPC   C1A42339   6.617  16.749   6.455
 8792POPC   D2A42340   6.639  16.774   6.755
 8792POPC   C3A42341   6.621  16.780   7.055
 8792POPC   C4A42342   6.605  16.767   7.355
 8792POPC   C1B42343   6.656  16.454   6.455
 8792POPC   C2B42344   6.626  16.464   6.755
 8792POPC   C3B42345   6.680  16.485   7.055
 8792POPC   C4B42346   6.714  16.468   7.355
 8793POPC   NC342347  35.324  39.182   5.555
 8793POPC   PO442348  35.375  39.251   5.855
 8793POPC   GL142349  35.370  39.229   6.155
 8793POPC   GL242350  35.221  39.169   6.155
 8793POPC   C1A42351  35.357  39.248   6.455
 8793POPC   D2A42352  35.312  39.230   6.755
 8793POPC   C3A42353  35.318  39.236   7.055
 8793POPC   C4A42354  35.326  39.199   7.355
 8793POPC   C1B42355  35.140  39.121   6.455
 8793POPC   C2B42356  35.144  39.145   6.755
 8793POPC   C3B42357  35.095  39.196   7.055
 8793POPC   C4B42358  35.104  39.199   7.355
 8794POPC   NC342359  33.813  38.407   5.555
 8794POPC   PO442360  33.803  38.443   5.855
 8794POPC   GL142361  33.789  38.489   6.155
 8794POPC   GL242362  33.938  38.585   6.155
 8794POPC   C1A42363  33.804  38.407   6.455
 8794POPC   D2A42364  33.788  38.420   6.755
 8794POPC   C3A42365  33.786  38.446   7.055
 8794POPC   C4A42366  33.837  38.479   7.355
 8794POPC   C1B42367  34.017  38.583   6.455
 8794POPC   C2B42368  34.016  38.601   6.755
 8794POPC   C3B42369  34.004  38.650   7.055
 8794POPC   C4B42370  33.963  38.648   7.355
 8795POPC   NC342371  31.511  19.065   5.555
 8795POPC   PO442372  31.448  19.070   5.855
 8795POPC   GL142373  31.515  19.050   6.155
 8795POPC   GL242374  31.619  19.144   6.155
 8795POPC   C1A42375  31.484  19.020   6.455
 8795POPC   D2A42376  31.438  19.052   6.755
 8795POPC   C3A42377  31.520  19.080   7.055
 8795POPC   C4A42378  31.517  19.094   7.355
 8795POPC   C1B42379  31.652  19.227   6.455
 8795POPC   C2B42380  31.623  19.232   6.755
 8795POPC   C3B42381  31.684  19.169   7.055
 8795POPC   C4B42382  31.661  19.164   7.355
 8796POPC   NC342383  29.875  34.553   5.555
 8796POPC   PO442384  29.900  34.597   5.855
 8796POPC   GL142385  29.884  34.549   6.155
 8796POPC   GL242386  30.014  34.448   6.155
 8796POPC   C1A42387  29.921  34.544   6.455
 8796POPC   D2A42388  29.957  34.604   6.755
 8796POPC   C3A42389  29.881  34.534   7.055
 8796POPC   C4A42390  29.904  34.581   7.355
 8796POPC   C1B42391  30.030  34.319   6.455
 8796POPC   C2B42392  30.079  34.321   6.755
 8796POPC   C3B42393  30.022  34.376   7.055
 8796POPC   C4B42394  30.048  34.387   7.355
 8797POPC   NC342395  26.793  31.478   5.555
 8797POPC   PO442396  26.837  31.444   5.855
 8797POPC   GL142397  26.831  31.453   6.155
 8797POPC   GL242398  26.941  31.531   6.155
 8797POPC   C1A42399  26.801  31.513   6.455
 8797POPC   D2A42400  26.798  31.500   6.755
 8797POPC   C3A42401  26.835  31.463   7.055
 8797POPC   C4A42402  26.840  31.464   7.355
 8797POPC   C1B42403  26.925  31.661   6.455
 8797POPC   C2B42404  26.981  31.663   6.755
 8797POPC   C3B42405  26.998  31.650   7.055
 8797POPC   C4B42406  26.995  31.626   7.355
 8798POPC   NC342407   1.244   5.896   5.555
 8798POPC   PO442408   1.219   5.826   5.855
 8798POPC   GL142409   1.262   5.890   6.155
 8798POPC   GL242410   1.091   5.950   6.155
 8798POPC   C1A42411   1.168   5.874   6.455
 8798POPC   D2A42412   1.186   5.867   6.755
 8798POPC   C3A42413   1.174   5.905   7.055
 8798POPC   C4A42414   1.221   5.851   7.355
 8798POPC   C1B42415   1.080   6.089   6.455
 8798POPC   C2B42416   1.076   6.038   6.755
 8798POPC   C3B42417   1.079   6.052   7.055
 8798POPC   C4B42418   1.034   6.105   7.355
 8799POPC   NC342419   4.297  35.308   5.555
 8799POPC   PO442420   4.336  35.338   5.855
 8799POPC   GL142421   4.336  35.394   6.155
 8799POPC   GL242422   4.404  35.358   6.155
 8799POPC   C1A42423   4.290  35.398   6.455
 8799POPC   D2A42424   4.345  35.302   6.755
 8799POPC   C3A42425   4.367  35.401   7.055
 8799POPC   C4A42426   4.346  35.344   7.355
 8799POPC   C1B42427   4.550  35.341   6.455
 8799POPC   C2B42428   4.558  35.345   6.755
 8799POPC   C3B42429   4.602  35.313   7.055
 8799POPC   C4B42430   4.577  35.338   7.355
 8800POPC   NC342431  19.795  30.649   5.555
 8800POPC   PO442432  19.862  30.720   5.855
 8800POPC   GL142433  19.870  30.663   6.155
 8800POPC   GL242434  19.777  30.744   6.155
 8800POPC   C1A42435  19.827  30.650   6.455
 8800POPC   D2A42436  19.808  30.711   6.755
 8800POPC   C3A42437  19.795  30.726   7.055
 8800POPC   C4A42438  19.823  30.741   7.355
 8800POPC   C1B42439  19.606  30.844   6.455
 8800POPC   C2B42440  19.649  30.844   6.755
 8800POPC   C3B42441  19.653  30.803   7.055
 8800POPC   C4B42442  19.611  30.831   7.355
 8801POPC   NC342443  10.545  36.105   5.555
 8801POPC   PO442444  10.554  36.169   5.855
 8801POPC   GL142445  10.492  36.162   6.155
 8801POPC   GL242446  10.506  36.012   6.155
 8801POPC   C1A42447  10.520  36.104   6.455
 8801POPC   D2A42448  10.552  36.108   6.755
 8801POPC   C3A42449  10.561  36.083   7.055
 8801POPC   C4A42450  10.546  36.104   7.355
 8801POPC   C1B42451  10.473  35.848   6.455
 8801POPC   C2B42452  10.440  35.865   6.755
 8801POPC   C3B42453  10.482  35.861   7.055
 8801POPC   C4B42454  10.470  35.845   7.355
 8802POPC   NC342455   6.623  30.652   5.555
 8802POPC   PO442456   6.634  30.731   5.855
 8802POPC   GL142457   6.642  30.664   6.155
 8802POPC   GL242458   6.708  30.753   6.155
 8802POPC   C1A42459   6.646  30.680   6.455
 8802POPC   D2A42460   6.631  30.669   6.755
 8802POPC   C3A42461   6.630  30.710   7.055
 8802POPC   C4A42462   6.694  30.649   7.355
 8802POPC   C1B42463   6.848  30.776   6.455
 8802POPC   C2B42464   6.817  30.825   6.755
 8802POPC   C3B42465   6.875  30.776   7.055
 8802POPC   C4B42466   6.861  30.790   7.355
 8803POPC   NC342467  39.250  19.054   5.555
 8803POPC   PO442468  39.269  19.023   5.855
 8803POPC   GL142469  39.261  19.073   6.155
 8803POPC   GL242470  39.319  18.948   6.155
 8803POPC   C1A42471  39.235  19.056   6.455
 8803POPC   D2A42472  39.262  19.047   6.755
 8803POPC   C3A42473  39.191  19.051   7.055
 8803POPC   C4A42474  39.248  19.096   7.355
 8803POPC   C1B42475  39.448  18.927   6.455
 8803POPC   C2B42476  39.462  18.887   6.755
 8803POPC   C3B42477  39.431  18.931   7.055
 8803POPC   C4B42478  39.458  18.860   7.355
 8804POPC   NC342479  40.020  25.249   5.555
 8804POPC   PO442480  39.985  25.247   5.855
 8804POPC   GL142481  40.045  25.239   6.155
 8804POPC   GL242482  39.973  25.381   6.155
 8804POPC   C1A42483  40.022  25.257   6.455
 8804POPC   D2A42484  40.046  25.268   6.755
 8804POPC   C3A42485  39.969  25.281   7.055
 8804POPC   C4A42486  39.970  25.229   7.355
 8804POPC   C1B42487  39.894  25.453   6.455
 8804POPC   C2B42488  39.846  25.480   6.755
 8804POPC   C3B42489  39.915  25.483   7.055
 8804POPC   C4B42490  39.822  25.425   7.355
 8805POPC   NC342491   5.065  21.362   5.555
 8805POPC   PO442492   5.051  21.361   5.855
 8805POPC   GL142493   5.130  21.383   6.155
 8805POPC   GL242494   5.243  21.405   6.155
 8805POPC   C1A42495   5.057  21.419   6.455
 8805POPC   D2A42496   5.085  21.359   6.755
 8805POPC   C3A42497   5.126  21.413   7.055
 8805POPC   C4A42498   5.136  21.394   7.355
 8805POPC   C1B42499   5.342  21.322   6.455
 8805POPC   C2B42500   5.337  21.304   6.755
 8805POPC   C3B42501   5.325  21.332   7.055
 8805POPC   C4B42502   5.319  21.370   7.355
 8806POPC   NC342503   1.255  34.579   5.555
 8806POPC   PO442504   1.255  34.538   5.855
 8806POPC   GL142505   1.238  34.593   6.155
 8806POPC   GL242506   1.356  34.622   6.155
 8806POPC   C1A42507   1.238  34.580   6.455
 8806POPC   D2A42508   1.260  34.615   6.755
 8806POPC   C3A42509   1.259  34.599   7.055
 8806POPC   C4A42510   1.226  34.583   7.355
 8806POPC   C1B42511   1.442  34.677   6.455
 8806POPC   C2B42512   1.493  34.599   6.755
 8806POPC   C3B42513   1.471  34.628   7.055
 8806POPC   C4B42514   1.473  34.622   7.355
 8807POPC   NC342515  12.043  33.816   5.555
 8807POPC   PO442516  12.083  33.820   5.855
 8807POPC   GL142517  12.054  33.837   6.155
 8807POPC   GL242518  11.913  33.824   6.155
 8807POPC   C1A42519  12.043  33.754   6.455
 8807POPC   D2A42520  12.071  33.826   6.755
 8807POPC   C3A42521  12.063  33.815   7.055
 8807POPC   C4A42522  12.030  33.817   7.355
 8807POPC   C1B42523  11.871  33.767   6.455
 8807POPC   C2B42524  11.845  33.768   6.755
 8807POPC   C3B42525  11.803  33.769   7.055
 8807POPC   C4B42526  11.831  33.795   7.355
 8808POPC   NC342527   2.806  15.191   5.555
 8808POPC   PO442528   2.752  15.210   5.855
 8808POPC   GL142529   2.746  15.181   6.155
 8808POPC   GL242530   2.908  15.146   6.155
 8808POPC   C1A42531   2.801  15.135   6.455
 8808POPC   D2A42532   2.772  15.159   6.755
 8808POPC   C3A42533   2.759  15.180   7.055
 8808POPC   C4A42534   2.767  15.152   7.355
 8808POPC   C1B42535   3.044  15.181   6.455
 8808POPC   C2B42536   2.997  15.208   6.755
 8808POPC   C3B42537   3.041  15.168   7.055
 8808POPC   C4B42538   3.043  15.150   7.355
 8809POPC   NC342539  15.974  27.546   5.555
 8809POPC   PO442540  15.942  27.558   5.855
 8809POPC   GL142541  15.996  27.581   6.155
 8809POPC   GL242542  15.984  27.486   6.155
 8809POPC   C1A42543  15.975  27.587   6.455
 8809POPC   D2A42544  15.911  27.579   6.755
 8809POPC   C3A42545  15.961  27.642   7.055
 8809POPC   C4A42546  15.989  27.544   7.355
 8809POPC   C1B42547  15.922  27.304   6.455
 8809POPC   C2B42548  15.953  27.378   6.755
 8809POPC   C3B42549  15.981  27.363   7.055
 8809POPC   C4B42550  15.914  27.336   7.355
 8810POPC   NC342551  44.633  28.415   5.555
 8810POPC   PO442552  44.631  28.384   5.855
 8810POPC   GL142553  44.633  28.418   6.155
 8810POPC   GL242554  44.784  28.403   6.155
 8810POPC   C1A42555  44.630  28.374   6.455
 8810POPC   D2A42556  44.629  28.401   6.755
 8810POPC   C3A42557  44.672  28.363   7.055
 8810POPC   C4A42558  44.668  28.407   7.355
 8810POPC   C1B42559  44.894  28.344   6.455
 8810POPC   C2B42560  44.938  28.315   6.755
 8810POPC   C3B42561  44.920  28.352   7.055
 8810POPC   C4B42562  44.958  28.377   7.355
 8811POPC   NC342563   1.226  42.285   5.555
 8811POPC   PO442564   1.212  42.332   5.855
 8811POPC   GL142565   1.245  42.295   6.155
 8811POPC   GL242566   1.190  42.474   6.155
 8811POPC   C1A42567   1.228  42.355   6.455
 8811POPC   D2A42568   1.238  42.345   6.755
 8811POPC   C3A42569   1.198  42.372   7.055
 8811POPC   C4A42570   1.179  42.293   7.355
 8811POPC   C1B42571   1.153  42.551   6.455
 8811POPC   C2B42572   1.154  42.571   6.755
 8811POPC   C3B42573   1.135  42.601   7.055
 8811POPC   C4B42574   1.137  42.570   7.355
 8812POPC   NC342575  28.371  24.457   5.555
 8812POPC   PO442576  28.360  24.479   5.855
 8812POPC   GL142577  28.396  24.498   6.155
 8812POPC   GL242578  28.308  24.607   6.155
 8812POPC   C1A42579  28.332  24.482   6.455
 8812POPC   D2A42580  28.415  24.525   6.755
 8812POPC   C3A42581  28.345  24.520   7.055
 8812POPC   C4A42582  28.347  24.490   7.355
 8812POPC   C1B42583  28.291  24.735   6.455
 8812POPC   C2B42584  28.286  24.716   6.755
 8812POPC   C3B42585  28.341  24.775   7.055
 8812POPC   C4B42586  28.333  24.721   7.355
 8813POPC   NC342587  13.636   4.332   5.555
 8813POPC   PO442588  13.590   4.311   5.855
 8813POPC   GL142589  13.608   4.358   6.155
 8813POPC   GL242590  13.604   4.427   6.155
 8813POPC   C1A42591  13.623   4.345   6.455
 8813POPC   D2A42592  13.652   4.333   6.755
 8813POPC   C3A42593  13.612   4.290   7.055
 8813POPC   C4A42594  13.664   4.323   7.355
 8813POPC   C1B42595  13.559   4.569   6.455
 8813POPC   C2B42596  13.577   4.505   6.755
 8813POPC   C3B42597  13.580   4.595   7.055
 8813POPC   C4B42598  13.556   4.574   7.355
 8814POPC   NC342599  10.486   2.735   5.555
 8814POPC   PO442600  10.478   2.761   5.855
 8814POPC   GL142601  10.508   2.742   6.155
 8814POPC   GL242602  10.410   2.882   6.155
 8814POPC   C1A42603  10.569   2.758   6.455
 8814POPC   D2A42604  10.567   2.812   6.755
 8814POPC   C3A42605  10.527   2.787   7.055
 8814POPC   C4A42606  10.566   2.769   7.355
 8814POPC   C1B42607  10.281   2.930   6.455
 8814POPC   C2B42608  10.295   2.885   6.755
 8814POPC   C3B42609  10.271   2.907   7.055
 8814POPC   C4B42610  10.311   2.888   7.355
 8815POPC   NC342611  29.145  32.219   5.555
 8815POPC   PO442612  29.184  32.284   5.855
 8815POPC   GL142613  29.144  32.244   6.155
 8815POPC   GL242614  29.114  32.346   6.155
 8815POPC   C1A42615  29.158  32.273   6.455
 8815POPC   D2A42616  29.098  32.202   6.755
 8815POPC   C3A42617  29.139  32.207   7.055
 8815POPC   C4A42618  29.135  32.201   7.355
 8815POPC   C1B42619  29.100  32.497   6.455
 8815POPC   C2B42620  29.064  32.497   6.755
 8815POPC   C3B42621  29.055  32.454   7.055
 8815POPC   C4B42622  29.042  32.480   7.355
 8816POPC   NC342623  38.411  20.650   5.555
 8816POPC   PO442624  38.449  20.607   5.855
 8816POPC   GL142625  38.465  20.618   6.155
 8816POPC   GL242626  38.405  20.723   6.155
 8816POPC   C1A42627  38.416  20.584   6.455
 8816POPC   D2A42628  38.483  20.658   6.755
 8816POPC   C3A42629  38.438  20.606   7.055
 8816POPC   C4A42630  38.450  20.638   7.355
 8816POPC   C1B42631  38.337  20.863   6.455
 8816POPC   C2B42632  38.313  20.782   6.755
 8816POPC   C3B42633  38.351  20.851   7.055
 8816POPC   C4B42634  38.298  20.799   7.355
 8817POPC   NC342635   1.194   7.396   5.555
 8817POPC   PO442636   1.211   7.456   5.855
 8817POPC   GL142637   1.195   7.374   6.155
 8817POPC   GL242638   1.313   7.425   6.155
 8817POPC   C1A42639   1.178   7.419   6.455
 8817POPC   D2A42640   1.223   7.441   6.755
 8817POPC   C3A42641   1.232   7.459   7.055
 8817POPC   C4A42642   1.169   7.375   7.355
 8817POPC   C1B42643   1.513   7.483   6.455
 8817POPC   C2B42644   1.512   7.395   6.755
 8817POPC   C3B42645   1.422   7.483   7.055
 8817POPC   C4B42646   1.448   7.466   7.355
 8818POPC   NC342647   4.347   3.571   5.555
 8818POPC   PO442648   4.312   3.560   5.855
 8818POPC   GL142649   4.281   3.575   6.155
 8818POPC   GL242650   4.194   3.636   6.155
 8818POPC   C1A42651   4.311   3.575   6.455
 8818POPC   D2A42652   4.346   3.523   6.755
 8818POPC   C3A42653   4.299   3.583   7.055
 8818POPC   C4A42654   4.280   3.516   7.355
 8818POPC   C1B42655   4.146   3.650   6.455
 8818POPC   C2B42656   4.078   3.720   6.755
 8818POPC   C3B42657   4.111   3.681   7.055
 8818POPC   C4B42658   4.123   3.700   7.355
 8819POPC   NC342659  22.917  22.150   5.555
 8819POPC   PO442660  22.923  22.137   5.855
 8819POPC   GL142661  22.903  22.209   6.155
 8819POPC   GL242662  22.960  22.025   6.155
 8819POPC   C1A42663  22.909  22.203   6.455
 8819POPC   D2A42664  22.946  22.203   6.755
 8819POPC   C3A42665  22.937  22.139   7.055
 8819POPC   C4A42666  22.959  22.171   7.355
 8819POPC   C1B42667  23.032  21.896   6.455
 8819POPC   C2B42668  23.100  21.979   6.755
 8819POPC   C3B42669  23.006  21.973   7.055
 8819POPC   C4B42670  23.047  21.893   7.355
 8820POPC   NC342671  34.603   3.575   5.555
 8820POPC   PO442672  34.581   3.540   5.855
 8820POPC   GL142673  34.577   3.517   6.155
 8820POPC   GL242674  34.607   3.386   6.155
 8820POPC   C1A42675  34.587   3.505   6.455
 8820POPC   D2A42676  34.546   3.586   6.755
 8820POPC   C3A42677  34.616   3.533   7.055
 8820POPC   C4A42678  34.562   3.536   7.355
 8820POPC   C1B42679  34.673   3.277   6.455
 8820POPC   C2B42680  34.718   3.346   6.755
 8820POPC   C3B42681  34.652   3.360   7.055
 8820POPC   C4B42682  34.714   3.340   7.355
 8821POPC   NC342683  10.510  38.443   5.555
 8821POPC   PO442684  10.480  38.431   5.855
 8821POPC   GL142685  10.545  38.437   6.155
 8821POPC   GL242686  10.422  38.412   6.155
 8821POPC   C1A42687  10.498  38.490   6.455
 8821POPC   D2A42688  10.540  38.443   6.755
 8821POPC   C3A42689  10.512  38.453   7.055
 8821POPC   C4A42690  10.548  38.441   7.355
 8821POPC   C1B42691  10.294  38.381   6.455
 8821POPC   C2B42692  10.302  38.368   6.755
 8821POPC   C3B42693  10.238  38.412   7.055
 8821POPC   C4B42694  10.257  38.422   7.355
 8822POPC   NC342695  10.487  39.260   5.555
 8822POPC   PO442696  10.532  39.204   5.855
 8822POPC   GL142697  10.515  39.212   6.155
 8822POPC   GL242698  10.696  39.265   6.155
 8822POPC   C1A42699  10.514  39.240   6.455
 8822POPC   D2A42700  10.541  39.238   6.755
 8822POPC   C3A42701  10.554  39.269   7.055
 8822POPC   C4A42702  10.488  39.232   7.355
 8822POPC   C1B42703  10.801  39.258   6.455
 8822POPC   C2B42704  10.818  39.265   6.755
 8822POPC   C3B42705  10.748  39.251   7.055
 8822POPC   C4B42706  10.774  39.243   7.355
 8823POPC   NC342707  42.299  39.961   5.555
 8823POPC   PO442708  42.329  40.006   5.855
 8823POPC   GL142709  42.312  39.996   6.155
 8823POPC   GL242710  42.472  40.089   6.155
 8823POPC   C1A42711  42.343  39.960   6.455
 8823POPC   D2A42712  42.297  40.014   6.755
 8823POPC   C3A42713  42.285  40.039   7.055
 8823POPC   C4A42714  42.303  40.011   7.355
 8823POPC   C1B42715  42.476  40.192   6.455
 8823POPC   C2B42716  42.536  40.218   6.755
 8823POPC   C3B42717  42.530  40.139   7.055
 8823POPC   C4B42718  42.554  40.182   7.355
 8824POPC   NC342719   7.410  36.082   5.555
 8824POPC   PO442720   7.453  36.110   5.855
 8824POPC   GL142721   7.399  36.131   6.155
 8824POPC   GL242722   7.282  36.035   6.155
 8824POPC   C1A42723   7.374  36.163   6.455
 8824POPC   D2A42724   7.454  36.124   6.755
 8824POPC   C3A42725   7.404  36.095   7.055
 8824POPC   C4A42726   7.464  36.120   7.355
 8824POPC   C1B42727   7.214  36.006   6.455
 8824POPC   C2B42728   7.256  35.967   6.755
 8824POPC   C3B42729   7.175  35.951   7.055
 8824POPC   C4B42730   7.255  35.939   7.355
 8825POPC   NC342731  34.598  40.796   5.555
 8825POPC   PO442732  34.578  40.778   5.855
 8825POPC   GL142733  34.538  40.809   6.155
 8825POPC   GL242734  34.490  40.706   6.155
 8825POPC   C1A42735  34.556  40.782   6.455
 8825POPC   D2A42736  34.566  40.747   6.755
 8825POPC   C3A42737  34.530  40.788   7.055
 8825POPC   C4A42738  34.590  40.756   7.355
 8825POPC   C1B42739  34.303  40.694   6.455
 8825POPC   C2B42740  34.324  40.765   6.755
 8825POPC   C3B42741  34.368  40.754   7.055
 8825POPC   C4B42742  34.323  40.741   7.355
 8826POPC   NC342743  19.034  28.403   5.555
 8826POPC   PO442744  19.048  28.368   5.855
 8826POPC   GL142745  19.043  28.350   6.155
 8826POPC   GL242746  18.922  28.449   6.155
 8826POPC   C1A42747  19.096  28.376   6.455
 8826POPC   D2A42748  19.030  28.393   6.755
 8826POPC   C3A42749  19.065  28.319   7.055
 8826POPC   C4A42750  19.078  28.343   7.355
 8826POPC   C1B42751  18.879  28.489   6.455
 8826POPC   C2B42752  18.875  28.543   6.755
 8826POPC   C3B42753  18.856  28.515   7.055
 8826POPC   C4B42754  18.822  28.570   7.355
 8827POPC   NC342755  39.235  12.090   5.555
 8827POPC   PO442756  39.209  12.103   5.855
 8827POPC   GL142757  39.263  12.081   6.155
 8827POPC   GL242758  39.328  12.081   6.155
 8827POPC   C1A42759  39.197  12.081   6.455
 8827POPC   D2A42760  39.274  12.096   6.755
 8827POPC   C3A42761  39.279  12.059   7.055
 8827POPC   C4A42762  39.188  12.106   7.355
 8827POPC   C1B42763  39.478  12.043   6.455
 8827POPC   C2B42764  39.479  11.997   6.755
 8827POPC   C3B42765  39.483  11.993   7.055
 8827POPC   C4B42766  39.507  12.067   7.355
 8828POPC   NC342767  12.884  40.020   5.555
 8828POPC   PO442768  12.869  39.986   5.855
 8828POPC   GL142769  12.876  40.056   6.155
 8828POPC   GL242770  12.725  40.039   6.155
 8828POPC   C1A42771  12.827  40.009   6.455
 8828POPC   D2A42772  12.860  40.006   6.755
 8828POPC   C3A42773  12.877  39.982   7.055
 8828POPC   C4A42774  12.868  40.054   7.355
 8828POPC   C1B42775  12.646  40.120   6.455
 8828POPC   C2B42776  12.602  40.130   6.755
 8828POPC   C3B42777  12.604  40.135   7.055
 8828POPC   C4B42778  12.615  40.092   7.355
 8829POPC   NC342779  33.022   2.732   5.555
 8829POPC   PO442780  33.034   2.796   5.855
 8829POPC   GL142781  32.983   2.794   6.155
 8829POPC   GL242782  32.885   2.768   6.155
 8829POPC   C1A42783  33.057   2.777   6.455
 8829POPC   D2A42784  33.019   2.719   6.755
 8829POPC   C3A42785  32.979   2.750   7.055
 8829POPC   C4A42786  33.004   2.727   7.355
 8829POPC   C1B42787  32.801   2.721   6.455
 8829POPC   C2B42788  32.783   2.735   6.755
 8829POPC   C3B42789  32.744   2.707   7.055
 8829POPC   C4B42790  32.728   2.743   7.355
 8830POPC   NC342791  36.155  40.830   5.555
 8830POPC   PO442792  36.173  40.806   5.855
 8830POPC   GL142793  36.112  40.748   6.155
 8830POPC   GL242794  36.222  40.820   6.155
 8830POPC   C1A42795  36.097  40.747   6.455
 8830POPC   D2A42796  36.098  40.815   6.755
 8830POPC   C3A42797  36.129  40.816   7.055
 8830POPC   C4A42798  36.133  40.758   7.355
 8830POPC   C1B42799  36.301  40.938   6.455
 8830POPC   C2B42800  36.285  40.946   6.755
 8830POPC   C3B42801  36.347  40.972   7.055
 8830POPC   C4B42802  36.280  40.920   7.355
 8831POPC   NC342803   1.235  31.450   5.555
 8831POPC   PO442804   1.251  31.428   5.855
 8831POPC   GL142805   1.262  31.451   6.155
 8831POPC   GL242806   1.317  31.542   6.155
 8831POPC   C1A42807   1.173  31.478   6.455
 8831POPC   D2A42808   1.223  31.469   6.755
 8831POPC   C3A42809   1.232  31.493   7.055
 8831POPC   C4A42810   1.260  31.472   7.355
 8831POPC   C1B42811   1.379  31.691   6.455
 8831POPC   C2B42812   1.383  31.698   6.755
 8831POPC   C3B42813   1.420  31.615   7.055
 8831POPC   C4B42814   1.330  31.705   7.355
 8832POPC   NC342815  11.259  43.126   5.555
 8832POPC   PO442816  11.264  43.112   5.855
 8832POPC   GL142817  11.285  43.107   6.155
 8832POPC   GL242818  11.167  43.117   6.155
 8832POPC   C1A42819  11.288  43.106   6.455
 8832POPC   D2A42820  11.330  43.104   6.755
 8832POPC   C3A42821  11.322  43.126   7.055
 8832POPC   C4A42822  11.312  43.090   7.355
 8832POPC   C1B42823  11.059  43.045   6.455
 8832POPC   C2B42824  11.028  43.080   6.755
 8832POPC   C3B42825  11.010  43.052   7.055
 8832POPC   C4B42826  11.106  43.069   7.355
 8833POPC   NC342827  22.184  16.001   5.555
 8833POPC   PO442828  22.198  15.982   5.855
 8833POPC   GL142829  22.201  15.939   6.155
 8833POPC   GL242830  22.176  16.069   6.155
 8833POPC   C1A42831  22.167  15.970   6.455
 8833POPC   D2A42832  22.136  15.956   6.755
 8833POPC   C3A42833  22.120  15.928   7.055
 8833POPC   C4A42834  22.145  15.958   7.355
 8833POPC   C1B42835  22.148  16.172   6.455
 8833POPC   C2B42836  22.126  16.169   6.755
 8833POPC   C3B42837  22.135  16.190   7.055
 8833POPC   C4B42838  22.079  16.215   7.355
 8834POPC   NC342839  16.775  23.715   5.555
 8834POPC   PO442840  16.728  23.746   5.855
 8834POPC   GL142841  16.716  23.714   6.155
 8834POPC   GL242842  16.823  23.626   6.155
 8834POPC   C1A42843  16.730  23.715   6.455
 8834POPC   D2A42844  16.705  23.673   6.755
 8834POPC   C3A42845  16.697  23.704   7.055
 8834POPC   C4A42846  16.698  23.711   7.355
 8834POPC   C1B42847  16.833  23.540   6.455
 8834POPC   C2B42848  16.913  23.464   6.755
 8834POPC   C3B42849  16.848  23.484   7.055
 8834POPC   C4B42850  16.918  23.477   7.355
 8835POPC   NC342851  28.413  33.065   5.555
 8835POPC   PO442852  28.354  32.987   5.855
 8835POPC   GL142853  28.344  33.062   6.155
 8835POPC   GL242854  28.501  33.057   6.155
 8835POPC   C1A42855  28.334  32.988   6.455
 8835POPC   D2A42856  28.390  33.050   6.755
 8835POPC   C3A42857  28.409  33.035   7.055
 8835POPC   C4A42858  28.359  33.020   7.355
 8835POPC   C1B42859  28.642  33.050   6.455
 8835POPC   C2B42860  28.615  33.040   6.755
 8835POPC   C3B42861  28.576  33.056   7.055
 8835POPC   C4B42862  28.616  33.084   7.355
 8836POPC   NC342863   0.482  30.729   5.555
 8836POPC   PO442864   0.468  30.654   5.855
 8836POPC   GL142865   0.450  30.732   6.155
 8836POPC   GL242866   0.519  30.575   6.155
 8836POPC   C1A42867   0.425  30.657   6.455
 8836POPC   D2A42868   0.407  30.653   6.755
 8836POPC   C3A42869   0.424  30.694   7.055
 8836POPC   C4A42870   0.439  30.667   7.355
 8836POPC   C1B42871   0.550  30.540   6.455
 8836POPC   C2B42872   0.617  30.515   6.755
 8836POPC   C3B42873   0.608  30.520   7.055
 8836POPC   C4B42874   0.621  30.460   7.355
 8837POPC   NC342875  27.620  33.817   5.555
 8837POPC   PO442876  27.562  33.757   5.855
 8837POPC   GL142877  27.546  33.797   6.155
 8837POPC   GL242878  27.495  33.759   6.155
 8837POPC   C1A42879  27.617  33.759   6.455
 8837POPC   D2A42880  27.634  33.780   6.755
 8837POPC   C3A42881  27.621  33.753   7.055
 8837POPC   C4A42882  27.617  33.845   7.355
 8837POPC   C1B42883  27.345  33.709   6.455
 8837POPC   C2B42884  27.349  33.726   6.755
 8837POPC   C3B42885  27.332  33.741   7.055
 8837POPC   C4B42886  27.368  33.704   7.355
 8838POPC   NC342887  27.598  42.367   5.555
 8838POPC   PO442888  27.635  42.351   5.855
 8838POPC   GL142889  27.626  42.364   6.155
 8838POPC   GL242890  27.535  42.416   6.155
 8838POPC   C1A42891  27.570  42.315   6.455
 8838POPC   D2A42892  27.595  42.383   6.755
 8838POPC   C3A42893  27.628  42.360   7.055
 8838POPC   C4A42894  27.630  42.301   7.355
 8838POPC   C1B42895  27.532  42.605   6.455
 8838POPC   C2B42896  27.497  42.548   6.755
 8838POPC   C3B42897  27.490  42.592   7.055
 8838POPC   C4B42898  27.520  42.510   7.355
 8839POPC   NC342899  22.930   0.445   5.555
 8839POPC   PO442900  22.899   0.422   5.855
 8839POPC   GL142901  22.921   0.395   6.155
 8839POPC   GL242902  23.056   0.429   6.155
 8839POPC   C1A42903  22.939   0.455   6.455
 8839POPC   D2A42904  22.936   0.468   6.755
 8839POPC   C3A42905  22.932   0.413   7.055
 8839POPC   C4A42906  22.889   0.413   7.355
 8839POPC   C1B42907  23.137   0.524   6.455
 8839POPC   C2B42908  23.165   0.516   6.755
 8839POPC   C3B42909  23.211   0.540   7.055
 8839POPC   C4B42910  23.144   0.520   7.355
 8840POPC   NC342911  18.283  42.377   5.555
 8840POPC   PO442912  18.235  42.298   5.855
 8840POPC   GL142913  18.239  42.320   6.155
 8840POPC   GL242914  18.141  42.279   6.155
 8840POPC   C1A42915  18.300  42.299   6.455
 8840POPC   D2A42916  18.308  42.300   6.755
 8840POPC   C3A42917  18.264  42.368   7.055
 8840POPC   C4A42918  18.275  42.294   7.355
 8840POPC   C1B42919  18.063  42.184   6.455
 8840POPC   C2B42920  18.031  42.221   6.755
 8840POPC   C3B42921  18.061  42.223   7.055
 8840POPC   C4B42922  18.031  42.167   7.355
 8841POPC   NC342923  26.006  14.444   5.555
 8841POPC   PO442924  26.063  14.365   5.855
 8841POPC   GL142925  26.018  14.388   6.155
 8841POPC   GL242926  26.077  14.560   6.155
 8841POPC   C1A42927  26.043  14.365   6.455
 8841POPC   D2A42928  26.043  14.382   6.755
 8841POPC   C3A42929  26.027  14.400   7.055
 8841POPC   C4A42930  26.029  14.408   7.355
 8841POPC   C1B42931  26.084  14.661   6.455
 8841POPC   C2B42932  26.042  14.701   6.755
 8841POPC   C3B42933  26.084  14.667   7.055
 8841POPC   C4B42934  26.110  14.613   7.355
 8842POPC   NC342935  17.466  34.564   5.555
 8842POPC   PO442936  17.534  34.597   5.855
 8842POPC   GL142937  17.545  34.531   6.155
 8842POPC   GL242938  17.612  34.660   6.155
 8842POPC   C1A42939  17.462  34.617   6.455
 8842POPC   D2A42940  17.466  34.556   6.755
 8842POPC   C3A42941  17.518  34.578   7.055
 8842POPC   C4A42942  17.471  34.566   7.355
 8842POPC   C1B42943  17.660  34.783   6.455
 8842POPC   C2B42944  17.617  34.768   6.755
 8842POPC   C3B42945  17.622  34.736   7.055
 8842POPC   C4B42946  17.667  34.794   7.355
 8843POPC   NC342947  42.367  36.172   5.555
 8843POPC   PO442948  42.328  36.093   5.855
 8843POPC   GL142949  42.293  36.138   6.155
 8843POPC   GL242950  42.183  36.192   6.155
 8843POPC   C1A42951  42.330  36.160   6.455
 8843POPC   D2A42952  42.348  36.144   6.755
 8843POPC   C3A42953  42.296  36.128   7.055
 8843POPC   C4A42954  42.309  36.089   7.355
 8843POPC   C1B42955  42.066  36.236   6.455
 8843POPC   C2B42956  42.101  36.158   6.755
 8843POPC   C3B42957  42.128  36.153   7.055
 8843POPC   C4B42958  42.108  36.209   7.355
 8844POPC   NC342959   8.992  20.632   5.555
 8844POPC   PO442960   8.984  20.601   5.855
 8844POPC   GL142961   9.008  20.604   6.155
 8844POPC   GL242962   9.020  20.677   6.155
 8844POPC   C1A42963   8.970  20.609   6.455
 8844POPC   D2A42964   8.969  20.586   6.755
 8844POPC   C3A42965   8.974  20.582   7.055
 8844POPC   C4A42966   8.974  20.601   7.355
 8844POPC   C1B42967   9.141  20.771   6.455
 8844POPC   C2B42968   9.154  20.825   6.755
 8844POPC   C3B42969   9.158  20.801   7.055
 8844POPC   C4B42970   9.182  20.780   7.355
 8845POPC   NC342971  33.768  12.108   5.555
 8845POPC   PO442972  33.824  12.079   5.855
 8845POPC   GL142973  33.770  12.080   6.155
 8845POPC   GL242974  33.680  11.983   6.155
 8845POPC   C1A42975  33.822  12.029   6.455
 8845POPC   D2A42976  33.798  12.064   6.755
 8845POPC   C3A42977  33.766  12.058   7.055
 8845POPC   C4A42978  33.777  12.080   7.355
 8845POPC   C1B42979  33.601  11.963   6.455
 8845POPC   C2B42980  33.615  11.942   6.755
 8845POPC   C3B42981  33.527  11.979   7.055
 8845POPC   C4B42982  33.611  11.967   7.355
 8846POPC   NC342983  29.891   9.723   5.555
 8846POPC   PO442984  29.903   9.782   5.855
 8846POPC   GL142985  29.873   9.736   6.155
 8846POPC   GL242986  29.799   9.827   6.155
 8846POPC   C1A42987  29.914   9.769   6.455
 8846POPC   D2A42988  29.935   9.714   6.755
 8846POPC   C3A42989  29.943   9.747   7.055
 8846POPC   C4A42990  29.963   9.719   7.355
 8846POPC   C1B42991  29.742   9.948   6.455
 8846POPC   C2B42992  29.745   9.875   6.755
 8846POPC   C3B42993  29.777   9.931   7.055
 8846POPC   C4B42994  29.683   9.893   7.355
 8847POPC   NC342995   6.667  22.121   5.555
 8847POPC   PO442996   6.655  22.127   5.855
 8847POPC   GL142997   6.668  22.205   6.155
 8847POPC   GL242998   6.595  22.090   6.155
 8847POPC   C1A42999   6.604  22.165   6.455
 8847POPC   D2A43000   6.609  22.193   6.755
 8847POPC   C3A43001   6.691  22.174   7.055
 8847POPC   C4A43002   6.665  22.112   7.355
 8847POPC   C1B43003   6.616  21.906   6.455
 8847POPC   C2B43004   6.614  21.957   6.755
 8847POPC   C3B43005   6.621  21.877   7.055
 8847POPC   C4B43006   6.608  21.940   7.355
 8848POPC   NC343007  35.339   7.440   5.555
 8848POPC   PO443008  35.328   7.407   5.855
 8848POPC   GL143009  35.357   7.419   6.155
 8848POPC   GL243010  35.275   7.512   6.155
 8848POPC   C1A43011  35.303   7.468   6.455
 8848POPC   D2A43012  35.359   7.459   6.755
 8848POPC   C3A43013  35.303   7.430   7.055
 8848POPC   C4A43014  35.370   7.437   7.355
 8848POPC   C1B43015  35.174   7.617   6.455
 8848POPC   C2B43016  35.152   7.639   6.755
 8848POPC   C3B43017  35.194   7.650   7.055
 8848POPC   C4B43018  35.210   7.642   7.355
 8849POPC   NC343019  21.399  11.269   5.555
 8849POPC   PO443020  21.339  11.321   5.855
 8849POPC   GL143021  21.357  11.326   6.155
 8849POPC   GL243022  21.558  11.364   6.155
 8849POPC   C1A43023  21.370  11.273   6.455
 8849POPC   D2A43024  21.338  11.328   6.755
 8849POPC   C3A43025  21.398  11.278   7.055
 8849POPC   C4A43026  21.431  11.350   7.355
 8849POPC   C1B43027  21.668  11.306   6.455
 8849POPC   C2B43028  21.661  11.370   6.755
 8849POPC   C3B43029  21.643  11.358   7.055
 8849POPC   C4B43030  21.659  11.309   7.355
 8850POPC   NC343031  12.089  37.702   5.555
 8850POPC   PO443032  12.122  37.706   5.855
 8850POPC   GL143033  12.067  37.685   6.155
 8850POPC   GL243034  12.001  37.623   6.155
 8850POPC   C1A43035  12.080  37.728   6.455
 8850POPC   D2A43036  12.071  37.721   6.755
 8850POPC   C3A43037  12.087  37.650   7.055
 8850POPC   C4A43038  12.117  37.694   7.355
 8850POPC   C1B43039  11.874  37.581   6.455
 8850POPC   C2B43040  11.878  37.581   6.755
 8850POPC   C3B43041  11.819  37.558   7.055
 8850POPC   C4B43042  11.852  37.510   7.355
 8851POPC   NC343043  43.131  25.994   5.555
 8851POPC   PO443044  43.122  26.041   5.855
 8851POPC   GL143045  43.091  26.070   6.155
 8851POPC   GL243046  43.195  26.032   6.155
 8851POPC   C1A43047  43.110  25.998   6.455
 8851POPC   D2A43048  43.064  26.058   6.755
 8851POPC   C3A43049  43.143  26.061   7.055
 8851POPC   C4A43050  43.129  26.041   7.355
 8851POPC   C1B43051  43.366  25.990   6.455
 8851POPC   C2B43052  43.379  26.053   6.755
 8851POPC   C3B43053  43.404  26.027   7.055
 8851POPC   C4B43054  43.352  26.019   7.355
 8852POPC   NC343055   1.220   2.015   5.555
 8852POPC   PO443056   1.184   1.951   5.855
 8852POPC   GL143057   1.207   2.020   6.155
 8852POPC   GL243058   1.294   2.046   6.155
 8852POPC   C1A43059   1.241   1.962   6.455
 8852POPC   D2A43060   1.180   1.976   6.755
 8852POPC   C3A43061   1.207   2.019   7.055
 8852POPC   C4A43062   1.189   2.011   7.355
 8852POPC   C1B43063   1.432   2.081   6.455
 8852POPC   C2B43064   1.411   2.027   6.755
 8852POPC   C3B43065   1.489   2.060   7.055
 8852POPC   C4B43066   1.432   2.016   7.355
 8853POPC   NC343067  19.787  19.861   5.555
 8853POPC   PO443068  19.822  19.811   5.855
 8853POPC   GL143069  19.785  19.804   6.155
 8853POPC   GL243070  19.723  19.848   6.155
 8853POPC   C1A43071  19.808  19.848   6.455
 8853POPC   D2A43072  19.831  19.849   6.755
 8853POPC   C3A43073  19.851  19.828   7.055
 8853POPC   C4A43074  19.849  19.817   7.355
 8853POPC   C1B43075  19.573  19.785   6.455
 8853POPC   C2B43076  19.574  19.813   6.755
 8853POPC   C3B43077  19.540  19.863   7.055
 8853POPC   C4B43078  19.608  19.795   7.355
 8854POPC   NC343079  19.037   1.167   5.555
 8854POPC   PO443080  19.074   1.167   5.855
 8854POPC   GL143081  19.027   1.226   6.155
 8854POPC   GL243082  19.208   1.256   6.155
 8854POPC   C1A43083  19.087   1.237   6.455
 8854POPC   D2A43084  19.022   1.218   6.755
 8854POPC   C3A43085  19.089   1.248   7.055
 8854POPC   C4A43086  19.032   1.202   7.355
 8854POPC   C1B43087  19.345   1.263   6.455
 8854POPC   C2B43088  19.304   1.215   6.755
 8854POPC   C3B43089  19.332   1.281   7.055
 8854POPC   C4B43090  19.329   1.277   7.355
 8855POPC   NC343091   8.225   1.191   5.555
 8855POPC   PO443092   8.169   1.220   5.855
 8855POPC   GL143093   8.215   1.201   6.155
 8855POPC   GL243094   8.191   1.102   6.155
 8855POPC   C1A43095   8.187   1.249   6.455
 8855POPC   D2A43096   8.219   1.174   6.755
 8855POPC   C3A43097   8.246   1.197   7.055
 8855POPC   C4A43098   8.181   1.193   7.355
 8855POPC   C1B43099   8.295   1.023   6.455
 8855POPC   C2B43100   8.256   0.945   6.755
 8855POPC   C3B43101   8.265   0.970   7.055
 8855POPC   C4B43102   8.228   0.999   7.355
 8856POPC   NC343103  33.016  36.142   5.555
 8856POPC   PO443104  33.014  36.111   5.855
 8856POPC   GL143105  33.002  36.166   6.155
 8856POPC   GL243106  33.023  36.231   6.155
 8856POPC   C1A43107  32.983  36.146   6.455
 8856POPC   D2A43108  32.995  36.137   6.755
 8856POPC   C3A43109  32.994  36.134   7.055
 8856POPC   C4A43110  33.020  36.174   7.355
 8856POPC   C1B43111  33.113  36.386   6.455
 8856POPC   C2B43112  33.150  36.319   6.755
 8856POPC   C3B43113  33.060  36.413   7.055
 8856POPC   C4B43114  33.107  36.390   7.355
 8857POPC   NC343115  34.585  19.086   5.555
 8857POPC   PO443116  34.585  19.034   5.855
 8857POPC   GL143117  34.605  19.092   6.155
 8857POPC   GL243118  34.446  19.078   6.155
 8857POPC   C1A43119  34.617  19.104   6.455
 8857POPC   D2A43120  34.550  19.028   6.755
 8857POPC   C3A43121  34.617  19.083   7.055
 8857POPC   C4A43122  34.624  19.061   7.355
 8857POPC   C1B43123  34.377  19.156   6.455
 8857POPC   C2B43124  34.374  19.150   6.755
 8857POPC   C3B43125  34.377  19.168   7.055
 8857POPC   C4B43126  34.372  19.187   7.355
 8858POPC   NC343127  35.369  21.388   5.555
 8858POPC   PO443128  35.302  21.427   5.855
 8858POPC   GL143129  35.314  21.403   6.155
 8858POPC   GL243130  35.262  21.439   6.155
 8858POPC   C1A43131  35.330  21.400   6.455
 8858POPC   D2A43132  35.378  21.423   6.755
 8858POPC   C3A43133  35.326  21.342   7.055
 8858POPC   C4A43134  35.360  21.394   7.355
 8858POPC   C1B43135  35.216  21.626   6.455
 8858POPC   C2B43136  35.175  21.552   6.755
 8858POPC   C3B43137  35.169  21.590   7.055
 8858POPC   C4B43138  35.161  21.561   7.355
 8859POPC   NC343139  41.569  17.458   5.555
 8859POPC   PO443140  41.545  17.459   5.855
 8859POPC   GL143141  41.523  17.503   6.155
 8859POPC   GL243142  41.434  17.452   6.155
 8859POPC   C1A43143  41.533  17.538   6.455
 8859POPC   D2A43144  41.542  17.508   6.755
 8859POPC   C3A43145  41.560  17.469   7.055
 8859POPC   C4A43146  41.531  17.526   7.355
 8859POPC   C1B43147  41.340  17.434   6.455
 8859POPC   C2B43148  41.278  17.457   6.755
 8859POPC   C3B43149  41.330  17.496   7.055
 8859POPC   C4B43150  41.327  17.456   7.355
 8860POPC   NC343151  12.859  39.235   5.555
 8860POPC   PO443152  12.885  39.243   5.855
 8860POPC   GL143153  12.824  39.261   6.155
 8860POPC   GL243154  12.760  39.075   6.155
 8860POPC   C1A43155  12.867  39.225   6.455
 8860POPC   D2A43156  12.833  39.230   6.755
 8860POPC   C3A43157  12.822  39.269   7.055
 8860POPC   C4A43158  12.899  39.224   7.355
 8860POPC   C1B43159  12.790  39.009   6.455
 8860POPC   C2B43160  12.738  39.021   6.755
 8860POPC   C3B43161  12.797  38.979   7.055
 8860POPC   C4B43162  12.720  39.015   7.355
 8861POPC   NC343163  13.672   1.982   5.555
 8861POPC   PO443164  13.646   2.003   5.855
 8861POPC   GL143165  13.651   1.990   6.155
 8861POPC   GL243166  13.753   2.074   6.155
 8861POPC   C1A43167  13.674   1.983   6.455
 8861POPC   D2A43168  13.645   2.004   6.755
 8861POPC   C3A43169  13.608   1.981   7.055
 8861POPC   C4A43170  13.635   1.998   7.355
 8861POPC   C1B43171  13.853   2.074   6.455
 8861POPC   C2B43172  13.855   2.135   6.755
 8861POPC   C3B43173  13.827   2.064   7.055
 8861POPC   C4B43174  13.869   2.143   7.355
 8862POPC   NC343175  41.537  33.069   5.555
 8862POPC   PO443176  41.545  32.988   5.855
 8862POPC   GL143177  41.512  33.019   6.155
 8862POPC   GL243178  41.662  32.997   6.155
 8862POPC   C1A43179  41.523  33.045   6.455
 8862POPC   D2A43180  41.538  33.068   6.755
 8862POPC   C3A43181  41.574  32.994   7.055
 8862POPC   C4A43182  41.586  33.046   7.355
 8862POPC   C1B43183  41.772  33.012   6.455
 8862POPC   C2B43184  41.839  33.030   6.755
 8862POPC   C3B43185  41.799  33.029   7.055
 8862POPC   C4B43186  41.852  33.016   7.355
 8863POPC   NC343187  39.185  15.982   5.555
 8863POPC   PO443188  39.260  15.930   5.855
 8863POPC   GL143189  39.200  15.999   6.155
 8863POPC   GL243190  39.127  16.010   6.155
 8863POPC   C1A43191  39.230  15.990   6.455
 8863POPC   D2A43192  39.196  15.954   6.755
 8863POPC   C3A43193  39.249  15.910   7.055
 8863POPC   C4A43194  39.246  15.933   7.355
 8863POPC   C1B43195  39.057  16.044   6.455
 8863POPC   C2B43196  39.056  16.123   6.755
 8863POPC   C3B43197  39.027  16.129   7.055
 8863POPC   C4B43198  39.015  16.125   7.355
 8864POPC   NC343199   4.280  41.548   5.555
 8864POPC   PO443200   4.317  41.519   5.855
 8864POPC   GL143201   4.315  41.584   6.155
 8864POPC   GL243202   4.241  41.485   6.155
 8864POPC   C1A43203   4.283  41.575   6.455
 8864POPC   D2A43204   4.335  41.536   6.755
 8864POPC   C3A43205   4.268  41.587   7.055
 8864POPC   C4A43206   4.344  41.537   7.355
 8864POPC   C1B43207   4.067  41.440   6.455
 8864POPC   C2B43208   4.118  41.428   6.755
 8864POPC   C3B43209   4.130  41.397   7.055
 8864POPC   C4B43210   4.111  41.394   7.355
 8865POPC   NC343211  19.054  17.516   5.555
 8865POPC   PO443212  19.079  17.552   5.855
 8865POPC   GL143213  19.108  17.489   6.155
 8865POPC   GL243214  19.156  17.543   6.155
 8865POPC   C1A43215  19.039  17.474   6.455
 8865POPC   D2A43216  19.038  17.462   6.755
 8865POPC   C3A43217  19.061  17.552   7.055
 8865POPC   C4A43218  19.040  17.519   7.355
 8865POPC   C1B43219  19.224  17.667   6.455
 8865POPC   C2B43220  19.220  17.673   6.755
 8865POPC   C3B43221  19.213  17.694   7.055
 8865POPC   C4B43222  19.300  17.663   7.355
 8866POPC   NC343223   5.129  39.275   5.555
 8866POPC   PO443224   5.101  39.262   5.855
 8866POPC   GL143225   5.100  39.238   6.155
 8866POPC   GL243226   5.198  39.315   6.155
 8866POPC   C1A43227   5.127  39.190   6.455
 8866POPC   D2A43228   5.141  39.217   6.755
 8866POPC   C3A43229   5.075  39.264   7.055
 8866POPC   C4A43230   5.061  39.223   7.355
 8866POPC   C1B43231   5.360  39.355   6.455
 8866POPC   C2B43232   5.291  39.290   6.755
 8866POPC   C3B43233   5.292  39.312   7.055
 8866POPC   C4B43234   5.353  39.335   7.355
 8867POPC   NC343235  14.363  41.583   5.555
 8867POPC   PO443236  14.389  41.566   5.855
 8867POPC   GL143237  14.449  41.550   6.155
 8867POPC   GL243238  14.454  41.600   6.155
 8867POPC   C1A43239  14.362  41.601   6.455
 8867POPC   D2A43240  14.433  41.510   6.755
 8867POPC   C3A43241  14.386  41.556   7.055
 8867POPC   C4A43242  14.432  41.578   7.355
 8867POPC   C1B43243  14.539  41.769   6.455
 8867POPC   C2B43244  14.615  41.790   6.755
 8867POPC   C3B43245  14.593  41.693   7.055
 8867POPC   C4B43246  14.583  41.753   7.355
 8868POPC   NC343247  39.997   8.988   5.555
 8868POPC   PO443248  40.016   8.966   5.855
 8868POPC   GL143249  40.022   9.017   6.155
 8868POPC   GL243250  40.069   9.028   6.155
 8868POPC   C1A43251  39.979   8.963   6.455
 8868POPC   D2A43252  39.960   8.924   6.755
 8868POPC   C3A43253  39.981   8.934   7.055
 8868POPC   C4A43254  39.978   9.006   7.355
 8868POPC   C1B43255  40.213   9.151   6.455
 8868POPC   C2B43256  40.196   9.065   6.755
 8868POPC   C3B43257  40.255   9.149   7.055
 8868POPC   C4B43258  40.264   9.065   7.355
 8869POPC   NC343259  21.373  10.532   5.555
 8869POPC   PO443260  21.402  10.519   5.855
 8869POPC   GL143261  21.343  10.523   6.155
 8869POPC   GL243262  21.413  10.604   6.155
 8869POPC   C1A43263  21.402  10.507   6.455
 8869POPC   D2A43264  21.380  10.500   6.755
 8869POPC   C3A43265  21.348  10.561   7.055
 8869POPC   C4A43266  21.401  10.507   7.355
 8869POPC   C1B43267  21.496  10.775   6.455
 8869POPC   C2B43268  21.427  10.744   6.755
 8869POPC   C3B43269  21.481  10.736   7.055
 8869POPC   C4B43270  21.496  10.751   7.355
 8870POPC   NC343271  42.360  44.654   5.555
 8870POPC   PO443272  42.286  44.622   5.855
 8870POPC   GL143273  42.301  44.654   6.155
 8870POPC   GL243274  42.216  44.766   6.155
 8870POPC   C1A43275  42.331  44.642   6.455
 8870POPC   D2A43276  42.330  44.656   6.755
 8870POPC   C3A43277  42.370  44.680   7.055
 8870POPC   C4A43278  42.291  44.616   7.355
 8870POPC   C1B43279  42.139  44.818   6.455
 8870POPC   C2B43280  42.124  44.757   6.755
 8870POPC   C3B43281  42.163  44.840   7.055
 8870POPC   C4B43282  42.162  44.822   7.355
 8871POPC   NC343283   3.502  41.584   5.555
 8871POPC   PO443284   3.495  41.518   5.855
 8871POPC   GL143285   3.558  41.518   6.155
 8871POPC   GL243286   3.600  41.465   6.155
 8871POPC   C1A43287   3.589  41.564   6.455
 8871POPC   D2A43288   3.571  41.572   6.755
 8871POPC   C3A43289   3.503  41.513   7.055
 8871POPC   C4A43290   3.591  41.586   7.355
 8871POPC   C1B43291   3.579  41.289   6.455
 8871POPC   C2B43292   3.607  41.289   6.755
 8871POPC   C3B43293   3.642  41.278   7.055
 8871POPC   C4B43294   3.656  41.325   7.355
 8872POPC   NC343295  19.846  33.818   5.555
 8872POPC   PO443296  19.851  33.796   5.855
 8872POPC   GL143297  19.823  33.809   6.155
 8872POPC   GL243298  19.926  33.788   6.155
 8872POPC   C1A43299  19.823  33.801   6.455
 8872POPC   D2A43300  19.790  33.813   6.755
 8872POPC   C3A43301  19.812  33.812   7.055
 8872POPC   C4A43302  19.846  33.786   7.355
 8872POPC   C1B43303  20.077  33.765   6.455
 8872POPC   C2B43304  20.079  33.686   6.755
 8872POPC   C3B43305  20.073  33.720   7.055
 8872POPC   C4B43306  20.065  33.741   7.355
 8873POPC   NC343307  43.849  43.075   5.555
 8873POPC   PO443308  43.909  43.104   5.855
 8873POPC   GL143309  43.892  43.101   6.155
 8873POPC   GL243310  43.986  43.180   6.155
 8873POPC   C1A43311  43.849  43.156   6.455
 8873POPC   D2A43312  43.871  43.120   6.755
 8873POPC   C3A43313  43.886  43.080   7.055
 8873POPC   C4A43314  43.933  43.134   7.355
 8873POPC   C1B43315  44.080  43.222   6.455
 8873POPC   C2B43316  44.082  43.196   6.755
 8873POPC   C3B43317  44.149  43.226   7.055
 8873POPC   C4B43318  44.152  43.238   7.355
 8874POPC   NC343319  12.076  33.022   5.555
 8874POPC   PO443320  12.085  32.975   5.855
 8874POPC   GL143321  12.048  33.069   6.155
 8874POPC   GL243322  12.101  32.893   6.155
 8874POPC   C1A43323  12.070  33.060   6.455
 8874POPC   D2A43324  12.060  33.022   6.755
 8874POPC   C3A43325  12.046  33.054   7.055
 8874POPC   C4A43326  12.113  32.983   7.355
 8874POPC   C1B43327  12.265  32.778   6.455
 8874POPC   C2B43328  12.266  32.780   6.755
 8874POPC   C3B43329  12.204  32.851   7.055
 8874POPC   C4B43330  12.181  32.788   7.355
 8875POPC   NC343331  30.667  44.671   5.555
 8875POPC   PO443332  30.702  44.629   5.855
 8875POPC   GL143333  30.729  44.640   6.155
 8875POPC   GL243334  30.785  44.756   6.155
 8875POPC   C1A43335  30.739  44.654   6.455
 8875POPC   D2A43336  30.744  44.688   6.755
 8875POPC   C3A43337  30.731  44.706   7.055
 8875POPC   C4A43338  30.731  44.679   7.355
 8875POPC   C1B43339  30.765  44.894   6.455
 8875POPC   C2B43340  30.841  44.853   6.755
 8875POPC   C3B43341  30.790  44.918   7.055
 8875POPC   C4B43342  30.785  44.913   7.355
 8876POPC   NC343343  24.452  11.287   5.555
 8876POPC   PO443344  24.521  11.312   5.855
 8876POPC   GL143345  24.492  11.297   6.155
 8876POPC   GL243346  24.568  11.173   6.155
 8876POPC   C1A43347  24.448  11.270   6.455
 8876POPC   D2A43348  24.442  11.339   6.755
 8876POPC   C3A43349  24.469  11.347   7.055
 8876POPC   C4A43350  24.496  11.266   7.355
 8876POPC   C1B43351  24.653  11.084   6.455
 8876POPC   C2B43352  24.678  11.117   6.755
 8876POPC   C3B43353  24.675  11.104   7.055
 8876POPC   C4B43354  24.690  11.118   7.355
 8877POPC   NC343355  15.186  12.882   5.555
 8877POPC   PO443356  15.191  12.805   5.855
 8877POPC   GL143357  15.162  12.893   6.155
 8877POPC   GL243358  15.146  13.013   6.155
 8877POPC   C1A43359  15.192  12.812   6.455
 8877POPC   D2A43360  15.200  12.853   6.755
 8877POPC   C3A43361  15.220  12.851   7.055
 8877POPC   C4A43362  15.148  12.803   7.355
 8877POPC   C1B43363  15.115  13.129   6.455
 8877POPC   C2B43364  15.055  13.041   6.755
 8877POPC   C3B43365  15.096  13.124   7.055
 8877POPC   C4B43366  15.094  13.127   7.355
 8878POPC   NC343367  32.276  12.083   5.555
 8878POPC   PO443368  32.251  12.037   5.855
 8878POPC   GL143369  32.212  12.054   6.155
 8878POPC   GL243370  32.284  11.948   6.155
 8878POPC   C1A43371  32.239  12.119   6.455
 8878POPC   D2A43372  32.254  12.063   6.755
 8878POPC   C3A43373  32.257  12.027   7.055
 8878POPC   C4A43374  32.210  12.116   7.355
 8878POPC   C1B43375  32.313  11.818   6.455
 8878POPC   C2B43376  32.266  11.798   6.755
 8878POPC   C3B43377  32.281  11.843   7.055
 8878POPC   C4B43378  32.291  11.860   7.355
 8879POPC   NC343379  29.962  36.103   5.555
 8879POPC   PO443380  29.889  36.101   5.855
 8879POPC   GL143381  29.928  36.100   6.155
 8879POPC   GL243382  29.823  36.248   6.155
 8879POPC   C1A43383  29.923  36.126   6.455
 8879POPC   D2A43384  29.924  36.095   6.755
 8879POPC   C3A43385  29.954  36.123   7.055
 8879POPC   C4A43386  29.916  36.108   7.355
 8879POPC   C1B43387  29.751  36.290   6.455
 8879POPC   C2B43388  29.772  36.314   6.755
 8879POPC   C3B43389  29.823  36.348   7.055
 8879POPC   C4B43390  29.765  36.325   7.355
 8880POPC   NC343391  17.492  39.201   5.555
 8880POPC   PO443392  17.542  39.228   5.855
 8880POPC   GL143393  17.477  39.235   6.155
 8880POPC   GL243394  17.409  39.333   6.155
 8880POPC   C1A43395  17.505  39.210   6.455
 8880POPC   D2A43396  17.523  39.187   6.755
 8880POPC   C3A43397  17.539  39.226   7.055
 8880POPC   C4A43398  17.526  39.264   7.355
 8880POPC   C1B43399  17.314  39.413   6.455
 8880POPC   C2B43400  17.285  39.423   6.755
 8880POPC   C3B43401  17.358  39.378   7.055
 8880POPC   C4B43402  17.356  39.438   7.355
 8881POPC   NC343403  22.174  13.644   5.555
 8881POPC   PO443404  22.112  13.586   5.855
 8881POPC   GL143405  22.141  13.673   6.155
 8881POPC   GL243406  22.255  13.579   6.155
 8881POPC   C1A43407  22.119  13.589   6.455
 8881POPC   D2A43408  22.149  13.586   6.755
 8881POPC   C3A43409  22.147  13.635   7.055
 8881POPC   C4A43410  22.172  13.649   7.355
 8881POPC   C1B43411  22.364  13.476   6.455
 8881POPC   C2B43412  22.360  13.451   6.755
 8881POPC   C3B43413  22.319  13.466   7.055
 8881POPC   C4B43414  22.367  13.461   7.355
 8882POPC   NC343415  13.617   3.494   5.555
 8882POPC   PO443416  13.652   3.555   5.855
 8882POPC   GL143417  13.596   3.545   6.155
 8882POPC   GL243418  13.500   3.532   6.155
 8882POPC   C1A43419  13.623   3.505   6.455
 8882POPC   D2A43420  13.662   3.565   6.755
 8882POPC   C3A43421  13.593   3.520   7.055
 8882POPC   C4A43422  13.656   3.492   7.355
 8882POPC   C1B43423  13.388   3.446   6.455
 8882POPC   C2B43424  13.377   3.481   6.755
 8882POPC   C3B43425  13.364   3.466   7.055
 8882POPC   C4B43426  13.381   3.425   7.355
 8883POPC   NC343427  26.008  32.977   5.555
 8883POPC   PO443428  26.065  33.065   5.855
 8883POPC   GL143429  26.058  33.042   6.155
 8883POPC   GL243430  25.996  33.113   6.155
 8883POPC   C1A43431  26.004  33.040   6.455
 8883POPC   D2A43432  26.043  32.980   6.755
 8883POPC   C3A43433  26.089  33.031   7.055
 8883POPC   C4A43434  26.030  33.000   7.355
 8883POPC   C1B43435  25.857  33.255   6.455
 8883POPC   C2B43436  25.913  33.198   6.755
 8883POPC   C3B43437  25.874  33.239   7.055
 8883POPC   C4B43438  25.937  33.185   7.355
 8884POPC   NC343439  33.054  36.869   5.555
 8884POPC   PO443440  33.024  36.899   5.855
 8884POPC   GL143441  33.002  36.936   6.155
 8884POPC   GL243442  32.918  36.887   6.155
 8884POPC   C1A43443  32.991  36.913   6.455
 8884POPC   D2A43444  33.050  36.950   6.755
 8884POPC   C3A43445  32.992  36.946   7.055
 8884POPC   C4A43446  33.068  36.936   7.355
 8884POPC   C1B43447  32.772  36.925   6.455
 8884POPC   C2B43448  32.782  36.900   6.755
 8884POPC   C3B43449  32.825  36.962   7.055
 8884POPC   C4B43450  32.789  36.968   7.355
 8885POPC   NC343451   5.845   8.923   5.555
 8885POPC   PO443452   5.895   8.955   5.855
 8885POPC   GL143453   5.884   8.929   6.155
 8885POPC   GL243454   5.744   8.898   6.155
 8885POPC   C1A43455   5.911   9.006   6.455
 8885POPC   D2A43456   5.821   8.959   6.755
 8885POPC   C3A43457   5.819   8.995   7.055
 8885POPC   C4A43458   5.865   9.003   7.355
 8885POPC   C1B43459   5.673   8.739   6.455
 8885POPC   C2B43460   5.712   8.790   6.755
 8885POPC   C3B43461   5.664   8.806   7.055
 8885POPC   C4B43462   5.706   8.740   7.355
 8886POPC   NC343463  21.355  30.650   5.555
 8886POPC   PO443464  21.429  30.655   5.855
 8886POPC   GL143465  21.400  30.669   6.155
 8886POPC   GL243466  21.493  30.632   6.155
 8886POPC   C1A43467  21.398  30.746   6.455
 8886POPC   D2A43468  21.435  30.733   6.755
 8886POPC   C3A43469  21.353  30.721   7.055
 8886POPC   C4A43470  21.362  30.734   7.355
 8886POPC   C1B43471  21.573  30.562   6.455
 8886POPC   C2B43472  21.615  30.589   6.755
 8886POPC   C3B43473  21.561  30.619   7.055
 8886POPC   C4B43474  21.592  30.602   7.355
 8887POPC   NC343475   5.874  14.407   5.555
 8887POPC   PO443476   5.890  14.391   5.855
 8887POPC   GL143477   5.826  14.382   6.155
 8887POPC   GL243478   5.949  14.391   6.155
 8887POPC   C1A43479   5.919  14.362   6.455
 8887POPC   D2A43480   5.910  14.404   6.755
 8887POPC   C3A43481   5.906  14.402   7.055
 8887POPC   C4A43482   5.899  14.368   7.355
 8887POPC   C1B43483   6.114  14.293   6.455
 8887POPC   C2B43484   6.067  14.279   6.755
 8887POPC   C3B43485   6.116  14.235   7.055
 8887POPC   C4B43486   6.063  14.301   7.355
 8888POPC   NC343487  18.274  30.694   5.555
 8888POPC   PO443488  18.251  30.722   5.855
 8888POPC   GL143489  18.233  30.713   6.155
 8888POPC   GL243490  18.132  30.644   6.155
 8888POPC   C1A43491  18.281  30.665   6.455
 8888POPC   D2A43492  18.318  30.663   6.755
 8888POPC   C3A43493  18.319  30.647   7.055
 8888POPC   C4A43494  18.265  30.671   7.355
 8888POPC   C1B43495  18.078  30.614   6.455
 8888POPC   C2B43496  18.075  30.595   6.755
 8888POPC   C3B43497  18.046  30.643   7.055
 8888POPC   C4B43498  18.044  30.606   7.355
 8889POPC   NC343499   5.877   5.867   5.555
 8889POPC   PO443500   5.882   5.871   5.855
 8889POPC   GL143501   5.831   5.837   6.155
 8889POPC   GL243502   5.968   5.729   6.155
 8889POPC   C1A43503   5.854   5.823   6.455
 8889POPC   D2A43504   5.860   5.903   6.755
 8889POPC   C3A43505   5.895   5.838   7.055
 8889POPC   C4A43506   5.908   5.833   7.355
 8889POPC   C1B43507   6.055   5.682   6.455
 8889POPC   C2B43508   6.004   5.675   6.755
 8889POPC   C3B43509   6.009   5.705   7.055
 8889POPC   C4B43510   6.076   5.693   7.355
 8890POPC   NC343511  32.219  18.285   5.555
 8890POPC   PO443512  32.214  18.298   5.855
 8890POPC   GL143513  32.262  18.323   6.155
 8890POPC   GL243514  32.152  18.369   6.155
 8890POPC   C1A43515  32.222  18.294   6.455
 8890POPC   D2A43516  32.252  18.332   6.755
 8890POPC   C3A43517  32.204  18.304   7.055
 8890POPC   C4A43518  32.297  18.289   7.355
 8890POPC   C1B43519  32.053  18.447   6.455
 8890POPC   C2B43520  32.029  18.469   6.755
 8890POPC   C3B43521  32.049  18.404   7.055
 8890POPC   C4B43522  32.078  18.421   7.355
 8891POPC   NC343523  43.908  29.959   5.555
 8891POPC   PO443524  43.842  29.933   5.855
 8891POPC   GL143525  43.930  29.965   6.155
 8891POPC   GL243526  44.034  29.968   6.155
 8891POPC   C1A43527  43.933  29.874   6.455
 8891POPC   D2A43528  43.868  29.923   6.755
 8891POPC   C3A43529  43.893  29.956   7.055
 8891POPC   C4A43530  43.906  29.891   7.355
 8891POPC   C1B43531  44.161  29.971   6.455
 8891POPC   C2B43532  44.083  30.014   6.755
 8891POPC   C3B43533  44.170  29.979   7.055
 8891POPC   C4B43534  44.176  29.967   7.355
 8892POPC   NC343535  19.813   5.834   5.555
 8892POPC   PO443536  19.801   5.902   5.855
 8892POPC   GL143537  19.801   5.820   6.155
 8892POPC   GL243538  19.838   6.017   6.155
 8892POPC   C1A43539  19.867   5.862   6.455
 8892POPC   D2A43540  19.832   5.828   6.755
 8892POPC   C3A43541  19.802   5.862   7.055
 8892POPC   C4A43542  19.873   5.825   7.355
 8892POPC   C1B43543  19.888   6.081   6.455
 8892POPC   C2B43544  19.938   6.114   6.755
 8892POPC   C3B43545  19.924   6.099   7.055
 8892POPC   C4B43546  19.881   6.130   7.355
 8893POPC   NC343547  12.028  16.753   5.555
 8893POPC   PO443548  12.047  16.736   5.855
 8893POPC   GL143549  12.032  16.741   6.155
 8893POPC   GL243550  11.988  16.723   6.155
 8893POPC   C1A43551  12.064  16.713   6.455
 8893POPC   D2A43552  12.039  16.763   6.755
 8893POPC   C3A43553  12.081  16.739   7.055
 8893POPC   C4A43554  12.029  16.692   7.355
 8893POPC   C1B43555  11.868  16.752   6.455
 8893POPC   C2B43556  11.799  16.706   6.755
 8893POPC   C3B43557  11.855  16.701   7.055
 8893POPC   C4B43558  11.852  16.779   7.355
 8894POPC   NC343559  36.893   8.980   5.555
 8894POPC   PO443560  36.870   8.970   5.855
 8894POPC   GL143561  36.942   8.993   6.155
 8894POPC   GL243562  36.824   8.846   6.155
 8894POPC   C1A43563  36.858   9.006   6.455
 8894POPC   D2A43564  36.937   8.929   6.755
 8894POPC   C3A43565  36.884   8.952   7.055
 8894POPC   C4A43566  36.903   8.971   7.355
 8894POPC   C1B43567  36.705   8.782   6.455
 8894POPC   C2B43568  36.738   8.730   6.755
 8894POPC   C3B43569  36.800   8.792   7.055
 8894POPC   C4B43570  36.745   8.777   7.355
 8895POPC   NC343571  29.927  39.226   5.555
 8895POPC   PO443572  29.955  39.200   5.855
 8895POPC   GL143573  29.877  39.256   6.155
 8895POPC   GL243574  30.012  39.163   6.155
 8895POPC   C1A43575  29.960  39.197   6.455
 8895POPC   D2A43576  29.952  39.231   6.755
 8895POPC   C3A43577  29.899  39.252   7.055
 8895POPC   C4A43578  29.942  39.207   7.355
 8895POPC   C1B43579  30.079  39.031   6.455
 8895POPC   C2B43580  30.035  39.029   6.755
 8895POPC   C3B43581  30.055  39.088   7.055
 8895POPC   C4B43582  30.070  38.995   7.355
 8896POPC   NC343583  26.836  12.854   5.555
 8896POPC   PO443584  26.793  12.846   5.855
 8896POPC   GL143585  26.781  12.811   6.155
 8896POPC   GL243586  26.914  12.893   6.155
 8896POPC   C1A43587  26.796  12.846   6.455
 8896POPC   D2A43588  26.781  12.851   6.755
 8896POPC   C3A43589  26.778  12.858   7.055
 8896POPC   C4A43590  26.860  12.808   7.355
 8896POPC   C1B43591  27.043  12.872   6.455
 8896POPC   C2B43592  27.026  12.877   6.755
 8896POPC   C3B43593  27.019  12.883   7.055
 8896POPC   C4B43594  27.027  12.851   7.355
 8897POPC   NC343595  30.728  37.635   5.555
 8897POPC   PO443596  30.708  37.648   5.855
 8897POPC   GL143597  30.672  37.691   6.155
 8897POPC   GL243598  30.672  37.776   6.155
 8897POPC   C1A43599  30.650  37.666   6.455
 8897POPC   D2A43600  30.740  37.708   6.755
 8897POPC   C3A43601  30.695  37.644   7.055
 8897POPC   C4A43602  30.660  37.640   7.355
 8897POPC   C1B43603  30.678  37.919   6.455
 8897POPC   C2B43604  30.725  37.942   6.755
 8897POPC   C3B43605  30.695  37.952   7.055
 8897POPC   C4B43606  30.662  37.972   7.355
 8898POPC   NC343607   1.984  19.038   5.555
 8898POPC   PO443608   1.967  19.104   5.855
 8898POPC   GL143609   2.010  19.076   6.155
 8898POPC   GL243610   1.951  19.187   6.155
 8898POPC   C1A43611   1.944  19.062   6.455
 8898POPC   D2A43612   2.036  19.097   6.755
 8898POPC   C3A43613   2.030  19.044   7.055
 8898POPC   C4A43614   2.002  19.042   7.355
 8898POPC   C1B43615   1.966  19.297   6.455
 8898POPC   C2B43616   1.955  19.267   6.755
 8898POPC   C3B43617   2.001  19.332   7.055
 8898POPC   C4B43618   1.927  19.261   7.355
 8899POPC   NC343619  43.127  22.181   5.555
 8899POPC   PO443620  43.086  22.154   5.855
 8899POPC   GL143621  43.096  22.154   6.155
 8899POPC   GL243622  43.152  22.223   6.155
 8899POPC   C1A43623  43.117  22.119   6.455
 8899POPC   D2A43624  43.084  22.114   6.755
 8899POPC   C3A43625  43.156  22.127   7.055
 8899POPC   C4A43626  43.088  22.164   7.355
 8899POPC   C1B43627  43.244  22.347   6.455
 8899POPC   C2B43628  43.304  22.408   6.755
 8899POPC   C3B43629  43.278  22.409   7.055
 8899POPC   C4B43630  43.305  22.394   7.355
 8900POPC   NC343631  29.191  13.592   5.555
 8900POPC   PO443632  29.141  13.632   5.855
 8900POPC   GL143633  29.099  13.671   6.155
 8900POPC   GL243634  29.058  13.553   6.155
 8900POPC   C1A43635  29.098  13.675   6.455
 8900POPC   D2A43636  29.163  13.668   6.755
 8900POPC   C3A43637  29.183  13.666   7.055
 8900POPC   C4A43638  29.137  13.626   7.355
 8900POPC   C1B43639  29.022  13.456   6.455
 8900POPC   C2B43640  29.006  13.445   6.755
 8900POPC   C3B43641  28.949  13.432   7.055
 8900POPC   C4B43642  28.948  13.460   7.355
 8901POPC   NC343643  43.925   1.994   5.555
 8901POPC   PO443644  43.891   1.995   5.855
 8901POPC   GL143645  43.855   1.973   6.155
 8901POPC   GL243646  44.043   1.997   6.155
 8901POPC   C1A43647  43.904   1.981   6.455
 8901POPC   D2A43648  43.901   2.023   6.755
 8901POPC   C3A43649  43.867   2.009   7.055
 8901POPC   C4A43650  43.864   1.991   7.355
 8901POPC   C1B43651  44.165   2.099   6.455
 8901POPC   C2B43652  44.119   2.081   6.755
 8901POPC   C3B43653  44.154   2.052   7.055
 8901POPC   C4B43654  44.092   2.104   7.355
 8902POPC   NC343655  38.504  10.531   5.555
 8902POPC   PO443656  38.467  10.558   5.855
 8902POPC   GL143657  38.490  10.499   6.155
 8902POPC   GL243658  38.552  10.555   6.155
 8902POPC   C1A43659  38.415  10.526   6.455
 8902POPC   D2A43660  38.479  10.531   6.755
 8902POPC   C3A43661  38.490  10.526   7.055
 8902POPC   C4A43662  38.473  10.549   7.355
 8902POPC   C1B43663  38.709  10.513   6.455
 8902POPC   C2B43664  38.684  10.542   6.755
 8902POPC   C3B43665  38.686  10.502   7.055
 8902POPC   C4B43666  38.655  10.519   7.355
 8903POPC   NC343667  26.060  29.889   5.555
 8903POPC   PO443668  26.023  29.889   5.855
 8903POPC   GL143669  26.079  29.877   6.155
 8903POPC   GL243670  25.993  30.005   6.155
 8903POPC   C1A43671  26.049  29.949   6.455
 8903POPC   D2A43672  26.009  29.876   6.755
 8903POPC   C3A43673  26.002  29.931   7.055
 8903POPC   C4A43674  26.039  29.885   7.355
 8903POPC   C1B43675  26.077  30.163   6.455
 8903POPC   C2B43676  26.007  30.171   6.755
 8903POPC   C3B43677  26.079  30.174   7.055
 8903POPC   C4B43678  26.025  30.138   7.355
 8904POPC   NC343679  36.082   5.130   5.555
 8904POPC   PO443680  36.082   5.102   5.855
 8904POPC   GL143681  36.113   5.132   6.155
 8904POPC   GL243682  36.232   5.036   6.155
 8904POPC   C1A43683  36.124   5.068   6.455
 8904POPC   D2A43684  36.124   5.092   6.755
 8904POPC   C3A43685  36.132   5.097   7.055
 8904POPC   C4A43686  36.124   5.100   7.355
 8904POPC   C1B43687  36.323   4.897   6.455
 8904POPC   C2B43688  36.246   4.860   6.755
 8904POPC   C3B43689  36.289   4.932   7.055
 8904POPC   C4B43690  36.230   4.925   7.355
 8905POPC   NC343691  27.613  12.059   5.555
 8905POPC   PO443692  27.564  12.058   5.855
 8905POPC   GL143693  27.629  12.094   6.155
 8905POPC   GL243694  27.660  11.971   6.155
 8905POPC   C1A43695  27.603  12.071   6.455
 8905POPC   D2A43696  27.613  12.088   6.755
 8905POPC   C3A43697  27.558  12.035   7.055
 8905POPC   C4A43698  27.622  12.057   7.355
 8905POPC   C1B43699  27.808  11.949   6.455
 8905POPC   C2B43700  27.823  11.967   6.755
 8905POPC   C3B43701  27.836  11.992   7.055
 8905POPC   C4B43702  27.853  11.983   7.355
 8906POPC   NC343703   7.454  20.625   5.555
 8906POPC   PO443704   7.391  20.628   5.855
 8906POPC   GL143705   7.454  20.616   6.155
 8906POPC   GL243706   7.315  20.689   6.155
 8906POPC   C1A43707   7.378  20.570   6.455
 8906POPC   D2A43708   7.413  20.588   6.755
 8906POPC   C3A43709   7.414  20.612   7.055
 8906POPC   C4A43710   7.446  20.649   7.355
 8906POPC   C1B43711   7.223  20.645   6.455
 8906POPC   C2B43712   7.192  20.697   6.755
 8906POPC   C3B43713   7.193  20.648   7.055
 8906POPC   C4B43714   7.165  20.666   7.355
 8907POPC   NC343715  43.847  39.242   5.555
 8907POPC   PO443716  43.859  39.183   5.855
 8907POPC   GL143717  43.854  39.217   6.155
 8907POPC   GL243718  43.810  39.324   6.155
 8907POPC   C1A43719  43.919  39.227   6.455
 8907POPC   D2A43720  43.904  39.182   6.755
 8907POPC   C3A43721  43.916  39.181   7.055
 8907POPC   C4A43722  43.886  39.214   7.355
 8907POPC   C1B43723  43.827  39.474   6.455
 8907POPC   C2B43724  43.856  39.506   6.755
 8907POPC   C3B43725  43.838  39.478   7.055
 8907POPC   C4B43726  43.787  39.476   7.355
 8908POPC   NC343727  15.139  38.481   5.555
 8908POPC   PO443728  15.221  38.451   5.855
 8908POPC   GL143729  15.177  38.448   6.155
 8908POPC   GL243730  15.128  38.335   6.155
 8908POPC   C1A43731  15.179  38.488   6.455
 8908POPC   D2A43732  15.134  38.427   6.755
 8908POPC   C3A43733  15.145  38.425   7.055
 8908POPC   C4A43734  15.184  38.489   7.355
 8908POPC   C1B43735  15.021  38.246   6.455
 8908POPC   C2B43736  15.055  38.243   6.755
 8908POPC   C3B43737  15.055  38.242   7.055
 8908POPC   C4B43738  14.992  38.265   7.355
 8909POPC   NC343739  16.744   2.732   5.555
 8909POPC   PO443740  16.756   2.748   5.855
 8909POPC   GL143741  16.776   2.754   6.155
 8909POPC   GL243742  16.682   2.886   6.155
 8909POPC   C1A43743  16.725   2.740   6.455
 8909POPC   D2A43744  16.700   2.757   6.755
 8909POPC   C3A43745  16.726   2.723   7.055
 8909POPC   C4A43746  16.700   2.750   7.355
 8909POPC   C1B43747  16.629   3.043   6.455
 8909POPC   C2B43748  16.679   3.030   6.755
 8909POPC   C3B43749  16.662   2.964   7.055
 8909POPC   C4B43750  16.636   3.016   7.355
 8910POPC   NC343751  34.595  36.103   5.555
 8910POPC   PO443752  34.567  36.112   5.855
 8910POPC   GL143753  34.608  36.148   6.155
 8910POPC   GL243754  34.682  36.001   6.155
 8910POPC   C1A43755  34.583  36.125   6.455
 8910POPC   D2A43756  34.616  36.080   6.755
 8910POPC   C3A43757  34.550  36.153   7.055
 8910POPC   C4A43758  34.560  36.151   7.355
 8910POPC   C1B43759  34.786  35.954   6.455
 8910POPC   C2B43760  34.806  35.994   6.755
 8910POPC   C3B43761  34.783  35.929   7.055
 8910POPC   C4B43762  34.785  35.964   7.355
 8911POPC   NC343763  20.620  39.222   5.555
 8911POPC   PO443764  20.612  39.253   5.855
 8911POPC   GL143765  20.563  39.240   6.155
 8911POPC   GL243766  20.629  39.369   6.155
 8911POPC   C1A43767  20.595  39.194   6.455
 8911POPC   D2A43768  20.639  39.201   6.755
 8911POPC   C3A43769  20.625  39.223   7.055
 8911POPC   C4A43770  20.635  39.193   7.355
 8911POPC   C1B43771  20.692  39.418   6.455
 8911POPC   C2B43772  20.695  39.452   6.755
 8911POPC   C3B43773  20.752  39.430   7.055
 8911POPC   C4B43774  20.694  39.442   7.355
 8912POPC   NC343775  26.769   9.751   5.555
 8912POPC   PO443776  26.781   9.744   5.855
 8912POPC   GL143777  26.778   9.758   6.155
 8912POPC   GL243778  26.749   9.597   6.155
 8912POPC   C1A43779  26.854   9.702   6.455
 8912POPC   D2A43780  26.779   9.757   6.755
 8912POPC   C3A43781  26.802   9.723   7.055
 8912POPC   C4A43782  26.865   9.742   7.355
 8912POPC   C1B43783  26.745   9.478   6.455
 8912POPC   C2B43784  26.693   9.557   6.755
 8912POPC   C3B43785  26.747   9.573   7.055
 8912POPC   C4B43786  26.658   9.478   7.355
 8913POPC   NC343787  20.655  19.874   5.555
 8913POPC   PO443788  20.651  19.829   5.855
 8913POPC   GL143789  20.562  19.857   6.155
 8913POPC   GL243790  20.444  19.911   6.155
 8913POPC   C1A43791  20.590  19.818   6.455
 8913POPC   D2A43792  20.633  19.860   6.755
 8913POPC   C3A43793  20.623  19.821   7.055
 8913POPC   C4A43794  20.624  19.823   7.355
 8913POPC   C1B43795  20.384  19.964   6.455
 8913POPC   C2B43796  20.399  19.906   6.755
 8913POPC   C3B43797  20.416  19.922   7.055
 8913POPC   C4B43798  20.382  19.952   7.355
 8914POPC   NC343799  20.637  33.010   5.555
 8914POPC   PO443800  20.612  33.060   5.855
 8914POPC   GL143801  20.631  33.045   6.155
 8914POPC   GL243802  20.657  32.942   6.155
 8914POPC   C1A43803  20.590  33.073   6.455
 8914POPC   D2A43804  20.563  33.007   6.755
 8914POPC   C3A43805  20.617  33.059   7.055
 8914POPC   C4A43806  20.646  33.013   7.355
 8914POPC   C1B43807  20.735  32.796   6.455
 8914POPC   C2B43808  20.753  32.774   6.755
 8914POPC   C3B43809  20.681  32.808   7.055
 8914POPC   C4B43810  20.721  32.758   7.355
 8915POPC   NC343811   9.700  31.434   5.555
 8915POPC   PO443812   9.710  31.517   5.855
 8915POPC   GL143813   9.794  31.484   6.155
 8915POPC   GL243814   9.710  31.536   6.155
 8915POPC   C1A43815   9.780  31.464   6.455
 8915POPC   D2A43816   9.703  31.499   6.755
 8915POPC   C3A43817   9.763  31.487   7.055
 8915POPC   C4A43818   9.782  31.440   7.355
 8915POPC   C1B43819   9.630  31.683   6.455
 8915POPC   C2B43820   9.591  31.660   6.755
 8915POPC   C3B43821   9.590  31.649   7.055
 8915POPC   C4B43822   9.613  31.635   7.355
 8916POPC   NC343823  26.053  15.915   5.555
 8916POPC   PO443824  26.069  15.914   5.855
 8916POPC   GL143825  26.031  15.979   6.155
 8916POPC   GL243826  25.911  15.902   6.155
 8916POPC   C1A43827  25.998  15.916   6.455
 8916POPC   D2A43828  26.023  15.929   6.755
 8916POPC   C3A43829  26.022  15.907   7.055
 8916POPC   C4A43830  26.005  15.925   7.355
 8916POPC   C1B43831  25.780  15.810   6.455
 8916POPC   C2B43832  25.872  15.825   6.755
 8916POPC   C3B43833  25.796  15.819   7.055
 8916POPC   C4B43834  25.860  15.858   7.355
 8917POPC   NC343835  22.941  12.039   5.555
 8917POPC   PO443836  22.988  12.087   5.855
 8917POPC   GL143837  22.951  12.114   6.155
 8917POPC   GL243838  23.005  11.929   6.155
 8917POPC   C1A43839  22.945  12.059   6.455
 8917POPC   D2A43840  22.980  12.046   6.755
 8917POPC   C3A43841  22.917  12.082   7.055
 8917POPC   C4A43842  22.968  12.095   7.355
 8917POPC   C1B43843  22.941  11.814   6.455
 8917POPC   C2B43844  22.957  11.843   6.755
 8917POPC   C3B43845  23.027  11.804   7.055
 8917POPC   C4B43846  22.952  11.878   7.355
 8918POPC   NC343847  11.274   9.775   5.555
 8918POPC   PO443848  11.316   9.724   5.855
 8918POPC   GL143849  11.268   9.706   6.155
 8918POPC   GL243850  11.258   9.860   6.155
 8918POPC   C1A43851  11.301   9.771   6.455
 8918POPC   D2A43852  11.326   9.712   6.755
 8918POPC   C3A43853  11.347   9.719   7.055
 8918POPC   C4A43854  11.330   9.729   7.355
 8918POPC   C1B43855  11.185   9.993   6.455
 8918POPC   C2B43856  11.203  10.002   6.755
 8918POPC   C3B43857  11.212   9.985   7.055
 8918POPC   C4B43858  11.203   9.998   7.355
 8919POPC   NC343859   6.626   9.703   5.555
 8919POPC   PO443860   6.641   9.759   5.855
 8919POPC   GL143861   6.634   9.785   6.155
 8919POPC   GL243862   6.671   9.625   6.155
 8919POPC   C1A43863   6.684   9.750   6.455
 8919POPC   D2A43864   6.642   9.729   6.755
 8919POPC   C3A43865   6.623   9.774   7.055
 8919POPC   C4A43866   6.665   9.730   7.355
 8919POPC   C1B43867   6.577   9.508   6.455
 8919POPC   C2B43868   6.645   9.534   6.755
 8919POPC   C3B43869   6.586   9.530   7.055
 8919POPC   C4B43870   6.637   9.547   7.355
 8920POPC   NC343871  21.393  23.724   5.555
 8920POPC   PO443872  21.352  23.720   5.855
 8920POPC   GL143873  21.368  23.751   6.155
 8920POPC   GL243874  21.375  23.563   6.155
 8920POPC   C1A43875  21.364  23.756   6.455
 8920POPC   D2A43876  21.428  23.686   6.755
 8920POPC   C3A43877  21.367  23.671   7.055
 8920POPC   C4A43878  21.391  23.710   7.355
 8920POPC   C1B43879  21.312  23.479   6.455
 8920POPC   C2B43880  21.291  23.460   6.755
 8920POPC   C3B43881  21.283  23.443   7.055
 8920POPC   C4B43882  21.237  23.470   7.355
 8921POPC   NC343883  14.429  24.451   5.555
 8921POPC   PO443884  14.401  24.532   5.855
 8921POPC   GL143885  14.390  24.522   6.155
 8921POPC   GL243886  14.249  24.560   6.155
 8921POPC   C1A43887  14.398  24.480   6.455
 8921POPC   D2A43888  14.451  24.502   6.755
 8921POPC   C3A43889  14.373  24.532   7.055
 8921POPC   C4A43890  14.402  24.485   7.355
 8921POPC   C1B43891  14.199  24.491   6.455
 8921POPC   C2B43892  14.115  24.531   6.755
 8921POPC   C3B43893  14.186  24.527   7.055
 8921POPC   C4B43894  14.112  24.514   7.355
 8922POPC   NC343895  12.834  21.357   5.555
 8922POPC   PO443896  12.824  21.381   5.855
 8922POPC   GL143897  12.843  21.348   6.155
 8922POPC   GL243898  12.839  21.534   6.155
 8922POPC   C1A43899  12.883  21.385   6.455
 8922POPC   D2A43900  12.864  21.391   6.755
 8922POPC   C3A43901  12.880  21.431   7.055
 8922POPC   C4A43902  12.851  21.338   7.355
 8922POPC   C1B43903  12.711  21.598   6.455
 8922POPC   C2B43904  12.743  21.628   6.755
 8922POPC   C3B43905  12.766  21.637   7.055
 8922POPC   C4B43906  12.758  21.643   7.355
 8923POPC   NC343907  20.596  41.563   5.555
 8923POPC   PO443908  20.610  41.574   5.855
 8923POPC   GL143909  20.562  41.603   6.155
 8923POPC   GL243910  20.688  41.654   6.155
 8923POPC   C1A43911  20.617  41.579   6.455
 8923POPC   D2A43912  20.612  41.588   6.755
 8923POPC   C3A43913  20.596  41.512   7.055
 8923POPC   C4A43914  20.605  41.554   7.355
 8923POPC   C1B43915  20.701  41.771   6.455
 8923POPC   C2B43916  20.694  41.818   6.755
 8923POPC   C3B43917  20.757  41.822   7.055
 8923POPC   C4B43918  20.748  41.794   7.355
 8924POPC   NC343919  19.032  31.454   5.555
 8924POPC   PO443920  19.079  31.509   5.855
 8924POPC   GL143921  19.107  31.472   6.155
 8924POPC   GL243922  19.017  31.547   6.155
 8924POPC   C1A43923  19.046  31.507   6.455
 8924POPC   D2A43924  19.037  31.498   6.755
 8924POPC   C3A43925  19.067  31.515   7.055
 8924POPC   C4A43926  19.080  31.474   7.355
 8924POPC   C1B43927  18.954  31.729   6.455
 8924POPC   C2B43928  18.936  31.673   6.755
 8924POPC   C3B43929  18.977  31.741   7.055
 8924POPC   C4B43930  18.972  31.669   7.355
 8925POPC   NC343931   6.694  11.269   5.555
 8925POPC   PO443932   6.602  11.342   5.855
 8925POPC   GL143933   6.662  11.274   6.155
 8925POPC   GL243934   6.748  11.433   6.155
 8925POPC   C1A43935   6.605  11.318   6.455
 8925POPC   D2A43936   6.629  11.289   6.755
 8925POPC   C3A43937   6.648  11.307   7.055
 8925POPC   C4A43938   6.659  11.331   7.355
 8925POPC   C1B43939   6.813  11.487   6.455
 8925POPC   C2B43940   6.769  11.537   6.755
 8925POPC   C3B43941   6.813  11.534   7.055
 8925POPC   C4B43942   6.805  11.475   7.355
 8926POPC   NC343943  11.313  44.657   5.555
 8926POPC   PO443944  11.345  44.699   5.855
 8926POPC   GL143945  11.280  44.667   6.155
 8926POPC   GL243946  11.157  44.731   6.155
 8926POPC   C1A43947  11.318  44.650   6.455
 8926POPC   D2A43948  11.296  44.694   6.755
 8926POPC   C3A43949  11.266  44.700   7.055
 8926POPC   C4A43950  11.299  44.701   7.355
 8926POPC   C1B43951  11.062  44.799   6.455
 8926POPC   C2B43952  11.095  44.749   6.755
 8926POPC   C3B43953  11.050  44.740   7.055
 8926POPC   C4B43954  11.052  44.805   7.355
 8927POPC   NC343955  31.488  11.348   5.555
 8927POPC   PO443956  31.470  11.266   5.855
 8927POPC   GL143957  31.480  11.343   6.155
 8927POPC   GL243958  31.381  11.413   6.155
 8927POPC   C1A43959  31.470  11.264   6.455
 8927POPC   D2A43960  31.503  11.272   6.755
 8927POPC   C3A43961  31.484  11.284   7.055
 8927POPC   C4A43962  31.463  11.326   7.355
 8927POPC   C1B43963  31.333  11.474   6.455
 8927POPC   C2B43964  31.363  11.492   6.755
 8927POPC   C3B43965  31.326  11.535   7.055
 8927POPC   C4B43966  31.314  11.520   7.355
 8928POPC   NC343967  29.915  32.221   5.555
 8928POPC   PO443968  29.875  32.295   5.855
 8928POPC   GL143969  29.961  32.297   6.155
 8928POPC   GL243970  29.791  32.255   6.155
 8928POPC   C1A43971  29.899  32.261   6.455
 8928POPC   D2A43972  29.948  32.203   6.755
 8928POPC   C3A43973  29.961  32.286   7.055
 8928POPC   C4A43974  29.899  32.242   7.355
 8928POPC   C1B43975  29.633  32.271   6.455
 8928POPC   C2B43976  29.623  32.274   6.755
 8928POPC   C3B43977  29.703  32.228   7.055
 8928POPC   C4B43978  29.709  32.218   7.355
 8929POPC   NC343979  30.685  22.892   5.555
 8929POPC   PO443980  30.715  22.916   5.855
 8929POPC   GL143981  30.680  22.897   6.155
 8929POPC   GL243982  30.749  23.039   6.155
 8929POPC   C1A43983  30.728  22.923   6.455
 8929POPC   D2A43984  30.653  22.916   6.755
 8929POPC   C3A43985  30.675  22.962   7.055
 8929POPC   C4A43986  30.677  22.965   7.355
 8929POPC   C1B43987  30.849  23.142   6.455
 8929POPC   C2B43988  30.827  23.124   6.755
 8929POPC   C3B43989  30.852  23.112   7.055
 8929POPC   C4B43990  30.881  23.102   7.355
 8930POPC   NC343991  29.152  38.430   5.555
 8930POPC   PO443992  29.180  38.412   5.855
 8930POPC   GL143993  29.119  38.493   6.155
 8930POPC   GL243994  29.031  38.389   6.155
 8930POPC   C1A43995  29.117  38.448   6.455
 8930POPC   D2A43996  29.118  38.420   6.755
 8930POPC   C3A43997  29.097  38.480   7.055
 8930POPC   C4A43998  29.162  38.478   7.355
 8930POPC   C1B43999  28.952  38.247   6.455
 8930POPC   C2B44000  29.004  38.284   6.755
 8930POPC   C3B44001  28.975  38.289   7.055
 8930POPC   C4B44002  28.948  38.307   7.355
 8931POPC   NC344003  17.490  15.946   5.555
 8931POPC   PO444004  17.498  15.912   5.855
 8931POPC   GL144005  17.538  15.973   6.155
 8931POPC   GL244006  17.446  15.896   6.155
 8931POPC   C1A44007  17.557  15.968   6.455
 8931POPC   D2A44008  17.534  15.956   6.755
 8931POPC   C3A44009  17.501  15.998   7.055
 8931POPC   C4A44010  17.535  15.980   7.355
 8931POPC   C1B44011  17.357  15.799   6.455
 8931POPC   C2B44012  17.397  15.746   6.755
 8931POPC   C3B44013  17.383  15.731   7.055
 8931POPC   C4B44014  17.314  15.747   7.355
 8932POPC   NC344015   3.496  43.151   5.555
 8932POPC   PO444016   3.538  43.124   5.855
 8932POPC   GL144017   3.508  43.150   6.155
 8932POPC   GL244018   3.567  43.038   6.155
 8932POPC   C1A44019   3.497  43.143   6.455
 8932POPC   D2A44020   3.493  43.086   6.755
 8932POPC   C3A44021   3.507  43.141   7.055
 8932POPC   C4A44022   3.565  43.097   7.355
 8932POPC   C1B44023   3.714  42.889   6.455
 8932POPC   C2B44024   3.637  42.937   6.755
 8932POPC   C3B44025   3.692  42.878   7.055
 8932POPC   C4B44026   3.662  42.885   7.355
 8933POPC   NC344027  28.331  43.898   5.555
 8933POPC   PO444028  28.418  43.847   5.855
 8933POPC   GL144029  28.372  43.864   6.155
 8933POPC   GL244030  28.255  43.859   6.155
 8933POPC   C1A44031  28.339  43.855   6.455
 8933POPC   D2A44032  28.352  43.933   6.755
 8933POPC   C3A44033  28.344  43.869   7.055
 8933POPC   C4A44034  28.382  43.931   7.355
 8933POPC   C1B44035  28.196  43.708   6.455
 8933POPC   C2B44036  28.136  43.710   6.755
 8933POPC   C3B44037  28.175  43.714   7.055
 8933POPC   C4B44038  28.127  43.759   7.355
 8934POPC   NC344039   5.847  37.639   5.555
 8934POPC   PO444040   5.912  37.632   5.855
 8934POPC   GL144041   5.850  37.675   6.155
 8934POPC   GL244042   5.952  37.583   6.155
 8934POPC   C1A44043   5.880  37.681   6.455
 8934POPC   D2A44044   5.871  37.658   6.755
 8934POPC   C3A44045   5.869  37.643   7.055
 8934POPC   C4A44046   5.868  37.659   7.355
 8934POPC   C1B44047   6.031  37.472   6.455
 8934POPC   C2B44048   6.055  37.466   6.755
 8934POPC   C3B44049   6.040  37.543   7.055
 8934POPC   C4B44050   6.030  37.481   7.355
 8935POPC   NC344051   7.414  22.131   5.555
 8935POPC   PO444052   7.418  22.210   5.855
 8935POPC   GL144053   7.419  22.156   6.155
 8935POPC   GL244054   7.256  22.195   6.155
 8935POPC   C1A44055   7.373  22.143   6.455
 8935POPC   D2A44056   7.450  22.160   6.755
 8935POPC   C3A44057   7.408  22.196   7.055
 8935POPC   C4A44058   7.371  22.138   7.355
 8935POPC   C1B44059   7.208  22.156   6.455
 8935POPC   C2B44060   7.206  22.225   6.755
 8935POPC   C3B44061   7.153  22.202   7.055
 8935POPC   C4B44062   7.209  22.198   7.355
 8936POPC   NC344063  10.531  37.703   5.555
 8936POPC   PO444064  10.531  37.729   5.855
 8936POPC   GL144065  10.475  37.685   6.155
 8936POPC   GL244066  10.501  37.543   6.155
 8936POPC   C1A44067  10.556  37.714   6.455
 8936POPC   D2A44068  10.569  37.631   6.755
 8936POPC   C3A44069  10.561  37.652   7.055
 8936POPC   C4A44070  10.495  37.643   7.355
 8936POPC   C1B44071  10.525  37.426   6.455
 8936POPC   C2B44072  10.541  37.422   6.755
 8936POPC   C3B44073  10.544  37.412   7.055
 8936POPC   C4B44074  10.510  37.428   7.355
 8937POPC   NC344075  19.827  29.171   5.555
 8937POPC   PO444076  19.855  29.184   5.855
 8937POPC   GL144077  19.824  29.178   6.155
 8937POPC   GL244078  19.821  29.318   6.155
 8937POPC   C1A44079  19.876  29.186   6.455
 8937POPC   D2A44080  19.848  29.166   6.755
 8937POPC   C3A44081  19.823  29.185   7.055
 8937POPC   C4A44082  19.835  29.189   7.355
 8937POPC   C1B44083  19.831  29.400   6.455
 8937POPC   C2B44084  19.870  29.436   6.755
 8937POPC   C3B44085  19.789  29.397   7.055
 8937POPC   C4B44086  19.839  29.431   7.355
 8938POPC   NC344087   5.113   8.167   5.555
 8938POPC   PO444088   5.062   8.171   5.855
 8938POPC   GL144089   5.084   8.222   6.155
 8938POPC   GL244090   4.945   8.098   6.155
 8938POPC   C1A44091   5.058   8.186   6.455
 8938POPC   D2A44092   5.075   8.213   6.755
 8938POPC   C3A44093   5.133   8.237   7.055
 8938POPC   C4A44094   5.088   8.211   7.355
 8938POPC   C1B44095   4.822   8.091   6.455
 8938POPC   C2B44096   4.835   8.101   6.755
 8938POPC   C3B44097   4.833   8.115   7.055
 8938POPC   C4B44098   4.883   8.118   7.355
 8939POPC   NC344099  14.413  11.349   5.555
 8939POPC   PO444100  14.398  11.290   5.855
 8939POPC   GL144101  14.437  11.284   6.155
 8939POPC   GL244102  14.416  11.134   6.155
 8939POPC   C1A44103  14.386  11.282   6.455
 8939POPC   D2A44104  14.419  11.328   6.755
 8939POPC   C3A44105  14.448  11.300   7.055
 8939POPC   C4A44106  14.423  11.289   7.355
 8939POPC   C1B44107  14.445  11.084   6.455
 8939POPC   C2B44108  14.470  11.014   6.755
 8939POPC   C3B44109  14.492  11.044   7.055
 8939POPC   C4B44110  14.453  11.074   7.355
 8940POPC   NC344111  44.678  43.126   5.555
 8940POPC   PO444112  44.701  43.142   5.855
 8940POPC   GL144113  44.621  43.126   6.155
 8940POPC   GL244114  44.700  42.943   6.155
 8940POPC   C1A44115  44.657  43.154   6.455
 8940POPC   D2A44116  44.706  43.076   6.755
 8940POPC   C3A44117  44.655  43.093   7.055
 8940POPC   C4A44118  44.649  43.149   7.355
 8940POPC   C1B44119  44.728  42.811   6.455
 8940POPC   C2B44120  44.661  42.848   6.755
 8940POPC   C3B44121  44.699  42.875   7.055
 8940POPC   C4B44122  44.644  42.874   7.355
 8941POPC   NC344123  41.551   7.379   5.555
 8941POPC   PO444124  41.556   7.467   5.855
 8941POPC   GL144125  41.518   7.447   6.155
 8941POPC   GL244126  41.421   7.432   6.155
 8941POPC   C1A44127  41.576   7.379   6.455
 8941POPC   D2A44128  41.595   7.431   6.755
 8941POPC   C3A44129  41.588   7.441   7.055
 8941POPC   C4A44130  41.536   7.397   7.355
 8941POPC   C1B44131  41.307   7.344   6.455
 8941POPC   C2B44132  41.316   7.384   6.755
 8941POPC   C3B44133  41.354   7.306   7.055
 8941POPC   C4B44134  41.307   7.394   7.355
 8942POPC   NC344135  36.947  35.375   5.555
 8942POPC   PO444136  36.893  35.382   5.855
 8942POPC   GL144137  36.877  35.352   6.155
 8942POPC   GL244138  36.827  35.278   6.155
 8942POPC   C1A44139  36.918  35.330   6.455
 8942POPC   D2A44140  36.919  35.398   6.755
 8942POPC   C3A44141  36.874  35.316   7.055
 8942POPC   C4A44142  36.860  35.370   7.355
 8942POPC   C1B44143  36.745  35.162   6.455
 8942POPC   C2B44144  36.793  35.119   6.755
 8942POPC   C3B44145  36.827  35.091   7.055
 8942POPC   C4B44146  36.818  35.094   7.355
 8943POPC   NC344147  11.327  29.908   5.555
 8943POPC   PO444148  11.284  29.878   5.855
 8943POPC   GL144149  11.274  29.938   6.155
 8943POPC   GL244150  11.216  29.802   6.155
 8943POPC   C1A44151  11.258  29.939   6.455
 8943POPC   D2A44152  11.256  29.910   6.755
 8943POPC   C3A44153  11.331  29.910   7.055
 8943POPC   C4A44154  11.330  29.936   7.355
 8943POPC   C1B44155  11.126  29.746   6.455
 8943POPC   C2B44156  11.098  29.819   6.755
 8943POPC   C3B44157  11.057  29.817   7.055
 8943POPC   C4B44158  11.138  29.763   7.355
 8944POPC   NC344159  34.537  39.199   5.555
 8944POPC   PO444160  34.562  39.198   5.855
 8944POPC   GL144161  34.563  39.248   6.155
 8944POPC   GL244162  34.540  39.118   6.155
 8944POPC   C1A44163  34.598  39.214   6.455
 8944POPC   D2A44164  34.614  39.249   6.755
 8944POPC   C3A44165  34.622  39.262   7.055
 8944POPC   C4A44166  34.607  39.264   7.355
 8944POPC   C1B44167  34.497  38.967   6.455
 8944POPC   C2B44168  34.483  39.040   6.755
 8944POPC   C3B44169  34.519  39.011   7.055
 8944POPC   C4B44170  34.519  38.954   7.355
 8945POPC   NC344171  19.879  33.055   5.555
 8945POPC   PO444172  19.838  33.014   5.855
 8945POPC   GL144173  19.872  33.011   6.155
 8945POPC   GL244174  19.913  32.969   6.155
 8945POPC   C1A44175  19.845  32.980   6.455
 8945POPC   D2A44176  19.802  33.006   6.755
 8945POPC   C3A44177  19.857  33.044   7.055
 8945POPC   C4A44178  19.805  32.995   7.355
 8945POPC   C1B44179  20.037  32.948   6.455
 8945POPC   C2B44180  20.043  32.913   6.755
 8945POPC   C3B44181  20.097  32.891   7.055
 8945POPC   C4B44182  20.039  32.895   7.355
 8946POPC   NC344183  38.442  27.589   5.555
 8946POPC   PO444184  38.464  27.606   5.855
 8946POPC   GL144185  38.462  27.551   6.155
 8946POPC   GL244186  38.307  27.550   6.155
 8946POPC   C1A44187  38.497  27.616   6.455
 8946POPC   D2A44188  38.462  27.616   6.755
 8946POPC   C3A44189  38.444  27.579   7.055
 8946POPC   C4A44190  38.461  27.605   7.355
 8946POPC   C1B44191  38.244  27.494   6.455
 8946POPC   C2B44192  38.275  27.485   6.755
 8946POPC   C3B44193  38.231  27.498   7.055
 8946POPC   C4B44194  38.214  27.419   7.355
 8947POPC   NC344195  15.976  16.777   5.555
 8947POPC   PO444196  15.955  16.767   5.855
 8947POPC   GL144197  15.953  16.710   6.155
 8947POPC   GL244198  16.014  16.870   6.155
 8947POPC   C1A44199  15.990  16.777   6.455
 8947POPC   D2A44200  15.922  16.764   6.755
 8947POPC   C3A44201  15.950  16.759   7.055
 8947POPC   C4A44202  15.986  16.754   7.355
 8947POPC   C1B44203  15.993  16.932   6.455
 8947POPC   C2B44204  16.055  16.968   6.755
 8947POPC   C3B44205  16.044  16.986   7.055
 8947POPC   C4B44206  16.005  17.012   7.355
 8948POPC   NC344207   0.471  29.877   5.555
 8948POPC   PO444208   0.437  29.947   5.855
 8948POPC   GL144209   0.394  29.883   6.155
 8948POPC   GL244210   0.314  29.894   6.155
 8948POPC   C1A44211   0.422  29.968   6.455
 8948POPC   D2A44212   0.479  29.919   6.755
 8948POPC   C3A44213   0.487  29.930   7.055
 8948POPC   C4A44214   0.451  29.948   7.355
 8948POPC   C1B44215   0.187  29.922   6.455
 8948POPC   C2B44216   0.217  29.886   6.755
 8948POPC   C3B44217   0.236  29.839   7.055
 8948POPC   C4B44218   0.179  29.894   7.355
 8949POPC   NC344219  42.383   1.995   5.555
 8949POPC   PO444220  42.331   1.994   5.855
 8949POPC   GL144221  42.309   2.018   6.155
 8949POPC   GL244222  42.285   1.858   6.155
 8949POPC   C1A44223  42.351   1.958   6.455
 8949POPC   D2A44224  42.376   2.023   6.755
 8949POPC   C3A44225  42.367   1.965   7.055
 8949POPC   C4A44226  42.331   1.982   7.355
 8949POPC   C1B44227  42.198   1.848   6.455
 8949POPC   C2B44228  42.182   1.830   6.755
 8949POPC   C3B44229  42.139   1.836   7.055
 8949POPC   C4B44230  42.121   1.831   7.355
 8950POPC   NC344231   1.173  19.076   5.555
 8950POPC   PO444232   1.242  19.070   5.855
 8950POPC   GL144233   1.217  19.029   6.155
 8950POPC   GL244234   1.200  19.197   6.155
 8950POPC   C1A44235   1.221  19.027   6.455
 8950POPC   D2A44236   1.239  19.011   6.755
 8950POPC   C3A44237   1.199  19.059   7.055
 8950POPC   C4A44238   1.240  19.011   7.355
 8950POPC   C1B44239   1.127  19.327   6.455
 8950POPC   C2B44240   1.153  19.251   6.755
 8950POPC   C3B44241   1.130  19.254   7.055
 8950POPC   C4B44242   1.104  19.313   7.355
 8951POPC   NC344243  33.787   5.874   5.555
 8951POPC   PO444244  33.793   5.902   5.855
 8951POPC   GL144245  33.814   5.847   6.155
 8951POPC   GL244246  33.856   5.953   6.155
 8951POPC   C1A44247  33.811   5.840   6.455
 8951POPC   D2A44248  33.794   5.821   6.755
 8951POPC   C3A44249  33.794   5.904   7.055
 8951POPC   C4A44250  33.752   5.890   7.355
 8951POPC   C1B44251  33.956   6.117   6.455
 8951POPC   C2B44252  33.919   6.094   6.755
 8951POPC   C3B44253  33.870   6.127   7.055
 8951POPC   C4B44254  33.899   6.062   7.355
 8952POPC   NC344255  19.051   5.120   5.555
 8952POPC   PO444256  19.100   5.067   5.855
 8952POPC   GL144257  19.016   5.054   6.155
 8952POPC   GL244258  19.194   5.035   6.155
 8952POPC   C1A44259  19.015   5.093   6.455
 8952POPC   D2A44260  19.097   5.127   6.755
 8952POPC   C3A44261  19.032   5.110   7.055
 8952POPC   C4A44262  19.041   5.133   7.355
 8952POPC   C1B44263  19.320   5.057   6.455
 8952POPC   C2B44264  19.324   4.998   6.755
 8952POPC   C3B44265  19.278   5.037   7.055
 8952POPC   C4B44266  19.251   5.056   7.355
 8953POPC   NC344267   5.128  10.533   5.555
 8953POPC   PO444268   5.141  10.494   5.855
 8953POPC   GL144269   5.060  10.482   6.155
 8953POPC   GL244270   5.140  10.411   6.155
 8953POPC   C1A44271   5.044  10.509   6.455
 8953POPC   D2A44272   5.107  10.504   6.755
 8953POPC   C3A44273   5.085  10.479   7.055
 8953POPC   C4A44274   5.108  10.532   7.355
 8953POPC   C1B44275   5.191  10.296   6.455
 8953POPC   C2B44276   5.185  10.358   6.755
 8953POPC   C3B44277   5.274  10.337   7.055
 8953POPC   C4B44278   5.224  10.288   7.355
 8954POPC   NC344279   2.767   8.954   5.555
 8954POPC   PO444280   2.725   8.953   5.855
 8954POPC   GL144281   2.804   8.962   6.155
 8954POPC   GL244282   2.641   9.083   6.155
 8954POPC   C1A44283   2.815   8.956   6.455
 8954POPC   D2A44284   2.795   8.976   6.755
 8954POPC   C3A44285   2.785   8.942   7.055
 8954POPC   C4A44286   2.784   8.932   7.355
 8954POPC   C1B44287   2.539   9.155   6.455
 8954POPC   C2B44288   2.555   9.124   6.755
 8954POPC   C3B44289   2.544   9.144   7.055
 8954POPC   C4B44290   2.540   9.173   7.355
 8955POPC   NC344291  22.157  26.044   5.555
 8955POPC   PO444292  22.165  26.018   5.855
 8955POPC   GL144293  22.121  26.012   6.155
 8955POPC   GL244294  22.146  26.165   6.155
 8955POPC   C1A44295  22.142  26.022   6.455
 8955POPC   D2A44296  22.112  26.076   6.755
 8955POPC   C3A44297  22.181  26.038   7.055
 8955POPC   C4A44298  22.151  26.023   7.355
 8955POPC   C1B44299  22.039  26.265   6.455
 8955POPC   C2B44300  22.112  26.275   6.755
 8955POPC   C3B44301  22.096  26.319   7.055
 8955POPC   C4B44302  22.092  26.301   7.355
 8956POPC   NC344303  14.360   5.063   5.555
 8956POPC   PO444304  14.387   5.062   5.855
 8956POPC   GL144305  14.403   5.132   6.155
 8956POPC   GL244306  14.496   5.236   6.155
 8956POPC   C1A44307  14.381   5.128   6.455
 8956POPC   D2A44308  14.424   5.091   6.755
 8956POPC   C3A44309  14.417   5.142   7.055
 8956POPC   C4A44310  14.428   5.062   7.355
 8956POPC   C1B44311  14.528   5.263   6.455
 8956POPC   C2B44312  14.522   5.325   6.755
 8956POPC   C3B44313  14.554   5.327   7.055
 8956POPC   C4B44314  14.544   5.271   7.355
 8957POPC   NC344315   5.048   3.558   5.555
 8957POPC   PO444316   5.086   3.521   5.855
 8957POPC   GL144317   5.087   3.505   6.155
 8957POPC   GL244318   5.031   3.602   6.155
 8957POPC   C1A44319   5.129   3.530   6.455
 8957POPC   D2A44320   5.078   3.541   6.755
 8957POPC   C3A44321   5.098   3.545   7.055
 8957POPC   C4A44322   5.109   3.514   7.355
 8957POPC   C1B44323   4.909   3.780   6.455
 8957POPC   C2B44324   4.987   3.785   6.755
 8957POPC   C3B44325   4.925   3.697   7.055
 8957POPC   C4B44326   4.932   3.743   7.355
 8958POPC   NC344327  11.277  21.377   5.555
 8958POPC   PO444328  11.335  21.385   5.855
 8958POPC   GL144329  11.265  21.382   6.155
 8958POPC   GL244330  11.442  21.462   6.155
 8958POPC   C1A44331  11.300  21.362   6.455
 8958POPC   D2A44332  11.332  21.399   6.755
 8958POPC   C3A44333  11.288  21.344   7.055
 8958POPC   C4A44334  11.287  21.353   7.355
 8958POPC   C1B44335  11.464  21.587   6.455
 8958POPC   C2B44336  11.507  21.515   6.755
 8958POPC   C3B44337  11.462  21.570   7.055
 8958POPC   C4B44338  11.520  21.526   7.355
 8959POPC   NC344339   1.941   4.362   5.555
 8959POPC   PO444340   2.001   4.315   5.855
 8959POPC   GL144341   2.010   4.298   6.155
 8959POPC   GL244342   2.152   4.350   6.155
 8959POPC   C1A44343   1.940   4.337   6.455
 8959POPC   D2A44344   2.013   4.338   6.755
 8959POPC   C3A44345   1.950   4.331   7.055
 8959POPC   C4A44346   1.954   4.286   7.355
 8959POPC   C1B44347   2.175   4.449   6.455
 8959POPC   C2B44348   2.209   4.415   6.755
 8959POPC   C3B44349   2.187   4.355   7.055
 8959POPC   C4B44350   2.243   4.450   7.355
 8960POPC   NC344351   9.707  15.193   5.555
 8960POPC   PO444352   9.744  15.211   5.855
 8960POPC   GL144353   9.766  15.207   6.155
 8960POPC   GL244354   9.715  15.050   6.155
 8960POPC   C1A44355   9.708  15.205   6.455
 8960POPC   D2A44356   9.753  15.219   6.755
 8960POPC   C3A44357   9.753  15.142   7.055
 8960POPC   C4A44358   9.760  15.186   7.355
 8960POPC   C1B44359   9.658  14.934   6.455
 8960POPC   C2B44360   9.672  14.970   6.755
 8960POPC   C3B44361   9.656  14.984   7.055
 8960POPC   C4B44362   9.652  14.923   7.355
 8961POPC   NC344363  27.570  35.393   5.555
 8961POPC   PO444364  27.570  35.389   5.855
 8961POPC   GL144365  27.641  35.328   6.155
 8961POPC   GL244366  27.528  35.437   6.155
 8961POPC   C1A44367  27.601  35.334   6.455
 8961POPC   D2A44368  27.595  35.320   6.755
 8961POPC   C3A44369  27.597  35.331   7.055
 8961POPC   C4A44370  27.616  35.402   7.355
 8961POPC   C1B44371  27.502  35.613   6.455
 8961POPC   C2B44372  27.430  35.590   6.755
 8961POPC   C3B44373  27.451  35.578   7.055
 8961POPC   C4B44374  27.476  35.537   7.355
 8962POPC   NC344375  32.216  12.894   5.555
 8962POPC   PO444376  32.209  12.823   5.855
 8962POPC   GL144377  32.230  12.898   6.155
 8962POPC   GL244378  32.331  12.932   6.155
 8962POPC   C1A44379  32.234  12.821   6.455
 8962POPC   D2A44380  32.282  12.865   6.755
 8962POPC   C3A44381  32.281  12.889   7.055
 8962POPC   C4A44382  32.288  12.894   7.355
 8962POPC   C1B44383  32.528  12.955   6.455
 8962POPC   C2B44384  32.522  12.901   6.755
 8962POPC   C3B44385  32.495  12.908   7.055
 8962POPC   C4B44386  32.438  12.985   7.355
 8963POPC   NC344387  27.591  11.348   5.555
 8963POPC   PO444388  27.571  11.267   5.855
 8963POPC   GL144389  27.578  11.258   6.155
 8963POPC   GL244390  27.426  11.324   6.155
 8963POPC   C1A44391  27.600  11.341   6.455
 8963POPC   D2A44392  27.623  11.261   6.755
 8963POPC   C3A44393  27.564  11.281   7.055
 8963POPC   C4A44394  27.566  11.325   7.355
 8963POPC   C1B44395  27.379  11.269   6.455
 8963POPC   C2B44396  27.295  11.281   6.755
 8963POPC   C3B44397  27.311  11.313   7.055
 8963POPC   C4B44398  27.370  11.270   7.355
 8964POPC   NC344399  39.280   1.217   5.555
 8964POPC   PO444400  39.233   1.174   5.855
 8964POPC   GL144401  39.220   1.215   6.155
 8964POPC   GL244402  39.113   1.116   6.155
 8964POPC   C1A44403  39.232   1.257   6.455
 8964POPC   D2A44404  39.185   1.243   6.755
 8964POPC   C3A44405  39.202   1.263   7.055
 8964POPC   C4A44406  39.271   1.262   7.355
 8964POPC   C1B44407  39.024   1.064   6.455
 8964POPC   C2B44408  39.021   0.980   6.755
 8964POPC   C3B44409  39.088   1.068   7.055
 8964POPC   C4B44410  39.092   1.011   7.355
 8965POPC   NC344411  13.640  14.358   5.555
 8965POPC   PO444412  13.667  14.439   5.855
 8965POPC   GL144413  13.583  14.359   6.155
 8965POPC   GL244414  13.668  14.491   6.155
 8965POPC   C1A44415  13.634  14.400   6.455
 8965POPC   D2A44416  13.665  14.412   6.755
 8965POPC   C3A44417  13.578  14.416   7.055
 8965POPC   C4A44418  13.675  14.363   7.355
 8965POPC   C1B44419  13.654  14.659   6.455
 8965POPC   C2B44420  13.625  14.679   6.755
 8965POPC   C3B44421  13.607  14.603   7.055
 8965POPC   C4B44422  13.676  14.638   7.355
 8966POPC   NC344423  22.977  40.811   5.555
 8966POPC   PO444424  22.923  40.736   5.855
 8966POPC   GL144425  22.964  40.814   6.155
 8966POPC   GL244426  22.928  40.703   6.155
 8966POPC   C1A44427  22.951  40.798   6.455
 8966POPC   D2A44428  22.943  40.785   6.755
 8966POPC   C3A44429  22.905  40.786   7.055
 8966POPC   C4A44430  22.890  40.825   7.355
 8966POPC   C1B44431  22.791  40.563   6.455
 8966POPC   C2B44432  22.824  40.549   6.755
 8966POPC   C3B44433  22.860  40.587   7.055
 8966POPC   C4B44434  22.783  40.540   7.355
 8967POPC   NC344435   2.806  33.044   5.555
 8967POPC   PO444436   2.752  33.034   5.855
 8967POPC   GL144437   2.811  32.987   6.155
 8967POPC   GL244438   2.851  33.171   6.155
 8967POPC   C1A44439   2.811  33.021   6.455
 8967POPC   D2A44440   2.719  33.044   6.755
 8967POPC   C3A44441   2.761  33.058   7.055
 8967POPC   C4A44442   2.786  33.070   7.355
 8967POPC   C1B44443   2.931  33.253   6.455
 8967POPC   C2B44444   2.924  33.268   6.755
 8967POPC   C3B44445   2.849  33.267   7.055
 8967POPC   C4B44446   2.933  33.273   7.355
 8968POPC   NC344447   5.117  22.175   5.555
 8968POPC   PO444448   5.139  22.145   5.855
 8968POPC   GL144449   5.056  22.146   6.155
 8968POPC   GL244450   5.069  22.243   6.155
 8968POPC   C1A44451   5.053  22.145   6.455
 8968POPC   D2A44452   5.096  22.197   6.755
 8968POPC   C3A44453   5.103  22.122   7.055
 8968POPC   C4A44454   5.071  22.120   7.355
 8968POPC   C1B44455   5.029  22.399   6.455
 8968POPC   C2B44456   5.014  22.421   6.755
 8968POPC   C3B44457   5.061  22.446   7.055
 8968POPC   C4B44458   4.991  22.434   7.355
 8969POPC   NC344459  16.773  22.967   5.555
 8969POPC   PO444460  16.756  22.920   5.855
 8969POPC   GL144461  16.704  22.940   6.155
 8969POPC   GL244462  16.607  22.898   6.155
 8969POPC   C1A44463  16.766  22.917   6.455
 8969POPC   D2A44464  16.775  22.956   6.755
 8969POPC   C3A44465  16.702  22.888   7.055
 8969POPC   C4A44466  16.772  22.978   7.355
 8969POPC   C1B44467  16.572  22.813   6.455
 8969POPC   C2B44468  16.530  22.816   6.755
 8969POPC   C3B44469  16.555  22.783   7.055
 8969POPC   C4B44470  16.519  22.791   7.355
 8970POPC   NC344471  40.814   7.399   5.555
 8970POPC   PO444472  40.802   7.389   5.855
 8970POPC   GL144473  40.787   7.433   6.155
 8970POPC   GL244474  40.937   7.430   6.155
 8970POPC   C1A44475  40.736   7.401   6.455
 8970POPC   D2A44476  40.752   7.434   6.755
 8970POPC   C3A44477  40.821   7.413   7.055
 8970POPC   C4A44478  40.770   7.456   7.355
 8970POPC   C1B44479  41.055   7.384   6.455
 8970POPC   C2B44480  41.070   7.377   6.755
 8970POPC   C3B44481  40.990   7.367   7.055
 8970POPC   C4B44482  41.034   7.420   7.355
 8971POPC   NC344483  41.536  36.132   5.555
 8971POPC   PO444484  41.576  36.160   5.855
 8971POPC   GL144485  41.578  36.113   6.155
 8971POPC   GL244486  41.651  36.042   6.155
 8971POPC   C1A44487  41.603  36.130   6.455
 8971POPC   D2A44488  41.515  36.090   6.755
 8971POPC   C3A44489  41.572  36.115   7.055
 8971POPC   C4A44490  41.540  36.109   7.355
 8971POPC   C1B44491  41.770  36.025   6.455
 8971POPC   C2B44492  41.771  35.999   6.755
 8971POPC   C3B44493  41.765  36.036   7.055
 8971POPC   C4B44494  41.806  36.059   7.355
 8972POPC   NC344495  19.046   8.931   5.555
 8972POPC   PO444496  19.062   8.961   5.855
 8972POPC   GL144497  19.075   9.008   6.155
 8972POPC   GL244498  19.181   9.087   6.155
 8972POPC   C1A44499  19.082   8.943   6.455
 8972POPC   D2A44500  19.056   8.968   6.755
 8972POPC   C3A44501  19.086   8.996   7.055
 8972POPC   C4A44502  19.046   9.001   7.355
 8972POPC   C1B44503  19.288   9.125   6.455
 8972POPC   C2B44504  19.264   9.120   6.755
 8972POPC   C3B44505  19.209   9.151   7.055
 8972POPC   C4B44506  19.218   9.180   7.355
 8973POPC   NC344507  12.123  20.567   5.555
 8973POPC   PO444508  12.036  20.589   5.855
 8973POPC   GL144509  12.069  20.563   6.155
 8973POPC   GL244510  12.064  20.451   6.155
 8973POPC   C1A44511  12.062  20.560   6.455
 8973POPC   D2A44512  12.063  20.598   6.755
 8973POPC   C3A44513  12.100  20.590   7.055
 8973POPC   C4A44514  12.080  20.635   7.355
 8973POPC   C1B44515  12.087  20.341   6.455
 8973POPC   C2B44516  12.126  20.336   6.755
 8973POPC   C3B44517  12.135  20.349   7.055
 8973POPC   C4B44518  12.114  20.413   7.355
 8974POPC   NC344519   8.226  11.285   5.555
 8974POPC   PO444520   8.180  11.306   5.855
 8974POPC   GL144521   8.214  11.336   6.155
 8974POPC   GL244522   8.050  11.264   6.155
 8974POPC   C1A44523   8.160  11.311   6.455
 8974POPC   D2A44524   8.230  11.291   6.755
 8974POPC   C3A44525   8.219  11.262   7.055
 8974POPC   C4A44526   8.220  11.300   7.355
 8974POPC   C1B44527   7.991  11.291   6.455
 8974POPC   C2B44528   7.964  11.285   6.755
 8974POPC   C3B44529   7.898  11.328   7.055
 8974POPC   C4B44530   7.959  11.348   7.355
 8975POPC   NC344531   1.168  37.665   5.555
 8975POPC   PO444532   1.261  37.712   5.855
 8975POPC   GL144533   1.232  37.687   6.155
 8975POPC   GL244534   1.280  37.787   6.155
 8975POPC   C1A44535   1.223  37.692   6.455
 8975POPC   D2A44536   1.242  37.721   6.755
 8975POPC   C3A44537   1.261  37.658   7.055
 8975POPC   C4A44538   1.225  37.657   7.355
 8975POPC   C1B44539   1.349  37.906   6.455
 8975POPC   C2B44540   1.319  37.942   6.755
 8975POPC   C3B44541   1.265  37.884   7.055
 8975POPC   C4B44542   1.270  37.917   7.355
 8976POPC   NC344543  40.783  39.208   5.555
 8976POPC   PO444544  40.826  39.181   5.855
 8976POPC   GL144545  40.762  39.192   6.155
 8976POPC   GL244546  40.738  39.335   6.155
 8976POPC   C1A44547  40.757  39.217   6.455
 8976POPC   D2A44548  40.770  39.216   6.755
 8976POPC   C3A44549  40.766  39.250   7.055
 8976POPC   C4A44550  40.805  39.257   7.355
 8976POPC   C1B44551  40.620  39.410   6.455
 8976POPC   C2B44552  40.628  39.395   6.755
 8976POPC   C3B44553  40.619  39.452   7.055
 8976POPC   C4B44554  40.623  39.408   7.355
 8977POPC   NC344555  42.321  31.435   5.555
 8977POPC   PO444556  42.361  31.472   5.855
 8977POPC   GL144557  42.316  31.427   6.155
 8977POPC   GL244558  42.374  31.411   6.155
 8977POPC   C1A44559  42.346  31.483   6.455
 8977POPC   D2A44560  42.315  31.492   6.755
 8977POPC   C3A44561  42.382  31.470   7.055
 8977POPC   C4A44562  42.313  31.520   7.355
 8977POPC   C1B44563  42.531  31.279   6.455
 8977POPC   C2B44564  42.449  31.306   6.755
 8977POPC   C3B44565  42.537  31.262   7.055
 8977POPC   C4B44566  42.451  31.248   7.355
 8978POPC   NC344567  20.637   7.454   5.555
 8978POPC   PO444568  20.594   7.378   5.855
 8978POPC   GL144569  20.568   7.407   6.155
 8978POPC   GL244570  20.721   7.499   6.155
 8978POPC   C1A44571  20.614   7.372   6.455
 8978POPC   D2A44572  20.658   7.413   6.755
 8978POPC   C3A44573  20.600   7.460   7.055
 8978POPC   C4A44574  20.587   7.452   7.355
 8978POPC   C1B44575  20.804   7.480   6.455
 8978POPC   C2B44576  20.853   7.488   6.755
 8978POPC   C3B44577  20.835   7.533   7.055
 8978POPC   C4B44578  20.902   7.436   7.355
 8979POPC   NC344579  26.841  11.275   5.555
 8979POPC   PO444580  26.839  11.273   5.855
 8979POPC   GL144581  26.814  11.315   6.155
 8979POPC   GL244582  26.813  11.415   6.155
 8979POPC   C1A44583  26.840  11.311   6.455
 8979POPC   D2A44584  26.775  11.273   6.755
 8979POPC   C3A44585  26.842  11.303   7.055
 8979POPC   C4A44586  26.837  11.342   7.355
 8979POPC   C1B44587  26.737  11.577   6.455
 8979POPC   C2B44588  26.773  11.517   6.755
 8979POPC   C3B44589  26.683  11.527   7.055
 8979POPC   C4B44590  26.725  11.552   7.355
 8980POPC   NC344591  22.959  10.541   5.555
 8980POPC   PO444592  22.939  10.486   5.855
 8980POPC   GL144593  22.948  10.488   6.155
 8980POPC   GL244594  23.109  10.580   6.155
 8980POPC   C1A44595  22.927  10.511   6.455
 8980POPC   D2A44596  22.980  10.531   6.755
 8980POPC   C3A44597  22.904  10.543   7.055
 8980POPC   C4A44598  22.961  10.476   7.355
 8980POPC   C1B44599  23.184  10.506   6.455
 8980POPC   C2B44600  23.228  10.556   6.755
 8980POPC   C3B44601  23.164  10.564   7.055
 8980POPC   C4B44602  23.139  10.518   7.355
 8981POPC   NC344603  19.869  38.474   5.555
 8981POPC   PO444604  19.843  38.479   5.855
 8981POPC   GL144605  19.874  38.497   6.155
 8981POPC   GL244606  19.721  38.391   6.155
 8981POPC   C1A44607  19.794  38.454   6.455
 8981POPC   D2A44608  19.844  38.435   6.755
 8981POPC   C3A44609  19.818  38.500   7.055
 8981POPC   C4A44610  19.848  38.409   7.355
 8981POPC   C1B44611  19.619  38.372   6.455
 8981POPC   C2B44612  19.600  38.464   6.755
 8981POPC   C3B44613  19.561  38.421   7.055
 8981POPC   C4B44614  19.630  38.397   7.355
 8982POPC   NC344615  35.304  29.900   5.555
 8982POPC   PO444616  35.346  29.897   5.855
 8982POPC   GL144617  35.323  29.899   6.155
 8982POPC   GL244618  35.246  30.020   6.155
 8982POPC   C1A44619  35.376  29.887   6.455
 8982POPC   D2A44620  35.337  29.971   6.755
 8982POPC   C3A44621  35.336  29.945   7.055
 8982POPC   C4A44622  35.357  29.931   7.355
 8982POPC   C1B44623  35.094  30.073   6.455
 8982POPC   C2B44624  35.146  30.005   6.755
 8982POPC   C3B44625  35.098  30.023   7.055
 8982POPC   C4B44626  35.090  30.070   7.355
 8983POPC   NC344627  32.293  19.863   5.555
 8983POPC   PO444628  32.248  19.880   5.855
 8983POPC   GL144629  32.293  19.858   6.155
 8983POPC   GL244630  32.351  19.852   6.155
 8983POPC   C1A44631  32.199  19.839   6.455
 8983POPC   D2A44632  32.257  19.879   6.755
 8983POPC   C3A44633  32.225  19.818   7.055
 8983POPC   C4A44634  32.278  19.870   7.355
 8983POPC   C1B44635  32.503  19.978   6.455
 8983POPC   C2B44636  32.477  19.983   6.755
 8983POPC   C3B44637  32.508  19.936   7.055
 8983POPC   C4B44638  32.430  19.993   7.355
 8984POPC   NC344639   0.462  43.861   5.555
 8984POPC   PO444640   0.411  43.932   5.855
 8984POPC   GL144641   0.404  43.892   6.155
 8984POPC   GL244642   0.602  43.923   6.155
 8984POPC   C1A44643   0.454  43.845   6.455
 8984POPC   D2A44644   0.441  43.870   6.755
 8984POPC   C3A44645   0.449  43.866   7.055
 8984POPC   C4A44646   0.434  43.912   7.355
 8984POPC   C1B44647   0.723  43.901   6.455
 8984POPC   C2B44648   0.704  43.894   6.755
 8984POPC   C3B44649   0.719  43.939   7.055
 8984POPC   C4B44650   0.692  43.902   7.355
 8985POPC   NC344651  29.183  34.592   5.555
 8985POPC   PO444652  29.190  34.615   5.855
 8985POPC   GL144653  29.120  34.621   6.155
 8985POPC   GL244654  29.304  34.571   6.155
 8985POPC   C1A44655  29.166  34.576   6.455
 8985POPC   D2A44656  29.114  34.617   6.755
 8985POPC   C3A44657  29.173  34.613   7.055
 8985POPC   C4A44658  29.152  34.541   7.355
 8985POPC   C1B44659  29.430  34.555   6.455
 8985POPC   C2B44660  29.400  34.528   6.755
 8985POPC   C3B44661  29.443  34.607   7.055
 8985POPC   C4B44662  29.350  34.557   7.355
 8986POPC   NC344663  34.613  12.849   5.555
 8986POPC   PO444664  34.575  12.888   5.855
 8986POPC   GL144665  34.597  12.863   6.155
 8986POPC   GL244666  34.687  12.716   6.155
 8986POPC   C1A44667  34.539  12.896   6.455
 8986POPC   D2A44668  34.566  12.834   6.755
 8986POPC   C3A44669  34.547  12.836   7.055
 8986POPC   C4A44670  34.538  12.871   7.355
 8986POPC   C1B44671  34.742  12.620   6.455
 8986POPC   C2B44672  34.778  12.696   6.755
 8986POPC   C3B44673  34.782  12.682   7.055
 8986POPC   C4B44674  34.759  12.675   7.355
 8987POPC   NC344675   1.165  30.729   5.555
 8987POPC   PO444676   1.172  30.670   5.855
 8987POPC   GL144677   1.202  30.684   6.155
 8987POPC   GL244678   1.250  30.600   6.155
 8987POPC   C1A44679   1.194  30.738   6.455
 8987POPC   D2A44680   1.188  30.659   6.755
 8987POPC   C3A44681   1.224  30.732   7.055
 8987POPC   C4A44682   1.218  30.710   7.355
 8987POPC   C1B44683   1.289  30.475   6.455
 8987POPC   C2B44684   1.260  30.506   6.755
 8987POPC   C3B44685   1.265  30.471   7.055
 8987POPC   C4B44686   1.264  30.445   7.355
 8988POPC   NC344687   4.366  39.186   5.555
 8988POPC   PO444688   4.298  39.186   5.855
 8988POPC   GL144689   4.354  39.253   6.155
 8988POPC   GL244690   4.375  39.159   6.155
 8988POPC   C1A44691   4.306  39.227   6.455
 8988POPC   D2A44692   4.343  39.232   6.755
 8988POPC   C3A44693   4.335  39.273   7.055
 8988POPC   C4A44694   4.330  39.275   7.355
 8988POPC   C1B44695   4.478  39.009   6.455
 8988POPC   C2B44696   4.495  39.013   6.755
 8988POPC   C3B44697   4.492  39.068   7.055
 8988POPC   C4B44698   4.490  39.042   7.355
 8989POPC   NC344699   1.180  39.960   5.555
 8989POPC   PO444700   1.214  40.039   5.855
 8989POPC   GL144701   1.211  39.962   6.155
 8989POPC   GL244702   1.084  40.134   6.155
 8989POPC   C1A44703   1.169  39.964   6.455
 8989POPC   D2A44704   1.179  40.050   6.755
 8989POPC   C3A44705   1.237  39.975   7.055
 8989POPC   C4A44706   1.260  39.977   7.355
 8989POPC   C1B44707   1.060  40.130   6.455
 8989POPC   C2B44708   1.031  40.155   6.755
 8989POPC   C3B44709   1.006  40.161   7.055
 8989POPC   C4B44710   0.994  40.205   7.355
 8990POPC   NC344711  15.962  24.531   5.555
 8990POPC   PO444712  15.934  24.479   5.855
 8990POPC   GL144713  15.939  24.516   6.155
 8990POPC   GL244714  15.837  24.524   6.155
 8990POPC   C1A44715  16.002  24.440   6.455
 8990POPC   D2A44716  15.941  24.520   6.755
 8990POPC   C3A44717  15.909  24.489   7.055
 8990POPC   C4A44718  15.950  24.531   7.355
 8990POPC   C1B44719  15.713  24.636   6.455
 8990POPC   C2B44720  15.742  24.624   6.755
 8990POPC   C3B44721  15.776  24.607   7.055
 8990POPC   C4B44722  15.785  24.625   7.355
 8991POPC   NC344723  24.486  20.636   5.555
 8991POPC   PO444724  24.491  20.598   5.855
 8991POPC   GL144725  24.498  20.588   6.155
 8991POPC   GL244726  24.579  20.741   6.155
 8991POPC   C1A44727  24.475  20.609   6.455
 8991POPC   D2A44728  24.448  20.606   6.755
 8991POPC   C3A44729  24.486  20.616   7.055
 8991POPC   C4A44730  24.513  20.574   7.355
 8991POPC   C1B44731  24.530  20.811   6.455
 8991POPC   C2B44732  24.563  20.887   6.755
 8991POPC   C3B44733  24.569  20.883   7.055
 8991POPC   C4B44734  24.592  20.873   7.355
 8992POPC   NC344735  11.319   2.034   5.555
 8992POPC   PO444736  11.255   1.955   5.855
 8992POPC   GL144737  11.334   1.964   6.155
 8992POPC   GL244738  11.249   1.891   6.155
 8992POPC   C1A44739  11.327   1.963   6.455
 8992POPC   D2A44740  11.269   1.977   6.755
 8992POPC   C3A44741  11.268   2.035   7.055
 8992POPC   C4A44742  11.300   2.038   7.355
 8992POPC   C1B44743  11.333   1.692   6.455
 8992POPC   C2B44744  11.277   1.779   6.755
 8992POPC   C3B44745  11.293   1.778   7.055
 8992POPC   C4B44746  11.309   1.692   7.355
 8993POPC   NC344747  28.355  18.303   5.555
 8993POPC   PO444748  28.367  18.312   5.855
 8993POPC   GL144749  28.374  18.288   6.155
 8993POPC   GL244750  28.485  18.212   6.155
 8993POPC   C1A44751  28.331  18.263   6.455
 8993POPC   D2A44752  28.355  18.272   6.755
 8993POPC   C3A44753  28.378  18.286   7.055
 8993POPC   C4A44754  28.385  18.297   7.355
 8993POPC   C1B44755  28.640  18.201   6.455
 8993POPC   C2B44756  28.638  18.184   6.755
 8993POPC   C3B44757  28.607  18.140   7.055
 8993POPC   C4B44758  28.637  18.180   7.355
 8994POPC   NC344759   5.117   5.094   5.555
 8994POPC   PO444760   5.065   5.068   5.855
 8994POPC   GL144761   5.062   5.109   6.155
 8994POPC   GL244762   5.064   4.988   6.155
 8994POPC   C1A44763   5.049   5.083   6.455
 8994POPC   D2A44764   5.134   5.067   6.755
 8994POPC   C3A44765   5.062   5.094   7.055
 8994POPC   C4A44766   5.129   5.117   7.355
 8994POPC   C1B44767   5.083   4.883   6.455
 8994POPC   C2B44768   5.057   4.892   6.755
 8994POPC   C3B44769   5.093   4.820   7.055
 8994POPC   C4B44770   5.080   4.851   7.355
 8995POPC   NC344771  24.478  32.258   5.555
 8995POPC   PO444772  24.491  32.232   5.855
 8995POPC   GL144773  24.454  32.293   6.155
 8995POPC   GL244774  24.363  32.351   6.155
 8995POPC   C1A44775  24.540  32.281   6.455
 8995POPC   D2A44776  24.471  32.280   6.755
 8995POPC   C3A44777  24.510  32.241   7.055
 8995POPC   C4A44778  24.455  32.273   7.355
 8995POPC   C1B44779  24.331  32.435   6.455
 8995POPC   C2B44780  24.333  32.406   6.755
 8995POPC   C3B44781  24.235  32.371   7.055
 8995POPC   C4B44782  24.247  32.434   7.355
 8996POPC   NC344783  43.145  40.042   5.555
 8996POPC   PO444784  43.126  40.021   5.855
 8996POPC   GL144785  43.092  40.021   6.155
 8996POPC   GL244786  43.092  39.851   6.155
 8996POPC   C1A44787  43.073  40.022   6.455
 8996POPC   D2A44788  43.108  40.052   6.755
 8996POPC   C3A44789  43.140  39.987   7.055
 8996POPC   C4A44790  43.128  39.967   7.355
 8996POPC   C1B44791  43.101  39.784   6.455
 8996POPC   C2B44792  43.122  39.799   6.755
 8996POPC   C3B44793  43.071  39.769   7.055
 8996POPC   C4B44794  43.109  39.712   7.355
 8997POPC   NC344795   9.759  20.653   5.555
 8997POPC   PO444796   9.739  20.622   5.855
 8997POPC   GL144797   9.722  20.648   6.155
 8997POPC   GL244798   9.818  20.719   6.155
 8997POPC   C1A44799   9.728  20.568   6.455
 8997POPC   D2A44800   9.756  20.619   6.755
 8997POPC   C3A44801   9.765  20.630   7.055
 8997POPC   C4A44802   9.768  20.600   7.355
 8997POPC   C1B44803   9.748  20.897   6.455
 8997POPC   C2B44804   9.751  20.850   6.755
 8997POPC   C3B44805   9.795  20.867   7.055
 8997POPC   C4B44806   9.812  20.825   7.355
 8998POPC   NC344807  31.480   8.205   5.555
 8998POPC   PO444808  31.445   8.201   5.855
 8998POPC   GL144809  31.507   8.223   6.155
 8998POPC   GL244810  31.354   8.149   6.155
 8998POPC   C1A44811  31.489   8.179   6.455
 8998POPC   D2A44812  31.424   8.163   6.755
 8998POPC   C3A44813  31.426   8.232   7.055
 8998POPC   C4A44814  31.482   8.158   7.355
 8998POPC   C1B44815  31.283   8.050   6.455
 8998POPC   C2B44816  31.228   8.099   6.755
 8998POPC   C3B44817  31.227   8.107   7.055
 8998POPC   C4B44818  31.239   8.105   7.355
 8999POPC   NC344819   8.945  13.598   5.555
 8999POPC   PO444820   9.004  13.662   5.855
 8999POPC   GL144821   9.013  13.578   6.155
 8999POPC   GL244822   8.955  13.728   6.155
 8999POPC   C1A44823   8.962  13.630   6.455
 8999POPC   D2A44824   8.940  13.589   6.755
 8999POPC   C3A44825   8.955  13.633   7.055
 8999POPC   C4A44826   8.985  13.647   7.355
 8999POPC   C1B44827   8.907  13.864   6.455
 8999POPC   C2B44828   8.911  13.904   6.755
 8999POPC   C3B44829   8.885  13.843   7.055
 8999POPC   C4B44830   8.904  13.863   7.355
 9000POPC   NC344831  22.986  23.704   5.555
 9000POPC   PO444832  22.910  23.694   5.855
 9000POPC   GL144833  22.959  23.746   6.155
 9000POPC   GL244834  22.994  23.591   6.155
 9000POPC   C1A44835  22.914  23.762   6.455
 9000POPC   D2A44836  22.918  23.736   6.755
 9000POPC   C3A44837  22.938  23.715   7.055
 9000POPC   C4A44838  22.938  23.682   7.355
 9000POPC   C1B44839  23.121  23.492   6.455
 9000POPC   C2B44840  23.051  23.482   6.755
 9000POPC   C3B44841  23.053  23.525   7.055
 9000POPC   C4B44842  23.095  23.560   7.355
 9001POPC   NC344843   5.840  22.122   5.555
 9001POPC   PO444844   5.894  22.146   5.855
 9001POPC   GL144845   5.869  22.134   6.155
 9001POPC   GL244846   5.759  22.037   6.155
 9001POPC   C1A44847   5.887  22.167   6.455
 9001POPC   D2A44848   5.825  22.176   6.755
 9001POPC   C3A44849   5.849  22.212   7.055
 9001POPC   C4A44850   5.868  22.164   7.355
 9001POPC   C1B44851   5.764  21.981   6.455
 9001POPC   C2B44852   5.717  21.924   6.755
 9001POPC   C3B44853   5.766  21.979   7.055
 9001POPC   C4B44854   5.734  21.988   7.355
 9002POPC   NC344855  43.886  33.790   5.555
 9002POPC   PO444856  43.860  33.833   5.855
 9002POPC   GL144857  43.863  33.754   6.155
 9002POPC   GL244858  44.030  33.702   6.155
 9002POPC   C1A44859  43.845  33.815   6.455
 9002POPC   D2A44860  43.887  33.846   6.755
 9002POPC   C3A44861  43.913  33.784   7.055
 9002POPC   C4A44862  43.861  33.835   7.355
 9002POPC   C1B44863  44.068  33.680   6.455
 9002POPC   C2B44864  44.071  33.670   6.755
 9002POPC   C3B44865  44.048  33.612   7.055
 9002POPC   C4B44866  44.089  33.639   7.355
 9003POPC   NC344867   8.948   1.968   5.555
 9003POPC   PO444868   9.015   1.983   5.855
 9003POPC   GL144869   9.019   1.968   6.155
 9003POPC   GL244870   8.874   2.108   6.155
 9003POPC   C1A44871   9.009   1.943   6.455
 9003POPC   D2A44872   9.009   2.018   6.755
 9003POPC   C3A44873   9.012   2.025   7.055
 9003POPC   C4A44874   8.928   1.963   7.355
 9003POPC   C1B44875   8.768   2.183   6.455
 9003POPC   C2B44876   8.824   2.135   6.755
 9003POPC   C3B44877   8.752   2.184   7.055
 9003POPC   C4B44878   8.759   2.123   7.355
 9004POPC   NC344879   8.217   9.779   5.555
 9004POPC   PO444880   8.179   9.767   5.855
 9004POPC   GL144881   8.204   9.789   6.155
 9004POPC   GL244882   8.151   9.897   6.155
 9004POPC   C1A44883   8.213   9.740   6.455
 9004POPC   D2A44884   8.239   9.798   6.755
 9004POPC   C3A44885   8.196   9.712   7.055
 9004POPC   C4A44886   8.208   9.777   7.355
 9004POPC   C1B44887   8.222   9.996   6.455
 9004POPC   C2B44888   8.196  10.020   6.755
 9004POPC   C3B44889   8.218  10.027   7.055
 9004POPC   C4B44890   8.150   9.990   7.355
 9005POPC   NC344891  26.798  28.409   5.555
 9005POPC   PO444892  26.770  28.368   5.855
 9005POPC   GL144893  26.787  28.358   6.155
 9005POPC   GL244894  26.795  28.450   6.155
 9005POPC   C1A44895  26.829  28.320   6.455
 9005POPC   D2A44896  26.832  28.396   6.755
 9005POPC   C3A44897  26.851  28.388   7.055
 9005POPC   C4A44898  26.809  28.340   7.355
 9005POPC   C1B44899  26.815  28.660   6.455
 9005POPC   C2B44900  26.824  28.648   6.755
 9005POPC   C3B44901  26.837  28.607   7.055
 9005POPC   C4B44902  26.873  28.624   7.355
 9006POPC   NC344903  39.212  26.855   5.555
 9006POPC   PO444904  39.236  26.815   5.855
 9006POPC   GL144905  39.249  26.855   6.155
 9006POPC   GL244906  39.230  26.749   6.155
 9006POPC   C1A44907  39.255  26.864   6.455
 9006POPC   D2A44908  39.221  26.859   6.755
 9006POPC   C3A44909  39.187  26.850   7.055
 9006POPC   C4A44910  39.243  26.803   7.355
 9006POPC   C1B44911  39.129  26.634   6.455
 9006POPC   C2B44912  39.137  26.553   6.755
 9006POPC   C3B44913  39.176  26.538   7.055
 9006POPC   C4B44914  39.121  26.624   7.355
 9007POPC   NC344915  24.501  32.976   5.555
 9007POPC   PO444916  24.463  33.024   5.855
 9007POPC   GL144917  24.518  32.983   6.155
 9007POPC   GL244918  24.459  33.121   6.155
 9007POPC   C1A44919  24.442  33.030   6.455
 9007POPC   D2A44920  24.491  33.044   6.755
 9007POPC   C3A44921  24.473  33.052   7.055
 9007POPC   C4A44922  24.527  33.019   7.355
 9007POPC   C1B44923  24.424  33.269   6.455
 9007POPC   C2B44924  24.417  33.294   6.755
 9007POPC   C3B44925  24.420  33.276   7.055
 9007POPC   C4B44926  24.358  33.294   7.355
 9008POPC   NC344927  31.495   4.319   5.555
 9008POPC   PO444928  31.520   4.301   5.855
 9008POPC   GL144929  31.448   4.296   6.155
 9008POPC   GL244930  31.458   4.478   6.155
 9008POPC   C1A44931  31.485   4.329   6.455
 9008POPC   D2A44932  31.486   4.288   6.755
 9008POPC   C3A44933  31.444   4.314   7.055
 9008POPC   C4A44934  31.445   4.294   7.355
 9008POPC   C1B44935  31.544   4.551   6.455
 9008POPC   C2B44936  31.483   4.594   6.755
 9008POPC   C3B44937  31.509   4.560   7.055
 9008POPC   C4B44938  31.481   4.544   7.355
 9009POPC   NC344939  11.251  30.741   5.555
 9009POPC   PO444940  11.285  30.679   5.855
 9009POPC   GL144941  11.340  30.696   6.155
 9009POPC   GL244942  11.462  30.737   6.155
 9009POPC   C1A44943  11.330  30.743   6.455
 9009POPC   D2A44944  11.270  30.673   6.755
 9009POPC   C3A44945  11.259  30.647   7.055
 9009POPC   C4A44946  11.324  30.713   7.355
 9009POPC   C1B44947  11.503  30.716   6.455
 9009POPC   C2B44948  11.533  30.775   6.755
 9009POPC   C3B44949  11.567  30.709   7.055
 9009POPC   C4B44950  11.589  30.740   7.355
 9010POPC   NC344951   5.084  29.138   5.555
 9010POPC   PO444952   5.050  29.189   5.855
 9010POPC   GL144953   5.047  29.178   6.155
 9010POPC   GL244954   5.000  29.253   6.155
 9010POPC   C1A44955   5.073  29.126   6.455
 9010POPC   D2A44956   5.086  29.111   6.755
 9010POPC   C3A44957   5.134  29.143   7.055
 9010POPC   C4A44958   5.139  29.116   7.355
 9010POPC   C1B44959   4.967  29.338   6.455
 9010POPC   C2B44960   4.959  29.399   6.755
 9010POPC   C3B44961   5.007  29.330   7.055
 9010POPC   C4B44962   4.981  29.387   7.355
 9011POPC   NC344963  30.676  31.494   5.555
 9011POPC   PO444964  30.723  31.428   5.855
 9011POPC   GL144965  30.684  31.521   6.155
 9011POPC   GL244966  30.644  31.590   6.155
 9011POPC   C1A44967  30.699  31.461   6.455
 9011POPC   D2A44968  30.713  31.456   6.755
 9011POPC   C3A44969  30.721  31.428   7.055
 9011POPC   C4A44970  30.692  31.458   7.355
 9011POPC   C1B44971  30.547  31.685   6.455
 9011POPC   C2B44972  30.567  31.703   6.755
 9011POPC   C3B44973  30.620  31.657   7.055
 9011POPC   C4B44974  30.630  31.681   7.355
 9012POPC   NC344975  34.609  36.866   5.555
 9012POPC   PO444976  34.566  36.859   5.855
 9012POPC   GL144977  34.594  36.865   6.155
 9012POPC   GL244978  34.707  36.974   6.155
 9012POPC   C1A44979  34.547  36.911   6.455
 9012POPC   D2A44980  34.608  36.868   6.755
 9012POPC   C3A44981  34.569  36.864   7.055
 9012POPC   C4A44982  34.578  36.915   7.355
 9012POPC   C1B44983  34.731  37.022   6.455
 9012POPC   C2B44984  34.775  37.029   6.755
 9012POPC   C3B44985  34.776  37.059   7.055
 9012POPC   C4B44986  34.772  37.092   7.355
 9013POPC   NC344987  27.571   0.403   5.555
 9013POPC   PO444988  27.632   0.392   5.855
 9013POPC   GL144989  27.553   0.426   6.155
 9013POPC   GL244990  27.486   0.408   6.155
 9013POPC   C1A44991  27.599   0.455   6.455
 9013POPC   D2A44992  27.594   0.472   6.755
 9013POPC   C3A44993  27.636   0.390   7.055
 9013POPC   C4A44994  27.605   0.419   7.355
 9013POPC   C1B44995  27.340   0.463   6.455
 9013POPC   C2B44996  27.326   0.424   6.755
 9013POPC   C3B44997  27.351   0.459   7.055
 9013POPC   C4B44998  27.305   0.392   7.355
 9014POPC   NC344999  11.271  22.121   5.555
 9014POPC   PO445000  11.280  22.189   5.855
 9014POPC   GL145001  11.336  22.199   6.155
 9014POPC   GL245002  11.336  22.255   6.155
 9014POPC   C1A45003  11.304  22.152   6.455
 9014POPC   D2A45004  11.313  22.176   6.755
 9014POPC   C3A45005  11.263  22.155   7.055
 9014POPC   C4A45006  11.325  22.149   7.355
 9014POPC   C1B45007  11.407  22.363   6.455
 9014POPC   C2B45008  11.378  22.417   6.755
 9014POPC   C3B45009  11.443  22.381   7.055
 9014POPC   C4B45010  11.435  22.396   7.355
 9015POPC   NC345011  31.458  33.817   5.555
 9015POPC   PO445012  31.522  33.821   5.855
 9015POPC   GL145013  31.508  33.821   6.155
 9015POPC   GL245014  31.391  33.717   6.155
 9015POPC   C1A45015  31.444  33.769   6.455
 9015POPC   D2A45016  31.515  33.779   6.755
 9015POPC   C3A45017  31.494  33.805   7.055
 9015POPC   C4A45018  31.436  33.841   7.355
 9015POPC   C1B45019  31.256  33.629   6.455
 9015POPC   C2B45020  31.244  33.595   6.755
 9015POPC   C3B45021  31.258  33.605   7.055
 9015POPC   C4B45022  31.323  33.623   7.355
 9016POPC   NC345023  43.913  22.122   5.555
 9016POPC   PO445024  43.850  22.131   5.855
 9016POPC   GL145025  43.841  22.159   6.155
 9016POPC   GL245026  43.872  22.320   6.155
 9016POPC   C1A45027  43.844  22.197   6.455
 9016POPC   D2A45028  43.935  22.142   6.755
 9016POPC   C3A45029  43.886  22.146   7.055
 9016POPC   C4A45030  43.898  22.169   7.355
 9016POPC   C1B45031  43.726  22.426   6.455
 9016POPC   C2B45032  43.780  22.411   6.755
 9016POPC   C3B45033  43.738  22.352   7.055
 9016POPC   C4B45034  43.735  22.428   7.355
 9017POPC   NC345035  28.344  13.615   5.555
 9017POPC   PO445036  28.352  13.663   5.855
 9017POPC   GL145037  28.384  13.639   6.155
 9017POPC   GL245038  28.382  13.505   6.155
 9017POPC   C1A45039  28.353  13.672   6.455
 9017POPC   D2A45040  28.377  13.609   6.755
 9017POPC   C3A45041  28.331  13.630   7.055
 9017POPC   C4A45042  28.327  13.675   7.355
 9017POPC   C1B45043  28.373  13.400   6.455
 9017POPC   C2B45044  28.389  13.351   6.755
 9017POPC   C3B45045  28.423  13.419   7.055
 9017POPC   C4B45046  28.411  13.416   7.355
 9018POPC   NC345047  29.963  19.047   5.555
 9018POPC   PO445048  29.960  19.076   5.855
 9018POPC   GL145049  29.922  19.063   6.155
 9018POPC   GL245050  29.982  19.155   6.155
 9018POPC   C1A45051  29.922  19.013   6.455
 9018POPC   D2A45052  29.965  19.050   6.755
 9018POPC   C3A45053  29.887  19.046   7.055
 9018POPC   C4A45054  29.911  19.066   7.355
 9018POPC   C1B45055  30.043  19.299   6.455
 9018POPC   C2B45056  30.032  19.216   6.755
 9018POPC   C3B45057  30.087  19.241   7.055
 9018POPC   C4B45058  30.118  19.268   7.355
 9019POPC   NC345059  20.624  15.154   5.555
 9019POPC   PO445060  20.575  15.227   5.855
 9019POPC   GL145061  20.629  15.143   6.155
 9019POPC   GL245062  20.671  15.314   6.155
 9019POPC   C1A45063  20.637  15.143   6.455
 9019POPC   D2A45064  20.572  15.196   6.755
 9019POPC   C3A45065  20.582  15.225   7.055
 9019POPC   C4A45066  20.637  15.222   7.355
 9019POPC   C1B45067  20.704  15.399   6.455
 9019POPC   C2B45068  20.676  15.402   6.755
 9019POPC   C3B45069  20.682  15.443   7.055
 9019POPC   C4B45070  20.681  15.396   7.355
 9020POPC   NC345071  18.313  44.700   5.555
 9020POPC   PO445072  18.325  44.646   5.855
 9020POPC   GL145073  18.299  44.711   6.155
 9020POPC   GL245074  18.204  44.591   6.155
 9020POPC   C1A45075  18.235  44.685   6.455
 9020POPC   D2A45076  18.272  44.670   6.755
 9020POPC   C3A45077  18.321  44.701   7.055
 9020POPC   C4A45078  18.279  44.630   7.355
 9020POPC   C1B45079  18.138  44.533   6.455
 9020POPC   C2B45080  18.071  44.530   6.755
 9020POPC   C3B45081  18.101  44.491   7.055
 9020POPC   C4B45082  18.106  44.467   7.355
 9021POPC   NC345083  43.158   5.892   5.555
 9021POPC   PO445084  43.156   5.873   5.855
 9021POPC   GL145085  43.152   5.915   6.155
 9021POPC   GL245086  43.073   5.763   6.155
 9021POPC   C1A45087  43.158   5.910   6.455
 9021POPC   D2A45088  43.091   5.822   6.755
 9021POPC   C3A45089  43.132   5.865   7.055
 9021POPC   C4A45090  43.110   5.851   7.355
 9021POPC   C1B45091  43.014   5.684   6.455
 9021POPC   C2B45092  43.003   5.610   6.755
 9021POPC   C3B45093  43.021   5.619   7.055
 9021POPC   C4B45094  43.001   5.701   7.355
 9022POPC   NC345095  12.894  37.632   5.555
 9022POPC   PO445096  12.896  37.661   5.855
 9022POPC   GL145097  12.850  37.662   6.155
 9022POPC   GL245098  12.766  37.827   6.155
 9022POPC   C1A45099  12.899  37.630   6.455
 9022POPC   D2A45100  12.841  37.720   6.755
 9022POPC   C3A45101  12.893  37.660   7.055
 9022POPC   C4A45102  12.811  37.708   7.355
 9022POPC   C1B45103  12.755  37.875   6.455
 9022POPC   C2B45104  12.750  37.881   6.755
 9022POPC   C3B45105  12.770  37.864   7.055
 9022POPC   C4B45106  12.725  37.896   7.355
 9023POPC   NC345107  39.983   7.397   5.555
 9023POPC   PO445108  40.051   7.396   5.855
 9023POPC   GL145109  40.049   7.458   6.155
 9023POPC   GL245110  40.114   7.379   6.155
 9023POPC   C1A45111  40.023   7.419   6.455
 9023POPC   D2A45112  39.967   7.418   6.755
 9023POPC   C3A45113  39.996   7.407   7.055
 9023POPC   C4A45114  39.982   7.399   7.355
 9023POPC   C1B45115  40.212   7.380   6.455
 9023POPC   C2B45116  40.289   7.365   6.755
 9023POPC   C3B45117  40.200   7.308   7.055
 9023POPC   C4B45118  40.274   7.377   7.355
 9024POPC   NC345119   8.209  41.547   5.555
 9024POPC   PO445120   8.206  41.589   5.855
 9024POPC   GL145121   8.229  41.584   6.155
 9024POPC   GL245122   8.028  41.563   6.155
 9024POPC   C1A45123   8.224  41.589   6.455
 9024POPC   D2A45124   8.197  41.589   6.755
 9024POPC   C3A45125   8.176  41.513   7.055
 9024POPC   C4A45126   8.217  41.591   7.355
 9024POPC   C1B45127   7.971  41.561   6.455
 9024POPC   C2B45128   7.954  41.561   6.755
 9024POPC   C3B45129   7.972  41.489   7.055
 9024POPC   C4B45130   7.972  41.523   7.355
 9025POPC   NC345131  24.498  26.771   5.555
 9025POPC   PO445132  24.526  26.820   5.855
 9025POPC   GL145133  24.487  26.850   6.155
 9025POPC   GL245134  24.417  26.737   6.155
 9025POPC   C1A45135  24.495  26.786   6.455
 9025POPC   D2A45136  24.445  26.831   6.755
 9025POPC   C3A45137  24.450  26.835   7.055
 9025POPC   C4A45138  24.519  26.781   7.355
 9025POPC   C1B45139  24.268  26.662   6.455
 9025POPC   C2B45140  24.317  26.619   6.755
 9025POPC   C3B45141  24.260  26.690   7.055
 9025POPC   C4B45142  24.296  26.656   7.355
 9026POPC   NC345143   6.655  15.951   5.555
 9026POPC   PO445144   6.647  15.958   5.855
 9026POPC   GL145145   6.633  15.963   6.155
 9026POPC   GL245146   6.667  16.050   6.155
 9026POPC   C1A45147   6.692  15.910   6.455
 9026POPC   D2A45148   6.684  15.912   6.755
 9026POPC   C3A45149   6.611  15.970   7.055
 9026POPC   C4A45150   6.617  15.915   7.355
 9026POPC   C1B45151   6.737  16.161   6.455
 9026POPC   C2B45152   6.781  16.135   6.755
 9026POPC   C3B45153   6.751  16.192   7.055
 9026POPC   C4B45154   6.717  16.132   7.355
 9027POPC   NC345155  16.712  43.848   5.555
 9027POPC   PO445156  16.763  43.885   5.855
 9027POPC   GL145157  16.705  43.891   6.155
 9027POPC   GL245158  16.722  43.812   6.155
 9027POPC   C1A45159  16.741  43.891   6.455
 9027POPC   D2A45160  16.731  43.922   6.755
 9027POPC   C3A45161  16.742  43.874   7.055
 9027POPC   C4A45162  16.741  43.855   7.355
 9027POPC   C1B45163  16.717  43.628   6.455
 9027POPC   C2B45164  16.798  43.632   6.755
 9027POPC   C3B45165  16.785  43.660   7.055
 9027POPC   C4B45166  16.746  43.595   7.355
 9028POPC   NC345167  35.343  10.485   5.555
 9028POPC   PO445168  35.355  10.545   5.855
 9028POPC   GL145169  35.332  10.509   6.155
 9028POPC   GL245170  35.500  10.526   6.155
 9028POPC   C1A45171  35.352  10.539   6.455
 9028POPC   D2A45172  35.313  10.508   6.755
 9028POPC   C3A45173  35.347  10.491   7.055
 9028POPC   C4A45174  35.320  10.508   7.355
 9028POPC   C1B45175  35.579  10.489   6.455
 9028POPC   C2B45176  35.558  10.487   6.755
 9028POPC   C3B45177  35.645  10.520   7.055
 9028POPC   C4B45178  35.559  10.534   7.355
 9029POPC   NC345179  14.390  27.638   5.555
 9029POPC   PO445180  14.383  27.565   5.855
 9029POPC   GL145181  14.415  27.586   6.155
 9029POPC   GL245182  14.312  27.696   6.155
 9029POPC   C1A45183  14.446  27.545   6.455
 9029POPC   D2A45184  14.364  27.578   6.755
 9029POPC   C3A45185  14.366  27.582   7.055
 9029POPC   C4A45186  14.358  27.564   7.355
 9029POPC   C1B45187  14.268  27.747   6.455
 9029POPC   C2B45188  14.200  27.770   6.755
 9029POPC   C3B45189  14.243  27.748   7.055
 9029POPC   C4B45190  14.279  27.777   7.355
 9030POPC   NC345191  15.928   6.623   5.555
 9030POPC   PO445192  15.920   6.647   5.855
 9030POPC   GL145193  15.915   6.676   6.155
 9030POPC   GL245194  16.002   6.759   6.155
 9030POPC   C1A45195  15.957   6.616   6.455
 9030POPC   D2A45196  15.914   6.607   6.755
 9030POPC   C3A45197  15.984   6.682   7.055
 9030POPC   C4A45198  15.922   6.675   7.355
 9030POPC   C1B45199  16.106   6.853   6.455
 9030POPC   C2B45200  16.169   6.784   6.755
 9030POPC   C3B45201  16.146   6.823   7.055
 9030POPC   C4B45202  16.163   6.825   7.355
 9031POPC   NC345203  36.114  32.215   5.555
 9031POPC   PO445204  36.152  32.274   5.855
 9031POPC   GL145205  36.097  32.236   6.155
 9031POPC   GL245206  36.291  32.275   6.155
 9031POPC   C1A45207  36.116  32.221   6.455
 9031POPC   D2A45208  36.113  32.283   6.755
 9031POPC   C3A45209  36.165  32.284   7.055
 9031POPC   C4A45210  36.115  32.199   7.355
 9031POPC   C1B45211  36.366  32.314   6.455
 9031POPC   C2B45212  36.337  32.319   6.755
 9031POPC   C3B45213  36.345  32.306   7.055
 9031POPC   C4B45214  36.389  32.396   7.355
 9032POPC   NC345215  20.627  35.387   5.555
 9032POPC   PO445216  20.616  35.316   5.855
 9032POPC   GL145217  20.602  35.329   6.155
 9032POPC   GL245218  20.615  35.235   6.155
 9032POPC   C1A45219  20.605  35.396   6.455
 9032POPC   D2A45220  20.575  35.361   6.755
 9032POPC   C3A45221  20.637  35.380   7.055
 9032POPC   C4A45222  20.645  35.383   7.355
 9032POPC   C1B45223  20.587  35.113   6.455
 9032POPC   C2B45224  20.588  35.095   6.755
 9032POPC   C3B45225  20.559  35.157   7.055
 9032POPC   C4B45226  20.587  35.080   7.355
 9033POPC   NC345227  39.228  16.768   5.555
 9033POPC   PO445228  39.221  16.725   5.855
 9033POPC   GL145229  39.207  16.769   6.155
 9033POPC   GL245230  39.347  16.723   6.155
 9033POPC   C1A45231  39.262  16.768   6.455
 9033POPC   D2A45232  39.203  16.777   6.755
 9033POPC   C3A45233  39.210  16.707   7.055
 9033POPC   C4A45234  39.248  16.759   7.355
 9033POPC   C1B45235  39.431  16.745   6.455
 9033POPC   C2B45236  39.509  16.730   6.755
 9033POPC   C3B45237  39.455  16.745   7.055
 9033POPC   C4B45238  39.510  16.709   7.355
 9034POPC   NC345239   9.768  18.234   5.555
 9034POPC   PO445240   9.748  18.297   5.855
 9034POPC   GL145241   9.763  18.242   6.155
 9034POPC   GL245242   9.704  18.181   6.155
 9034POPC   C1A45243   9.746  18.270   6.455
 9034POPC   D2A45244   9.746  18.235   6.755
 9034POPC   C3A45245   9.770  18.280   7.055
 9034POPC   C4A45246   9.779  18.249   7.355
 9034POPC   C1B45247   9.622  18.094   6.455
 9034POPC   C2B45248   9.586  18.051   6.755
 9034POPC   C3B45249   9.603  18.090   7.055
 9034POPC   C4B45250   9.621  18.085   7.355
 9035POPC   NC345251  40.777  25.281   5.555
 9035POPC   PO445252  40.746  25.315   5.855
 9035POPC   GL145253  40.755  25.255   6.155
 9035POPC   GL245254  40.840  25.402   6.155
 9035POPC   C1A45255  40.744  25.240   6.455
 9035POPC   D2A45256  40.768  25.290   6.755
 9035POPC   C3A45257  40.784  25.302   7.055
 9035POPC   C4A45258  40.746  25.238   7.355
 9035POPC   C1B45259  40.884  25.451   6.455
 9035POPC   C2B45260  40.921  25.533   6.755
 9035POPC   C3B45261  40.897  25.488   7.055
 9035POPC   C4B45262  40.900  25.480   7.355
 9036POPC   NC345263  42.339  40.822   5.555
 9036POPC   PO445264  42.328  40.746   5.855
 9036POPC   GL145265  42.341  40.795   6.155
 9036POPC   GL245266  42.361  40.928   6.155
 9036POPC   C1A45267  42.319  40.807   6.455
 9036POPC   D2A45268  42.288  40.794   6.755
 9036POPC   C3A45269  42.377  40.772   7.055
 9036POPC   C4A45270  42.305  40.792   7.355
 9036POPC   C1B45271  42.441  41.021   6.455
 9036POPC   C2B45272  42.406  41.061   6.755
 9036POPC   C3B45273  42.402  41.026   7.055
 9036POPC   C4B45274  42.420  40.999   7.355
 9037POPC   NC345275   4.271  32.276   5.555
 9037POPC   PO445276   4.269  32.296   5.855
 9037POPC   GL145277   4.328  32.208   6.155
 9037POPC   GL245278   4.176  32.244   6.155
 9037POPC   C1A45279   4.341  32.258   6.455
 9037POPC   D2A45280   4.350  32.234   6.755
 9037POPC   C3A45281   4.352  32.216   7.055
 9037POPC   C4A45282   4.295  32.262   7.355
 9037POPC   C1B45283   4.099  32.288   6.455
 9037POPC   C2B45284   4.051  32.304   6.755
 9037POPC   C3B45285   4.044  32.318   7.055
 9037POPC   C4B45286   4.041  32.283   7.355
 9038POPC   NC345287  41.578   1.948   5.555
 9038POPC   PO445288  41.575   1.967   5.855
 9038POPC   GL145289  41.579   1.966   6.155
 9038POPC   GL245290  41.488   2.082   6.155
 9038POPC   C1A45291  41.536   1.956   6.455
 9038POPC   D2A45292  41.597   1.987   6.755
 9038POPC   C3A45293  41.535   1.946   7.055
 9038POPC   C4A45294  41.593   1.982   7.355
 9038POPC   C1B45295  41.365   2.091   6.455
 9038POPC   C2B45296  41.381   2.143   6.755
 9038POPC   C3B45297  41.355   2.058   7.055
 9038POPC   C4B45298  41.344   2.108   7.355
 9039POPC   NC345299   0.394  21.428   5.555
 9039POPC   PO445300   0.477  21.349   5.855
 9039POPC   GL145301   0.396  21.402   6.155
 9039POPC   GL245302   0.521  21.301   6.155
 9039POPC   C1A45303   0.399  21.388   6.455
 9039POPC   D2A45304   0.409  21.341   6.755
 9039POPC   C3A45305   0.454  21.424   7.055
 9039POPC   C4A45306   0.473  21.349   7.355
 9039POPC   C1B45307   0.576  21.159   6.455
 9039POPC   C2B45308   0.490  21.198   6.755
 9039POPC   C3B45309   0.572  21.107   7.055
 9039POPC   C4B45310   0.582  21.110   7.355
 9040POPC   NC345311   8.186  38.477   5.555
 9040POPC   PO445312   8.204  38.468   5.855
 9040POPC   GL145313   8.223  38.481   6.155
 9040POPC   GL245314   8.066  38.391   6.155
 9040POPC   C1A45315   8.235  38.446   6.455
 9040POPC   D2A45316   8.210  38.465   6.755
 9040POPC   C3A45317   8.154  38.455   7.055
 9040POPC   C4A45318   8.153  38.483   7.355
 9040POPC   C1B45319   7.997  38.255   6.455
 9040POPC   C2B45320   7.983  38.262   6.755
 9040POPC   C3B45321   8.063  38.223   7.055
 9040POPC   C4B45322   8.040  38.246   7.355
 9041POPC   NC345323  25.247  26.782   5.555
 9041POPC   PO445324  25.249  26.862   5.855
 9041POPC   GL145325  25.281  26.827   6.155
 9041POPC   GL245326  25.301  26.649   6.155
 9041POPC   C1A45327  25.290  26.796   6.455
 9041POPC   D2A45328  25.234  26.810   6.755
 9041POPC   C3A45329  25.292  26.814   7.055
 9041POPC   C4A45330  25.251  26.802   7.355
 9041POPC   C1B45331  25.379  26.603   6.455
 9041POPC   C2B45332  25.344  26.624   6.755
 9041POPC   C3B45333  25.329  26.572   7.055
 9041POPC   C4B45334  25.314  26.566   7.355
 9042POPC   NC345335  35.392  40.039   5.555
 9042POPC   PO445336  35.344  39.991   5.855
 9042POPC   GL145337  35.376  39.985   6.155
 9042POPC   GL245338  35.423  39.923   6.155
 9042POPC   C1A45339  35.400  39.988   6.455
 9042POPC   D2A45340  35.354  39.971   6.755
 9042POPC   C3A45341  35.322  40.046   7.055
 9042POPC   C4A45342  35.310  39.967   7.355
 9042POPC   C1B45343  35.587  39.883   6.455
 9042POPC   C2B45344  35.505  39.906   6.755
 9042POPC   C3B45345  35.531  39.901   7.055
 9042POPC   C4B45346  35.540  39.900   7.355
 9043POPC   NC345347  12.090  13.605   5.555
 9043POPC   PO445348  12.044  13.634   5.855
 9043POPC   GL145349  12.042  13.646   6.155
 9043POPC   GL245350  12.080  13.545   6.155
 9043POPC   C1A45351  12.114  13.634   6.455
 9043POPC   D2A45352  12.067  13.636   6.755
 9043POPC   C3A45353  12.122  13.673   7.055
 9043POPC   C4A45354  12.115  13.629   7.355
 9043POPC   C1B45355  12.099  13.342   6.455
 9043POPC   C2B45356  12.073  13.412   6.755
 9043POPC   C3B45357  12.092  13.402   7.055
 9043POPC   C4B45358  12.138  13.376   7.355
 9044POPC   NC345359  39.971  29.183   5.555
 9044POPC   PO445360  39.996  29.104   5.855
 9044POPC   GL145361  40.033  29.105   6.155
 9044POPC   GL245362  39.910  29.181   6.155
 9044POPC   C1A45363  40.039  29.142   6.455
 9044POPC   D2A45364  39.985  29.192   6.755
 9044POPC   C3A45365  40.001  29.143   7.055
 9044POPC   C4A45366  39.957  29.169   7.355
 9044POPC   C1B45367  39.770  29.274   6.455
 9044POPC   C2B45368  39.747  29.241   6.755
 9044POPC   C3B45369  39.821  29.240   7.055
 9044POPC   C4B45370  39.732  29.269   7.355
 9045POPC   NC345371  29.930  22.191   5.555
 9045POPC   PO445372  29.945  22.138   5.855
 9045POPC   GL145373  29.917  22.171   6.155
 9045POPC   GL245374  29.843  22.059   6.155
 9045POPC   C1A45375  29.944  22.175   6.455
 9045POPC   D2A45376  29.967  22.149   6.755
 9045POPC   C3A45377  29.879  22.186   7.055
 9045POPC   C4A45378  29.874  22.154   7.355
 9045POPC   C1B45379  29.751  21.985   6.455
 9045POPC   C2B45380  29.681  21.985   6.755
 9045POPC   C3B45381  29.711  21.984   7.055
 9045POPC   C4B45382  29.727  21.983   7.355
 9046POPC   NC345383  19.040  26.854   5.555
 9046POPC   PO445384  19.082  26.861   5.855
 9046POPC   GL145385  19.015  26.786   6.155
 9046POPC   GL245386  18.987  26.782   6.155
 9046POPC   C1A45387  19.089  26.797   6.455
 9046POPC   D2A45388  19.046  26.790   6.755
 9046POPC   C3A45389  19.043  26.777   7.055
 9046POPC   C4A45390  19.022  26.855   7.355
 9046POPC   C1B45391  18.882  26.706   6.455
 9046POPC   C2B45392  18.799  26.667   6.755
 9046POPC   C3B45393  18.794  26.679   7.055
 9046POPC   C4B45394  18.851  26.674   7.355
 9047POPC   NC345395  40.769   3.523   5.555
 9047POPC   PO445396  40.769   3.552   5.855
 9047POPC   GL145397  40.770   3.520   6.155
 9047POPC   GL245398  40.816   3.379   6.155
 9047POPC   C1A45399  40.738   3.539   6.455
 9047POPC   D2A45400  40.825   3.494   6.755
 9047POPC   C3A45401  40.828   3.519   7.055
 9047POPC   C4A45402  40.746   3.560   7.355
 9047POPC   C1B45403  40.873   3.347   6.455
 9047POPC   C2B45404  40.903   3.310   6.755
 9047POPC   C3B45405  40.928   3.294   7.055
 9047POPC   C4B45406  40.862   3.358   7.355
 9048POPC   NC345407  29.940  40.799   5.555
 9048POPC   PO445408  29.928  40.745   5.855
 9048POPC   GL145409  29.921  40.794   6.155
 9048POPC   GL245410  29.838  40.730   6.155
 9048POPC   C1A45411  29.871  40.814   6.455
 9048POPC   D2A45412  29.939  40.819   6.755
 9048POPC   C3A45413  29.958  40.750   7.055
 9048POPC   C4A45414  29.916  40.828   7.355
 9048POPC   C1B45415  29.717  40.617   6.455
 9048POPC   C2B45416  29.757  40.627   6.755
 9048POPC   C3B45417  29.727  40.563   7.055
 9048POPC   C4B45418  29.796  40.568   7.355
 9049POPC   NC345419  33.808   1.983   5.555
 9049POPC   PO445420  33.779   1.955   5.855
 9049POPC   GL145421  33.779   2.038   6.155
 9049POPC   GL245422  33.842   1.885   6.155
 9049POPC   C1A45423  33.835   2.009   6.455
 9049POPC   D2A45424  33.795   1.963   6.755
 9049POPC   C3A45425  33.792   1.972   7.055
 9049POPC   C4A45426  33.795   1.999   7.355
 9049POPC   C1B45427  33.849   1.787   6.455
 9049POPC   C2B45428  33.828   1.709   6.755
 9049POPC   C3B45429  33.807   1.704   7.055
 9049POPC   C4B45430  33.788   1.772   7.355
 9050POPC   NC345431  24.466  25.292   5.555
 9050POPC   PO445432  24.520  25.255   5.855
 9050POPC   GL145433  24.497  25.273   6.155
 9050POPC   GL245434  24.588  25.260   6.155
 9050POPC   C1A45435  24.511  25.237   6.455
 9050POPC   D2A45436  24.462  25.284   6.755
 9050POPC   C3A45437  24.498  25.234   7.055
 9050POPC   C4A45438  24.448  25.296   7.355
 9050POPC   C1B45439  24.702  25.253   6.455
 9050POPC   C2B45440  24.748  25.236   6.755
 9050POPC   C3B45441  24.783  25.223   7.055
 9050POPC   C4B45442  24.706  25.237   7.355
 9051POPC   NC345443   5.098  34.595   5.555
 9051POPC   PO445444   5.111  34.569   5.855
 9051POPC   GL145445   5.067  34.613   6.155
 9051POPC   GL245446   5.164  34.541   6.155
 9051POPC   C1A45447   5.072  34.588   6.455
 9051POPC   D2A45448   5.096  34.619   6.755
 9051POPC   C3A45449   5.139  34.547   7.055
 9051POPC   C4A45450   5.059  34.564   7.355
 9051POPC   C1B45451   5.312  34.387   6.455
 9051POPC   C2B45452   5.318  34.435   6.755
 9051POPC   C3B45453   5.234  34.376   7.055
 9051POPC   C4B45454   5.292  34.369   7.355
 9052POPC   NC345455  33.051  15.931   5.555
 9052POPC   PO445456  33.057  15.982   5.855
 9052POPC   GL145457  33.017  15.907   6.155
 9052POPC   GL245458  32.929  15.983   6.155
 9052POPC   C1A45459  33.049  15.978   6.455
 9052POPC   D2A45460  32.976  15.911   6.755
 9052POPC   C3A45461  33.042  16.001   7.055
 9052POPC   C4A45462  33.005  15.939   7.355
 9052POPC   C1B45463  32.771  16.058   6.455
 9052POPC   C2B45464  32.821  16.096   6.755
 9052POPC   C3B45465  32.757  16.010   7.055
 9052POPC   C4B45466  32.779  16.069   7.355
 9053POPC   NC345467  22.958  15.227   5.555
 9053POPC   PO445468  22.895  15.195   5.855
 9053POPC   GL145469  22.905  15.217   6.155
 9053POPC   GL245470  23.092  15.252   6.155
 9053POPC   C1A45471  22.933  15.138   6.455
 9053POPC   D2A45472  22.913  15.202   6.755
 9053POPC   C3A45473  22.943  15.184   7.055
 9053POPC   C4A45474  22.953  15.228   7.355
 9053POPC   C1B45475  23.162  15.287   6.455
 9053POPC   C2B45476  23.217  15.247   6.755
 9053POPC   C3B45477  23.192  15.223   7.055
 9053POPC   C4B45478  23.137  15.205   7.355
 9054POPC   NC345479  42.330  21.418   5.555
 9054POPC   PO445480  42.330  21.380   5.855
 9054POPC   GL145481  42.303  21.394   6.155
 9054POPC   GL245482  42.409  21.311   6.155
 9054POPC   C1A45483  42.299  21.357   6.455
 9054POPC   D2A45484  42.349  21.403   6.755
 9054POPC   C3A45485  42.344  21.395   7.055
 9054POPC   C4A45486  42.331  21.344   7.355
 9054POPC   C1B45487  42.474  21.170   6.455
 9054POPC   C2B45488  42.464  21.206   6.755
 9054POPC   C3B45489  42.531  21.146   7.055
 9054POPC   C4B45490  42.533  21.208   7.355
 9055POPC   NC345491   5.131  19.013   5.555
 9055POPC   PO445492   5.126  19.036   5.855
 9055POPC   GL145493   5.127  19.065   6.155
 9055POPC   GL245494   4.994  19.116   6.155
 9055POPC   C1A45495   5.139  19.036   6.455
 9055POPC   D2A45496   5.116  19.054   6.755
 9055POPC   C3A45497   5.060  19.043   7.055
 9055POPC   C4A45498   5.059  19.014   7.355
 9055POPC   C1B45499   4.824  19.185   6.455
 9055POPC   C2B45500   4.890  19.205   6.755
 9055POPC   C3B45501   4.828  19.181   7.055
 9055POPC   C4B45502   4.870  19.173   7.355
 9056POPC   NC345503  20.578   2.028   5.555
 9056POPC   PO445504  20.627   1.943   5.855
 9056POPC   GL145505  20.642   1.993   6.155
 9056POPC   GL245506  20.466   2.039   6.155
 9056POPC   C1A45507  20.654   2.031   6.455
 9056POPC   D2A45508  20.623   1.950   6.755
 9056POPC   C3A45509  20.609   1.984   7.055
 9056POPC   C4A45510  20.581   1.985   7.355
 9056POPC   C1B45511  20.349   2.042   6.455
 9056POPC   C2B45512  20.324   2.058   6.755
 9056POPC   C3B45513  20.378   2.077   7.055
 9056POPC   C4B45514  20.322   1.997   7.355
 9057POPC   NC345515  36.877  12.807   5.555
 9057POPC   PO445516  36.940  12.854   5.855
 9057POPC   GL145517  36.917  12.826   6.155
 9057POPC   GL245518  36.950  12.952   6.155
 9057POPC   C1A45519  36.871  12.854   6.455
 9057POPC   D2A45520  36.913  12.835   6.755
 9057POPC   C3A45521  36.946  12.892   7.055
 9057POPC   C4A45522  36.912  12.867   7.355
 9057POPC   C1B45523  37.022  13.026   6.455
 9057POPC   C2B45524  37.043  13.031   6.755
 9057POPC   C3B45525  37.005  13.074   7.055
 9057POPC   C4B45526  37.061  13.084   7.355
 9058POPC   NC345527  27.584   2.004   5.555
 9058POPC   PO445528  27.598   1.947   5.855
 9058POPC   GL145529  27.638   1.943   6.155
 9058POPC   GL245530  27.588   2.134   6.155
 9058POPC   C1A45531  27.566   1.978   6.455
 9058POPC   D2A45532  27.588   1.969   6.755
 9058POPC   C3A45533  27.555   1.951   7.055
 9058POPC   C4A45534  27.625   1.942   7.355
 9058POPC   C1B45535  27.664   2.198   6.455
 9058POPC   C2B45536  27.659   2.285   6.755
 9058POPC   C3B45537  27.599   2.228   7.055
 9058POPC   C4B45538  27.680   2.226   7.355
 9059POPC   NC345539  29.108  21.373   5.555
 9059POPC   PO445540  29.131  21.416   5.855
 9059POPC   GL145541  29.161  21.377   6.155
 9059POPC   GL245542  29.073  21.500   6.155
 9059POPC   C1A45543  29.178  21.356   6.455
 9059POPC   D2A45544  29.166  21.390   6.755
 9059POPC   C3A45545  29.151  21.374   7.055
 9059POPC   C4A45546  29.193  21.396   7.355
 9059POPC   C1B45547  29.007  21.578   6.455
 9059POPC   C2B45548  28.948  21.629   6.755
 9059POPC   C3B45549  28.950  21.565   7.055
 9059POPC   C4B45550  28.976  21.626   7.355
 9060POPC   NC345551  43.885  31.470   5.555
 9060POPC   PO445552  43.847  31.485   5.855
 9060POPC   GL145553  43.862  31.484   6.155
 9060POPC   GL245554  43.887  31.321   6.155
 9060POPC   C1A45555  43.915  31.515   6.455
 9060POPC   D2A45556  43.916  31.439   6.755
 9060POPC   C3A45557  43.874  31.514   7.055
 9060POPC   C4A45558  43.851  31.495   7.355
 9060POPC   C1B45559  43.830  31.197   6.455
 9060POPC   C2B45560  43.851  31.194   6.755
 9060POPC   C3B45561  43.852  31.212   7.055
 9060POPC   C4B45562  43.789  31.228   7.355
 9061POPC   NC345563  33.069  33.003   5.555
 9061POPC   PO445564  33.000  33.052   5.855
 9061POPC   GL145565  33.042  32.977   6.155
 9061POPC   GL245566  33.122  32.956   6.155
 9061POPC   C1A45567  33.072  33.051   6.455
 9061POPC   D2A45568  33.061  33.037   6.755
 9061POPC   C3A45569  33.010  33.072   7.055
 9061POPC   C4A45570  32.991  32.989   7.355
 9061POPC   C1B45571  33.153  32.814   6.455
 9061POPC   C2B45572  33.231  32.873   6.755
 9061POPC   C3B45573  33.194  32.848   7.055
 9061POPC   C4B45574  33.194  32.789   7.355
 9062POPC   NC345575  15.228   2.003   5.555
 9062POPC   PO445576  15.143   1.993   5.855
 9062POPC   GL145577  15.137   2.027   6.155
 9062POPC   GL245578  15.141   1.839   6.155
 9062POPC   C1A45579  15.228   1.978   6.455
 9062POPC   D2A45580  15.190   2.008   6.755
 9062POPC   C3A45581  15.180   1.961   7.055
 9062POPC   C4A45582  15.205   1.964   7.355
 9062POPC   C1B45583  15.129   1.755   6.455
 9062POPC   C2B45584  15.065   1.795   6.755
 9062POPC   C3B45585  15.142   1.779   7.055
 9062POPC   C4B45586  15.097   1.730   7.355
 9063POPC   NC345587  17.469   6.662   5.555
 9063POPC   PO445588  17.554   6.613   5.855
 9063POPC   GL145589  17.481   6.670   6.155
 9063POPC   GL245590  17.563   6.565   6.155
 9063POPC   C1A45591  17.526   6.626   6.455
 9063POPC   D2A45592  17.469   6.691   6.755
 9063POPC   C3A45593  17.505   6.598   7.055
 9063POPC   C4A45594  17.539   6.642   7.355
 9063POPC   C1B45595  17.669   6.383   6.455
 9063POPC   C2B45596  17.608   6.428   6.755
 9063POPC   C3B45597  17.662   6.398   7.055
 9063POPC   C4B45598  17.592   6.429   7.355
 9064POPC   NC345599  20.612  14.433   5.555
 9064POPC   PO445600  20.636  14.420   5.855
 9064POPC   GL145601  20.570  14.402   6.155
 9064POPC   GL245602  20.691  14.390   6.155
 9064POPC   C1A45603  20.594  14.419   6.455
 9064POPC   D2A45604  20.616  14.387   6.755
 9064POPC   C3A45605  20.571  14.404   7.055
 9064POPC   C4A45606  20.618  14.440   7.355
 9064POPC   C1B45607  20.855  14.356   6.455
 9064POPC   C2B45608  20.871  14.365   6.755
 9064POPC   C3B45609  20.891  14.377   7.055
 9064POPC   C4B45610  20.868  14.443   7.355
 9065POPC   NC345611  22.117  43.103   5.555
 9065POPC   PO445612  22.188  43.118   5.855
 9065POPC   GL145613  22.179  43.067   6.155
 9065POPC   GL245614  22.107  43.013   6.155
 9065POPC   C1A45615  22.179  43.095   6.455
 9065POPC   D2A45616  22.145  43.133   6.755
 9065POPC   C3A45617  22.124  43.151   7.055
 9065POPC   C4A45618  22.145  43.116   7.355
 9065POPC   C1B45619  22.052  42.930   6.455
 9065POPC   C2B45620  22.041  42.898   6.755
 9065POPC   C3B45621  21.990  42.955   7.055
 9065POPC   C4B45622  22.015  42.875   7.355
 9066POPC   NC345623   2.032   0.419   5.555
 9066POPC   PO445624   1.995   0.405   5.855
 9066POPC   GL145625   1.978   0.446   6.155
 9066POPC   GL245626   1.842   0.420   6.155
 9066POPC   C1A45627   1.979   0.483   6.455
 9066POPC   D2A45628   2.011   0.403   6.755
 9066POPC   C3A45629   2.017   0.390   7.055
 9066POPC   C4A45630   1.999   0.442   7.355
 9066POPC   C1B45631   1.699   0.391   6.455
 9066POPC   C2B45632   1.695   0.427   6.755
 9066POPC   C3B45633   1.787   0.425   7.055
 9066POPC   C4B45634   1.697   0.388   7.355
 9067POPC   NC345635  11.333  14.410   5.555
 9067POPC   PO445636  11.312  14.388   5.855
 9067POPC   GL145637  11.303  14.382   6.155
 9067POPC   GL245638  11.179  14.421   6.155
 9067POPC   C1A45639  11.262  14.381   6.455
 9067POPC   D2A45640  11.260  14.432   6.755
 9067POPC   C3A45641  11.307  14.423   7.055
 9067POPC   C4A45642  11.305  14.404   7.355
 9067POPC   C1B45643  11.053  14.421   6.455
 9067POPC   C2B45644  11.059  14.387   6.755
 9067POPC   C3B45645  11.005  14.378   7.055
 9067POPC   C4B45646  11.063  14.417   7.355
 9068POPC   NC345647   5.835  32.291   5.555
 9068POPC   PO445648   5.891  32.231   5.855
 9068POPC   GL145649   5.872  32.268   6.155
 9068POPC   GL245650   5.716  32.322   6.155
 9068POPC   C1A45651   5.863  32.236   6.455
 9068POPC   D2A45652   5.919  32.248   6.755
 9068POPC   C3A45653   5.910  32.217   7.055
 9068POPC   C4A45654   5.909  32.206   7.355
 9068POPC   C1B45655   5.643  32.296   6.455
 9068POPC   C2B45656   5.649  32.322   6.755
 9068POPC   C3B45657   5.618  32.348   7.055
 9068POPC   C4B45658   5.628  32.294   7.355
 9069POPC   NC345659  43.865  35.315   5.555
 9069POPC   PO445660  43.846  35.318   5.855
 9069POPC   GL145661  43.916  35.322   6.155
 9069POPC   GL245662  43.962  35.437   6.155
 9069POPC   C1A45663  43.916  35.389   6.455
 9069POPC   D2A45664  43.872  35.335   6.755
 9069POPC   C3A45665  43.911  35.351   7.055
 9069POPC   C4A45666  43.856  35.334   7.355
 9069POPC   C1B45667  44.081  35.588   6.455
 9069POPC   C2B45668  44.072  35.567   6.755
 9069POPC   C3B45669  44.045  35.583   7.055
 9069POPC   C4B45670  44.051  35.503   7.355
 9070POPC   NC345671   5.093  36.095   5.555
 9070POPC   PO445672   5.120  36.153   5.855
 9070POPC   GL145673   5.096  36.133   6.155
 9070POPC   GL245674   5.053  36.228   6.155
 9070POPC   C1A45675   5.143  36.109   6.455
 9070POPC   D2A45676   5.051  36.126   6.755
 9070POPC   C3A45677   5.108  36.103   7.055
 9070POPC   C4A45678   5.054  36.158   7.355
 9070POPC   C1B45679   5.001  36.361   6.455
 9070POPC   C2B45680   4.960  36.376   6.755
 9070POPC   C3B45681   4.946  36.351   7.055
 9070POPC   C4B45682   4.943  36.333   7.355
 9071POPC   NC345683  15.930  17.496   5.555
 9071POPC   PO445684  15.960  17.507   5.855
 9071POPC   GL145685  15.906  17.492   6.155
 9071POPC   GL245686  16.046  17.623   6.155
 9071POPC   C1A45687  15.964  17.460   6.455
 9071POPC   D2A45688  15.915  17.479   6.755
 9071POPC   C3A45689  15.911  17.509   7.055
 9071POPC   C4A45690  16.005  17.523   7.355
 9071POPC   C1B45691  16.151  17.603   6.455
 9071POPC   C2B45692  16.124  17.596   6.755
 9071POPC   C3B45693  16.119  17.688   7.055
 9071POPC   C4B45694  16.209  17.645   7.355
 9072POPC   NC345695   4.354  29.934   5.555
 9072POPC   PO445696   4.366  29.929   5.855
 9072POPC   GL145697   4.268  29.897   6.155
 9072POPC   GL245698   4.255  30.085   6.155
 9072POPC   C1A45699   4.305  29.951   6.455
 9072POPC   D2A45700   4.350  29.895   6.755
 9072POPC   C3A45701   4.364  29.874   7.055
 9072POPC   C4A45702   4.306  29.880   7.355
 9072POPC   C1B45703   4.266  30.141   6.455
 9072POPC   C2B45704   4.190  30.153   6.755
 9072POPC   C3B45705   4.260  30.177   7.055
 9072POPC   C4B45706   4.201  30.186   7.355
 9073POPC   NC345707  28.342  36.114   5.555
 9073POPC   PO445708  28.353  36.173   5.855
 9073POPC   GL145709  28.358  36.130   6.155
 9073POPC   GL245710  28.446  36.177   6.155
 9073POPC   C1A45711  28.340  36.170   6.455
 9073POPC   D2A45712  28.384  36.166   6.755
 9073POPC   C3A45713  28.391  36.122   7.055
 9073POPC   C4A45714  28.354  36.120   7.355
 9073POPC   C1B45715  28.595  36.287   6.455
 9073POPC   C2B45716  28.575  36.260   6.755
 9073POPC   C3B45717  28.537  36.235   7.055
 9073POPC   C4B45718  28.568  36.263   7.355
 9074POPC   NC345719   6.658   1.218   5.555
 9074POPC   PO445720   6.605   1.164   5.855
 9074POPC   GL145721   6.683   1.237   6.155
 9074POPC   GL245722   6.783   1.246   6.155
 9074POPC   C1A45723   6.628   1.209   6.455
 9074POPC   D2A45724   6.646   1.193   6.755
 9074POPC   C3A45725   6.614   1.192   7.055
 9074POPC   C4A45726   6.596   1.258   7.355
 9074POPC   C1B45727   6.847   1.378   6.455
 9074POPC   C2B45728   6.840   1.360   6.755
 9074POPC   C3B45729   6.851   1.392   7.055
 9074POPC   C4B45730   6.866   1.361   7.355
 9075POPC   NC345731  42.339  38.465   5.555
 9075POPC   PO445732  42.363  38.485   5.855
 9075POPC   GL145733  42.340  38.451   6.155
 9075POPC   GL245734  42.228  38.434   6.155
 9075POPC   C1A45735  42.318  38.496   6.455
 9075POPC   D2A45736  42.376  38.405   6.755
 9075POPC   C3A45737  42.383  38.485   7.055
 9075POPC   C4A45738  42.336  38.415   7.355
 9075POPC   C1B45739  42.085  38.349   6.455
 9075POPC   C2B45740  42.089  38.312   6.755
 9075POPC   C3B45741  42.147  38.347   7.055
 9075POPC   C4B45742  42.110  38.298   7.355
 9076POPC   NC345743  33.847  30.736   5.555
 9076POPC   PO445744  33.778  30.740   5.855
 9076POPC   GL145745  33.809  30.667   6.155
 9076POPC   GL245746  33.777  30.549   6.155
 9076POPC   C1A45747  33.776  30.673   6.455
 9076POPC   D2A45748  33.835  30.718   6.755
 9076POPC   C3A45749  33.790  30.652   7.055
 9076POPC   C4A45750  33.801  30.724   7.355
 9076POPC   C1B45751  33.823  30.453   6.455
 9076POPC   C2B45752  33.833  30.416   6.755
 9076POPC   C3B45753  33.826  30.441   7.055
 9076POPC   C4B45754  33.837  30.473   7.355
 9077POPC   NC345755  23.747  11.342   5.555
 9077POPC   PO445756  23.752  11.318   5.855
 9077POPC   GL145757  23.673  11.345   6.155
 9077POPC   GL245758  23.743  11.149   6.155
 9077POPC   C1A45759  23.722  11.278   6.455
 9077POPC   D2A45760  23.701  11.343   6.755
 9077POPC   C3A45761  23.681  11.302   7.055
 9077POPC   C4A45762  23.711  11.342   7.355
 9077POPC   C1B45763  23.660  11.009   6.455
 9077POPC   C2B45764  23.658  11.028   6.755
 9077POPC   C3B45765  23.637  11.035   7.055
 9077POPC   C4B45766  23.720  11.082   7.355
 9078POPC   NC345767   1.990  14.391   5.555
 9078POPC   PO445768   2.008  14.450   5.855
 9078POPC   GL145769   1.954  14.394   6.155
 9078POPC   GL245770   1.852  14.354   6.155
 9078POPC   C1A45771   1.946  14.425   6.455
 9078POPC   D2A45772   2.024  14.416   6.755
 9078POPC   C3A45773   1.948  14.364   7.055
 9078POPC   C4A45774   2.030  14.412   7.355
 9078POPC   C1B45775   1.776  14.344   6.455
 9078POPC   C2B45776   1.726  14.278   6.755
 9078POPC   C3B45777   1.812  14.276   7.055
 9078POPC   C4B45778   1.773  14.293   7.355
 9079POPC   NC345779   4.356  38.472   5.555
 9079POPC   PO445780   4.276  38.417   5.855
 9079POPC   GL145781   4.344  38.442   6.155
 9079POPC   GL245782   4.242  38.536   6.155
 9079POPC   C1A45783   4.317  38.429   6.455
 9079POPC   D2A45784   4.309  38.448   6.755
 9079POPC   C3A45785   4.330  38.427   7.055
 9079POPC   C4A45786   4.280  38.465   7.355
 9079POPC   C1B45787   4.123  38.621   6.455
 9079POPC   C2B45788   4.175  38.670   6.755
 9079POPC   C3B45789   4.150  38.598   7.055
 9079POPC   C4B45790   4.120  38.678   7.355
 9080POPC   NC345791  22.124  30.725   5.555
 9080POPC   PO445792  22.191  30.745   5.855
 9080POPC   GL145793  22.169  30.699   6.155
 9080POPC   GL245794  22.245  30.723   6.155
 9080POPC   C1A45795  22.178  30.648   6.455
 9080POPC   D2A45796  22.192  30.731   6.755
 9080POPC   C3A45797  22.125  30.699   7.055
 9080POPC   C4A45798  22.118  30.678   7.355
 9080POPC   C1B45799  22.335  30.854   6.455
 9080POPC   C2B45800  22.340  30.779   6.755
 9080POPC   C3B45801  22.374  30.827   7.055
 9080POPC   C4B45802  22.396  30.812   7.355
 9081POPC   NC345803  19.084  36.114   5.555
 9081POPC   PO445804  19.061  36.087   5.855
 9081POPC   GL145805  19.094  36.159   6.155
 9081POPC   GL245806  19.006  36.238   6.155
 9081POPC   C1A45807  19.015  36.106   6.455
 9081POPC   D2A45808  19.022  36.115   6.755
 9081POPC   C3A45809  19.079  36.167   7.055
 9081POPC   C4A45810  19.106  36.153   7.355
 9081POPC   C1B45811  18.988  36.351   6.455
 9081POPC   C2B45812  19.079  36.357   6.755
 9081POPC   C3B45813  19.017  36.379   7.055
 9081POPC   C4B45814  19.084  36.346   7.355
 9082POPC   NC345815  15.934  41.594   5.555
 9082POPC   PO445816  15.930  41.584   5.855
 9082POPC   GL145817  16.001  41.560   6.155
 9082POPC   GL245818  15.880  41.446   6.155
 9082POPC   C1A45819  15.916  41.547   6.455
 9082POPC   D2A45820  15.949  41.564   6.755
 9082POPC   C3A45821  15.985  41.588   7.055
 9082POPC   C4A45822  15.970  41.522   7.355
 9082POPC   C1B45823  15.762  41.351   6.455
 9082POPC   C2B45824  15.782  41.375   6.755
 9082POPC   C3B45825  15.761  41.365   7.055
 9082POPC   C4B45826  15.730  41.428   7.355
 9083POPC   NC345827  15.193  20.658   5.555
 9083POPC   PO445828  15.155  20.569   5.855
 9083POPC   GL145829  15.131  20.657   6.155
 9083POPC   GL245830  15.189  20.775   6.155
 9083POPC   C1A45831  15.198  20.609   6.455
 9083POPC   D2A45832  15.173  20.585   6.755
 9083POPC   C3A45833  15.131  20.591   7.055
 9083POPC   C4A45834  15.195  20.625   7.355
 9083POPC   C1B45835  15.172  20.827   6.455
 9083POPC   C2B45836  15.144  20.849   6.755
 9083POPC   C3B45837  15.195  20.863   7.055
 9083POPC   C4B45838  15.143  20.839   7.355
 9084POPC   NC345839   3.556  36.924   5.555
 9084POPC   PO445840   3.503  36.880   5.855
 9084POPC   GL145841   3.547  36.930   6.155
 9084POPC   GL245842   3.595  37.004   6.155
 9084POPC   C1A45843   3.583  36.869   6.455
 9084POPC   D2A45844   3.580  36.858   6.755
 9084POPC   C3A45845   3.543  36.945   7.055
 9084POPC   C4A45846   3.585  36.927   7.355
 9084POPC   C1B45847   3.591  37.163   6.455
 9084POPC   C2B45848   3.563  37.120   6.755
 9084POPC   C3B45849   3.595  37.146   7.055
 9084POPC   C4B45850   3.564  37.103   7.355
 9085POPC   NC345851  25.236  40.757   5.555
 9085POPC   PO445852  25.271  40.809   5.855
 9085POPC   GL145853  25.221  40.799   6.155
 9085POPC   GL245854  25.154  40.733   6.155
 9085POPC   C1A45855  25.226  40.772   6.455
 9085POPC   D2A45856  25.262  40.820   6.755
 9085POPC   C3A45857  25.219  40.827   7.055
 9085POPC   C4A45858  25.235  40.755   7.355
 9085POPC   C1B45859  25.086  40.709   6.455
 9085POPC   C2B45860  25.019  40.639   6.755
 9085POPC   C3B45861  24.992  40.688   7.055
 9085POPC   C4B45862  25.012  40.679   7.355
 9086POPC   NC345863  35.317   5.904   5.555
 9086POPC   PO445864  35.364   5.832   5.855
 9086POPC   GL145865  35.306   5.829   6.155
 9086POPC   GL245866  35.423   5.916   6.155
 9086POPC   C1A45867  35.399   5.858   6.455
 9086POPC   D2A45868  35.335   5.847   6.755
 9086POPC   C3A45869  35.326   5.893   7.055
 9086POPC   C4A45870  35.375   5.845   7.355
 9086POPC   C1B45871  35.613   6.034   6.455
 9086POPC   C2B45872  35.554   5.954   6.755
 9086POPC   C3B45873  35.545   5.946   7.055
 9086POPC   C4B45874  35.615   5.949   7.355
 9087POPC   NC345875   6.685  36.155   5.555
 9087POPC   PO445876   6.671  36.174   5.855
 9087POPC   GL145877   6.639  36.151   6.155
 9087POPC   GL245878   6.785  36.086   6.155
 9087POPC   C1A45879   6.689  36.104   6.455
 9087POPC   D2A45880   6.611  36.165   6.755
 9087POPC   C3A45881   6.647  36.161   7.055
 9087POPC   C4A45882   6.662  36.104   7.355
 9087POPC   C1B45883   6.878  36.084   6.455
 9087POPC   C2B45884   6.904  36.117   6.755
 9087POPC   C3B45885   6.909  36.124   7.055
 9087POPC   C4B45886   6.849  36.078   7.355
 9088POPC   NC345887   5.855  29.153   5.555
 9088POPC   PO445888   5.918  29.182   5.855
 9088POPC   GL145889   5.880  29.102   6.155
 9088POPC   GL245890   5.703  29.220   6.155
 9088POPC   C1A45891   5.820  29.101   6.455
 9088POPC   D2A45892   5.902  29.115   6.755
 9088POPC   C3A45893   5.847  29.173   7.055
 9088POPC   C4A45894   5.863  29.171   7.355
 9088POPC   C1B45895   5.608  29.184   6.455
 9088POPC   C2B45896   5.596  29.248   6.755
 9088POPC   C3B45897   5.653  29.254   7.055
 9088POPC   C4B45898   5.586  29.205   7.355
 9089POPC   NC345899  19.076  29.119   5.555
 9089POPC   PO445900  19.093  29.124   5.855
 9089POPC   GL145901  19.021  29.112   6.155
 9089POPC   GL245902  18.984  29.081   6.155
 9089POPC   C1A45903  19.022  29.158   6.455
 9089POPC   D2A45904  19.091  29.189   6.755
 9089POPC   C3A45905  19.015  29.168   7.055
 9089POPC   C4A45906  19.092  29.154   7.355
 9089POPC   C1B45907  18.797  29.052   6.455
 9089POPC   C2B45908  18.860  29.059   6.755
 9089POPC   C3B45909  18.846  29.016   7.055
 9089POPC   C4B45910  18.821  28.990   7.355
 9090POPC   NC345911  29.898  12.873   5.555
 9090POPC   PO445912  29.962  12.844   5.855
 9090POPC   GL145913  29.946  12.872   6.155
 9090POPC   GL245914  30.058  12.734   6.155
 9090POPC   C1A45915  29.926  12.865   6.455
 9090POPC   D2A45916  29.957  12.901   6.755
 9090POPC   C3A45917  29.919  12.848   7.055
 9090POPC   C4A45918  29.911  12.854   7.355
 9090POPC   C1B45919  30.124  12.692   6.455
 9090POPC   C2B45920  30.128  12.688   6.755
 9090POPC   C3B45921  30.158  12.686   7.055
 9090POPC   C4B45922  30.155  12.745   7.355
 9091POPC   NC345923  40.808  33.016   5.555
 9091POPC   PO445924  40.782  33.032   5.855
 9091POPC   GL145925  40.753  33.006   6.155
 9091POPC   GL245926  40.768  33.171   6.155
 9091POPC   C1A45927  40.778  32.991   6.455
 9091POPC   D2A45928  40.780  33.035   6.755
 9091POPC   C3A45929  40.748  33.013   7.055
 9091POPC   C4A45930  40.819  33.016   7.355
 9091POPC   C1B45931  40.779  33.294   6.455
 9091POPC   C2B45932  40.721  33.296   6.755
 9091POPC   C3B45933  40.770  33.259   7.055
 9091POPC   C4B45934  40.815  33.229   7.355
 9092POPC   NC345935  33.073  39.248   5.555
 9092POPC   PO445936  32.991  39.239   5.855
 9092POPC   GL145937  32.982  39.235   6.155
 9092POPC   GL245938  32.869  39.263   6.155
 9092POPC   C1A45939  33.055  39.261   6.455
 9092POPC   D2A45940  32.975  39.235   6.755
 9092POPC   C3A45941  33.018  39.200   7.055
 9092POPC   C4A45942  33.036  39.227   7.355
 9092POPC   C1B45943  32.737  39.317   6.455
 9092POPC   C2B45944  32.745  39.305   6.755
 9092POPC   C3B45945  32.807  39.278   7.055
 9092POPC   C4B45946  32.820  39.230   7.355
 9093POPC   NC345947  34.583  11.350   5.555
 9093POPC   PO445948  34.608  11.278   5.855
 9093POPC   GL145949  34.605  11.348   6.155
 9093POPC   GL245950  34.484  11.252   6.155
 9093POPC   C1A45951  34.553  11.332   6.455
 9093POPC   D2A45952  34.578  11.317   6.755
 9093POPC   C3A45953  34.609  11.267   7.055
 9093POPC   C4A45954  34.609  11.335   7.355
 9093POPC   C1B45955  34.355  11.122   6.455
 9093POPC   C2B45956  34.410  11.101   6.755
 9093POPC   C3B45957  34.421  11.105   7.055
 9093POPC   C4B45958  34.341  11.174   7.355
 9094POPC   NC345959  40.792  26.843   5.555
 9094POPC   PO445960  40.762  26.818   5.855
 9094POPC   GL145961  40.780  26.822   6.155
 9094POPC   GL245962  40.664  26.739   6.155
 9094POPC   C1A45963  40.760  26.829   6.455
 9094POPC   D2A45964  40.797  26.790   6.755
 9094POPC   C3A45965  40.733  26.792   7.055
 9094POPC   C4A45966  40.769  26.801   7.355
 9094POPC   C1B45967  40.554  26.702   6.455
 9094POPC   C2B45968  40.533  26.699   6.755
 9094POPC   C3B45969  40.565  26.747   7.055
 9094POPC   C4B45970  40.554  26.739   7.355
 9095POPC   NC345971  13.627  33.025   5.555
 9095POPC   PO445972  13.655  33.038   5.855
 9095POPC   GL145973  13.659  33.041   6.155
 9095POPC   GL245974  13.707  33.010   6.155
 9095POPC   C1A45975  13.601  33.007   6.455
 9095POPC   D2A45976  13.641  33.033   6.755
 9095POPC   C3A45977  13.598  33.059   7.055
 9095POPC   C4A45978  13.660  33.000   7.355
 9095POPC   C1B45979  13.833  33.065   6.455
 9095POPC   C2B45980  13.853  33.047   6.755
 9095POPC   C3B45981  13.875  33.093   7.055
 9095POPC   C4B45982  13.898  33.110   7.355
 9096POPC   NC345983   7.373   3.504   5.555
 9096POPC   PO445984   7.414   3.536   5.855
 9096POPC   GL145985   7.386   3.572   6.155
 9096POPC   GL245986   7.586   3.520   6.155
 9096POPC   C1A45987   7.428   3.587   6.455
 9096POPC   D2A45988   7.420   3.539   6.755
 9096POPC   C3A45989   7.408   3.551   7.055
 9096POPC   C4A45990   7.405   3.577   7.355
 9096POPC   C1B45991   7.620   3.603   6.455
 9096POPC   C2B45992   7.625   3.565   6.755
 9096POPC   C3B45993   7.617   3.569   7.055
 9096POPC   C4B45994   7.710   3.552   7.355
 9097POPC   NC345995   3.585  19.856   5.555
 9097POPC   PO445996   3.517  19.848   5.855
 9097POPC   GL145997   3.554  19.801   6.155
 9097POPC   GL245998   3.523  19.712   6.155
 9097POPC   C1A45999   3.495  19.787   6.455
 9097POPC   D2A46000   3.532  19.864   6.755
 9097POPC   C3A46001   3.574  19.809   7.055
 9097POPC   C4A46002   3.562  19.858   7.355
 9097POPC   C1B46003   3.429  19.551   6.455
 9097POPC   C2B46004   3.486  19.615   6.755
 9097POPC   C3B46005   3.487  19.642   7.055
 9097POPC   C4B46006   3.466  19.549   7.355
 9098POPC   NC346007  22.915  26.071   5.555
 9098POPC   PO446008  22.920  26.082   5.855
 9098POPC   GL146009  22.890  26.066   6.155
 9098POPC   GL246010  22.873  25.942   6.155
 9098POPC   C1A46011  22.977  26.015   6.455
 9098POPC   D2A46012  22.958  26.083   6.755
 9098POPC   C3A46013  22.894  26.080   7.055
 9098POPC   C4A46014  22.983  26.057   7.355
 9098POPC   C1B46015  22.746  25.850   6.455
 9098POPC   C2B46016  22.737  25.871   6.755
 9098POPC   C3B46017  22.762  25.820   7.055
 9098POPC   C4B46018  22.734  25.871   7.355
 9099POPC   NC346019  39.249  10.533   5.555
 9099POPC   PO446020  39.198  10.500   5.855
 9099POPC   GL146021  39.213  10.532   6.155
 9099POPC   GL246022  39.213  10.432   6.155
 9099POPC   C1A46023  39.256  10.497   6.455
 9099POPC   D2A46024  39.187  10.515   6.755
 9099POPC   C3A46025  39.251  10.558   7.055
 9099POPC   C4A46026  39.256  10.487   7.355
 9099POPC   C1B46027  39.162  10.259   6.455
 9099POPC   C2B46028  39.102  10.269   6.755
 9099POPC   C3B46029  39.156  10.301   7.055
 9099POPC   C4B46030  39.092  10.347   7.355
 9100POPC   NC346031  21.387  13.651   5.555
 9100POPC   PO446032  21.344  13.662   5.855
 9100POPC   GL146033  21.361  13.635   6.155
 9100POPC   GL246034  21.497  13.533   6.155
 9100POPC   C1A46035  21.389  13.642   6.455
 9100POPC   D2A46036  21.431  13.591   6.755
 9100POPC   C3A46037  21.425  13.629   7.055
 9100POPC   C4A46038  21.420  13.623   7.355
 9100POPC   C1B46039  21.555  13.518   6.455
 9100POPC   C2B46040  21.560  13.490   6.755
 9100POPC   C3B46041  21.620  13.516   7.055
 9100POPC   C4B46042  21.565  13.499   7.355
 9101POPC   NC346043   7.459  13.591   5.555
 9101POPC   PO446044   7.373  13.586   5.855
 9101POPC   GL146045   7.436  13.670   6.155
 9101POPC   GL246046   7.323  13.679   6.155
 9101POPC   C1A46047   7.408  13.614   6.455
 9101POPC   D2A46048   7.389  13.604   6.755
 9101POPC   C3A46049   7.429  13.659   7.055
 9101POPC   C4A46050   7.406  13.650   7.355
 9101POPC   C1B46051   7.187  13.826   6.455
 9101POPC   C2B46052   7.195  13.816   6.755
 9101POPC   C3B46053   7.250  13.745   7.055
 9101POPC   C4B46054   7.183  13.767   7.355
 9102POPC   NC346055  31.436  40.791   5.555
 9102POPC   PO446056  31.434  40.816   5.855
 9102POPC   GL146057  31.451  40.785   6.155
 9102POPC   GL246058  31.403  40.653   6.155
 9102POPC   C1A46059  31.464  40.803   6.455
 9102POPC   D2A46060  31.475  40.780   6.755
 9102POPC   C3A46061  31.515  40.825   7.055
 9102POPC   C4A46062  31.486  40.757   7.355
 9102POPC   C1B46063  31.388  40.575   6.455
 9102POPC   C2B46064  31.342  40.534   6.755
 9102POPC   C3B46065  31.351  40.591   7.055
 9102POPC   C4B46066  31.412  40.601   7.355
 9103POPC   NC346067  10.564  33.806   5.555
 9103POPC   PO446068  10.508  33.830   5.855
 9103POPC   GL146069  10.500  33.833   6.155
 9103POPC   GL246070  10.559  33.864   6.155
 9103POPC   C1A46071  10.518  33.827   6.455
 9103POPC   D2A46072  10.497  33.767   6.755
 9103POPC   C3A46073  10.477  33.806   7.055
 9103POPC   C4A46074  10.538  33.770   7.355
 9103POPC   C1B46075  10.647  34.034   6.455
 9103POPC   C2B46076  10.693  34.040   6.755
 9103POPC   C3B46077  10.682  33.985   7.055
 9103POPC   C4B46078  10.720  33.962   7.355
 9104POPC   NC346079   5.896   3.574   5.555
 9104POPC   PO446080   5.820   3.515   5.855
 9104POPC   GL146081   5.910   3.560   6.155
 9104POPC   GL246082   5.928   3.437   6.155
 9104POPC   C1A46083   5.825   3.507   6.455
 9104POPC   D2A46084   5.837   3.587   6.755
 9104POPC   C3A46085   5.900   3.587   7.055
 9104POPC   C4A46086   5.841   3.521   7.355
 9104POPC   C1B46087   5.875   3.283   6.455
 9104POPC   C2B46088   5.974   3.317   6.755
 9104POPC   C3B46089   5.909   3.333   7.055
 9104POPC   C4B46090   5.922   3.250   7.355
 9105POPC   NC346091  28.320  38.408   5.555
 9105POPC   PO446092  28.326  38.432   5.855
 9105POPC   GL146093  28.357  38.440   6.155
 9105POPC   GL246094  28.477  38.513   6.155
 9105POPC   C1A46095  28.416  38.459   6.455
 9105POPC   D2A46096  28.414  38.497   6.755
 9105POPC   C3A46097  28.338  38.439   7.055
 9105POPC   C4A46098  28.335  38.456   7.355
 9105POPC   C1B46099  28.538  38.634   6.455
 9105POPC   C2B46100  28.545  38.564   6.755
 9105POPC   C3B46101  28.565  38.643   7.055
 9105POPC   C4B46102  28.537  38.575   7.355
 9106POPC   NC346103  13.597  29.188   5.555
 9106POPC   PO446104  13.628  29.131   5.855
 9106POPC   GL146105  13.616  29.180   6.155
 9106POPC   GL246106  13.613  29.277   6.155
 9106POPC   C1A46107  13.626  29.146   6.455
 9106POPC   D2A46108  13.578  29.193   6.755
 9106POPC   C3A46109  13.638  29.193   7.055
 9106POPC   C4A46110  13.662  29.100   7.355
 9106POPC   C1B46111  13.602  29.368   6.455
 9106POPC   C2B46112  13.613  29.372   6.755
 9106POPC   C3B46113  13.533  29.358   7.055
 9106POPC   C4B46114  13.588  29.383   7.355
 9107POPC   NC346115   5.058  29.917   5.555
 9107POPC   PO446116   5.130  29.952   5.855
 9107POPC   GL146117   5.044  29.930   6.155
 9107POPC   GL246118   5.206  29.995   6.155
 9107POPC   C1A46119   5.064  29.959   6.455
 9107POPC   D2A46120   5.139  29.964   6.755
 9107POPC   C3A46121   5.060  29.949   7.055
 9107POPC   C4A46122   5.137  29.893   7.355
 9107POPC   C1B46123   5.266  30.061   6.455
 9107POPC   C2B46124   5.322  30.061   6.755
 9107POPC   C3B46125   5.311  30.061   7.055
 9107POPC   C4B46126   5.317  30.005   7.355
 9108POPC   NC346127   8.932  18.317   5.555
 9108POPC   PO446128   9.007  18.241   5.855
 9108POPC   GL146129   8.926  18.278   6.155
 9108POPC   GL246130   8.909  18.165   6.155
 9108POPC   C1A46131   8.924  18.332   6.455
 9108POPC   D2A46132   9.007  18.258   6.755
 9108POPC   C3A46133   8.931  18.255   7.055
 9108POPC   C4A46134   8.981  18.245   7.355
 9108POPC   C1B46135   8.889  18.040   6.455
 9108POPC   C2B46136   8.867  18.067   6.755
 9108POPC   C3B46137   8.885  18.071   7.055
 9108POPC   C4B46138   8.923  18.059   7.355
 9109POPC   NC346139   2.016  39.194   5.555
 9109POPC   PO446140   2.022  39.189   5.855
 9109POPC   GL146141   2.039  39.197   6.155
 9109POPC   GL246142   2.010  39.122   6.155
 9109POPC   C1A46143   2.016  39.226   6.455
 9109POPC   D2A46144   1.957  39.264   6.755
 9109POPC   C3A46145   1.975  39.230   7.055
 9109POPC   C4A46146   2.021  39.251   7.355
 9109POPC   C1B46147   2.027  39.034   6.455
 9109POPC   C2B46148   2.011  38.954   6.755
 9109POPC   C3B46149   2.060  39.000   7.055
 9109POPC   C4B46150   2.064  38.950   7.355
 9110POPC   NC346151  33.033  32.292   5.555
 9110POPC   PO446152  33.043  32.263   5.855
 9110POPC   GL146153  33.038  32.272   6.155
 9110POPC   GL246154  33.018  32.151   6.155
 9110POPC   C1A46155  33.024  32.228   6.455
 9110POPC   D2A46156  33.014  32.218   6.755
 9110POPC   C3A46157  33.041  32.223   7.055
 9110POPC   C4A46158  32.994  32.216   7.355
 9110POPC   C1B46159  32.981  32.001   6.455
 9110POPC   C2B46160  32.961  31.967   6.755
 9110POPC   C3B46161  32.968  32.008   7.055
 9110POPC   C4B46162  32.971  31.962   7.355
 9111POPC   NC346163  12.082  38.420   5.555
 9111POPC   PO446164  12.051  38.475   5.855
 9111POPC   GL146165  12.105  38.411   6.155
 9111POPC   GL246166  11.998  38.316   6.155
 9111POPC   C1A46167  12.055  38.446   6.455
 9111POPC   D2A46168  12.081  38.456   6.755
 9111POPC   C3A46169  12.050  38.456   7.055
 9111POPC   C4A46170  12.082  38.456   7.355
 9111POPC   C1B46171  11.982  38.264   6.455
 9111POPC   C2B46172  11.923  38.205   6.755
 9111POPC   C3B46173  11.917  38.241   7.055
 9111POPC   C4B46174  11.994  38.252   7.355
 9112POPC   NC346175   7.444  39.959   5.555
 9112POPC   PO446176   7.439  39.988   5.855
 9112POPC   GL146177   7.431  39.965   6.155
 9112POPC   GL246178   7.363  39.904   6.155
 9112POPC   C1A46179   7.457  40.025   6.455
 9112POPC   D2A46180   7.410  39.960   6.755
 9112POPC   C3A46181   7.421  40.046   7.055
 9112POPC   C4A46182   7.420  40.041   7.355
 9112POPC   C1B46183   7.233  39.825   6.455
 9112POPC   C2B46184   7.267  39.871   6.755
 9112POPC   C3B46185   7.258  39.802   7.055
 9112POPC   C4B46186   7.180  39.866   7.355
 9113POPC   NC346187  32.242  17.486   5.555
 9113POPC   PO446188  32.283  17.461   5.855
 9113POPC   GL146189  32.268  17.496   6.155
 9113POPC   GL246190  32.102  17.517   6.155
 9113POPC   C1A46191  32.250  17.535   6.455
 9113POPC   D2A46192  32.202  17.468   6.755
 9113POPC   C3A46193  32.228  17.461   7.055
 9113POPC   C4A46194  32.279  17.523   7.355
 9113POPC   C1B46195  31.957  17.473   6.455
 9113POPC   C2B46196  31.952  17.457   6.755
 9113POPC   C3B46197  31.964  17.506   7.055
 9113POPC   C4B46198  31.999  17.521   7.355
 9114POPC   NC346199   5.847  13.604   5.555
 9114POPC   PO446200   5.884  13.656   5.855
 9114POPC   GL146201   5.895  13.635   6.155
 9114POPC   GL246202   5.959  13.691   6.155
 9114POPC   C1A46203   5.832  13.593   6.455
 9114POPC   D2A46204   5.878  13.616   6.755
 9114POPC   C3A46205   5.865  13.619   7.055
 9114POPC   C4A46206   5.850  13.657   7.355
 9114POPC   C1B46207   6.010  13.806   6.455
 9114POPC   C2B46208   6.098  13.763   6.755
 9114POPC   C3B46209   6.024  13.843   7.055
 9114POPC   C4B46210   6.052  13.776   7.355
 9115POPC   NC346211  15.970  26.773   5.555
 9115POPC   PO446212  15.935  26.851   5.855
 9115POPC   GL146213  15.964  26.841   6.155
 9115POPC   GL246214  16.031  26.926   6.155
 9115POPC   C1A46215  15.908  26.828   6.455
 9115POPC   D2A46216  15.913  26.810   6.755
 9115POPC   C3A46217  15.924  26.843   7.055
 9115POPC   C4A46218  16.002  26.866   7.355
 9115POPC   C1B46219  16.064  27.055   6.455
 9115POPC   C2B46220  16.067  27.012   6.755
 9115POPC   C3B46221  16.023  27.055   7.055
 9115POPC   C4B46222  16.086  27.008   7.355
 9116POPC   NC346223  27.592  34.585   5.555
 9116POPC   PO446224  27.585  34.547   5.855
 9116POPC   GL146225  27.635  34.570   6.155
 9116POPC   GL246226  27.643  34.672   6.155
 9116POPC   C1A46227  27.613  34.557   6.455
 9116POPC   D2A46228  27.608  34.609   6.755
 9116POPC   C3A46229  27.583  34.623   7.055
 9116POPC   C4A46230  27.613  34.556   7.355
 9116POPC   C1B46231  27.703  34.778   6.455
 9116POPC   C2B46232  27.635  34.823   6.755
 9116POPC   C3B46233  27.701  34.826   7.055
 9116POPC   C4B46234  27.655  34.862   7.355
 9117POPC   NC346235   0.404  42.288   5.555
 9117POPC   PO446236   0.392  42.376   5.855
 9117POPC   GL146237   0.456  42.329   6.155
 9117POPC   GL246238   0.349  42.206   6.155
 9117POPC   C1A46239   0.471  42.301   6.455
 9117POPC   D2A46240   0.430  42.373   6.755
 9117POPC   C3A46241   0.393  42.377   7.055
 9117POPC   C4A46242   0.460  42.323   7.355
 9117POPC   C1B46243   0.286  42.148   6.455
 9117POPC   C2B46244   0.224  42.154   6.755
 9117POPC   C3B46245   0.287  42.150   7.055
 9117POPC   C4B46246   0.248  42.125   7.355
 9118POPC   NC346247  10.490  14.415   5.555
 9118POPC   PO446248  10.485  14.372   5.855
 9118POPC   GL146249  10.526  14.445   6.155
 9118POPC   GL246250  10.400  14.456   6.155
 9118POPC   C1A46251  10.570  14.450   6.455
 9118POPC   D2A46252  10.525  14.439   6.755
 9118POPC   C3A46253  10.525  14.381   7.055
 9118POPC   C4A46254  10.565  14.354   7.355
 9118POPC   C1B46255  10.294  14.556   6.455
 9118POPC   C2B46256  10.331  14.493   6.755
 9118POPC   C3B46257  10.342  14.477   7.055
 9118POPC   C4B46258  10.280  14.473   7.355
 9119POPC   NC346259  33.019  33.822   5.555
 9119POPC   PO446260  32.985  33.829   5.855
 9119POPC   GL146261  33.010  33.826   6.155
 9119POPC   GL246262  32.892  33.770   6.155
 9119POPC   C1A46263  33.004  33.840   6.455
 9119POPC   D2A46264  32.998  33.770   6.755
 9119POPC   C3A46265  33.045  33.762   7.055
 9119POPC   C4A46266  33.011  33.792   7.355
 9119POPC   C1B46267  32.807  33.711   6.455
 9119POPC   C2B46268  32.805  33.721   6.755
 9119POPC   C3B46269  32.806  33.748   7.055
 9119POPC   C4B46270  32.742  33.712   7.355
 9120POPC   NC346271  33.056  12.078   5.555
 9120POPC   PO446272  32.978  12.045   5.855
 9120POPC   GL146273  32.984  12.040   6.155
 9120POPC   GL246274  32.873  11.978   6.155
 9120POPC   C1A46275  33.056  12.107   6.455
 9120POPC   D2A46276  32.982  12.103   6.755
 9120POPC   C3A46277  33.061  12.084   7.055
 9120POPC   C4A46278  33.041  12.109   7.355
 9120POPC   C1B46279  32.836  12.000   6.455
 9120POPC   C2B46280  32.838  11.956   6.755
 9120POPC   C3B46281  32.833  11.953   7.055
 9120POPC   C4B46282  32.808  11.945   7.355
 9121POPC   NC346283  40.006  15.969   5.555
 9121POPC   PO446284  40.019  15.999   5.855
 9121POPC   GL146285  40.055  15.937   6.155
 9121POPC   GL246286  40.014  15.819   6.155
 9121POPC   C1A46287  39.979  15.927   6.455
 9121POPC   D2A46288  40.034  15.978   6.755
 9121POPC   C3A46289  39.968  16.003   7.055
 9121POPC   C4A46290  39.963  15.998   7.355
 9121POPC   C1B46291  40.010  15.676   6.455
 9121POPC   C2B46292  39.937  15.667   6.755
 9121POPC   C3B46293  39.924  15.669   7.055
 9121POPC   C4B46294  39.981  15.660   7.355
 9122POPC   NC346295   1.947  44.684   5.555
 9122POPC   PO446296   2.025  44.680   5.855
 9122POPC   GL146297   1.955  44.647   6.155
 9122POPC   GL246298   1.961  44.795   6.155
 9122POPC   C1A46299   2.003  44.693   6.455
 9122POPC   D2A46300   2.001  44.709   6.755
 9122POPC   C3A46301   1.998  44.646   7.055
 9122POPC   C4A46302   1.942  44.674   7.355
 9122POPC   C1B46303   1.922  44.920   6.455
 9122POPC   C2B46304   1.965  44.873   6.755
 9122POPC   C3B46305   1.905  44.875   7.055
 9122POPC   C4B46306   1.979  44.895   7.355
 9123POPC   NC346307  43.135  33.823   5.555
 9123POPC   PO446308  43.080  33.847   5.855
 9123POPC   GL146309  43.074  33.787   6.155
 9123POPC   GL246310  43.015  33.770   6.155
 9123POPC   C1A46311  43.076  33.825   6.455
 9123POPC   D2A46312  43.139  33.774   6.755
 9123POPC   C3A46313  43.130  33.809   7.055
 9123POPC   C4A46314  43.068  33.796   7.355
 9123POPC   C1B46315  42.865  33.675   6.455
 9123POPC   C2B46316  42.858  33.628   6.755
 9123POPC   C3B46317  42.933  33.637   7.055
 9123POPC   C4B46318  42.864  33.694   7.355
 9124POPC   NC346319  11.329  38.445   5.555
 9124POPC   PO446320  11.278  38.410   5.855
 9124POPC   GL146321  11.340  38.449   6.155
 9124POPC   GL246322  11.377  38.375   6.155
 9124POPC   C1A46323  11.319  38.412   6.455
 9124POPC   D2A46324  11.313  38.496   6.755
 9124POPC   C3A46325  11.290  38.432   7.055
 9124POPC   C4A46326  11.322  38.484   7.355
 9124POPC   C1B46327  11.468  38.279   6.455
 9124POPC   C2B46328  11.441  38.278   6.755
 9124POPC   C3B46329  11.464  38.298   7.055
 9124POPC   C4B46330  11.500  38.224   7.355
 9125POPC   NC346331  39.215  27.635   5.555
 9125POPC   PO446332  39.256  27.640   5.855
 9125POPC   GL146333  39.247  27.589   6.155
 9125POPC   GL246334  39.213  27.678   6.155
 9125POPC   C1A46335  39.233  27.587   6.455
 9125POPC   D2A46336  39.221  27.563   6.755
 9125POPC   C3A46337  39.260  27.601   7.055
 9125POPC   C4A46338  39.239  27.627   7.355
 9125POPC   C1B46339  39.187  27.831   6.455
 9125POPC   C2B46340  39.268  27.809   6.755
 9125POPC   C3B46341  39.190  27.807   7.055
 9125POPC   C4B46342  39.265  27.793   7.355
 9126POPC   NC346343  22.930  43.124   5.555
 9126POPC   PO446344  22.894  43.151   5.855
 9126POPC   GL146345  22.973  43.132   6.155
 9126POPC   GL246346  22.805  43.154   6.155
 9126POPC   C1A46347  22.945  43.117   6.455
 9126POPC   D2A46348  22.954  43.069   6.755
 9126POPC   C3A46349  22.895  43.088   7.055
 9126POPC   C4A46350  22.921  43.107   7.355
 9126POPC   C1B46351  22.664  43.174   6.455
 9126POPC   C2B46352  22.644  43.164   6.755
 9126POPC   C3B46353  22.672  43.113   7.055
 9126POPC   C4B46354  22.686  43.136   7.355
 9127POPC   NC346355   5.121  12.854   5.555
 9127POPC   PO446356   5.119  12.885   5.855
 9127POPC   GL146357   5.053  12.820   6.155
 9127POPC   GL246358   5.010  12.815   6.155
 9127POPC   C1A46359   5.129  12.887   6.455
 9127POPC   D2A46360   5.107  12.829   6.755
 9127POPC   C3A46361   5.086  12.815   7.055
 9127POPC   C4A46362   5.108  12.864   7.355
 9127POPC   C1B46363   4.943  12.683   6.455
 9127POPC   C2B46364   4.917  12.681   6.755
 9127POPC   C3B46365   4.874  12.687   7.055
 9127POPC   C4B46366   4.893  12.710   7.355
 9128POPC   NC346367   9.729  43.861   5.555
 9128POPC   PO446368   9.746  43.867   5.855
 9128POPC   GL146369   9.721  43.898   6.155
 9128POPC   GL246370   9.710  44.033   6.155
 9128POPC   C1A46371   9.731  43.842   6.455
 9128POPC   D2A46372   9.775  43.923   6.755
 9128POPC   C3A46373   9.745  43.871   7.055
 9128POPC   C4A46374   9.748  43.899   7.355
 9128POPC   C1B46375   9.620  44.083   6.455
 9128POPC   C2B46376   9.665  44.092   6.755
 9128POPC   C3B46377   9.623  44.094   7.055
 9128POPC   C4B46378   9.643  44.165   7.355
 9129POPC   NC346379  35.366  29.143   5.555
 9129POPC   PO446380  35.306  29.171   5.855
 9129POPC   GL146381  35.389  29.189   6.155
 9129POPC   GL246382  35.502  29.141   6.155
 9129POPC   C1A46383  35.396  29.194   6.455
 9129POPC   D2A46384  35.331  29.131   6.755
 9129POPC   C3A46385  35.370  29.187   7.055
 9129POPC   C4A46386  35.382  29.097   7.355
 9129POPC   C1B46387  35.623  29.031   6.455
 9129POPC   C2B46388  35.559  29.096   6.755
 9129POPC   C3B46389  35.628  29.079   7.055
 9129POPC   C4B46390  35.626  29.085   7.355
 9130POPC   NC346391  10.483  40.733   5.555
 9130POPC   PO446392  10.553  40.750   5.855
 9130POPC   GL146393  10.518  40.795   6.155
 9130POPC   GL246394  10.659  40.773   6.155
 9130POPC   C1A46395  10.488  40.818   6.455
 9130POPC   D2A46396  10.549  40.786   6.755
 9130POPC   C3A46397  10.530  40.832   7.055
 9130POPC   C4A46398  10.479  40.737   7.355
 9130POPC   C1B46399  10.754  40.777   6.455
 9130POPC   C2B46400  10.749  40.788   6.755
 9130POPC   C3B46401  10.751  40.798   7.055
 9130POPC   C4B46402  10.814  40.746   7.355
 9131POPC   NC346403   0.446  37.707   5.555
 9131POPC   PO446404   0.435  37.649   5.855
 9131POPC   GL146405   0.395  37.684   6.155
 9131POPC   GL246406   0.279  37.696   6.155
 9131POPC   C1A46407   0.450  37.705   6.455
 9131POPC   D2A46408   0.432  37.641   6.755
 9131POPC   C3A46409   0.460  37.632   7.055
 9131POPC   C4A46410   0.404  37.665   7.355
 9131POPC   C1B46411   0.174  37.803   6.455
 9131POPC   C2B46412   0.176  37.732   6.755
 9131POPC   C3B46413   0.240  37.756   7.055
 9131POPC   C4B46414   0.231  37.773   7.355
 9132POPC   NC346415  39.999  22.892   5.555
 9132POPC   PO446416  39.972  22.932   5.855
 9132POPC   GL146417  39.986  22.926   6.155
 9132POPC   GL246418  39.913  23.013   6.155
 9132POPC   C1A46419  40.001  22.918   6.455
 9132POPC   D2A46420  39.962  22.977   6.755
 9132POPC   C3A46421  39.957  22.894   7.055
 9132POPC   C4A46422  40.049  22.977   7.355
 9132POPC   C1B46423  39.803  23.028   6.455
 9132POPC   C2B46424  39.761  23.093   6.755
 9132POPC   C3B46425  39.803  23.092   7.055
 9132POPC   C4B46426  39.818  23.081   7.355
 9133POPC   NC346427   8.222  39.207   5.555
 9133POPC   PO446428   8.165  39.188   5.855
 9133POPC   GL146429   8.232  39.234   6.155
 9133POPC   GL246430   8.130  39.083   6.155
 9133POPC   C1A46431   8.228  39.245   6.455
 9133POPC   D2A46432   8.233  39.209   6.755
 9133POPC   C3A46433   8.165  39.238   7.055
 9133POPC   C4A46434   8.166  39.252   7.355
 9133POPC   C1B46435   8.133  38.974   6.455
 9133POPC   C2B46436   8.157  38.982   6.755
 9133POPC   C3B46437   8.083  38.991   7.055
 9133POPC   C4B46438   8.163  39.040   7.355
 9134POPC   NC346439  10.509  22.949   5.555
 9134POPC   PO446440  10.555  22.900   5.855
 9134POPC   GL146441  10.529  22.921   6.155
 9134POPC   GL246442  10.542  22.803   6.155
 9134POPC   C1A46443  10.550  22.888   6.455
 9134POPC   D2A46444  10.508  22.909   6.755
 9134POPC   C3A46445  10.574  22.893   7.055
 9134POPC   C4A46446  10.481  22.954   7.355
 9134POPC   C1B46447  10.567  22.641   6.455
 9134POPC   C2B46448  10.580  22.710   6.755
 9134POPC   C3B46449  10.499  22.690   7.055
 9134POPC   C4B46450  10.538  22.714   7.355
 9135POPC   NC346451  16.771  24.446   5.555
 9135POPC   PO446452  16.779  24.532   5.855
 9135POPC   GL146453  16.718  24.491   6.155
 9135POPC   GL246454  16.820  24.588   6.155
 9135POPC   C1A46455  16.726  24.446   6.455
 9135POPC   D2A46456  16.765  24.476   6.755
 9135POPC   C3A46457  16.692  24.511   7.055
 9135POPC   C4A46458  16.719  24.452   7.355
 9135POPC   C1B46459  16.997  24.570   6.455
 9135POPC   C2B46460  16.995  24.624   6.755
 9135POPC   C3B46461  16.969  24.653   7.055
 9135POPC   C4B46462  16.921  24.650   7.355
 9136POPC   NC346463  36.886  11.267   5.555
 9136POPC   PO446464  36.914  11.343   5.855
 9136POPC   GL146465  36.894  11.287   6.155
 9136POPC   GL246466  36.927  11.434   6.155
 9136POPC   C1A46467  36.928  11.292   6.455
 9136POPC   D2A46468  36.907  11.267   6.755
 9136POPC   C3A46469  36.871  11.304   7.055
 9136POPC   C4A46470  36.911  11.268   7.355
 9136POPC   C1B46471  36.881  11.540   6.455
 9136POPC   C2B46472  36.888  11.564   6.755
 9136POPC   C3B46473  36.878  11.586   7.055
 9136POPC   C4B46474  36.945  11.569   7.355
 9137POPC   NC346475  16.683   9.739   5.555
 9137POPC   PO446476  16.734   9.708   5.855
 9137POPC   GL146477  16.737   9.725   6.155
 9137POPC   GL246478  16.784   9.647   6.155
 9137POPC   C1A46479  16.757   9.778   6.455
 9137POPC   D2A46480  16.764   9.795   6.755
 9137POPC   C3A46481  16.730   9.771   7.055
 9137POPC   C4A46482  16.752   9.771   7.355
 9137POPC   C1B46483  16.862   9.604   6.455
 9137POPC   C2B46484  16.938   9.595   6.755
 9137POPC   C3B46485  16.917   9.557   7.055
 9137POPC   C4B46486  16.875   9.576   7.355
 9138POPC   NC346487  17.529  42.369   5.555
 9138POPC   PO446488  17.510  42.285   5.855
 9138POPC   GL146489  17.531  42.357   6.155
 9138POPC   GL246490  17.507  42.186   6.155
 9138POPC   C1A46491  17.497  42.383   6.455
 9138POPC   D2A46492  17.507  42.377   6.755
 9138POPC   C3A46493  17.505  42.308   7.055
 9138POPC   C4A46494  17.543  42.370   7.355
 9138POPC   C1B46495  17.509  42.045   6.455
 9138POPC   C2B46496  17.559  42.068   6.755
 9138POPC   C3B46497  17.559  42.060   7.055
 9138POPC   C4B46498  17.566  42.061   7.355
 9139POPC   NC346499  40.744  43.914   5.555
 9139POPC   PO446500  40.742  43.892   5.855
 9139POPC   GL146501  40.793  43.849   6.155
 9139POPC   GL246502  40.718  43.813   6.155
 9139POPC   C1A46503  40.773  43.908   6.455
 9139POPC   D2A46504  40.784  43.935   6.755
 9139POPC   C3A46505  40.791  43.852   7.055
 9139POPC   C4A46506  40.774  43.868   7.355
 9139POPC   C1B46507  40.566  43.751   6.455
 9139POPC   C2B46508  40.621  43.727   6.755
 9139POPC   C3B46509  40.622  43.729   7.055
 9139POPC   C4B46510  40.624  43.760   7.355
 9140POPC   NC346511   8.158  12.074   5.555
 9140POPC   PO446512   8.235  12.085   5.855
 9140POPC   GL146513   8.195  12.057   6.155
 9140POPC   GL246514   8.215  11.934   6.155
 9140POPC   C1A46515   8.233  12.069   6.455
 9140POPC   D2A46516   8.240  12.076   6.755
 9140POPC   C3A46517   8.245  12.106   7.055
 9140POPC   C4A46518   8.222  12.055   7.355
 9140POPC   C1B46519   8.311  11.799   6.455
 9140POPC   C2B46520   8.277  11.824   6.755
 9140POPC   C3B46521   8.312  11.842   7.055
 9140POPC   C4B46522   8.253  11.877   7.355
 9141POPC   NC346523  38.476  12.879   5.555
 9141POPC   PO446524  38.503  12.870   5.855
 9141POPC   GL146525  38.433  12.840   6.155
 9141POPC   GL246526  38.572  12.809   6.155
 9141POPC   C1A46527  38.409  12.851   6.455
 9141POPC   D2A46528  38.477  12.837   6.755
 9141POPC   C3A46529  38.423  12.826   7.055
 9141POPC   C4A46530  38.429  12.817   7.355
 9141POPC   C1B46531  38.750  12.827   6.455
 9141POPC   C2B46532  38.709  12.798   6.755
 9141POPC   C3B46533  38.659  12.782   7.055
 9141POPC   C4B46534  38.737  12.828   7.355
 9142POPC   NC346535  35.321  32.228   5.555
 9142POPC   PO446536  35.385  32.288   5.855
 9142POPC   GL146537  35.324  32.273   6.155
 9142POPC   GL246538  35.358  32.150   6.155
 9142POPC   C1A46539  35.336  32.240   6.455
 9142POPC   D2A46540  35.303  32.219   6.755
 9142POPC   C3A46541  35.382  32.240   7.055
 9142POPC   C4A46542  35.310  32.233   7.355
 9142POPC   C1B46543  35.489  31.972   6.455
 9142POPC   C2B46544  35.432  32.038   6.755
 9142POPC   C3B46545  35.407  31.969   7.055
 9142POPC   C4B46546  35.402  32.034   7.355
 9143POPC   NC346547  39.233  34.547   5.555
 9143POPC   PO446548  39.187  34.559   5.855
 9143POPC   GL146549  39.259  34.590   6.155
 9143POPC   GL246550  39.235  34.505   6.155
 9143POPC   C1A46551  39.260  34.604   6.455
 9143POPC   D2A46552  39.276  34.552   6.755
 9143POPC   C3A46553  39.232  34.558   7.055
 9143POPC   C4A46554  39.262  34.571   7.355
 9143POPC   C1B46555  39.153  34.328   6.455
 9143POPC   C2B46556  39.097  34.301   6.755
 9143POPC   C3B46557  39.096  34.384   7.055
 9143POPC   C4B46558  39.148  34.313   7.355
 9144POPC   NC346559  33.057  43.144   5.555
 9144POPC   PO446560  32.997  43.157   5.855
 9144POPC   GL146561  32.988  43.123   6.155
 9144POPC   GL246562  32.990  43.185   6.155
 9144POPC   C1A46563  33.051  43.082   6.455
 9144POPC   D2A46564  33.050  43.063   6.755
 9144POPC   C3A46565  33.021  43.136   7.055
 9144POPC   C4A46566  33.069  43.114   7.355
 9144POPC   C1B46567  32.818  43.340   6.455
 9144POPC   C2B46568  32.897  43.285   6.755
 9144POPC   C3B46569  32.830  43.298   7.055
 9144POPC   C4B46570  32.876  43.334   7.355
 9145POPC   NC346571  32.211  39.194   5.555
 9145POPC   PO446572  32.262  39.280   5.855
 9145POPC   GL146573  32.254  39.281   6.155
 9145POPC   GL246574  32.097  39.208   6.155
 9145POPC   C1A46575  32.293  39.258   6.455
 9145POPC   D2A46576  32.296  39.205   6.755
 9145POPC   C3A46577  32.295  39.218   7.055
 9145POPC   C4A46578  32.217  39.243   7.355
 9145POPC   C1B46579  32.051  39.093   6.455
 9145POPC   C2B46580  31.994  39.101   6.755
 9145POPC   C3B46581  32.075  39.054   7.055
 9145POPC   C4B46582  32.042  39.077   7.355
 9146POPC   NC346583  14.391  30.745   5.555
 9146POPC   PO446584  14.402  30.670   5.855
 9146POPC   GL146585  14.380  30.726   6.155
 9146POPC   GL246586  14.546  30.632   6.155
 9146POPC   C1A46587  14.424  30.710   6.455
 9146POPC   D2A46588  14.453  30.684   6.755
 9146POPC   C3A46589  14.418  30.695   7.055
 9146POPC   C4A46590  14.449  30.659   7.355
 9146POPC   C1B46591  14.681  30.613   6.455
 9146POPC   C2B46592  14.628  30.634   6.755
 9146POPC   C3B46593  14.650  30.606   7.055
 9146POPC   C4B46594  14.597  30.655   7.355
 9147POPC   NC346595   1.994  33.052   5.555
 9147POPC   PO446596   1.989  33.058   5.855
 9147POPC   GL146597   2.030  33.038   6.155
 9147POPC   GL246598   1.959  33.128   6.155
 9147POPC   C1A46599   1.947  33.053   6.455
 9147POPC   D2A46600   1.968  33.065   6.755
 9147POPC   C3A46601   1.986  32.996   7.055
 9147POPC   C4A46602   2.032  32.989   7.355
 9147POPC   C1B46603   1.958  33.243   6.455
 9147POPC   C2B46604   1.976  33.319   6.755
 9147POPC   C3B46605   1.980  33.305   7.055
 9147POPC   C4B46606   2.004  33.282   7.355
 9148POPC   NC346607  41.566  20.630   5.555
 9148POPC   PO446608  41.540  20.618   5.855
 9148POPC   GL146609  41.530  20.582   6.155
 9148POPC   GL246610  41.713  20.503   6.155
 9148POPC   C1A46611  41.591  20.568   6.455
 9148POPC   D2A46612  41.531  20.579   6.755
 9148POPC   C3A46613  41.586  20.656   7.055
 9148POPC   C4A46614  41.530  20.649   7.355
 9148POPC   C1B46615  41.778  20.537   6.455
 9148POPC   C2B46616  41.824  20.495   6.755
 9148POPC   C3B46617  41.734  20.445   7.055
 9148POPC   C4B46618  41.748  20.472   7.355
 9149POPC   NC346619   3.561   7.435   5.555
 9149POPC   PO446620   3.575   7.406   5.855
 9149POPC   GL146621   3.546   7.374   6.155
 9149POPC   GL246622   3.574   7.531   6.155
 9149POPC   C1A46623   3.562   7.427   6.455
 9149POPC   D2A46624   3.560   7.401   6.755
 9149POPC   C3A46625   3.561   7.467   7.055
 9149POPC   C4A46626   3.498   7.402   7.355
 9149POPC   C1B46627   3.578   7.680   6.455
 9149POPC   C2B46628   3.537   7.633   6.755
 9149POPC   C3B46629   3.613   7.672   7.055
 9149POPC   C4B46630   3.603   7.621   7.355
 9150POPC   NC346631  35.342  40.765   5.555
 9150POPC   PO446632  35.334  40.790   5.855
 9150POPC   GL146633  35.345  40.757   6.155
 9150POPC   GL246634  35.277  40.817   6.155
 9150POPC   C1A46635  35.322  40.756   6.455
 9150POPC   D2A46636  35.384  40.779   6.755
 9150POPC   C3A46637  35.401  40.772   7.055
 9150POPC   C4A46638  35.332  40.810   7.355
 9150POPC   C1B46639  35.098  40.967   6.455
 9150POPC   C2B46640  35.107  40.898   6.755
 9150POPC   C3B46641  35.164  40.948   7.055
 9150POPC   C4B46642  35.113  40.872   7.355
 9151POPC   NC346643  13.622  43.893   5.555
 9151POPC   PO446644  13.642  43.914   5.855
 9151POPC   GL146645  13.660  43.907   6.155
 9151POPC   GL246646  13.659  44.024   6.155
 9151POPC   C1A46647  13.611  43.900   6.455
 9151POPC   D2A46648  13.653  43.895   6.755
 9151POPC   C3A46649  13.635  43.908   7.055
 9151POPC   C4A46650  13.675  43.873   7.355
 9151POPC   C1B46651  13.739  44.087   6.455
 9151POPC   C2B46652  13.781  44.115   6.755
 9151POPC   C3B46653  13.817  44.054   7.055
 9151POPC   C4B46654  13.800  44.055   7.355
 9152POPC   NC346655  28.327  33.842   5.555
 9152POPC   PO446656  28.385  33.791   5.855
 9152POPC   GL146657  28.385  33.816   6.155
 9152POPC   GL246658  28.224  33.748   6.155
 9152POPC   C1A46659  28.396  33.817   6.455
 9152POPC   D2A46660  28.414  33.793   6.755
 9152POPC   C3A46661  28.352  33.804   7.055
 9152POPC   C4A46662  28.414  33.797   7.355
 9152POPC   C1B46663  28.150  33.687   6.455
 9152POPC   C2B46664  28.186  33.634   6.755
 9152POPC   C3B46665  28.139  33.676   7.055
 9152POPC   C4B46666  28.172  33.616   7.355
 9153POPC   NC346667   5.044  31.485   5.555
 9153POPC   PO446668   5.102  31.481   5.855
 9153POPC   GL146669   5.128  31.482   6.155
 9153POPC   GL246670   5.034  31.397   6.155
 9153POPC   C1A46671   5.117  31.430   6.455
 9153POPC   D2A46672   5.076  31.472   6.755
 9153POPC   C3A46673   5.121  31.514   7.055
 9153POPC   C4A46674   5.106  31.486   7.355
 9153POPC   C1B46675   5.060  31.207   6.455
 9153POPC   C2B46676   5.037  31.253   6.755
 9153POPC   C3B46677   5.073  31.253   7.055
 9153POPC   C4B46678   5.053  31.267   7.355
 9154POPC   NC346679  33.816   6.615   5.555
 9154POPC   PO446680  33.818   6.690   5.855
 9154POPC   GL146681  33.839   6.653   6.155
 9154POPC   GL246682  33.674   6.789   6.155
 9154POPC   C1A46683  33.751   6.632   6.455
 9154POPC   D2A46684  33.817   6.646   6.755
 9154POPC   C3A46685  33.823   6.683   7.055
 9154POPC   C4A46686  33.816   6.645   7.355
 9154POPC   C1B46687  33.605   6.829   6.455
 9154POPC   C2B46688  33.637   6.847   6.755
 9154POPC   C3B46689  33.658   6.824   7.055
 9154POPC   C4B46690  33.637   6.835   7.355
 9155POPC   NC346691  42.315  32.991   5.555
 9155POPC   PO446692  42.308  33.034   5.855
 9155POPC   GL146693  42.348  33.066   6.155
 9155POPC   GL246694  42.493  33.020   6.155
 9155POPC   C1A46695  42.350  33.056   6.455
 9155POPC   D2A46696  42.377  33.037   6.755
 9155POPC   C3A46697  42.307  33.018   7.055
 9155POPC   C4A46698  42.352  33.002   7.355
 9155POPC   C1B46699  42.529  33.082   6.455
 9155POPC   C2B46700  42.533  33.121   6.755
 9155POPC   C3B46701  42.600  33.111   7.055
 9155POPC   C4B46702  42.544  33.077   7.355
 9156POPC   NC346703  42.304   7.415   5.555
 9156POPC   PO446704  42.384   7.387   5.855
 9156POPC   GL146705  42.312   7.374   6.155
 9156POPC   GL246706  42.377   7.537   6.155
 9156POPC   C1A46707  42.286   7.427   6.455
 9156POPC   D2A46708  42.328   7.404   6.755
 9156POPC   C3A46709  42.331   7.378   7.055
 9156POPC   C4A46710  42.289   7.444   7.355
 9156POPC   C1B46711  42.372   7.718   6.455
 9156POPC   C2B46712  42.354   7.676   6.755
 9156POPC   C3B46713  42.385   7.711   7.055
 9156POPC   C4B46714  42.301   7.674   7.355
 9157POPC   NC346715   9.020   8.151   5.555
 9157POPC   PO446716   8.983   8.225   5.855
 9157POPC   GL146717   8.934   8.194   6.155
 9157POPC   GL246718   8.901   8.064   6.155
 9157POPC   C1A46719   8.963   8.194   6.455
 9157POPC   D2A46720   8.976   8.169   6.755
 9157POPC   C3A46721   8.959   8.219   7.055
 9157POPC   C4A46722   8.944   8.156   7.355
 9157POPC   C1B46723   8.881   7.950   6.455
 9157POPC   C2B46724   8.912   7.921   6.755
 9157POPC   C3B46725   8.906   8.004   7.055
 9157POPC   C4B46726   8.866   7.962   7.355
 9158POPC   NC346727  29.155  18.267   5.555
 9158POPC   PO446728  29.136  18.258   5.855
 9158POPC   GL146729  29.163  18.270   6.155
 9158POPC   GL246730  29.027  18.172   6.155
 9158POPC   C1A46731  29.127  18.246   6.455
 9158POPC   D2A46732  29.158  18.319   6.755
 9158POPC   C3A46733  29.152  18.242   7.055
 9158POPC   C4A46734  29.118  18.290   7.355
 9158POPC   C1B46735  29.016  18.124   6.455
 9158POPC   C2B46736  29.034  18.078   6.755
 9158POPC   C3B46737  28.963  18.057   7.055
 9158POPC   C4B46738  29.012  18.078   7.355
 9159POPC   NC346739  43.126   8.238   5.555
 9159POPC   PO446740  43.075   8.154   5.855
 9159POPC   GL146741  43.148   8.240   6.155
 9159POPC   GL246742  43.100   8.075   6.155
 9159POPC   C1A46743  43.113   8.164   6.455
 9159POPC   D2A46744  43.079   8.161   6.755
 9159POPC   C3A46745  43.132   8.226   7.055
 9159POPC   C4A46746  43.150   8.228   7.355
 9159POPC   C1B46747  42.981   7.995   6.455
 9159POPC   C2B46748  42.978   7.968   6.755
 9159POPC   C3B46749  43.019   7.972   7.055
 9159POPC   C4B46750  42.993   7.999   7.355
 9160POPC   NC346751   5.830   6.648   5.555
 9160POPC   PO446752   5.857   6.601   5.855
 9160POPC   GL146753   5.885   6.604   6.155
 9160POPC   GL246754   5.704   6.649   6.155
 9160POPC   C1A46755   5.880   6.676   6.455
 9160POPC   D2A46756   5.895   6.663   6.755
 9160POPC   C3A46757   5.914   6.691   7.055
 9160POPC   C4A46758   5.870   6.605   7.355
 9160POPC   C1B46759   5.628   6.659   6.455
 9160POPC   C2B46760   5.631   6.625   6.755
 9160POPC   C3B46761   5.658   6.641   7.055
 9160POPC   C4B46762   5.575   6.627   7.355
 9161POPC   NC346763  38.436  33.003   5.555
 9161POPC   PO446764  38.471  33.035   5.855
 9161POPC   GL146765  38.460  32.984   6.155
 9161POPC   GL246766  38.486  33.112   6.155
 9161POPC   C1A46767  38.432  33.040   6.455
 9161POPC   D2A46768  38.461  32.982   6.755
 9161POPC   C3A46769  38.484  33.033   7.055
 9161POPC   C4A46770  38.422  33.026   7.355
 9161POPC   C1B46771  38.538  33.213   6.455
 9161POPC   C2B46772  38.504  33.234   6.755
 9161POPC   C3B46773  38.500  33.253   7.055
 9161POPC   C4B46774  38.527  33.249   7.355
 9162POPC   NC346775   4.327  29.178   5.555
 9162POPC   PO446776   4.365  29.169   5.855
 9162POPC   GL146777   4.366  29.144   6.155
 9162POPC   GL246778   4.285  29.231   6.155
 9162POPC   C1A46779   4.279  29.105   6.455
 9162POPC   D2A46780   4.274  29.097   6.755
 9162POPC   C3A46781   4.358  29.173   7.055
 9162POPC   C4A46782   4.280  29.180   7.355
 9162POPC   C1B46783   4.191  29.395   6.455
 9162POPC   C2B46784   4.159  29.361   6.755
 9162POPC   C3B46785   4.156  29.331   7.055
 9162POPC   C4B46786   4.224  29.394   7.355
 9163POPC   NC346787  17.534  28.365   5.555
 9163POPC   PO446788  17.509  28.398   5.855
 9163POPC   GL146789  17.526  28.415   6.155
 9163POPC   GL246790  17.502  28.211   6.155
 9163POPC   C1A46791  17.512  28.397   6.455
 9163POPC   D2A46792  17.489  28.348   6.755
 9163POPC   C3A46793  17.543  28.331   7.055
 9163POPC   C4A46794  17.495  28.389   7.355
 9163POPC   C1B46795  17.560  28.097   6.455
 9163POPC   C2B46796  17.536  28.116   6.755
 9163POPC   C3B46797  17.514  28.091   7.055
 9163POPC   C4B46798  17.534  28.111   7.355
 9164POPC   NC346799  23.752  10.520   5.555
 9164POPC   PO446800  23.669  10.489   5.855
 9164POPC   GL146801  23.749  10.569   6.155
 9164POPC   GL246802  23.646  10.573   6.155
 9164POPC   C1A46803  23.759  10.573   6.455
 9164POPC   D2A46804  23.668  10.523   6.755
 9164POPC   C3A46805  23.728  10.511   7.055
 9164POPC   C4A46806  23.715  10.550   7.355
 9164POPC   C1B46807  23.493  10.657   6.455
 9164POPC   C2B46808  23.562  10.658   6.755
 9164POPC   C3B46809  23.548  10.656   7.055
 9164POPC   C4B46810  23.556  10.660   7.355
 9165POPC   NC346811   5.837  19.874   5.555
 9165POPC   PO446812   5.832  19.798   5.855
 9165POPC   GL146813   5.856  19.799   6.155
 9165POPC   GL246814   5.909  19.767   6.155
 9165POPC   C1A46815   5.840  19.847   6.455
 9165POPC   D2A46816   5.917  19.824   6.755
 9165POPC   C3A46817   5.834  19.849   7.055
 9165POPC   C4A46818   5.873  19.793   7.355
 9165POPC   C1B46819   6.025  19.619   6.455
 9165POPC   C2B46820   6.002  19.607   6.755
 9165POPC   C3B46821   5.982  19.599   7.055
 9165POPC   C4B46822   5.981  19.640   7.355
 9166POPC   NC346823   5.886  29.921   5.555
 9166POPC   PO446824   5.866  29.872   5.855
 9166POPC   GL146825   5.876  29.967   6.155
 9166POPC   GL246826   5.774  29.932   6.155
 9166POPC   C1A46827   5.882  29.897   6.455
 9166POPC   D2A46828   5.880  29.937   6.755
 9166POPC   C3A46829   5.849  29.928   7.055
 9166POPC   C4A46830   5.916  29.946   7.355
 9166POPC   C1B46831   5.646  29.838   6.455
 9166POPC   C2B46832   5.643  29.851   6.755
 9166POPC   C3B46833   5.665  29.824   7.055
 9166POPC   C4B46834   5.590  29.816   7.355
 9167POPC   NC346835  33.825  29.951   5.555
 9167POPC   PO446836  33.777  29.919   5.855
 9167POPC   GL146837  33.804  29.959   6.155
 9167POPC   GL246838  33.737  29.819   6.155
 9167POPC   C1A46839  33.766  29.882   6.455
 9167POPC   D2A46840  33.779  29.952   6.755
 9167POPC   C3A46841  33.806  29.922   7.055
 9167POPC   C4A46842  33.820  29.914   7.355
 9167POPC   C1B46843  33.656  29.774   6.455
 9167POPC   C2B46844  33.566  29.728   6.755
 9167POPC   C3B46845  33.586  29.757   7.055
 9167POPC   C4B46846  33.611  29.796   7.355
 9168POPC   NC346847   4.313  40.764   5.555
 9168POPC   PO446848   4.328  40.821   5.855
 9168POPC   GL146849   4.315  40.750   6.155
 9168POPC   GL246850   4.217  40.841   6.155
 9168POPC   C1A46851   4.363  40.758   6.455
 9168POPC   D2A46852   4.317  40.819   6.755
 9168POPC   C3A46853   4.286  40.796   7.055
 9168POPC   C4A46854   4.270  40.788   7.355
 9168POPC   C1B46855   4.110  40.942   6.455
 9168POPC   C2B46856   4.117  40.917   6.755
 9168POPC   C3B46857   4.079  40.932   7.055
 9168POPC   C4B46858   4.112  40.894   7.355
 9169POPC   NC346859  29.100  11.327   5.555
 9169POPC   PO446860  29.117  11.341   5.855
 9169POPC   GL146861  29.100  11.280   6.155
 9169POPC   GL246862  29.154  11.369   6.155
 9169POPC   C1A46863  29.105  11.324   6.455
 9169POPC   D2A46864  29.095  11.267   6.755
 9169POPC   C3A46865  29.181  11.322   7.055
 9169POPC   C4A46866  29.153  11.327   7.355
 9169POPC   C1B46867  29.231  11.518   6.455
 9169POPC   C2B46868  29.217  11.537   6.755
 9169POPC   C3B46869  29.267  11.544   7.055
 9169POPC   C4B46870  29.213  11.533   7.355
 9170POPC   NC346871  35.315  18.274   5.555
 9170POPC   PO446872  35.393  18.316   5.855
 9170POPC   GL146873  35.321  18.275   6.155
 9170POPC   GL246874  35.189  18.206   6.155
 9170POPC   C1A46875  35.372  18.303   6.455
 9170POPC   D2A46876  35.328  18.271   6.755
 9170POPC   C3A46877  35.338  18.295   7.055
 9170POPC   C4A46878  35.354  18.303   7.355
 9170POPC   C1B46879  35.121  18.194   6.455
 9170POPC   C2B46880  35.079  18.239   6.755
 9170POPC   C3B46881  35.108  18.234   7.055
 9170POPC   C4B46882  35.128  18.173   7.355
 9171POPC   NC346883  15.954  12.055   5.555
 9171POPC   PO446884  15.942  12.087   5.855
 9171POPC   GL146885  15.950  12.045   6.155
 9171POPC   GL246886  15.857  12.182   6.155
 9171POPC   C1A46887  15.986  12.044   6.455
 9171POPC   D2A46888  15.928  12.060   6.755
 9171POPC   C3A46889  15.955  12.095   7.055
 9171POPC   C4A46890  15.924  12.119   7.355
 9171POPC   C1B46891  15.789  12.299   6.455
 9171POPC   C2B46892  15.762  12.271   6.755
 9171POPC   C3B46893  15.807  12.300   7.055
 9171POPC   C4B46894  15.788  12.315   7.355
 9172POPC   NC346895  42.328  28.331   5.555
 9172POPC   PO446896  42.349  28.364   5.855
 9172POPC   GL146897  42.339  28.365   6.155
 9172POPC   GL246898  42.277  28.231   6.155
 9172POPC   C1A46899  42.326  28.389   6.455
 9172POPC   D2A46900  42.381  28.394   6.755
 9172POPC   C3A46901  42.332  28.383   7.055
 9172POPC   C4A46902  42.312  28.344   7.355
 9172POPC   C1B46903  42.294  28.082   6.455
 9172POPC   C2B46904  42.289  28.073   6.755
 9172POPC   C3B46905  42.322  28.133   7.055
 9172POPC   C4B46906  42.307  28.141   7.355
 9173POPC   NC346907  44.675  36.122   5.555
 9173POPC   PO446908  44.660  36.169   5.855
 9173POPC   GL146909  44.666  36.173   6.155
 9173POPC   GL246910  44.745  36.134   6.155
 9173POPC   C1A46911  44.625  36.079   6.455
 9173POPC   D2A46912  44.705  36.116   6.755
 9173POPC   C3A46913  44.649  36.137   7.055
 9173POPC   C4A46914  44.616  36.174   7.355
 9173POPC   C1B46915  44.907  36.112   6.455
 9173POPC   C2B46916  44.911  36.109   6.755
 9173POPC   C3B46917  44.897  36.125   7.055
 9173POPC   C4B46918  44.952  36.176   7.355
 9174POPC   NC346919   7.449  15.170   5.555
 9174POPC   PO446920   7.388  15.156   5.855
 9174POPC   GL146921   7.410  15.176   6.155
 9174POPC   GL246922   7.344  15.082   6.155
 9174POPC   C1A46923   7.446  15.179   6.455
 9174POPC   D2A46924   7.388  15.212   6.755
 9174POPC   C3A46925   7.419  15.204   7.055
 9174POPC   C4A46926   7.464  15.202   7.355
 9174POPC   C1B46927   7.296  14.923   6.455
 9174POPC   C2B46928   7.288  14.982   6.755
 9174POPC   C3B46929   7.300  14.901   7.055
 9174POPC   C4B46930   7.294  14.977   7.355
 9175POPC   NC346931   8.928  31.522   5.555
 9175POPC   PO446932   9.022  31.479   5.855
 9175POPC   GL146933   8.940  31.468   6.155
 9175POPC   GL246934   9.076  31.441   6.155
 9175POPC   C1A46935   9.022  31.519   6.455
 9175POPC   D2A46936   8.944  31.492   6.755
 9175POPC   C3A46937   8.931  31.463   7.055
 9175POPC   C4A46938   9.019  31.496   7.355
 9175POPC   C1B46939   9.160  31.361   6.455
 9175POPC   C2B46940   9.169  31.366   6.755
 9175POPC   C3B46941   9.151  31.404   7.055
 9175POPC   C4B46942   9.213  31.333   7.355
 9176POPC   NC346943   9.784   0.407   5.555
 9176POPC   PO446944   9.733   0.446   5.855
 9176POPC   GL146945   9.781   0.439   6.155
 9176POPC   GL246946   9.883   0.476   6.155
 9176POPC   C1A46947   9.767   0.433   6.455
 9176POPC   D2A46948   9.786   0.424   6.755
 9176POPC   C3A46949   9.784   0.400   7.055
 9176POPC   C4A46950   9.710   0.462   7.355
 9176POPC   C1B46951   9.955   0.550   6.455
 9176POPC   C2B46952   9.931   0.537   6.755
 9176POPC   C3B46953   9.987   0.568   7.055
 9176POPC   C4B46954   9.983   0.539   7.355
 9177POPC   NC346955   5.858  11.332   5.555
 9177POPC   PO446956   5.827  11.290   5.855
 9177POPC   GL146957   5.859  11.325   6.155
 9177POPC   GL246958   5.815  11.396   6.155
 9177POPC   C1A46959   5.908  11.325   6.455
 9177POPC   D2A46960   5.850  11.282   6.755
 9177POPC   C3A46961   5.892  11.250   7.055
 9177POPC   C4A46962   5.897  11.281   7.355
 9177POPC   C1B46963   5.710  11.478   6.455
 9177POPC   C2B46964   5.725  11.452   6.755
 9177POPC   C3B46965   5.701  11.479   7.055
 9177POPC   C4B46966   5.678  11.504   7.355
 9178POPC   NC346967   1.993   1.193   5.555
 9178POPC   PO446968   2.014   1.195   5.855
 9178POPC   GL146969   1.983   1.206   6.155
 9178POPC   GL246970   1.926   1.133   6.155
 9178POPC   C1A46971   1.942   1.233   6.455
 9178POPC   D2A46972   1.959   1.223   6.755
 9178POPC   C3A46973   1.977   1.234   7.055
 9178POPC   C4A46974   2.007   1.222   7.355
 9178POPC   C1B46975   1.878   1.015   6.455
 9178POPC   C2B46976   1.909   0.995   6.755
 9178POPC   C3B46977   1.898   1.021   7.055
 9178POPC   C4B46978   1.953   0.988   7.355
 9179POPC   NC346979   2.019  37.699   5.555
 9179POPC   PO446980   2.033  37.630   5.855
 9179POPC   GL146981   2.036  37.691   6.155
 9179POPC   GL246982   2.015  37.781   6.155
 9179POPC   C1A46983   1.985  37.674   6.455
 9179POPC   D2A46984   2.007  37.697   6.755
 9179POPC   C3A46985   1.989  37.721   7.055
 9179POPC   C4A46986   1.959  37.703   7.355
 9179POPC   C1B46987   2.005  37.878   6.455
 9179POPC   C2B46988   2.035  37.898   6.755
 9179POPC   C3B46989   2.004  37.944   7.055
 9179POPC   C4B46990   1.969  37.911   7.355
 9180POPC   NC346991   3.581  33.813   5.555
 9180POPC   PO446992   3.551  33.821   5.855
 9180POPC   GL146993   3.553  33.776   6.155
 9180POPC   GL246994   3.661  33.870   6.155
 9180POPC   C1A46995   3.508  33.778   6.455
 9180POPC   D2A46996   3.585  33.752   6.755
 9180POPC   C3A46997   3.540  33.822   7.055
 9180POPC   C4A46998   3.575  33.762   7.355
 9180POPC   C1B46999   3.744  33.875   6.455
 9180POPC   C2B47000   3.813  33.893   6.755
 9180POPC   C3B47001   3.764  33.905   7.055
 9180POPC   C4B47002   3.814  33.919   7.355
 9181POPC   NC347003   1.946  16.725   5.555
 9181POPC   PO447004   1.963  16.682   5.855
 9181POPC   GL147005   2.036  16.748   6.155
 9181POPC   GL247006   1.952  16.579   6.155
 9181POPC   C1A47007   1.995  16.760   6.455
 9181POPC   D2A47008   1.941  16.690   6.755
 9181POPC   C3A47009   1.945  16.758   7.055
 9181POPC   C4A47010   2.011  16.772   7.355
 9181POPC   C1B47011   1.874  16.537   6.455
 9181POPC   C2B47012   1.894  16.483   6.755
 9181POPC   C3B47013   1.870  16.510   7.055
 9181POPC   C4B47014   1.941  16.530   7.355
 9182POPC   NC347015  39.208  22.957   5.555
 9182POPC   PO447016  39.193  22.942   5.855
 9182POPC   GL147017  39.231  22.897   6.155
 9182POPC   GL247018  39.186  23.036   6.155
 9182POPC   C1A47019  39.236  22.936   6.455
 9182POPC   D2A47020  39.226  22.938   6.755
 9182POPC   C3A47021  39.253  22.929   7.055
 9182POPC   C4A47022  39.267  22.971   7.355
 9182POPC   C1B47023  39.159  23.155   6.455
 9182POPC   C2B47024  39.224  23.227   6.755
 9182POPC   C3B47025  39.197  23.203   7.055
 9182POPC   C4B47026  39.159  23.166   7.355
 9183POPC   NC347027  28.376  31.456   5.555
 9183POPC   PO447028  28.371  31.498   5.855
 9183POPC   GL147029  28.415  31.432   6.155
 9183POPC   GL247030  28.295  31.524   6.155
 9183POPC   C1A47031  28.338  31.493   6.455
 9183POPC   D2A47032  28.411  31.425   6.755
 9183POPC   C3A47033  28.412  31.518   7.055
 9183POPC   C4A47034  28.328  31.514   7.355
 9183POPC   C1B47035  28.087  31.581   6.455
 9183POPC   C2B47036  28.117  31.577   6.755
 9183POPC   C3B47037  28.144  31.548   7.055
 9183POPC   C4B47038  28.142  31.556   7.355
 9184POPC   NC347039  19.103   5.905   5.555
 9184POPC   PO447040  19.094   5.845   5.855
 9184POPC   GL147041  19.085   5.845   6.155
 9184POPC   GL247042  19.211   5.916   6.155
 9184POPC   C1A47043  19.020   5.896   6.455
 9184POPC   D2A47044  19.058   5.886   6.755
 9184POPC   C3A47045  19.023   5.875   7.055
 9184POPC   C4A47046  19.099   5.832   7.355
 9184POPC   C1B47047  19.316   5.970   6.455
 9184POPC   C2B47048  19.316   5.987   6.755
 9184POPC   C3B47049  19.271   5.926   7.055
 9184POPC   C4B47050  19.338   5.970   7.355
 9185POPC   NC347051  29.144  36.086   5.555
 9185POPC   PO447052  29.110  36.140   5.855
 9185POPC   GL147053  29.099  36.162   6.155
 9185POPC   GL247054  29.265  36.050   6.155
 9185POPC   C1A47055  29.141  36.147   6.455
 9185POPC   D2A47056  29.121  36.101   6.755
 9185POPC   C3A47057  29.113  36.168   7.055
 9185POPC   C4A47058  29.138  36.098   7.355
 9185POPC   C1B47059  29.364  36.041   6.455
 9185POPC   C2B47060  29.372  36.051   6.755
 9185POPC   C3B47061  29.391  36.032   7.055
 9185POPC   C4B47062  29.366  36.040   7.355
 9186POPC   NC347063  38.490   6.599   5.555
 9186POPC   PO447064  38.493   6.682   5.855
 9186POPC   GL147065  38.454   6.623   6.155
 9186POPC   GL247066  38.345   6.725   6.155
 9186POPC   C1A47067  38.459   6.608   6.455
 9186POPC   D2A47068  38.418   6.673   6.755
 9186POPC   C3A47069  38.489   6.660   7.055
 9186POPC   C4A47070  38.420   6.671   7.355
 9186POPC   C1B47071  38.338   6.822   6.455
 9186POPC   C2B47072  38.289   6.889   6.755
 9186POPC   C3B47073  38.299   6.818   7.055
 9186POPC   C4B47074  38.311   6.828   7.355
 9187POPC   NC347075  36.886  23.681   5.555
 9187POPC   PO447076  36.944  23.690   5.855
 9187POPC   GL147077  36.874  23.736   6.155
 9187POPC   GL247078  37.022  23.643   6.155
 9187POPC   C1A47079  36.883  23.756   6.455
 9187POPC   D2A47080  36.876  23.748   6.755
 9187POPC   C3A47081  36.865  23.683   7.055
 9187POPC   C4A47082  36.944  23.702   7.355
 9187POPC   C1B47083  37.133  23.556   6.455
 9187POPC   C2B47084  37.044  23.594   6.755
 9187POPC   C3B47085  37.080  23.555   7.055
 9187POPC   C4B47086  37.048  23.513   7.355
 9188POPC   NC347087  40.034  36.886   5.555
 9188POPC   PO447088  40.009  36.869   5.855
 9188POPC   GL147089  39.963  36.945   6.155
 9188POPC   GL247090  39.954  36.820   6.155
 9188POPC   C1A47091  40.023  36.861   6.455
 9188POPC   D2A47092  40.035  36.865   6.755
 9188POPC   C3A47093  39.985  36.945   7.055
 9188POPC   C4A47094  39.964  36.866   7.355
 9188POPC   C1B47095  39.992  36.665   6.455
 9188POPC   C2B47096  40.030  36.604   6.755
 9188POPC   C3B47097  39.984  36.670   7.055
 9188POPC   C4B47098  39.989  36.698   7.355
 9189POPC   NC347099  14.447  29.154   5.555
 9189POPC   PO447100  14.446  29.147   5.855
 9189POPC   GL147101  14.362  29.167   6.155
 9189POPC   GL247102  14.408  29.054   6.155
 9189POPC   C1A47103  14.374  29.133   6.455
 9189POPC   D2A47104  14.422  29.151   6.755
 9189POPC   C3A47105  14.363  29.119   7.055
 9189POPC   C4A47106  14.359  29.147   7.355
 9189POPC   C1B47107  14.417  28.885   6.455
 9189POPC   C2B47108  14.424  28.879   6.755
 9189POPC   C3B47109  14.461  28.943   7.055
 9189POPC   C4B47110  14.468  28.923   7.355
 9190POPC   NC347111  25.313   9.012   5.555
 9190POPC   PO447112  25.258   8.973   5.855
 9190POPC   GL147113  25.240   8.976   6.155
 9190POPC   GL247114  25.186   8.838   6.155
 9190POPC   C1A47115  25.282   9.022   6.455
 9190POPC   D2A47116  25.225   8.980   6.755
 9190POPC   C3A47117  25.304   9.008   7.055
 9190POPC   C4A47118  25.241   8.962   7.355
 9190POPC   C1B47119  25.115   8.788   6.455
 9190POPC   C2B47120  25.124   8.750   6.755
 9190POPC   C3B47121  25.127   8.799   7.055
 9190POPC   C4B47122  25.118   8.728   7.355
 9191POPC   NC347123  43.061  41.594   5.555
 9191POPC   PO447124  43.099  41.529   5.855
 9191POPC   GL147125  43.061  41.567   6.155
 9191POPC   GL247126  42.953  41.542   6.155
 9191POPC   C1A47127  43.092  41.514   6.455
 9191POPC   D2A47128  43.126  41.536   6.755
 9191POPC   C3A47129  43.122  41.534   7.055
 9191POPC   C4A47130  43.079  41.558   7.355
 9191POPC   C1B47131  42.845  41.463   6.455
 9191POPC   C2B47132  42.916  41.494   6.755
 9191POPC   C3B47133  42.915  41.419   7.055
 9191POPC   C4B47134  42.875  41.463   7.355
 9192POPC   NC347135  25.277  10.506   5.555
 9192POPC   PO447136  25.278  10.494   5.855
 9192POPC   GL147137  25.307  10.564   6.155
 9192POPC   GL247138  25.433  10.523   6.155
 9192POPC   C1A47139  25.277  10.550   6.455
 9192POPC   D2A47140  25.238  10.484   6.755
 9192POPC   C3A47141  25.240  10.541   7.055
 9192POPC   C4A47142  25.222  10.526   7.355
 9192POPC   C1B47143  25.472  10.520   6.455
 9192POPC   C2B47144  25.557  10.531   6.755
 9192POPC   C3B47145  25.491  10.490   7.055
 9192POPC   C4B47146  25.535  10.437   7.355
 9193POPC   NC347147   8.197  22.171   5.555
 9193POPC   PO447148   8.182  22.126   5.855
 9193POPC   GL147149   8.218  22.171   6.155
 9193POPC   GL247150   8.270  22.310   6.155
 9193POPC   C1A47151   8.228  22.145   6.455
 9193POPC   D2A47152   8.232  22.130   6.755
 9193POPC   C3A47153   8.202  22.161   7.055
 9193POPC   C4A47154   8.164  22.195   7.355
 9193POPC   C1B47155   8.254  22.404   6.455
 9193POPC   C2B47156   8.294  22.376   6.755
 9193POPC   C3B47157   8.226  22.439   7.055
 9193POPC   C4B47158   8.245  22.439   7.355
 9194POPC   NC347159  41.537  19.064   5.555
 9194POPC   PO447160  41.540  19.080   5.855
 9194POPC   GL147161  41.604  19.044   6.155
 9194POPC   GL247162  41.508  19.162   6.155
 9194POPC   C1A47163  41.549  19.026   6.455
 9194POPC   D2A47164  41.521  19.053   6.755
 9194POPC   C3A47165  41.528  19.081   7.055
 9194POPC   C4A47166  41.550  19.081   7.355
 9194POPC   C1B47167  41.528  19.277   6.455
 9194POPC   C2B47168  41.570  19.267   6.755
 9194POPC   C3B47169  41.554  19.274   7.055
 9194POPC   C4B47170  41.580  19.352   7.355
 9195POPC   NC347171  14.388  39.191   5.555
 9195POPC   PO447172  14.423  39.184   5.855
 9195POPC   GL147173  14.450  39.267   6.155
 9195POPC   GL247174  14.494  39.120   6.155
 9195POPC   C1A47175  14.438  39.280   6.455
 9195POPC   D2A47176  14.431  39.184   6.755
 9195POPC   C3A47177  14.443  39.271   7.055
 9195POPC   C4A47178  14.369  39.197   7.355
 9195POPC   C1B47179  14.463  38.988   6.455
 9195POPC   C2B47180  14.444  39.002   6.755
 9195POPC   C3B47181  14.507  39.015   7.055
 9195POPC   C4B47182  14.449  39.019   7.355
 9196POPC   NC347183  24.490  23.756   5.555
 9196POPC   PO447184  24.480  23.745   5.855
 9196POPC   GL147185  24.476  23.754   6.155
 9196POPC   GL247186  24.428  23.559   6.155
 9196POPC   C1A47187  24.509  23.763   6.455
 9196POPC   D2A47188  24.517  23.743   6.755
 9196POPC   C3A47189  24.459  23.743   7.055
 9196POPC   C4A47190  24.514  23.733   7.355
 9196POPC   C1B47191  24.452  23.514   6.455
 9196POPC   C2B47192  24.447  23.467   6.755
 9196POPC   C3B47193  24.429  23.491   7.055
 9196POPC   C4B47194  24.476  23.440   7.355
 9197POPC   NC347195  17.503  37.640   5.555
 9197POPC   PO447196  17.464  37.725   5.855
 9197POPC   GL147197  17.476  37.702   6.155
 9197POPC   GL247198  17.603  37.727   6.155
 9197POPC   C1A47199  17.510  37.694   6.455
 9197POPC   D2A47200  17.467  37.671   6.755
 9197POPC   C3A47201  17.461  37.660   7.055
 9197POPC   C4A47202  17.522  37.693   7.355
 9197POPC   C1B47203  17.707  37.911   6.455
 9197POPC   C2B47204  17.677  37.891   6.755
 9197POPC   C3B47205  17.707  37.820   7.055
 9197POPC   C4B47206  17.657  37.886   7.355
 9198POPC   NC347207   3.557   3.516   5.555
 9198POPC   PO447208   3.522   3.512   5.855
 9198POPC   GL147209   3.516   3.539   6.155
 9198POPC   GL247210   3.628   3.412   6.155
 9198POPC   C1A47211   3.505   3.544   6.455
 9198POPC   D2A47212   3.519   3.567   6.755
 9198POPC   C3A47213   3.513   3.543   7.055
 9198POPC   C4A47214   3.499   3.494   7.355
 9198POPC   C1B47215   3.597   3.350   6.455
 9198POPC   C2B47216   3.632   3.324   6.755
 9198POPC   C3B47217   3.646   3.350   7.055
 9198POPC   C4B47218   3.649   3.274   7.355
 9199POPC   NC347219  21.345  26.855   5.555
 9199POPC   PO447220  21.409  26.794   5.855
 9199POPC   GL147221  21.421  26.845   6.155
 9199POPC   GL247222  21.230  26.829   6.155
 9199POPC   C1A47223  21.405  26.784   6.455
 9199POPC   D2A47224  21.378  26.824   6.755
 9199POPC   C3A47225  21.350  26.815   7.055
 9199POPC   C4A47226  21.372  26.794   7.355
 9199POPC   C1B47227  21.190  26.875   6.455
 9199POPC   C2B47228  21.159  26.911   6.755
 9199POPC   C3B47229  21.152  26.876   7.055
 9199POPC   C4B47230  21.132  26.864   7.355
 9200POPC   NC347231  10.519  43.142   5.555
 9200POPC   PO447232  10.551  43.113   5.855
 9200POPC   GL147233  10.532  43.137   6.155
 9200POPC   GL247234  10.411  43.005   6.155
 9200POPC   C1A47235  10.479  43.122   6.455
 9200POPC   D2A47236  10.479  43.119   6.755
 9200POPC   C3A47237  10.564  43.078   7.055
 9200POPC   C4A47238  10.556  43.085   7.355
 9200POPC   C1B47239  10.349  42.943   6.455
 9200POPC   C2B47240  10.414  42.929   6.755
 9200POPC   C3B47241  10.399  42.875   7.055
 9200POPC   C4B47242  10.411  42.933   7.355
 9201POPC   NC347243  18.253  40.801   5.555
 9201POPC   PO447244  18.265  40.767   5.855
 9201POPC   GL147245  18.328  40.787   6.155
 9201POPC   GL247246  18.334  40.644   6.155
 9201POPC   C1A47247  18.323  40.793   6.455
 9201POPC   D2A47248  18.304  40.733   6.755
 9201POPC   C3A47249  18.330  40.794   7.055
 9201POPC   C4A47250  18.330  40.754   7.355
 9201POPC   C1B47251  18.308  40.543   6.455
 9201POPC   C2B47252  18.353  40.584   6.755
 9201POPC   C3B47253  18.320  40.547   7.055
 9201POPC   C4B47254  18.343  40.552   7.355
 9202POPC   NC347255  16.714  35.353   5.555
 9202POPC   PO447256  16.697  35.395   5.855
 9202POPC   GL147257  16.693  35.375   6.155
 9202POPC   GL247258  16.721  35.436   6.155
 9202POPC   C1A47259  16.723  35.375   6.455
 9202POPC   D2A47260  16.758  35.322   6.755
 9202POPC   C3A47261  16.683  35.367   7.055
 9202POPC   C4A47262  16.684  35.341   7.355
 9202POPC   C1B47263  16.732  35.645   6.455
 9202POPC   C2B47264  16.773  35.596   6.755
 9202POPC   C3B47265  16.743  35.648   7.055
 9202POPC   C4B47266  16.735  35.606   7.355
 9203POPC   NC347267   5.919  12.032   5.555
 9203POPC   PO447268   5.824  12.034   5.855
 9203POPC   GL147269   5.824  12.033   6.155
 9203POPC   GL247270   6.036  12.131   6.155
 9203POPC   C1A47271   5.820  12.092   6.455
 9203POPC   D2A47272   5.894  12.124   6.755
 9203POPC   C3A47273   5.879  12.062   7.055
 9203POPC   C4A47274   5.913  12.111   7.355
 9203POPC   C1B47275   6.126  12.140   6.455
 9203POPC   C2B47276   6.107  12.097   6.755
 9203POPC   C3B47277   6.083  12.081   7.055
 9203POPC   C4B47278   6.106  12.130   7.355
 9204POPC   NC347279  10.568  31.472   5.555
 9204POPC   PO447280  10.541  31.487   5.855
 9204POPC   GL147281  10.486  31.477   6.155
 9204POPC   GL247282  10.431  31.571   6.155
 9204POPC   C1A47283  10.518  31.474   6.455
 9204POPC   D2A47284  10.565  31.495   6.755
 9204POPC   C3A47285  10.563  31.440   7.055
 9204POPC   C4A47286  10.540  31.452   7.355
 9204POPC   C1B47287  10.426  31.662   6.455
 9204POPC   C2B47288  10.343  31.664   6.755
 9204POPC   C3B47289  10.344  31.658   7.055
 9204POPC   C4B47290  10.403  31.665   7.355
 9205POPC   NC347291  38.482  29.903   5.555
 9205POPC   PO447292  38.491  29.881   5.855
 9205POPC   GL147293  38.455  29.891   6.155
 9205POPC   GL247294  38.449  30.037   6.155
 9205POPC   C1A47295  38.411  29.901   6.455
 9205POPC   D2A47296  38.445  29.970   6.755
 9205POPC   C3A47297  38.426  29.920   7.055
 9205POPC   C4A47298  38.411  29.956   7.355
 9205POPC   C1B47299  38.506  30.141   6.455
 9205POPC   C2B47300  38.504  30.158   6.755
 9205POPC   C3B47301  38.434  30.146   7.055
 9205POPC   C4B47302  38.434  30.208   7.355
 9206POPC   NC347303  13.600  36.938   5.555
 9206POPC   PO447304  13.632  36.897   5.855
 9206POPC   GL147305  13.603  36.907   6.155
 9206POPC   GL247306  13.746  36.790   6.155
 9206POPC   C1A47307  13.665  36.912   6.455
 9206POPC   D2A47308  13.653  36.875   6.755
 9206POPC   C3A47309  13.667  36.875   7.055
 9206POPC   C4A47310  13.661  36.882   7.355
 9206POPC   C1B47311  13.872  36.777   6.455
 9206POPC   C2B47312  13.870  36.801   6.755
 9206POPC   C3B47313  13.803  36.775   7.055
 9206POPC   C4B47314  13.834  36.740   7.355
 9207POPC   NC347315  18.320   8.158   5.555
 9207POPC   PO447316  18.309   8.235   5.855
 9207POPC   GL147317  18.245   8.163   6.155
 9207POPC   GL247318  18.311   8.028   6.155
 9207POPC   C1A47319  18.325   8.190   6.455
 9207POPC   D2A47320  18.302   8.192   6.755
 9207POPC   C3A47321  18.268   8.232   7.055
 9207POPC   C4A47322  18.316   8.210   7.355
 9207POPC   C1B47323  18.310   7.974   6.455
 9207POPC   C2B47324  18.241   7.938   6.755
 9207POPC   C3B47325  18.292   7.972   7.055
 9207POPC   C4B47326  18.222   7.935   7.355
 9208POPC   NC347327  44.624   7.443   5.555
 9208POPC   PO447328  44.697   7.456   5.855
 9208POPC   GL147329  44.708   7.461   6.155
 9208POPC   GL247330  44.604   7.546   6.155
 9208POPC   C1A47331  44.656   7.399   6.455
 9208POPC   D2A47332  44.616   7.400   6.755
 9208POPC   C3A47333  44.673   7.419   7.055
 9208POPC   C4A47334  44.647   7.461   7.355
 9208POPC   C1B47335  44.603   7.670   6.455
 9208POPC   C2B47336  44.575   7.716   6.755
 9208POPC   C3B47337  44.654   7.657   7.055
 9208POPC   C4B47338  44.606   7.710   7.355
 9209POPC   NC347339   6.596  12.884   5.555
 9209POPC   PO447340   6.669  12.821   5.855
 9209POPC   GL147341   6.684  12.884   6.155
 9209POPC   GL247342   6.509  12.896   6.155
 9209POPC   C1A47343   6.629  12.895   6.455
 9209POPC   D2A47344   6.645  12.844   6.755
 9209POPC   C3A47345   6.677  12.874   7.055
 9209POPC   C4A47346   6.631  12.875   7.355
 9209POPC   C1B47347   6.419  12.826   6.455
 9209POPC   C2B47348   6.351  12.888   6.755
 9209POPC   C3B47349   6.433  12.869   7.055
 9209POPC   C4B47350   6.406  12.852   7.355
 9210POPC   NC347351  12.878  35.309   5.555
 9210POPC   PO447352  12.890  35.307   5.855
 9210POPC   GL147353  12.851  35.354   6.155
 9210POPC   GL247354  12.977  35.412   6.155
 9210POPC   C1A47355  12.877  35.332   6.455
 9210POPC   D2A47356  12.898  35.348   6.755
 9210POPC   C3A47357  12.881  35.389   7.055
 9210POPC   C4A47358  12.849  35.314   7.355
 9210POPC   C1B47359  13.099  35.384   6.455
 9210POPC   C2B47360  13.098  35.377   6.755
 9210POPC   C3B47361  13.091  35.367   7.055
 9210POPC   C4B47362  13.054  35.405   7.355
 9211POPC   NC347363  23.707  24.498   5.555
 9211POPC   PO447364  23.709  24.470   5.855
 9211POPC   GL147365  23.688  24.539   6.155
 9211POPC   GL247366  23.848  24.505   6.155
 9211POPC   C1A47367  23.724  24.459   6.455
 9211POPC   D2A47368  23.670  24.499   6.755
 9211POPC   C3A47369  23.763  24.521   7.055
 9211POPC   C4A47370  23.678  24.484   7.355
 9211POPC   C1B47371  23.959  24.518   6.455
 9211POPC   C2B47372  24.004  24.541   6.755
 9211POPC   C3B47373  23.912  24.560   7.055
 9211POPC   C4B47374  23.908  24.505   7.355
 9212POPC   NC347375  42.289   3.556   5.555
 9212POPC   PO447376  42.353   3.547   5.855
 9212POPC   GL147377  42.342   3.517   6.155
 9212POPC   GL247378  42.259   3.594   6.155
 9212POPC   C1A47379  42.336   3.504   6.455
 9212POPC   D2A47380  42.368   3.569   6.755
 9212POPC   C3A47381  42.309   3.544   7.055
 9212POPC   C4A47382  42.340   3.537   7.355
 9212POPC   C1B47383  42.185   3.702   6.455
 9212POPC   C2B47384  42.138   3.705   6.755
 9212POPC   C3B47385  42.160   3.746   7.055
 9212POPC   C4B47386  42.196   3.740   7.355
 9213POPC   NC347387  10.481   1.996   5.555
 9213POPC   PO447388  10.555   1.986   5.855
 9213POPC   GL147389  10.541   1.996   6.155
 9213POPC   GL247390  10.527   1.849   6.155
 9213POPC   C1A47391  10.533   1.953   6.455
 9213POPC   D2A47392  10.488   2.021   6.755
 9213POPC   C3A47393  10.506   2.013   7.055
 9213POPC   C4A47394  10.516   1.992   7.355
 9213POPC   C1B47395  10.589   1.772   6.455
 9213POPC   C2B47396  10.603   1.761   6.755
 9213POPC   C3B47397  10.561   1.769   7.055
 9213POPC   C4B47398  10.594   1.767   7.355
 9214POPC   NC347399  31.510  43.885   5.555
 9214POPC   PO447400  31.489  43.838   5.855
 9214POPC   GL147401  31.462  43.919   6.155
 9214POPC   GL247402  31.516  43.770   6.155
 9214POPC   C1A47403  31.510  43.934   6.455
 9214POPC   D2A47404  31.493  43.903   6.755
 9214POPC   C3A47405  31.515  43.887   7.055
 9214POPC   C4A47406  31.487  43.857   7.355
 9214POPC   C1B47407  31.606  43.624   6.455
 9214POPC   C2B47408  31.638  43.667   6.755
 9214POPC   C3B47409  31.560  43.714   7.055
 9214POPC   C4B47410  31.623  43.675   7.355
 9215POPC   NC347411  23.735   9.779   5.555
 9215POPC   PO447412  23.734   9.772   5.855
 9215POPC   GL147413  23.725   9.786   6.155
 9215POPC   GL247414  23.707   9.647   6.155
 9215POPC   C1A47415  23.702   9.714   6.455
 9215POPC   D2A47416  23.717   9.704   6.755
 9215POPC   C3A47417  23.761   9.796   7.055
 9215POPC   C4A47418  23.721   9.777   7.355
 9215POPC   C1B47419  23.593   9.520   6.455
 9215POPC   C2B47420  23.578   9.569   6.755
 9215POPC   C3B47421  23.581   9.502   7.055
 9215POPC   C4B47422  23.641   9.554   7.355
 9216POPC   NC347423  36.146  19.847   5.555
 9216POPC   PO447424  36.097  19.838   5.855
 9216POPC   GL147425  36.131  19.880   6.155
 9216POPC   GL247426  36.235  19.759   6.155
 9216POPC   C1A47427  36.144  19.797   6.455
 9216POPC   D2A47428  36.156  19.823   6.755
 9216POPC   C3A47429  36.176  19.794   7.055
 9216POPC   C4A47430  36.133  19.858   7.355
 9216POPC   C1B47431  36.203  19.655   6.455
 9216POPC   C2B47432  36.254  19.608   6.755
 9216POPC   C3B47433  36.236  19.607   7.055
 9216POPC   C4B47434  36.205  19.591   7.355
 9217POPC   NC347435   8.218  36.124   5.555
 9217POPC   PO447436   8.225  36.117   5.855
 9217POPC   GL147437   8.241  36.145   6.155
 9217POPC   GL247438   8.187  36.277   6.155
 9217POPC   C1A47439   8.209  36.115   6.455
 9217POPC   D2A47440   8.206  36.140   6.755
 9217POPC   C3A47441   8.229  36.173   7.055
 9217POPC   C4A47442   8.213  36.113   7.355
 9217POPC   C1B47443   8.221  36.401   6.455
 9217POPC   C2B47444   8.274  36.368   6.755
 9217POPC   C3B47445   8.197  36.353   7.055
 9217POPC   C4B47446   8.273  36.407   7.355
 9218POPC   NC347447  43.160  22.962   5.555
 9218POPC   PO447448  43.113  22.952   5.855
 9218POPC   GL147449  43.101  22.889   6.155
 9218POPC   GL247450  43.158  22.832   6.155
 9218POPC   C1A47451  43.114  22.961   6.455
 9218POPC   D2A47452  43.061  22.934   6.755
 9218POPC   C3A47453  43.113  22.947   7.055
 9218POPC   C4A47454  43.154  22.896   7.355
 9218POPC   C1B47455  43.146  22.715   6.455
 9218POPC   C2B47456  43.115  22.649   6.755
 9218POPC   C3B47457  43.118  22.652   7.055
 9218POPC   C4B47458  43.159  22.655   7.355
 9219POPC   NC347459  15.935  42.292   5.555
 9219POPC   PO447460  15.987  42.341   5.855
 9219POPC   GL147461  15.931  42.375   6.155
 9219POPC   GL247462  16.041  42.379   6.155
 9219POPC   C1A47463  15.929  42.296   6.455
 9219POPC   D2A47464  15.977  42.300   6.755
 9219POPC   C3A47465  15.937  42.309   7.055
 9219POPC   C4A47466  15.956  42.297   7.355
 9219POPC   C1B47467  16.157  42.447   6.455
 9219POPC   C2B47468  16.189  42.450   6.755
 9219POPC   C3B47469  16.133  42.502   7.055
 9219POPC   C4B47470  16.155  42.479   7.355
 9220POPC   NC347471  13.676  18.307   5.555
 9220POPC   PO447472  13.584  18.241   5.855
 9220POPC   GL147473  13.623  18.309   6.155
 9220POPC   GL247474  13.746  18.299   6.155
 9220POPC   C1A47475  13.603  18.243   6.455
 9220POPC   D2A47476  13.580  18.259   6.755
 9220POPC   C3A47477  13.581  18.292   7.055
 9220POPC   C4A47478  13.578  18.270   7.355
 9220POPC   C1B47479  13.835  18.386   6.455
 9220POPC   C2B47480  13.859  18.385   6.755
 9220POPC   C3B47481  13.893  18.372   7.055
 9220POPC   C4B47482  13.888  18.371   7.355
 9221POPC   NC347483  15.915  40.053   5.555
 9221POPC   PO447484  15.963  39.975   5.855
 9221POPC   GL147485  15.959  39.994   6.155
 9221POPC   GL247486  15.990  39.868   6.155
 9221POPC   C1A47487  15.979  40.026   6.455
 9221POPC   D2A47488  15.929  40.018   6.755
 9221POPC   C3A47489  15.979  40.039   7.055
 9221POPC   C4A47490  15.928  40.043   7.355
 9221POPC   C1B47491  16.046  39.797   6.455
 9221POPC   C2B47492  16.079  39.752   6.755
 9221POPC   C3B47493  16.031  39.818   7.055
 9221POPC   C4B47494  16.034  39.732   7.355
 9222POPC   NC347495  29.937  19.832   5.555
 9222POPC   PO447496  29.927  19.879   5.855
 9222POPC   GL147497  29.871  19.812   6.155
 9222POPC   GL247498  30.016  19.895   6.155
 9222POPC   C1A47499  29.880  19.858   6.455
 9222POPC   D2A47500  29.906  19.813   6.755
 9222POPC   C3A47501  29.940  19.826   7.055
 9222POPC   C4A47502  29.967  19.801   7.355
 9222POPC   C1B47503  30.091  19.992   6.455
 9222POPC   C2B47504  30.161  19.996   6.755
 9222POPC   C3B47505  30.145  19.963   7.055
 9222POPC   C4B47506  30.132  19.954   7.355
 9223POPC   NC347507  26.858  24.468   5.555
 9223POPC   PO447508  26.866  24.472   5.855
 9223POPC   GL147509  26.798  24.499   6.155
 9223POPC   GL247510  26.897  24.428   6.155
 9223POPC   C1A47511  26.807  24.450   6.455
 9223POPC   D2A47512  26.827  24.470   6.755
 9223POPC   C3A47513  26.835  24.498   7.055
 9223POPC   C4A47514  26.827  24.445   7.355
 9223POPC   C1B47515  27.065  24.393   6.455
 9223POPC   C2B47516  27.106  24.394   6.755
 9223POPC   C3B47517  27.018  24.387   7.055
 9223POPC   C4B47518  27.056  24.462   7.355
 9224POPC   NC347519  21.381   8.932   5.555
 9224POPC   PO447520  21.358   8.995   5.855
 9224POPC   GL147521  21.375   8.994   6.155
 9224POPC   GL247522  21.498   9.070   6.155
 9224POPC   C1A47523  21.385   8.996   6.455
 9224POPC   D2A47524  21.367   8.934   6.755
 9224POPC   C3A47525  21.425   8.989   7.055
 9224POPC   C4A47526  21.434   8.967   7.355
 9224POPC   C1B47527  21.582   9.117   6.455
 9224POPC   C2B47528  21.537   9.156   6.755
 9224POPC   C3B47529  21.609   9.092   7.055
 9224POPC   C4B47530  21.613   9.126   7.355
 9225POPC   NC347531  33.799  39.994   5.555
 9225POPC   PO447532  33.787  39.995   5.855
 9225POPC   GL147533  33.768  40.012   6.155
 9225POPC   GL247534  33.892  39.884   6.155
 9225POPC   C1A47535  33.772  40.030   6.455
 9225POPC   D2A47536  33.765  39.997   6.755
 9225POPC   C3A47537  33.787  40.007   7.055
 9225POPC   C4A47538  33.778  40.040   7.355
 9225POPC   C1B47539  33.935  39.767   6.455
 9225POPC   C2B47540  33.954  39.777   6.755
 9225POPC   C3B47541  33.883  39.814   7.055
 9225POPC   C4B47542  33.955  39.840   7.355
 9226POPC   NC347543  39.973  40.048   5.555
 9226POPC   PO447544  39.982  39.964   5.855
 9226POPC   GL147545  40.025  40.009   6.155
 9226POPC   GL247546  39.986  39.872   6.155
 9226POPC   C1A47547  39.972  40.005   6.455
 9226POPC   D2A47548  39.991  40.040   6.755
 9226POPC   C3A47549  40.005  40.018   7.055
 9226POPC   C4A47550  40.038  40.051   7.355
 9226POPC   C1B47551  39.860  39.828   6.455
 9226POPC   C2B47552  39.848  39.788   6.755
 9226POPC   C3B47553  39.882  39.775   7.055
 9226POPC   C4B47554  39.862  39.831   7.355
 9227POPC   NC347555  40.830  15.991   5.555
 9227POPC   PO447556  40.813  15.965   5.855
 9227POPC   GL147557  40.804  15.980   6.155
 9227POPC   GL247558  40.790  15.826   6.155
 9227POPC   C1A47559  40.809  15.937   6.455
 9227POPC   D2A47560  40.755  15.955   6.755
 9227POPC   C3A47561  40.754  15.911   7.055
 9227POPC   C4A47562  40.795  15.939   7.355
 9227POPC   C1B47563  40.686  15.717   6.455
 9227POPC   C2B47564  40.749  15.760   6.755
 9227POPC   C3B47565  40.685  15.723   7.055
 9227POPC   C4B47566  40.675  15.666   7.355
 9228POPC   NC347567  18.315  12.092   5.555
 9228POPC   PO447568  18.276  12.096   5.855
 9228POPC   GL147569  18.332  12.043   6.155
 9228POPC   GL247570  18.215  12.214   6.155
 9228POPC   C1A47571  18.264  12.091   6.455
 9228POPC   D2A47572  18.287  12.037   6.755
 9228POPC   C3A47573  18.255  12.094   7.055
 9228POPC   C4A47574  18.302  12.049   7.355
 9228POPC   C1B47575  18.096  12.241   6.455
 9228POPC   C2B47576  18.186  12.296   6.755
 9228POPC   C3B47577  18.127  12.245   7.055
 9228POPC   C4B47578  18.117  12.332   7.355
 9229POPC   NC347579  14.417  43.842   5.555
 9229POPC   PO447580  14.391  43.901   5.855
 9229POPC   GL147581  14.392  43.858   6.155
 9229POPC   GL247582  14.515  43.873   6.155
 9229POPC   C1A47583  14.430  43.855   6.455
 9229POPC   D2A47584  14.419  43.906   6.755
 9229POPC   C3A47585  14.369  43.877   7.055
 9229POPC   C4A47586  14.381  43.918   7.355
 9229POPC   C1B47587  14.690  43.949   6.455
 9229POPC   C2B47588  14.678  43.898   6.755
 9229POPC   C3B47589  14.671  43.903   7.055
 9229POPC   C4B47590  14.628  43.968   7.355
 9230POPC   NC347591  36.946  41.565   5.555
 9230POPC   PO447592  36.940  41.542   5.855
 9230POPC   GL147593  36.883  41.555   6.155
 9230POPC   GL247594  36.881  41.421   6.155
 9230POPC   C1A47595  36.867  41.580   6.455
 9230POPC   D2A47596  36.874  41.551   6.755
 9230POPC   C3A47597  36.948  41.580   7.055
 9230POPC   C4A47598  36.898  41.549   7.355
 9230POPC   C1B47599  36.978  41.346   6.455
 9230POPC   C2B47600  36.977  41.341   6.755
 9230POPC   C3B47601  36.929  41.353   7.055
 9230POPC   C4B47602  36.916  41.273   7.355
 9231POPC   NC347603  19.083  15.206   5.555
 9231POPC   PO447604  19.046  15.156   5.855
 9231POPC   GL147605  19.037  15.217   6.155
 9231POPC   GL247606  18.945  15.167   6.155
 9231POPC   C1A47607  19.063  15.159   6.455
 9231POPC   D2A47608  19.105  15.179   6.755
 9231POPC   C3A47609  19.010  15.196   7.055
 9231POPC   C4A47610  19.094  15.214   7.355
 9231POPC   C1B47611  18.832  15.099   6.455
 9231POPC   C2B47612  18.813  15.062   6.755
 9231POPC   C3B47613  18.864  15.103   7.055
 9231POPC   C4B47614  18.812  15.119   7.355
 9232POPC   NC347615  30.684  36.889   5.555
 9232POPC   PO447616  30.677  36.915   5.855
 9232POPC   GL147617  30.714  36.889   6.155
 9232POPC   GL247618  30.813  36.907   6.155
 9232POPC   C1A47619  30.675  36.951   6.455
 9232POPC   D2A47620  30.659  36.939   6.755
 9232POPC   C3A47621  30.729  36.947   7.055
 9232POPC   C4A47622  30.721  36.930   7.355
 9232POPC   C1B47623  30.979  36.854   6.455
 9232POPC   C2B47624  30.983  36.843   6.755
 9232POPC   C3B47625  30.948  36.840   7.055
 9232POPC   C4B47626  30.920  36.839   7.355
 9233POPC   NC347627   5.138  41.561   5.555
 9233POPC   PO447628   5.069  41.512   5.855
 9233POPC   GL147629   5.059  41.544   6.155
 9233POPC   GL247630   5.223  41.565   6.155
 9233POPC   C1A47631   5.044  41.579   6.455
 9233POPC   D2A47632   5.054  41.515   6.755
 9233POPC   C3A47633   5.124  41.584   7.055
 9233POPC   C4A47634   5.072  41.591   7.355
 9233POPC   C1B47635   5.339  41.531   6.455
 9233POPC   C2B47636   5.368  41.606   6.755
 9233POPC   C3B47637   5.303  41.595   7.055
 9233POPC   C4B47638   5.317  41.588   7.355
 9234POPC   NC347639  18.327   9.794   5.555
 9234POPC   PO447640  18.325   9.769   5.855
 9234POPC   GL147641  18.319   9.747   6.155
 9234POPC   GL247642  18.237   9.649   6.155
 9234POPC   C1A47643  18.233   9.742   6.455
 9234POPC   D2A47644  18.321   9.723   6.755
 9234POPC   C3A47645  18.258   9.789   7.055
 9234POPC   C4A47646  18.328   9.755   7.355
 9234POPC   C1B47647  18.132   9.572   6.455
 9234POPC   C2B47648  18.167   9.570   6.755
 9234POPC   C3B47649  18.136   9.496   7.055
 9234POPC   C4B47650  18.185   9.554   7.355
 9235POPC   NC347651  25.263  22.908   5.555
 9235POPC   PO447652  25.253  22.910   5.855
 9235POPC   GL147653  25.265  22.987   6.155
 9235POPC   GL247654  25.250  23.112   6.155
 9235POPC   C1A47655  25.233  22.971   6.455
 9235POPC   D2A47656  25.239  22.896   6.755
 9235POPC   C3A47657  25.243  22.934   7.055
 9235POPC   C4A47658  25.289  22.970   7.355
 9235POPC   C1B47659  25.323  23.181   6.455
 9235POPC   C2B47660  25.245  23.155   6.755
 9235POPC   C3B47661  25.327  23.232   7.055
 9235POPC   C4B47662  25.264  23.181   7.355
 9236POPC   NC347663  20.611   9.016   5.555
 9236POPC   PO447664  20.573   8.943   5.855
 9236POPC   GL147665  20.600   8.978   6.155
 9236POPC   GL247666  20.613   8.882   6.155
 9236POPC   C1A47667  20.627   8.982   6.455
 9236POPC   D2A47668  20.569   8.927   6.755
 9236POPC   C3A47669  20.588   8.937   7.055
 9236POPC   C4A47670  20.629   8.963   7.355
 9236POPC   C1B47671  20.623   8.703   6.455
 9236POPC   C2B47672  20.689   8.693   6.755
 9236POPC   C3B47673  20.685   8.727   7.055
 9236POPC   C4B47674  20.609   8.695   7.355
 9237POPC   NC347675  33.779  22.946   5.555
 9237POPC   PO447676  33.821  22.894   5.855
 9237POPC   GL147677  33.847  22.927   6.155
 9237POPC   GL247678  33.758  23.073   6.155
 9237POPC   C1A47679  33.837  22.890   6.455
 9237POPC   D2A47680  33.844  22.889   6.755
 9237POPC   C3A47681  33.786  22.929   7.055
 9237POPC   C4A47682  33.754  22.958   7.355
 9237POPC   C1B47683  33.684  23.160   6.455
 9237POPC   C2B47684  33.694  23.157   6.755
 9237POPC   C3B47685  33.676  23.195   7.055
 9237POPC   C4B47686  33.701  23.197   7.355
 9238POPC   NC347687  40.044  27.634   5.555
 9238POPC   PO447688  40.001  27.597   5.855
 9238POPC   GL147689  40.018  27.603   6.155
 9238POPC   GL247690  39.890  27.551   6.155
 9238POPC   C1A47691  40.049  27.587   6.455
 9238POPC   D2A47692  40.021  27.563   6.755
 9238POPC   C3A47693  39.960  27.608   7.055
 9238POPC   C4A47694  39.958  27.606   7.355
 9238POPC   C1B47695  39.801  27.417   6.455
 9238POPC   C2B47696  39.749  27.454   6.755
 9238POPC   C3B47697  39.768  27.442   7.055
 9238POPC   C4B47698  39.825  27.465   7.355
 9239POPC   NC347699  31.492  31.485   5.555
 9239POPC   PO447700  31.435  31.471   5.855
 9239POPC   GL147701  31.424  31.500   6.155
 9239POPC   GL247702  31.400  31.467   6.155
 9239POPC   C1A47703  31.486  31.425   6.455
 9239POPC   D2A47704  31.502  31.461   6.755
 9239POPC   C3A47705  31.476  31.445   7.055
 9239POPC   C4A47706  31.467  31.509   7.355
 9239POPC   C1B47707  31.222  31.322   6.455
 9239POPC   C2B47708  31.261  31.347   6.755
 9239POPC   C3B47709  31.275  31.331   7.055
 9239POPC   C4B47710  31.242  31.362   7.355
 9240POPC   NC347711  43.140  15.973   5.555
 9240POPC   PO447712  43.085  15.938   5.855
 9240POPC   GL147713  43.121  15.980   6.155
 9240POPC   GL247714  43.145  16.127   6.155
 9240POPC   C1A47715  43.079  15.958   6.455
 9240POPC   D2A47716  43.116  15.997   6.755
 9240POPC   C3A47717  43.132  15.960   7.055
 9240POPC   C4A47718  43.135  15.920   7.355
 9240POPC   C1B47719  43.074  16.185   6.455
 9240POPC   C2B47720  43.123  16.189   6.755
 9240POPC   C3B47721  43.130  16.250   7.055
 9240POPC   C4B47722  43.071  16.168   7.355
 9241POPC   NC347723  12.871  32.246   5.555
 9241POPC   PO447724  12.807  32.290   5.855
 9241POPC   GL147725  12.887  32.248   6.155
 9241POPC   GL247726  12.775  32.302   6.155
 9241POPC   C1A47727  12.836  32.289   6.455
 9241POPC   D2A47728  12.897  32.247   6.755
 9241POPC   C3A47729  12.867  32.224   7.055
 9241POPC   C4A47730  12.832  32.261   7.355
 9241POPC   C1B47731  12.614  32.309   6.455
 9241POPC   C2B47732  12.625  32.240   6.755
 9241POPC   C3B47733  12.632  32.225   7.055
 9241POPC   C4B47734  12.628  32.251   7.355
 9242POPC   NC347735  34.553  16.683   5.555
 9242POPC   PO447736  34.597  16.701   5.855
 9242POPC   GL147737  34.568  16.743   6.155
 9242POPC   GL247738  34.533  16.799   6.155
 9242POPC   C1A47739  34.590  16.740   6.455
 9242POPC   D2A47740  34.547  16.716   6.755
 9242POPC   C3A47741  34.563  16.772   7.055
 9242POPC   C4A47742  34.591  16.694   7.355
 9242POPC   C1B47743  34.466  16.983   6.455
 9242POPC   C2B47744  34.427  16.918   6.755
 9242POPC   C3B47745  34.426  16.910   7.055
 9242POPC   C4B47746  34.421  16.967   7.355
 9243POPC   NC347747  23.666  21.371   5.555
 9243POPC   PO447748  23.669  21.376   5.855
 9243POPC   GL147749  23.729  21.400   6.155
 9243POPC   GL247750  23.849  21.492   6.155
 9243POPC   C1A47751  23.732  21.341   6.455
 9243POPC   D2A47752  23.762  21.398   6.755
 9243POPC   C3A47753  23.726  21.433   7.055
 9243POPC   C4A47754  23.752  21.421   7.355
 9243POPC   C1B47755  23.918  21.513   6.455
 9243POPC   C2B47756  23.881  21.554   6.755
 9243POPC   C3B47757  23.877  21.575   7.055
 9243POPC   C4B47758  23.950  21.561   7.355
 9244POPC   NC347759  22.900  22.935   5.555
 9244POPC   PO447760  22.910  22.938   5.855
 9244POPC   GL147761  22.940  22.937   6.155
 9244POPC   GL247762  22.809  22.980   6.155
 9244POPC   C1A47763  22.946  22.913   6.455
 9244POPC   D2A47764  22.984  22.957   6.755
 9244POPC   C3A47765  22.924  22.889   7.055
 9244POPC   C4A47766  22.959  22.954   7.355
 9244POPC   C1B47767  22.653  22.970   6.455
 9244POPC   C2B47768  22.686  23.003   6.755
 9244POPC   C3B47769  22.661  23.039   7.055
 9244POPC   C4B47770  22.694  22.965   7.355
 9245POPC   NC347771  38.430   8.237   5.555
 9245POPC   PO447772  38.487   8.202   5.855
 9245POPC   GL147773  38.495   8.235   6.155
 9245POPC   GL247774  38.546   8.313   6.155
 9245POPC   C1A47775  38.431   8.159   6.455
 9245POPC   D2A47776  38.446   8.243   6.755
 9245POPC   C3A47777  38.466   8.172   7.055
 9245POPC   C4A47778  38.442   8.240   7.355
 9245POPC   C1B47779  38.547   8.439   6.455
 9245POPC   C2B47780  38.579   8.437   6.755
 9245POPC   C3B47781  38.551   8.449   7.055
 9245POPC   C4B47782  38.553   8.388   7.355
 9246POPC   NC347783   5.087   7.421   5.555
 9246POPC   PO447784   5.052   7.450   5.855
 9246POPC   GL147785   5.121   7.436   6.155
 9246POPC   GL247786   4.944   7.446   6.155
 9246POPC   C1A47787   5.070   7.373   6.455
 9246POPC   D2A47788   5.129   7.394   6.755
 9246POPC   C3A47789   5.073   7.420   7.055
 9246POPC   C4A47790   5.140   7.374   7.355
 9246POPC   C1B47791   4.904   7.586   6.455
 9246POPC   C2B47792   4.882   7.570   6.755
 9246POPC   C3B47793   4.908   7.589   7.055
 9246POPC   C4B47794   4.876   7.582   7.355
 9247POPC   NC347795  39.216  21.405   5.555
 9247POPC   PO447796  39.189  21.376   5.855
 9247POPC   GL147797  39.201  21.363   6.155
 9247POPC   GL247798  39.325  21.339   6.155
 9247POPC   C1A47799  39.275  21.349   6.455
 9247POPC   D2A47800  39.241  21.395   6.755
 9247POPC   C3A47801  39.221  21.397   7.055
 9247POPC   C4A47802  39.264  21.380   7.355
 9247POPC   C1B47803  39.429  21.220   6.455
 9247POPC   C2B47804  39.441  21.246   6.755
 9247POPC   C3B47805  39.496  21.281   7.055
 9247POPC   C4B47806  39.427  21.254   7.355
 9248POPC   NC347807  43.915   1.178   5.555
 9248POPC   PO447808  43.884   1.209   5.855
 9248POPC   GL147809  43.921   1.233   6.155
 9248POPC   GL247810  43.828   1.108   6.155
 9248POPC   C1A47811  43.899   1.196   6.455
 9248POPC   D2A47812  43.906   1.250   6.755
 9248POPC   C3A47813  43.885   1.203   7.055
 9248POPC   C4A47814  43.864   1.175   7.355
 9248POPC   C1B47815  43.722   1.007   6.455
 9248POPC   C2B47816  43.734   0.974   6.755
 9248POPC   C3B47817  43.770   1.006   7.055
 9248POPC   C4B47818  43.727   0.993   7.355
 9249POPC   NC347819   6.601  29.912   5.555
 9249POPC   PO447820   6.673  29.942   5.855
 9249POPC   GL147821   6.601  29.887   6.155
 9249POPC   GL247822   6.739  29.991   6.155
 9249POPC   C1A47823   6.616  29.936   6.455
 9249POPC   D2A47824   6.676  29.928   6.755
 9249POPC   C3A47825   6.635  29.899   7.055
 9249POPC   C4A47826   6.644  29.959   7.355
 9249POPC   C1B47827   6.873  30.114   6.455
 9249POPC   C2B47828   6.871  30.130   6.755
 9249POPC   C3B47829   6.798  30.084   7.055
 9249POPC   C4B47830   6.874  30.073   7.355
 9250POPC   NC347831  33.065  22.198   5.555
 9250POPC   PO447832  33.002  22.145   5.855
 9250POPC   GL147833  32.983  22.134   6.155
 9250POPC   GL247834  33.176  22.209   6.155
 9250POPC   C1A47835  33.062  22.119   6.455
 9250POPC   D2A47836  33.010  22.146   6.755
 9250POPC   C3A47837  33.005  22.163   7.055
 9250POPC   C4A47838  33.071  22.191   7.355
 9250POPC   C1B47839  33.281  22.245   6.455
 9250POPC   C2B47840  33.249  22.258   6.755
 9250POPC   C3B47841  33.252  22.246   7.055
 9250POPC   C4B47842  33.203  22.301   7.355
 9251POPC   NC347843  34.613  10.512   5.555
 9251POPC   PO447844  34.607  10.530   5.855
 9251POPC   GL147845  34.581  10.487   6.155
 9251POPC   GL247846  34.505  10.612   6.155
 9251POPC   C1A47847  34.539  10.504   6.455
 9251POPC   D2A47848  34.606  10.570   6.755
 9251POPC   C3A47849  34.619  10.500   7.055
 9251POPC   C4A47850  34.540  10.511   7.355
 9251POPC   C1B47851  34.437  10.658   6.455
 9251POPC   C2B47852  34.345  10.654   6.755
 9251POPC   C3B47853  34.392  10.716   7.055
 9251POPC   C4B47854  34.393  10.676   7.355
 9252POPC   NC347855  22.888  32.265   5.555
 9252POPC   PO447856  22.890  32.283   5.855
 9252POPC   GL147857  22.908  32.263   6.155
 9252POPC   GL247858  22.892  32.120   6.155
 9252POPC   C1A47859  22.959  32.296   6.455
 9252POPC   D2A47860  22.926  32.241   6.755
 9252POPC   C3A47861  22.946  32.240   7.055
 9252POPC   C4A47862  22.895  32.215   7.355
 9252POPC   C1B47863  22.773  32.123   6.455
 9252POPC   C2B47864  22.795  32.042   6.755
 9252POPC   C3B47865  22.750  32.126   7.055
 9252POPC   C4B47866  22.759  32.081   7.355
 9253POPC   NC347867   0.483  29.185   5.555
 9253POPC   PO447868   0.454  29.149   5.855
 9253POPC   GL147869   0.410  29.139   6.155
 9253POPC   GL247870   0.520  29.060   6.155
 9253POPC   C1A47871   0.436  29.128   6.455
 9253POPC   D2A47872   0.404  29.137   6.755
 9253POPC   C3A47873   0.410  29.181   7.055
 9253POPC   C4A47874   0.417  29.187   7.355
 9253POPC   C1B47875   0.617  28.964   6.455
 9253POPC   C2B47876   0.636  28.995   6.755
 9253POPC   C3B47877   0.622  29.047   7.055
 9253POPC   C4B47878   0.675  29.026   7.355
 9254POPC   NC347879   9.742  36.926   5.555
 9254POPC   PO447880   9.760  36.906   5.855
 9254POPC   GL147881   9.747  36.910   6.155
 9254POPC   GL247882   9.756  36.826   6.155
 9254POPC   C1A47883   9.782  36.904   6.455
 9254POPC   D2A47884   9.767  36.895   6.755
 9254POPC   C3A47885   9.774  36.872   7.055
 9254POPC   C4A47886   9.731  36.855   7.355
 9254POPC   C1B47887   9.706  36.629   6.455
 9254POPC   C2B47888   9.631  36.716   6.755
 9254POPC   C3B47889   9.702  36.656   7.055
 9254POPC   C4B47890   9.661  36.676   7.355
 9255POPC   NC347891  35.382  35.388   5.555
 9255POPC   PO447892  35.351  35.382   5.855
 9255POPC   GL147893  35.315  35.392   6.155
 9255POPC   GL247894  35.182  35.314   6.155
 9255POPC   C1A47895  35.332  35.327   6.455
 9255POPC   D2A47896  35.389  35.340   6.755
 9255POPC   C3A47897  35.317  35.389   7.055
 9255POPC   C4A47898  35.355  35.341   7.355
 9255POPC   C1B47899  35.071  35.354   6.455
 9255POPC   C2B47900  35.140  35.367   6.755
 9255POPC   C3B47901  35.076  35.307   7.055
 9255POPC   C4B47902  35.074  35.312   7.355
 9256POPC   NC347903  15.913  26.056   5.555
 9256POPC   PO447904  16.005  26.053   5.855
 9256POPC   GL147905  15.947  26.075   6.155
 9256POPC   GL247906  15.995  25.892   6.155
 9256POPC   C1A47907  15.983  26.061   6.455
 9256POPC   D2A47908  15.995  26.005   6.755
 9256POPC   C3A47909  15.932  26.091   7.055
 9256POPC   C4A47910  15.906  26.039   7.355
 9256POPC   C1B47911  16.033  25.850   6.455
 9256POPC   C2B47912  16.105  25.836   6.755
 9256POPC   C3B47913  16.037  25.774   7.055
 9256POPC   C4B47914  16.032  25.861   7.355
 9257POPC   NC347915   7.397  11.269   5.555
 9257POPC   PO447916   7.377  11.253   5.855
 9257POPC   GL147917   7.385  11.254   6.155
 9257POPC   GL247918   7.451  11.441   6.155
 9257POPC   C1A47919   7.458  11.267   6.455
 9257POPC   D2A47920   7.468  11.324   6.755
 9257POPC   C3A47921   7.375  11.312   7.055
 9257POPC   C4A47922   7.427  11.347   7.355
 9257POPC   C1B47923   7.471  11.598   6.455
 9257POPC   C2B47924   7.450  11.539   6.755
 9257POPC   C3B47925   7.432  11.545   7.055
 9257POPC   C4B47926   7.441  11.549   7.355
 9258POPC   NC347927  39.193  18.243   5.555
 9258POPC   PO447928  39.192  18.324   5.855
 9258POPC   GL147929  39.224  18.251   6.155
 9258POPC   GL247930  39.138  18.236   6.155
 9258POPC   C1A47931  39.204  18.306   6.455
 9258POPC   D2A47932  39.275  18.263   6.755
 9258POPC   C3A47933  39.228  18.324   7.055
 9258POPC   C4A47934  39.215  18.285   7.355
 9258POPC   C1B47935  38.957  18.209   6.455
 9258POPC   C2B47936  39.009  18.196   6.755
 9258POPC   C3B47937  39.028  18.184   7.055
 9258POPC   C4B47938  38.997  18.183   7.355
 9259POPC   NC347939  33.765  21.378   5.555
 9259POPC   PO447940  33.772  21.424   5.855
 9259POPC   GL147941  33.813  21.347   6.155
 9259POPC   GL247942  33.874  21.407   6.155
 9259POPC   C1A47943  33.803  21.423   6.455
 9259POPC   D2A47944  33.763  21.403   6.755
 9259POPC   C3A47945  33.751  21.338   7.055
 9259POPC   C4A47946  33.835  21.367   7.355
 9259POPC   C1B47947  33.998  21.489   6.455
 9259POPC   C2B47948  34.040  21.472   6.755
 9259POPC   C3B47949  34.053  21.448   7.055
 9259POPC   C4B47950  34.015  21.442   7.355
 9260POPC   NC347951   8.163  19.789   5.555
 9260POPC   PO447952   8.185  19.812   5.855
 9260POPC   GL147953   8.236  19.871   6.155
 9260POPC   GL247954   8.101  19.741   6.155
 9260POPC   C1A47955   8.189  19.809   6.455
 9260POPC   D2A47956   8.245  19.882   6.755
 9260POPC   C3A47957   8.228  19.858   7.055
 9260POPC   C4A47958   8.169  19.877   7.355
 9260POPC   C1B47959   8.117  19.608   6.455
 9260POPC   C2B47960   8.045  19.606   6.755
 9260POPC   C3B47961   8.087  19.653   7.055
 9260POPC   C4B47962   8.084  19.657   7.355
 9261POPC   NC347963  15.926  44.652   5.555
 9261POPC   PO447964  15.948  44.628   5.855
 9261POPC   GL147965  15.980  44.703   6.155
 9261POPC   GL247966  15.846  44.759   6.155
 9261POPC   C1A47967  15.969  44.677   6.455
 9261POPC   D2A47968  15.932  44.658   6.755
 9261POPC   C3A47969  15.981  44.679   7.055
 9261POPC   C4A47970  15.952  44.712   7.355
 9261POPC   C1B47971  15.768  44.826   6.455
 9261POPC   C2B47972  15.818  44.837   6.755
 9261POPC   C3B47973  15.792  44.832   7.055
 9261POPC   C4B47974  15.736  44.876   7.355
 9262POPC   NC347975  37.692  17.503   5.555
 9262POPC   PO447976  37.633  17.531   5.855
 9262POPC   GL147977  37.719  17.492   6.155
 9262POPC   GL247978  37.698  17.666   6.155
 9262POPC   C1A47979  37.632  17.533   6.455
 9262POPC   D2A47980  37.725  17.482   6.755
 9262POPC   C3A47981  37.717  17.529   7.055
 9262POPC   C4A47982  37.649  17.552   7.355
 9262POPC   C1B47983  37.686  17.740   6.455
 9262POPC   C2B47984  37.713  17.787   6.755
 9262POPC   C3B47985  37.713  17.768   7.055
 9262POPC   C4B47986  37.707  17.760   7.355
 9263POPC   NC347987  43.069  43.093   5.555
 9263POPC   PO447988  43.110  43.148   5.855
 9263POPC   GL147989  43.089  43.070   6.155
 9263POPC   GL247990  43.033  43.030   6.155
 9263POPC   C1A47991  43.093  43.141   6.455
 9263POPC   D2A47992  43.137  43.073   6.755
 9263POPC   C3A47993  43.060  43.091   7.055
 9263POPC   C4A47994  43.117  43.129   7.355
 9263POPC   C1B47995  42.891  43.043   6.455
 9263POPC   C2B47996  42.887  43.047   6.755
 9263POPC   C3B47997  42.857  43.042   7.055
 9263POPC   C4B47998  42.914  43.026   7.355
 9264POPC   NC347999  29.921   2.030   5.555
 9264POPC   PO448000  29.907   1.981   5.855
 9264POPC   GL148001  29.872   1.949   6.155
 9264POPC   GL248002  29.791   2.078   6.155
 9264POPC   C1A48003  29.927   2.006   6.455
 9264POPC   D2A48004  29.896   1.948   6.755
 9264POPC   C3A48005  29.879   2.018   7.055
 9264POPC   C4A48006  29.903   2.013   7.355
 9264POPC   C1B48007  29.698   2.054   6.455
 9264POPC   C2B48008  29.722   2.093   6.755
 9264POPC   C3B48009  29.717   2.036   7.055
 9264POPC   C4B48010  29.702   2.118   7.355
 9265POPC   NC348011  36.080  30.650   5.555
 9265POPC   PO448012  36.107  30.732   5.855
 9265POPC   GL148013  36.144  30.700   6.155
 9265POPC   GL248014  36.216  30.664   6.155
 9265POPC   C1A48015  36.122  30.693   6.455
 9265POPC   D2A48016  36.168  30.651   6.755
 9265POPC   C3A48017  36.120  30.667   7.055
 9265POPC   C4A48018  36.146  30.710   7.355
 9265POPC   C1B48019  36.342  30.550   6.455
 9265POPC   C2B48020  36.374  30.606   6.755
 9265POPC   C3B48021  36.354  30.578   7.055
 9265POPC   C4B48022  36.396  30.567   7.355
 9266POPC   NC348023  21.349  15.165   5.555
 9266POPC   PO448024  21.376  15.150   5.855
 9266POPC   GL148025  21.431  15.153   6.155
 9266POPC   GL248026  21.284  15.202   6.155
 9266POPC   C1A48027  21.375  15.160   6.455
 9266POPC   D2A48028  21.389  15.213   6.755
 9266POPC   C3A48029  21.435  15.143   7.055
 9266POPC   C4A48030  21.436  15.150   7.355
 9266POPC   C1B48031  21.153  15.281   6.455
 9266POPC   C2B48032  21.153  15.312   6.755
 9266POPC   C3B48033  21.165  15.267   7.055
 9266POPC   C4B48034  21.133  15.234   7.355
 9267POPC   NC348035  35.358  23.719   5.555
 9267POPC   PO448036  35.337  23.709   5.855
 9267POPC   GL148037  35.369  23.673   6.155
 9267POPC   GL248038  35.292  23.836   6.155
 9267POPC   C1A48039  35.368  23.689   6.455
 9267POPC   D2A48040  35.347  23.675   6.755
 9267POPC   C3A48041  35.335  23.690   7.055
 9267POPC   C4A48042  35.306  23.706   7.355
 9267POPC   C1B48043  35.102  23.894   6.455
 9267POPC   C2B48044  35.193  23.844   6.755
 9267POPC   C3B48045  35.131  23.856   7.055
 9267POPC   C4B48046  35.121  23.823   7.355
 9268POPC   NC348047   5.100  22.960   5.555
 9268POPC   PO448048   5.096  22.931   5.855
 9268POPC   GL148049   5.046  22.958   6.155
 9268POPC   GL248050   4.951  22.901   6.155
 9268POPC   C1A48051   5.127  22.971   6.455
 9268POPC   D2A48052   5.114  22.899   6.755
 9268POPC   C3A48053   5.110  22.960   7.055
 9268POPC   C4A48054   5.075  22.910   7.355
 9268POPC   C1B48055   4.819  22.831   6.455
 9268POPC   C2B48056   4.895  22.889   6.755
 9268POPC   C3B48057   4.828  22.865   7.055
 9268POPC   C4B48058   4.890  22.889   7.355
 9269POPC   NC348059  26.829   3.537   5.555
 9269POPC   PO448060  26.865   3.538   5.855
 9269POPC   GL148061  26.799   3.532   6.155
 9269POPC   GL248062  26.733   3.490   6.155
 9269POPC   C1A48063  26.865   3.574   6.455
 9269POPC   D2A48064  26.867   3.516   6.755
 9269POPC   C3A48065  26.815   3.513   7.055
 9269POPC   C4A48066  26.863   3.568   7.355
 9269POPC   C1B48067  26.544   3.404   6.455
 9269POPC   C2B48068  26.586   3.405   6.755
 9269POPC   C3B48069  26.629   3.476   7.055
 9269POPC   C4B48070  26.575   3.491   7.355
 9270POPC   NC348071  26.813  22.965   5.555
 9270POPC   PO448072  26.843  22.953   5.855
 9270POPC   GL148073  26.859  22.985   6.155
 9270POPC   GL248074  26.781  22.891   6.155
 9270POPC   C1A48075  26.826  22.953   6.455
 9270POPC   D2A48076  26.780  22.974   6.755
 9270POPC   C3A48077  26.827  22.969   7.055
 9270POPC   C4A48078  26.775  22.890   7.355
 9270POPC   C1B48079  26.698  22.791   6.455
 9270POPC   C2B48080  26.615  22.799   6.755
 9270POPC   C3B48081  26.649  22.759   7.055
 9270POPC   C4B48082  26.682  22.761   7.355
 9271POPC   NC348083  13.673  30.647   5.555
 9271POPC   PO448084  13.590  30.682   5.855
 9271POPC   GL148085  13.665  30.695   6.155
 9271POPC   GL248086  13.576  30.771   6.155
 9271POPC   C1A48087  13.631  30.671   6.455
 9271POPC   D2A48088  13.614  30.661   6.755
 9271POPC   C3A48089  13.593  30.692   7.055
 9271POPC   C4A48090  13.655  30.655   7.355
 9271POPC   C1B48091  13.531  30.954   6.455
 9271POPC   C2B48092  13.478  30.927   6.755
 9271POPC   C3B48093  13.543  30.910   7.055
 9271POPC   C4B48094  13.534  30.885   7.355
 9272POPC   NC348095  19.840  12.818   5.555
 9272POPC   PO448096  19.786  12.866   5.855
 9272POPC   GL148097  19.794  12.816   6.155
 9272POPC   GL248098  19.751  12.840   6.155
 9272POPC   C1A48099  19.865  12.880   6.455
 9272POPC   D2A48100  19.854  12.833   6.755
 9272POPC   C3A48101  19.858  12.802   7.055
 9272POPC   C4A48102  19.883  12.868   7.355
 9272POPC   C1B48103  19.559  12.792   6.455
 9272POPC   C2B48104  19.630  12.864   6.755
 9272POPC   C3B48105  19.589  12.851   7.055
 9272POPC   C4B48106  19.612  12.815   7.355
 9273POPC   NC348107   4.299  16.005   5.555
 9273POPC   PO448108   4.341  15.951   5.855
 9273POPC   GL148109   4.336  15.977   6.155
 9273POPC   GL248110   4.402  15.875   6.155
 9273POPC   C1A48111   4.340  15.958   6.455
 9273POPC   D2A48112   4.313  15.912   6.755
 9273POPC   C3A48113   4.269  15.948   7.055
 9273POPC   C4A48114   4.295  15.971   7.355
 9273POPC   C1B48115   4.467  15.712   6.455
 9273POPC   C2B48116   4.432  15.738   6.755
 9273POPC   C3B48117   4.505  15.718   7.055
 9273POPC   C4B48118   4.447  15.741   7.355
 9274POPC   NC348119  11.266  31.457   5.555
 9274POPC   PO448120  11.253  31.519   5.855
 9274POPC   GL148121  11.340  31.429   6.155
 9274POPC   GL248122  11.428  31.451   6.155
 9274POPC   C1A48123  11.271  31.522   6.455
 9274POPC   D2A48124  11.266  31.443   6.755
 9274POPC   C3A48125  11.301  31.469   7.055
 9274POPC   C4A48126  11.279  31.423   7.355
 9274POPC   C1B48127  11.473  31.343   6.455
 9274POPC   C2B48128  11.472  31.340   6.755
 9274POPC   C3B48129  11.494  31.313   7.055
 9274POPC   C4B48130  11.553  31.377   7.355
 9275POPC   NC348131  26.806  33.063   5.555
 9275POPC   PO448132  26.849  33.062   5.855
 9275POPC   GL148133  26.823  32.975   6.155
 9275POPC   GL248134  26.851  33.134   6.155
 9275POPC   C1A48135  26.854  32.996   6.455
 9275POPC   D2A48136  26.811  33.037   6.755
 9275POPC   C3A48137  26.808  33.073   7.055
 9275POPC   C4A48138  26.857  32.991   7.355
 9275POPC   C1B48139  26.970  33.223   6.455
 9275POPC   C2B48140  26.973  33.220   6.755
 9275POPC   C3B48141  27.020  33.233   7.055
 9275POPC   C4B48142  26.952  33.199   7.355
 9276POPC   NC348143   5.047   4.314   5.555
 9276POPC   PO448144   5.075   4.321   5.855
 9276POPC   GL148145   5.119   4.349   6.155
 9276POPC   GL248146   5.103   4.226   6.155
 9276POPC   C1A48147   5.063   4.307   6.455
 9276POPC   D2A48148   5.067   4.325   6.755
 9276POPC   C3A48149   5.047   4.357   7.055
 9276POPC   C4A48150   5.079   4.274   7.355
 9276POPC   C1B48151   5.208   4.125   6.455
 9276POPC   C2B48152   5.144   4.084   6.755
 9276POPC   C3B48153   5.116   4.099   7.055
 9276POPC   C4B48154   5.138   4.063   7.355
 9277POPC   NC348155  36.939  36.858   5.555
 9277POPC   PO448156  36.874  36.885   5.855
 9277POPC   GL148157  36.871  36.873   6.155
 9277POPC   GL248158  36.910  37.002   6.155
 9277POPC   C1A48159  36.862  36.881   6.455
 9277POPC   D2A48160  36.860  36.925   6.755
 9277POPC   C3A48161  36.909  36.905   7.055
 9277POPC   C4A48162  36.926  36.896   7.355
 9277POPC   C1B48163  36.908  37.116   6.455
 9277POPC   C2B48164  36.943  37.186   6.755
 9277POPC   C3B48165  36.879  37.184   7.055
 9277POPC   C4B48166  36.870  37.112   7.355
 9278POPC   NC348167  19.838  41.581   5.555
 9278POPC   PO448168  19.797  41.510   5.855
 9278POPC   GL148169  19.796  41.557   6.155
 9278POPC   GL248170  19.938  41.446   6.155
 9278POPC   C1A48171  19.867  41.604   6.455
 9278POPC   D2A48172  19.831  41.548   6.755
 9278POPC   C3A48173  19.846  41.538   7.055
 9278POPC   C4A48174  19.843  41.530   7.355
 9278POPC   C1B48175  19.993  41.409   6.455
 9278POPC   C2B48176  19.979  41.362   6.755
 9278POPC   C3B48177  19.977  41.345   7.055
 9278POPC   C4B48178  19.997  41.396   7.355
 9279POPC   NC348179  27.543  37.667   5.555
 9279POPC   PO448180  27.631  37.631   5.855
 9279POPC   GL148181  27.626  37.664   6.155
 9279POPC   GL248182  27.510  37.664   6.155
 9279POPC   C1A48183  27.546  37.692   6.455
 9279POPC   D2A48184  27.612  37.691   6.755
 9279POPC   C3A48185  27.590  37.645   7.055
 9279POPC   C4A48186  27.595  37.691   7.355
 9279POPC   C1B48187  27.339  37.685   6.455
 9279POPC   C2B48188  27.341  37.754   6.755
 9279POPC   C3B48189  27.306  37.754   7.055
 9279POPC   C4B48190  27.369  37.705   7.355
 9280POPC   NC348191  15.931  32.200   5.555
 9280POPC   PO448192  15.980  32.293   5.855
 9280POPC   GL148193  15.907  32.237   6.155
 9280POPC   GL248194  15.916  32.148   6.155
 9280POPC   C1A48195  15.925  32.207   6.455
 9280POPC   D2A48196  15.995  32.235   6.755
 9280POPC   C3A48197  15.935  32.230   7.055
 9280POPC   C4A48198  15.914  32.208   7.355
 9280POPC   C1B48199  15.885  31.989   6.455
 9280POPC   C2B48200  15.919  32.004   6.755
 9280POPC   C3B48201  15.882  32.030   7.055
 9280POPC   C4B48202  15.874  32.005   7.355
 9281POPC   NC348203  11.260  22.903   5.555
 9281POPC   PO448204  11.303  22.942   5.855
 9281POPC   GL148205  11.259  22.942   6.155
 9281POPC   GL248206  11.212  23.003   6.155
 9281POPC   C1A48207  11.315  22.897   6.455
 9281POPC   D2A48208  11.305  22.898   6.755
 9281POPC   C3A48209  11.312  22.981   7.055
 9281POPC   C4A48210  11.329  22.949   7.355
 9281POPC   C1B48211  11.147  23.110   6.455
 9281POPC   C2B48212  11.155  23.059   6.755
 9281POPC   C3B48213  11.084  23.076   7.055
 9281POPC   C4B48214  11.099  23.097   7.355
 9282POPC   NC348215  32.993  12.898   5.555
 9282POPC   PO448216  33.018  12.868   5.855
 9282POPC   GL148217  33.010  12.877   6.155
 9282POPC   GL248218  32.965  12.708   6.155
 9282POPC   C1A48219  33.022  12.803   6.455
 9282POPC   D2A48220  33.038  12.845   6.755
 9282POPC   C3A48221  33.040  12.802   7.055
 9282POPC   C4A48222  33.036  12.841   7.355
 9282POPC   C1B48223  32.881  12.634   6.455
 9282POPC   C2B48224  32.836  12.704   6.755
 9282POPC   C3B48225  32.846  12.698   7.055
 9282POPC   C4B48226  32.908  12.640   7.355
 9283POPC   NC348227   5.100  37.685   5.555
 9283POPC   PO448228   5.063  37.666   5.855
 9283POPC   GL148229   5.079  37.722   6.155
 9283POPC   GL248230   4.924  37.718   6.155
 9283POPC   C1A48231   5.136  37.641   6.455
 9283POPC   D2A48232   5.082  37.702   6.755
 9283POPC   C3A48233   5.077  37.645   7.055
 9283POPC   C4A48234   5.058  37.669   7.355
 9283POPC   C1B48235   4.845  37.696   6.455
 9283POPC   C2B48236   4.801  37.653   6.755
 9283POPC   C3B48237   4.825  37.735   7.055
 9283POPC   C4B48238   4.807  37.665   7.355
 9284POPC   NC348239  29.163  20.573   5.555
 9284POPC   PO448240  29.169  20.609   5.855
 9284POPC   GL148241  29.156  20.615   6.155
 9284POPC   GL248242  29.006  20.566   6.155
 9284POPC   C1A48243  29.176  20.600   6.455
 9284POPC   D2A48244  29.121  20.593   6.755
 9284POPC   C3A48245  29.163  20.659   7.055
 9284POPC   C4A48246  29.190  20.572   7.355
 9284POPC   C1B48247  28.856  20.543   6.455
 9284POPC   C2B48248  28.853  20.579   6.755
 9284POPC   C3B48249  28.909  20.573   7.055
 9284POPC   C4B48250  28.900  20.544   7.355
 9285POPC   NC348251  32.276  43.854   5.555
 9285POPC   PO448252  32.295  43.912   5.855
 9285POPC   GL148253  32.250  43.898   6.155
 9285POPC   GL248254  32.246  44.019   6.155
 9285POPC   C1A48255  32.246  43.889   6.455
 9285POPC   D2A48256  32.284  43.895   6.755
 9285POPC   C3A48257  32.212  43.894   7.055
 9285POPC   C4A48258  32.231  43.840   7.355
 9285POPC   C1B48259  32.230  44.092   6.455
 9285POPC   C2B48260  32.218  44.163   6.755
 9285POPC   C3B48261  32.147  44.128   7.055
 9285POPC   C4B48262  32.204  44.136   7.355
 9286POPC   NC348263  43.109   4.320   5.555
 9286POPC   PO448264  43.113   4.354   5.855
 9286POPC   GL148265  43.142   4.303   6.155
 9286POPC   GL248266  43.242   4.357   6.155
 9286POPC   C1A48267  43.133   4.298   6.455
 9286POPC   D2A48268  43.086   4.346   6.755
 9286POPC   C3A48269  43.070   4.356   7.055
 9286POPC   C4A48270  43.065   4.333   7.355
 9286POPC   C1B48271  43.321   4.506   6.455
 9286POPC   C2B48272  43.278   4.507   6.755
 9286POPC   C3B48273  43.303   4.491   7.055
 9286POPC   C4B48274  43.287   4.531   7.355
 9287POPC   NC348275  40.027  14.388   5.555
 9287POPC   PO448276  39.960  14.448   5.855
 9287POPC   GL148277  39.960  14.396   6.155
 9287POPC   GL248278  39.941  14.258   6.155
 9287POPC   C1A48279  40.007  14.367   6.455
 9287POPC   D2A48280  40.009  14.392   6.755
 9287POPC   C3A48281  40.047  14.400   7.055
 9287POPC   C4A48282  40.031  14.452   7.355
 9287POPC   C1B48283  40.004  14.145   6.455
 9287POPC   C2B48284  39.987  14.127   6.755
 9287POPC   C3B48285  39.948  14.192   7.055
 9287POPC   C4B48286  39.991  14.172   7.355
 9288POPC   NC348287  29.951  28.334   5.555
 9288POPC   PO448288  29.894  28.324   5.855
 9288POPC   GL148289  29.955  28.358   6.155
 9288POPC   GL248290  29.787  28.412   6.155
 9288POPC   C1A48291  29.893  28.398   6.455
 9288POPC   D2A48292  29.959  28.397   6.755
 9288POPC   C3A48293  29.878  28.418   7.055
 9288POPC   C4A48294  29.892  28.328   7.355
 9288POPC   C1B48295  29.779  28.589   6.455
 9288POPC   C2B48296  29.737  28.576   6.755
 9288POPC   C3B48297  29.762  28.585   7.055
 9288POPC   C4B48298  29.752  28.576   7.355
 9289POPC   NC348299  27.628  41.559   5.555
 9289POPC   PO448300  27.628  41.600   5.855
 9289POPC   GL148301  27.557  41.515   6.155
 9289POPC   GL248302  27.693  41.626   6.155
 9289POPC   C1A48303  27.584  41.552   6.455
 9289POPC   D2A48304  27.628  41.604   6.755
 9289POPC   C3A48305  27.572  41.576   7.055
 9289POPC   C4A48306  27.554  41.573   7.355
 9289POPC   C1B48307  27.747  41.689   6.455
 9289POPC   C2B48308  27.741  41.736   6.755
 9289POPC   C3B48309  27.752  41.683   7.055
 9289POPC   C4B48310  27.781  41.707   7.355
 9290POPC   NC348311   5.087  15.978   5.555
 9290POPC   PO448312   5.050  15.978   5.855
 9290POPC   GL148313   5.080  15.966   6.155
 9290POPC   GL248314   5.055  15.825   6.155
 9290POPC   C1A48315   5.091  15.970   6.455
 9290POPC   D2A48316   5.120  15.954   6.755
 9290POPC   C3A48317   5.088  15.949   7.055
 9290POPC   C4A48318   5.061  15.975   7.355
 9290POPC   C1B48319   4.967  15.721   6.455
 9290POPC   C2B48320   5.046  15.767   6.755
 9290POPC   C3B48321   4.996  15.691   7.055
 9290POPC   C4B48322   4.993  15.745   7.355
 9291POPC   NC348323   8.937  15.131   5.555
 9291POPC   PO448324   8.984  15.214   5.855
 9291POPC   GL148325   9.016  15.155   6.155
 9291POPC   GL248326   9.046  15.200   6.155
 9291POPC   C1A48327   8.999  15.154   6.455
 9291POPC   D2A48328   8.956  15.218   6.755
 9291POPC   C3A48329   9.002  15.204   7.055
 9291POPC   C4A48330   8.923  15.225   7.355
 9291POPC   C1B48331   9.210  15.195   6.455
 9291POPC   C2B48332   9.200  15.201   6.755
 9291POPC   C3B48333   9.234  15.263   7.055
 9291POPC   C4B48334   9.195  15.176   7.355
 9292POPC   NC348335  15.932  43.867   5.555
 9292POPC   PO448336  15.933  43.896   5.855
 9292POPC   GL148337  15.935  43.849   6.155
 9292POPC   GL248338  15.827  43.779   6.155
 9292POPC   C1A48339  15.918  43.915   6.455
 9292POPC   D2A48340  15.978  43.921   6.755
 9292POPC   C3A48341  15.918  43.890   7.055
 9292POPC   C4A48342  15.971  43.866   7.355
 9292POPC   C1B48343  15.781  43.768   6.455
 9292POPC   C2B48344  15.792  43.753   6.755
 9292POPC   C3B48345  15.724  43.721   7.055
 9292POPC   C4B48346  15.776  43.788   7.355
 9293POPC   NC348347  25.275  29.137   5.555
 9293POPC   PO448348  25.286  29.166   5.855
 9293POPC   GL148349  25.226  29.162   6.155
 9293POPC   GL248350  25.420  29.055   6.155
 9293POPC   C1A48351  25.257  29.158   6.455
 9293POPC   D2A48352  25.301  29.116   6.755
 9293POPC   C3A48353  25.286  29.125   7.055
 9293POPC   C4A48354  25.219  29.147   7.355
 9293POPC   C1B48355  25.502  29.027   6.455
 9293POPC   C2B48356  25.537  29.076   6.755
 9293POPC   C3B48357  25.526  29.074   7.055
 9293POPC   C4B48358  25.497  29.099   7.355
 9294POPC   NC348359   3.551  10.494   5.555
 9294POPC   PO448360   3.557  10.515   5.855
 9294POPC   GL148361   3.536  10.544   6.155
 9294POPC   GL248362   3.462  10.492   6.155
 9294POPC   C1A48363   3.558  10.533   6.455
 9294POPC   D2A48364   3.540  10.535   6.755
 9294POPC   C3A48365   3.504  10.476   7.055
 9294POPC   C4A48366   3.522  10.550   7.355
 9294POPC   C1B48367   3.299  10.376   6.455
 9294POPC   C2B48368   3.364  10.345   6.755
 9294POPC   C3B48369   3.323  10.368   7.055
 9294POPC   C4B48370   3.335  10.377   7.355
 9295POPC   NC348371  29.113   9.732   5.555
 9295POPC   PO448372  29.133   9.702   5.855
 9295POPC   GL148373  29.172   9.773   6.155
 9295POPC   GL248374  29.237   9.779   6.155
 9295POPC   C1A48375  29.180   9.745   6.455
 9295POPC   D2A48376  29.129   9.737   6.755
 9295POPC   C3A48377  29.097   9.712   7.055
 9295POPC   C4A48378  29.105   9.706   7.355
 9295POPC   C1B48379  29.437   9.824   6.455
 9295POPC   C2B48380  29.416   9.839   6.755
 9295POPC   C3B48381  29.408   9.789   7.055
 9295POPC   C4B48382  29.383   9.838   7.355
 9296POPC   NC348383   3.590  29.905   5.555
 9296POPC   PO448384   3.544  29.935   5.855
 9296POPC   GL148385   3.559  29.909   6.155
 9296POPC   GL248386   3.551  30.034   6.155
 9296POPC   C1A48387   3.588  29.932   6.455
 9296POPC   D2A48388   3.504  29.889   6.755
 9296POPC   C3A48389   3.575  29.906   7.055
 9296POPC   C4A48390   3.555  29.925   7.355
 9296POPC   C1B48391   3.479  30.149   6.455
 9296POPC   C2B48392   3.470  30.188   6.755
 9296POPC   C3B48393   3.532  30.137   7.055
 9296POPC   C4B48394   3.456  30.116   7.355
 9297POPC   NC348395  39.229  25.228   5.555
 9297POPC   PO448396  39.262  25.263   5.855
 9297POPC   GL148397  39.236  25.233   6.155
 9297POPC   GL248398  39.324  25.165   6.155
 9297POPC   C1A48399  39.191  25.254   6.455
 9297POPC   D2A48400  39.250  25.250   6.755
 9297POPC   C3A48401  39.237  25.296   7.055
 9297POPC   C4A48402  39.189  25.216   7.355
 9297POPC   C1B48403  39.414  25.100   6.455
 9297POPC   C2B48404  39.443  25.138   6.755
 9297POPC   C3B48405  39.392  25.090   7.055
 9297POPC   C4B48406  39.402  25.117   7.355
 9298POPC   NC348407  42.323  19.020   5.555
 9298POPC   PO448408  42.371  19.041   5.855
 9298POPC   GL148409  42.289  19.092   6.155
 9298POPC   GL248410  42.397  18.979   6.155
 9298POPC   C1A48411  42.328  19.017   6.455
 9298POPC   D2A48412  42.312  19.048   6.755
 9298POPC   C3A48413  42.347  19.069   7.055
 9298POPC   C4A48414  42.305  19.065   7.355
 9298POPC   C1B48415  42.329  18.802   6.455
 9298POPC   C2B48416  42.333  18.799   6.755
 9298POPC   C3B48417  42.379  18.827   7.055
 9298POPC   C4B48418  42.320  18.842   7.355
 9299POPC   NC348419  42.313  36.909   5.555
 9299POPC   PO448420  42.342  36.888   5.855
 9299POPC   GL148421  42.288  36.923   6.155
 9299POPC   GL248422  42.407  36.855   6.155
 9299POPC   C1A48423  42.307  36.855   6.455
 9299POPC   D2A48424  42.379  36.893   6.755
 9299POPC   C3A48425  42.297  36.939   7.055
 9299POPC   C4A48426  42.342  36.908   7.355
 9299POPC   C1B48427  42.618  36.833   6.455
 9299POPC   C2B48428  42.568  36.852   6.755
 9299POPC   C3B48429  42.582  36.824   7.055
 9299POPC   C4B48430  42.592  36.826   7.355
 9300POPC   NC348431   9.772  19.860   5.555
 9300POPC   PO448432   9.746  19.813   5.855
 9300POPC   GL148433   9.719  19.830   6.155
 9300POPC   GL248434   9.656  19.837   6.155
 9300POPC   C1A48435   9.721  19.797   6.455
 9300POPC   D2A48436   9.779  19.851   6.755
 9300POPC   C3A48437   9.718  19.876   7.055
 9300POPC   C4A48438   9.707  19.863   7.355
 9300POPC   C1B48439   9.493  19.920   6.455
 9300POPC   C2B48440   9.516  19.929   6.755
 9300POPC   C3B48441   9.491  19.904   7.055
 9300POPC   C4B48442   9.509  19.897   7.355
 9301POPC   NC348443   7.371  36.863   5.555
 9301POPC   PO448444   7.379  36.884   5.855
 9301POPC   GL148445   7.394  36.920   6.155
 9301POPC   GL248446   7.311  36.909   6.155
 9301POPC   C1A48447   7.375  36.887   6.455
 9301POPC   D2A48448   7.452  36.872   6.755
 9301POPC   C3A48449   7.440  36.904   7.055
 9301POPC   C4A48450   7.392  36.870   7.355
 9301POPC   C1B48451   7.155  36.973   6.455
 9301POPC   C2B48452   7.146  36.926   6.755
 9301POPC   C3B48453   7.180  36.908   7.055
 9301POPC   C4B48454   7.139  36.960   7.355
 9302POPC   NC348455  22.902   1.187   5.555
 9302POPC   PO448456  22.915   1.202   5.855
 9302POPC   GL148457  22.906   1.172   6.155
 9302POPC   GL248458  22.990   1.310   6.155
 9302POPC   C1A48459  22.963   1.226   6.455
 9302POPC   D2A48460  22.909   1.261   6.755
 9302POPC   C3A48461  22.953   1.233   7.055
 9302POPC   C4A48462  22.943   1.232   7.355
 9302POPC   C1B48463  22.953   1.495   6.455
 9302POPC   C2B48464  22.949   1.418   6.755
 9302POPC   C3B48465  23.006   1.497   7.055
 9302POPC   C4B48466  22.948   1.499   7.355
 9303POPC   NC348467  34.565  42.312   5.555
 9303POPC   PO448468  34.545  42.384   5.855
 9303POPC   GL148469  34.555  42.380   6.155
 9303POPC   GL248470  34.553  42.188   6.155
 9303POPC   C1A48471  34.598  42.324   6.455
 9303POPC   D2A48472  34.546  42.310   6.755
 9303POPC   C3A48473  34.574  42.304   7.055
 9303POPC   C4A48474  34.618  42.367   7.355
 9303POPC   C1B48475  34.562  42.040   6.455
 9303POPC   C2B48476  34.556  42.038   6.755
 9303POPC   C3B48477  34.556  42.049   7.055
 9303POPC   C4B48478  34.583  42.107   7.355
 9304POPC   NC348479  40.775  19.795   5.555
 9304POPC   PO448480  40.765  19.861   5.855
 9304POPC   GL148481  40.806  19.863   6.155
 9304POPC   GL248482  40.899  19.754   6.155
 9304POPC   C1A48483  40.829  19.837   6.455
 9304POPC   D2A48484  40.825  19.786   6.755
 9304POPC   C3A48485  40.783  19.799   7.055
 9304POPC   C4A48486  40.759  19.802   7.355
 9304POPC   C1B48487  40.969  19.736   6.455
 9304POPC   C2B48488  40.998  19.725   6.755
 9304POPC   C3B48489  40.967  19.750   7.055
 9304POPC   C4B48490  41.005  19.736   7.355
 9305POPC   NC348491  18.288  36.864   5.555
 9305POPC   PO448492  18.328  36.874   5.855
 9305POPC   GL148493  18.297  36.855   6.155
 9305POPC   GL248494  18.219  36.781   6.155
 9305POPC   C1A48495  18.293  36.917   6.455
 9305POPC   D2A48496  18.253  36.928   6.755
 9305POPC   C3A48497  18.326  36.854   7.055
 9305POPC   C4A48498  18.267  36.898   7.355
 9305POPC   C1B48499  18.200  36.692   6.455
 9305POPC   C2B48500  18.199  36.635   6.755
 9305POPC   C3B48501  18.182  36.620   7.055
 9305POPC   C4B48502  18.225  36.711   7.355
 9306POPC   NC348503   3.501  29.177   5.555
 9306POPC   PO448504   3.516  29.174   5.855
 9306POPC   GL148505   3.502  29.193   6.155
 9306POPC   GL248506   3.666  29.226   6.155
 9306POPC   C1A48507   3.535  29.177   6.455
 9306POPC   D2A48508   3.495  29.114   6.755
 9306POPC   C3A48509   3.573  29.186   7.055
 9306POPC   C4A48510   3.528  29.184   7.355
 9306POPC   C1B48511   3.688  29.328   6.455
 9306POPC   C2B48512   3.716  29.348   6.755
 9306POPC   C3B48513   3.721  29.362   7.055
 9306POPC   C4B48514   3.647  29.306   7.355
 9307POPC   NC348515   5.077   1.992   5.555
 9307POPC   PO448516   5.098   2.026   5.855
 9307POPC   GL148517   5.078   1.955   6.155
 9307POPC   GL248518   5.078   1.840   6.155
 9307POPC   C1A48519   5.049   1.943   6.455
 9307POPC   D2A48520   5.103   1.991   6.755
 9307POPC   C3A48521   5.143   1.984   7.055
 9307POPC   C4A48522   5.092   1.948   7.355
 9307POPC   C1B48523   5.026   1.712   6.455
 9307POPC   C2B48524   5.001   1.719   6.755
 9307POPC   C3B48525   5.037   1.762   7.055
 9307POPC   C4B48526   4.973   1.746   7.355
 9308POPC   NC348527   8.205  39.974   5.555
 9308POPC   PO448528   8.204  40.049   5.855
 9308POPC   GL148529   8.154  40.045   6.155
 9308POPC   GL248530   8.107  39.891   6.155
 9308POPC   C1A48531   8.226  39.981   6.455
 9308POPC   D2A48532   8.242  40.014   6.755
 9308POPC   C3A48533   8.203  40.029   7.055
 9308POPC   C4A48534   8.228  40.006   7.355
 9308POPC   C1B48535   8.105  39.788   6.455
 9308POPC   C2B48536   8.118  39.784   6.755
 9308POPC   C3B48537   8.101  39.772   7.055
 9308POPC   C4B48538   8.072  39.728   7.355
 9309POPC   NC348539   0.425  33.813   5.555
 9309POPC   PO448540   0.410  33.773   5.855
 9309POPC   GL148541   0.406  33.751   6.155
 9309POPC   GL248542   0.391  33.919   6.155
 9309POPC   C1A48543   0.459  33.758   6.455
 9309POPC   D2A48544   0.469  33.794   6.755
 9309POPC   C3A48545   0.465  33.844   7.055
 9309POPC   C4A48546   0.477  33.800   7.355
 9309POPC   C1B48547   0.255  34.007   6.455
 9309POPC   C2B48548   0.270  34.021   6.755
 9309POPC   C3B48549   0.297  33.979   7.055
 9309POPC   C4B48550   0.273  34.032   7.355
 9310POPC   NC348551  21.341  40.816   5.555
 9310POPC   PO448552  21.366  40.777   5.855
 9310POPC   GL148553  21.341  40.770   6.155
 9310POPC   GL248554  21.336  40.902   6.155
 9310POPC   C1A48555  21.390  40.780   6.455
 9310POPC   D2A48556  21.432  40.735   6.755
 9310POPC   C3A48557  21.371  40.793   7.055
 9310POPC   C4A48558  21.350  40.779   7.355
 9310POPC   C1B48559  21.231  40.959   6.455
 9310POPC   C2B48560  21.278  40.981   6.755
 9310POPC   C3B48561  21.228  41.014   7.055
 9310POPC   C4B48562  21.222  40.937   7.355
 9311POPC   NC348563  26.807   2.725   5.555
 9311POPC   PO448564  26.858   2.759   5.855
 9311POPC   GL148565  26.791   2.742   6.155
 9311POPC   GL248566  26.829   2.655   6.155
 9311POPC   C1A48567  26.785   2.757   6.455
 9311POPC   D2A48568  26.787   2.739   6.755
 9311POPC   C3A48569  26.826   2.746   7.055
 9311POPC   C4A48570  26.824   2.726   7.355
 9311POPC   C1B48571  26.947   2.569   6.455
 9311POPC   C2B48572  26.944   2.528   6.755
 9311POPC   C3B48573  26.952   2.530   7.055
 9311POPC   C4B48574  26.895   2.585   7.355
 9312POPC   NC348575  33.039  39.989   5.555
 9312POPC   PO448576  33.035  40.035   5.855
 9312POPC   GL148577  32.976  40.019   6.155
 9312POPC   GL248578  32.903  40.039   6.155
 9312POPC   C1A48579  33.050  40.040   6.455
 9312POPC   D2A48580  33.067  39.984   6.755
 9312POPC   C3A48581  33.034  40.032   7.055
 9312POPC   C4A48582  33.052  39.964   7.355
 9312POPC   C1B48583  32.780  40.092   6.455
 9312POPC   C2B48584  32.826  40.077   6.755
 9312POPC   C3B48585  32.811  40.119   7.055
 9312POPC   C4B48586  32.787  40.061   7.355
 9313POPC   NC348587  29.141  35.398   5.555
 9313POPC   PO448588  29.189  35.366   5.855
 9313POPC   GL148589  29.142  35.318   6.155
 9313POPC   GL248590  29.287  35.358   6.155
 9313POPC   C1A48591  29.176  35.400   6.455
 9313POPC   D2A48592  29.095  35.399   6.755
 9313POPC   C3A48593  29.154  35.382   7.055
 9313POPC   C4A48594  29.131  35.392   7.355
 9313POPC   C1B48595  29.383  35.427   6.455
 9313POPC   C2B48596  29.439  35.429   6.755
 9313POPC   C3B48597  29.434  35.349   7.055
 9313POPC   C4B48598  29.424  35.377   7.355
 9314POPC   NC348599  43.119  30.730   5.555
 9314POPC   PO448600  43.123  30.720   5.855
 9314POPC   GL148601  43.139  30.702   6.155
 9314POPC   GL248602  43.176  30.820   6.155
 9314POPC   C1A48603  43.093  30.707   6.455
 9314POPC   D2A48604  43.080  30.713   6.755
 9314POPC   C3A48605  43.068  30.648   7.055
 9314POPC   C4A48606  43.088  30.707   7.355
 9314POPC   C1B48607  43.239  30.899   6.455
 9314POPC   C2B48608  43.261  30.910   6.755
 9314POPC   C3B48609  43.261  30.946   7.055
 9314POPC   C4B48610  43.273  30.923   7.355
 9315POPC   NC348611  26.861  22.202   5.555
 9315POPC   PO448612  26.844  22.200   5.855
 9315POPC   GL148613  26.799  22.156   6.155
 9315POPC   GL248614  26.796  22.260   6.155
 9315POPC   C1A48615  26.816  22.148   6.455
 9315POPC   D2A48616  26.815  22.190   6.755
 9315POPC   C3A48617  26.841  22.182   7.055
 9315POPC   C4A48618  26.842  22.131   7.355
 9315POPC   C1B48619  26.827  22.392   6.455
 9315POPC   C2B48620  26.819  22.425   6.755
 9315POPC   C3B48621  26.852  22.402   7.055
 9315POPC   C4B48622  26.790  22.386   7.355
 9316POPC   NC348623  12.116  19.051   5.555
 9316POPC   PO448624  12.063  19.108   5.855
 9316POPC   GL148625  12.085  19.072   6.155
 9316POPC   GL248626  12.155  19.155   6.155
 9316POPC   C1A48627  12.041  19.098   6.455
 9316POPC   D2A48628  12.114  19.024   6.755
 9316POPC   C3A48629  12.061  19.073   7.055
 9316POPC   C4A48630  12.032  19.064   7.355
 9316POPC   C1B48631  12.213  19.292   6.455
 9316POPC   C2B48632  12.193  19.308   6.755
 9316POPC   C3B48633  12.247  19.314   7.055
 9316POPC   C4B48634  12.214  19.275   7.355
 9317POPC   NC348635   7.389  33.795   5.555
 9317POPC   PO448636   7.462  33.793   5.855
 9317POPC   GL148637   7.457  33.764   6.155
 9317POPC   GL248638   7.438  33.914   6.155
 9317POPC   C1A48639   7.468  33.782   6.455
 9317POPC   D2A48640   7.410  33.823   6.755
 9317POPC   C3A48641   7.403  33.751   7.055
 9317POPC   C4A48642   7.393  33.836   7.355
 9317POPC   C1B48643   7.508  33.972   6.455
 9317POPC   C2B48644   7.537  34.031   6.755
 9317POPC   C3B48645   7.526  34.003   7.055
 9317POPC   C4B48646   7.554  34.024   7.355
 9318POPC   NC348647  44.688  38.487   5.555
 9318POPC   PO448648  44.627  38.480   5.855
 9318POPC   GL148649  44.676  38.468   6.155
 9318POPC   GL248650  44.706  38.314   6.155
 9318POPC   C1A48651  44.654  38.489   6.455
 9318POPC   D2A48652  44.612  38.459   6.755
 9318POPC   C3A48653  44.641  38.467   7.055
 9318POPC   C4A48654  44.630  38.441   7.355
 9318POPC   C1B48655  44.752  38.188   6.455
 9318POPC   C2B48656  44.821  38.272   6.755
 9318POPC   C3B48657  44.739  38.221   7.055
 9318POPC   C4B48658  44.782  38.280   7.355
 9319POPC   NC348659  39.237   8.996   5.555
 9319POPC   PO448660  39.193   8.937   5.855
 9319POPC   GL148661  39.186   8.941   6.155
 9319POPC   GL248662  39.166   9.098   6.155
 9319POPC   C1A48663  39.225   9.008   6.455
 9319POPC   D2A48664  39.200   9.004   6.755
 9319POPC   C3A48665  39.203   8.956   7.055
 9319POPC   C4A48666  39.188   8.982   7.355
 9319POPC   C1B48667  39.246   9.240   6.455
 9319POPC   C2B48668  39.205   9.178   6.755
 9319POPC   C3B48669  39.199   9.227   7.055
 9319POPC   C4B48670  39.151   9.175   7.355
 9320POPC   NC348671  19.818  36.119   5.555
 9320POPC   PO448672  19.844  36.154   5.855
 9320POPC   GL148673  19.821  36.138   6.155
 9320POPC   GL248674  19.887  35.988   6.155
 9320POPC   C1A48675  19.807  36.139   6.455
 9320POPC   D2A48676  19.837  36.092   6.755
 9320POPC   C3A48677  19.856  36.102   7.055
 9320POPC   C4A48678  19.852  36.132   7.355
 9320POPC   C1B48679  19.932  35.912   6.455
 9320POPC   C2B48680  19.991  35.894   6.755
 9320POPC   C3B48681  20.019  35.936   7.055
 9320POPC   C4B48682  20.020  35.879   7.355
 9321POPC   NC348683  17.545   9.718   5.555
 9321POPC   PO448684  17.470   9.748   5.855
 9321POPC   GL148685  17.549   9.718   6.155
 9321POPC   GL248686  17.663   9.797   6.155
 9321POPC   C1A48687  17.550   9.795   6.455
 9321POPC   D2A48688  17.531   9.772   6.755
 9321POPC   C3A48689  17.491   9.725   7.055
 9321POPC   C4A48690  17.516   9.737   7.355
 9321POPC   C1B48691  17.803   9.748   6.455
 9321POPC   C2B48692  17.763   9.810   6.755
 9321POPC   C3B48693  17.761   9.791   7.055
 9321POPC   C4B48694  17.781   9.777   7.355
 9322POPC   NC348695  39.969  10.509   5.555
 9322POPC   PO448696  39.984  10.528   5.855
 9322POPC   GL148697  40.052  10.555   6.155
 9322POPC   GL248698  39.842  10.529   6.155
 9322POPC   C1A48699  40.030  10.519   6.455
 9322POPC   D2A48700  39.986  10.481   6.755
 9322POPC   C3A48701  40.056  10.487   7.055
 9322POPC   C4A48702  40.005  10.494   7.355
 9322POPC   C1B48703  39.729  10.554   6.455
 9322POPC   C2B48704  39.715  10.560   6.755
 9322POPC   C3B48705  39.719  10.564   7.055
 9322POPC   C4B48706  39.771  10.567   7.355
 9323POPC   NC348707  33.830  37.722   5.555
 9323POPC   PO448708  33.810  37.691   5.855
 9323POPC   GL148709  33.828  37.651   6.155
 9323POPC   GL248710  33.696  37.798   6.155
 9323POPC   C1A48711  33.791  37.703   6.455
 9323POPC   D2A48712  33.836  37.706   6.755
 9323POPC   C3A48713  33.805  37.665   7.055
 9323POPC   C4A48714  33.846  37.696   7.355
 9323POPC   C1B48715  33.694  37.858   6.455
 9323POPC   C2B48716  33.675  37.936   6.755
 9323POPC   C3B48717  33.671  37.893   7.055
 9323POPC   C4B48718  33.673  37.868   7.355
 9324POPC   NC348719   0.426  35.337   5.555
 9324POPC   PO448720   0.397  35.321   5.855
 9324POPC   GL148721   0.459  35.390   6.155
 9324POPC   GL248722   0.564  35.342   6.155
 9324POPC   C1A48723   0.421  35.383   6.455
 9324POPC   D2A48724   0.411  35.387   6.755
 9324POPC   C3A48725   0.401  35.401   7.055
 9324POPC   C4A48726   0.431  35.357   7.355
 9324POPC   C1B48727   0.693  35.413   6.455
 9324POPC   C2B48728   0.692  35.413   6.755
 9324POPC   C3B48729   0.702  35.395   7.055
 9324POPC   C4B48730   0.641  35.420   7.355
 9325POPC   NC348731  15.132  10.489   5.555
 9325POPC   PO448732  15.170  10.493   5.855
 9325POPC   GL148733  15.139  10.571   6.155
 9325POPC   GL248734  15.199  10.417   6.155
 9325POPC   C1A48735  15.172  10.494   6.455
 9325POPC   D2A48736  15.163  10.545   6.755
 9325POPC   C3A48737  15.168  10.527   7.055
 9325POPC   C4A48738  15.186  10.544   7.355
 9325POPC   C1B48739  15.225  10.245   6.455
 9325POPC   C2B48740  15.229  10.273   6.755
 9325POPC   C3B48741  15.247  10.234   7.055
 9325POPC   C4B48742  15.245  10.276   7.355
 9326POPC   NC348743   6.681  35.392   5.555
 9326POPC   PO448744   6.606  35.316   5.855
 9326POPC   GL148745   6.682  35.374   6.155
 9326POPC   GL248746   6.730  35.455   6.155
 9326POPC   C1A48747   6.686  35.327   6.455
 9326POPC   D2A48748   6.668  35.361   6.755
 9326POPC   C3A48749   6.617  35.319   7.055
 9326POPC   C4A48750   6.694  35.328   7.355
 9326POPC   C1B48751   6.892  35.498   6.455
 9326POPC   C2B48752   6.823  35.498   6.755
 9326POPC   C3B48753   6.883  35.468   7.055
 9326POPC   C4B48754   6.816  35.473   7.355
 9327POPC   NC348755  19.794  28.346   5.555
 9327POPC   PO448756  19.794  28.406   5.855
 9327POPC   GL148757  19.834  28.406   6.155
 9327POPC   GL248758  19.682  28.455   6.155
 9327POPC   C1A48759  19.797  28.393   6.455
 9327POPC   D2A48760  19.831  28.403   6.755
 9327POPC   C3A48761  19.800  28.355   7.055
 9327POPC   C4A48762  19.852  28.354   7.355
 9327POPC   C1B48763  19.571  28.454   6.455
 9327POPC   C2B48764  19.569  28.421   6.755
 9327POPC   C3B48765  19.585  28.510   7.055
 9327POPC   C4B48766  19.588  28.453   7.355
 9328POPC   NC348767   8.934  16.741   5.555
 9328POPC   PO448768   8.977  16.747   5.855
 9328POPC   GL148769   8.961  16.751   6.155
 9328POPC   GL248770   8.879  16.714   6.155
 9328POPC   C1A48771   8.985  16.704   6.455
 9328POPC   D2A48772   8.941  16.780   6.755
 9328POPC   C3A48773   9.012  16.697   7.055
 9328POPC   C4A48774   8.951  16.754   7.355
 9328POPC   C1B48775   8.776  16.611   6.455
 9328POPC   C2B48776   8.708  16.606   6.755
 9328POPC   C3B48777   8.709  16.606   7.055
 9328POPC   C4B48778   8.711  16.672   7.355
 9329POPC   NC348779  44.641  32.263   5.555
 9329POPC   PO448780  44.636  32.281   5.855
 9329POPC   GL148781  44.681  32.247   6.155
 9329POPC   GL248782  44.789  32.308   6.155
 9329POPC   C1A48783  44.624  32.282   6.455
 9329POPC   D2A48784  44.633  32.276   6.755
 9329POPC   C3A48785  44.704  32.294   7.055
 9329POPC   C4A48786  44.687  32.295   7.355
 9329POPC   C1B48787  44.951  32.267   6.455
 9329POPC   C2B48788  44.958  32.247   6.755
 9329POPC   C3B48789  44.910  32.264   7.055
 9329POPC   C4B48790  44.893  32.302   7.355
 9330POPC   NC348791  40.811   8.217   5.555
 9330POPC   PO448792  40.771   8.148   5.855
 9330POPC   GL148793  40.765   8.156   6.155
 9330POPC   GL248794  40.700   8.264   6.155
 9330POPC   C1A48795  40.758   8.234   6.455
 9330POPC   D2A48796  40.775   8.203   6.755
 9330POPC   C3A48797  40.769   8.159   7.055
 9330POPC   C4A48798  40.748   8.200   7.355
 9330POPC   C1B48799  40.662   8.428   6.455
 9330POPC   C2B48800  40.691   8.426   6.755
 9330POPC   C3B48801  40.598   8.394   7.055
 9330POPC   C4B48802  40.614   8.356   7.355
 9331POPC   NC348803   1.173  41.561   5.555
 9331POPC   PO448804   1.185  41.588   5.855
 9331POPC   GL148805   1.171  41.545   6.155
 9331POPC   GL248806   1.218  41.652   6.155
 9331POPC   C1A48807   1.167  41.592   6.455
 9331POPC   D2A48808   1.177  41.548   6.755
 9331POPC   C3A48809   1.209  41.533   7.055
 9331POPC   C4A48810   1.202  41.588   7.355
 9331POPC   C1B48811   1.154  41.765   6.455
 9331POPC   C2B48812   1.194  41.855   6.755
 9331POPC   C3B48813   1.151  41.848   7.055
 9331POPC   C4B48814   1.244  41.825   7.355
 9332POPC   NC348815  11.324  35.318   5.555
 9332POPC   PO448816  11.286  35.307   5.855
 9332POPC   GL148817  11.326  35.350   6.155
 9332POPC   GL248818  11.362  35.266   6.155
 9332POPC   C1A48819  11.255  35.361   6.455
 9332POPC   D2A48820  11.339  35.324   6.755
 9332POPC   C3A48821  11.304  35.311   7.055
 9332POPC   C4A48822  11.336  35.318   7.355
 9332POPC   C1B48823  11.437  35.194   6.455
 9332POPC   C2B48824  11.490  35.134   6.755
 9332POPC   C3B48825  11.517  35.182   7.055
 9332POPC   C4B48826  11.507  35.172   7.355
 9333POPC   NC348827  39.993  24.450   5.555
 9333POPC   PO448828  40.052  24.450   5.855
 9333POPC   GL148829  40.008  24.445   6.155
 9333POPC   GL248830  39.960  24.559   6.155
 9333POPC   C1A48831  40.046  24.447   6.455
 9333POPC   D2A48832  39.986  24.529   6.755
 9333POPC   C3A48833  40.031  24.465   7.055
 9333POPC   C4A48834  40.004  24.520   7.355
 9333POPC   C1B48835  39.873  24.762   6.455
 9333POPC   C2B48836  39.961  24.714   6.755
 9333POPC   C3B48837  39.897  24.678   7.055
 9333POPC   C4B48838  39.967  24.732   7.355
 9334POPC   NC348839  19.050  38.491   5.555
 9334POPC   PO448840  19.040  38.419   5.855
 9334POPC   GL148841  19.017  38.408   6.155
 9334POPC   GL248842  19.138  38.376   6.155
 9334POPC   C1A48843  19.082  38.407   6.455
 9334POPC   D2A48844  19.018  38.498   6.755
 9334POPC   C3A48845  19.040  38.499   7.055
 9334POPC   C4A48846  19.022  38.455   7.355
 9334POPC   C1B48847  19.142  38.222   6.455
 9334POPC   C2B48848  19.083  38.200   6.755
 9334POPC   C3B48849  19.129  38.203   7.055
 9334POPC   C4B48850  19.158  38.250   7.355
 9335POPC   NC348851  36.096   5.821   5.555
 9335POPC   PO448852  36.124   5.839   5.855
 9335POPC   GL148853  36.164   5.909   6.155
 9335POPC   GL248854  36.247   5.951   6.155
 9335POPC   C1A48855  36.130   5.822   6.455
 9335POPC   D2A48856  36.160   5.893   6.755
 9335POPC   C3A48857  36.109   5.917   7.055
 9335POPC   C4A48858  36.141   5.849   7.355
 9335POPC   C1B48859  36.272   5.989   6.455
 9335POPC   C2B48860  36.298   6.067   6.755
 9335POPC   C3B48861  36.282   6.046   7.055
 9335POPC   C4B48862  36.334   6.002   7.355
 9336POPC   NC348863  13.641  17.460   5.555
 9336POPC   PO448864  13.580  17.468   5.855
 9336POPC   GL148865  13.661  17.460   6.155
 9336POPC   GL248866  13.632  17.388   6.155
 9336POPC   C1A48867  13.613  17.462   6.455
 9336POPC   D2A48868  13.648  17.501   6.755
 9336POPC   C3A48869  13.588  17.509   7.055
 9336POPC   C4A48870  13.668  17.499   7.355
 9336POPC   C1B48871  13.723  17.247   6.455
 9336POPC   C2B48872  13.698  17.264   6.755
 9336POPC   C3B48873  13.670  17.236   7.055
 9336POPC   C4B48874  13.642  17.245   7.355
 9337POPC   NC348875  12.828  19.066   5.555
 9337POPC   PO448876  12.830  19.011   5.855
 9337POPC   GL148877  12.829  19.062   6.155
 9337POPC   GL248878  12.967  19.146   6.155
 9337POPC   C1A48879  12.897  19.058   6.455
 9337POPC   D2A48880  12.882  19.102   6.755
 9337POPC   C3A48881  12.900  19.064   7.055
 9337POPC   C4A48882  12.872  19.096   7.355
 9337POPC   C1B48883  13.117  19.191   6.455
 9337POPC   C2B48884  13.080  19.153   6.755
 9337POPC   C3B48885  13.051  19.135   7.055
 9337POPC   C4B48886  13.089  19.122   7.355
 9338POPC   NC348887   8.214  21.382   5.555
 9338POPC   PO448888   8.154  21.410   5.855
 9338POPC   GL148889   8.176  21.422   6.155
 9338POPC   GL248890   8.317  21.377   6.155
 9338POPC   C1A48891   8.181  21.421   6.455
 9338POPC   D2A48892   8.228  21.359   6.755
 9338POPC   C3A48893   8.204  21.397   7.055
 9338POPC   C4A48894   8.198  21.396   7.355
 9338POPC   C1B48895   8.420  21.262   6.455
 9338POPC   C2B48896   8.436  21.266   6.755
 9338POPC   C3B48897   8.398  21.255   7.055
 9338POPC   C4B48898   8.421  21.271   7.355
 9339POPC   NC348899  34.613  15.166   5.555
 9339POPC   PO448900  34.615  15.175   5.855
 9339POPC   GL148901  34.619  15.147   6.155
 9339POPC   GL248902  34.540  15.276   6.155
 9339POPC   C1A48903  34.526  15.176   6.455
 9339POPC   D2A48904  34.557  15.181   6.755
 9339POPC   C3A48905  34.603  15.130   7.055
 9339POPC   C4A48906  34.576  15.165   7.355
 9339POPC   C1B48907  34.535  15.414   6.455
 9339POPC   C2B48908  34.615  15.453   6.755
 9339POPC   C3B48909  34.610  15.422   7.055
 9339POPC   C4B48910  34.566  15.453   7.355
 9340POPC   NC348911  19.852  13.624   5.555
 9340POPC   PO448912  19.854  13.674   5.855
 9340POPC   GL148913  19.840  13.632   6.155
 9340POPC   GL248914  19.921  13.696   6.155
 9340POPC   C1A48915  19.873  13.638   6.455
 9340POPC   D2A48916  19.867  13.656   6.755
 9340POPC   C3A48917  19.859  13.668   7.055
 9340POPC   C4A48918  19.838  13.652   7.355
 9340POPC   C1B48919  20.094  13.777   6.455
 9340POPC   C2B48920  20.086  13.795   6.755
 9340POPC   C3B48921  20.010  13.728   7.055
 9340POPC   C4B48922  20.074  13.760   7.355
 9341POPC   NC348923   0.405  31.453   5.555
 9341POPC   PO448924   0.411  31.445   5.855
 9341POPC   GL148925   0.393  31.514   6.155
 9341POPC   GL248926   0.318  31.553   6.155
 9341POPC   C1A48927   0.469  31.500   6.455
 9341POPC   D2A48928   0.424  31.432   6.755
 9341POPC   C3A48929   0.390  31.484   7.055
 9341POPC   C4A48930   0.449  31.480   7.355
 9341POPC   C1B48931   0.217  31.601   6.455
 9341POPC   C2B48932   0.245  31.534   6.755
 9341POPC   C3B48933   0.221  31.593   7.055
 9341POPC   C4B48934   0.175  31.535   7.355
 9342POPC   NC348935  37.674  15.971   5.555
 9342POPC   PO448936  37.667  15.977   5.855
 9342POPC   GL148937  37.725  15.981   6.155
 9342POPC   GL248938  37.601  16.040   6.155
 9342POPC   C1A48939  37.690  15.979   6.455
 9342POPC   D2A48940  37.682  15.921   6.755
 9342POPC   C3A48941  37.648  15.914   7.055
 9342POPC   C4A48942  37.651  15.951   7.355
 9342POPC   C1B48943  37.460  16.087   6.455
 9342POPC   C2B48944  37.536  16.106   6.755
 9342POPC   C3B48945  37.540  16.110   7.055
 9342POPC   C4B48946  37.473  16.146   7.355
 9343POPC   NC348947  33.797  11.338   5.555
 9343POPC   PO448948  33.806  11.292   5.855
 9343POPC   GL148949  33.803  11.343   6.155
 9343POPC   GL248950  33.882  11.189   6.155
 9343POPC   C1A48951  33.824  11.261   6.455
 9343POPC   D2A48952  33.843  11.348   6.755
 9343POPC   C3A48953  33.833  11.278   7.055
 9343POPC   C4A48954  33.808  11.270   7.355
 9343POPC   C1B48955  33.927  11.160   6.455
 9343POPC   C2B48956  33.930  11.064   6.755
 9343POPC   C3B48957  33.916  11.086   7.055
 9343POPC   C4B48958  33.969  11.068   7.355
 9344POPC   NC348959   7.394   4.343   5.555
 9344POPC   PO448960   7.445   4.348   5.855
 9344POPC   GL148961   7.434   4.295   6.155
 9344POPC   GL248962   7.314   4.314   6.155
 9344POPC   C1A48963   7.432   4.308   6.455
 9344POPC   D2A48964   7.378   4.278   6.755
 9344POPC   C3A48965   7.446   4.315   7.055
 9344POPC   C4A48966   7.466   4.324   7.355
 9344POPC   C1B48967   7.152   4.358   6.455
 9344POPC   C2B48968   7.229   4.433   6.755
 9344POPC   C3B48969   7.204   4.438   7.055
 9344POPC   C4B48970   7.204   4.354   7.355
 9345POPC   NC348971  33.031  41.538   5.555
 9345POPC   PO448972  33.022  41.594   5.855
 9345POPC   GL148973  33.028  41.514   6.155
 9345POPC   GL248974  32.967  41.473   6.155
 9345POPC   C1A48975  33.025  41.575   6.455
 9345POPC   D2A48976  33.062  41.529   6.755
 9345POPC   C3A48977  33.045  41.545   7.055
 9345POPC   C4A48978  33.059  41.558   7.355
 9345POPC   C1B48979  32.804  41.385   6.455
 9345POPC   C2B48980  32.871  41.361   6.755
 9345POPC   C3B48981  32.813  41.364   7.055
 9345POPC   C4B48982  32.809  41.402   7.355
 9346POPC   NC348983  43.102  42.351   5.555
 9346POPC   PO448984  43.068  42.323   5.855
 9346POPC   GL148985  43.136  42.293   6.155
 9346POPC   GL248986  43.011  42.439   6.155
 9346POPC   C1A48987  43.109  42.298   6.455
 9346POPC   D2A48988  43.087  42.347   6.755
 9346POPC   C3A48989  43.071  42.328   7.055
 9346POPC   C4A48990  43.088  42.338   7.355
 9346POPC   C1B48991  42.915  42.502   6.455
 9346POPC   C2B48992  42.931  42.427   6.755
 9346POPC   C3B48993  42.917  42.476   7.055
 9346POPC   C4B48994  42.914  42.433   7.355
 9347POPC   NC348995   3.581  20.563   5.555
 9347POPC   PO448996   3.588  20.568   5.855
 9347POPC   GL148997   3.502  20.572   6.155
 9347POPC   GL248998   3.661  20.569   6.155
 9347POPC   C1A48999   3.491  20.570   6.455
 9347POPC   D2A49000   3.561  20.642   6.755
 9347POPC   C3A49001   3.588  20.603   7.055
 9347POPC   C4A49002   3.555  20.631   7.355
 9347POPC   C1B49003   3.716  20.439   6.455
 9347POPC   C2B49004   3.720  20.445   6.755
 9347POPC   C3B49005   3.738  20.476   7.055
 9347POPC   C4B49006   3.747  20.432   7.355
 9348POPC   NC349007   5.058   9.002   5.555
 9348POPC   PO449008   5.096   8.967   5.855
 9348POPC   GL149009   5.121   8.974   6.155
 9348POPC   GL249010   5.149   8.851   6.155
 9348POPC   C1A49011   5.059   9.006   6.455
 9348POPC   D2A49012   5.065   9.005   6.755
 9348POPC   C3A49013   5.099   8.933   7.055
 9348POPC   C4A49014   5.078   8.974   7.355
 9348POPC   C1B49015   5.154   8.742   6.455
 9348POPC   C2B49016   5.156   8.717   6.755
 9348POPC   C3B49017   5.204   8.708   7.055
 9348POPC   C4B49018   5.191   8.781   7.355
 9349POPC   NC349019   8.230   2.020   5.555
 9349POPC   PO449020   8.245   2.006   5.855
 9349POPC   GL149021   8.157   2.002   6.155
 9349POPC   GL249022   8.258   2.056   6.155
 9349POPC   C1A49023   8.175   2.018   6.455
 9349POPC   D2A49024   8.160   1.958   6.755
 9349POPC   C3A49025   8.221   1.941   7.055
 9349POPC   C4A49026   8.211   1.956   7.355
 9349POPC   C1B49027   8.364   2.074   6.455
 9349POPC   C2B49028   8.396   2.105   6.755
 9349POPC   C3B49029   8.421   2.073   7.055
 9349POPC   C4B49030   8.410   2.167   7.355
 9350POPC   NC349031  22.118  19.090   5.555
 9350POPC   PO449032  22.173  19.023   5.855
 9350POPC   GL149033  22.145  19.049   6.155
 9350POPC   GL249034  22.165  18.924   6.155
 9350POPC   C1A49035  22.151  19.055   6.455
 9350POPC   D2A49036  22.211  19.018   6.755
 9350POPC   C3A49037  22.197  19.075   7.055
 9350POPC   C4A49038  22.116  19.030   7.355
 9350POPC   C1B49039  22.233  18.845   6.455
 9350POPC   C2B49040  22.213  18.859   6.755
 9350POPC   C3B49041  22.155  18.765   7.055
 9350POPC   C4B49042  22.176  18.768   7.355
 9351POPC   NC349043   0.488   5.854   5.555
 9351POPC   PO449044   0.450   5.917   5.855
 9351POPC   GL149045   0.416   5.831   6.155
 9351POPC   GL249046   0.520   5.914   6.155
 9351POPC   C1A49047   0.467   5.842   6.455
 9351POPC   D2A49048   0.400   5.888   6.755
 9351POPC   C3A49049   0.478   5.854   7.055
 9351POPC   C4A49050   0.488   5.902   7.355
 9351POPC   C1B49051   0.582   6.065   6.455
 9351POPC   C2B49052   0.576   5.986   6.755
 9351POPC   C3B49053   0.672   6.067   7.055
 9351POPC   C4B49054   0.579   5.998   7.355
 9352POPC   NC349055  24.500  12.026   5.555
 9352POPC   PO449056  24.484  12.043   5.855
 9352POPC   GL149057  24.506  12.102   6.155
 9352POPC   GL249058  24.417  11.995   6.155
 9352POPC   C1A49059  24.508  12.034   6.455
 9352POPC   D2A49060  24.522  12.093   6.755
 9352POPC   C3A49061  24.489  12.124   7.055
 9352POPC   C4A49062  24.455  12.125   7.355
 9352POPC   C1B49063  24.371  11.882   6.455
 9352POPC   C2B49064  24.416  11.886   6.755
 9352POPC   C3B49065  24.417  11.799   7.055
 9352POPC   C4B49066  24.407  11.892   7.355
 9353POPC   NC349067   5.880  12.874   5.555
 9353POPC   PO449068   5.839  12.818   5.855
 9353POPC   GL149069   5.899  12.897   6.155
 9353POPC   GL249070   5.705  12.775   6.155
 9353POPC   C1A49071   5.862  12.834   6.455
 9353POPC   D2A49072   5.906  12.889   6.755
 9353POPC   C3A49073   5.854  12.834   7.055
 9353POPC   C4A49074   5.904  12.857   7.355
 9353POPC   C1B49075   5.619  12.788   6.455
 9353POPC   C2B49076   5.637  12.756   6.755
 9353POPC   C3B49077   5.676  12.830   7.055
 9353POPC   C4B49078   5.636  12.738   7.355
 9354POPC   NC349079  28.407  41.602   5.555
 9354POPC   PO449080  28.337  41.548   5.855
 9354POPC   GL149081  28.360  41.587   6.155
 9354POPC   GL249082  28.490  41.607   6.155
 9354POPC   C1A49083  28.379  41.510   6.455
 9354POPC   D2A49084  28.331  41.509   6.755
 9354POPC   C3A49085  28.320  41.576   7.055
 9354POPC   C4A49086  28.381  41.531   7.355
 9354POPC   C1B49087  28.572  41.697   6.455
 9354POPC   C2B49088  28.517  41.707   6.755
 9354POPC   C3B49089  28.551  41.703   7.055
 9354POPC   C4B49090  28.523  41.735   7.355
 9355POPC   NC349091  27.585  40.780   5.555
 9355POPC   PO449092  27.556  40.786   5.855
 9355POPC   GL149093  27.636  40.750   6.155
 9355POPC   GL249094  27.512  40.669   6.155
 9355POPC   C1A49095  27.617  40.742   6.455
 9355POPC   D2A49096  27.638  40.767   6.755
 9355POPC   C3A49097  27.627  40.793   7.055
 9355POPC   C4A49098  27.564  40.770   7.355
 9355POPC   C1B49099  27.452  40.511   6.455
 9355POPC   C2B49100  27.464  40.594   6.755
 9355POPC   C3B49101  27.480  40.574   7.055
 9355POPC   C4B49102  27.522  40.567   7.355
 9356POPC   NC349103  17.506   7.439   5.555
 9356POPC   PO449104  17.489   7.398   5.855
 9356POPC   GL149105  17.495   7.462   6.155
 9356POPC   GL249106  17.419   7.393   6.155
 9356POPC   C1A49107  17.483   7.441   6.455
 9356POPC   D2A49108  17.556   7.432   6.755
 9356POPC   C3A49109  17.463   7.434   7.055
 9356POPC   C4A49110  17.468   7.419   7.355
 9356POPC   C1B49111  17.273   7.410   6.455
 9356POPC   C2B49112  17.213   7.409   6.755
 9356POPC   C3B49113  17.252   7.369   7.055
 9356POPC   C4B49114  17.249   7.378   7.355
 9357POPC   NC349115  38.453  26.075   5.555
 9357POPC   PO449116  38.452  26.087   5.855
 9357POPC   GL149117  38.465  26.041   6.155
 9357POPC   GL249118  38.347  26.075   6.155
 9357POPC   C1A49119  38.426  26.066   6.455
 9357POPC   D2A49120  38.421  25.992   6.755
 9357POPC   C3A49121  38.422  26.072   7.055
 9357POPC   C4A49122  38.457  26.042   7.355
 9357POPC   C1B49123  38.174  26.146   6.455
 9357POPC   C2B49124  38.219  26.077   6.755
 9357POPC   C3B49125  38.255  26.065   7.055
 9357POPC   C4B49126  38.201  26.137   7.355
 9358POPC   NC349127  15.987  23.666   5.555
 9358POPC   PO449128  15.953  23.679   5.855
 9358POPC   GL149129  15.994  23.700   6.155
 9358POPC   GL249130  16.074  23.750   6.155
 9358POPC   C1A49131  15.990  23.746   6.455
 9358POPC   D2A49132  15.927  23.671   6.755
 9358POPC   C3A49133  15.977  23.683   7.055
 9358POPC   C4A49134  15.973  23.686   7.355
 9358POPC   C1B49135  16.254  23.766   6.455
 9358POPC   C2B49136  16.233  23.758   6.755
 9358POPC   C3B49137  16.164  23.678   7.055
 9358POPC   C4B49138  16.245  23.696   7.355
 9359POPC   NC349139  38.449  24.525   5.555
 9359POPC   PO449140  38.477  24.529   5.855
 9359POPC   GL149141  38.412  24.488   6.155
 9359POPC   GL249142  38.599  24.380   6.155
 9359POPC   C1A49143  38.469  24.470   6.455
 9359POPC   D2A49144  38.460  24.539   6.755
 9359POPC   C3A49145  38.474  24.482   7.055
 9359POPC   C4A49146  38.444  24.464   7.355
 9359POPC   C1B49147  38.657  24.381   6.455
 9359POPC   C2B49148  38.607  24.324   6.755
 9359POPC   C3B49149  38.695  24.380   7.055
 9359POPC   C4B49150  38.651  24.372   7.355
 9360POPC   NC349151  40.000  37.698   5.555
 9360POPC   PO449152  40.010  37.723   5.855
 9360POPC   GL149153  39.991  37.724   6.155
 9360POPC   GL249154  40.064  37.551   6.155
 9360POPC   C1A49155  40.029  37.672   6.455
 9360POPC   D2A49156  40.024  37.652   6.755
 9360POPC   C3A49157  39.961  37.688   7.055
 9360POPC   C4A49158  39.968  37.727   7.355
 9360POPC   C1B49159  39.995  37.394   6.455
 9360POPC   C2B49160  40.048  37.400   6.755
 9360POPC   C3B49161  39.990  37.457   7.055
 9360POPC   C4B49162  40.054  37.393   7.355
 9361POPC   NC349163  42.296   2.754   5.555
 9361POPC   PO449164  42.380   2.738   5.855
 9361POPC   GL149165  42.363   2.723   6.155
 9361POPC   GL249166  42.405   2.764   6.155
 9361POPC   C1A49167  42.322   2.765   6.455
 9361POPC   D2A49168  42.351   2.765   6.755
 9361POPC   C3A49169  42.371   2.786   7.055
 9361POPC   C4A49170  42.336   2.768   7.355
 9361POPC   C1B49171  42.572   2.717   6.455
 9361POPC   C2B49172  42.591   2.706   6.755
 9361POPC   C3B49173  42.528   2.642   7.055
 9361POPC   C4B49174  42.547   2.642   7.355
 9362POPC   NC349175   5.062  30.745   5.555
 9362POPC   PO449176   5.053  30.709   5.855
 9362POPC   GL149177   5.098  30.744   6.155
 9362POPC   GL249178   4.983  30.685   6.155
 9362POPC   C1A49179   5.058  30.709   6.455
 9362POPC   D2A49180   5.123  30.736   6.755
 9362POPC   C3A49181   5.107  30.678   7.055
 9362POPC   C4A49182   5.065  30.725   7.355
 9362POPC   C1B49183   4.810  30.678   6.455
 9362POPC   C2B49184   4.800  30.657   6.755
 9362POPC   C3B49185   4.869  30.652   7.055
 9362POPC   C4B49186   4.855  30.708   7.355
 9363POPC   NC349187  21.387  42.353   5.555
 9363POPC   PO449188  21.421  42.322   5.855
 9363POPC   GL149189  21.416  42.345   6.155
 9363POPC   GL249190  21.469  42.468   6.155
 9363POPC   C1A49191  21.383  42.316   6.455
 9363POPC   D2A49192  21.391  42.348   6.755
 9363POPC   C3A49193  21.355  42.293   7.055
 9363POPC   C4A49194  21.419  42.372   7.355
 9363POPC   C1B49195  21.562  42.570   6.455
 9363POPC   C2B49196  21.550  42.533   6.755
 9363POPC   C3B49197  21.510  42.530   7.055
 9363POPC   C4B49198  21.510  42.525   7.355
 9364POPC   NC349199  29.880  14.394   5.555
 9364POPC   PO449200  29.880  14.418   5.855
 9364POPC   GL149201  29.935  14.379   6.155
 9364POPC   GL249202  30.072  14.368   6.155
 9364POPC   C1A49203  29.929  14.363   6.455
 9364POPC   D2A49204  29.936  14.371   6.755
 9364POPC   C3A49205  29.878  14.416   7.055
 9364POPC   C4A49206  29.954  14.369   7.355
 9364POPC   C1B49207  30.165  14.279   6.455
 9364POPC   C2B49208  30.194  14.335   6.755
 9364POPC   C3B49209  30.134  14.377   7.055
 9364POPC   C4B49210  30.145  14.366   7.355
 9365POPC   NC349211   4.312  37.672   5.555
 9365POPC   PO449212   4.299  37.671   5.855
 9365POPC   GL149213   4.291  37.681   6.155
 9365POPC   GL249214   4.488  37.665   6.155
 9365POPC   C1A49215   4.332  37.699   6.455
 9365POPC   D2A49216   4.312  37.662   6.755
 9365POPC   C3A49217   4.343  37.666   7.055
 9365POPC   C4A49218   4.327  37.645   7.355
 9365POPC   C1B49219   4.529  37.740   6.455
 9365POPC   C2B49220   4.555  37.755   6.755
 9365POPC   C3B49221   4.554  37.747   7.055
 9365POPC   C4B49222   4.616  37.740   7.355
 9366POPC   NC349223  30.685  15.132   5.555
 9366POPC   PO449224  30.739  15.183   5.855
 9366POPC   GL149225  30.731  15.170   6.155
 9366POPC   GL249226  30.629  15.254   6.155
 9366POPC   C1A49227  30.663  15.133   6.455
 9366POPC   D2A49228  30.732  15.200   6.755
 9366POPC   C3A49229  30.699  15.217   7.055
 9366POPC   C4A49230  30.679  15.224   7.355
 9366POPC   C1B49231  30.489  15.312   6.455
 9366POPC   C2B49232  30.505  15.406   6.755
 9366POPC   C3B49233  30.484  15.317   7.055
 9366POPC   C4B49234  30.522  15.336   7.355
 9367POPC   NC349235   2.757   2.037   5.555
 9367POPC   PO449236   2.733   1.996   5.855
 9367POPC   GL149237   2.742   1.967   6.155
 9367POPC   GL249238   2.680   2.008   6.155
 9367POPC   C1A49239   2.777   1.952   6.455
 9367POPC   D2A49240   2.814   1.974   6.755
 9367POPC   C3A49241   2.752   1.972   7.055
 9367POPC   C4A49242   2.723   1.968   7.355
 9367POPC   C1B49243   2.483   2.087   6.455
 9367POPC   C2B49244   2.482   2.094   6.755
 9367POPC   C3B49245   2.500   2.052   7.055
 9367POPC   C4B49246   2.572   2.050   7.355
 9368POPC   NC349247  32.293  11.313   5.555
 9368POPC   PO449248  32.272  11.259   5.855
 9368POPC   GL149249  32.264  11.306   6.155
 9368POPC   GL249250  32.212  11.436   6.155
 9368POPC   C1A49251  32.276  11.319   6.455
 9368POPC   D2A49252  32.230  11.252   6.755
 9368POPC   C3A49253  32.294  11.324   7.055
 9368POPC   C4A49254  32.247  11.349   7.355
 9368POPC   C1B49255  32.211  11.583   6.455
 9368POPC   C2B49256  32.231  11.507   6.755
 9368POPC   C3B49257  32.197  11.557   7.055
 9368POPC   C4B49258  32.209  11.499   7.355
 9369POPC   NC349259  30.668   9.789   5.555
 9369POPC   PO449260  30.695   9.790   5.855
 9369POPC   GL149261  30.734   9.763   6.155
 9369POPC   GL249262  30.782   9.810   6.155
 9369POPC   C1A49263  30.722   9.714   6.455
 9369POPC   D2A49264  30.717   9.789   6.755
 9369POPC   C3A49265  30.701   9.764   7.055
 9369POPC   C4A49266  30.677   9.779   7.355
 9369POPC   C1B49267  30.807   9.953   6.455
 9369POPC   C2B49268  30.809   9.972   6.755
 9369POPC   C3B49269  30.803   9.965   7.055
 9369POPC   C4B49270  30.850   9.951   7.355
 9370POPC   NC349271   1.999   2.789   5.555
 9370POPC   PO449272   2.030   2.724   5.855
 9370POPC   GL149273   1.945   2.735   6.155
 9370POPC   GL249274   1.874   2.744   6.155
 9370POPC   C1A49275   1.976   2.722   6.455
 9370POPC   D2A49276   2.013   2.765   6.755
 9370POPC   C3A49277   1.947   2.741   7.055
 9370POPC   C4A49278   2.021   2.790   7.355
 9370POPC   C1B49279   1.720   2.753   6.455
 9370POPC   C2B49280   1.786   2.794   6.755
 9370POPC   C3B49281   1.765   2.782   7.055
 9370POPC   C4B49282   1.743   2.765   7.355
 9371POPC   NC349283  16.739  44.663   5.555
 9371POPC   PO449284  16.777  44.634   5.855
 9371POPC   GL149285  16.726  44.616   6.155
 9371POPC   GL249286  16.816  44.619   6.155
 9371POPC   C1A49287  16.743  44.683   6.455
 9371POPC   D2A49288  16.733  44.698   6.755
 9371POPC   C3A49289  16.760  44.683   7.055
 9371POPC   C4A49290  16.708  44.687   7.355
 9371POPC   C1B49291  16.950  44.461   6.455
 9371POPC   C2B49292  16.956  44.486   6.755
 9371POPC   C3B49293  16.955  44.550   7.055
 9371POPC   C4B49294  16.886  44.489   7.355
 9372POPC   NC349295   4.353  12.892   5.555
 9372POPC   PO449296   4.326  12.844   5.855
 9372POPC   GL149297   4.311  12.883   6.155
 9372POPC   GL249298   4.175  12.765   6.155
 9372POPC   C1A49299   4.307  12.875   6.455
 9372POPC   D2A49300   4.326  12.853   6.755
 9372POPC   C3A49301   4.320  12.836   7.055
 9372POPC   C4A49302   4.288  12.822   7.355
 9372POPC   C1B49303   4.149  12.667   6.455
 9372POPC   C2B49304   4.098  12.716   6.755
 9372POPC   C3B49305   4.177  12.637   7.055
 9372POPC   C4B49306   4.120  12.703   7.355
 9373POPC   NC349307  14.425   1.235   5.555
 9373POPC   PO449308  14.434   1.193   5.855
 9373POPC   GL149309  14.370   1.260   6.155
 9373POPC   GL249310  14.437   1.067   6.155
 9373POPC   C1A49311  14.452   1.252   6.455
 9373POPC   D2A49312  14.356   1.185   6.755
 9373POPC   C3A49313  14.402   1.184   7.055
 9373POPC   C4A49314  14.370   1.205   7.355
 9373POPC   C1B49315  14.449   0.979   6.455
 9373POPC   C2B49316  14.503   0.956   6.755
 9373POPC   C3B49317  14.496   0.961   7.055
 9373POPC   C4B49318  14.518   0.947   7.355
 9374POPC   NC349319  41.608  22.112   5.555
 9374POPC   PO449320  41.562  22.164   5.855
 9374POPC   GL149321  41.598  22.154   6.155
 9374POPC   GL249322  41.598  22.206   6.155
 9374POPC   C1A49323  41.544  22.180   6.455
 9374POPC   D2A49324  41.603  22.131   6.755
 9374POPC   C3A49325  41.511  22.171   7.055
 9374POPC   C4A49326  41.554  22.189   7.355
 9374POPC   C1B49327  41.683  22.317   6.455
 9374POPC   C2B49328  41.724  22.349   6.755
 9374POPC   C3B49329  41.774  22.389   7.055
 9374POPC   C4B49330  41.771  22.342   7.355
 9375POPC   NC349331  27.599  33.016   5.555
 9375POPC   PO449332  27.609  33.020   5.855
 9375POPC   GL149333  27.590  33.063   6.155
 9375POPC   GL249334  27.759  33.083   6.155
 9375POPC   C1A49335  27.566  32.978   6.455
 9375POPC   D2A49336  27.550  33.029   6.755
 9375POPC   C3A49337  27.607  33.063   7.055
 9375POPC   C4A49338  27.578  33.009   7.355
 9375POPC   C1B49339  27.850  33.030   6.455
 9375POPC   C2B49340  27.862  33.084   6.755
 9375POPC   C3B49341  27.838  33.051   7.055
 9375POPC   C4B49342  27.819  33.095   7.355
 9376POPC   NC349343  12.802  24.525   5.555
 9376POPC   PO449344  12.805  24.452   5.855
 9376POPC   GL149345  12.855  24.443   6.155
 9376POPC   GL249346  12.858  24.390   6.155
 9376POPC   C1A49347  12.881  24.515   6.455
 9376POPC   D2A49348  12.815  24.502   6.755
 9376POPC   C3A49349  12.890  24.515   7.055
 9376POPC   C4A49350  12.819  24.489   7.355
 9376POPC   C1B49351  12.805  24.288   6.455
 9376POPC   C2B49352  12.764  24.200   6.755
 9376POPC   C3B49353  12.799  24.225   7.055
 9376POPC   C4B49354  12.747  24.212   7.355
 9377POPC   NC349355  42.371   6.613   5.555
 9377POPC   PO449356  42.368   6.596   5.855
 9377POPC   GL149357  42.333   6.627   6.155
 9377POPC   GL249358  42.410   6.751   6.155
 9377POPC   C1A49359  42.384   6.689   6.455
 9377POPC   D2A49360  42.372   6.678   6.755
 9377POPC   C3A49361  42.362   6.619   7.055
 9377POPC   C4A49362  42.347   6.654   7.355
 9377POPC   C1B49363  42.409   6.894   6.455
 9377POPC   C2B49364  42.443   6.838   6.755
 9377POPC   C3B49365  42.391   6.846   7.055
 9377POPC   C4B49366  42.381   6.838   7.355
 9378POPC   NC349367   2.726  20.657   5.555
 9378POPC   PO449368   2.789  20.599   5.855
 9378POPC   GL149369   2.766  20.646   6.155
 9378POPC   GL249370   2.760  20.686   6.155
 9378POPC   C1A49371   2.799  20.617   6.455
 9378POPC   D2A49372   2.749  20.606   6.755
 9378POPC   C3A49373   2.750  20.606   7.055
 9378POPC   C4A49374   2.746  20.605   7.355
 9378POPC   C1B49375   2.887  20.854   6.455
 9378POPC   C2B49376   2.870  20.816   6.755
 9378POPC   C3B49377   2.879  20.860   7.055
 9378POPC   C4B49378   2.856  20.800   7.355
 9379POPC   NC349379   0.406  22.154   5.555
 9379POPC   PO449380   0.415  22.186   5.855
 9379POPC   GL149381   0.459  22.116   6.155
 9379POPC   GL249382   0.558  22.149   6.155
 9379POPC   C1A49383   0.437  22.119   6.455
 9379POPC   D2A49384   0.392  22.159   6.755
 9379POPC   C3A49385   0.474  22.135   7.055
 9379POPC   C4A49386   0.478  22.115   7.355
 9379POPC   C1B49387   0.694  22.247   6.455
 9379POPC   C2B49388   0.649  22.203   6.755
 9379POPC   C3B49389   0.727  22.181   7.055
 9379POPC   C4B49390   0.722  22.227   7.355
 9380POPC   NC349391   1.259   0.435   5.555
 9380POPC   PO449392   1.197   0.429   5.855
 9380POPC   GL149393   1.225   0.476   6.155
 9380POPC   GL249394   1.207   0.280   6.155
 9380POPC   C1A49395   1.261   0.421   6.455
 9380POPC   D2A49396   1.233   0.440   6.755
 9380POPC   C3A49397   1.242   0.417   7.055
 9380POPC   C4A49398   1.245   0.463   7.355
 9380POPC   C1B49399   1.116   0.221   6.455
 9380POPC   C2B49400   1.055   0.231   6.755
 9380POPC   C3B49401   1.111   0.170   7.055
 9380POPC   C4B49402   1.087   0.173   7.355
 9381POPC   NC349403   7.415  16.702   5.555
 9381POPC   PO449404   7.460  16.718   5.855
 9381POPC   GL149405   7.452  16.701   6.155
 9381POPC   GL249406   7.423  16.830   6.155
 9381POPC   C1A49407   7.388  16.750   6.455
 9381POPC   D2A49408   7.409  16.716   6.755
 9381POPC   C3A49409   7.425  16.771   7.055
 9381POPC   C4A49410   7.416  16.713   7.355
 9381POPC   C1B49411   7.457  16.940   6.455
 9381POPC   C2B49412   7.423  16.950   6.755
 9381POPC   C3B49413   7.420  17.024   7.055
 9381POPC   C4B49414   7.478  17.026   7.355
 9382POPC   NC349415   5.893  31.429   5.555
 9382POPC   PO449416   5.907  31.507   5.855
 9382POPC   GL149417   5.892  31.499   6.155
 9382POPC   GL249418   5.918  31.333   6.155
 9382POPC   C1A49419   5.919  31.447   6.455
 9382POPC   D2A49420   5.892  31.476   6.755
 9382POPC   C3A49421   5.900  31.472   7.055
 9382POPC   C4A49422   5.901  31.485   7.355
 9382POPC   C1B49423   5.958  31.230   6.455
 9382POPC   C2B49424   5.994  31.202   6.755
 9382POPC   C3B49425   6.005  31.232   7.055
 9382POPC   C4B49426   5.923  31.206   7.355
 9383POPC   NC349427  41.581  40.021   5.555
 9383POPC   PO449428  41.539  40.037   5.855
 9383POPC   GL149429  41.532  40.029   6.155
 9383POPC   GL249430  41.483  39.923   6.155
 9383POPC   C1A49431  41.517  39.990   6.455
 9383POPC   D2A49432  41.516  40.001   6.755
 9383POPC   C3A49433  41.567  40.002   7.055
 9383POPC   C4A49434  41.582  40.000   7.355
 9383POPC   C1B49435  41.436  39.723   6.455
 9383POPC   C2B49436  41.510  39.742   6.755
 9383POPC   C3B49437  41.512  39.816   7.055
 9383POPC   C4B49438  41.527  39.773   7.355
 9384POPC   NC349439  18.280  27.616   5.555
 9384POPC   PO449440  18.307  27.563   5.855
 9384POPC   GL149441  18.322  27.603   6.155
 9384POPC   GL249442  18.290  27.708   6.155
 9384POPC   C1A49443  18.262  27.597   6.455
 9384POPC   D2A49444  18.329  27.603   6.755
 9384POPC   C3A49445  18.287  27.580   7.055
 9384POPC   C4A49446  18.251  27.601   7.355
 9384POPC   C1B49447  18.280  27.828   6.455
 9384POPC   C2B49448  18.335  27.818   6.755
 9384POPC   C3B49449  18.354  27.863   7.055
 9384POPC   C4B49450  18.267  27.832   7.355
 9385POPC   NC349451  31.505  33.009   5.555
 9385POPC   PO449452  31.424  33.006   5.855
 9385POPC   GL149453  31.428  33.036   6.155
 9385POPC   GL249454  31.571  33.040   6.155
 9385POPC   C1A49455  31.506  32.986   6.455
 9385POPC   D2A49456  31.423  33.027   6.755
 9385POPC   C3A49457  31.515  33.001   7.055
 9385POPC   C4A49458  31.464  32.999   7.355
 9385POPC   C1B49459  31.702  33.039   6.455
 9385POPC   C2B49460  31.745  33.100   6.755
 9385POPC   C3B49461  31.733  33.022   7.055
 9385POPC   C4B49462  31.721  33.040   7.355
 9386POPC   NC349463   1.998  29.947   5.555
 9386POPC   PO449464   1.976  29.890   5.855
 9386POPC   GL149465   1.982  29.945   6.155
 9386POPC   GL249466   2.087  29.800   6.155
 9386POPC   C1A49467   1.970  29.880   6.455
 9386POPC   D2A49468   1.952  29.882   6.755
 9386POPC   C3A49469   2.037  29.920   7.055
 9386POPC   C4A49470   2.032  29.938   7.355
 9386POPC   C1B49471   2.182  29.709   6.455
 9386POPC   C2B49472   2.195  29.760   6.755
 9386POPC   C3B49473   2.145  29.705   7.055
 9386POPC   C4B49474   2.114  29.707   7.355
 9387POPC   NC349475   6.652  19.036   5.555
 9387POPC   PO449476   6.679  19.015   5.855
 9387POPC   GL149477   6.627  19.020   6.155
 9387POPC   GL249478   6.728  19.189   6.155
 9387POPC   C1A49479   6.672  19.062   6.455
 9387POPC   D2A49480   6.639  19.022   6.755
 9387POPC   C3A49481   6.671  19.068   7.055
 9387POPC   C4A49482   6.642  19.054   7.355
 9387POPC   C1B49483   6.736  19.234   6.455
 9387POPC   C2B49484   6.799  19.237   6.755
 9387POPC   C3B49485   6.789  19.298   7.055
 9387POPC   C4B49486   6.794  19.295   7.355
 9388POPC   NC349487  27.581   7.380   5.555
 9388POPC   PO449488  27.583   7.405   5.855
 9388POPC   GL149489  27.627   7.423   6.155
 9388POPC   GL249490  27.468   7.321   6.155
 9388POPC   C1A49491  27.581   7.396   6.455
 9388POPC   D2A49492  27.557   7.419   6.755
 9388POPC   C3A49493  27.560   7.372   7.055
 9388POPC   C4A49494  27.551   7.389   7.355
 9388POPC   C1B49495  27.471   7.192   6.455
 9388POPC   C2B49496  27.416   7.190   6.755
 9388POPC   C3B49497  27.428   7.193   7.055
 9388POPC   C4B49498  27.411   7.202   7.355
 9389POPC   NC349499  38.409  28.400   5.555
 9389POPC   PO449500  38.452  28.345   5.855
 9389POPC   GL149501  38.456  28.367   6.155
 9389POPC   GL249502  38.361  28.435   6.155
 9389POPC   C1A49503  38.504  28.413   6.455
 9389POPC   D2A49504  38.457  28.409   6.755
 9389POPC   C3A49505  38.432  28.327   7.055
 9389POPC   C4A49506  38.500  28.397   7.355
 9389POPC   C1B49507  38.288  28.543   6.455
 9389POPC   C2B49508  38.331  28.594   6.755
 9389POPC   C3B49509  38.373  28.546   7.055
 9389POPC   C4B49510  38.375  28.596   7.355
 9390POPC   NC349511  18.277  31.464   5.555
 9390POPC   PO449512  18.276  31.470   5.855
 9390POPC   GL149513  18.271  31.513   6.155
 9390POPC   GL249514  18.279  31.562   6.155
 9390POPC   C1A49515  18.298  31.503   6.455
 9390POPC   D2A49516  18.262  31.429   6.755
 9390POPC   C3A49517  18.250  31.472   7.055
 9390POPC   C4A49518  18.311  31.465   7.355
 9390POPC   C1B49519  18.273  31.729   6.455
 9390POPC   C2B49520  18.194  31.712   6.755
 9390POPC   C3B49521  18.196  31.690   7.055
 9390POPC   C4B49522  18.270  31.673   7.355
 9391POPC   NC349523   5.050   2.811   5.555
 9391POPC   PO449524   5.118   2.773   5.855
 9391POPC   GL149525   5.126   2.733   6.155
 9391POPC   GL249526   5.188   2.805   6.155
 9391POPC   C1A49527   5.110   2.773   6.455
 9391POPC   D2A49528   5.054   2.749   6.755
 9391POPC   C3A49529   5.061   2.761   7.055
 9391POPC   C4A49530   5.051   2.737   7.355
 9391POPC   C1B49531   5.288   2.947   6.455
 9391POPC   C2B49532   5.257   2.947   6.755
 9391POPC   C3B49533   5.312   2.955   7.055
 9391POPC   C4B49534   5.247   2.922   7.355
 9392POPC   NC349535  19.864  16.686   5.555
 9392POPC   PO449536  19.812  16.759   5.855
 9392POPC   GL149537  19.800  16.736   6.155
 9392POPC   GL249538  19.758  16.706   6.155
 9392POPC   C1A49539  19.829  16.763   6.455
 9392POPC   D2A49540  19.786  16.776   6.755
 9392POPC   C3A49541  19.839  16.761   7.055
 9392POPC   C4A49542  19.873  16.702   7.355
 9392POPC   C1B49543  19.556  16.765   6.455
 9392POPC   C2B49544  19.564  16.704   6.755
 9392POPC   C3B49545  19.613  16.743   7.055
 9392POPC   C4B49546  19.579  16.764   7.355
 9393POPC   NC349547  13.622  21.366   5.555
 9393POPC   PO449548  13.675  21.348   5.855
 9393POPC   GL149549  13.641  21.371   6.155
 9393POPC   GL249550  13.554  21.307   6.155
 9393POPC   C1A49551  13.677  21.383   6.455
 9393POPC   D2A49552  13.647  21.369   6.755
 9393POPC   C3A49553  13.653  21.339   7.055
 9393POPC   C4A49554  13.619  21.417   7.355
 9393POPC   C1B49555  13.391  21.205   6.455
 9393POPC   C2B49556  13.394  21.212   6.755
 9393POPC   C3B49557  13.378  21.282   7.055
 9393POPC   C4B49558  13.471  21.263   7.355
 9394POPC   NC349559  36.114  23.757   5.555
 9394POPC   PO449560  36.132  23.680   5.855
 9394POPC   GL149561  36.082  23.720   6.155
 9394POPC   GL249562  36.005  23.712   6.155
 9394POPC   C1A49563  36.098  23.763   6.455
 9394POPC   D2A49564  36.116  23.734   6.755
 9394POPC   C3A49565  36.138  23.678   7.055
 9394POPC   C4A49566  36.156  23.700   7.355
 9394POPC   C1B49567  35.930  23.620   6.455
 9394POPC   C2B49568  35.897  23.703   6.755
 9394POPC   C3B49569  35.934  23.650   7.055
 9394POPC   C4B49570  35.872  23.660   7.355
 9395POPC   NC349571  27.590  29.130   5.555
 9395POPC   PO449572  27.589  29.177   5.855
 9395POPC   GL149573  27.611  29.166   6.155
 9395POPC   GL249574  27.614  29.278   6.155
 9395POPC   C1A49575  27.561  29.148   6.455
 9395POPC   D2A49576  27.554  29.158   6.755
 9395POPC   C3A49577  27.595  29.170   7.055
 9395POPC   C4A49578  27.544  29.127   7.355
 9395POPC   C1B49579  27.615  29.379   6.455
 9395POPC   C2B49580  27.612  29.406   6.755
 9395POPC   C3B49581  27.670  29.377   7.055
 9395POPC   C4B49582  27.632  29.338   7.355
 9396POPC   NC349583   6.625  39.225   5.555
 9396POPC   PO449584   6.606  39.240   5.855
 9396POPC   GL149585   6.685  39.186   6.155
 9396POPC   GL249586   6.639  39.148   6.155
 9396POPC   C1A49587   6.666  39.214   6.455
 9396POPC   D2A49588   6.618  39.254   6.755
 9396POPC   C3A49589   6.677  39.250   7.055
 9396POPC   C4A49590   6.679  39.213   7.355
 9396POPC   C1B49591   6.573  38.997   6.455
 9396POPC   C2B49592   6.583  38.936   6.755
 9396POPC   C3B49593   6.557  39.026   7.055
 9396POPC   C4B49594   6.635  39.009   7.355
 9397POPC   NC349595  38.450  29.113   5.555
 9397POPC   PO449596  38.498  29.183   5.855
 9397POPC   GL149597  38.448  29.138   6.155
 9397POPC   GL249598  38.403  29.277   6.155
 9397POPC   C1A49599  38.411  29.189   6.455
 9397POPC   D2A49600  38.447  29.113   6.755
 9397POPC   C3A49601  38.486  29.138   7.055
 9397POPC   C4A49602  38.468  29.126   7.355
 9397POPC   C1B49603  38.348  29.359   6.455
 9397POPC   C2B49604  38.309  29.328   6.755
 9397POPC   C3B49605  38.303  29.344   7.055
 9397POPC   C4B49606  38.315  29.331   7.355
 9398POPC   NC349607  35.358  25.311   5.555
 9398POPC   PO449608  35.391  25.303   5.855
 9398POPC   GL149609  35.321  25.236   6.155
 9398POPC   GL249610  35.384  25.383   6.155
 9398POPC   C1A49611  35.355  25.241   6.455
 9398POPC   D2A49612  35.365  25.302   6.755
 9398POPC   C3A49613  35.340  25.232   7.055
 9398POPC   C4A49614  35.324  25.219   7.355
 9398POPC   C1B49615  35.502  25.537   6.455
 9398POPC   C2B49616  35.503  25.452   6.755
 9398POPC   C3B49617  35.464  25.444   7.055
 9398POPC   C4B49618  35.482  25.496   7.355
 9399POPC   NC349619  42.360  16.752   5.555
 9399POPC   PO449620  42.327  16.776   5.855
 9399POPC   GL149621  42.323  16.748   6.155
 9399POPC   GL249622  42.363  16.833   6.155
 9399POPC   C1A49623  42.349  16.770   6.455
 9399POPC   D2A49624  42.351  16.745   6.755
 9399POPC   C3A49625  42.342  16.699   7.055
 9399POPC   C4A49626  42.286  16.739   7.355
 9399POPC   C1B49627  42.323  16.966   6.455
 9399POPC   C2B49628  42.356  17.029   6.755
 9399POPC   C3B49629  42.300  16.999   7.055
 9399POPC   C4B49630  42.324  16.963   7.355
 9400POPC   NC349631  17.459  14.443   5.555
 9400POPC   PO449632  17.494  14.402   5.855
 9400POPC   GL149633  17.464  14.432   6.155
 9400POPC   GL249634  17.532  14.296   6.155
 9400POPC   C1A49635  17.480  14.375   6.455
 9400POPC   D2A49636  17.516  14.387   6.755
 9400POPC   C3A49637  17.459  14.358   7.055
 9400POPC   C4A49638  17.538  14.369   7.355
 9400POPC   C1B49639  17.612  14.198   6.455
 9400POPC   C2B49640  17.606  14.202   6.755
 9400POPC   C3B49641  17.645  14.166   7.055
 9400POPC   C4B49642  17.603  14.214   7.355
 9401POPC   NC349643  17.495  38.461   5.555
 9401POPC   PO449644  17.493  38.464   5.855
 9401POPC   GL149645  17.467  38.453   6.155
 9401POPC   GL249646  17.635  38.412   6.155
 9401POPC   C1A49647  17.511  38.465   6.455
 9401POPC   D2A49648  17.466  38.474   6.755
 9401POPC   C3A49649  17.528  38.460   7.055
 9401POPC   C4A49650  17.470  38.424   7.355
 9401POPC   C1B49651  17.727  38.432   6.455
 9401POPC   C2B49652  17.783  38.448   6.755
 9401POPC   C3B49653  17.743  38.427   7.055
 9401POPC   C4B49654  17.770  38.432   7.355
 9402POPC   NC349655  38.485  35.326   5.555
 9402POPC   PO449656  38.416  35.316   5.855
 9402POPC   GL149657  38.425  35.352   6.155
 9402POPC   GL249658  38.452  35.241   6.155
 9402POPC   C1A49659  38.503  35.330   6.455
 9402POPC   D2A49660  38.481  35.324   6.755
 9402POPC   C3A49661  38.467  35.381   7.055
 9402POPC   C4A49662  38.423  35.320   7.355
 9402POPC   C1B49663  38.541  35.125   6.455
 9402POPC   C2B49664  38.502  35.146   6.755
 9402POPC   C3B49665  38.489  35.146   7.055
 9402POPC   C4B49666  38.582  35.113   7.355
 9403POPC   NC349667   3.531  19.033   5.555
 9403POPC   PO449668   3.587  19.061   5.855
 9403POPC   GL149669   3.551  19.039   6.155
 9403POPC   GL249670   3.483  19.187   6.155
 9403POPC   C1A49671   3.573  19.087   6.455
 9403POPC   D2A49672   3.531  19.099   6.755
 9403POPC   C3A49673   3.588  19.090   7.055
 9403POPC   C4A49674   3.575  19.022   7.355
 9403POPC   C1B49675   3.453  19.320   6.455
 9403POPC   C2B49676   3.361  19.290   6.755
 9403POPC   C3B49677   3.397  19.312   7.055
 9403POPC   C4B49678   3.418  19.262   7.355
 9404POPC   NC349679   8.222  16.743   5.555
 9404POPC   PO449680   8.242  16.690   5.855
 9404POPC   GL149681   8.243  16.740   6.155
 9404POPC   GL249682   8.036  16.728   6.155
 9404POPC   C1A49683   8.181  16.704   6.455
 9404POPC   D2A49684   8.155  16.741   6.755
 9404POPC   C3A49685   8.187  16.744   7.055
 9404POPC   C4A49686   8.153  16.712   7.355
 9404POPC   C1B49687   7.975  16.810   6.455
 9404POPC   C2B49688   7.973  16.847   6.755
 9404POPC   C3B49689   7.921  16.811   7.055
 9404POPC   C4B49690   7.917  16.837   7.355
 9405POPC   NC349691   0.454  20.565   5.555
 9405POPC   PO449692   0.452  20.656   5.855
 9405POPC   GL149693   0.392  20.577   6.155
 9405POPC   GL249694   0.292  20.648   6.155
 9405POPC   C1A49695   0.431  20.564   6.455
 9405POPC   D2A49696   0.484  20.622   6.755
 9405POPC   C3A49697   0.470  20.604   7.055
 9405POPC   C4A49698   0.461  20.576   7.355
 9405POPC   C1B49699   0.149  20.686   6.455
 9405POPC   C2B49700   0.157  20.604   6.755
 9405POPC   C3B49701   0.168  20.695   7.055
 9405POPC   C4B49702   0.182  20.617   7.355
 9406POPC   NC349703  36.928  32.283   5.555
 9406POPC   PO449704  36.943  32.284   5.855
 9406POPC   GL149705  36.857  32.270   6.155
 9406POPC   GL249706  36.776  32.232   6.155
 9406POPC   C1A49707  36.918  32.255   6.455
 9406POPC   D2A49708  36.901  32.245   6.755
 9406POPC   C3A49709  36.917  32.294   7.055
 9406POPC   C4A49710  36.868  32.217   7.355
 9406POPC   C1B49711  36.636  32.244   6.455
 9406POPC   C2B49712  36.633  32.294   6.755
 9406POPC   C3B49713  36.683  32.297   7.055
 9406POPC   C4B49714  36.651  32.303   7.355
 9407POPC   NC349715   1.173   6.657   5.555
 9407POPC   PO449716   1.221   6.601   5.855
 9407POPC   GL149717   1.236   6.650   6.155
 9407POPC   GL249718   1.203   6.512   6.155
 9407POPC   C1A49719   1.175   6.666   6.455
 9407POPC   D2A49720   1.238   6.622   6.755
 9407POPC   C3A49721   1.251   6.671   7.055
 9407POPC   C4A49722   1.227   6.619   7.355
 9407POPC   C1B49723   1.068   6.444   6.455
 9407POPC   C2B49724   1.075   6.434   6.755
 9407POPC   C3B49725   1.142   6.447   7.055
 9407POPC   C4B49726   1.125   6.408   7.355
 9408POPC   NC349727   5.896  27.560   5.555
 9408POPC   PO449728   5.917  27.584   5.855
 9408POPC   GL149729   5.902  27.632   6.155
 9408POPC   GL249730   5.844  27.720   6.155
 9408POPC   C1A49731   5.821  27.576   6.455
 9408POPC   D2A49732   5.877  27.590   6.755
 9408POPC   C3A49733   5.857  27.548   7.055
 9408POPC   C4A49734   5.918  27.642   7.355
 9408POPC   C1B49735   5.727  27.767   6.455
 9408POPC   C2B49736   5.689  27.780   6.755
 9408POPC   C3B49737   5.776  27.825   7.055
 9408POPC   C4B49738   5.780  27.813   7.355
 9409POPC   NC349739  27.636   2.747   5.555
 9409POPC   PO449740  27.596   2.777   5.855
 9409POPC   GL149741  27.583   2.754   6.155
 9409POPC   GL249742  27.688   2.681   6.155
 9409POPC   C1A49743  27.632   2.789   6.455
 9409POPC   D2A49744  27.618   2.767   6.755
 9409POPC   C3A49745  27.641   2.747   7.055
 9409POPC   C4A49746  27.588   2.806   7.355
 9409POPC   C1B49747  27.866   2.655   6.455
 9409POPC   C2B49748  27.782   2.629   6.755
 9409POPC   C3B49749  27.788   2.661   7.055
 9409POPC   C4B49750  27.818   2.610   7.355
 9410POPC   NC349751  19.867  34.596   5.555
 9410POPC   PO449752  19.863  34.580   5.855
 9410POPC   GL149753  19.865  34.531   6.155
 9410POPC   GL249754  19.980  34.507   6.155
 9410POPC   C1A49755  19.883  34.616   6.455
 9410POPC   D2A49756  19.817  34.529   6.755
 9410POPC   C3A49757  19.818  34.596   7.055
 9410POPC   C4A49758  19.821  34.543   7.355
 9410POPC   C1B49759  20.026  34.443   6.455
 9410POPC   C2B49760  20.019  34.526   6.755
 9410POPC   C3B49761  20.031  34.441   7.055
 9410POPC   C4B49762  20.041  34.489   7.355
 9411POPC   NC349763  38.473  36.899   5.555
 9411POPC   PO449764  38.498  36.890   5.855
 9411POPC   GL149765  38.420  36.914   6.155
 9411POPC   GL249766  38.508  36.820   6.155
 9411POPC   C1A49767  38.424  36.929   6.455
 9411POPC   D2A49768  38.464  36.951   6.755
 9411POPC   C3A49769  38.469  36.872   7.055
 9411POPC   C4A49770  38.425  36.944   7.355
 9411POPC   C1B49771  38.584  36.689   6.455
 9411POPC   C2B49772  38.515  36.688   6.755
 9411POPC   C3B49773  38.587  36.712   7.055
 9411POPC   C4B49774  38.577  36.625   7.355
 9412POPC   NC349775   5.858  22.955   5.555
 9412POPC   PO449776   5.850  22.946   5.855
 9412POPC   GL149777   5.822  22.928   6.155
 9412POPC   GL249778   5.787  22.949   6.155
 9412POPC   C1A49779   5.836  22.953   6.455
 9412POPC   D2A49780   5.889  22.944   6.755
 9412POPC   C3A49781   5.891  22.961   7.055
 9412POPC   C4A49782   5.915  22.902   7.355
 9412POPC   C1B49783   5.608  22.910   6.455
 9412POPC   C2B49784   5.613  22.933   6.755
 9412POPC   C3B49785   5.635  22.895   7.055
 9412POPC   C4B49786   5.630  22.980   7.355
 9413POPC   NC349787   7.448  43.889   5.555
 9413POPC   PO449788   7.461  43.910   5.855
 9413POPC   GL149789   7.395  43.864   6.155
 9413POPC   GL249790   7.311  43.785   6.155
 9413POPC   C1A49791   7.404  43.850   6.455
 9413POPC   D2A49792   7.467  43.898   6.755
 9413POPC   C3A49793   7.402  43.877   7.055
 9413POPC   C4A49794   7.419  43.842   7.355
 9413POPC   C1B49795   7.295  43.631   6.455
 9413POPC   C2B49796   7.273  43.706   6.755
 9413POPC   C3B49797   7.277  43.678   7.055
 9413POPC   C4B49798   7.249  43.714   7.355
 9414POPC   NC349799  26.801  26.071   5.555
 9414POPC   PO449800  26.820  26.076   5.855
 9414POPC   GL149801  26.835  26.015   6.155
 9414POPC   GL249802  26.727  26.061   6.155
 9414POPC   C1A49803  26.801  26.017   6.455
 9414POPC   D2A49804  26.780  25.991   6.755
 9414POPC   C3A49805  26.856  26.016   7.055
 9414POPC   C4A49806  26.782  26.049   7.355
 9414POPC   C1B49807  26.576  26.153   6.455
 9414POPC   C2B49808  26.636  26.217   6.755
 9414POPC   C3B49809  26.613  26.167   7.055
 9414POPC   C4B49810  26.645  26.193   7.355
 9415POPC   NC349811  40.746  19.030   5.555
 9415POPC   PO449812  40.734  19.028   5.855
 9415POPC   GL149813  40.821  19.084   6.155
 9415POPC   GL249814  40.875  18.966   6.155
 9415POPC   C1A49815  40.800  19.041   6.455
 9415POPC   D2A49816  40.739  19.107   6.755
 9415POPC   C3A49817  40.781  19.042   7.055
 9415POPC   C4A49818  40.830  19.100   7.355
 9415POPC   C1B49819  40.932  18.849   6.455
 9415POPC   C2B49820  40.888  18.882   6.755
 9415POPC   C3B49821  40.913  18.801   7.055
 9415POPC   C4B49822  40.887  18.874   7.355
 9416POPC   NC349823  15.925   0.428   5.555
 9416POPC   PO449824  15.946   0.480   5.855
 9416POPC   GL149825  15.953   0.391   6.155
 9416POPC   GL249826  15.920   0.516   6.155
 9416POPC   C1A49827  15.953   0.454   6.455
 9416POPC   D2A49828  15.995   0.457   6.755
 9416POPC   C3A49829  15.951   0.449   7.055
 9416POPC   C4A49830  15.948   0.477   7.355
 9416POPC   C1B49831  15.818   0.620   6.455
 9416POPC   C2B49832  15.858   0.655   6.755
 9416POPC   C3B49833  15.887   0.685   7.055
 9416POPC   C4B49834  15.845   0.673   7.355
 9417POPC   NC349835   6.661  27.619   5.555
 9417POPC   PO449836   6.676  27.595   5.855
 9417POPC   GL149837   6.616  27.593   6.155
 9417POPC   GL249838   6.721  27.589   6.155
 9417POPC   C1A49839   6.637  27.606   6.455
 9417POPC   D2A49840   6.596  27.578   6.755
 9417POPC   C3A49841   6.677  27.602   7.055
 9417POPC   C4A49842   6.674  27.590   7.355
 9417POPC   C1B49843   6.855  27.550   6.455
 9417POPC   C2B49844   6.860  27.526   6.755
 9417POPC   C3B49845   6.904  27.568   7.055
 9417POPC   C4B49846   6.936  27.491   7.355
 9418POPC   NC349847  39.273  26.082   5.555
 9418POPC   PO449848  39.254  26.080   5.855
 9418POPC   GL149849  39.199  26.006   6.155
 9418POPC   GL249850  39.335  26.131   6.155
 9418POPC   C1A49851  39.182  26.073   6.455
 9418POPC   D2A49852  39.279  26.049   6.755
 9418POPC   C3A49853  39.274  26.029   7.055
 9418POPC   C4A49854  39.276  26.072   7.355
 9418POPC   C1B49855  39.429  26.134   6.455
 9418POPC   C2B49856  39.424  26.199   6.755
 9418POPC   C3B49857  39.418  26.129   7.055
 9418POPC   C4B49858  39.502  26.180   7.355
 9419POPC   NC349859  19.035  44.709   5.555
 9419POPC   PO449860  19.091  44.668   5.855
 9419POPC   GL149861  19.101  44.619   6.155
 9419POPC   GL249862  19.172  44.607   6.155
 9419POPC   C1A49863  19.028  44.640   6.455
 9419POPC   D2A49864  19.063  44.612   6.755
 9419POPC   C3A49865  19.030  44.663   7.055
 9419POPC   C4A49866  19.034  44.638   7.355
 9419POPC   C1B49867  19.275  44.638   6.455
 9419POPC   C2B49868  19.321  44.583   6.755
 9419POPC   C3B49869  19.270  44.620   7.055
 9419POPC   C4B49870  19.303  44.573   7.355
 9420POPC   NC349871   2.034  43.097   5.555
 9420POPC   PO449872   1.943  43.137   5.855
 9420POPC   GL149873   2.027  43.113   6.155
 9420POPC   GL249874   1.854  42.991   6.155
 9420POPC   C1A49875   1.952  43.090   6.455
 9420POPC   D2A49876   2.014  43.087   6.755
 9420POPC   C3A49877   1.946  43.133   7.055
 9420POPC   C4A49878   2.005  43.077   7.355
 9420POPC   C1B49879   1.796  42.946   6.455
 9420POPC   C2B49880   1.812  42.932   6.755
 9420POPC   C3B49881   1.836  42.938   7.055
 9420POPC   C4B49882   1.808  42.994   7.355
 9421POPC   NC349883   3.529  12.865   5.555
 9421POPC   PO449884   3.540  12.871   5.855
 9421POPC   GL149885   3.562  12.831   6.155
 9421POPC   GL249886   3.416  12.932   6.155
 9421POPC   C1A49887   3.574  12.890   6.455
 9421POPC   D2A49888   3.523  12.878   6.755
 9421POPC   C3A49889   3.497  12.866   7.055
 9421POPC   C4A49890   3.528  12.859   7.355
 9421POPC   C1B49891   3.335  12.977   6.455
 9421POPC   C2B49892   3.327  13.005   6.755
 9421POPC   C3B49893   3.338  13.000   7.055
 9421POPC   C4B49894   3.387  13.000   7.355
 9422POPC   NC349895  38.474  31.442   5.555
 9422POPC   PO449896  38.486  31.455   5.855
 9422POPC   GL149897  38.407  31.516   6.155
 9422POPC   GL249898  38.447  31.604   6.155
 9422POPC   C1A49899  38.411  31.502   6.455
 9422POPC   D2A49900  38.477  31.434   6.755
 9422POPC   C3A49901  38.476  31.451   7.055
 9422POPC   C4A49902  38.413  31.474   7.355
 9422POPC   C1B49903  38.530  31.734   6.455
 9422POPC   C2B49904  38.454  31.709   6.755
 9422POPC   C3B49905  38.506  31.743   7.055
 9422POPC   C4B49906  38.488  31.762   7.355
 9423POPC   NC349907  31.484  19.802   5.555
 9423POPC   PO449908  31.434  19.853   5.855
 9423POPC   GL149909  31.454  19.818   6.155
 9423POPC   GL249910  31.494  19.950   6.155
 9423POPC   C1A49911  31.492  19.833   6.455
 9423POPC   D2A49912  31.496  19.793   6.755
 9423POPC   C3A49913  31.439  19.815   7.055
 9423POPC   C4A49914  31.446  19.873   7.355
 9423POPC   C1B49915  31.545  20.111   6.455
 9423POPC   C2B49916  31.535  20.110   6.755
 9423POPC   C3B49917  31.564  20.116   7.055
 9423POPC   C4B49918  31.544  20.099   7.355
 9424POPC   NC349919   3.560  38.438   5.555
 9424POPC   PO449920   3.577  38.481   5.855
 9424POPC   GL149921   3.514  38.461   6.155
 9424POPC   GL249922   3.616  38.546   6.155
 9424POPC   C1A49923   3.513  38.483   6.455
 9424POPC   D2A49924   3.513  38.475   6.755
 9424POPC   C3A49925   3.566  38.484   7.055
 9424POPC   C4A49926   3.558  38.480   7.355
 9424POPC   C1B49927   3.657  38.665   6.455
 9424POPC   C2B49928   3.630  38.729   6.755
 9424POPC   C3B49929   3.580  38.657   7.055
 9424POPC   C4B49930   3.617  38.672   7.355
 9425POPC   NC349931  24.517   1.991   5.555
 9425POPC   PO449932  24.478   1.967   5.855
 9425POPC   GL149933  24.504   1.957   6.155
 9425POPC   GL249934  24.386   2.055   6.155
 9425POPC   C1A49935  24.504   1.970   6.455
 9425POPC   D2A49936  24.482   1.964   6.755
 9425POPC   C3A49937  24.514   2.021   7.055
 9425POPC   C4A49938  24.507   2.010   7.355
 9425POPC   C1B49939  24.205   2.037   6.455
 9425POPC   C2B49940  24.233   2.028   6.755
 9425POPC   C3B49941  24.245   2.067   7.055
 9425POPC   C4B49942  24.212   2.068   7.355
 9426POPC   NC349943  22.143  41.516   5.555
 9426POPC   PO449944  22.198  41.577   5.855
 9426POPC   GL149945  22.155  41.586   6.155
 9426POPC   GL249946  22.265  41.602   6.155
 9426POPC   C1A49947  22.186  41.588   6.455
 9426POPC   D2A49948  22.171  41.588   6.755
 9426POPC   C3A49949  22.173  41.574   7.055
 9426POPC   C4A49950  22.166  41.585   7.355
 9426POPC   C1B49951  22.428  41.577   6.455
 9426POPC   C2B49952  22.417  41.528   6.755
 9426POPC   C3B49953  22.461  41.539   7.055
 9426POPC   C4B49954  22.406  41.583   7.355
 9427POPC   NC349955   8.158  34.612   5.555
 9427POPC   PO449956   8.204  34.580   5.855
 9427POPC   GL149957   8.165  34.625   6.155
 9427POPC   GL249958   8.193  34.742   6.155
 9427POPC   C1A49959   8.207  34.555   6.455
 9427POPC   D2A49960   8.161  34.593   6.755
 9427POPC   C3A49961   8.203  34.593   7.055
 9427POPC   C4A49962   8.165  34.607   7.355
 9427POPC   C1B49963   8.207  34.856   6.455
 9427POPC   C2B49964   8.176  34.835   6.755
 9427POPC   C3B49965   8.268  34.805   7.055
 9427POPC   C4B49966   8.197  34.822   7.355
 9428POPC   NC349967  13.653  26.841   5.555
 9428POPC   PO449968  13.600  26.852   5.855
 9428POPC   GL149969  13.632  26.836   6.155
 9428POPC   GL249970  13.630  26.980   6.155
 9428POPC   C1A49971  13.668  26.808   6.455
 9428POPC   D2A49972  13.660  26.844   6.755
 9428POPC   C3A49973  13.585  26.855   7.055
 9428POPC   C4A49974  13.671  26.833   7.355
 9428POPC   C1B49975  13.637  27.096   6.455
 9428POPC   C2B49976  13.596  27.034   6.755
 9428POPC   C3B49977  13.555  27.053   7.055
 9428POPC   C4B49978  13.622  27.030   7.355
 9429POPC   NC349979  15.182  35.394   5.555
 9429POPC   PO449980  15.212  35.347   5.855
 9429POPC   GL149981  15.143  35.368   6.155
 9429POPC   GL249982  15.237  35.471   6.155
 9429POPC   C1A49983  15.198  35.331   6.455
 9429POPC   D2A49984  15.134  35.304   6.755
 9429POPC   C3A49985  15.185  35.376   7.055
 9429POPC   C4A49986  15.161  35.345   7.355
 9429POPC   C1B49987  15.269  35.595   6.455
 9429POPC   C2B49988  15.229  35.578   6.755
 9429POPC   C3B49989  15.177  35.578   7.055
 9429POPC   C4B49990  15.237  35.569   7.355
 9430POPC   NC349991  33.804  28.330   5.555
 9430POPC   PO449992  33.757  28.354   5.855
 9430POPC   GL149993  33.807  28.359   6.155
 9430POPC   GL249994  33.748  28.221   6.155
 9430POPC   C1A49995  33.797  28.335   6.455
 9430POPC   D2A49996  33.757  28.337   6.755
 9430POPC   C3A49997  33.816  28.356   7.055
 9430POPC   C4A49998  33.847  28.366   7.355
 9430POPC   C1B49999  33.644  28.107   6.455
 9430POPC   C2B50000  33.662  28.132   6.755
 9430POPC   C3B50001  33.684  28.117   7.055
 9430POPC   C4B50002  33.704  28.182   7.355
 9431POPC   NC350003  38.490   7.445   5.555
 9431POPC   PO450004  38.470   7.373   5.855
 9431POPC   GL150005  38.493   7.385   6.155
 9431POPC   GL250006  38.591   7.423   6.155
 9431POPC   C1A50007  38.482   7.466   6.455
 9431POPC   D2A50008  38.480   7.433   6.755
 9431POPC   C3A50009  38.410   7.376   7.055
 9431POPC   C4A50010  38.436   7.444   7.355
 9431POPC   C1B50011  38.718   7.339   6.455
 9431POPC   C2B50012  38.671   7.352   6.755
 9431POPC   C3B50013  38.693   7.349   7.055
 9431POPC   C4B50014  38.666   7.406   7.355
 9432POPC   NC350015   2.722  36.086   5.555
 9432POPC   PO450016   2.787  36.132   5.855
 9432POPC   GL150017   2.758  36.128   6.155
 9432POPC   GL250018   2.650  36.026   6.155
 9432POPC   C1A50019   2.808  36.124   6.455
 9432POPC   D2A50020   2.813  36.113   6.755
 9432POPC   C3A50021   2.807  36.105   7.055
 9432POPC   C4A50022   2.778  36.102   7.355
 9432POPC   C1B50023   2.658  35.872   6.455
 9432POPC   C2B50024   2.660  35.947   6.755
 9432POPC   C3B50025   2.674  35.964   7.055
 9432POPC   C4B50026   2.615  35.917   7.355
 9433POPC   NC350027  29.881  10.524   5.555
 9433POPC   PO450028  29.943  10.506   5.855
 9433POPC   GL150029  29.923  10.484   6.155
 9433POPC   GL250030  29.849  10.409   6.155
 9433POPC   C1A50031  29.919  10.486   6.455
 9433POPC   D2A50032  29.940  10.520   6.755
 9433POPC   C3A50033  29.932  10.539   7.055
 9433POPC   C4A50034  29.914  10.563   7.355
 9433POPC   C1B50035  29.713  10.412   6.455
 9433POPC   C2B50036  29.672  10.343   6.755
 9433POPC   C3B50037  29.702  10.377   7.055
 9433POPC   C4B50038  29.714  10.413   7.355
 9434POPC   NC350039   3.497  37.673   5.555
 9434POPC   PO450040   3.514  37.686   5.855
 9434POPC   GL150041   3.545  37.667   6.155
 9434POPC   GL250042   3.617  37.635   6.155
 9434POPC   C1A50043   3.581  37.667   6.455
 9434POPC   D2A50044   3.506  37.676   6.755
 9434POPC   C3A50045   3.561  37.689   7.055
 9434POPC   C4A50046   3.508  37.707   7.355
 9434POPC   C1B50047   3.833  37.647   6.455
 9434POPC   C2B50048   3.820  37.625   6.755
 9434POPC   C3B50049   3.759  37.679   7.055
 9434POPC   C4B50050   3.741  37.655   7.355
 9435POPC   NC350051  39.241  33.821   5.555
 9435POPC   PO450052  39.279  33.805   5.855
 9435POPC   GL150053  39.216  33.807   6.155
 9435POPC   GL250054  39.359  33.845   6.155
 9435POPC   C1A50055  39.200  33.751   6.455
 9435POPC   D2A50056  39.193  33.783   6.755
 9435POPC   C3A50057  39.202  33.813   7.055
 9435POPC   C4A50058  39.202  33.756   7.355
 9435POPC   C1B50059  39.396  33.977   6.455
 9435POPC   C2B50060  39.391  34.030   6.755
 9435POPC   C3B50061  39.373  33.937   7.055
 9435POPC   C4B50062  39.412  33.996   7.355
 9436POPC   NC350063  28.327  35.305   5.555
 9436POPC   PO450064  28.357  35.366   5.855
 9436POPC   GL150065  28.387  35.336   6.155
 9436POPC   GL250066  28.408  35.284   6.155
 9436POPC   C1A50067  28.385  35.359   6.455
 9436POPC   D2A50068  28.406  35.398   6.755
 9436POPC   C3A50069  28.405  35.313   7.055
 9436POPC   C4A50070  28.337  35.323   7.355
 9436POPC   C1B50071  28.532  35.109   6.455
 9436POPC   C2B50072  28.467  35.173   6.755
 9436POPC   C3B50073  28.524  35.109   7.055
 9436POPC   C4B50074  28.450  35.108   7.355
 9437POPC   NC350075   7.454  41.580   5.555
 9437POPC   PO450076   7.408  41.545   5.855
 9437POPC   GL150077   7.372  41.605   6.155
 9437POPC   GL250078   7.504  41.662   6.155
 9437POPC   C1A50079   7.404  41.509   6.455
 9437POPC   D2A50080   7.425  41.590   6.755
 9437POPC   C3A50081   7.434  41.588   7.055
 9437POPC   C4A50082   7.449  41.529   7.355
 9437POPC   C1B50083   7.584  41.781   6.455
 9437POPC   C2B50084   7.564  41.765   6.755
 9437POPC   C3B50085   7.606  41.708   7.055
 9437POPC   C4B50086   7.622  41.746   7.355
 9438POPC   NC350087  37.641  28.344   5.555
 9438POPC   PO450088  37.712  28.379   5.855
 9438POPC   GL150089  37.657  28.341   6.155
 9438POPC   GL250090  37.739  28.221   6.155
 9438POPC   C1A50091  37.717  28.374   6.455
 9438POPC   D2A50092  37.671  28.355   6.755
 9438POPC   C3A50093  37.654  28.327   7.055
 9438POPC   C4A50094  37.698  28.359   7.355
 9438POPC   C1B50095  37.763  28.083   6.455
 9438POPC   C2B50096  37.704  28.100   6.755
 9438POPC   C3B50097  37.702  28.168   7.055
 9438POPC   C4B50098  37.768  28.120   7.355
 9439POPC   NC350099   0.419  34.527   5.555
 9439POPC   PO450100   0.463  34.543   5.855
 9439POPC   GL150101   0.481  34.559   6.155
 9439POPC   GL250102   0.392  34.699   6.155
 9439POPC   C1A50103   0.408  34.550   6.455
 9439POPC   D2A50104   0.483  34.593   6.755
 9439POPC   C3A50105   0.473  34.592   7.055
 9439POPC   C4A50106   0.389  34.572   7.355
 9439POPC   C1B50107   0.354  34.866   6.455
 9439POPC   C2B50108   0.385  34.779   6.755
 9439POPC   C3B50109   0.354  34.792   7.055
 9439POPC   C4B50110   0.417  34.841   7.355
 9440POPC   NC350111  37.716  18.253   5.555
 9440POPC   PO450112  37.672  18.331   5.855
 9440POPC   GL150113  37.703  18.273   6.155
 9440POPC   GL250114  37.793  18.310   6.155
 9440POPC   C1A50115  37.665  18.321   6.455
 9440POPC   D2A50116  37.667  18.279   6.755
 9440POPC   C3A50117  37.725  18.276   7.055
 9440POPC   C4A50118  37.700  18.269   7.355
 9440POPC   C1B50119  37.945  18.286   6.455
 9440POPC   C2B50120  37.955  18.246   6.755
 9440POPC   C3B50121  37.937  18.244   7.055
 9440POPC   C4B50122  37.930  18.226   7.355
 9441POPC   NC350123  27.610  22.896   5.555
 9441POPC   PO450124  27.585  22.918   5.855
 9441POPC   GL150125  27.640  22.922   6.155
 9441POPC   GL250126  27.531  22.845   6.155
 9441POPC   C1A50127  27.584  22.890   6.455
 9441POPC   D2A50128  27.610  22.985   6.755
 9441POPC   C3A50129  27.631  22.915   7.055
 9441POPC   C4A50130  27.636  22.919   7.355
 9441POPC   C1B50131  27.470  22.759   6.455
 9441POPC   C2B50132  27.433  22.786   6.755
 9441POPC   C3B50133  27.393  22.767   7.055
 9441POPC   C4B50134  27.441  22.709   7.355
 9442POPC   NC350135  36.132  39.995   5.555
 9442POPC   PO450136  36.078  40.036   5.855
 9442POPC   GL150137  36.165  39.957   6.155
 9442POPC   GL250138  36.170  40.101   6.155
 9442POPC   C1A50139  36.112  40.034   6.455
 9442POPC   D2A50140  36.165  40.025   6.755
 9442POPC   C3A50141  36.112  40.014   7.055
 9442POPC   C4A50142  36.144  40.005   7.355
 9442POPC   C1B50143  36.218  40.189   6.455
 9442POPC   C2B50144  36.242  40.220   6.755
 9442POPC   C3B50145  36.205  40.236   7.055
 9442POPC   C4B50146  36.255  40.191   7.355
 9443POPC   NC350147  43.157   6.677   5.555
 9443POPC   PO450148  43.129   6.649   5.855
 9443POPC   GL150149  43.147   6.646   6.155
 9443POPC   GL250150  42.997   6.719   6.155
 9443POPC   C1A50151  43.079   6.671   6.455
 9443POPC   D2A50152  43.087   6.597   6.755
 9443POPC   C3A50153  43.076   6.688   7.055
 9443POPC   C4A50154  43.150   6.628   7.355
 9443POPC   C1B50155  42.836   6.743   6.455
 9443POPC   C2B50156  42.846   6.704   6.755
 9443POPC   C3B50157  42.912   6.673   7.055
 9443POPC   C4B50158  42.906   6.738   7.355
 9444POPC   NC350159  27.616  15.180   5.555
 9444POPC   PO450160  27.562  15.162   5.855
 9444POPC   GL150161  27.580  15.142   6.155
 9444POPC   GL250162  27.715  15.178   6.155
 9444POPC   C1A50163  27.623  15.213   6.455
 9444POPC   D2A50164  27.566  15.184   6.755
 9444POPC   C3A50165  27.565  15.221   7.055
 9444POPC   C4A50166  27.604  15.163   7.355
 9444POPC   C1B50167  27.847  15.171   6.455
 9444POPC   C2B50168  27.887  15.194   6.755
 9444POPC   C3B50169  27.853  15.178   7.055
 9444POPC   C4B50170  27.799  15.218   7.355
 9445POPC   NC350171  36.937   5.897   5.555
 9445POPC   PO450172  36.945   5.866   5.855
 9445POPC   GL150173  36.937   5.832   6.155
 9445POPC   GL250174  37.037   5.807   6.155
 9445POPC   C1A50175  36.860   5.902   6.455
 9445POPC   D2A50176  36.886   5.901   6.755
 9445POPC   C3A50177  36.915   5.864   7.055
 9445POPC   C4A50178  36.906   5.821   7.355
 9445POPC   C1B50179  37.158   5.693   6.455
 9445POPC   C2B50180  37.128   5.766   6.755
 9445POPC   C3B50181  37.086   5.733   7.055
 9445POPC   C4B50182  37.147   5.753   7.355
 9446POPC   NC350183   6.630   6.644   5.555
 9446POPC   PO450184   6.658   6.672   5.855
 9446POPC   GL150185   6.631   6.669   6.155
 9446POPC   GL250186   6.545   6.743   6.155
 9446POPC   C1A50187   6.691   6.608   6.455
 9446POPC   D2A50188   6.662   6.661   6.755
 9446POPC   C3A50189   6.647   6.635   7.055
 9446POPC   C4A50190   6.632   6.656   7.355
 9446POPC   C1B50191   6.430   6.741   6.455
 9446POPC   C2B50192   6.366   6.696   6.755
 9446POPC   C3B50193   6.431   6.787   7.055
 9446POPC   C4B50194   6.453   6.759   7.355
 9447POPC   NC350195  38.471  26.832   5.555
 9447POPC   PO450196  38.454  26.824   5.855
 9447POPC   GL150197  38.435  26.842   6.155
 9447POPC   GL250198  38.553  26.730   6.155
 9447POPC   C1A50199  38.429  26.776   6.455
 9447POPC   D2A50200  38.497  26.784   6.755
 9447POPC   C3A50201  38.413  26.782   7.055
 9447POPC   C4A50202  38.481  26.808   7.355
 9447POPC   C1B50203  38.667  26.666   6.455
 9447POPC   C2B50204  38.597  26.693   6.755
 9447POPC   C3B50205  38.601  26.646   7.055
 9447POPC   C4B50206  38.669  26.607   7.355
 9448POPC   NC350207  30.669  11.311   5.555
 9448POPC   PO450208  30.665  11.252   5.855
 9448POPC   GL150209  30.668  11.314   6.155
 9448POPC   GL250210  30.802  11.313   6.155
 9448POPC   C1A50211  30.671  11.296   6.455
 9448POPC   D2A50212  30.742  11.335   6.755
 9448POPC   C3A50213  30.692  11.282   7.055
 9448POPC   C4A50214  30.677  11.289   7.355
 9448POPC   C1B50215  30.956  11.257   6.455
 9448POPC   C2B50216  30.987  11.260   6.755
 9448POPC   C3B50217  30.996  11.265   7.055
 9448POPC   C4B50218  30.899  11.258   7.355
 9449POPC   NC350219  26.775  12.066   5.555
 9449POPC   PO450220  26.774  12.049   5.855
 9449POPC   GL150221  26.828  12.101   6.155
 9449POPC   GL250222  26.885  11.999   6.155
 9449POPC   C1A50223  26.777  12.054   6.455
 9449POPC   D2A50224  26.863  12.063   6.755
 9449POPC   C3A50225  26.860  12.083   7.055
 9449POPC   C4A50226  26.775  12.091   7.355
 9449POPC   C1B50227  26.945  11.838   6.455
 9449POPC   C2B50228  26.992  11.830   6.755
 9449POPC   C3B50229  26.959  11.923   7.055
 9449POPC   C4B50230  26.940  11.836   7.355
 9450POPC   NC350231  32.230  41.580   5.555
 9450POPC   PO450232  32.274  41.526   5.855
 9450POPC   GL150233  32.203  41.541   6.155
 9450POPC   GL250234  32.324  41.681   6.155
 9450POPC   C1A50235  32.207  41.567   6.455
 9450POPC   D2A50236  32.240  41.594   6.755
 9450POPC   C3A50237  32.279  41.555   7.055
 9450POPC   C4A50238  32.267  41.575   7.355
 9450POPC   C1B50239  32.485  41.763   6.455
 9450POPC   C2B50240  32.457  41.688   6.755
 9450POPC   C3B50241  32.388  41.689   7.055
 9450POPC   C4B50242  32.486  41.731   7.355
 9451POPC   NC350243  29.892  11.332   5.555
 9451POPC   PO450244  29.916  11.322   5.855
 9451POPC   GL150245  29.875  11.253   6.155
 9451POPC   GL250246  29.934  11.151   6.155
 9451POPC   C1A50247  29.962  11.326   6.455
 9451POPC   D2A50248  29.959  11.280   6.755
 9451POPC   C3A50249  29.937  11.275   7.055
 9451POPC   C4A50250  29.924  11.341   7.355
 9451POPC   C1B50251  29.945  11.071   6.455
 9451POPC   C2B50252  29.925  11.004   6.755
 9451POPC   C3B50253  29.878  11.015   7.055
 9451POPC   C4B50254  29.913  11.023   7.355
 9452POPC   NC350255  19.097   9.780   5.555
 9452POPC   PO450256  19.047   9.794   5.855
 9452POPC   GL150257  19.061   9.775   6.155
 9452POPC   GL250258  19.020   9.621   6.155
 9452POPC   C1A50259  19.076   9.789   6.455
 9452POPC   D2A50260  19.095   9.798   6.755
 9452POPC   C3A50261  19.052   9.757   7.055
 9452POPC   C4A50262  19.058   9.787   7.355
 9452POPC   C1B50263  18.982   9.570   6.455
 9452POPC   C2B50264  18.933   9.506   6.755
 9452POPC   C3B50265  18.998   9.485   7.055
 9452POPC   C4B50266  18.914   9.494   7.355
 9453POPC   NC350267  38.468  38.448   5.555
 9453POPC   PO450268  38.469  38.457   5.855
 9453POPC   GL150269  38.409  38.423   6.155
 9453POPC   GL250270  38.484  38.555   6.155
 9453POPC   C1A50271  38.411  38.424   6.455
 9453POPC   D2A50272  38.432  38.437   6.755
 9453POPC   C3A50273  38.461  38.479   7.055
 9453POPC   C4A50274  38.498  38.440   7.355
 9453POPC   C1B50275  38.608  38.704   6.455
 9453POPC   C2B50276  38.617  38.612   6.755
 9453POPC   C3B50277  38.552  38.654   7.055
 9453POPC   C4B50278  38.647  38.709   7.355
 9454POPC   NC350279  22.970  20.599   5.555
 9454POPC   PO450280  22.981  20.659   5.855
 9454POPC   GL150281  22.895  20.588   6.155
 9454POPC   GL250282  23.082  20.551   6.155
 9454POPC   C1A50283  22.980  20.613   6.455
 9454POPC   D2A50284  22.971  20.619   6.755
 9454POPC   C3A50285  22.930  20.622   7.055
 9454POPC   C4A50286  22.937  20.617   7.355
 9454POPC   C1B50287  23.196  20.602   6.455
 9454POPC   C2B50288  23.191  20.536   6.755
 9454POPC   C3B50289  23.154  20.534   7.055
 9454POPC   C4B50290  23.176  20.525   7.355
 9455POPC   NC350291   5.917   8.199   5.555
 9455POPC   PO450292   5.875   8.157   5.855
 9455POPC   GL150293   5.835   8.150   6.155
 9455POPC   GL250294   5.941   8.075   6.155
 9455POPC   C1A50295   5.862   8.154   6.455
 9455POPC   D2A50296   5.877   8.241   6.755
 9455POPC   C3A50297   5.840   8.202   7.055
 9455POPC   C4A50298   5.824   8.206   7.355
 9455POPC   C1B50299   5.999   7.968   6.455
 9455POPC   C2B50300   5.950   8.004   6.755
 9455POPC   C3B50301   5.976   7.950   7.055
 9455POPC   C4B50302   5.930   7.962   7.355
 9456POPC   NC350303  13.618  43.140   5.555
 9456POPC   PO450304  13.653  43.086   5.855
 9456POPC   GL150305  13.583  43.104   6.155
 9456POPC   GL250306  13.705  43.080   6.155
 9456POPC   C1A50307  13.632  43.157   6.455
 9456POPC   D2A50308  13.609  43.133   6.755
 9456POPC   C3A50309  13.663  43.071   7.055
 9456POPC   C4A50310  13.648  43.123   7.355
 9456POPC   C1B50311  13.828  43.042   6.455
 9456POPC   C2B50312  13.902  43.009   6.755
 9456POPC   C3B50313  13.848  43.064   7.055
 9456POPC   C4B50314  13.920  43.100   7.355
 9457POPC   NC350315  38.478  30.720   5.555
 9457POPC   PO450316  38.448  30.729   5.855
 9457POPC   GL150317  38.495  30.726   6.155
 9457POPC   GL250318  38.425  30.831   6.155
 9457POPC   C1A50319  38.488  30.687   6.455
 9457POPC   D2A50320  38.439  30.707   6.755
 9457POPC   C3A50321  38.427  30.725   7.055
 9457POPC   C4A50322  38.481  30.729   7.355
 9457POPC   C1B50323  38.468  30.912   6.455
 9457POPC   C2B50324  38.469  30.919   6.755
 9457POPC   C3B50325  38.419  30.910   7.055
 9457POPC   C4B50326  38.464  30.915   7.355
 9458POPC   NC350327  33.794  36.148   5.555
 9458POPC   PO450328  33.826  36.162   5.855
 9458POPC   GL150329  33.848  36.132   6.155
 9458POPC   GL250330  33.706  36.038   6.155
 9458POPC   C1A50331  33.834  36.092   6.455
 9458POPC   D2A50332  33.827  36.080   6.755
 9458POPC   C3A50333  33.844  36.096   7.055
 9458POPC   C4A50334  33.773  36.160   7.355
 9458POPC   C1B50335  33.678  35.912   6.455
 9458POPC   C2B50336  33.702  35.955   6.755
 9458POPC   C3B50337  33.649  35.895   7.055
 9458POPC   C4B50338  33.649  35.939   7.355
 9459POPC   NC350339  26.008  13.670   5.555
 9459POPC   PO450340  26.060  13.594   5.855
 9459POPC   GL150341  26.025  13.606   6.155
 9459POPC   GL250342  25.986  13.721   6.155
 9459POPC   C1A50343  26.014  13.604   6.455
 9459POPC   D2A50344  26.037  13.670   6.755
 9459POPC   C3A50345  26.070  13.658   7.055
 9459POPC   C4A50346  26.071  13.642   7.355
 9459POPC   C1B50347  25.858  13.792   6.455
 9459POPC   C2B50348  25.865  13.807   6.755
 9459POPC   C3B50349  25.917  13.842   7.055
 9459POPC   C4B50350  25.856  13.823   7.355
 9460POPC   NC350351  33.819  13.586   5.555
 9460POPC   PO450352  33.836  13.632   5.855
 9460POPC   GL150353  33.806  13.642   6.155
 9460POPC   GL250354  33.706  13.619   6.155
 9460POPC   C1A50355  33.833  13.656   6.455
 9460POPC   D2A50356  33.764  13.673   6.755
 9460POPC   C3A50357  33.815  13.649   7.055
 9460POPC   C4A50358  33.828  13.657   7.355
 9460POPC   C1B50359  33.606  13.657   6.455
 9460POPC   C2B50360  33.565  13.738   6.755
 9460POPC   C3B50361  33.589  13.710   7.055
 9460POPC   C4B50362  33.603  13.687   7.355
 9461POPC   NC350363  19.854  15.189   5.555
 9461POPC   PO450364  19.797  15.224   5.855
 9461POPC   GL150365  19.835  15.145   6.155
 9461POPC   GL250366  19.931  15.148   6.155
 9461POPC   C1A50367  19.810  15.142   6.455
 9461POPC   D2A50368  19.883  15.148   6.755
 9461POPC   C3A50369  19.865  15.192   7.055
 9461POPC   C4A50370  19.811  15.218   7.355
 9461POPC   C1B50371  20.095  15.147   6.455
 9461POPC   C2B50372  20.052  15.172   6.755
 9461POPC   C3B50373  20.081  15.193   7.055
 9461POPC   C4B50374  20.122  15.210   7.355
 9462POPC   NC350375  22.913  29.114   5.555
 9462POPC   PO450376  22.985  29.183   5.855
 9462POPC   GL150377  22.933  29.187   6.155
 9462POPC   GL250378  22.952  28.980   6.155
 9462POPC   C1A50379  22.917  29.178   6.455
 9462POPC   D2A50380  22.932  29.137   6.755
 9462POPC   C3A50381  22.923  29.157   7.055
 9462POPC   C4A50382  22.894  29.122   7.355
 9462POPC   C1B50383  22.856  28.935   6.455
 9462POPC   C2B50384  22.848  28.910   6.755
 9462POPC   C3B50385  22.917  28.914   7.055
 9462POPC   C4B50386  22.907  28.949   7.355
 9463POPC   NC350387  15.905   9.717   5.555
 9463POPC   PO450388  15.984   9.725   5.855
 9463POPC   GL150389  15.941   9.736   6.155
 9463POPC   GL250390  15.930   9.912   6.155
 9463POPC   C1A50391  15.910   9.788   6.455
 9463POPC   D2A50392  15.994   9.749   6.755
 9463POPC   C3A50393  15.937   9.753   7.055
 9463POPC   C4A50394  15.957   9.782   7.355
 9463POPC   C1B50395  15.980   9.948   6.455
 9463POPC   C2B50396  16.010   9.986   6.755
 9463POPC   C3B50397  15.935  10.012   7.055
 9463POPC   C4B50398  15.970  10.031   7.355
 9464POPC   NC350399  41.575  33.847   5.555
 9464POPC   PO450400  41.523  33.817   5.855
 9464POPC   GL150401  41.540  33.767   6.155
 9464POPC   GL250402  41.620  33.950   6.155
 9464POPC   C1A50403  41.566  33.782   6.455
 9464POPC   D2A50404  41.547  33.766   6.755
 9464POPC   C3A50405  41.566  33.804   7.055
 9464POPC   C4A50406  41.537  33.846   7.355
 9464POPC   C1B50407  41.655  34.049   6.455
 9464POPC   C2B50408  41.634  34.062   6.755
 9464POPC   C3B50409  41.577  34.035   7.055
 9464POPC   C4B50410  41.580  34.044   7.355
 9465POPC   NC350411  36.139  33.791   5.555
 9465POPC   PO450412  36.161  33.820   5.855
 9465POPC   GL150413  36.109  33.832   6.155
 9465POPC   GL250414  35.984  33.755   6.155
 9465POPC   C1A50415  36.148  33.835   6.455
 9465POPC   D2A50416  36.130  33.751   6.755
 9465POPC   C3A50417  36.137  33.823   7.055
 9465POPC   C4A50418  36.161  33.791   7.355
 9465POPC   C1B50419  35.846  33.779   6.455
 9465POPC   C2B50420  35.834  33.816   6.755
 9465POPC   C3B50421  35.921  33.794   7.055
 9465POPC   C4B50422  35.888  33.826   7.355
 9466POPC   NC350423  33.835  12.877   5.555
 9466POPC   PO450424  33.824  12.883   5.855
 9466POPC   GL150425  33.791  12.830   6.155
 9466POPC   GL250426  33.660  12.746   6.155
 9466POPC   C1A50427  33.786  12.835   6.455
 9466POPC   D2A50428  33.785  12.825   6.755
 9466POPC   C3A50429  33.775  12.809   7.055
 9466POPC   C4A50430  33.790  12.852   7.355
 9466POPC   C1B50431  33.557  12.711   6.455
 9466POPC   C2B50432  33.579  12.696   6.755
 9466POPC   C3B50433  33.595  12.713   7.055
 9466POPC   C4B50434  33.555  12.768   7.355
 9467POPC   NC350435   2.788  21.377   5.555
 9467POPC   PO450436   2.798  21.431   5.855
 9467POPC   GL150437   2.794  21.366   6.155
 9467POPC   GL250438   2.739  21.543   6.155
 9467POPC   C1A50439   2.730  21.364   6.455
 9467POPC   D2A50440   2.789  21.346   6.755
 9467POPC   C3A50441   2.725  21.398   7.055
 9467POPC   C4A50442   2.813  21.337   7.355
 9467POPC   C1B50443   2.746  21.679   6.455
 9467POPC   C2B50444   2.700  21.622   6.755
 9467POPC   C3B50445   2.699  21.659   7.055
 9467POPC   C4B50446   2.719  21.612   7.355
 9468POPC   NC350447  19.044  33.750   5.555
 9468POPC   PO450448  19.025  33.848   5.855
 9468POPC   GL150449  19.085  33.785   6.155
 9468POPC   GL250450  18.932  33.764   6.155
 9468POPC   C1A50451  19.015  33.786   6.455
 9468POPC   D2A50452  19.089  33.806   6.755
 9468POPC   C3A50453  19.015  33.821   7.055
 9468POPC   C4A50454  19.046  33.765   7.355
 9468POPC   C1B50455  18.788  33.711   6.455
 9468POPC   C2B50456  18.820  33.671   6.755
 9468POPC   C3B50457  18.862  33.696   7.055
 9468POPC   C4B50458  18.825  33.706   7.355
 9469POPC   NC350459  26.073  38.452   5.555
 9469POPC   PO450460  26.007  38.412   5.855
 9469POPC   GL150461  26.072  38.437   6.155
 9469POPC   GL250462  25.952  38.587   6.155
 9469POPC   C1A50463  26.085  38.476   6.455
 9469POPC   D2A50464  25.994  38.435   6.755
 9469POPC   C3A50465  26.063  38.439   7.055
 9469POPC   C4A50466  26.033  38.460   7.355
 9469POPC   C1B50467  25.949  38.659   6.455
 9469POPC   C2B50468  25.853  38.713   6.755
 9469POPC   C3B50469  25.865  38.683   7.055
 9469POPC   C4B50470  25.942  38.643   7.355
 9470POPC   NC350471  33.043  37.671   5.555
 9470POPC   PO450472  33.055  37.693   5.855
 9470POPC   GL150473  33.006  37.720   6.155
 9470POPC   GL250474  33.196  37.708   6.155
 9470POPC   C1A50475  33.059  37.639   6.455
 9470POPC   D2A50476  33.037  37.642   6.755
 9470POPC   C3A50477  33.023  37.687   7.055
 9470POPC   C4A50478  32.980  37.683   7.355
 9470POPC   C1B50479  33.303  37.658   6.455
 9470POPC   C2B50480  33.290  37.698   6.755
 9470POPC   C3B50481  33.231  37.708   7.055
 9470POPC   C4B50482  33.264  37.699   7.355
 9471POPC   NC350483   1.165  15.921   5.555
 9471POPC   PO450484   1.233  16.005   5.855
 9471POPC   GL150485   1.192  15.993   6.155
 9471POPC   GL250486   1.340  15.880   6.155
 9471POPC   C1A50487   1.179  15.930   6.455
 9471POPC   D2A50488   1.212  15.955   6.755
 9471POPC   C3A50489   1.164  15.963   7.055
 9471POPC   C4A50490   1.165  15.934   7.355
 9471POPC   C1B50491   1.459  15.898   6.455
 9471POPC   C2B50492   1.419  15.823   6.755
 9471POPC   C3B50493   1.473  15.884   7.055
 9471POPC   C4B50494   1.495  15.891   7.355
 9472POPC   NC350495  27.633  32.254   5.555
 9472POPC   PO450496  27.632  32.212   5.855
 9472POPC   GL150497  27.549  32.270   6.155
 9472POPC   GL250498  27.627  32.156   6.155
 9472POPC   C1A50499  27.558  32.261   6.455
 9472POPC   D2A50500  27.570  32.226   6.755
 9472POPC   C3A50501  27.578  32.268   7.055
 9472POPC   C4A50502  27.550  32.266   7.355
 9472POPC   C1B50503  27.627  32.039   6.455
 9472POPC   C2B50504  27.658  32.012   6.755
 9472POPC   C3B50505  27.634  31.992   7.055
 9472POPC   C4B50506  27.632  32.044   7.355
 9473POPC   NC350507  39.997  30.696   5.555
 9473POPC   PO450508  39.997  30.664   5.855
 9473POPC   GL150509  39.974  30.674   6.155
 9473POPC   GL250510  39.986  30.849   6.155
 9473POPC   C1A50511  40.017  30.739   6.455
 9473POPC   D2A50512  39.986  30.735   6.755
 9473POPC   C3A50513  40.008  30.707   7.055
 9473POPC   C4A50514  40.005  30.654   7.355
 9473POPC   C1B50515  39.920  30.935   6.455
 9473POPC   C2B50516  39.935  30.944   6.755
 9473POPC   C3B50517  39.908  30.911   7.055
 9473POPC   C4B50518  39.872  30.930   7.355
 9474POPC   NC350519  32.284   0.449   5.555
 9474POPC   PO450520  32.297   0.437   5.855
 9474POPC   GL150521  32.241   0.477   6.155
 9474POPC   GL250522  32.367   0.556   6.155
 9474POPC   C1A50523  32.207   0.462   6.455
 9474POPC   D2A50524  32.259   0.428   6.755
 9474POPC   C3A50525  32.295   0.429   7.055
 9474POPC   C4A50526  32.204   0.431   7.355
 9474POPC   C1B50527  32.395   0.599   6.455
 9474POPC   C2B50528  32.362   0.686   6.755
 9474POPC   C3B50529  32.337   0.601   7.055
 9474POPC   C4B50530  32.424   0.686   7.355
 9475POPC   NC350531   8.240   2.729   5.555
 9475POPC   PO450532   8.236   2.762   5.855
 9475POPC   GL150533   8.207   2.732   6.155
 9475POPC   GL250534   8.061   2.680   6.155
 9475POPC   C1A50535   8.242   2.745   6.455
 9475POPC   D2A50536   8.172   2.784   6.755
 9475POPC   C3A50537   8.246   2.759   7.055
 9475POPC   C4A50538   8.203   2.763   7.355
 9475POPC   C1B50539   7.967   2.618   6.455
 9475POPC   C2B50540   7.994   2.577   6.755
 9475POPC   C3B50541   7.943   2.598   7.055
 9475POPC   C4B50542   7.961   2.599   7.355
 9476POPC   NC350543   9.774  12.060   5.555
 9476POPC   PO450544   9.770  12.070   5.855
 9476POPC   GL150545   9.797  12.096   6.155
 9476POPC   GL250546   9.699  12.147   6.155
 9476POPC   C1A50547   9.712  12.106   6.455
 9476POPC   D2A50548   9.711  12.042   6.755
 9476POPC   C3A50549   9.728  12.035   7.055
 9476POPC   C4A50550   9.746  12.050   7.355
 9476POPC   C1B50551   9.645  12.266   6.455
 9476POPC   C2B50552   9.613  12.259   6.755
 9476POPC   C3B50553   9.693  12.267   7.055
 9476POPC   C4B50554   9.672  12.284   7.355
 9477POPC   NC350555   2.796  44.636   5.555
 9477POPC   PO450556   2.806  44.701   5.855
 9477POPC   GL150557   2.793  44.668   6.155
 9477POPC   GL250558   2.782  44.579   6.155
 9477POPC   C1A50559   2.762  44.630   6.455
 9477POPC   D2A50560   2.746  44.675   6.755
 9477POPC   C3A50561   2.736  44.710   7.055
 9477POPC   C4A50562   2.772  44.648   7.355
 9477POPC   C1B50563   2.728  44.424   6.455
 9477POPC   C2B50564   2.710  44.383   6.755
 9477POPC   C3B50565   2.708  44.431   7.055
 9477POPC   C4B50566   2.690  44.387   7.355
 9478POPC   NC350567  42.318  26.856   5.555
 9478POPC   PO450568  42.326  26.812   5.855
 9478POPC   GL150569  42.293  26.782   6.155
 9478POPC   GL250570  42.224  26.899   6.155
 9478POPC   C1A50571  42.343  26.798   6.455
 9478POPC   D2A50572  42.291  26.786   6.755
 9478POPC   C3A50573  42.365  26.778   7.055
 9478POPC   C4A50574  42.380  26.862   7.355
 9478POPC   C1B50575  42.156  26.967   6.455
 9478POPC   C2B50576  42.148  26.973   6.755
 9478POPC   C3B50577  42.206  26.992   7.055
 9478POPC   C4B50578  42.184  27.042   7.355
 9479POPC   NC350579   2.800   0.484   5.555
 9479POPC   PO450580   2.752   0.398   5.855
 9479POPC   GL150581   2.717   0.454   6.155
 9479POPC   GL250582   2.724   0.528   6.155
 9479POPC   C1A50583   2.727   0.426   6.455
 9479POPC   D2A50584   2.751   0.478   6.755
 9479POPC   C3A50585   2.749   0.447   7.055
 9479POPC   C4A50586   2.748   0.449   7.355
 9479POPC   C1B50587   2.701   0.697   6.455
 9479POPC   C2B50588   2.708   0.638   6.755
 9479POPC   C3B50589   2.690   0.711   7.055
 9479POPC   C4B50590   2.719   0.666   7.355
 9480POPC   NC350591  36.153  29.883   5.555
 9480POPC   PO450592  36.158  29.873   5.855
 9480POPC   GL150593  36.145  29.958   6.155
 9480POPC   GL250594  35.963  29.959   6.155
 9480POPC   C1A50595  36.132  29.970   6.455
 9480POPC   D2A50596  36.134  29.942   6.755
 9480POPC   C3A50597  36.112  29.905   7.055
 9480POPC   C4A50598  36.141  29.912   7.355
 9480POPC   C1B50599  35.870  29.971   6.455
 9480POPC   C2B50600  35.915  29.971   6.755
 9480POPC   C3B50601  35.894  29.971   7.055
 9480POPC   C4B50602  35.904  29.990   7.355
 9481POPC   NC350603  30.685  39.277   5.555
 9481POPC   PO450604  30.675  39.247   5.855
 9481POPC   GL150605  30.654  39.182   6.155
 9481POPC   GL250606  30.697  39.355   6.155
 9481POPC   C1A50607  30.739  39.260   6.455
 9481POPC   D2A50608  30.738  39.278   6.755
 9481POPC   C3A50609  30.666  39.226   7.055
 9481POPC   C4A50610  30.652  39.226   7.355
 9481POPC   C1B50611  30.692  39.454   6.455
 9481POPC   C2B50612  30.638  39.524   6.755
 9481POPC   C3B50613  30.694  39.440   7.055
 9481POPC   C4B50614  30.642  39.444   7.355
 9482POPC   NC350615  12.842  29.118   5.555
 9482POPC   PO450616  12.825  29.106   5.855
 9482POPC   GL150617  12.838  29.101   6.155
 9482POPC   GL250618  12.772  29.245   6.155
 9482POPC   C1A50619  12.817  29.145   6.455
 9482POPC   D2A50620  12.813  29.113   6.755
 9482POPC   C3A50621  12.820  29.181   7.055
 9482POPC   C4A50622  12.886  29.191   7.355
 9482POPC   C1B50623  12.663  29.289   6.455
 9482POPC   C2B50624  12.621  29.332   6.755
 9482POPC   C3B50625  12.687  29.240   7.055
 9482POPC   C4B50626  12.670  29.314   7.355
 9483POPC   NC350627  36.132  16.005   5.555
 9483POPC   PO450628  36.153  15.938   5.855
 9483POPC   GL150629  36.131  15.976   6.155
 9483POPC   GL250630  36.204  16.053   6.155
 9483POPC   C1A50631  36.136  15.962   6.455
 9483POPC   D2A50632  36.165  15.958   6.755
 9483POPC   C3A50633  36.142  15.977   7.055
 9483POPC   C4A50634  36.151  15.978   7.355
 9483POPC   C1B50635  36.235  16.145   6.455
 9483POPC   C2B50636  36.314  16.179   6.755
 9483POPC   C3B50637  36.265  16.122   7.055
 9483POPC   C4B50638  36.230  16.125   7.355
 9484POPC   NC350639  39.988   6.692   5.555
 9484POPC   PO450640  40.010   6.622   5.855
 9484POPC   GL150641  40.021   6.629   6.155
 9484POPC   GL250642  40.094   6.641   6.155
 9484POPC   C1A50643  39.960   6.612   6.455
 9484POPC   D2A50644  39.994   6.621   6.755
 9484POPC   C3A50645  39.986   6.621   7.055
 9484POPC   C4A50646  39.964   6.675   7.355
 9484POPC   C1B50647  40.243   6.666   6.455
 9484POPC   C2B50648  40.214   6.655   6.755
 9484POPC   C3B50649  40.241   6.725   7.055
 9484POPC   C4B50650  40.276   6.665   7.355
 9485POPC   NC350651  23.755  30.746   5.555
 9485POPC   PO450652  23.692  30.731   5.855
 9485POPC   GL150653  23.691  30.687   6.155
 9485POPC   GL250654  23.563  30.769   6.155
 9485POPC   C1A50655  23.675  30.676   6.455
 9485POPC   D2A50656  23.718  30.664   6.755
 9485POPC   C3A50657  23.709  30.725   7.055
 9485POPC   C4A50658  23.717  30.718   7.355
 9485POPC   C1B50659  23.448  30.773   6.455
 9485POPC   C2B50660  23.479  30.769   6.755
 9485POPC   C3B50661  23.514  30.830   7.055
 9485POPC   C4B50662  23.494  30.813   7.355
 9486POPC   NC350663  41.590   8.186   5.555
 9486POPC   PO450664  41.525   8.167   5.855
 9486POPC   GL150665  41.542   8.226   6.155
 9486POPC   GL250666  41.432   8.204   6.155
 9486POPC   C1A50667  41.583   8.210   6.455
 9486POPC   D2A50668  41.600   8.176   6.755
 9486POPC   C3A50669  41.603   8.173   7.055
 9486POPC   C4A50670  41.608   8.225   7.355
 9486POPC   C1B50671  41.274   8.152   6.455
 9486POPC   C2B50672  41.361   8.135   6.755
 9486POPC   C3B50673  41.319   8.076   7.055
 9486POPC   C4B50674  41.296   8.084   7.355
 9487POPC   NC350675  35.391  34.615   5.555
 9487POPC   PO450676  35.324  34.581   5.855
 9487POPC   GL150677  35.317  34.570   6.155
 9487POPC   GL250678  35.322  34.662   6.155
 9487POPC   C1A50679  35.325  34.590   6.455
 9487POPC   D2A50680  35.335  34.549   6.755
 9487POPC   C3A50681  35.329  34.531   7.055
 9487POPC   C4A50682  35.356  34.556   7.355
 9487POPC   C1B50683  35.331  34.852   6.455
 9487POPC   C2B50684  35.302  34.816   6.755
 9487POPC   C3B50685  35.321  34.773   7.055
 9487POPC   C4B50686  35.265  34.868   7.355
 9488POPC   NC350687  12.877  44.688   5.555
 9488POPC   PO450688  12.842  44.639   5.855
 9488POPC   GL150689  12.845  44.707   6.155
 9488POPC   GL250690  12.701  44.762   6.155
 9488POPC   C1A50691  12.858  44.633   6.455
 9488POPC   D2A50692  12.805  44.614   6.755
 9488POPC   C3A50693  12.802  44.660   7.055
 9488POPC   C4A50694  12.823  44.681   7.355
 9488POPC   C1B50695  12.650  44.795   6.455
 9488POPC   C2B50696  12.620  44.775   6.755
 9488POPC   C3B50697  12.637  44.810   7.055
 9488POPC   C4B50698  12.650  44.841   7.355
 9489POPC   NC350699  31.456  39.274   5.555
 9489POPC   PO450700  31.460  39.281   5.855
 9489POPC   GL150701  31.521  39.280   6.155
 9489POPC   GL250702  31.610  39.145   6.155
 9489POPC   C1A50703  31.436  39.221   6.455
 9489POPC   D2A50704  31.488  39.281   6.755
 9489POPC   C3A50705  31.499  39.185   7.055
 9489POPC   C4A50706  31.440  39.205   7.355
 9489POPC   C1B50707  31.658  39.163   6.455
 9489POPC   C2B50708  31.726  39.099   6.755
 9489POPC   C3B50709  31.675  39.103   7.055
 9489POPC   C4B50710  31.744  39.102   7.355
 9490POPC   NC350711   8.946  19.077   5.555
 9490POPC   PO450712   8.966  19.042   5.855
 9490POPC   GL150713   8.978  19.026   6.155
 9490POPC   GL250714   9.118  19.058   6.155
 9490POPC   C1A50715   8.937  19.105   6.455
 9490POPC   D2A50716   8.924  19.068   6.755
 9490POPC   C3A50717   8.974  19.075   7.055
 9490POPC   C4A50718   8.952  19.071   7.355
 9490POPC   C1B50719   9.213  19.196   6.455
 9490POPC   C2B50720   9.225  19.148   6.755
 9490POPC   C3B50721   9.240  19.104   7.055
 9490POPC   C4B50722   9.184  19.144   7.355
 9491POPC   NC350723  12.124  41.517   5.555
 9491POPC   PO450724  12.083  41.592   5.855
 9491POPC   GL150725  12.099  41.554   6.155
 9491POPC   GL250726  12.190  41.606   6.155
 9491POPC   C1A50727  12.031  41.531   6.455
 9491POPC   D2A50728  12.054  41.518   6.755
 9491POPC   C3A50729  12.076  41.548   7.055
 9491POPC   C4A50730  12.078  41.606   7.355
 9491POPC   C1B50731  12.291  41.659   6.455
 9491POPC   C2B50732  12.334  41.642   6.755
 9491POPC   C3B50733  12.279  41.692   7.055
 9491POPC   C4B50734  12.292  41.623   7.355
 9492POPC   NC350735   5.052  20.570   5.555
 9492POPC   PO450736   5.127  20.588   5.855
 9492POPC   GL150737   5.103  20.611   6.155
 9492POPC   GL250738   5.081  20.723   6.155
 9492POPC   C1A50739   5.109  20.572   6.455
 9492POPC   D2A50740   5.066  20.651   6.755
 9492POPC   C3A50741   5.091  20.571   7.055
 9492POPC   C4A50742   5.071  20.579   7.355
 9492POPC   C1B50743   5.011  20.836   6.455
 9492POPC   C2B50744   4.974  20.811   6.755
 9492POPC   C3B50745   4.957  20.858   7.055
 9492POPC   C4B50746   5.000  20.878   7.355
 9493POPC   NC350747  26.815   1.243   5.555
 9493POPC   PO450748  26.795   1.263   5.855
 9493POPC   GL150749  26.826   1.248   6.155
 9493POPC   GL250750  26.894   1.300   6.155
 9493POPC   C1A50751  26.851   1.168   6.455
 9493POPC   D2A50752  26.821   1.174   6.755
 9493POPC   C3A50753  26.793   1.189   7.055
 9493POPC   C4A50754  26.864   1.179   7.355
 9493POPC   C1B50755  26.908   1.462   6.455
 9493POPC   C2B50756  26.955   1.385   6.755
 9493POPC   C3B50757  26.934   1.451   7.055
 9493POPC   C4B50758  26.914   1.464   7.355
 9494POPC   NC350759  34.565   9.717   5.555
 9494POPC   PO450760  34.598   9.727   5.855
 9494POPC   GL150761  34.599   9.748   6.155
 9494POPC   GL250762  34.564   9.603   6.155
 9494POPC   C1A50763  34.624   9.744   6.455
 9494POPC   D2A50764  34.614   9.708   6.755
 9494POPC   C3A50765  34.569   9.743   7.055
 9494POPC   C4A50766  34.580   9.788   7.355
 9494POPC   C1B50767  34.512   9.528   6.455
 9494POPC   C2B50768  34.601   9.474   6.755
 9494POPC   C3B50769  34.517   9.486   7.055
 9494POPC   C4B50770  34.576   9.543   7.355
 9495POPC   NC350771  40.775  23.683   5.555
 9495POPC   PO450772  40.744  23.703   5.855
 9495POPC   GL150773  40.787  23.736   6.155
 9495POPC   GL250774  40.944  23.711   6.155
 9495POPC   C1A50775  40.765  23.726   6.455
 9495POPC   D2A50776  40.784  23.671   6.755
 9495POPC   C3A50777  40.780  23.667   7.055
 9495POPC   C4A50778  40.821  23.750   7.355
 9495POPC   C1B50779  41.023  23.757   6.455
 9495POPC   C2B50780  41.047  23.713   6.755
 9495POPC   C3B50781  41.076  23.700   7.055
 9495POPC   C4B50782  41.017  23.728   7.355
 9496POPC   NC350783  22.197  20.641   5.555
 9496POPC   PO450784  22.202  20.588   5.855
 9496POPC   GL150785  22.201  20.613   6.155
 9496POPC   GL250786  22.111  20.772   6.155
 9496POPC   C1A50787  22.134  20.645   6.455
 9496POPC   D2A50788  22.125  20.608   6.755
 9496POPC   C3A50789  22.115  20.575   7.055
 9496POPC   C4A50790  22.132  20.655   7.355
 9496POPC   C1B50791  22.101  20.847   6.455
 9496POPC   C2B50792  22.058  20.887   6.755
 9496POPC   C3B50793  22.024  20.885   7.055
 9496POPC   C4B50794  22.009  20.808   7.355
 9497POPC   NC350795  26.815  40.766   5.555
 9497POPC   PO450796  26.799  40.736   5.855
 9497POPC   GL150797  26.840  40.765   6.155
 9497POPC   GL250798  26.681  40.760   6.155
 9497POPC   C1A50799  26.813  40.795   6.455
 9497POPC   D2A50800  26.826  40.746   6.755
 9497POPC   C3A50801  26.835  40.794   7.055
 9497POPC   C4A50802  26.855  40.828   7.355
 9497POPC   C1B50803  26.617  40.811   6.455
 9497POPC   C2B50804  26.550  40.744   6.755
 9497POPC   C3B50805  26.609  40.778   7.055
 9497POPC   C4B50806  26.524  40.752   7.355
 9498POPC   NC350807  40.045  41.605   5.555
 9498POPC   PO450808  40.054  41.562   5.855
 9498POPC   GL150809  40.033  41.557   6.155
 9498POPC   GL250810  40.045  41.643   6.155
 9498POPC   C1A50811  39.974  41.555   6.455
 9498POPC   D2A50812  39.966  41.579   6.755
 9498POPC   C3A50813  39.966  41.563   7.055
 9498POPC   C4A50814  40.050  41.512   7.355
 9498POPC   C1B50815  39.992  41.849   6.455
 9498POPC   C2B50816  39.956  41.803   6.755
 9498POPC   C3B50817  39.985  41.773   7.055
 9498POPC   C4B50818  39.973  41.818   7.355
 9499POPC   NC350819   8.198  43.933   5.555
 9499POPC   PO450820   8.199  43.857   5.855
 9499POPC   GL150821   8.147  43.844   6.155
 9499POPC   GL250822   8.048  43.944   6.155
 9499POPC   C1A50823   8.191  43.897   6.455
 9499POPC   D2A50824   8.208  43.925   6.755
 9499POPC   C3A50825   8.221  43.922   7.055
 9499POPC   C4A50826   8.148  43.880   7.355
 9499POPC   C1B50827   7.981  43.958   6.455
 9499POPC   C2B50828   7.958  43.896   6.755
 9499POPC   C3B50829   7.939  43.992   7.055
 9499POPC   C4B50830   7.949  43.979   7.355
 9500POPC   NC350831   1.946  15.949   5.555
 9500POPC   PO450832   2.010  15.949   5.855
 9500POPC   GL150833   2.021  15.910   6.155
 9500POPC   GL250834   2.090  16.029   6.155
 9500POPC   C1A50835   1.963  15.925   6.455
 9500POPC   D2A50836   2.012  15.912   6.755
 9500POPC   C3A50837   1.980  15.956   7.055
 9500POPC   C4A50838   2.007  15.983   7.355
 9500POPC   C1B50839   2.104  16.168   6.455
 9500POPC   C2B50840   2.185  16.205   6.755
 9500POPC   C3B50841   2.106  16.174   7.055
 9500POPC   C4B50842   2.105  16.113   7.355
 9501POPC   NC350843   7.458  12.046   5.555
 9501POPC   PO450844   7.383  12.043   5.855
 9501POPC   GL150845   7.465  12.065   6.155
 9501POPC   GL250846   7.325  12.226   6.155
 9501POPC   C1A50847   7.391  12.086   6.455
 9501POPC   D2A50848   7.412  12.112   6.755
 9501POPC   C3A50849   7.392  12.061   7.055
 9501POPC   C4A50850   7.411  12.080   7.355
 9501POPC   C1B50851   7.314  12.291   6.455
 9501POPC   C2B50852   7.352  12.285   6.755
 9501POPC   C3B50853   7.315  12.296   7.055
 9501POPC   C4B50854   7.327  12.327   7.355
 9502POPC   NC350855  38.496  37.640   5.555
 9502POPC   PO450856  38.465  37.634   5.855
 9502POPC   GL150857  38.452  37.719   6.155
 9502POPC   GL250858  38.431  37.806   6.155
 9502POPC   C1A50859  38.480  37.637   6.455
 9502POPC   D2A50860  38.405  37.728   6.755
 9502POPC   C3A50861  38.471  37.696   7.055
 9502POPC   C4A50862  38.502  37.681   7.355
 9502POPC   C1B50863  38.278  37.928   6.455
 9502POPC   C2B50864  38.280  37.934   6.755
 9502POPC   C3B50865  38.277  37.926   7.055
 9502POPC   C4B50866  38.319  37.888   7.355
 9503POPC   NC350867  43.885  42.309   5.555
 9503POPC   PO450868  43.839  42.315   5.855
 9503POPC   GL150869  43.927  42.316   6.155
 9503POPC   GL250870  43.778  42.328   6.155
 9503POPC   C1A50871  43.919  42.368   6.455
 9503POPC   D2A50872  43.883  42.364   6.755
 9503POPC   C3A50873  43.920  42.296   7.055
 9503POPC   C4A50874  43.934  42.337   7.355
 9503POPC   C1B50875  43.640  42.348   6.455
 9503POPC   C2B50876  43.662  42.294   6.755
 9503POPC   C3B50877  43.648  42.286   7.055
 9503POPC   C4B50878  43.631  42.268   7.355
 9504POPC   NC350879  20.629  38.463   5.555
 9504POPC   PO450880  20.617  38.485   5.855
 9504POPC   GL150881  20.656  38.464   6.155
 9504POPC   GL250882  20.454  38.463   6.155
 9504POPC   C1A50883  20.561  38.454   6.455
 9504POPC   D2A50884  20.660  38.483   6.755
 9504POPC   C3A50885  20.626  38.435   7.055
 9504POPC   C4A50886  20.635  38.490   7.355
 9504POPC   C1B50887  20.359  38.452   6.455
 9504POPC   C2B50888  20.327  38.451   6.755
 9504POPC   C3B50889  20.407  38.452   7.055
 9504POPC   C4B50890  20.400  38.441   7.355
 9505POPC   NC350891  41.597  29.879   5.555
 9505POPC   PO450892  41.608  29.953   5.855
 9505POPC   GL150893  41.538  29.879   6.155
 9505POPC   GL250894  41.670  29.978   6.155
 9505POPC   C1A50895  41.552  29.956   6.455
 9505POPC   D2A50896  41.526  29.903   6.755
 9505POPC   C3A50897  41.510  29.872   7.055
 9505POPC   C4A50898  41.565  29.962   7.355
 9505POPC   C1B50899  41.748  30.060   6.455
 9505POPC   C2B50900  41.738  30.082   6.755
 9505POPC   C3B50901  41.712  30.072   7.055
 9505POPC   C4B50902  41.694  30.097   7.355
 9506POPC   NC350903  15.987  29.192   5.555
 9506POPC   PO450904  15.966  29.100   5.855
 9506POPC   GL150905  15.994  29.153   6.155
 9506POPC   GL250906  16.089  29.213   6.155
 9506POPC   C1A50907  15.937  29.158   6.455
 9506POPC   D2A50908  15.916  29.109   6.755
 9506POPC   C3A50909  15.936  29.111   7.055
 9506POPC   C4A50910  15.918  29.108   7.355
 9506POPC   C1B50911  16.189  29.351   6.455
 9506POPC   C2B50912  16.159  29.266   6.755
 9506POPC   C3B50913  16.118  29.352   7.055
 9506POPC   C4B50914  16.092  29.314   7.355
 9507POPC   NC350915  19.785  26.080   5.555
 9507POPC   PO450916  19.814  26.054   5.855
 9507POPC   GL150917  19.823  26.016   6.155
 9507POPC   GL250918  19.802  25.889   6.155
 9507POPC   C1A50919  19.808  26.071   6.455
 9507POPC   D2A50920  19.806  26.051   6.755
 9507POPC   C3A50921  19.859  26.000   7.055
 9507POPC   C4A50922  19.860  25.994   7.355
 9507POPC   C1B50923  19.716  25.776   6.455
 9507POPC   C2B50924  19.679  25.868   6.755
 9507POPC   C3B50925  19.669  25.835   7.055
 9507POPC   C4B50926  19.690  25.868   7.355
 9508POPC   NC350927  32.208   8.148   5.555
 9508POPC   PO450928  32.248   8.196   5.855
 9508POPC   GL150929  32.233   8.245   6.155
 9508POPC   GL250930  32.265   8.062   6.155
 9508POPC   C1A50931  32.232   8.153   6.455
 9508POPC   D2A50932  32.268   8.232   6.755
 9508POPC   C3A50933  32.243   8.220   7.055
 9508POPC   C4A50934  32.281   8.200   7.355
 9508POPC   C1B50935  32.355   7.986   6.455
 9508POPC   C2B50936  32.324   7.918   6.755
 9508POPC   C3B50937  32.328   7.923   7.055
 9508POPC   C4B50938  32.302   7.988   7.355
 9509POPC   NC350939  42.287   9.727   5.555
 9509POPC   PO450940  42.315   9.735   5.855
 9509POPC   GL150941  42.290   9.702   6.155
 9509POPC   GL250942  42.386   9.715   6.155
 9509POPC   C1A50943  42.309   9.755   6.455
 9509POPC   D2A50944  42.316   9.794   6.755
 9509POPC   C3A50945  42.373   9.746   7.055
 9509POPC   C4A50946  42.330   9.714   7.355
 9509POPC   C1B50947  42.495   9.595   6.455
 9509POPC   C2B50948  42.570   9.607   6.755
 9509POPC   C3B50949  42.536   9.635   7.055
 9509POPC   C4B50950  42.505   9.593   7.355
 9510POPC   NC350951  13.669  11.338   5.555
 9510POPC   PO450952  13.589  11.348   5.855
 9510POPC   GL150953  13.648  11.257   6.155
 9510POPC   GL250954  13.688  11.446   6.155
 9510POPC   C1A50955  13.665  11.261   6.455
 9510POPC   D2A50956  13.644  11.338   6.755
 9510POPC   C3A50957  13.604  11.284   7.055
 9510POPC   C4A50958  13.605  11.337   7.355
 9510POPC   C1B50959  13.704  11.515   6.455
 9510POPC   C2B50960  13.707  11.496   6.755
 9510POPC   C3B50961  13.666  11.546   7.055
 9510POPC   C4B50962  13.738  11.551   7.355
 9511POPC   NC350963  33.032  22.891   5.555
 9511POPC   PO450964  32.992  22.971   5.855
 9511POPC   GL150965  33.052  22.897   6.155
 9511POPC   GL250966  33.056  23.010   6.155
 9511POPC   C1A50967  33.035  22.921   6.455
 9511POPC   D2A50968  33.039  22.977   6.755
 9511POPC   C3A50969  33.059  22.948   7.055
 9511POPC   C4A50970  33.016  22.912   7.355
 9511POPC   C1B50971  33.134  23.156   6.455
 9511POPC   C2B50972  33.152  23.176   6.755
 9511POPC   C3B50973  33.114  23.149   7.055
 9511POPC   C4B50974  33.198  23.175   7.355
 9512POPC   NC350975  12.895   1.253   5.555
 9512POPC   PO450976  12.847   1.243   5.855
 9512POPC   GL150977  12.834   1.207   6.155
 9512POPC   GL250978  12.825   1.273   6.155
 9512POPC   C1A50979  12.865   1.183   6.455
 9512POPC   D2A50980  12.824   1.228   6.755
 9512POPC   C3A50981  12.816   1.202   7.055
 9512POPC   C4A50982  12.825   1.258   7.355
 9512POPC   C1B50983  12.718   1.475   6.455
 9512POPC   C2B50984  12.693   1.416   6.755
 9512POPC   C3B50985  12.724   1.438   7.055
 9512POPC   C4B50986  12.739   1.438   7.355
 9513POPC   NC350987  43.891   4.316   5.555
 9513POPC   PO450988  43.868   4.310   5.855
 9513POPC   GL150989  43.922   4.298   6.155
 9513POPC   GL250990  43.888   4.390   6.155
 9513POPC   C1A50991  43.875   4.359   6.455
 9513POPC   D2A50992  43.923   4.361   6.755
 9513POPC   C3A50993  43.890   4.299   7.055
 9513POPC   C4A50994  43.913   4.297   7.355
 9513POPC   C1B50995  43.776   4.518   6.455
 9513POPC   C2B50996  43.811   4.515   6.755
 9513POPC   C3B50997  43.836   4.574   7.055
 9513POPC   C4B50998  43.767   4.553   7.355
 9514POPC   NC350999  38.479  13.595   5.555
 9514POPC   PO451000  38.428  13.597   5.855
 9514POPC   GL151001  38.421  13.630   6.155
 9514POPC   GL251002  38.354  13.772   6.155
 9514POPC   C1A51003  38.458  13.668   6.455
 9514POPC   D2A51004  38.427  13.617   6.755
 9514POPC   C3A51005  38.502  13.616   7.055
 9514POPC   C4A51006  38.421  13.606   7.355
 9514POPC   C1B51007  38.271  13.838   6.455
 9514POPC   C2B51008  38.307  13.813   6.755
 9514POPC   C3B51009  38.252  13.787   7.055
 9514POPC   C4B51010  38.298  13.779   7.355
 9515POPC   NC351011  20.564  17.549   5.555
 9515POPC   PO451012  20.657  17.488   5.855
 9515POPC   GL151013  20.563  17.470   6.155
 9515POPC   GL251014  20.709  17.418   6.155
 9515POPC   C1A51015  20.608  17.502   6.455
 9515POPC   D2A51016  20.587  17.502   6.755
 9515POPC   C3A51017  20.579  17.518   7.055
 9515POPC   C4A51018  20.612  17.534   7.355
 9515POPC   C1B51019  20.795  17.341   6.455
 9515POPC   C2B51020  20.777  17.316   6.755
 9515POPC   C3B51021  20.777  17.363   7.055
 9515POPC   C4B51022  20.785  17.272   7.355
 9516POPC   NC351023   5.868  18.258   5.555
 9516POPC   PO451024   5.838  18.279   5.855
 9516POPC   GL151025   5.891  18.313   6.155
 9516POPC   GL251026   5.742  18.234   6.155
 9516POPC   C1A51027   5.903  18.247   6.455
 9516POPC   D2A51028   5.860  18.290   6.755
 9516POPC   C3A51029   5.872  18.268   7.055
 9516POPC   C4A51030   5.890  18.271   7.355
 9516POPC   C1B51031   5.661  18.155   6.455
 9516POPC   C2B51032   5.682  18.208   6.755
 9516POPC   C3B51033   5.684  18.164   7.055
 9516POPC   C4B51034   5.697  18.191   7.355
 9517POPC   NC351035  40.750  43.090   5.555
 9517POPC   PO451036  40.823  43.087   5.855
 9517POPC   GL151037  40.745  43.136   6.155
 9517POPC   GL251038  40.876  43.028   6.155
 9517POPC   C1A51039  40.797  43.128   6.455
 9517POPC   D2A51040  40.766  43.096   6.755
 9517POPC   C3A51041  40.818  43.141   7.055
 9517POPC   C4A51042  40.740  43.091   7.355
 9517POPC   C1B51043  40.946  42.877   6.455
 9517POPC   C2B51044  40.942  42.911   6.755
 9517POPC   C3B51045  40.923  42.862   7.055
 9517POPC   C4B51046  40.882  42.916   7.355
 9518POPC   NC351047  39.974  29.875   5.555
 9518POPC   PO451048  39.988  29.937   5.855
 9518POPC   GL151049  39.998  29.949   6.155
 9518POPC   GL251050  39.901  30.043   6.155
 9518POPC   C1A51051  39.960  29.876   6.455
 9518POPC   D2A51052  40.052  29.905   6.755
 9518POPC   C3A51053  40.052  29.911   7.055
 9518POPC   C4A51054  40.018  29.929   7.355
 9518POPC   C1B51055  39.904  30.138   6.455
 9518POPC   C2B51056  39.846  30.107   6.755
 9518POPC   C3B51057  39.843  30.143   7.055
 9518POPC   C4B51058  39.872  30.125   7.355
 9519POPC   NC351059  36.104  36.870   5.555
 9519POPC   PO451060  36.115  36.926   5.855
 9519POPC   GL151061  36.082  36.899   6.155
 9519POPC   GL251062  36.076  36.994   6.155
 9519POPC   C1A51063  36.170  36.951   6.455
 9519POPC   D2A51064  36.118  36.888   6.755
 9519POPC   C3A51065  36.163  36.923   7.055
 9519POPC   C4A51066  36.096  36.895   7.355
 9519POPC   C1B51067  36.054  37.160   6.455
 9519POPC   C2B51068  36.048  37.150   6.755
 9519POPC   C3B51069  36.068  37.144   7.055
 9519POPC   C4B51070  36.080  37.102   7.355
 9520POPC   NC351071   0.397  17.488   5.555
 9520POPC   PO451072   0.475  17.538   5.855
 9520POPC   GL151073   0.429  17.463   6.155
 9520POPC   GL251074   0.440  17.333   6.155
 9520POPC   C1A51075   0.457  17.519   6.455
 9520POPC   D2A51076   0.440  17.524   6.755
 9520POPC   C3A51077   0.460  17.539   7.055
 9520POPC   C4A51078   0.424  17.494   7.355
 9520POPC   C1B51079   0.405  17.292   6.455
 9520POPC   C2B51080   0.420  17.215   6.755
 9520POPC   C3B51081   0.391  17.237   7.055
 9520POPC   C4B51082   0.389  17.301   7.355
 9521POPC   NC351083   7.383  39.200   5.555
 9521POPC   PO451084   7.447  39.254   5.855
 9521POPC   GL151085   7.437  39.190   6.155
 9521POPC   GL251086   7.262  39.291   6.155
 9521POPC   C1A51087   7.422  39.276   6.455
 9521POPC   D2A51088   7.418  39.214   6.755
 9521POPC   C3A51089   7.373  39.197   7.055
 9521POPC   C4A51090   7.438  39.260   7.355
 9521POPC   C1B51091   7.208  39.214   6.455
 9521POPC   C2B51092   7.165  39.303   6.755
 9521POPC   C3B51093   7.136  39.296   7.055
 9521POPC   C4B51094   7.181  39.219   7.355
 9522POPC   NC351095   1.962  40.747   5.555
 9522POPC   PO451096   1.968  40.829   5.855
 9522POPC   GL151097   1.960  40.831   6.155
 9522POPC   GL251098   2.067  40.844   6.155
 9522POPC   C1A51099   2.021  40.802   6.455
 9522POPC   D2A51100   2.025  40.808   6.755
 9522POPC   C3A51101   2.010  40.809   7.055
 9522POPC   C4A51102   1.995  40.768   7.355
 9522POPC   C1B51103   2.184  41.018   6.455
 9522POPC   C2B51104   2.183  40.989   6.755
 9522POPC   C3B51105   2.119  41.011   7.055
 9522POPC   C4B51106   2.150  40.994   7.355
 9523POPC   NC351107  27.593   6.636   5.555
 9523POPC   PO451108  27.640   6.598   5.855
 9523POPC   GL151109  27.570   6.684   6.155
 9523POPC   GL251110  27.703   6.682   6.155
 9523POPC   C1A51111  27.557   6.690   6.455
 9523POPC   D2A51112  27.606   6.618   6.755
 9523POPC   C3A51113  27.618   6.681   7.055
 9523POPC   C4A51114  27.631   6.684   7.355
 9523POPC   C1B51115  27.878   6.761   6.455
 9523POPC   C2B51116  27.794   6.685   6.755
 9523POPC   C3B51117  27.859   6.759   7.055
 9523POPC   C4B51118  27.846   6.710   7.355
 9524POPC   NC351119   5.820  23.763   5.555
 9524POPC   PO451120   5.884  23.721   5.855
 9524POPC   GL151121   5.909  23.667   6.155
 9524POPC   GL251122   5.912  23.592   6.155
 9524POPC   C1A51123   5.892  23.738   6.455
 9524POPC   D2A51124   5.884  23.759   6.755
 9524POPC   C3A51125   5.878  23.681   7.055
 9524POPC   C4A51126   5.884  23.680   7.355
 9524POPC   C1B51127   5.881  23.458   6.455
 9524POPC   C2B51128   5.900  23.437   6.755
 9524POPC   C3B51129   5.923  23.456   7.055
 9524POPC   C4B51130   5.918  23.512   7.355
 9525POPC   NC351131  41.548  42.334   5.555
 9525POPC   PO451132  41.604  42.335   5.855
 9525POPC   GL151133  41.540  42.360   6.155
 9525POPC   GL251134  41.598  42.247   6.155
 9525POPC   C1A51135  41.588  42.320   6.455
 9525POPC   D2A51136  41.537  42.325   6.755
 9525POPC   C3A51137  41.560  42.367   7.055
 9525POPC   C4A51138  41.608  42.365   7.355
 9525POPC   C1B51139  41.711  42.093   6.455
 9525POPC   C2B51140  41.689  42.123   6.755
 9525POPC   C3B51141  41.696  42.150   7.055
 9525POPC   C4B51142  41.689  42.120   7.355
 9526POPC   NC351143   4.329  36.096   5.555
 9526POPC   PO451144   4.362  36.093   5.855
 9526POPC   GL151145   4.305  36.078   6.155
 9526POPC   GL251146   4.455  36.093   6.155
 9526POPC   C1A51147   4.347  36.095   6.455
 9526POPC   D2A51148   4.365  36.119   6.755
 9526POPC   C3A51149   4.340  36.162   7.055
 9526POPC   C4A51150   4.318  36.161   7.355
 9526POPC   C1B51151   4.524  36.078   6.455
 9526POPC   C2B51152   4.551  36.083   6.755
 9526POPC   C3B51153   4.524  36.111   7.055
 9526POPC   C4B51154   4.595  36.063   7.355
 9527POPC   NC351155  37.644  26.858   5.555
 9527POPC   PO451156  37.682  26.825   5.855
 9527POPC   GL151157  37.717  26.846   6.155
 9527POPC   GL251158  37.825  26.758   6.155
 9527POPC   C1A51159  37.671  26.805   6.455
 9527POPC   D2A51160  37.661  26.845   6.755
 9527POPC   C3A51161  37.661  26.853   7.055
 9527POPC   C4A51162  37.673  26.777   7.355
 9527POPC   C1B51163  37.937  26.701   6.455
 9527POPC   C2B51164  37.915  26.663   6.755
 9527POPC   C3B51165  37.932  26.720   7.055
 9527POPC   C4B51166  37.864  26.701   7.355
 9528POPC   NC351167  13.669  41.537   5.555
 9528POPC   PO451168  13.623  41.604   5.855
 9528POPC   GL151169  13.584  41.542   6.155
 9528POPC   GL251170  13.544  41.556   6.155
 9528POPC   C1A51171  13.642  41.590   6.455
 9528POPC   D2A51172  13.677  41.527   6.755
 9528POPC   C3A51173  13.661  41.535   7.055
 9528POPC   C4A51174  13.663  41.552   7.355
 9528POPC   C1B51175  13.426  41.535   6.455
 9528POPC   C2B51176  13.385  41.512   6.755
 9528POPC   C3B51177  13.357  41.509   7.055
 9528POPC   C4B51178  13.361  41.479   7.355
 9529POPC   NC351179  26.813  37.633   5.555
 9529POPC   PO451180  26.821  37.649   5.855
 9529POPC   GL151181  26.825  37.686   6.155
 9529POPC   GL251182  26.899  37.828   6.155
 9529POPC   C1A51183  26.811  37.702   6.455
 9529POPC   D2A51184  26.787  37.692   6.755
 9529POPC   C3A51185  26.783  37.686   7.055
 9529POPC   C4A51186  26.814  37.728   7.355
 9529POPC   C1B51187  26.966  37.893   6.455
 9529POPC   C2B51188  26.895  37.904   6.755
 9529POPC   C3B51189  26.974  37.877   7.055
 9529POPC   C4B51190  26.991  37.937   7.355
 9530POPC   NC351191  44.710  27.628   5.555
 9530POPC   PO451192  44.655  27.577   5.855
 9530POPC   GL151193  44.640  27.560   6.155
 9530POPC   GL251194  44.608  27.661   6.155
 9530POPC   C1A51195  44.630  27.609   6.455
 9530POPC   D2A51196  44.663  27.552   6.755
 9530POPC   C3A51197  44.613  27.631   7.055
 9530POPC   C4A51198  44.684  27.602   7.355
 9530POPC   C1B51199  44.509  27.754   6.455
 9530POPC   C2B51200  44.480  27.701   6.755
 9530POPC   C3B51201  44.486  27.750   7.055
 9530POPC   C4B51202  44.466  27.703   7.355
 9531POPC   NC351203  12.901  29.957   5.555
 9531POPC   PO451204  12.822  29.930   5.855
 9531POPC   GL151205  12.881  29.940   6.155
 9531POPC   GL251206  13.008  29.899   6.155
 9531POPC   C1A51207  12.839  29.908   6.455
 9531POPC   D2A51208  12.802  29.896   6.755
 9531POPC   C3A51209  12.856  29.922   7.055
 9531POPC   C4A51210  12.820  29.924   7.355
 9531POPC   C1B51211  13.022  29.845   6.455
 9531POPC   C2B51212  13.098  29.769   6.755
 9531POPC   C3B51213  13.056  29.842   7.055
 9531POPC   C4B51214  13.087  29.752   7.355
 9532POPC   NC351215   5.128  17.508   5.555
 9532POPC   PO451216   5.119  17.514   5.855
 9532POPC   GL151217   5.128  17.462   6.155
 9532POPC   GL251218   5.047  17.352   6.155
 9532POPC   C1A51219   5.141  17.548   6.455
 9532POPC   D2A51220   5.097  17.460   6.755
 9532POPC   C3A51221   5.082  17.546   7.055
 9532POPC   C4A51222   5.074  17.542   7.355
 9532POPC   C1B51223   5.002  17.252   6.455
 9532POPC   C2B51224   5.036  17.247   6.755
 9532POPC   C3B51225   5.029  17.231   7.055
 9532POPC   C4B51226   5.042  17.295   7.355
 9533POPC   NC351227  23.761  25.258   5.555
 9533POPC   PO451228  23.691  25.309   5.855
 9533POPC   GL151229  23.725  25.307   6.155
 9533POPC   GL251230  23.805  25.241   6.155
 9533POPC   C1A51231  23.670  25.261   6.455
 9533POPC   D2A51232  23.747  25.315   6.755
 9533POPC   C3A51233  23.709  25.243   7.055
 9533POPC   C4A51234  23.710  25.278   7.355
 9533POPC   C1B51235  23.907  25.155   6.455
 9533POPC   C2B51236  23.900  25.129   6.755
 9533POPC   C3B51237  23.938  25.093   7.055
 9533POPC   C4B51238  23.956  25.088   7.355
 9534POPC   NC351239  27.551  13.596   5.555
 9534POPC   PO451240  27.580  13.674   5.855
 9534POPC   GL151241  27.615  13.625   6.155
 9534POPC   GL251242  27.652  13.554   6.155
 9534POPC   C1A51243  27.565  13.653   6.455
 9534POPC   D2A51244  27.624  13.642   6.755
 9534POPC   C3A51245  27.643  13.594   7.055
 9534POPC   C4A51246  27.583  13.672   7.355
 9534POPC   C1B51247  27.619  13.397   6.455
 9534POPC   C2B51248  27.665  13.377   6.755
 9534POPC   C3B51249  27.601  13.375   7.055
 9534POPC   C4B51250  27.628  13.342   7.355
 9535POPC   NC351251  41.565  36.922   5.555
 9535POPC   PO451252  41.519  36.867   5.855
 9535POPC   GL151253  41.591  36.898   6.155
 9535POPC   GL251254  41.600  36.804   6.155
 9535POPC   C1A51255  41.578  36.868   6.455
 9535POPC   D2A51256  41.531  36.907   6.755
 9535POPC   C3A51257  41.527  36.878   7.055
 9535POPC   C4A51258  41.588  36.932   7.355
 9535POPC   C1B51259  41.689  36.763   6.455
 9535POPC   C2B51260  41.748  36.729   6.755
 9535POPC   C3B51261  41.773  36.687   7.055
 9535POPC   C4B51262  41.773  36.709   7.355
 9536POPC   NC351263  31.506  36.153   5.555
 9536POPC   PO451264  31.454  36.088   5.855
 9536POPC   GL151265  31.487  36.097   6.155
 9536POPC   GL251266  31.451  35.989   6.155
 9536POPC   C1A51267  31.439  36.154   6.455
 9536POPC   D2A51268  31.521  36.175   6.755
 9536POPC   C3A51269  31.437  36.091   7.055
 9536POPC   C4A51270  31.471  36.120   7.355
 9536POPC   C1B51271  31.483  35.928   6.455
 9536POPC   C2B51272  31.466  35.845   6.755
 9536POPC   C3B51273  31.499  35.871   7.055
 9536POPC   C4B51274  31.466  35.876   7.355
 9537POPC   NC351275   2.773   2.779   5.555
 9537POPC   PO451276   2.811   2.752   5.855
 9537POPC   GL151277   2.733   2.804   6.155
 9537POPC   GL251278   2.787   2.679   6.155
 9537POPC   C1A51279   2.765   2.746   6.455
 9537POPC   D2A51280   2.735   2.766   6.755
 9537POPC   C3A51281   2.796   2.757   7.055
 9537POPC   C4A51282   2.731   2.776   7.355
 9537POPC   C1B51283   2.900   2.537   6.455
 9537POPC   C2B51284   2.917   2.560   6.755
 9537POPC   C3B51285   2.830   2.501   7.055
 9537POPC   C4B51286   2.853   2.530   7.355
 9538POPC   NC351287  22.946  42.285   5.555
 9538POPC   PO451288  22.931  42.356   5.855
 9538POPC   GL151289  22.925  42.318   6.155
 9538POPC   GL251290  22.866  42.454   6.155
 9538POPC   C1A51291  22.974  42.326   6.455
 9538POPC   D2A51292  22.894  42.339   6.755
 9538POPC   C3A51293  22.938  42.343   7.055
 9538POPC   C4A51294  22.963  42.301   7.355
 9538POPC   C1B51295  22.772  42.569   6.455
 9538POPC   C2B51296  22.787  42.513   6.755
 9538POPC   C3B51297  22.772  42.507   7.055
 9538POPC   C4B51298  22.720  42.544   7.355
 9539POPC   NC351299  28.365  37.650   5.555
 9539POPC   PO451300  28.327  37.709   5.855
 9539POPC   GL151301  28.342  37.705   6.155
 9539POPC   GL251302  28.403  37.597   6.155
 9539POPC   C1A51303  28.332  37.650   6.455
 9539POPC   D2A51304  28.374  37.657   6.755
 9539POPC   C3A51305  28.391  37.708   7.055
 9539POPC   C4A51306  28.415  37.632   7.355
 9539POPC   C1B51307  28.327  37.390   6.455
 9539POPC   C2B51308  28.402  37.396   6.755
 9539POPC   C3B51309  28.372  37.397   7.055
 9539POPC   C4B51310  28.392  37.420   7.355
 9540POPC   NC351311  34.552   5.094   5.555
 9540POPC   PO451312  34.545   5.052   5.855
 9540POPC   GL151313  34.589   5.130   6.155
 9540POPC   GL251314  34.686   5.014   6.155
 9540POPC   C1A51315  34.613   5.072   6.455
 9540POPC   D2A51316  34.621   5.068   6.755
 9540POPC   C3A51317  34.534   5.106   7.055
 9540POPC   C4A51318  34.594   5.112   7.355
 9540POPC   C1B51319  34.789   4.946   6.455
 9540POPC   C2B51320  34.761   4.910   6.755
 9540POPC   C3B51321  34.817   4.943   7.055
 9540POPC   C4B51322  34.835   4.989   7.355
 9541POPC   NC351323  36.922  33.797   5.555
 9541POPC   PO451324  36.908  33.765   5.855
 9541POPC   GL151325  36.872  33.765   6.155
 9541POPC   GL251326  36.762  33.844   6.155
 9541POPC   C1A51327  36.907  33.803   6.455
 9541POPC   D2A51328  36.909  33.824   6.755
 9541POPC   C3A51329  36.927  33.760   7.055
 9541POPC   C4A51330  36.857  33.762   7.355
 9541POPC   C1B51331  36.691  33.988   6.455
 9541POPC   C2B51332  36.724  33.947   6.755
 9541POPC   C3B51333  36.669  33.975   7.055
 9541POPC   C4B51334  36.700  34.013   7.355
 9542POPC   NC351335  34.610  32.211   5.555
 9542POPC   PO451336  34.574  32.262   5.855
 9542POPC   GL151337  34.544  32.245   6.155
 9542POPC   GL251338  34.610  32.324   6.155
 9542POPC   C1A51339  34.603  32.284   6.455
 9542POPC   D2A51340  34.594  32.240   6.755
 9542POPC   C3A51341  34.557  32.267   7.055
 9542POPC   C4A51342  34.575  32.222   7.355
 9542POPC   C1B51343  34.555  32.524   6.455
 9542POPC   C2B51344  34.582  32.504   6.755
 9542POPC   C3B51345  34.584  32.508   7.055
 9542POPC   C4B51346  34.568  32.519   7.355
 9543POPC   NC351347   0.463  19.817   5.555
 9543POPC   PO451348   0.475  19.826   5.855
 9543POPC   GL151349   0.469  19.799   6.155
 9543POPC   GL251350   0.432  19.962   6.155
 9543POPC   C1A51351   0.416  19.848   6.455
 9543POPC   D2A51352   0.400  19.839   6.755
 9543POPC   C3A51353   0.465  19.854   7.055
 9543POPC   C4A51354   0.469  19.842   7.355
 9543POPC   C1B51355   0.537  20.104   6.455
 9543POPC   C2B51356   0.493  20.028   6.755
 9543POPC   C3B51357   0.513  20.052   7.055
 9543POPC   C4B51358   0.501  20.081   7.355
 9544POPC   NC351359  12.811  33.015   5.555
 9544POPC   PO451360  12.850  33.054   5.855
 9544POPC   GL151361  12.826  33.005   6.155
 9544POPC   GL251362  12.954  33.052   6.155
 9544POPC   C1A51363  12.858  33.007   6.455
 9544POPC   D2A51364  12.900  33.025   6.755
 9544POPC   C3A51365  12.865  32.984   7.055
 9544POPC   C4A51366  12.896  33.064   7.355
 9544POPC   C1B51367  13.049  33.137   6.455
 9544POPC   C2B51368  13.089  33.148   6.755
 9544POPC   C3B51369  13.102  33.189   7.055
 9544POPC   C4B51370  13.075  33.124   7.355
 9545POPC   NC351371  16.753  28.342   5.555
 9545POPC   PO451372  16.714  28.404   5.855
 9545POPC   GL151373  16.776  28.335   6.155
 9545POPC   GL251374  16.882  28.301   6.155
 9545POPC   C1A51375  16.692  28.405   6.455
 9545POPC   D2A51376  16.718  28.411   6.755
 9545POPC   C3A51377  16.776  28.417   7.055
 9545POPC   C4A51378  16.723  28.327   7.355
 9545POPC   C1B51379  17.002  28.363   6.455
 9545POPC   C2B51380  16.993  28.362   6.755
 9545POPC   C3B51381  16.986  28.353   7.055
 9545POPC   C4B51382  16.992  28.288   7.355
 9546POPC   NC351383   5.819   7.373   5.555
 9546POPC   PO451384   5.843   7.437   5.855
 9546POPC   GL151385   5.880   7.466   6.155
 9546POPC   GL251386   5.782   7.311   6.155
 9546POPC   C1A51387   5.919   7.385   6.455
 9546POPC   D2A51388   5.848   7.441   6.755
 9546POPC   C3A51389   5.824   7.384   7.055
 9546POPC   C4A51390   5.912   7.418   7.355
 9546POPC   C1B51391   5.701   7.248   6.455
 9546POPC   C2B51392   5.709   7.272   6.755
 9546POPC   C3B51393   5.696   7.235   7.055
 9546POPC   C4B51394   5.654   7.295   7.355
 9547POPC   NC351395   3.507   5.058   5.555
 9547POPC   PO451396   3.542   5.063   5.855
 9547POPC   GL151397   3.516   5.084   6.155
 9547POPC   GL251398   3.683   5.037   6.155
 9547POPC   C1A51399   3.509   5.114   6.455
 9547POPC   D2A51400   3.545   5.058   6.755
 9547POPC   C3A51401   3.555   5.051   7.055
 9547POPC   C4A51402   3.525   5.110   7.355
 9547POPC   C1B51403   3.748   4.916   6.455
 9547POPC   C2B51404   3.733   4.980   6.755
 9547POPC   C3B51405   3.716   4.934   7.055
 9547POPC   C4B51406   3.736   4.900   7.355
 9548POPC   NC351407  22.162  29.943   5.555
 9548POPC   PO451408  22.197  29.887   5.855
 9548POPC   GL151409  22.156  29.929   6.155
 9548POPC   GL251410  22.111  29.849   6.155
 9548POPC   C1A51411  22.167  29.931   6.455
 9548POPC   D2A51412  22.175  29.963   6.755
 9548POPC   C3A51413  22.186  29.903   7.055
 9548POPC   C4A51414  22.161  29.944   7.355
 9548POPC   C1B51415  22.060  29.688   6.455
 9548POPC   C2B51416  22.106  29.658   6.755
 9548POPC   C3B51417  22.073  29.704   7.055
 9548POPC   C4B51418  22.052  29.650   7.355
 9549POPC   NC351419  25.226   1.248   5.555
 9549POPC   PO451420  25.282   1.221   5.855
 9549POPC   GL151421  25.279   1.246   6.155
 9549POPC   GL251422  25.331   1.355   6.155
 9549POPC   C1A51423  25.271   1.181   6.455
 9549POPC   D2A51424  25.299   1.211   6.755
 9549POPC   C3A51425  25.289   1.252   7.055
 9549POPC   C4A51426  25.283   1.197   7.355
 9549POPC   C1B51427  25.443   1.438   6.455
 9549POPC   C2B51428  25.451   1.371   6.755
 9549POPC   C3B51429  25.468   1.418   7.055
 9549POPC   C4B51430  25.428   1.396   7.355
 9550POPC   NC351431  20.631  27.551   5.555
 9550POPC   PO451432  20.626  27.565   5.855
 9550POPC   GL151433  20.644  27.592   6.155
 9550POPC   GL251434  20.656  27.719   6.155
 9550POPC   C1A51435  20.652  27.611   6.455
 9550POPC   D2A51436  20.608  27.605   6.755
 9550POPC   C3A51437  20.568  27.561   7.055
 9550POPC   C4A51438  20.606  27.552   7.355
 9550POPC   C1B51439  20.734  27.791   6.455
 9550POPC   C2B51440  20.727  27.785   6.755
 9550POPC   C3B51441  20.757  27.761   7.055
 9550POPC   C4B51442  20.716  27.790   7.355
 9551POPC   NC351443  44.661  37.705   5.555
 9551POPC   PO451444  44.663  37.706   5.855
 9551POPC   GL151445  44.613  37.655   6.155
 9551POPC   GL251446  44.763  37.645   6.155
 9551POPC   C1A51447  44.647  37.718   6.455
 9551POPC   D2A51448  44.666  37.700   6.755
 9551POPC   C3A51449  44.619  37.645   7.055
 9551POPC   C4A51450  44.673  37.694   7.355
 9551POPC   C1B51451  44.934  37.597   6.455
 9551POPC   C2B51452  44.865  37.683   6.755
 9551POPC   C3B51453  44.875  37.635   7.055
 9551POPC   C4B51454  44.935  37.683   7.355
 9552POPC   NC351455  33.847  18.256   5.555
 9552POPC   PO451456  33.769  18.285   5.855
 9552POPC   GL151457  33.846  18.267   6.155
 9552POPC   GL251458  33.907  18.194   6.155
 9552POPC   C1A51459  33.819  18.268   6.455
 9552POPC   D2A51460  33.832  18.267   6.755
 9552POPC   C3A51461  33.829  18.326   7.055
 9552POPC   C4A51462  33.840  18.319   7.355
 9552POPC   C1B51463  33.970  18.122   6.455
 9552POPC   C2B51464  33.972  18.081   6.755
 9552POPC   C3B51465  34.006  18.063   7.055
 9552POPC   C4B51466  33.985  18.074   7.355
 9553POPC   NC351467  29.111  15.940   5.555
 9553POPC   PO451468  29.116  15.936   5.855
 9553POPC   GL151469  29.181  16.000   6.155
 9553POPC   GL251470  29.197  16.083   6.155
 9553POPC   C1A51471  29.128  15.911   6.455
 9553POPC   D2A51472  29.177  15.967   6.755
 9553POPC   C3A51473  29.138  15.959   7.055
 9553POPC   C4A51474  29.137  15.946   7.355
 9553POPC   C1B51475  29.281  16.151   6.455
 9553POPC   C2B51476  29.290  16.205   6.755
 9553POPC   C3B51477  29.275  16.136   7.055
 9553POPC   C4B51478  29.246  16.148   7.355
 9554POPC   NC351479  43.122  32.221   5.555
 9554POPC   PO451480  43.147  32.216   5.855
 9554POPC   GL151481  43.105  32.272   6.155
 9554POPC   GL251482  43.068  32.326   6.155
 9554POPC   C1A51483  43.062  32.243   6.455
 9554POPC   D2A51484  43.106  32.209   6.755
 9554POPC   C3A51485  43.105  32.255   7.055
 9554POPC   C4A51486  43.117  32.277   7.355
 9554POPC   C1B51487  42.951  32.482   6.455
 9554POPC   C2B51488  42.909  32.408   6.755
 9554POPC   C3B51489  42.950  32.455   7.055
 9554POPC   C4B51490  42.990  32.476   7.355
 9555POPC   NC351491   0.445  43.131   5.555
 9555POPC   PO451492   0.458  43.083   5.855
 9555POPC   GL151493   0.472  43.134   6.155
 9555POPC   GL251494   0.297  43.181   6.155
 9555POPC   C1A51495   0.480  43.069   6.455
 9555POPC   D2A51496   0.399  43.129   6.755
 9555POPC   C3A51497   0.432  43.066   7.055
 9555POPC   C4A51498   0.471  43.097   7.355
 9555POPC   C1B51499   0.189  43.257   6.455
 9555POPC   C2B51500   0.222  43.262   6.755
 9555POPC   C3B51501   0.204  43.210   7.055
 9555POPC   C4B51502   0.185  43.208   7.355
 9556POPC   NC351503  36.878  15.924   5.555
 9556POPC   PO451504  36.855  16.002   5.855
 9556POPC   GL151505  36.877  16.000   6.155
 9556POPC   GL251506  36.804  16.007   6.155
 9556POPC   C1A51507  36.862  15.963   6.455
 9556POPC   D2A51508  36.897  15.975   6.755
 9556POPC   C3A51509  36.934  15.932   7.055
 9556POPC   C4A51510  36.916  15.947   7.355
 9556POPC   C1B51511  36.793  16.105   6.455
 9556POPC   C2B51512  36.731  16.107   6.755
 9556POPC   C3B51513  36.699  16.116   7.055
 9556POPC   C4B51514  36.746  16.194   7.355
 9557POPC   NC351515   2.763  42.298   5.555
 9557POPC   PO451516   2.761  42.296   5.855
 9557POPC   GL151517   2.800  42.367   6.155
 9557POPC   GL251518   2.801  42.269   6.155
 9557POPC   C1A51519   2.759  42.322   6.455
 9557POPC   D2A51520   2.768  42.345   6.755
 9557POPC   C3A51521   2.757  42.327   7.055
 9557POPC   C4A51522   2.802  42.285   7.355
 9557POPC   C1B51523   2.879  42.097   6.455
 9557POPC   C2B51524   2.853  42.128   6.755
 9557POPC   C3B51525   2.927  42.117   7.055
 9557POPC   C4B51526   2.881  42.156   7.355
 9558POPC   NC351527  44.647   5.084   5.555
 9558POPC   PO451528  44.631   5.100   5.855
 9558POPC   GL151529  44.654   5.102   6.155
 9558POPC   GL251530  44.704   5.015   6.155
 9558POPC   C1A51531  44.624   5.109   6.455
 9558POPC   D2A51532  44.633   5.080   6.755
 9558POPC   C3A51533  44.678   5.090   7.055
 9558POPC   C4A51534  44.666   5.132   7.355
 9558POPC   C1B51535  44.835   4.955   6.455
 9558POPC   C2B51536  44.816   4.882   6.755
 9558POPC   C3B51537  44.863   4.916   7.055
 9558POPC   C4B51538  44.827   4.954   7.355
 9559POPC   NC351539  33.007  13.653   5.555
 9559POPC   PO451540  33.046  13.655   5.855
 9559POPC   GL151541  33.070  13.663   6.155
 9559POPC   GL251542  33.072  13.494   6.155
 9559POPC   C1A51543  33.008  13.578   6.455
 9559POPC   D2A51544  33.044  13.635   6.755
 9559POPC   C3A51545  33.020  13.590   7.055
 9559POPC   C4A51546  33.043  13.644   7.355
 9559POPC   C1B51547  33.052  13.398   6.455
 9559POPC   C2B51548  33.023  13.394   6.755
 9559POPC   C3B51549  33.013  13.351   7.055
 9559POPC   C4B51550  33.064  13.383   7.355
 9560POPC   NC351551  22.173  26.846   5.555
 9560POPC   PO451552  22.197  26.790   5.855
 9560POPC   GL151553  22.204  26.814   6.155
 9560POPC   GL251554  22.173  26.970   6.155
 9560POPC   C1A51555  22.183  26.830   6.455
 9560POPC   D2A51556  22.155  26.803   6.755
 9560POPC   C3A51557  22.151  26.833   7.055
 9560POPC   C4A51558  22.184  26.852   7.355
 9560POPC   C1B51559  22.178  27.065   6.455
 9560POPC   C2B51560  22.177  27.066   6.755
 9560POPC   C3B51561  22.130  27.056   7.055
 9560POPC   C4B51562  22.146  27.108   7.355
 9561POPC   NC351563   4.314  15.141   5.555
 9561POPC   PO451564   4.302  15.213   5.855
 9561POPC   GL151565   4.322  15.160   6.155
 9561POPC   GL251566   4.301  15.049   6.155
 9561POPC   C1A51567   4.354  15.197   6.455
 9561POPC   D2A51568   4.359  15.176   6.755
 9561POPC   C3A51569   4.365  15.215   7.055
 9561POPC   C4A51570   4.361  15.227   7.355
 9561POPC   C1B51571   4.213  14.920   6.455
 9561POPC   C2B51572   4.277  14.932   6.755
 9561POPC   C3B51573   4.286  14.918   7.055
 9561POPC   C4B51574   4.257  14.968   7.355
 9562POPC   NC351575  41.528  37.652   5.555
 9562POPC   PO451576  41.549  37.668   5.855
 9562POPC   GL151577  41.535  37.658   6.155
 9562POPC   GL251578  41.702  37.686   6.155
 9562POPC   C1A51579  41.591  37.657   6.455
 9562POPC   D2A51580  41.583  37.697   6.755
 9562POPC   C3A51581  41.576  37.639   7.055
 9562POPC   C4A51582  41.585  37.689   7.355
 9562POPC   C1B51583  41.757  37.733   6.455
 9562POPC   C2B51584  41.781  37.713   6.755
 9562POPC   C3B51585  41.790  37.741   7.055
 9562POPC   C4B51586  41.855  37.734   7.355
 9563POPC   NC351587   7.469  32.260   5.555
 9563POPC   PO451588   7.427  32.257   5.855
 9563POPC   GL151589   7.380  32.237   6.155
 9563POPC   GL251590   7.258  32.251   6.155
 9563POPC   C1A51591   7.432  32.296   6.455
 9563POPC   D2A51592   7.439  32.261   6.755
 9563POPC   C3A51593   7.421  32.274   7.055
 9563POPC   C4A51594   7.377  32.297   7.355
 9563POPC   C1B51595   7.200  32.283   6.455
 9563POPC   C2B51596   7.123  32.252   6.755
 9563POPC   C3B51597   7.208  32.240   7.055
 9563POPC   C4B51598   7.174  32.275   7.355
 9564POPC   NC351599  28.409   2.001   5.555
 9564POPC   PO451600  28.380   1.990   5.855
 9564POPC   GL151601  28.380   1.969   6.155
 9564POPC   GL251602  28.481   2.103   6.155
 9564POPC   C1A51603  28.332   1.967   6.455
 9564POPC   D2A51604  28.395   2.001   6.755
 9564POPC   C3A51605  28.372   2.028   7.055
 9564POPC   C4A51606  28.324   1.967   7.355
 9564POPC   C1B51607  28.484   2.192   6.455
 9564POPC   C2B51608  28.546   2.159   6.755
 9564POPC   C3B51609  28.481   2.184   7.055
 9564POPC   C4B51610  28.484   2.212   7.355
 9565POPC   NC351611  38.435   4.301   5.555
 9565POPC   PO451612  38.424   4.286   5.855
 9565POPC   GL151613  38.470   4.296   6.155
 9565POPC   GL251614  38.498   4.406   6.155
 9565POPC   C1A51615  38.476   4.351   6.455
 9565POPC   D2A51616  38.453   4.320   6.755
 9565POPC   C3A51617  38.408   4.320   7.055
 9565POPC   C4A51618  38.483   4.304   7.355
 9565POPC   C1B51619  38.506   4.542   6.455
 9565POPC   C2B51620  38.480   4.599   6.755
 9565POPC   C3B51621  38.502   4.601   7.055
 9565POPC   C4B51622  38.481   4.513   7.355
 9566POPC   NC351623  41.587  38.453   5.555
 9566POPC   PO451624  41.600  38.444   5.855
 9566POPC   GL151625  41.587  38.425   6.155
 9566POPC   GL251626  41.602  38.321   6.155
 9566POPC   C1A51627  41.530  38.454   6.455
 9566POPC   D2A51628  41.576  38.489   6.755
 9566POPC   C3A51629  41.608  38.491   7.055
 9566POPC   C4A51630  41.531  38.439   7.355
 9566POPC   C1B51631  41.619  38.218   6.455
 9566POPC   C2B51632  41.705  38.276   6.755
 9566POPC   C3B51633  41.691  38.246   7.055
 9566POPC   C4B51634  41.666  38.181   7.355
 9567POPC   NC351635  11.329  23.760   5.555
 9567POPC   PO451636  11.344  23.759   5.855
 9567POPC   GL151637  11.341  23.678   6.155
 9567POPC   GL251638  11.245  23.831   6.155
 9567POPC   C1A51639  11.324  23.674   6.455
 9567POPC   D2A51640  11.308  23.676   6.755
 9567POPC   C3A51641  11.349  23.750   7.055
 9567POPC   C4A51642  11.337  23.714   7.355
 9567POPC   C1B51643  11.250  24.005   6.455
 9567POPC   C2B51644  11.219  23.988   6.755
 9567POPC   C3B51645  11.199  23.942   7.055
 9567POPC   C4B51646  11.272  23.972   7.355
 9568POPC   NC351647  12.051  42.355   5.555
 9568POPC   PO451648  12.121  42.293   5.855
 9568POPC   GL151649  12.098  42.353   6.155
 9568POPC   GL251650  12.165  42.363   6.155
 9568POPC   C1A51651  12.094  42.339   6.455
 9568POPC   D2A51652  12.051  42.367   6.755
 9568POPC   C3A51653  12.113  42.333   7.055
 9568POPC   C4A51654  12.090  42.291   7.355
 9568POPC   C1B51655  12.341  42.335   6.455
 9568POPC   C2B51656  12.292  42.308   6.755
 9568POPC   C3B51657  12.308  42.319   7.055
 9568POPC   C4B51658  12.307  42.353   7.355
 9569POPC   NC351659  44.681  43.880   5.555
 9569POPC   PO451660  44.617  43.855   5.855
 9569POPC   GL151661  44.652  43.887   6.155
 9569POPC   GL251662  44.557  43.808   6.155
 9569POPC   C1A51663  44.632  43.932   6.455
 9569POPC   D2A51664  44.682  43.877   6.755
 9569POPC   C3A51665  44.693  43.928   7.055
 9569POPC   C4A51666  44.650  43.882   7.355
 9569POPC   C1B51667  44.466  43.775   6.455
 9569POPC   C2B51668  44.425  43.732   6.755
 9569POPC   C3B51669  44.413  43.795   7.055
 9569POPC   C4B51670  44.409  43.735   7.355
 9570POPC   NC351671  18.283  32.234   5.555
 9570POPC   PO451672  18.321  32.287   5.855
 9570POPC   GL151673  18.250  32.271   6.155
 9570POPC   GL251674  18.360  32.231   6.155
 9570POPC   C1A51675  18.290  32.254   6.455
 9570POPC   D2A51676  18.247  32.236   6.755
 9570POPC   C3A51677  18.299  32.235   7.055
 9570POPC   C4A51678  18.328  32.199   7.355
 9570POPC   C1B51679  18.487  32.271   6.455
 9570POPC   C2B51680  18.556  32.183   6.755
 9570POPC   C3B51681  18.494  32.189   7.055
 9570POPC   C4B51682  18.572  32.224   7.355
 9571POPC   NC351683  43.837   7.465   5.555
 9571POPC   PO451684  43.853   7.410   5.855
 9571POPC   GL151685  43.924   7.451   6.155
 9571POPC   GL251686  43.729   7.484   6.155
 9571POPC   C1A51687  43.849   7.448   6.455
 9571POPC   D2A51688  43.861   7.415   6.755
 9571POPC   C3A51689  43.899   7.446   7.055
 9571POPC   C4A51690  43.901   7.417   7.355
 9571POPC   C1B51691  43.638   7.556   6.455
 9571POPC   C2B51692  43.645   7.510   6.755
 9571POPC   C3B51693  43.611   7.567   7.055
 9571POPC   C4B51694  43.684   7.569   7.355
 9572POPC   NC351695   4.293  13.604   5.555
 9572POPC   PO451696   4.333  13.661   5.855
 9572POPC   GL151697   4.341  13.616   6.155
 9572POPC   GL251698   4.287  13.751   6.155
 9572POPC   C1A51699   4.356  13.644   6.455
 9572POPC   D2A51700   4.270  13.619   6.755
 9572POPC   C3A51701   4.353  13.674   7.055
 9572POPC   C4A51702   4.268  13.581   7.355
 9572POPC   C1B51703   4.219  13.826   6.455
 9572POPC   C2B51704   4.286  13.823   6.755
 9572POPC   C3B51705   4.255  13.884   7.055
 9572POPC   C4B51706   4.224  13.911   7.355
 9573POPC   NC351707  41.522  34.623   5.555
 9573POPC   PO451708  41.570  34.549   5.855
 9573POPC   GL151709  41.559  34.551   6.155
 9573POPC   GL251710  41.668  34.642   6.155
 9573POPC   C1A51711  41.602  34.532   6.455
 9573POPC   D2A51712  41.512  34.548   6.755
 9573POPC   C3A51713  41.605  34.605   7.055
 9573POPC   C4A51714  41.579  34.543   7.355
 9573POPC   C1B51715  41.775  34.664   6.455
 9573POPC   C2B51716  41.824  34.612   6.755
 9573POPC   C3B51717  41.843  34.657   7.055
 9573POPC   C4B51718  41.777  34.661   7.355
 9574POPC   NC351719  17.529  36.082   5.555
 9574POPC   PO451720  17.509  36.142   5.855
 9574POPC   GL151721  17.543  36.092   6.155
 9574POPC   GL251722  17.508  36.218   6.155
 9574POPC   C1A51723  17.483  36.147   6.455
 9574POPC   D2A51724  17.491  36.168   6.755
 9574POPC   C3A51725  17.478  36.102   7.055
 9574POPC   C4A51726  17.465  36.089   7.355
 9574POPC   C1B51727  17.480  36.383   6.455
 9574POPC   C2B51728  17.411  36.413   6.755
 9574POPC   C3B51729  17.431  36.357   7.055
 9574POPC   C4B51730  17.490  36.331   7.355
 9575POPC   NC351731  39.989  13.664   5.555
 9575POPC   PO451732  39.996  13.652   5.855
 9575POPC   GL151733  39.958  13.582   6.155
 9575POPC   GL251734  39.879  13.663   6.155
 9575POPC   C1A51735  40.026  13.657   6.455
 9575POPC   D2A51736  40.042  13.626   6.755
 9575POPC   C3A51737  39.992  13.674   7.055
 9575POPC   C4A51738  39.975  13.657   7.355
 9575POPC   C1B51739  39.768  13.573   6.455
 9575POPC   C2B51740  39.723  13.665   6.755
 9575POPC   C3B51741  39.773  13.632   7.055
 9575POPC   C4B51742  39.791  13.603   7.355
 9576POPC   NC351743   1.945  36.925   5.555
 9576POPC   PO451744   2.010  36.928   5.855
 9576POPC   GL151745   2.038  36.896   6.155
 9576POPC   GL251746   1.855  36.881   6.155
 9576POPC   C1A51747   2.008  36.877   6.455
 9576POPC   D2A51748   2.010  36.880   6.755
 9576POPC   C3A51749   1.981  36.865   7.055
 9576POPC   C4A51750   2.003  36.897   7.355
 9576POPC   C1B51751   1.757  36.933   6.455
 9576POPC   C2B51752   1.699  36.964   6.755
 9576POPC   C3B51753   1.735  36.969   7.055
 9576POPC   C4B51754   1.703  36.891   7.355
 9577POPC   NC351755  18.289  25.995   5.555
 9577POPC   PO451756  18.312  26.084   5.855
 9577POPC   GL151757  18.253  26.009   6.155
 9577POPC   GL251758  18.405  25.948   6.155
 9577POPC   C1A51759  18.319  26.068   6.455
 9577POPC   D2A51760  18.267  26.090   6.755
 9577POPC   C3A51761  18.289  26.030   7.055
 9577POPC   C4A51762  18.310  26.052   7.355
 9577POPC   C1B51763  18.472  25.868   6.455
 9577POPC   C2B51764  18.446  25.853   6.755
 9577POPC   C3B51765  18.488  25.896   7.055
 9577POPC   C4B51766  18.497  25.854   7.355
 9578POPC   NC351767  32.297  36.119   5.555
 9578POPC   PO451768  32.295  36.098   5.855
 9578POPC   GL151769  32.237  36.126   6.155
 9578POPC   GL251770  32.354  36.116   6.155
 9578POPC   C1A51771  32.277  36.097   6.455
 9578POPC   D2A51772  32.297  36.112   6.755
 9578POPC   C3A51773  32.213  36.086   7.055
 9578POPC   C4A51774  32.293  36.162   7.355
 9578POPC   C1B51775  32.458  36.190   6.455
 9578POPC   C2B51776  32.512  36.152   6.755
 9578POPC   C3B51777  32.466  36.216   7.055
 9578POPC   C4B51778  32.537  36.145   7.355
 9579POPC   NC351779  19.049  27.638   5.555
 9579POPC   PO451780  19.070  27.585   5.855
 9579POPC   GL151781  19.084  27.628   6.155
 9579POPC   GL251782  19.118  27.459   6.155
 9579POPC   C1A51783  19.098  27.588   6.455
 9579POPC   D2A51784  19.013  27.613   6.755
 9579POPC   C3A51785  19.099  27.595   7.055
 9579POPC   C4A51786  19.087  27.557   7.355
 9579POPC   C1B51787  19.268  27.388   6.455
 9579POPC   C2B51788  19.190  27.400   6.755
 9579POPC   C3B51789  19.185  27.423   7.055
 9579POPC   C4B51790  19.259  27.428   7.355
 9580POPC   NC351791  30.647  32.287   5.555
 9580POPC   PO451792  30.703  32.268   5.855
 9580POPC   GL151793  30.662  32.236   6.155
 9580POPC   GL251794  30.801  32.190   6.155
 9580POPC   C1A51795  30.674  32.210   6.455
 9580POPC   D2A51796  30.691  32.267   6.755
 9580POPC   C3A51797  30.706  32.232   7.055
 9580POPC   C4A51798  30.731  32.292   7.355
 9580POPC   C1B51799  30.876  32.048   6.455
 9580POPC   C2B51800  30.872  32.036   6.755
 9580POPC   C3B51801  30.907  32.103   7.055
 9580POPC   C4B51802  30.888  32.065   7.355
 9581POPC   NC351803  35.328  31.478   5.555
 9581POPC   PO451804  35.379  31.472   5.855
 9581POPC   GL151805  35.358  31.451   6.155
 9581POPC   GL251806  35.508  31.533   6.155
 9581POPC   C1A51807  35.362  31.447   6.455
 9581POPC   D2A51808  35.338  31.492   6.755
 9581POPC   C3A51809  35.303  31.472   7.055
 9581POPC   C4A51810  35.374  31.441   7.355
 9581POPC   C1B51811  35.578  31.538   6.455
 9581POPC   C2B51812  35.591  31.629   6.755
 9581POPC   C3B51813  35.544  31.603   7.055
 9581POPC   C4B51814  35.593  31.555   7.355
 9582POPC   NC351815   3.511   1.262   5.555
 9582POPC   PO451816   3.548   1.240   5.855
 9582POPC   GL151817   3.583   1.238   6.155
 9582POPC   GL251818   3.575   1.106   6.155
 9582POPC   C1A51819   3.493   1.226   6.455
 9582POPC   D2A51820   3.549   1.257   6.755
 9582POPC   C3A51821   3.514   1.242   7.055
 9582POPC   C4A51822   3.505   1.217   7.355
 9582POPC   C1B51823   3.681   0.996   6.455
 9582POPC   C2B51824   3.678   0.998   6.755
 9582POPC   C3B51825   3.625   1.021   7.055
 9582POPC   C4B51826   3.599   1.000   7.355
 9583POPC   NC351827  40.035  18.329   5.555
 9583POPC   PO451828  40.017  18.266   5.855
 9583POPC   GL151829  39.991  18.330   6.155
 9583POPC   GL251830  40.097  18.217   6.155
 9583POPC   C1A51831  40.031  18.318   6.455
 9583POPC   D2A51832  39.982  18.313   6.755
 9583POPC   C3A51833  39.993  18.286   7.055
 9583POPC   C4A51834  40.025  18.295   7.355
 9583POPC   C1B51835  40.147  18.121   6.455
 9583POPC   C2B51836  40.182  18.042   6.755
 9583POPC   C3B51837  40.149  18.071   7.055
 9583POPC   C4B51838  40.176  18.103   7.355
 9584POPC   NC351839  32.281   1.958   5.555
 9584POPC   PO451840  32.226   1.940   5.855
 9584POPC   GL151841  32.251   1.948   6.155
 9584POPC   GL251842  32.385   1.925   6.155
 9584POPC   C1A51843  32.243   1.944   6.455
 9584POPC   D2A51844  32.226   2.028   6.755
 9584POPC   C3A51845  32.258   1.997   7.055
 9584POPC   C4A51846  32.278   1.983   7.355
 9584POPC   C1B51847  32.396   1.782   6.455
 9584POPC   C2B51848  32.396   1.851   6.755
 9584POPC   C3B51849  32.421   1.846   7.055
 9584POPC   C4B51850  32.449   1.783   7.355
 9585POPC   NC351851  31.446  34.571   5.555
 9585POPC   PO451852  31.516  34.617   5.855
 9585POPC   GL151853  31.458  34.584   6.155
 9585POPC   GL251854  31.549  34.624   6.155
 9585POPC   C1A51855  31.440  34.533   6.455
 9585POPC   D2A51856  31.448  34.575   6.755
 9585POPC   C3A51857  31.487  34.626   7.055
 9585POPC   C4A51858  31.497  34.580   7.355
 9585POPC   C1B51859  31.698  34.591   6.455
 9585POPC   C2B51860  31.705  34.557   6.755
 9585POPC   C3B51861  31.717  34.609   7.055
 9585POPC   C4B51862  31.699  34.559   7.355
 9586POPC   NC351863  38.460  21.418   5.555
 9586POPC   PO451864  38.408  21.380   5.855
 9586POPC   GL151865  38.487  21.407   6.155
 9586POPC   GL251866  38.527  21.241   6.155
 9586POPC   C1A51867  38.470  21.410   6.455
 9586POPC   D2A51868  38.477  21.431   6.755
 9586POPC   C3A51869  38.408  21.351   7.055
 9586POPC   C4A51870  38.471  21.355   7.355
 9586POPC   C1B51871  38.521  21.185   6.455
 9586POPC   C2B51872  38.509  21.147   6.755
 9586POPC   C3B51873  38.511  21.154   7.055
 9586POPC   C4B51874  38.475  21.173   7.355
 9587POPC   NC351875  40.795  37.705   5.555
 9587POPC   PO451876  40.775  37.689   5.855
 9587POPC   GL151877  40.762  37.644   6.155
 9587POPC   GL251878  40.894  37.621   6.155
 9587POPC   C1A51879  40.744  37.648   6.455
 9587POPC   D2A51880  40.745  37.644   6.755
 9587POPC   C3A51881  40.735  37.726   7.055
 9587POPC   C4A51882  40.791  37.675   7.355
 9587POPC   C1B51883  40.903  37.448   6.455
 9587POPC   C2B51884  40.959  37.455   6.755
 9587POPC   C3B51885  40.957  37.518   7.055
 9587POPC   C4B51886  40.942  37.484   7.355
 9588POPC   NC351887   9.768   5.092   5.555
 9588POPC   PO451888   9.786   5.107   5.855
 9588POPC   GL151889   9.778   5.109   6.155
 9588POPC   GL251890   9.907   5.099   6.155
 9588POPC   C1A51891   9.717   5.095   6.455
 9588POPC   D2A51892   9.700   5.045   6.755
 9588POPC   C3A51893   9.710   5.045   7.055
 9588POPC   C4A51894   9.796   5.071   7.355
 9588POPC   C1B51895   9.983   5.093   6.455
 9588POPC   C2B51896  10.011   5.145   6.755
 9588POPC   C3B51897   9.973   5.135   7.055
 9588POPC   C4B51898   9.956   5.123   7.355
 9589POPC   NC351899  42.339  15.907   5.555
 9589POPC   PO451900  42.326  15.981   5.855
 9589POPC   GL151901  42.380  15.966   6.155
 9589POPC   GL251902  42.197  16.060   6.155
 9589POPC   C1A51903  42.341  15.959   6.455
 9589POPC   D2A51904  42.324  15.990   6.755
 9589POPC   C3A51905  42.314  15.927   7.055
 9589POPC   C4A51906  42.315  15.999   7.355
 9589POPC   C1B51907  42.154  16.082   6.455
 9589POPC   C2B51908  42.142  16.120   6.755
 9589POPC   C3B51909  42.096  16.135   7.055
 9589POPC   C4B51910  42.110  16.119   7.355
 9590POPC   NC351911  40.761  29.871   5.555
 9590POPC   PO451912  40.746  29.909   5.855
 9590POPC   GL151913  40.762  29.892   6.155
 9590POPC   GL251914  40.802  30.000   6.155
 9590POPC   C1A51915  40.764  29.957   6.455
 9590POPC   D2A51916  40.753  29.925   6.755
 9590POPC   C3A51917  40.816  29.923   7.055
 9590POPC   C4A51918  40.806  29.919   7.355
 9590POPC   C1B51919  40.922  30.144   6.455
 9590POPC   C2B51920  40.840  30.179   6.755
 9590POPC   C3B51921  40.897  30.162   7.055
 9590POPC   C4B51922  40.867  30.147   7.355
 9591POPC   NC351923  26.036   2.769   5.555
 9591POPC   PO451924  25.995   2.812   5.855
 9591POPC   GL151925  26.049   2.778   6.155
 9591POPC   GL251926  26.141   2.886   6.155
 9591POPC   C1A51927  25.992   2.781   6.455
 9591POPC   D2A51928  26.022   2.721   6.755
 9591POPC   C3A51929  26.020   2.808   7.055
 9591POPC   C4A51930  26.062   2.729   7.355
 9591POPC   C1B51931  26.118   2.997   6.455
 9591POPC   C2B51932  26.115   2.981   6.755
 9591POPC   C3B51933  26.178   2.977   7.055
 9591POPC   C4B51934  26.141   3.003   7.355
 9592POPC   NC351935  28.361  40.048   5.555
 9592POPC   PO451936  28.360  40.051   5.855
 9592POPC   GL151937  28.378  40.042   6.155
 9592POPC   GL251938  28.452  40.050   6.155
 9592POPC   C1A51939  28.405  40.003   6.455
 9592POPC   D2A51940  28.398  40.005   6.755
 9592POPC   C3A51941  28.336  39.998   7.055
 9592POPC   C4A51942  28.338  40.048   7.355
 9592POPC   C1B51943  28.568  40.059   6.455
 9592POPC   C2B51944  28.597  40.141   6.755
 9592POPC   C3B51945  28.569  40.069   7.055
 9592POPC   C4B51946  28.617  40.111   7.355
 9593POPC   NC351947  34.609  33.842   5.555
 9593POPC   PO451948  34.537  33.770   5.855
 9593POPC   GL151949  34.531  33.776   6.155
 9593POPC   GL251950  34.445  33.677   6.155
 9593POPC   C1A51951  34.568  33.763   6.455
 9593POPC   D2A51952  34.558  33.776   6.755
 9593POPC   C3A51953  34.625  33.751   7.055
 9593POPC   C4A51954  34.608  33.753   7.355
 9593POPC   C1B51955  34.368  33.603   6.455
 9593POPC   C2B51956  34.356  33.613   6.755
 9593POPC   C3B51957  34.359  33.643   7.055
 9593POPC   C4B51958  34.398  33.658   7.355
 9594POPC   NC351959  15.226  30.667   5.555
 9594POPC   PO451960  15.158  30.711   5.855
 9594POPC   GL151961  15.220  30.720   6.155
 9594POPC   GL251962  15.011  30.718   6.155
 9594POPC   C1A51963  15.132  30.695   6.455
 9594POPC   D2A51964  15.222  30.703   6.755
 9594POPC   C3A51965  15.202  30.691   7.055
 9594POPC   C4A51966  15.228  30.728   7.355
 9594POPC   C1B51967  14.896  30.610   6.455
 9594POPC   C2B51968  14.977  30.622   6.755
 9594POPC   C3B51969  14.975  30.667   7.055
 9594POPC   C4B51970  14.887  30.646   7.355
 9595POPC   NC351971  33.059  10.520   5.555
 9595POPC   PO451972  33.019  10.479   5.855
 9595POPC   GL151973  33.020  10.554   6.155
 9595POPC   GL251974  32.913  10.466   6.155
 9595POPC   C1A51975  33.055  10.559   6.455
 9595POPC   D2A51976  33.023  10.567   6.755
 9595POPC   C3A51977  32.990  10.556   7.055
 9595POPC   C4A51978  33.027  10.570   7.355
 9595POPC   C1B51979  32.935  10.272   6.455
 9595POPC   C2B51980  32.926  10.327   6.755
 9595POPC   C3B51981  32.903  10.325   7.055
 9595POPC   C4B51982  32.874  10.356   7.355
 9596POPC   NC351983  40.820  35.346   5.555
 9596POPC   PO451984  40.744  35.323   5.855
 9596POPC   GL151985  40.817  35.336   6.155
 9596POPC   GL251986  40.754  35.211   6.155
 9596POPC   C1A51987  40.772  35.308   6.455
 9596POPC   D2A51988  40.789  35.348   6.755
 9596POPC   C3A51989  40.804  35.368   7.055
 9596POPC   C4A51990  40.767  35.400   7.355
 9596POPC   C1B51991  40.767  35.144   6.455
 9596POPC   C2B51992  40.701  35.088   6.755
 9596POPC   C3B51993  40.733  35.064   7.055
 9596POPC   C4B51994  40.728  35.146   7.355
 9597POPC   NC351995  37.715   6.623   5.555
 9597POPC   PO451996  37.651   6.682   5.855
 9597POPC   GL151997  37.665   6.659   6.155
 9597POPC   GL251998  37.810   6.596   6.155
 9597POPC   C1A51999  37.648   6.657   6.455
 9597POPC   D2A52000  37.690   6.621   6.755
 9597POPC   C3A52001  37.723   6.643   7.055
 9597POPC   C4A52002  37.725   6.612   7.355
 9597POPC   C1B52003  37.831   6.502   6.455
 9597POPC   C2B52004  37.831   6.470   6.755
 9597POPC   C3B52005  37.821   6.455   7.055
 9597POPC   C4B52006  37.905   6.465   7.355
 9598POPC   NC352007  12.885  40.745   5.555
 9598POPC   PO452008  12.814  40.748   5.855
 9598POPC   GL152009  12.836  40.736   6.155
 9598POPC   GL252010  12.848  40.622   6.155
 9598POPC   C1A52011  12.899  40.794   6.455
 9598POPC   D2A52012  12.843  40.807   6.755
 9598POPC   C3A52013  12.857  40.734   7.055
 9598POPC   C4A52014  12.839  40.801   7.355
 9598POPC   C1B52015  12.965  40.531   6.455
 9598POPC   C2B52016  12.931  40.519   6.755
 9598POPC   C3B52017  12.957  40.505   7.055
 9598POPC   C4B52018  12.889  40.533   7.355
 9599POPC   NC352019  35.321  16.709   5.555
 9599POPC   PO452020  35.331  16.720   5.855
 9599POPC   GL152021  35.314  16.688   6.155
 9599POPC   GL252022  35.214  16.787   6.155
 9599POPC   C1A52023  35.337  16.698   6.455
 9599POPC   D2A52024  35.394  16.723   6.755
 9599POPC   C3A52025  35.345  16.724   7.055
 9599POPC   C4A52026  35.381  16.775   7.355
 9599POPC   C1B52027  35.132  16.853   6.455
 9599POPC   C2B52028  35.116  16.883   6.755
 9599POPC   C3B52029  35.108  16.796   7.055
 9599POPC   C4B52030  35.097  16.824   7.355
 9600POPC   NC352031  29.128  29.106   5.555
 9600POPC   PO452032  29.180  29.099   5.855
 9600POPC   GL152033  29.146  29.135   6.155
 9600POPC   GL252034  29.204  29.111   6.155
 9600POPC   C1A52035  29.141  29.116   6.455
 9600POPC   D2A52036  29.184  29.111   6.755
 9600POPC   C3A52037  29.174  29.101   7.055
 9600POPC   C4A52038  29.126  29.141   7.355
 9600POPC   C1B52039  29.337  29.015   6.455
 9600POPC   C2B52040  29.338  29.025   6.755
 9600POPC   C3B52041  29.310  28.968   7.055
 9600POPC   C4B52042  29.340  28.997   7.355
 9601POPC   NC352043  40.785  21.382   5.555
 9601POPC   PO452044  40.740  21.371   5.855
 9601POPC   GL152045  40.776  21.425   6.155
 9601POPC   GL252046  40.706  21.487   6.155
 9601POPC   C1A52047  40.759  21.423   6.455
 9601POPC   D2A52048  40.745  21.381   6.755
 9601POPC   C3A52049  40.788  21.425   7.055
 9601POPC   C4A52050  40.797  21.430   7.355
 9601POPC   C1B52051  40.610  21.508   6.455
 9601POPC   C2B52052  40.549  21.548   6.755
 9601POPC   C3B52053  40.603  21.480   7.055
 9601POPC   C4B52054  40.528  21.563   7.355
 9602POPC   NC352055  38.434  40.037   5.555
 9602POPC   PO452056  38.409  39.958   5.855
 9602POPC   GL152057  38.444  39.978   6.155
 9602POPC   GL252058  38.538  40.128   6.155
 9602POPC   C1A52059  38.489  40.028   6.455
 9602POPC   D2A52060  38.485  40.005   6.755
 9602POPC   C3A52061  38.418  39.993   7.055
 9602POPC   C4A52062  38.421  40.012   7.355
 9602POPC   C1B52063  38.588  40.274   6.455
 9602POPC   C2B52064  38.570  40.275   6.755
 9602POPC   C3B52065  38.570  40.226   7.055
 9602POPC   C4B52066  38.571  40.267   7.355
 9603POPC   NC352067  15.959  33.064   5.555
 9603POPC   PO452068  15.991  33.068   5.855
 9603POPC   GL152069  15.996  32.989   6.155
 9603POPC   GL252070  15.918  32.906   6.155
 9603POPC   C1A52071  15.984  32.986   6.455
 9603POPC   D2A52072  15.954  33.037   6.755
 9603POPC   C3A52073  15.989  33.011   7.055
 9603POPC   C4A52074  15.907  32.985   7.355
 9603POPC   C1B52075  15.949  32.813   6.455
 9603POPC   C2B52076  15.898  32.740   6.755
 9603POPC   C3B52077  15.935  32.758   7.055
 9603POPC   C4B52078  15.892  32.819   7.355
 9604POPC   NC352079  39.970  33.072   5.555
 9604POPC   PO452080  39.994  33.006   5.855
 9604POPC   GL152081  40.048  33.036   6.155
 9604POPC   GL252082  39.967  33.172   6.155
 9604POPC   C1A52083  39.992  33.070   6.455
 9604POPC   D2A52084  40.001  33.027   6.755
 9604POPC   C3A52085  40.032  33.021   7.055
 9604POPC   C4A52086  40.011  33.046   7.355
 9604POPC   C1B52087  39.905  33.266   6.455
 9604POPC   C2B52088  39.808  33.233   6.755
 9604POPC   C3B52089  39.828  33.244   7.055
 9604POPC   C4B52090  39.869  33.254   7.355
 9605POPC   NC352091  43.150   1.178   5.555
 9605POPC   PO452092  43.082   1.261   5.855
 9605POPC   GL152093  43.062   1.259   6.155
 9605POPC   GL252094  43.032   1.279   6.155
 9605POPC   C1A52095  43.153   1.190   6.455
 9605POPC   D2A52096  43.143   1.176   6.755
 9605POPC   C3A52097  43.146   1.203   7.055
 9605POPC   C4A52098  43.106   1.183   7.355
 9605POPC   C1B52099  42.906   1.378   6.455
 9605POPC   C2B52100  42.882   1.340   6.755
 9605POPC   C3B52101  42.892   1.348   7.055
 9605POPC   C4B52102  42.926   1.357   7.355
 9606POPC   NC352103   5.134   6.666   5.555
 9606POPC   PO452104   5.080   6.618   5.855
 9606POPC   GL152105   5.125   6.651   6.155
 9606POPC   GL252106   5.033   6.574   6.155
 9606POPC   C1A52107   5.048   6.642   6.455
 9606POPC   D2A52108   5.109   6.684   6.755
 9606POPC   C3A52109   5.107   6.635   7.055
 9606POPC   C4A52110   5.114   6.627   7.355
 9606POPC   C1B52111   4.941   6.410   6.455
 9606POPC   C2B52112   4.987   6.445   6.755
 9606POPC   C3B52113   4.972   6.418   7.055
 9606POPC   C4B52114   4.975   6.447   7.355
 9607POPC   NC352115  18.315  15.221   5.555
 9607POPC   PO452116  18.239  15.187   5.855
 9607POPC   GL152117  18.260  15.205   6.155
 9607POPC   GL252118  18.447  15.146   6.155
 9607POPC   C1A52119  18.285  15.186   6.455
 9607POPC   D2A52120  18.251  15.205   6.755
 9607POPC   C3A52121  18.311  15.146   7.055
 9607POPC   C4A52122  18.242  15.226   7.355
 9607POPC   C1B52123  18.484  15.074   6.455
 9607POPC   C2B52124  18.495  15.059   6.755
 9607POPC   C3B52125  18.515  15.125   7.055
 9607POPC   C4B52126  18.537  15.052   7.355
 9608POPC   NC352127  35.329  33.784   5.555
 9608POPC   PO452128  35.386  33.800   5.855
 9608POPC   GL152129  35.332  33.780   6.155
 9608POPC   GL252130  35.300  33.636   6.155
 9608POPC   C1A52131  35.363  33.755   6.455
 9608POPC   D2A52132  35.326  33.792   6.755
 9608POPC   C3A52133  35.378  33.820   7.055
 9608POPC   C4A52134  35.333  33.839   7.355
 9608POPC   C1B52135  35.282  33.546   6.455
 9608POPC   C2B52136  35.274  33.511   6.755
 9608POPC   C3B52137  35.298  33.550   7.055
 9608POPC   C4B52138  35.252  33.569   7.355
 9609POPC   NC352139  26.041  33.812   5.555
 9609POPC   PO452140  26.069  33.763   5.855
 9609POPC   GL152141  26.076  33.845   6.155
 9609POPC   GL252142  26.141  33.865   6.155
 9609POPC   C1A52143  25.997  33.802   6.455
 9609POPC   D2A52144  26.018  33.797   6.755
 9609POPC   C3A52145  26.010  33.752   7.055
 9609POPC   C4A52146  26.025  33.757   7.355
 9609POPC   C1B52147  26.227  33.949   6.455
 9609POPC   C2B52148  26.262  33.988   6.755
 9609POPC   C3B52149  26.183  33.994   7.055
 9609POPC   C4B52150  26.178  33.947   7.355
 9610POPC   NC352151  34.606  13.614   5.555
 9610POPC   PO452152  34.578  13.614   5.855
 9610POPC   GL152153  34.586  13.658   6.155
 9610POPC   GL252154  34.743  13.669   6.155
 9610POPC   C1A52155  34.541  13.628   6.455
 9610POPC   D2A52156  34.570  13.658   6.755
 9610POPC   C3A52157  34.620  13.619   7.055
 9610POPC   C4A52158  34.553  13.630   7.355
 9610POPC   C1B52159  34.808  13.626   6.455
 9610POPC   C2B52160  34.839  13.685   6.755
 9610POPC   C3B52161  34.781  13.678   7.055
 9610POPC   C4B52162  34.797  13.644   7.355
 9611POPC   NC352163  19.024  11.339   5.555
 9611POPC   PO452164  19.065  11.297   5.855
 9611POPC   GL152165  19.039  11.271   6.155
 9611POPC   GL252166  19.144  11.240   6.155
 9611POPC   C1A52167  19.085  11.319   6.455
 9611POPC   D2A52168  19.107  11.306   6.755
 9611POPC   C3A52169  19.047  11.266   7.055
 9611POPC   C4A52170  19.101  11.347   7.355
 9611POPC   C1B52171  19.220  11.143   6.455
 9611POPC   C2B52172  19.236  11.166   6.755
 9611POPC   C3B52173  19.225  11.106   7.055
 9611POPC   C4B52174  19.187  11.152   7.355
 9612POPC   NC352175  38.501  11.316   5.555
 9612POPC   PO452176  38.492  11.312   5.855
 9612POPC   GL152177  38.443  11.285   6.155
 9612POPC   GL252178  38.558  11.385   6.155
 9612POPC   C1A52179  38.436  11.251   6.455
 9612POPC   D2A52180  38.432  11.316   6.755
 9612POPC   C3A52181  38.473  11.297   7.055
 9612POPC   C4A52182  38.459  11.306   7.355
 9612POPC   C1B52183  38.640  11.427   6.455
 9612POPC   C2B52184  38.656  11.461   6.755
 9612POPC   C3B52185  38.649  11.417   7.055
 9612POPC   C4B52186  38.624  11.413   7.355
 9613POPC   NC352187  25.288  42.343   5.555
 9613POPC   PO452188  25.258  42.343   5.855
 9613POPC   GL152189  25.295  42.383   6.155
 9613POPC   GL252190  25.208  42.374   6.155
 9613POPC   C1A52191  25.282  42.345   6.455
 9613POPC   D2A52192  25.247  42.364   6.755
 9613POPC   C3A52193  25.250  42.381   7.055
 9613POPC   C4A52194  25.314  42.354   7.355
 9613POPC   C1B52195  25.059  42.476   6.455
 9613POPC   C2B52196  25.066  42.488   6.755
 9613POPC   C3B52197  25.018  42.457   7.055
 9613POPC   C4B52198  25.026  42.495   7.355
 9614POPC   NC352199  15.186  16.000   5.555
 9614POPC   PO452200  15.135  15.996   5.855
 9614POPC   GL152201  15.147  15.992   6.155
 9614POPC   GL252202  15.242  16.029   6.155
 9614POPC   C1A52203  15.226  15.967   6.455
 9614POPC   D2A52204  15.159  15.980   6.755
 9614POPC   C3A52205  15.183  15.984   7.055
 9614POPC   C4A52206  15.131  15.911   7.355
 9614POPC   C1B52207  15.281  16.212   6.455
 9614POPC   C2B52208  15.263  16.174   6.755
 9614POPC   C3B52209  15.320  16.150   7.055
 9614POPC   C4B52210  15.308  16.179   7.355
 9615POPC   NC352211  36.940  28.325   5.555
 9615POPC   PO452212  36.908  28.334   5.855
 9615POPC   GL152213  36.888  28.330   6.155
 9615POPC   GL252214  37.003  28.344   6.155
 9615POPC   C1A52215  36.943  28.388   6.455
 9615POPC   D2A52216  36.915  28.375   6.755
 9615POPC   C3A52217  36.953  28.399   7.055
 9615POPC   C4A52218  36.908  28.355   7.355
 9615POPC   C1B52219  37.154  28.383   6.455
 9615POPC   C2B52220  37.131  28.386   6.755
 9615POPC   C3B52221  37.193  28.384   7.055
 9615POPC   C4B52222  37.172  28.323   7.355
 9616POPC   NC352223  33.065  16.753   5.555
 9616POPC   PO452224  33.048  16.775   5.855
 9616POPC   GL152225  33.026  16.746   6.155
 9616POPC   GL252226  33.101  16.755   6.155
 9616POPC   C1A52227  33.008  16.696   6.455
 9616POPC   D2A52228  32.996  16.737   6.755
 9616POPC   C3A52229  33.032  16.756   7.055
 9616POPC   C4A52230  33.051  16.761   7.355
 9616POPC   C1B52231  33.222  16.888   6.455
 9616POPC   C2B52232  33.202  16.912   6.755
 9616POPC   C3B52233  33.212  16.876   7.055
 9616POPC   C4B52234  33.253  16.873   7.355
 9617POPC   NC352235   7.372  44.666   5.555
 9617POPC   PO452236   7.467  44.689   5.855
 9617POPC   GL152237   7.441  44.622   6.155
 9617POPC   GL252238   7.285  44.662   6.155
 9617POPC   C1A52239   7.446  44.700   6.455
 9617POPC   D2A52240   7.385  44.661   6.755
 9617POPC   C3A52241   7.410  44.646   7.055
 9617POPC   C4A52242   7.439  44.649   7.355
 9617POPC   C1B52243   7.139  44.722   6.455
 9617POPC   C2B52244   7.133  44.663   6.755
 9617POPC   C3B52245   7.205  44.751   7.055
 9617POPC   C4B52246   7.207  44.696   7.355
 9618POPC   NC352247   6.654  19.789   5.555
 9618POPC   PO452248   6.633  19.863   5.855
 9618POPC   GL152249   6.621  19.804   6.155
 9618POPC   GL252250   6.581  19.676   6.155
 9618POPC   C1A52251   6.691  19.846   6.455
 9618POPC   D2A52252   6.610  19.792   6.755
 9618POPC   C3A52253   6.645  19.842   7.055
 9618POPC   C4A52254   6.629  19.838   7.355
 9618POPC   C1B52255   6.616  19.582   6.455
 9618POPC   C2B52256   6.608  19.598   6.755
 9618POPC   C3B52257   6.563  19.577   7.055
 9618POPC   C4B52258   6.589  19.624   7.355
 9619POPC   NC352259  36.167   4.269   5.555
 9619POPC   PO452260  36.153   4.311   5.855
 9619POPC   GL152261  36.146   4.283   6.155
 9619POPC   GL252262  36.053   4.414   6.155
 9619POPC   C1A52263  36.084   4.306   6.455
 9619POPC   D2A52264  36.113   4.312   6.755
 9619POPC   C3A52265  36.091   4.336   7.055
 9619POPC   C4A52266  36.120   4.332   7.355
 9619POPC   C1B52267  35.996   4.501   6.455
 9619POPC   C2B52268  35.953   4.502   6.755
 9619POPC   C3B52269  35.944   4.568   7.055
 9619POPC   C4B52270  35.969   4.569   7.355
 9620POPC   NC352271   3.522  33.062   5.555
 9620POPC   PO452272   3.585  33.057   5.855
 9620POPC   GL152273   3.527  32.976   6.155
 9620POPC   GL252274   3.430  32.956   6.155
 9620POPC   C1A52275   3.545  33.002   6.455
 9620POPC   D2A52276   3.576  33.048   6.755
 9620POPC   C3A52277   3.528  33.045   7.055
 9620POPC   C4A52278   3.522  33.035   7.355
 9620POPC   C1B52279   3.297  32.902   6.455
 9620POPC   C2B52280   3.301  32.919   6.755
 9620POPC   C3B52281   3.328  32.922   7.055
 9620POPC   C4B52282   3.352  32.933   7.355
 9621POPC   NC352283  22.892  29.937   5.555
 9621POPC   PO452284  22.894  29.893   5.855
 9621POPC   GL152285  22.986  29.880   6.155
 9621POPC   GL252286  22.834  29.984   6.155
 9621POPC   C1A52287  22.906  29.909   6.455
 9621POPC   D2A52288  22.940  29.924   6.755
 9621POPC   C3A52289  22.901  29.960   7.055
 9621POPC   C4A52290  22.959  29.954   7.355
 9621POPC   C1B52291  22.819  30.175   6.455
 9621POPC   C2B52292  22.806  30.175   6.755
 9621POPC   C3B52293  22.788  30.116   7.055
 9621POPC   C4B52294  22.817  30.093   7.355
 9622POPC   NC352295  43.135  34.625   5.555
 9622POPC   PO452296  43.144  34.572   5.855
 9622POPC   GL152297  43.093  34.621   6.155
 9622POPC   GL252298  42.966  34.512   6.155
 9622POPC   C1A52299  43.155  34.624   6.455
 9622POPC   D2A52300  43.129  34.598   6.755
 9622POPC   C3A52301  43.128  34.589   7.055
 9622POPC   C4A52302  43.112  34.599   7.355
 9622POPC   C1B52303  42.956  34.400   6.455
 9622POPC   C2B52304  42.924  34.450   6.755
 9622POPC   C3B52305  42.912  34.388   7.055
 9622POPC   C4B52306  42.907  34.448   7.355
 9623POPC   NC352307   7.390   1.949   5.555
 9623POPC   PO452308   7.414   1.956   5.855
 9623POPC   GL152309   7.441   1.973   6.155
 9623POPC   GL252310   7.325   2.136   6.155
 9623POPC   C1A52311   7.379   1.983   6.455
 9623POPC   D2A52312   7.394   2.032   6.755
 9623POPC   C3A52313   7.413   2.022   7.055
 9623POPC   C4A52314   7.423   1.943   7.355
 9623POPC   C1B52315   7.267   2.140   6.455
 9623POPC   C2B52316   7.268   2.179   6.755
 9623POPC   C3B52317   7.264   2.184   7.055
 9623POPC   C4B52318   7.246   2.145   7.355
 9624POPC   NC352319  26.841  29.923   5.555
 9624POPC   PO452320  26.782  29.884   5.855
 9624POPC   GL152321  26.833  29.889   6.155
 9624POPC   GL252322  26.680  29.960   6.155
 9624POPC   C1A52323  26.846  29.908   6.455
 9624POPC   D2A52324  26.852  29.872   6.755
 9624POPC   C3A52325  26.823  29.875   7.055
 9624POPC   C4A52326  26.806  29.903   7.355
 9624POPC   C1B52327  26.524  29.919   6.455
 9624POPC   C2B52328  26.567  29.904   6.755
 9624POPC   C3B52329  26.543  29.952   7.055
 9624POPC   C4B52330  26.603  29.954   7.355
 9625POPC   NC352331  18.238  24.444   5.555
 9625POPC   PO452332  18.331  24.498   5.855
 9625POPC   GL152333  18.259  24.444   6.155
 9625POPC   GL252334  18.265  24.586   6.155
 9625POPC   C1A52335  18.327  24.457   6.455
 9625POPC   D2A52336  18.305  24.516   6.755
 9625POPC   C3A52337  18.253  24.534   7.055
 9625POPC   C4A52338  18.314  24.463   7.355
 9625POPC   C1B52339  18.136  24.701   6.455
 9625POPC   C2B52340  18.168  24.742   6.755
 9625POPC   C3B52341  18.209  24.696   7.055
 9625POPC   C4B52342  18.148  24.677   7.355
 9626POPC   NC352343  40.741  14.405   5.555
 9626POPC   PO452344  40.782  14.376   5.855
 9626POPC   GL152345  40.802  14.402   6.155
 9626POPC   GL252346  40.737  14.275   6.155
 9626POPC   C1A52347  40.771  14.419   6.455
 9626POPC   D2A52348  40.789  14.427   6.755
 9626POPC   C3A52349  40.797  14.430   7.055
 9626POPC   C4A52350  40.734  14.356   7.355
 9626POPC   C1B52351  40.731  14.135   6.455
 9626POPC   C2B52352  40.706  14.136   6.755
 9626POPC   C3B52353  40.696  14.174   7.055
 9626POPC   C4B52354  40.640  14.221   7.355
 9627POPC   NC352355   4.317   6.678   5.555
 9627POPC   PO452356   4.329   6.620   5.855
 9627POPC   GL152357   4.284   6.676   6.155
 9627POPC   GL252358   4.281   6.722   6.155
 9627POPC   C1A52359   4.280   6.652   6.455
 9627POPC   D2A52360   4.295   6.613   6.755
 9627POPC   C3A52361   4.309   6.600   7.055
 9627POPC   C4A52362   4.362   6.631   7.355
 9627POPC   C1B52363   4.164   6.865   6.455
 9627POPC   C2B52364   4.212   6.865   6.755
 9627POPC   C3B52365   4.135   6.875   7.055
 9627POPC   C4B52366   4.179   6.854   7.355
 9628POPC   NC352367   7.409   6.674   5.555
 9628POPC   PO452368   7.386   6.652   5.855
 9628POPC   GL152369   7.397   6.620   6.155
 9628POPC   GL252370   7.371   6.786   6.155
 9628POPC   C1A52371   7.435   6.693   6.455
 9628POPC   D2A52372   7.436   6.661   6.755
 9628POPC   C3A52373   7.385   6.673   7.055
 9628POPC   C4A52374   7.448   6.605   7.355
 9628POPC   C1B52375   7.350   6.907   6.455
 9628POPC   C2B52376   7.372   6.899   6.755
 9628POPC   C3B52377   7.378   6.867   7.055
 9628POPC   C4B52378   7.314   6.891   7.355
 9629POPC   NC352379  43.143   0.393   5.555
 9629POPC   PO452380  43.132   0.390   5.855
 9629POPC   GL152381  43.069   0.393   6.155
 9629POPC   GL252382  43.117   0.287   6.155
 9629POPC   C1A52383  43.125   0.429   6.455
 9629POPC   D2A52384  43.115   0.405   6.755
 9629POPC   C3A52385  43.123   0.401   7.055
 9629POPC   C4A52386  43.080   0.396   7.355
 9629POPC   C1B52387  43.164   0.149   6.455
 9629POPC   C2B52388  43.130   0.188   6.755
 9629POPC   C3B52389  43.187   0.221   7.055
 9629POPC   C4B52390  43.169   0.185   7.355
 9630POPC   NC352391   6.644  38.486   5.555
 9630POPC   PO452392   6.681  38.414   5.855
 9630POPC   GL152393   6.662  38.465   6.155
 9630POPC   GL252394   6.528  38.428   6.155
 9630POPC   C1A52395   6.682  38.418   6.455
 9630POPC   D2A52396   6.679  38.463   6.755
 9630POPC   C3A52397   6.632  38.497   7.055
 9630POPC   C4A52398   6.607  38.505   7.355
 9630POPC   C1B52399   6.395  38.318   6.455
 9630POPC   C2B52400   6.403  38.318   6.755
 9630POPC   C3B52401   6.383  38.348   7.055
 9630POPC   C4B52402   6.470  38.293   7.355
 9631POPC   NC352403  10.529  12.092   5.555
 9631POPC   PO452404  10.500  12.124   5.855
 9631POPC   GL152405  10.560  12.085   6.155
 9631POPC   GL252406  10.436  12.201   6.155
 9631POPC   C1A52407  10.502  12.088   6.455
 9631POPC   D2A52408  10.493  12.028   6.755
 9631POPC   C3A52409  10.488  12.026   7.055
 9631POPC   C4A52410  10.549  12.082   7.355
 9631POPC   C1B52411  10.294  12.277   6.455
 9631POPC   C2B52412  10.317  12.231   6.755
 9631POPC   C3B52413  10.357  12.185   7.055
 9631POPC   C4B52414  10.356  12.251   7.355
 9632POPC   NC352415  29.127  37.690   5.555
 9632POPC   PO452416  29.188  37.641   5.855
 9632POPC   GL152417  29.169  37.685   6.155
 9632POPC   GL252418  29.204  37.793   6.155
 9632POPC   C1A52419  29.182  37.666   6.455
 9632POPC   D2A52420  29.147  37.703   6.755
 9632POPC   C3A52421  29.099  37.678   7.055
 9632POPC   C4A52422  29.143  37.661   7.355
 9632POPC   C1B52423  29.328  37.898   6.455
 9632POPC   C2B52424  29.335  37.843   6.755
 9632POPC   C3B52425  29.281  37.916   7.055
 9632POPC   C4B52426  29.310  37.926   7.355
 9633POPC   NC352427  41.563  40.806   5.555
 9633POPC   PO452428  41.589  40.793   5.855
 9633POPC   GL152429  41.554  40.774   6.155
 9633POPC   GL252430  41.450  40.819   6.155
 9633POPC   C1A52431  41.519  40.757   6.455
 9633POPC   D2A52432  41.594  40.745   6.755
 9633POPC   C3A52433  41.558  40.755   7.055
 9633POPC   C4A52434  41.590  40.763   7.355
 9633POPC   C1B52435  41.270  40.804   6.455
 9633POPC   C2B52436  41.288  40.800   6.755
 9633POPC   C3B52437  41.289  40.790   7.055
 9633POPC   C4B52438  41.351  40.840   7.355
 9634POPC   NC352439   3.509   8.965   5.555
 9634POPC   PO452440   3.566   8.943   5.855
 9634POPC   GL152441   3.528   9.006   6.155
 9634POPC   GL252442   3.473   9.074   6.155
 9634POPC   C1A52443   3.522   9.008   6.455
 9634POPC   D2A52444   3.563   8.934   6.755
 9634POPC   C3A52445   3.565   8.966   7.055
 9634POPC   C4A52446   3.494   9.001   7.355
 9634POPC   C1B52447   3.342   9.154   6.455
 9634POPC   C2B52448   3.385   9.168   6.755
 9634POPC   C3B52449   3.381   9.187   7.055
 9634POPC   C4B52450   3.428   9.148   7.355
 9635POPC   NC352451  21.366  29.112   5.555
 9635POPC   PO452452  21.364  29.134   5.855
 9635POPC   GL152453  21.358  29.170   6.155
 9635POPC   GL252454  21.405  29.241   6.155
 9635POPC   C1A52455  21.345  29.163   6.455
 9635POPC   D2A52456  21.385  29.155   6.755
 9635POPC   C3A52457  21.363  29.159   7.055
 9635POPC   C4A52458  21.380  29.181   7.355
 9635POPC   C1B52459  21.541  29.323   6.455
 9635POPC   C2B52460  21.494  29.386   6.755
 9635POPC   C3B52461  21.531  29.386   7.055
 9635POPC   C4B52462  21.519  29.320   7.355
 9636POPC   NC352463  19.809  10.480   5.555
 9636POPC   PO452464  19.884  10.529   5.855
 9636POPC   GL152465  19.845  10.519   6.155
 9636POPC   GL252466  19.984  10.604   6.155
 9636POPC   C1A52467  19.850  10.574   6.455
 9636POPC   D2A52468  19.854  10.563   6.755
 9636POPC   C3A52469  19.847  10.475   7.055
 9636POPC   C4A52470  19.825  10.507   7.355
 9636POPC   C1B52471  20.022  10.684   6.455
 9636POPC   C2B52472  20.043  10.685   6.755
 9636POPC   C3B52473  20.010  10.641   7.055
 9636POPC   C4B52474  20.087  10.626   7.355
 9637POPC   NC352475  26.040  11.329   5.555
 9637POPC   PO452476  26.060  11.316   5.855
 9637POPC   GL152477  26.090  11.256   6.155
 9637POPC   GL252478  26.068  11.186   6.155
 9637POPC   C1A52479  26.066  11.304   6.455
 9637POPC   D2A52480  26.024  11.295   6.755
 9637POPC   C3A52481  26.030  11.321   7.055
 9637POPC   C4A52482  26.031  11.282   7.355
 9637POPC   C1B52483  26.050  11.098   6.455
 9637POPC   C2B52484  26.011  11.098   6.755
 9637POPC   C3B52485  26.032  11.098   7.055
 9637POPC   C4B52486  25.969  11.004   7.355
 9638POPC   NC352487  43.862   5.842   5.555
 9638POPC   PO452488  43.867   5.836   5.855
 9638POPC   GL152489  43.933   5.877   6.155
 9638POPC   GL252490  43.962   5.754   6.155
 9638POPC   C1A52491  43.916   5.911   6.455
 9638POPC   D2A52492  43.934   5.880   6.755
 9638POPC   C3A52493  43.852   5.874   7.055
 9638POPC   C4A52494  43.921   5.903   7.355
 9638POPC   C1B52495  44.063   5.687   6.455
 9638POPC   C2B52496  44.044   5.639   6.755
 9638POPC   C3B52497  43.997   5.675   7.055
 9638POPC   C4B52498  43.989   5.683   7.355
 9639POPC   NC352499   8.239  31.460   5.555
 9639POPC   PO452500   8.184  31.481   5.855
 9639POPC   GL152501   8.225  31.428   6.155
 9639POPC   GL252502   8.341  31.513   6.155
 9639POPC   C1A52503   8.159  31.452   6.455
 9639POPC   D2A52504   8.216  31.501   6.755
 9639POPC   C3A52505   8.187  31.465   7.055
 9639POPC   C4A52506   8.152  31.508   7.355
 9639POPC   C1B52507   8.401  31.537   6.455
 9639POPC   C2B52508   8.461  31.545   6.755
 9639POPC   C3B52509   8.409  31.526   7.055
 9639POPC   C4B52510   8.436  31.554   7.355
 9640POPC   NC352511  35.347  13.584   5.555
 9640POPC   PO452512  35.389  13.663   5.855
 9640POPC   GL152513  35.373  13.672   6.155
 9640POPC   GL252514  35.363  13.553   6.155
 9640POPC   C1A52515  35.348  13.659   6.455
 9640POPC   D2A52516  35.354  13.578   6.755
 9640POPC   C3A52517  35.323  13.664   7.055
 9640POPC   C4A52518  35.340  13.648   7.355
 9640POPC   C1B52519  35.464  13.444   6.455
 9640POPC   C2B52520  35.444  13.413   6.755
 9640POPC   C3B52521  35.471  13.382   7.055
 9640POPC   C4B52522  35.487  13.455   7.355
 9641POPC   NC352523  26.047   9.008   5.555
 9641POPC   PO452524  26.014   8.943   5.855
 9641POPC   GL152525  26.062   8.943   6.155
 9641POPC   GL252526  26.028   8.803   6.155
 9641POPC   C1A52527  26.022   8.945   6.455
 9641POPC   D2A52528  26.058   8.991   6.755
 9641POPC   C3A52529  26.003   9.014   7.055
 9641POPC   C4A52530  26.050   8.946   7.355
 9641POPC   C1B52531  26.034   8.765   6.455
 9641POPC   C2B52532  26.081   8.703   6.755
 9641POPC   C3B52533  26.079   8.749   7.055
 9641POPC   C4B52534  26.096   8.706   7.355
 9642POPC   NC352535  15.223  25.225   5.555
 9642POPC   PO452536  15.133  25.308   5.855
 9642POPC   GL152537  15.196  25.268   6.155
 9642POPC   GL252538  15.299  25.139   6.155
 9642POPC   C1A52539  15.222  25.221   6.455
 9642POPC   D2A52540  15.164  25.278   6.755
 9642POPC   C3A52541  15.140  25.270   7.055
 9642POPC   C4A52542  15.155  25.250   7.355
 9642POPC   C1B52543  15.335  25.070   6.455
 9642POPC   C2B52544  15.348  25.050   6.755
 9642POPC   C3B52545  15.309  25.097   7.055
 9642POPC   C4B52546  15.346  25.100   7.355
 9643POPC   NC352547   1.957  18.316   5.555
 9643POPC   PO452548   1.980  18.299   5.855
 9643POPC   GL152549   1.941  18.305   6.155
 9643POPC   GL252550   1.888  18.219   6.155
 9643POPC   C1A52551   1.964  18.302   6.455
 9643POPC   D2A52552   1.996  18.245   6.755
 9643POPC   C3A52553   2.016  18.325   7.055
 9643POPC   C4A52554   1.976  18.236   7.355
 9643POPC   C1B52555   1.811  18.090   6.455
 9643POPC   C2B52556   1.812  18.095   6.755
 9643POPC   C3B52557   1.817  18.155   7.055
 9643POPC   C4B52558   1.826  18.158   7.355
 9644POPC   NC352559  30.675   1.198   5.555
 9644POPC   PO452560  30.703   1.235   5.855
 9644POPC   GL152561  30.738   1.250   6.155
 9644POPC   GL252562  30.625   1.258   6.155
 9644POPC   C1A52563  30.692   1.230   6.455
 9644POPC   D2A52564  30.682   1.185   6.755
 9644POPC   C3A52565  30.679   1.169   7.055
 9644POPC   C4A52566  30.696   1.246   7.355
 9644POPC   C1B52567  30.435   1.321   6.455
 9644POPC   C2B52568  30.446   1.323   6.755
 9644POPC   C3B52569  30.444   1.341   7.055
 9644POPC   C4B52570  30.476   1.308   7.355
 9645POPC   NC352571  15.181  43.877   5.555
 9645POPC   PO452572  15.228  43.850   5.855
 9645POPC   GL152573  15.223  43.863   6.155
 9645POPC   GL252574  15.128  43.758   6.155
 9645POPC   C1A52575  15.163  43.925   6.455
 9645POPC   D2A52576  15.130  43.917   6.755
 9645POPC   C3A52577  15.208  43.841   7.055
 9645POPC   C4A52578  15.227  43.859   7.355
 9645POPC   C1B52579  15.120  43.622   6.455
 9645POPC   C2B52580  15.049  43.699   6.755
 9645POPC   C3B52581  15.024  43.692   7.055
 9645POPC   C4B52582  15.116  43.630   7.355
 9646POPC   NC352583  12.086  32.226   5.555
 9646POPC   PO452584  12.081  32.208   5.855
 9646POPC   GL152585  12.086  32.210   6.155
 9646POPC   GL252586  12.073  32.386   6.155
 9646POPC   C1A52587  12.047  32.231   6.455
 9646POPC   D2A52588  12.062  32.199   6.755
 9646POPC   C3A52589  12.077  32.223   7.055
 9646POPC   C4A52590  12.119  32.249   7.355
 9646POPC   C1B52591  12.106  32.473   6.455
 9646POPC   C2B52592  12.124  32.490   6.755
 9646POPC   C3B52593  12.047  32.500   7.055
 9646POPC   C4B52594  12.110  32.474   7.355
 9647POPC   NC352595   5.059  42.293   5.555
 9647POPC   PO452596   5.109  42.331   5.855
 9647POPC   GL152597   5.116  42.292   6.155
 9647POPC   GL252598   5.146  42.436   6.155
 9647POPC   C1A52599   5.057  42.365   6.455
 9647POPC   D2A52600   5.128  42.291   6.755
 9647POPC   C3A52601   5.060  42.288   7.055
 9647POPC   C4A52602   5.117  42.356   7.355
 9647POPC   C1B52603   5.277  42.581   6.455
 9647POPC   C2B52604   5.222  42.553   6.755
 9647POPC   C3B52605   5.212  42.570   7.055
 9647POPC   C4B52606   5.254  42.548   7.355
 9648POPC   NC352607  19.107  40.765   5.555
 9648POPC   PO452608  19.091  40.807   5.855
 9648POPC   GL152609  19.035  40.816   6.155
 9648POPC   GL252610  19.224  40.743   6.155
 9648POPC   C1A52611  19.013  40.775   6.455
 9648POPC   D2A52612  19.102  40.779   6.755
 9648POPC   C3A52613  19.048  40.780   7.055
 9648POPC   C4A52614  19.012  40.829   7.355
 9648POPC   C1B52615  19.333  40.803   6.455
 9648POPC   C2B52616  19.302  40.808   6.755
 9648POPC   C3B52617  19.302  40.752   7.055
 9648POPC   C4B52618  19.277  40.746   7.355
 9649POPC   NC352619  39.196  39.969   5.555
 9649POPC   PO452620  39.204  40.053   5.855
 9649POPC   GL152621  39.237  39.967   6.155
 9649POPC   GL252622  39.138  39.872   6.155
 9649POPC   C1A52623  39.232  40.010   6.455
 9649POPC   D2A52624  39.242  40.005   6.755
 9649POPC   C3A52625  39.272  39.958   7.055
 9649POPC   C4A52626  39.264  40.055   7.355
 9649POPC   C1B52627  39.137  39.755   6.455
 9649POPC   C2B52628  39.166  39.812   6.755
 9649POPC   C3B52629  39.137  39.763   7.055
 9649POPC   C4B52630  39.079  39.757   7.355
 9650POPC   NC352631  12.074  31.494   5.555
 9650POPC   PO452632  12.080  31.427   5.855
 9650POPC   GL152633  12.114  31.500   6.155
 9650POPC   GL252634  12.228  31.525   6.155
 9650POPC   C1A52635  12.061  31.470   6.455
 9650POPC   D2A52636  12.031  31.519   6.755
 9650POPC   C3A52637  12.039  31.509   7.055
 9650POPC   C4A52638  12.111  31.455   7.355
 9650POPC   C1B52639  12.339  31.524   6.455
 9650POPC   C2B52640  12.306  31.496   6.755
 9650POPC   C3B52641  12.290  31.582   7.055
 9650POPC   C4B52642  12.269  31.509   7.355
 9651POPC   NC352643  25.272  26.040   5.555
 9651POPC   PO452644  25.262  26.011   5.855
 9651POPC   GL152645  25.238  26.046   6.155
 9651POPC   GL252646  25.340  25.978   6.155
 9651POPC   C1A52647  25.248  26.053   6.455
 9651POPC   D2A52648  25.231  26.000   6.755
 9651POPC   C3A52649  25.315  26.089   7.055
 9651POPC   C4A52650  25.278  26.085   7.355
 9651POPC   C1B52651  25.429  25.828   6.455
 9651POPC   C2B52652  25.424  25.806   6.755
 9651POPC   C3B52653  25.422  25.846   7.055
 9651POPC   C4B52654  25.371  25.859   7.355
 9652POPC   NC352655   5.897  39.234   5.555
 9652POPC   PO452656   5.888  39.235   5.855
 9652POPC   GL152657   5.918  39.254   6.155
 9652POPC   GL252658   5.865  39.117   6.155
 9652POPC   C1A52659   5.893  39.281   6.455
 9652POPC   D2A52660   5.831  39.190   6.755
 9652POPC   C3A52661   5.861  39.251   7.055
 9652POPC   C4A52662   5.839  39.246   7.355
 9652POPC   C1B52663   5.946  38.970   6.455
 9652POPC   C2B52664   5.893  38.970   6.755
 9652POPC   C3B52665   5.887  38.991   7.055
 9652POPC   C4B52666   5.905  38.966   7.355
 9653POPC   NC352667  13.584  15.146   5.555
 9653POPC   PO452668  13.633  15.218   5.855
 9653POPC   GL152669  13.667  15.140   6.155
 9653POPC   GL252670  13.731  15.251   6.155
 9653POPC   C1A52671  13.634  15.156   6.455
 9653POPC   D2A52672  13.596  15.133   6.755
 9653POPC   C3A52673  13.673  15.225   7.055
 9653POPC   C4A52674  13.607  15.208   7.355
 9653POPC   C1B52675  13.881  15.279   6.455
 9653POPC   C2B52676  13.852  15.248   6.755
 9653POPC   C3B52677  13.845  15.205   7.055
 9653POPC   C4B52678  13.820  15.207   7.355
 9654POPC   NC352679  15.222  40.745   5.555
 9654POPC   PO452680  15.191  40.829   5.855
 9654POPC   GL152681  15.212  40.771   6.155
 9654POPC   GL252682  15.073  40.793   6.155
 9654POPC   C1A52683  15.217  40.824   6.455
 9654POPC   D2A52684  15.178  40.805   6.755
 9654POPC   C3A52685  15.131  40.734   7.055
 9654POPC   C4A52686  15.146  40.811   7.355
 9654POPC   C1B52687  14.983  40.939   6.455
 9654POPC   C2B52688  14.936  40.892   6.755
 9654POPC   C3B52689  14.942  40.923   7.055
 9654POPC   C4B52690  14.987  40.904   7.355
 9655POPC   NC352691  14.368  14.445   5.555
 9655POPC   PO452692  14.387  14.435   5.855
 9655POPC   GL152693  14.367  14.374   6.155
 9655POPC   GL252694  14.322  14.565   6.155
 9655POPC   C1A52695  14.392  14.423   6.455
 9655POPC   D2A52696  14.404  14.384   6.755
 9655POPC   C3A52697  14.452  14.384   7.055
 9655POPC   C4A52698  14.406  14.405   7.355
 9655POPC   C1B52699  14.315  14.596   6.455
 9655POPC   C2B52700  14.353  14.617   6.755
 9655POPC   C3B52701  14.311  14.644   7.055
 9655POPC   C4B52702  14.336  14.681   7.355
 9656POPC   NC352703  29.193  16.725   5.555
 9656POPC   PO452704  29.125  16.779   5.855
 9656POPC   GL152705  29.174  16.723   6.155
 9656POPC   GL252706  29.069  16.696   6.155
 9656POPC   C1A52707  29.114  16.735   6.455
 9656POPC   D2A52708  29.163  16.716   6.755
 9656POPC   C3A52709  29.153  16.772   7.055
 9656POPC   C4A52710  29.181  16.748   7.355
 9656POPC   C1B52711  28.925  16.781   6.455
 9656POPC   C2B52712  28.854  16.787   6.755
 9656POPC   C3B52713  28.932  16.775   7.055
 9656POPC   C4B52714  28.873  16.729   7.355
 9657POPC   NC352715  15.162  41.597   5.555
 9657POPC   PO452716  15.196  41.549   5.855
 9657POPC   GL152717  15.135  41.534   6.155
 9657POPC   GL252718  15.312  41.501   6.155
 9657POPC   C1A52719  15.154  41.595   6.455
 9657POPC   D2A52720  15.217  41.575   6.755
 9657POPC   C3A52721  15.152  41.591   7.055
 9657POPC   C4A52722  15.168  41.589   7.355
 9657POPC   C1B52723  15.420  41.490   6.455
 9657POPC   C2B52724  15.393  41.532   6.755
 9657POPC   C3B52725  15.433  41.493   7.055
 9657POPC   C4B52726  15.450  41.449   7.355
 9658POPC   NC352727  43.088  27.577   5.555
 9658POPC   PO452728  43.142  27.561   5.855
 9658POPC   GL152729  43.093  27.616   6.155
 9658POPC   GL252730  43.041  27.470   6.155
 9658POPC   C1A52731  43.151  27.565   6.455
 9658POPC   D2A52732  43.128  27.626   6.755
 9658POPC   C3A52733  43.061  27.623   7.055
 9658POPC   C4A52734  43.110  27.615   7.355
 9658POPC   C1B52735  42.923  27.406   6.455
 9658POPC   C2B52736  42.876  27.394   6.755
 9658POPC   C3B52737  42.932  27.411   7.055
 9658POPC   C4B52738  42.891  27.439   7.355
 9659POPC   NC352739  43.846  44.623   5.555
 9659POPC   PO452740  43.840  44.676   5.855
 9659POPC   GL152741  43.931  44.642   6.155
 9659POPC   GL252742  43.994  44.693   6.155
 9659POPC   C1A52743  43.907  44.696   6.455
 9659POPC   D2A52744  43.930  44.640   6.755
 9659POPC   C3A52745  43.890  44.696   7.055
 9659POPC   C4A52746  43.851  44.632   7.355
 9659POPC   C1B52747  44.085  44.864   6.455
 9659POPC   C2B52748  44.041  44.842   6.755
 9659POPC   C3B52749  44.102  44.855   7.055
 9659POPC   C4B52750  44.065  44.846   7.355
 9660POPC   NC352751  17.538  22.157   5.555
 9660POPC   PO452752  17.478  22.192   5.855
 9660POPC   GL152753  17.524  22.151   6.155
 9660POPC   GL252754  17.358  22.144   6.155
 9660POPC   C1A52755  17.525  22.121   6.455
 9660POPC   D2A52756  17.516  22.122   6.755
 9660POPC   C3A52757  17.509  22.164   7.055
 9660POPC   C4A52758  17.460  22.133   7.355
 9660POPC   C1B52759  17.295  22.258   6.455
 9660POPC   C2B52760  17.253  22.250   6.755
 9660POPC   C3B52761  17.252  22.242   7.055
 9660POPC   C4B52762  17.271  22.178   7.355
 9661POPC   NC352763  41.514  15.973   5.555
 9661POPC   PO452764  41.606  15.923   5.855
 9661POPC   GL152765  41.538  15.962   6.155
 9661POPC   GL252766  41.680  16.006   6.155
 9661POPC   C1A52767  41.565  15.940   6.455
 9661POPC   D2A52768  41.516  16.002   6.755
 9661POPC   C3A52769  41.573  15.972   7.055
 9661POPC   C4A52770  41.598  15.918   7.355
 9661POPC   C1B52771  41.762  16.040   6.455
 9661POPC   C2B52772  41.784  16.028   6.755
 9661POPC   C3B52773  41.846  15.948   7.055
 9661POPC   C4B52774  41.806  16.005   7.355
 9662POPC   NC352775  19.850  43.061   5.555
 9662POPC   PO452776  19.833  43.130   5.855
 9662POPC   GL152777  19.867  43.104   6.155
 9662POPC   GL252778  19.803  43.202   6.155
 9662POPC   C1A52779  19.851  43.138   6.455
 9662POPC   D2A52780  19.797  43.108   6.755
 9662POPC   C3A52781  19.850  43.067   7.055
 9662POPC   C4A52782  19.823  43.149   7.355
 9662POPC   C1B52783  19.833  43.340   6.455
 9662POPC   C2B52784  19.770  43.383   6.755
 9662POPC   C3B52785  19.794  43.407   7.055
 9662POPC   C4B52786  19.770  43.400   7.355
 9663POPC   NC352787   0.471  18.298   5.555
 9663POPC   PO452788   0.391  18.246   5.855
 9663POPC   GL152789   0.467  18.260   6.155
 9663POPC   GL252790   0.335  18.162   6.155
 9663POPC   C1A52791   0.477  18.261   6.455
 9663POPC   D2A52792   0.409  18.302   6.755
 9663POPC   C3A52793   0.434  18.284   7.055
 9663POPC   C4A52794   0.465  18.282   7.355
 9663POPC   C1B52795   0.366  18.068   6.455
 9663POPC   C2B52796   0.284  18.109   6.755
 9663POPC   C3B52797   0.274  18.028   7.055
 9663POPC   C4B52798   0.294  18.041   7.355
 9664POPC   NC352799   5.919  24.498   5.555
 9664POPC   PO452800   5.827  24.453   5.855
 9664POPC   GL152801   5.896  24.493   6.155
 9664POPC   GL252802   5.824  24.594   6.155
 9664POPC   C1A52803   5.913  24.473   6.455
 9664POPC   D2A52804   5.833  24.494   6.755
 9664POPC   C3A52805   5.918  24.489   7.055
 9664POPC   C4A52806   5.838  24.491   7.355
 9664POPC   C1B52807   5.720  24.727   6.455
 9664POPC   C2B52808   5.774  24.769   6.755
 9664POPC   C3B52809   5.736  24.694   7.055
 9664POPC   C4B52810   5.774  24.683   7.355
 9665POPC   NC352811  27.548  43.115   5.555
 9665POPC   PO452812  27.580  43.074   5.855
 9665POPC   GL152813  27.571  43.133   6.155
 9665POPC   GL252814  27.644  42.977   6.155
 9665POPC   C1A52815  27.583  43.099   6.455
 9665POPC   D2A52816  27.557  43.071   6.755
 9665POPC   C3A52817  27.563  43.072   7.055
 9665POPC   C4A52818  27.603  43.067   7.355
 9665POPC   C1B52819  27.649  42.906   6.455
 9665POPC   C2B52820  27.654  42.889   6.755
 9665POPC   C3B52821  27.603  42.911   7.055
 9665POPC   C4B52822  27.610  42.907   7.355
 9666POPC   NC352823  39.265   5.839   5.555
 9666POPC   PO452824  39.188   5.833   5.855
 9666POPC   GL152825  39.226   5.846   6.155
 9666POPC   GL252826  39.367   5.799   6.155
 9666POPC   C1A52827  39.259   5.835   6.455
 9666POPC   D2A52828  39.201   5.841   6.755
 9666POPC   C3A52829  39.249   5.914   7.055
 9666POPC   C4A52830  39.252   5.823   7.355
 9666POPC   C1B52831  39.403   5.732   6.455
 9666POPC   C2B52832  39.403   5.703   6.755
 9666POPC   C3B52833  39.413   5.686   7.055
 9666POPC   C4B52834  39.448   5.756   7.355
 9667POPC   NC352835   3.554  17.552   5.555
 9667POPC   PO452836   3.574  17.467   5.855
 9667POPC   GL152837   3.586  17.476   6.155
 9667POPC   GL252838   3.608  17.549   6.155
 9667POPC   C1A52839   3.494  17.503   6.455
 9667POPC   D2A52840   3.505  17.473   6.755
 9667POPC   C3A52841   3.560  17.536   7.055
 9667POPC   C4A52842   3.520  17.478   7.355
 9667POPC   C1B52843   3.750  17.674   6.455
 9667POPC   C2B52844   3.739  17.616   6.755
 9667POPC   C3B52845   3.782  17.609   7.055
 9667POPC   C4B52846   3.748  17.622   7.355
 9668POPC   NC352847  36.151   8.224   5.555
 9668POPC   PO452848  36.099   8.172   5.855
 9668POPC   GL152849  36.098   8.164   6.155
 9668POPC   GL252850  36.007   8.250   6.155
 9668POPC   C1A52851  36.086   8.239   6.455
 9668POPC   D2A52852  36.164   8.221   6.755
 9668POPC   C3A52853  36.131   8.231   7.055
 9668POPC   C4A52854  36.172   8.166   7.355
 9668POPC   C1B52855  35.917   8.238   6.455
 9668POPC   C2B52856  35.910   8.312   6.755
 9668POPC   C3B52857  35.916   8.290   7.055
 9668POPC   C4B52858  35.875   8.232   7.355
 9669POPC   NC352859  39.250  20.563   5.555
 9669POPC   PO452860  39.211  20.620   5.855
 9669POPC   GL152861  39.263  20.613   6.155
 9669POPC   GL252862  39.115  20.512   6.155
 9669POPC   C1A52863  39.192  20.611   6.455
 9669POPC   D2A52864  39.186  20.584   6.755
 9669POPC   C3A52865  39.278  20.652   7.055
 9669POPC   C4A52866  39.278  20.607   7.355
 9669POPC   C1B52867  39.029  20.483   6.455
 9669POPC   C2B52868  39.014  20.403   6.755
 9669POPC   C3B52869  39.030  20.446   7.055
 9669POPC   C4B52870  39.068  20.448   7.355
 9670POPC   NC352871  37.673  20.564   5.555
 9670POPC   PO452872  37.718  20.635   5.855
 9670POPC   GL152873  37.660  20.590   6.155
 9670POPC   GL252874  37.630  20.554   6.155
 9670POPC   C1A52875  37.662  20.608   6.455
 9670POPC   D2A52876  37.632  20.596   6.755
 9670POPC   C3A52877  37.692  20.604   7.055
 9670POPC   C4A52878  37.714  20.575   7.355
 9670POPC   C1B52879  37.488  20.406   6.455
 9670POPC   C2B52880  37.555  20.458   6.755
 9670POPC   C3B52881  37.479  20.440   7.055
 9670POPC   C4B52882  37.527  20.368   7.355
 9671POPC   NC352883  12.028  34.542   5.555
 9671POPC   PO452884  12.107  34.562   5.855
 9671POPC   GL152885  12.095  34.564   6.155
 9671POPC   GL252886  12.061  34.427   6.155
 9671POPC   C1A52887  12.090  34.528   6.455
 9671POPC   D2A52888  12.104  34.624   6.755
 9671POPC   C3A52889  12.060  34.542   7.055
 9671POPC   C4A52890  12.048  34.544   7.355
 9671POPC   C1B52891  12.038  34.282   6.455
 9671POPC   C2B52892  12.061  34.304   6.755
 9671POPC   C3B52893  12.025  34.327   7.055
 9671POPC   C4B52894  12.040  34.375   7.355
 9672POPC   NC352895  44.655  23.670   5.555
 9672POPC   PO452896  44.708  23.687   5.855
 9672POPC   GL152897  44.624  23.682   6.155
 9672POPC   GL252898  44.519  23.634   6.155
 9672POPC   C1A52899  44.710  23.750   6.455
 9672POPC   D2A52900  44.654  23.681   6.755
 9672POPC   C3A52901  44.662  23.720   7.055
 9672POPC   C4A52902  44.612  23.733   7.355
 9672POPC   C1B52903  44.413  23.620   6.455
 9672POPC   C2B52904  44.476  23.560   6.755
 9672POPC   C3B52905  44.488  23.536   7.055
 9672POPC   C4B52906  44.406  23.603   7.355
 9673POPC   NC352907  33.821   7.374   5.555
 9673POPC   PO452908  33.762   7.439   5.855
 9673POPC   GL152909  33.835   7.456   6.155
 9673POPC   GL252910  33.938   7.506   6.155
 9673POPC   C1A52911  33.773   7.442   6.455
 9673POPC   D2A52912  33.796   7.376   6.755
 9673POPC   C3A52913  33.814   7.461   7.055
 9673POPC   C4A52914  33.807   7.461   7.355
 9673POPC   C1B52915  34.027   7.518   6.455
 9673POPC   C2B52916  34.062   7.544   6.755
 9673POPC   C3B52917  34.036   7.507   7.055
 9673POPC   C4B52918  33.989   7.533   7.355
 9674POPC   NC352919  32.238   1.254   5.555
 9674POPC   PO452920  32.279   1.166   5.855
 9674POPC   GL152921  32.287   1.230   6.155
 9674POPC   GL252922  32.223   1.324   6.155
 9674POPC   C1A52923  32.257   1.243   6.455
 9674POPC   D2A52924  32.204   1.203   6.755
 9674POPC   C3A52925  32.234   1.171   7.055
 9674POPC   C4A52926  32.265   1.204   7.355
 9674POPC   C1B52927  32.144   1.418   6.455
 9674POPC   C2B52928  32.090   1.418   6.755
 9674POPC   C3B52929  32.096   1.426   7.055
 9674POPC   C4B52930  32.182   1.436   7.355
 9675POPC   NC352931  29.182  22.952   5.555
 9675POPC   PO452932  29.151  22.978   5.855
 9675POPC   GL152933  29.189  22.941   6.155
 9675POPC   GL252934  29.131  22.854   6.155
 9675POPC   C1A52935  29.136  22.901   6.455
 9675POPC   D2A52936  29.194  22.920   6.755
 9675POPC   C3A52937  29.145  22.896   7.055
 9675POPC   C4A52938  29.152  22.982   7.355
 9675POPC   C1B52939  29.225  22.679   6.455
 9675POPC   C2B52940  29.173  22.647   6.755
 9675POPC   C3B52941  29.202  22.696   7.055
 9675POPC   C4B52942  29.188  22.661   7.355
 9676POPC   NC352943  37.649  22.171   5.555
 9676POPC   PO452944  37.674  22.184   5.855
 9676POPC   GL152945  37.691  22.146   6.155
 9676POPC   GL252946  37.678  22.248   6.155
 9676POPC   C1A52947  37.713  22.177   6.455
 9676POPC   D2A52948  37.657  22.156   6.755
 9676POPC   C3A52949  37.658  22.119   7.055
 9676POPC   C4A52950  37.711  22.133   7.355
 9676POPC   C1B52951  37.641  22.437   6.455
 9676POPC   C2B52952  37.626  22.356   6.755
 9676POPC   C3B52953  37.647  22.427   7.055
 9676POPC   C4B52954  37.666  22.453   7.355
 9677POPC   NC352955  16.761  26.782   5.555
 9677POPC   PO452956  16.779  26.784   5.855
 9677POPC   GL152957  16.767  26.807   6.155
 9677POPC   GL252958  16.873  26.873   6.155
 9677POPC   C1A52959  16.750  26.798   6.455
 9677POPC   D2A52960  16.737  26.798   6.755
 9677POPC   C3A52961  16.761  26.790   7.055
 9677POPC   C4A52962  16.686  26.842   7.355
 9677POPC   C1B52963  16.978  26.832   6.455
 9677POPC   C2B52964  16.936  26.881   6.755
 9677POPC   C3B52965  16.994  26.883   7.055
 9677POPC   C4B52966  16.968  26.872   7.355
 9678POPC   NC352967  41.530  27.616   5.555
 9678POPC   PO452968  41.522  27.626   5.855
 9678POPC   GL152969  41.609  27.608   6.155
 9678POPC   GL252970  41.538  27.462   6.155
 9678POPC   C1A52971  41.509  27.637   6.455
 9678POPC   D2A52972  41.521  27.594   6.755
 9678POPC   C3A52973  41.522  27.564   7.055
 9678POPC   C4A52974  41.530  27.567   7.355
 9678POPC   C1B52975  41.444  27.358   6.455
 9678POPC   C2B52976  41.507  27.364   6.755
 9678POPC   C3B52977  41.475  27.394   7.055
 9678POPC   C4B52978  41.531  27.372   7.355
 9679POPC   NC352979   5.871  10.527   5.555
 9679POPC   PO452980   5.895  10.497   5.855
 9679POPC   GL152981   5.896  10.559   6.155
 9679POPC   GL252982   5.784  10.645   6.155
 9679POPC   C1A52983   5.883  10.518   6.455
 9679POPC   D2A52984   5.844  10.552   6.755
 9679POPC   C3A52985   5.819  10.572   7.055
 9679POPC   C4A52986   5.894  10.498   7.355
 9679POPC   C1B52987   5.632  10.679   6.455
 9679POPC   C2B52988   5.691  10.728   6.755
 9679POPC   C3B52989   5.697  10.677   7.055
 9679POPC   C4B52990   5.636  10.673   7.355
 9680POPC   NC352991  20.619  26.831   5.555
 9680POPC   PO452992  20.644  26.859   5.855
 9680POPC   GL152993  20.588  26.823   6.155
 9680POPC   GL252994  20.733  26.862   6.155
 9680POPC   C1A52995  20.628  26.796   6.455
 9680POPC   D2A52996  20.654  26.852   6.755
 9680POPC   C3A52997  20.576  26.844   7.055
 9680POPC   C4A52998  20.566  26.864   7.355
 9680POPC   C1B52999  20.808  26.931   6.455
 9680POPC   C2B53000  20.837  26.895   6.755
 9680POPC   C3B53001  20.867  26.848   7.055
 9680POPC   C4B53002  20.829  26.930   7.355
 9681POPC   NC353003  31.511  39.958   5.555
 9681POPC   PO453004  31.496  39.966   5.855
 9681POPC   GL153005  31.463  40.043   6.155
 9681POPC   GL253006  31.424  39.891   6.155
 9681POPC   C1A53007  31.522  40.053   6.455
 9681POPC   D2A53008  31.492  39.975   6.755
 9681POPC   C3A53009  31.459  39.976   7.055
 9681POPC   C4A53010  31.522  40.031   7.355
 9681POPC   C1B53011  31.431  39.811   6.455
 9681POPC   C2B53012  31.409  39.732   6.755
 9681POPC   C3B53013  31.454  39.770   7.055
 9681POPC   C4B53014  31.428  39.793   7.355
 9682POPC   NC353015  34.586  33.009   5.555
 9682POPC   PO453016  34.596  33.064   5.855
 9682POPC   GL153017  34.568  33.018   6.155
 9682POPC   GL253018  34.607  33.190   6.155
 9682POPC   C1A53019  34.556  33.057   6.455
 9682POPC   D2A53020  34.620  33.011   6.755
 9682POPC   C3A53021  34.561  32.992   7.055
 9682POPC   C4A53022  34.568  33.065   7.355
 9682POPC   C1B53023  34.501  33.292   6.455
 9682POPC   C2B53024  34.571  33.269   6.755
 9682POPC   C3B53025  34.526  33.270   7.055
 9682POPC   C4B53026  34.502  33.299   7.355
 9683POPC   NC353027  12.876  11.317   5.555
 9683POPC   PO453028  12.872  11.275   5.855
 9683POPC   GL153029  12.885  11.322   6.155
 9683POPC   GL253030  12.762  11.221   6.155
 9683POPC   C1A53031  12.877  11.316   6.455
 9683POPC   D2A53032  12.877  11.289   6.755
 9683POPC   C3A53033  12.867  11.313   7.055
 9683POPC   C4A53034  12.871  11.291   7.355
 9683POPC   C1B53035  12.625  11.171   6.455
 9683POPC   C2B53036  12.615  11.163   6.755
 9683POPC   C3B53037  12.675  11.160   7.055
 9683POPC   C4B53038  12.588  11.226   7.355
 9684POPC   NC353039  11.315  12.050   5.555
 9684POPC   PO453040  11.270  12.080   5.855
 9684POPC   GL153041  11.268  12.086   6.155
 9684POPC   GL253042  11.215  12.115   6.155
 9684POPC   C1A53043  11.275  12.040   6.455
 9684POPC   D2A53044  11.316  12.104   6.755
 9684POPC   C3A53045  11.307  12.050   7.055
 9684POPC   C4A53046  11.251  12.059   7.355
 9684POPC   C1B53047  11.100  12.236   6.455
 9684POPC   C2B53048  11.099  12.286   6.755
 9684POPC   C3B53049  11.071  12.202   7.055
 9684POPC   C4B53050  11.113  12.205   7.355
 9685POPC   NC353051   6.673  13.601   5.555
 9685POPC   PO453052   6.615  13.595   5.855
 9685POPC   GL153053   6.602  13.579   6.155
 9685POPC   GL253054   6.689  13.480   6.155
 9685POPC   C1A53055   6.640  13.645   6.455
 9685POPC   D2A53056   6.599  13.647   6.755
 9685POPC   C3A53057   6.681  13.604   7.055
 9685POPC   C4A53058   6.681  13.667   7.355
 9685POPC   C1B53059   6.736  13.366   6.455
 9685POPC   C2B53060   6.760  13.453   6.755
 9685POPC   C3B53061   6.793  13.385   7.055
 9685POPC   C4B53062   6.807  13.398   7.355
 9686POPC   NC353063  32.272   8.942   5.555
 9686POPC   PO453064  32.290   9.006   5.855
 9686POPC   GL153065  32.230   8.975   6.155
 9686POPC   GL253066  32.092   8.976   6.155
 9686POPC   C1A53067  32.207   8.936   6.455
 9686POPC   D2A53068  32.227   8.934   6.755
 9686POPC   C3A53069  32.220   9.014   7.055
 9686POPC   C4A53070  32.285   8.932   7.355
 9686POPC   C1B53071  32.009   8.900   6.455
 9686POPC   C2B53072  31.960   8.864   6.755
 9686POPC   C3B53073  31.960   8.894   7.055
 9686POPC   C4B53074  31.975   8.913   7.355
 9687POPC   NC353075   0.462   1.217   5.555
 9687POPC   PO453076   0.459   1.196   5.855
 9687POPC   GL153077   0.488   1.248   6.155
 9687POPC   GL253078   0.366   1.337   6.155
 9687POPC   C1A53079   0.431   1.222   6.455
 9687POPC   D2A53080   0.454   1.202   6.755
 9687POPC   C3A53081   0.429   1.167   7.055
 9687POPC   C4A53082   0.446   1.177   7.355
 9687POPC   C1B53083   0.352   1.410   6.455
 9687POPC   C2B53084   0.336   1.482   6.755
 9687POPC   C3B53085   0.312   1.488   7.055
 9687POPC   C4B53086   0.305   1.401   7.355
 9688POPC   NC353087  19.878  27.566   5.555
 9688POPC   PO453088  19.857  27.560   5.855
 9688POPC   GL153089  19.831  27.611   6.155
 9688POPC   GL253090  19.710  27.580   6.155
 9688POPC   C1A53091  19.811  27.556   6.455
 9688POPC   D2A53092  19.826  27.618   6.755
 9688POPC   C3A53093  19.872  27.567   7.055
 9688POPC   C4A53094  19.801  27.608   7.355
 9688POPC   C1B53095  19.583  27.628   6.455
 9688POPC   C2B53096  19.600  27.580   6.755
 9688POPC   C3B53097  19.608  27.605   7.055
 9688POPC   C4B53098  19.559  27.631   7.355
 9689POPC   NC353099  14.375  33.051   5.555
 9689POPC   PO453100  14.369  33.001   5.855
 9689POPC   GL153101  14.452  33.057   6.155
 9689POPC   GL253102  14.338  32.980   6.155
 9689POPC   C1A53103  14.416  32.982   6.455
 9689POPC   D2A53104  14.427  33.010   6.755
 9689POPC   C3A53105  14.362  33.069   7.055
 9689POPC   C4A53106  14.364  32.976   7.355
 9689POPC   C1B53107  14.199  32.887   6.455
 9689POPC   C2B53108  14.196  32.887   6.755
 9689POPC   C3B53109  14.204  32.906   7.055
 9689POPC   C4B53110  14.171  32.920   7.355
 9690POPC   NC353111   2.749  17.554   5.555
 9690POPC   PO453112   2.805  17.549   5.855
 9690POPC   GL153113   2.752  17.498   6.155
 9690POPC   GL253114   2.844  17.463   6.155
 9690POPC   C1A53115   2.808  17.532   6.455
 9690POPC   D2A53116   2.719  17.460   6.755
 9690POPC   C3A53117   2.737  17.459   7.055
 9690POPC   C4A53118   2.757  17.516   7.355
 9690POPC   C1B53119   3.051  17.504   6.455
 9690POPC   C2B53120   3.065  17.563   6.755
 9690POPC   C3B53121   3.051  17.520   7.055
 9690POPC   C4B53122   2.984  17.494   7.355
 9691POPC   NC353123  33.024  40.750   5.555
 9691POPC   PO453124  32.992  40.808   5.855
 9691POPC   GL153125  32.984  40.760   6.155
 9691POPC   GL253126  33.177  40.822   6.155
 9691POPC   C1A53127  33.065  40.760   6.455
 9691POPC   D2A53128  33.064  40.743   6.755
 9691POPC   C3A53129  33.070  40.803   7.055
 9691POPC   C4A53130  33.029  40.762   7.355
 9691POPC   C1B53131  33.288  40.774   6.455
 9691POPC   C2B53132  33.278  40.768   6.755
 9691POPC   C3B53133  33.311  40.790   7.055
 9691POPC   C4B53134  33.297  40.809   7.355
 9692POPC   NC353135  35.389  22.932   5.555
 9692POPC   PO453136  35.400  22.929   5.855
 9692POPC   GL153137  35.331  22.903   6.155
 9692POPC   GL253138  35.420  22.864   6.155
 9692POPC   C1A53139  35.341  22.915   6.455
 9692POPC   D2A53140  35.387  22.939   6.755
 9692POPC   C3A53141  35.389  22.927   7.055
 9692POPC   C4A53142  35.319  22.888   7.355
 9692POPC   C1B53143  35.544  22.859   6.455
 9692POPC   C2B53144  35.602  22.822   6.755
 9692POPC   C3B53145  35.589  22.809   7.055
 9692POPC   C4B53146  35.581  22.804   7.355
 9693POPC   NC353147  28.404  23.668   5.555
 9693POPC   PO453148  28.394  23.675   5.855
 9693POPC   GL153149  28.347  23.741   6.155
 9693POPC   GL253150  28.428  23.659   6.155
 9693POPC   C1A53151  28.333  23.759   6.455
 9693POPC   D2A53152  28.362  23.682   6.755
 9693POPC   C3A53153  28.335  23.720   7.055
 9693POPC   C4A53154  28.359  23.735   7.355
 9693POPC   C1B53155  28.521  23.483   6.455
 9693POPC   C2B53156  28.527  23.548   6.755
 9693POPC   C3B53157  28.567  23.579   7.055
 9693POPC   C4B53158  28.539  23.524   7.355
 9694POPC   NC353159   5.858  16.691   5.555
 9694POPC   PO453160   5.864  16.693   5.855
 9694POPC   GL153161   5.877  16.714   6.155
 9694POPC   GL253162   5.825  16.577   6.155
 9694POPC   C1A53163   5.881  16.766   6.455
 9694POPC   D2A53164   5.887  16.743   6.755
 9694POPC   C3A53165   5.905  16.716   7.055
 9694POPC   C4A53166   5.839  16.690   7.355
 9694POPC   C1B53167   5.822  16.482   6.455
 9694POPC   C2B53168   5.820  16.467   6.755
 9694POPC   C3B53169   5.831  16.434   7.055
 9694POPC   C4B53170   5.832  16.501   7.355
 9695POPC   NC353171  33.016  35.370   5.555
 9695POPC   PO453172  33.017  35.324   5.855
 9695POPC   GL153173  32.990  35.383   6.155
 9695POPC   GL253174  33.114  35.481   6.155
 9695POPC   C1A53175  33.065  35.378   6.455
 9695POPC   D2A53176  33.003  35.380   6.755
 9695POPC   C3A53177  33.029  35.371   7.055
 9695POPC   C4A53178  33.015  35.395   7.355
 9695POPC   C1B53179  33.154  35.546   6.455
 9695POPC   C2B53180  33.186  35.607   6.755
 9695POPC   C3B53181  33.127  35.523   7.055
 9695POPC   C4B53182  33.165  35.581   7.355
 9696POPC   NC353183   9.021   6.625   5.555
 9696POPC   PO453184   8.957   6.665   5.855
 9696POPC   GL153185   8.930   6.601   6.155
 9696POPC   GL253186   9.142   6.673   6.155
 9696POPC   C1A53187   8.936   6.597   6.455
 9696POPC   D2A53188   8.957   6.626   6.755
 9696POPC   C3A53189   8.934   6.693   7.055
 9696POPC   C4A53190   8.962   6.653   7.355
 9696POPC   C1B53191   9.186   6.677   6.455
 9696POPC   C2B53192   9.250   6.634   6.755
 9696POPC   C3B53193   9.198   6.632   7.055
 9696POPC   C4B53194   9.223   6.672   7.355
 9697POPC   NC353195  24.524  30.669   5.555
 9697POPC   PO453196  24.490  30.665   5.855
 9697POPC   GL153197  24.469  30.656   6.155
 9697POPC   GL253198  24.486  30.866   6.155
 9697POPC   C1A53199  24.490  30.733   6.455
 9697POPC   D2A53200  24.485  30.647   6.755
 9697POPC   C3A53201  24.526  30.659   7.055
 9697POPC   C4A53202  24.534  30.725   7.355
 9697POPC   C1B53203  24.395  30.970   6.455
 9697POPC   C2B53204  24.403  30.947   6.755
 9697POPC   C3B53205  24.412  30.970   7.055
 9697POPC   C4B53206  24.480  30.902   7.355
 9698POPC   NC353207  28.344  19.789   5.555
 9698POPC   PO453208  28.410  19.821   5.855
 9698POPC   GL153209  28.339  19.842   6.155
 9698POPC   GL253210  28.454  19.917   6.155
 9698POPC   C1A53211  28.395  19.795   6.455
 9698POPC   D2A53212  28.332  19.812   6.755
 9698POPC   C3A53213  28.379  19.873   7.055
 9698POPC   C4A53214  28.362  19.824   7.355
 9698POPC   C1B53215  28.646  19.903   6.455
 9698POPC   C2B53216  28.557  19.895   6.755
 9698POPC   C3B53217  28.587  19.930   7.055
 9698POPC   C4B53218  28.629  19.924   7.355
 9699POPC   NC353219  26.793  14.419   5.555
 9699POPC   PO453220  26.851  14.400   5.855
 9699POPC   GL153221  26.767  14.369   6.155
 9699POPC   GL253222  26.727  14.292   6.155
 9699POPC   C1A53223  26.795  14.438   6.455
 9699POPC   D2A53224  26.841  14.363   6.755
 9699POPC   C3A53225  26.830  14.408   7.055
 9699POPC   C4A53226  26.817  14.378   7.355
 9699POPC   C1B53227  26.668  14.219   6.455
 9699POPC   C2B53228  26.698  14.257   6.755
 9699POPC   C3B53229  26.647  14.244   7.055
 9699POPC   C4B53230  26.621  14.261   7.355
 9700POPC   NC353231  42.347  22.977   5.555
 9700POPC   PO453232  42.372  22.970   5.855
 9700POPC   GL153233  42.372  22.948   6.155
 9700POPC   GL253234  42.210  23.006   6.155
 9700POPC   C1A53235  42.298  22.952   6.455
 9700POPC   D2A53236  42.316  22.950   6.755
 9700POPC   C3A53237  42.333  22.956   7.055
 9700POPC   C4A53238  42.384  22.914   7.355
 9700POPC   C1B53239  42.085  23.033   6.455
 9700POPC   C2B53240  42.123  22.966   6.755
 9700POPC   C3B53241  42.126  22.982   7.055
 9700POPC   C4B53242  42.116  22.958   7.355
 9701POPC   NC353243   5.044   1.247   5.555
 9701POPC   PO453244   5.106   1.258   5.855
 9701POPC   GL153245   5.065   1.202   6.155
 9701POPC   GL253246   4.941   1.241   6.155
 9701POPC   C1A53247   5.073   1.217   6.455
 9701POPC   D2A53248   5.063   1.244   6.755
 9701POPC   C3A53249   5.050   1.179   7.055
 9701POPC   C4A53250   5.064   1.196   7.355
 9701POPC   C1B53251   4.857   1.190   6.455
 9701POPC   C2B53252   4.874   1.137   6.755
 9701POPC   C3B53253   4.885   1.194   7.055
 9701POPC   C4B53254   4.887   1.150   7.355
 9702POPC   NC353255  43.912  28.415   5.555
 9702POPC   PO453256  43.850  28.362   5.855
 9702POPC   GL153257  43.836  28.345   6.155
 9702POPC   GL253258  43.781  28.427   6.155
 9702POPC   C1A53259  43.868  28.369   6.455
 9702POPC   D2A53260  43.892  28.382   6.755
 9702POPC   C3A53261  43.916  28.378   7.055
 9702POPC   C4A53262  43.904  28.406   7.355
 9702POPC   C1B53263  43.724  28.580   6.455
 9702POPC   C2B53264  43.692  28.592   6.755
 9702POPC   C3B53265  43.743  28.547   7.055
 9702POPC   C4B53266  43.688  28.588   7.355
 9703POPC   NC353267  40.744   4.291   5.555
 9703POPC   PO453268  40.812   4.295   5.855
 9703POPC   GL153269  40.741   4.360   6.155
 9703POPC   GL253270  40.814   4.238   6.155
 9703POPC   C1A53271  40.766   4.360   6.455
 9703POPC   D2A53272  40.828   4.355   6.755
 9703POPC   C3A53273  40.762   4.290   7.055
 9703POPC   C4A53274  40.818   4.306   7.355
 9703POPC   C1B53275  40.714   4.019   6.455
 9703POPC   C2B53276  40.780   4.053   6.755
 9703POPC   C3B53277  40.762   4.077   7.055
 9703POPC   C4B53278  40.813   4.050   7.355
 9704POPC   NC353279  29.927   8.985   5.555
 9704POPC   PO453280  29.934   8.985   5.855
 9704POPC   GL153281  29.891   8.944   6.155
 9704POPC   GL253282  29.960   8.897   6.155
 9704POPC   C1A53283  29.893   8.939   6.455
 9704POPC   D2A53284  29.901   8.990   6.755
 9704POPC   C3A53285  29.970   8.952   7.055
 9704POPC   C4A53286  29.953   8.974   7.355
 9704POPC   C1B53287  30.030   8.780   6.455
 9704POPC   C2B53288  30.028   8.766   6.755
 9704POPC   C3B53289  30.045   8.688   7.055
 9704POPC   C4B53290  30.035   8.765   7.355
 9705POPC   NC353291   1.233   2.778   5.555
 9705POPC   PO453292   1.178   2.747   5.855
 9705POPC   GL153293   1.186   2.778   6.155
 9705POPC   GL253294   1.200   2.692   6.155
 9705POPC   C1A53295   1.218   2.801   6.455
 9705POPC   D2A53296   1.170   2.770   6.755
 9705POPC   C3A53297   1.207   2.799   7.055
 9705POPC   C4A53298   1.219   2.795   7.355
 9705POPC   C1B53299   1.085   2.498   6.455
 9705POPC   C2B53300   1.150   2.502   6.755
 9705POPC   C3B53301   1.071   2.520   7.055
 9705POPC   C4B53302   1.117   2.539   7.355
 9706POPC   NC353303  22.907  24.537   5.555
 9706POPC   PO453304  22.933  24.519   5.855
 9706POPC   GL153305  22.950  24.442   6.155
 9706POPC   GL253306  22.883  24.386   6.155
 9706POPC   C1A53307  22.968  24.502   6.455
 9706POPC   D2A53308  22.970  24.469   6.755
 9706POPC   C3A53309  22.966  24.442   7.055
 9706POPC   C4A53310  22.945  24.532   7.355
 9706POPC   C1B53311  22.904  24.220   6.455
 9706POPC   C2B53312  22.880  24.204   6.755
 9706POPC   C3B53313  22.946  24.223   7.055
 9706POPC   C4B53314  22.871  24.261   7.355
 9707POPC   NC353315   6.668  26.011   5.555
 9707POPC   PO453316   6.639  26.065   5.855
 9707POPC   GL153317   6.653  26.037   6.155
 9707POPC   GL253318   6.552  26.131   6.155
 9707POPC   C1A53319   6.690  26.062   6.455
 9707POPC   D2A53320   6.657  26.009   6.755
 9707POPC   C3A53321   6.633  26.070   7.055
 9707POPC   C4A53322   6.681  26.045   7.355
 9707POPC   C1B53323   6.454  26.218   6.455
 9707POPC   C2B53324   6.382  26.176   6.755
 9707POPC   C3B53325   6.452  26.216   7.055
 9707POPC   C4B53326   6.432  26.219   7.355
 9708POPC   NC353327  44.627   6.633   5.555
 9708POPC   PO453328  44.636   6.604   5.855
 9708POPC   GL153329  44.686   6.644   6.155
 9708POPC   GL253330  44.773   6.652   6.155
 9708POPC   C1A53331  44.641   6.652   6.455
 9708POPC   D2A53332  44.616   6.680   6.755
 9708POPC   C3A53333  44.666   6.676   7.055
 9708POPC   C4A53334  44.650   6.604   7.355
 9708POPC   C1B53335  44.926   6.598   6.455
 9708POPC   C2B53336  44.946   6.653   6.755
 9708POPC   C3B53337  44.875   6.615   7.055
 9708POPC   C4B53338  44.875   6.644   7.355
 9709POPC   NC353339  30.736  10.562   5.555
 9709POPC   PO453340  30.730  10.507   5.855
 9709POPC   GL153341  30.712  10.554   6.155
 9709POPC   GL253342  30.796  10.461   6.155
 9709POPC   C1A53343  30.737  10.481   6.455
 9709POPC   D2A53344  30.664  10.528   6.755
 9709POPC   C3A53345  30.737  10.556   7.055
 9709POPC   C4A53346  30.664  10.486   7.355
 9709POPC   C1B53347  30.946  10.463   6.455
 9709POPC   C2B53348  30.883  10.457   6.755
 9709POPC   C3B53349  30.945  10.382   7.055
 9709POPC   C4B53350  30.937  10.375   7.355
 9710POPC   NC353351  40.030  19.842   5.555
 9710POPC   PO453352  39.988  19.872   5.855
 9710POPC   GL153353  39.994  19.876   6.155
 9710POPC   GL253354  40.006  19.996   6.155
 9710POPC   C1A53355  40.048  19.810   6.455
 9710POPC   D2A53356  40.053  19.820   6.755
 9710POPC   C3A53357  40.031  19.851   7.055
 9710POPC   C4A53358  40.047  19.867   7.355
 9710POPC   C1B53359  39.971  20.050   6.455
 9710POPC   C2B53360  40.021  20.120   6.755
 9710POPC   C3B53361  40.019  20.075   7.055
 9710POPC   C4B53362  39.995  20.053   7.355
 9711POPC   NC353363  27.550  24.452   5.555
 9711POPC   PO453364  27.590  24.538   5.855
 9711POPC   GL153365  27.548  24.499   6.155
 9711POPC   GL253366  27.456  24.477   6.155
 9711POPC   C1A53367  27.595  24.539   6.455
 9711POPC   D2A53368  27.591  24.509   6.755
 9711POPC   C3A53369  27.630  24.509   7.055
 9711POPC   C4A53370  27.603  24.472   7.355
 9711POPC   C1B53371  27.336  24.395   6.455
 9711POPC   C2B53372  27.339  24.378   6.755
 9711POPC   C3B53373  27.399  24.384   7.055
 9711POPC   C4B53374  27.337  24.394   7.355
 9712POPC   NC353375   9.787  36.086   5.555
 9712POPC   PO453376   9.728  36.083   5.855
 9712POPC   GL153377   9.774  36.102   6.155
 9712POPC   GL253378   9.688  35.984   6.155
 9712POPC   C1A53379   9.742  36.162   6.455
 9712POPC   D2A53380   9.759  36.153   6.755
 9712POPC   C3A53381   9.787  36.170   7.055
 9712POPC   C4A53382   9.789  36.164   7.355
 9712POPC   C1B53383   9.743  35.917   6.455
 9712POPC   C2B53384   9.723  35.901   6.755
 9712POPC   C3B53385   9.720  35.834   7.055
 9712POPC   C4B53386   9.724  35.926   7.355
 9713POPC   NC353387  33.806  19.785   5.555
 9713POPC   PO453388  33.759  19.819   5.855
 9713POPC   GL153389  33.832  19.845   6.155
 9713POPC   GL253390  33.714  19.830   6.155
 9713POPC   C1A53391  33.790  19.859   6.455
 9713POPC   D2A53392  33.798  19.823   6.755
 9713POPC   C3A53393  33.802  19.789   7.055
 9713POPC   C4A53394  33.786  19.854   7.355
 9713POPC   C1B53395  33.540  19.790   6.455
 9713POPC   C2B53396  33.534  19.736   6.755
 9713POPC   C3B53397  33.518  19.785   7.055
 9713POPC   C4B53398  33.581  19.808   7.355
 9714POPC   NC353399  43.884   8.155   5.555
 9714POPC   PO453400  43.932   8.148   5.855
 9714POPC   GL153401  43.884   8.201   6.155
 9714POPC   GL253402  44.028   8.279   6.155
 9714POPC   C1A53403  43.907   8.240   6.455
 9714POPC   D2A53404  43.883   8.158   6.755
 9714POPC   C3A53405  43.929   8.162   7.055
 9714POPC   C4A53406  43.909   8.228   7.355
 9714POPC   C1B53407  44.078   8.244   6.455
 9714POPC   C2B53408  44.072   8.241   6.755
 9714POPC   C3B53409  44.120   8.266   7.055
 9714POPC   C4B53410  44.119   8.241   7.355
 9715POPC   NC353411  40.040  36.165   5.555
 9715POPC   PO453412  39.958  36.162   5.855
 9715POPC   GL153413  40.044  36.101   6.155
 9715POPC   GL253414  39.932  36.234   6.155
 9715POPC   C1A53415  40.034  36.117   6.455
 9715POPC   D2A53416  40.017  36.121   6.755
 9715POPC   C3A53417  39.967  36.108   7.055
 9715POPC   C4A53418  40.003  36.172   7.355
 9715POPC   C1B53419  39.883  36.294   6.455
 9715POPC   C2B53420  39.855  36.268   6.755
 9715POPC   C3B53421  39.862  36.339   7.055
 9715POPC   C4B53422  39.824  36.327   7.355
 9716POPC   NC353423  13.653  36.084   5.555
 9716POPC   PO453424  13.596  36.129   5.855
 9716POPC   GL153425  13.610  36.097   6.155
 9716POPC   GL253426  13.764  36.245   6.155
 9716POPC   C1A53427  13.661  36.110   6.455
 9716POPC   D2A53428  13.620  36.100   6.755
 9716POPC   C3A53429  13.591  36.133   7.055
 9716POPC   C4A53430  13.628  36.145   7.355
 9716POPC   C1B53431  13.793  36.301   6.455
 9716POPC   C2B53432  13.781  36.261   6.755
 9716POPC   C3B53433  13.814  36.326   7.055
 9716POPC   C4B53434  13.832  36.311   7.355
 9717POPC   NC353435  29.146   1.219   5.555
 9717POPC   PO453436  29.169   1.207   5.855
 9717POPC   GL153437  29.126   1.215   6.155
 9717POPC   GL253438  29.151   1.327   6.155
 9717POPC   C1A53439  29.193   1.244   6.455
 9717POPC   D2A53440  29.143   1.231   6.755
 9717POPC   C3A53441  29.193   1.243   7.055
 9717POPC   C4A53442  29.151   1.178   7.355
 9717POPC   C1B53443  29.080   1.470   6.455
 9717POPC   C2B53444  29.120   1.438   6.755
 9717POPC   C3B53445  29.060   1.454   7.055
 9717POPC   C4B53446  29.063   1.505   7.355
 9718POPC   NC353447  20.562  15.953   5.555
 9718POPC   PO453448  20.628  15.977   5.855
 9718POPC   GL153449  20.574  15.970   6.155
 9718POPC   GL253450  20.456  16.054   6.155
 9718POPC   C1A53451  20.620  15.969   6.455
 9718POPC   D2A53452  20.652  15.923   6.755
 9718POPC   C3A53453  20.578  15.960   7.055
 9718POPC   C4A53454  20.571  15.941   7.355
 9718POPC   C1B53455  20.378  16.059   6.455
 9718POPC   C2B53456  20.333  16.053   6.755
 9718POPC   C3B53457  20.410  16.051   7.055
 9718POPC   C4B53458  20.426  16.104   7.355
 9719POPC   NC353459  25.268  25.308   5.555
 9719POPC   PO453460  25.236  25.300   5.855
 9719POPC   GL153461  25.275  25.219   6.155
 9719POPC   GL253462  25.340  25.224   6.155
 9719POPC   C1A53463  25.304  25.278   6.455
 9719POPC   D2A53464  25.275  25.247   6.755
 9719POPC   C3A53465  25.305  25.249   7.055
 9719POPC   C4A53466  25.275  25.283   7.355
 9719POPC   C1B53467  25.461  25.259   6.455
 9719POPC   C2B53468  25.522  25.234   6.755
 9719POPC   C3B53469  25.511  25.264   7.055
 9719POPC   C4B53470  25.523  25.173   7.355
 9720POPC   NC353471   7.398  10.558   5.555
 9720POPC   PO453472   7.395  10.509   5.855
 9720POPC   GL153473   7.391  10.479   6.155
 9720POPC   GL253474   7.443  10.436   6.155
 9720POPC   C1A53475   7.435  10.519   6.455
 9720POPC   D2A53476   7.470  10.495   6.755
 9720POPC   C3A53477   7.379  10.545   7.055
 9720POPC   C4A53478   7.399  10.531   7.355
 9720POPC   C1B53479   7.428  10.275   6.455
 9720POPC   C2B53480   7.417  10.243   6.755
 9720POPC   C3B53481   7.459  10.291   7.055
 9720POPC   C4B53482   7.463  10.238   7.355
 9721POPC   NC353483  19.792  25.218   5.555
 9721POPC   PO453484  19.809  25.243   5.855
 9721POPC   GL153485  19.857  25.294   6.155
 9721POPC   GL253486  19.778  25.117   6.155
 9721POPC   C1A53487  19.790  25.233   6.455
 9721POPC   D2A53488  19.834  25.225   6.755
 9721POPC   C3A53489  19.819  25.233   7.055
 9721POPC   C4A53490  19.857  25.227   7.355
 9721POPC   C1B53491  19.688  25.095   6.455
 9721POPC   C2B53492  19.703  25.098   6.755
 9721POPC   C3B53493  19.736  25.013   7.055
 9721POPC   C4B53494  19.708  25.023   7.355
 9722POPC   NC353495  18.250  39.250   5.555
 9722POPC   PO453496  18.323  39.225   5.855
 9722POPC   GL153497  18.290  39.213   6.155
 9722POPC   GL253498  18.302  39.090   6.155
 9722POPC   C1A53499  18.296  39.265   6.455
 9722POPC   D2A53500  18.318  39.229   6.755
 9722POPC   C3A53501  18.250  39.234   7.055
 9722POPC   C4A53502  18.333  39.186   7.355
 9722POPC   C1B53503  18.210  39.021   6.455
 9722POPC   C2B53504  18.282  38.967   6.755
 9722POPC   C3B53505  18.232  38.979   7.055
 9722POPC   C4B53506  18.219  38.961   7.355
 9723POPC   NC353507  14.362  36.872   5.555
 9723POPC   PO453508  14.446  36.910   5.855
 9723POPC   GL153509  14.398  36.915   6.155
 9723POPC   GL253510  14.437  37.016   6.155
 9723POPC   C1A53511  14.431  36.886   6.455
 9723POPC   D2A53512  14.449  36.920   6.755
 9723POPC   C3A53513  14.365  36.944   7.055
 9723POPC   C4A53514  14.356  36.886   7.355
 9723POPC   C1B53515  14.414  37.188   6.455
 9723POPC   C2B53516  14.423  37.125   6.755
 9723POPC   C3B53517  14.419  37.192   7.055
 9723POPC   C4B53518  14.470  37.123   7.355
 9724POPC   NC353519  15.928  11.335   5.555
 9724POPC   PO453520  15.956  11.340   5.855
 9724POPC   GL153521  15.960  11.268   6.155
 9724POPC   GL253522  16.053  11.408   6.155
 9724POPC   C1A53523  15.919  11.345   6.455
 9724POPC   D2A53524  15.913  11.320   6.755
 9724POPC   C3A53525  15.911  11.273   7.055
 9724POPC   C4A53526  15.929  11.305   7.355
 9724POPC   C1B53527  16.093  11.501   6.455
 9724POPC   C2B53528  16.081  11.530   6.755
 9724POPC   C3B53529  16.076  11.524   7.055
 9724POPC   C4B53530  16.125  11.510   7.355
 9725POPC   NC353531   8.243  44.673   5.555
 9725POPC   PO453532   8.223  44.639   5.855
 9725POPC   GL153533   8.223  44.679   6.155
 9725POPC   GL253534   8.356  44.708   6.155
 9725POPC   C1A53535   8.240  44.698   6.455
 9725POPC   D2A53536   8.159  44.638   6.755
 9725POPC   C3A53537   8.212  44.683   7.055
 9725POPC   C4A53538   8.215  44.650   7.355
 9725POPC   C1B53539   8.422  44.737   6.455
 9725POPC   C2B53540   8.488  44.673   6.755
 9725POPC   C3B53541   8.400  44.716   7.055
 9725POPC   C4B53542   8.453  44.664   7.355
 9726POPC   NC353543   9.748  41.540   5.555
 9726POPC   PO453544   9.752  41.514   5.855
 9726POPC   GL153545   9.704  41.533   6.155
 9726POPC   GL253546   9.615  41.644   6.155
 9726POPC   C1A53547   9.704  41.512   6.455
 9726POPC   D2A53548   9.729  41.549   6.755
 9726POPC   C3A53549   9.753  41.578   7.055
 9726POPC   C4A53550   9.718  41.608   7.355
 9726POPC   C1B53551   9.540  41.700   6.455
 9726POPC   C2B53552   9.488  41.642   6.755
 9726POPC   C3B53553   9.570  41.728   7.055
 9726POPC   C4B53554   9.507  41.672   7.355
 9727POPC   NC353555  14.400  29.890   5.555
 9727POPC   PO453556  14.362  29.880   5.855
 9727POPC   GL153557  14.424  29.941   6.155
 9727POPC   GL253558  14.519  29.813   6.155
 9727POPC   C1A53559  14.390  29.894   6.455
 9727POPC   D2A53560  14.395  29.878   6.755
 9727POPC   C3A53561  14.361  29.952   7.055
 9727POPC   C4A53562  14.449  29.958   7.355
 9727POPC   C1B53563  14.530  29.728   6.455
 9727POPC   C2B53564  14.561  29.774   6.755
 9727POPC   C3B53565  14.607  29.738   7.055
 9727POPC   C4B53566  14.537  29.705   7.355
 9728POPC   NC353567  27.611  25.237   5.555
 9728POPC   PO453568  27.573  25.241   5.855
 9728POPC   GL153569  27.637  25.252   6.155
 9728POPC   GL253570  27.684  25.174   6.155
 9728POPC   C1A53571  27.544  25.305   6.455
 9728POPC   D2A53572  27.548  25.282   6.755
 9728POPC   C3A53573  27.600  25.265   7.055
 9728POPC   C4A53574  27.642  25.303   7.355
 9728POPC   C1B53575  27.689  24.987   6.455
 9728POPC   C2B53576  27.693  25.004   6.755
 9728POPC   C3B53577  27.626  25.060   7.055
 9728POPC   C4B53578  27.640  25.072   7.355
 9729POPC   NC353579  12.833  15.922   5.555
 9729POPC   PO453580  12.871  15.910   5.855
 9729POPC   GL153581  12.814  15.965   6.155
 9729POPC   GL253582  12.894  15.822   6.155
 9729POPC   C1A53583  12.889  15.909   6.455
 9729POPC   D2A53584  12.888  15.967   6.755
 9729POPC   C3A53585  12.862  15.945   7.055
 9729POPC   C4A53586  12.828  15.908   7.355
 9729POPC   C1B53587  12.883  15.728   6.455
 9729POPC   C2B53588  12.854  15.733   6.755
 9729POPC   C3B53589  12.834  15.670   7.055
 9729POPC   C4B53590  12.895  15.694   7.355
 9730POPC   NC353591  15.140  39.223   5.555
 9730POPC   PO453592  15.216  39.245   5.855
 9730POPC   GL153593  15.167  39.242   6.155
 9730POPC   GL253594  15.086  39.323   6.155
 9730POPC   C1A53595  15.207  39.222   6.455
 9730POPC   D2A53596  15.209  39.214   6.755
 9730POPC   C3A53597  15.214  39.243   7.055
 9730POPC   C4A53598  15.206  39.195   7.355
 9730POPC   C1B53599  14.965  39.368   6.455
 9730POPC   C2B53600  14.977  39.374   6.755
 9730POPC   C3B53601  14.966  39.367   7.055
 9730POPC   C4B53602  14.996  39.351   7.355
 9731POPC   NC353603  32.219  10.490   5.555
 9731POPC   PO453604  32.251  10.535   5.855
 9731POPC   GL153605  32.286  10.554   6.155
 9731POPC   GL253606  32.294  10.641   6.155
 9731POPC   C1A53607  32.225  10.489   6.455
 9731POPC   D2A53608  32.262  10.480   6.755
 9731POPC   C3A53609  32.272  10.508   7.055
 9731POPC   C4A53610  32.231  10.497   7.355
 9731POPC   C1B53611  32.396  10.778   6.455
 9731POPC   C2B53612  32.409  10.726   6.755
 9731POPC   C3B53613  32.358  10.764   7.055
 9731POPC   C4B53614  32.379  10.723   7.355
 9732POPC   NC353615  18.316  29.923   5.555
 9732POPC   PO453616  18.320  29.963   5.855
 9732POPC   GL153617  18.266  29.953   6.155
 9732POPC   GL253618  18.291  29.851   6.155
 9732POPC   C1A53619  18.313  29.912   6.455
 9732POPC   D2A53620  18.296  29.967   6.755
 9732POPC   C3A53621  18.322  29.942   7.055
 9732POPC   C4A53622  18.303  29.874   7.355
 9732POPC   C1B53623  18.370  29.667   6.455
 9732POPC   C2B53624  18.331  29.657   6.755
 9732POPC   C3B53625  18.412  29.654   7.055
 9732POPC   C4B53626  18.330  29.661   7.355
 9733POPC   NC353627  28.408  28.373   5.555
 9733POPC   PO453628  28.366  28.338   5.855
 9733POPC   GL153629  28.377  28.336   6.155
 9733POPC   GL253630  28.285  28.474   6.155
 9733POPC   C1A53631  28.367  28.388   6.455
 9733POPC   D2A53632  28.365  28.346   6.755
 9733POPC   C3A53633  28.373  28.406   7.055
 9733POPC   C4A53634  28.399  28.352   7.355
 9733POPC   C1B53635  28.186  28.528   6.455
 9733POPC   C2B53636  28.119  28.490   6.755
 9733POPC   C3B53637  28.144  28.453   7.055
 9733POPC   C4B53638  28.113  28.518   7.355
 9734POPC   NC353639  13.601  26.048   5.555
 9734POPC   PO453640  13.643  26.026   5.855
 9734POPC   GL153641  13.666  26.018   6.155
 9734POPC   GL253642  13.594  26.178   6.155
 9734POPC   C1A53643  13.667  26.091   6.455
 9734POPC   D2A53644  13.590  26.044   6.755
 9734POPC   C3A53645  13.598  26.073   7.055
 9734POPC   C4A53646  13.618  26.049   7.355
 9734POPC   C1B53647  13.437  26.248   6.455
 9734POPC   C2B53648  13.442  26.273   6.755
 9734POPC   C3B53649  13.488  26.273   7.055
 9734POPC   C4B53650  13.508  26.248   7.355
 9735POPC   NC353651  38.500  33.767   5.555
 9735POPC   PO453652  38.457  33.822   5.855
 9735POPC   GL153653  38.489  33.757   6.155
 9735POPC   GL253654  38.438  33.711   6.155
 9735POPC   C1A53655  38.474  33.815   6.455
 9735POPC   D2A53656  38.433  33.755   6.755
 9735POPC   C3A53657  38.413  33.787   7.055
 9735POPC   C4A53658  38.413  33.767   7.355
 9735POPC   C1B53659  38.414  33.563   6.455
 9735POPC   C2B53660  38.443  33.531   6.755
 9735POPC   C3B53661  38.393  33.520   7.055
 9735POPC   C4B53662  38.444  33.531   7.355
 9736POPC   NC353663  14.388  40.795   5.555
 9736POPC   PO453664  14.359  40.796   5.855
 9736POPC   GL153665  14.364  40.802   6.155
 9736POPC   GL253666  14.476  40.814   6.155
 9736POPC   C1A53667  14.432  40.751   6.455
 9736POPC   D2A53668  14.361  40.823   6.755
 9736POPC   C3A53669  14.376  40.764   7.055
 9736POPC   C4A53670  14.355  40.782   7.355
 9736POPC   C1B53671  14.592  40.876   6.455
 9736POPC   C2B53672  14.642  40.919   6.755
 9736POPC   C3B53673  14.568  40.933   7.055
 9736POPC   C4B53674  14.568  40.935   7.355
 9737POPC   NC353675   8.953  12.860   5.555
 9737POPC   PO453676   8.952  12.815   5.855
 9737POPC   GL153677   8.960  12.879   6.155
 9737POPC   GL253678   9.069  12.788   6.155
 9737POPC   C1A53679   8.928  12.888   6.455
 9737POPC   D2A53680   8.936  12.861   6.755
 9737POPC   C3A53681   9.008  12.860   7.055
 9737POPC   C4A53682   8.984  12.897   7.355
 9737POPC   C1B53683   9.260  12.750   6.455
 9737POPC   C2B53684   9.260  12.774   6.755
 9737POPC   C3B53685   9.232  12.819   7.055
 9737POPC   C4B53686   9.201  12.807   7.355
 9738POPC   NC353687  10.506  35.386   5.555
 9738POPC   PO453688  10.500  35.322   5.855
 9738POPC   GL153689  10.536  35.323   6.155
 9738POPC   GL253690  10.417  35.403   6.155
 9738POPC   C1A53691  10.518  35.398   6.455
 9738POPC   D2A53692  10.522  35.340   6.755
 9738POPC   C3A53693  10.574  35.385   7.055
 9738POPC   C4A53694  10.486  35.390   7.355
 9738POPC   C1B53695  10.240  35.385   6.455
 9738POPC   C2B53696  10.255  35.424   6.755
 9738POPC   C3B53697  10.240  35.453   7.055
 9738POPC   C4B53698  10.263  35.440   7.355
 9739POPC   NC353699  12.062  17.472   5.555
 9739POPC   PO453700  12.054  17.512   5.855
 9739POPC   GL153701  12.097  17.484   6.155
 9739POPC   GL253702  12.157  17.492   6.155
 9739POPC   C1A53703  12.099  17.471   6.455
 9739POPC   D2A53704  12.064  17.459   6.755
 9739POPC   C3A53705  12.081  17.465   7.055
 9739POPC   C4A53706  12.086  17.522   7.355
 9739POPC   C1B53707  12.313  17.460   6.455
 9739POPC   C2B53708  12.345  17.479   6.755
 9739POPC   C3B53709  12.308  17.450   7.055
 9739POPC   C4B53710  12.329  17.494   7.355
 9740POPC   NC353711  33.071  20.640   5.555
 9740POPC   PO453712  33.029  20.647   5.855
 9740POPC   GL153713  33.050  20.634   6.155
 9740POPC   GL253714  33.114  20.583   6.155
 9740POPC   C1A53715  33.072  20.583   6.455
 9740POPC   D2A53716  32.984  20.649   6.755
 9740POPC   C3A53717  33.035  20.615   7.055
 9740POPC   C4A53718  33.071  20.659   7.355
 9740POPC   C1B53719  33.243  20.592   6.455
 9740POPC   C2B53720  33.243  20.560   6.755
 9740POPC   C3B53721  33.232  20.595   7.055
 9740POPC   C4B53722  33.318  20.553   7.355
 9741POPC   NC353723  44.662  22.931   5.555
 9741POPC   PO453724  44.667  22.975   5.855
 9741POPC   GL153725  44.680  22.968   6.155
 9741POPC   GL253726  44.671  22.787   6.155
 9741POPC   C1A53727  44.613  22.949   6.455
 9741POPC   D2A53728  44.659  22.937   6.755
 9741POPC   C3A53729  44.675  22.930   7.055
 9741POPC   C4A53730  44.708  22.948   7.355
 9741POPC   C1B53731  44.574  22.705   6.455
 9741POPC   C2B53732  44.604  22.666   6.755
 9741POPC   C3B53733  44.645  22.703   7.055
 9741POPC   C4B53734  44.654  22.729   7.355
 9742POPC   NC353735  42.366   4.364   5.555
 9742POPC   PO453736  42.328   4.335   5.855
 9742POPC   GL153737  42.296   4.345   6.155
 9742POPC   GL253738  42.229   4.273   6.155
 9742POPC   C1A53739  42.343   4.314   6.455
 9742POPC   D2A53740  42.377   4.271   6.755
 9742POPC   C3A53741  42.331   4.285   7.055
 9742POPC   C4A53742  42.355   4.331   7.355
 9742POPC   C1B53743  42.146   4.166   6.455
 9742POPC   C2B53744  42.080   4.187   6.755
 9742POPC   C3B53745  42.154   4.169   7.055
 9742POPC   C4B53746  42.157   4.180   7.355
 9743POPC   NC353747  40.020  33.785   5.555
 9743POPC   PO453748  39.966  33.759   5.855
 9743POPC   GL153749  39.978  33.754   6.155
 9743POPC   GL253750  39.902  33.736   6.155
 9743POPC   C1A53751  40.042  33.795   6.455
 9743POPC   D2A53752  40.040  33.797   6.755
 9743POPC   C3A53753  40.046  33.757   7.055
 9743POPC   C4A53754  40.053  33.844   7.355
 9743POPC   C1B53755  39.871  33.599   6.455
 9743POPC   C2B53756  39.833  33.608   6.755
 9743POPC   C3B53757  39.849  33.645   7.055
 9743POPC   C4B53758  39.808  33.656   7.355
 9744POPC   NC353759  43.133  35.365   5.555
 9744POPC   PO453760  43.093  35.312   5.855
 9744POPC   GL153761  43.079  35.353   6.155
 9744POPC   GL253762  43.223  35.447   6.155
 9744POPC   C1A53763  43.131  35.388   6.455
 9744POPC   D2A53764  43.104  35.376   6.755
 9744POPC   C3A53765  43.138  35.391   7.055
 9744POPC   C4A53766  43.063  35.369   7.355
 9744POPC   C1B53767  43.376  35.484   6.455
 9744POPC   C2B53768  43.304  35.426   6.755
 9744POPC   C3B53769  43.318  35.435   7.055
 9744POPC   C4B53770  43.314  35.456   7.355
 9745POPC   NC353771  26.854  34.556   5.555
 9745POPC   PO453772  26.792  34.624   5.855
 9745POPC   GL153773  26.826  34.546   6.155
 9745POPC   GL253774  26.767  34.519   6.155
 9745POPC   C1A53775  26.814  34.599   6.455
 9745POPC   D2A53776  26.849  34.556   6.755
 9745POPC   C3A53777  26.834  34.607   7.055
 9745POPC   C4A53778  26.860  34.589   7.355
 9745POPC   C1B53779  26.726  34.367   6.455
 9745POPC   C2B53780  26.706  34.366   6.755
 9745POPC   C3B53781  26.665  34.322   7.055
 9745POPC   C4B53782  26.665  34.392   7.355
 9746POPC   NC353783   3.528  39.991   5.555
 9746POPC   PO453784   3.591  40.045   5.855
 9746POPC   GL153785   3.530  40.056   6.155
 9746POPC   GL253786   3.409  39.964   6.155
 9746POPC   C1A53787   3.575  40.043   6.455
 9746POPC   D2A53788   3.548  39.980   6.755
 9746POPC   C3A53789   3.568  39.983   7.055
 9746POPC   C4A53790   3.497  39.961   7.355
 9746POPC   C1B53791   3.326  39.869   6.455
 9746POPC   C2B53792   3.300  39.886   6.755
 9746POPC   C3B53793   3.368  39.847   7.055
 9746POPC   C4B53794   3.308  39.871   7.355
 9747POPC   NC353795  36.113  10.480   5.555
 9747POPC   PO453796  36.112  10.565   5.855
 9747POPC   GL153797  36.106  10.486   6.155
 9747POPC   GL253798  36.232  10.592   6.155
 9747POPC   C1A53799  36.113  10.534   6.455
 9747POPC   D2A53800  36.134  10.511   6.755
 9747POPC   C3A53801  36.104  10.556   7.055
 9747POPC   C4A53802  36.128  10.531   7.355
 9747POPC   C1B53803  36.329  10.711   6.455
 9747POPC   C2B53804  36.282  10.676   6.755
 9747POPC   C3B53805  36.257  10.671   7.055
 9747POPC   C4B53806  36.338  10.705   7.355
 9748POPC   NC353807  21.346  16.729   5.555
 9748POPC   PO453808  21.421  16.700   5.855
 9748POPC   GL153809  21.375  16.701   6.155
 9748POPC   GL253810  21.361  16.877   6.155
 9748POPC   C1A53811  21.384  16.779   6.455
 9748POPC   D2A53812  21.428  16.767   6.755
 9748POPC   C3A53813  21.415  16.746   7.055
 9748POPC   C4A53814  21.398  16.720   7.355
 9748POPC   C1B53815  21.249  16.935   6.455
 9748POPC   C2B53816  21.233  16.980   6.755
 9748POPC   C3B53817  21.228  16.955   7.055
 9748POPC   C4B53818  21.279  16.885   7.355
 9749POPC   NC353819  36.092  20.571   5.555
 9749POPC   PO453820  36.120  20.644   5.855
 9749POPC   GL153821  36.134  20.635   6.155
 9749POPC   GL253822  36.193  20.722   6.155
 9749POPC   C1A53823  36.093  20.619   6.455
 9749POPC   D2A53824  36.103  20.610   6.755
 9749POPC   C3A53825  36.112  20.618   7.055
 9749POPC   C4A53826  36.140  20.572   7.355
 9749POPC   C1B53827  36.180  20.813   6.455
 9749POPC   C2B53828  36.241  20.881   6.755
 9749POPC   C3B53829  36.228  20.806   7.055
 9749POPC   C4B53830  36.271  20.830   7.355
 9750POPC   NC353831  33.756   0.413   5.555
 9750POPC   PO453832  33.810   0.446   5.855
 9750POPC   GL153833  33.845   0.443   6.155
 9750POPC   GL253834  33.838   0.360   6.155
 9750POPC   C1A53835  33.779   0.468   6.455
 9750POPC   D2A53836  33.808   0.439   6.755
 9750POPC   C3A53837  33.754   0.403   7.055
 9750POPC   C4A53838  33.825   0.427   7.355
 9750POPC   C1B53839  33.959   0.233   6.455
 9750POPC   C2B53840  33.919   0.224   6.755
 9750POPC   C3B53841  33.937   0.246   7.055
 9750POPC   C4B53842  33.898   0.166   7.355
 9751POPC   NC353843  11.262  36.900   5.555
 9751POPC   PO453844  11.291  36.888   5.855
 9751POPC   GL153845  11.334  36.907   6.155
 9751POPC   GL253846  11.298  36.785   6.155
 9751POPC   C1A53847  11.344  36.916   6.455
 9751POPC   D2A53848  11.263  36.868   6.755
 9751POPC   C3A53849  11.278  36.856   7.055
 9751POPC   C4A53850  11.271  36.914   7.355
 9751POPC   C1B53851  11.320  36.684   6.455
 9751POPC   C2B53852  11.266  36.687   6.755
 9751POPC   C3B53853  11.259  36.674   7.055
 9751POPC   C4B53854  11.258  36.620   7.355
 9752POPC   NC353855  36.938  22.144   5.555
 9752POPC   PO453856  36.883  22.160   5.855
 9752POPC   GL153857  36.910  22.135   6.155
 9752POPC   GL253858  36.845  22.044   6.155
 9752POPC   C1A53859  36.910  22.201   6.455
 9752POPC   D2A53860  36.910  22.172   6.755
 9752POPC   C3A53861  36.902  22.134   7.055
 9752POPC   C4A53862  36.883  22.209   7.355
 9752POPC   C1B53863  36.766  21.977   6.455
 9752POPC   C2B53864  36.768  21.978   6.755
 9752POPC   C3B53865  36.769  21.981   7.055
 9752POPC   C4B53866  36.725  21.990   7.355
 9753POPC   NC353867  10.502  42.292   5.555
 9753POPC   PO453868  10.533  42.370   5.855
 9753POPC   GL153869  10.515  42.384   6.155
 9753POPC   GL253870  10.644  42.281   6.155
 9753POPC   C1A53871  10.519  42.336   6.455
 9753POPC   D2A53872  10.528  42.336   6.755
 9753POPC   C3A53873  10.491  42.287   7.055
 9753POPC   C4A53874  10.511  42.348   7.355
 9753POPC   C1B53875  10.690  42.186   6.455
 9753POPC   C2B53876  10.710  42.148   6.755
 9753POPC   C3B53877  10.700  42.145   7.055
 9753POPC   C4B53878  10.706  42.197   7.355
 9754POPC   NC353879   9.790  15.998   5.555
 9754POPC   PO453880   9.787  15.938   5.855
 9754POPC   GL153881   9.726  15.991   6.155
 9754POPC   GL253882   9.855  16.014   6.155
 9754POPC   C1A53883   9.792  15.991   6.455
 9754POPC   D2A53884   9.746  15.969   6.755
 9754POPC   C3A53885   9.701  15.984   7.055
 9754POPC   C4A53886   9.776  15.924   7.355
 9754POPC   C1B53887  10.010  15.980   6.455
 9754POPC   C2B53888  10.045  15.976   6.755
 9754POPC   C3B53889   9.973  16.006   7.055
 9754POPC   C4B53890   9.975  15.991   7.355
 9755POPC   NC353891  38.457   9.780   5.555
 9755POPC   PO453892  38.456   9.708   5.855
 9755POPC   GL153893  38.464   9.745   6.155
 9755POPC   GL253894  38.485   9.895   6.155
 9755POPC   C1A53895  38.480   9.778   6.455
 9755POPC   D2A53896  38.437   9.731   6.755
 9755POPC   C3A53897  38.492   9.726   7.055
 9755POPC   C4A53898  38.480   9.778   7.355
 9755POPC   C1B53899  38.505   9.984   6.455
 9755POPC   C2B53900  38.570   9.981   6.755
 9755POPC   C3B53901  38.509   9.972   7.055
 9755POPC   C4B53902  38.493   9.965   7.355
 9756POPC   NC353903  19.091  43.892   5.555
 9756POPC   PO453904  19.018  43.852   5.855
 9756POPC   GL153905  19.053  43.851   6.155
 9756POPC   GL253906  18.956  43.869   6.155
 9756POPC   C1A53907  19.033  43.929   6.455
 9756POPC   D2A53908  19.061  43.917   6.755
 9756POPC   C3A53909  19.084  43.849   7.055
 9756POPC   C4A53910  19.095  43.869   7.355
 9756POPC   C1B53911  18.832  43.732   6.455
 9756POPC   C2B53912  18.811  43.784   6.755
 9756POPC   C3B53913  18.810  43.730   7.055
 9756POPC   C4B53914  18.878  43.787   7.355
 9757POPC   NC353915  41.512  14.432   5.555
 9757POPC   PO453916  41.588  14.430   5.855
 9757POPC   GL153917  41.510  14.384   6.155
 9757POPC   GL253918  41.661  14.295   6.155
 9757POPC   C1A53919  41.605  14.359   6.455
 9757POPC   D2A53920  41.581  14.415   6.755
 9757POPC   C3A53921  41.533  14.398   7.055
 9757POPC   C4A53922  41.595  14.447   7.355
 9757POPC   C1B53923  41.715  14.297   6.455
 9757POPC   C2B53924  41.727  14.284   6.755
 9757POPC   C3B53925  41.787  14.230   7.055
 9757POPC   C4B53926  41.719  14.250   7.355
 9758POPC   NC353927  26.801   0.430   5.555
 9758POPC   PO453928  26.792   0.482   5.855
 9758POPC   GL153929  26.851   0.471   6.155
 9758POPC   GL253930  26.837   0.378   6.155
 9758POPC   C1A53931  26.862   0.398   6.455
 9758POPC   D2A53932  26.780   0.418   6.755
 9758POPC   C3A53933  26.853   0.487   7.055
 9758POPC   C4A53934  26.783   0.440   7.355
 9758POPC   C1B53935  26.904   0.202   6.455
 9758POPC   C2B53936  26.994   0.182   6.755
 9758POPC   C3B53937  26.973   0.235   7.055
 9758POPC   C4B53938  26.917   0.222   7.355
 9759POPC   NC353939  27.598   1.196   5.555
 9759POPC   PO453940  27.618   1.250   5.855
 9759POPC   GL153941  27.591   1.238   6.155
 9759POPC   GL253942  27.455   1.128   6.155
 9759POPC   C1A53943  27.572   1.232   6.455
 9759POPC   D2A53944  27.568   1.228   6.755
 9759POPC   C3A53945  27.634   1.173   7.055
 9759POPC   C4A53946  27.622   1.209   7.355
 9759POPC   C1B53947  27.419   1.036   6.455
 9759POPC   C2B53948  27.353   1.095   6.755
 9759POPC   C3B53949  27.417   1.088   7.055
 9759POPC   C4B53950  27.394   1.027   7.355
 9760POPC   NC353951  31.452  18.265   5.555
 9760POPC   PO453952  31.424  18.294   5.855
 9760POPC   GL153953  31.423  18.318   6.155
 9760POPC   GL253954  31.566  18.368   6.155
 9760POPC   C1A53955  31.455  18.317   6.455
 9760POPC   D2A53956  31.469  18.312   6.755
 9760POPC   C3A53957  31.440  18.298   7.055
 9760POPC   C4A53958  31.516  18.262   7.355
 9760POPC   C1B53959  31.678  18.425   6.455
 9760POPC   C2B53960  31.684  18.476   6.755
 9760POPC   C3B53961  31.648  18.409   7.055
 9760POPC   C4B53962  31.702  18.462   7.355
 9761POPC   NC353963  34.557  35.307   5.555
 9761POPC   PO453964  34.562  35.384   5.855
 9761POPC   GL153965  34.591  35.336   6.155
 9761POPC   GL253966  34.449  35.462   6.155
 9761POPC   C1A53967  34.566  35.344   6.455
 9761POPC   D2A53968  34.563  35.330   6.755
 9761POPC   C3A53969  34.604  35.398   7.055
 9761POPC   C4A53970  34.609  35.308   7.355
 9761POPC   C1B53971  34.382  35.465   6.455
 9761POPC   C2B53972  34.397  35.508   6.755
 9761POPC   C3B53973  34.374  35.432   7.055
 9761POPC   C4B53974  34.358  35.449   7.355
 9762POPC   NC353975  22.911  12.858   5.555
 9762POPC   PO453976  22.970  12.823   5.855
 9762POPC   GL153977  22.961  12.812   6.155
 9762POPC   GL253978  22.905  12.989   6.155
 9762POPC   C1A53979  22.961  12.830   6.455
 9762POPC   D2A53980  22.931  12.840   6.755
 9762POPC   C3A53981  22.905  12.864   7.055
 9762POPC   C4A53982  22.935  12.808   7.355
 9762POPC   C1B53983  22.949  13.148   6.455
 9762POPC   C2B53984  22.915  13.093   6.755
 9762POPC   C3B53985  22.903  13.127   7.055
 9762POPC   C4B53986  22.873  13.066   7.355
 9763POPC   NC353987  40.831  27.617   5.555
 9763POPC   PO453988  40.745  27.627   5.855
 9763POPC   GL153989  40.763  27.624   6.155
 9763POPC   GL253990  40.637  27.603   6.155
 9763POPC   C1A53991  40.808  27.574   6.455
 9763POPC   D2A53992  40.762  27.590   6.755
 9763POPC   C3A53993  40.761  27.576   7.055
 9763POPC   C4A53994  40.751  27.623   7.355
 9763POPC   C1B53995  40.518  27.529   6.455
 9763POPC   C2B53996  40.501  27.567   6.755
 9763POPC   C3B53997  40.585  27.524   7.055
 9763POPC   C4B53998  40.531  27.514   7.355
 9764POPC   NC353999  14.445   2.733   5.555
 9764POPC   PO454000  14.381   2.796   5.855
 9764POPC   GL154001  14.412   2.792   6.155
 9764POPC   GL254002  14.366   2.649   6.155
 9764POPC   C1A54003  14.400   2.776   6.455
 9764POPC   D2A54004  14.432   2.782   6.755
 9764POPC   C3A54005  14.451   2.743   7.055
 9764POPC   C4A54006  14.379   2.783   7.355
 9764POPC   C1B54007  14.333   2.515   6.455
 9764POPC   C2B54008  14.401   2.523   6.755
 9764POPC   C3B54009  14.399   2.522   7.055
 9764POPC   C4B54010  14.350   2.501   7.355
 9765POPC   NC354011  16.743  43.102   5.555
 9765POPC   PO454012  16.721  43.068   5.855
 9765POPC   GL154013  16.756  43.077   6.155
 9765POPC   GL254014  16.720  42.969   6.155
 9765POPC   C1A54015  16.708  43.157   6.455
 9765POPC   D2A54016  16.736  43.068   6.755
 9765POPC   C3A54017  16.698  43.107   7.055
 9765POPC   C4A54018  16.763  43.085   7.355
 9765POPC   C1B54019  16.720  42.871   6.455
 9765POPC   C2B54020  16.704  42.816   6.755
 9765POPC   C3B54021  16.712  42.841   7.055
 9765POPC   C4B54022  16.722  42.890   7.355
 9766POPC   NC354023   3.544  30.650   5.555
 9766POPC   PO454024   3.578  30.660   5.855
 9766POPC   GL154025   3.548  30.685   6.155
 9766POPC   GL254026   3.594  30.566   6.155
 9766POPC   C1A54027   3.513  30.725   6.455
 9766POPC   D2A54028   3.573  30.678   6.755
 9766POPC   C3A54029   3.530  30.691   7.055
 9766POPC   C4A54030   3.502  30.703   7.355
 9766POPC   C1B54031   3.732  30.479   6.455
 9766POPC   C2B54032   3.690  30.510   6.755
 9766POPC   C3B54033   3.733  30.460   7.055
 9766POPC   C4B54034   3.727  30.491   7.355
 9767POPC   NC354035  21.363  32.996   5.555
 9767POPC   PO454036  21.407  33.066   5.855
 9767POPC   GL154037  21.348  32.995   6.155
 9767POPC   GL254038  21.385  33.134   6.155
 9767POPC   C1A54039  21.431  33.043   6.455
 9767POPC   D2A54040  21.385  32.986   6.755
 9767POPC   C3A54041  21.404  32.986   7.055
 9767POPC   C4A54042  21.425  33.003   7.355
 9767POPC   C1B54043  21.316  33.257   6.455
 9767POPC   C2B54044  21.359  33.281   6.755
 9767POPC   C3B54045  21.353  33.308   7.055
 9767POPC   C4B54046  21.290  33.237   7.355
 9768POPC   NC354047   6.675  33.069   5.555
 9768POPC   PO454048   6.609  32.979   5.855
 9768POPC   GL154049   6.603  33.014   6.155
 9768POPC   GL254050   6.599  33.158   6.155
 9768POPC   C1A54051   6.653  33.071   6.455
 9768POPC   D2A54052   6.662  32.999   6.755
 9768POPC   C3A54053   6.680  33.019   7.055
 9768POPC   C4A54054   6.621  33.040   7.355
 9768POPC   C1B54055   6.540  33.238   6.455
 9768POPC   C2B54056   6.547  33.213   6.755
 9768POPC   C3B54057   6.484  33.198   7.055
 9768POPC   C4B54058   6.506  33.212   7.355
 9769POPC   NC354059  20.574  12.094   5.555
 9769POPC   PO454060  20.561  12.078   5.855
 9769POPC   GL154061  20.630  12.092   6.155
 9769POPC   GL254062  20.711  12.014   6.155
 9769POPC   C1A54063  20.565  12.073   6.455
 9769POPC   D2A54064  20.589  12.096   6.755
 9769POPC   C3A54065  20.589  12.112   7.055
 9769POPC   C4A54066  20.633  12.087   7.355
 9769POPC   C1B54067  20.773  11.867   6.455
 9769POPC   C2B54068  20.749  11.878   6.755
 9769POPC   C3B54069  20.804  11.892   7.055
 9769POPC   C4B54070  20.795  11.917   7.355
 9770POPC   NC354071  26.778  16.773   5.555
 9770POPC   PO454072  26.820  16.686   5.855
 9770POPC   GL154073  26.782  16.762   6.155
 9770POPC   GL254074  26.900  16.850   6.155
 9770POPC   C1A54075  26.821  16.780   6.455
 9770POPC   D2A54076  26.849  16.692   6.755
 9770POPC   C3A54077  26.785  16.683   7.055
 9770POPC   C4A54078  26.846  16.731   7.355
 9770POPC   C1B54079  26.959  16.916   6.455
 9770POPC   C2B54080  27.010  16.967   6.755
 9770POPC   C3B54081  27.008  16.915   7.055
 9770POPC   C4B54082  26.978  16.974   7.355
 9771POPC   NC354083  24.481   1.169   5.555
 9771POPC   PO454084  24.461   1.200   5.855
 9771POPC   GL154085  24.504   1.243   6.155
 9771POPC   GL254086  24.382   1.097   6.155
 9771POPC   C1A54087  24.480   1.170   6.455
 9771POPC   D2A54088  24.513   1.175   6.755
 9771POPC   C3A54089  24.506   1.170   7.055
 9771POPC   C4A54090  24.540   1.219   7.355
 9771POPC   C1B54091  24.347   1.019   6.455
 9771POPC   C2B54092  24.324   0.978   6.755
 9771POPC   C3B54093  24.295   0.969   7.055
 9771POPC   C4B54094  24.355   0.992   7.355
 9772POPC   NC354095   0.443  36.152   5.555
 9772POPC   PO454096   0.390  36.167   5.855
 9772POPC   GL154097   0.454  36.168   6.155
 9772POPC   GL254098   0.532  36.076   6.155
 9772POPC   C1A54099   0.414  36.102   6.455
 9772POPC   D2A54100   0.466  36.107   6.755
 9772POPC   C3A54101   0.465  36.110   7.055
 9772POPC   C4A54102   0.442  36.089   7.355
 9772POPC   C1B54103   0.695  36.154   6.455
 9772POPC   C2B54104   0.669  36.134   6.755
 9772POPC   C3B54105   0.690  36.075   7.055
 9772POPC   C4B54106   0.684  36.111   7.355
 9773POPC   NC354107  26.806  23.709   5.555
 9773POPC   PO454108  26.802  23.698   5.855
 9773POPC   GL154109  26.770  23.727   6.155
 9773POPC   GL254110  26.838  23.830   6.155
 9773POPC   C1A54111  26.768  23.729   6.455
 9773POPC   D2A54112  26.835  23.761   6.755
 9773POPC   C3A54113  26.832  23.747   7.055
 9773POPC   C4A54114  26.794  23.733   7.355
 9773POPC   C1B54115  26.878  23.956   6.455
 9773POPC   C2B54116  26.935  23.984   6.755
 9773POPC   C3B54117  26.856  23.987   7.055
 9773POPC   C4B54118  26.849  23.926   7.355
 9774POPC   NC354119  37.690  12.055   5.555
 9774POPC   PO454120  37.680  12.059   5.855
 9774POPC   GL154121  37.701  12.091   6.155
 9774POPC   GL254122  37.555  12.092   6.155
 9774POPC   C1A54123  37.719  12.071   6.455
 9774POPC   D2A54124  37.639  12.069   6.755
 9774POPC   C3A54125  37.653  12.053   7.055
 9774POPC   C4A54126  37.702  12.079   7.355
 9774POPC   C1B54127  37.387  12.097   6.455
 9774POPC   C2B54128  37.413  12.115   6.755
 9774POPC   C3B54129  37.437  12.055   7.055
 9774POPC   C4B54130  37.400  12.054   7.355
 9775POPC   NC354131  33.770   5.075   5.555
 9775POPC   PO454132  33.802   5.121   5.855
 9775POPC   GL154133  33.763   5.129   6.155
 9775POPC   GL254134  33.691   5.068   6.155
 9775POPC   C1A54135  33.797   5.056   6.455
 9775POPC   D2A54136  33.766   5.100   6.755
 9775POPC   C3A54137  33.824   5.091   7.055
 9775POPC   C4A54138  33.790   5.064   7.355
 9775POPC   C1B54139  33.531   5.075   6.455
 9775POPC   C2B54140  33.580   5.028   6.755
 9775POPC   C3B54141  33.508   5.033   7.055
 9775POPC   C4B54142  33.543   5.062   7.355
 9776POPC   NC354143  23.722  27.623   5.555
 9776POPC   PO454144  23.678  27.554   5.855
 9776POPC   GL154145  23.724  27.544   6.155
 9776POPC   GL254146  23.823  27.526   6.155
 9776POPC   C1A54147  23.714  27.553   6.455
 9776POPC   D2A54148  23.747  27.593   6.755
 9776POPC   C3A54149  23.700  27.608   7.055
 9776POPC   C4A54150  23.730  27.584   7.355
 9776POPC   C1B54151  23.938  27.383   6.455
 9776POPC   C2B54152  23.905  27.462   6.755
 9776POPC   C3B54153  23.925  27.437   7.055
 9776POPC   C4B54154  23.867  27.447   7.355
 9777POPC   NC354155  35.326   3.526   5.555
 9777POPC   PO454156  35.368   3.504   5.855
 9777POPC   GL154157  35.362   3.588   6.155
 9777POPC   GL254158  35.449   3.496   6.155
 9777POPC   C1A54159  35.337   3.509   6.455
 9777POPC   D2A54160  35.344   3.524   6.755
 9777POPC   C3A54161  35.399   3.545   7.055
 9777POPC   C4A54162  35.314   3.510   7.355
 9777POPC   C1B54163  35.536   3.412   6.455
 9777POPC   C2B54164  35.546   3.418   6.755
 9777POPC   C3B54165  35.510   3.352   7.055
 9777POPC   C4B54166  35.586   3.350   7.355
 9778POPC   NC354167  26.064  27.580   5.555
 9778POPC   PO454168  26.080  27.609   5.855
 9778POPC   GL154169  26.013  27.609   6.155
 9778POPC   GL254170  25.914  27.727   6.155
 9778POPC   C1A54171  26.017  27.625   6.455
 9778POPC   D2A54172  26.035  27.579   6.755
 9778POPC   C3A54173  26.026  27.567   7.055
 9778POPC   C4A54174  26.015  27.583   7.355
 9778POPC   C1B54175  25.905  27.814   6.455
 9778POPC   C2B54176  25.888  27.816   6.755
 9778POPC   C3B54177  25.851  27.810   7.055
 9778POPC   C4B54178  25.850  27.815   7.355
 9779POPC   NC354179  21.373  44.674   5.555
 9779POPC   PO454180  21.434  44.705   5.855
 9779POPC   GL154181  21.339  44.639   6.155
 9779POPC   GL254182  21.519  44.620   6.155
 9779POPC   C1A54183  21.354  44.672   6.455
 9779POPC   D2A54184  21.377  44.709   6.755
 9779POPC   C3A54185  21.428  44.711   7.055
 9779POPC   C4A54186  21.382  44.702   7.355
 9779POPC   C1B54187  21.593  44.481   6.455
 9779POPC   C2B54188  21.567  44.491   6.755
 9779POPC   C3B54189  21.548  44.498   7.055
 9779POPC   C4B54190  21.633  44.565   7.355
 9780POPC   NC354191  37.671  13.638   5.555
 9780POPC   PO454192  37.725  13.620   5.855
 9780POPC   GL154193  37.637  13.646   6.155
 9780POPC   GL254194  37.637  13.758   6.155
 9780POPC   C1A54195  37.664  13.623   6.455
 9780POPC   D2A54196  37.665  13.589   6.755
 9780POPC   C3A54197  37.717  13.677   7.055
 9780POPC   C4A54198  37.700  13.618   7.355
 9780POPC   C1B54199  37.698  13.828   6.455
 9780POPC   C2B54200  37.665  13.839   6.755
 9780POPC   C3B54201  37.710  13.837   7.055
 9780POPC   C4B54202  37.692  13.876   7.355
 9781POPC   NC354203  13.645  31.433   5.555
 9781POPC   PO454204  13.627  31.423   5.855
 9781POPC   GL154205  13.625  31.493   6.155
 9781POPC   GL254206  13.559  31.569   6.155
 9781POPC   C1A54207  13.598  31.441   6.455
 9781POPC   D2A54208  13.608  31.455   6.755
 9781POPC   C3A54209  13.627  31.448   7.055
 9781POPC   C4A54210  13.663  31.504   7.355
 9781POPC   C1B54211  13.507  31.698   6.455
 9781POPC   C2B54212  13.564  31.680   6.755
 9781POPC   C3B54213  13.524  31.665   7.055
 9781POPC   C4B54214  13.544  31.741   7.355
 9782POPC   NC354215  28.375   1.243   5.555
 9782POPC   PO454216  28.335   1.206   5.855
 9782POPC   GL154217  28.349   1.166   6.155
 9782POPC   GL254218  28.480   1.307   6.155
 9782POPC   C1A54219  28.333   1.218   6.455
 9782POPC   D2A54220  28.323   1.181   6.755
 9782POPC   C3A54221  28.320   1.191   7.055
 9782POPC   C4A54222  28.320   1.250   7.355
 9782POPC   C1B54223  28.580   1.373   6.455
 9782POPC   C2B54224  28.629   1.348   6.755
 9782POPC   C3B54225  28.558   1.384   7.055
 9782POPC   C4B54226  28.553   1.384   7.355
 9783POPC   NC354227   2.784  36.924   5.555
 9783POPC   PO454228   2.811  36.891   5.855
 9783POPC   GL154229   2.736  36.856   6.155
 9783POPC   GL254230   2.689  36.939   6.155
 9783POPC   C1A54231   2.748  36.883   6.455
 9783POPC   D2A54232   2.722  36.935   6.755
 9783POPC   C3A54233   2.743  36.872   7.055
 9783POPC   C4A54234   2.735  36.918   7.355
 9783POPC   C1B54235   2.554  36.919   6.455
 9783POPC   C2B54236   2.559  36.940   6.755
 9783POPC   C3B54237   2.547  36.940   7.055
 9783POPC   C4B54238   2.471  36.904   7.355
 9784POPC   NC354239  22.928  26.858   5.555
 9784POPC   PO454240  22.889  26.809   5.855
 9784POPC   GL154241  22.912  26.859   6.155
 9784POPC   GL254242  22.816  26.774   6.155
 9784POPC   C1A54243  22.957  26.820   6.455
 9784POPC   D2A54244  22.958  26.841   6.755
 9784POPC   C3A54245  22.941  26.863   7.055
 9784POPC   C4A54246  22.891  26.785   7.355
 9784POPC   C1B54247  22.771  26.649   6.455
 9784POPC   C2B54248  22.772  26.631   6.755
 9784POPC   C3B54249  22.802  26.650   7.055
 9784POPC   C4B54250  22.736  26.665   7.355
 9785POPC   NC354251  43.137  31.478   5.555
 9785POPC   PO454252  43.062  31.472   5.855
 9785POPC   GL154253  43.131  31.494   6.155
 9785POPC   GL254254  43.235  31.523   6.155
 9785POPC   C1A54255  43.069  31.429   6.455
 9785POPC   D2A54256  43.116  31.467   6.755
 9785POPC   C3A54257  43.146  31.479   7.055
 9785POPC   C4A54258  43.083  31.506   7.355
 9785POPC   C1B54259  43.291  31.632   6.455
 9785POPC   C2B54260  43.247  31.665   6.755
 9785POPC   C3B54261  43.290  31.719   7.055
 9785POPC   C4B54262  43.281  31.707   7.355
 9786POPC   NC354263  19.105  37.667   5.555
 9786POPC   PO454264  19.017  37.633   5.855
 9786POPC   GL154265  19.075  37.645   6.155
 9786POPC   GL254266  19.112  37.599   6.155
 9786POPC   C1A54267  19.044  37.678   6.455
 9786POPC   D2A54268  19.094  37.687   6.755
 9786POPC   C3A54269  19.050  37.719   7.055
 9786POPC   C4A54270  19.010  37.686   7.355
 9786POPC   C1B54271  19.223  37.523   6.455
 9786POPC   C2B54272  19.225  37.482   6.755
 9786POPC   C3B54273  19.232  37.518   7.055
 9786POPC   C4B54274  19.228  37.483   7.355
 9787POPC   NC354275   2.725  33.782   5.555
 9787POPC   PO454276   2.801  33.799   5.855
 9787POPC   GL154277   2.754  33.771   6.155
 9787POPC   GL254278   2.713  33.883   6.155
 9787POPC   C1A54279   2.809  33.823   6.455
 9787POPC   D2A54280   2.760  33.837   6.755
 9787POPC   C3A54281   2.739  33.792   7.055
 9787POPC   C4A54282   2.812  33.842   7.355
 9787POPC   C1B54283   2.582  33.972   6.455
 9787POPC   C2B54284   2.604  33.955   6.755
 9787POPC   C3B54285   2.539  33.933   7.055
 9787POPC   C4B54286   2.557  34.004   7.355
 9788POPC   NC354287  32.276  16.001   5.555
 9788POPC   PO454288  32.288  15.931   5.855
 9788POPC   GL154289  32.233  15.973   6.155
 9788POPC   GL254290  32.254  16.041   6.155
 9788POPC   C1A54291  32.281  15.916   6.455
 9788POPC   D2A54292  32.285  15.920   6.755
 9788POPC   C3A54293  32.284  15.968   7.055
 9788POPC   C4A54294  32.277  15.959   7.355
 9788POPC   C1B54295  32.263  16.188   6.455
 9788POPC   C2B54296  32.228  16.182   6.755
 9788POPC   C3B54297  32.194  16.199   7.055
 9788POPC   C4B54298  32.262  16.161   7.355
 9789POPC   NC354299  39.260  33.056   5.555
 9789POPC   PO454300  39.210  33.057   5.855
 9789POPC   GL154301  39.185  32.974   6.155
 9789POPC   GL254302  39.145  32.943   6.155
 9789POPC   C1A54303  39.228  33.017   6.455
 9789POPC   D2A54304  39.208  32.999   6.755
 9789POPC   C3A54305  39.185  32.986   7.055
 9789POPC   C4A54306  39.190  33.067   7.355
 9789POPC   C1B54307  39.131  32.816   6.455
 9789POPC   C2B54308  39.142  32.772   6.755
 9789POPC   C3B54309  39.112  32.767   7.055
 9789POPC   C4B54310  39.192  32.794   7.355
 9790POPC   NC354311  13.619  10.481   5.555
 9790POPC   PO454312  13.636  10.496   5.855
 9790POPC   GL154313  13.655  10.546   6.155
 9790POPC   GL254314  13.640  10.647   6.155
 9790POPC   C1A54315  13.598  10.559   6.455
 9790POPC   D2A54316  13.668  10.536   6.755
 9790POPC   C3A54317  13.623  10.506   7.055
 9790POPC   C4A54318  13.609  10.542   7.355
 9790POPC   C1B54319  13.584  10.785   6.455
 9790POPC   C2B54320  13.620  10.800   6.755
 9790POPC   C3B54321  13.649  10.750   7.055
 9790POPC   C4B54322  13.674  10.803   7.355
 9791POPC   NC354323   0.472   7.443   5.555
 9791POPC   PO454324   0.487   7.432   5.855
 9791POPC   GL154325   0.402   7.454   6.155
 9791POPC   GL254326   0.579   7.438   6.155
 9791POPC   C1A54327   0.485   7.392   6.455
 9791POPC   D2A54328   0.402   7.415   6.755
 9791POPC   C3A54329   0.415   7.443   7.055
 9791POPC   C4A54330   0.422   7.400   7.355
 9791POPC   C1B54331   0.726   7.360   6.455
 9791POPC   C2B54332   0.702   7.318   6.755
 9791POPC   C3B54333   0.672   7.394   7.055
 9791POPC   C4B54334   0.722   7.354   7.355
 9792POPC   NC354335   5.848  38.472   5.555
 9792POPC   PO454336   5.835  38.461   5.855
 9792POPC   GL154337   5.878  38.464   6.155
 9792POPC   GL254338   5.900  38.545   6.155
 9792POPC   C1A54339   5.826  38.480   6.455
 9792POPC   D2A54340   5.849  38.497   6.755
 9792POPC   C3A54341   5.909  38.414   7.055
 9792POPC   C4A54342   5.903  38.465   7.355
 9792POPC   C1B54343   5.862  38.739   6.455
 9792POPC   C2B54344   5.934  38.730   6.755
 9792POPC   C3B54345   5.888  38.738   7.055
 9792POPC   C4B54346   5.847  38.674   7.355
 9793POPC   NC354347   5.826  20.591   5.555
 9793POPC   PO454348   5.858  20.579   5.855
 9793POPC   GL154349   5.891  20.630   6.155
 9793POPC   GL254350   5.971  20.754   6.155
 9793POPC   C1A54351   5.850  20.588   6.455
 9793POPC   D2A54352   5.875  20.587   6.755
 9793POPC   C3A54353   5.863  20.566   7.055
 9793POPC   C4A54354   5.899  20.633   7.355
 9793POPC   C1B54355   5.963  20.831   6.455
 9793POPC   C2B54356   5.966  20.866   6.755
 9793POPC   C3B54357   6.027  20.795   7.055
 9793POPC   C4B54358   5.985  20.814   7.355
 9794POPC   NC354359   5.911   9.727   5.555
 9794POPC   PO454360   5.907   9.771   5.855
 9794POPC   GL154361   5.837   9.753   6.155
 9794POPC   GL254362   5.931   9.806   6.155
 9794POPC   C1A54363   5.907   9.754   6.455
 9794POPC   D2A54364   5.897   9.753   6.755
 9794POPC   C3A54365   5.859   9.735   7.055
 9794POPC   C4A54366   5.902   9.746   7.355
 9794POPC   C1B54367   6.074   9.881   6.455
 9794POPC   C2B54368   6.050   9.866   6.755
 9794POPC   C3B54369   6.136   9.880   7.055
 9794POPC   C4B54370   6.063   9.834   7.355
 9795POPC   NC354371  33.017  18.275   5.555
 9795POPC   PO454372  32.980  18.242   5.855
 9795POPC   GL154373  33.041  18.294   6.155
 9795POPC   GL254374  32.937  18.215   6.155
 9795POPC   C1A54375  33.038  18.235   6.455
 9795POPC   D2A54376  32.984  18.319   6.755
 9795POPC   C3A54377  33.059  18.289   7.055
 9795POPC   C4A54378  33.053  18.238   7.355
 9795POPC   C1B54379  32.833  18.097   6.455
 9795POPC   C2B54380  32.875  18.119   6.755
 9795POPC   C3B54381  32.899  18.130   7.055
 9795POPC   C4B54382  32.926  18.116   7.355
 9796POPC   NC354383  42.306  22.210   5.555
 9796POPC   PO454384  42.304  22.154   5.855
 9796POPC   GL154385  42.348  22.120   6.155
 9796POPC   GL254386  42.221  22.081   6.155
 9796POPC   C1A54387  42.302  22.206   6.455
 9796POPC   D2A54388  42.361  22.185   6.755
 9796POPC   C3A54389  42.338  22.202   7.055
 9796POPC   C4A54390  42.327  22.189   7.355
 9796POPC   C1B54391  42.164  22.004   6.455
 9796POPC   C2B54392  42.142  21.997   6.755
 9796POPC   C3B54393  42.126  21.952   7.055
 9796POPC   C4B54394  42.173  21.946   7.355
 9797POPC   NC354395  42.348  39.279   5.555
 9797POPC   PO454396  42.347  39.194   5.855
 9797POPC   GL154397  42.363  39.234   6.155
 9797POPC   GL254398  42.418  39.166   6.155
 9797POPC   C1A54399  42.333  39.187   6.455
 9797POPC   D2A54400  42.380  39.187   6.755
 9797POPC   C3A54401  42.341  39.237   7.055
 9797POPC   C4A54402  42.372  39.258   7.355
 9797POPC   C1B54403  42.536  39.051   6.455
 9797POPC   C2B54404  42.511  39.002   6.755
 9797POPC   C3B54405  42.459  39.028   7.055
 9797POPC   C4B54406  42.492  39.014   7.355
 9798POPC   NC354407  16.706  34.604   5.555
 9798POPC   PO454408  16.776  34.581   5.855
 9798POPC   GL154409  16.700  34.543   6.155
 9798POPC   GL254410  16.569  34.598   6.155
 9798POPC   C1A54411  16.746  34.583   6.455
 9798POPC   D2A54412  16.750  34.532   6.755
 9798POPC   C3A54413  16.730  34.603   7.055
 9798POPC   C4A54414  16.745  34.570   7.355
 9798POPC   C1B54415  16.498  34.563   6.455
 9798POPC   C2B54416  16.527  34.584   6.755
 9798POPC   C3B54417  16.528  34.588   7.055
 9798POPC   C4B54418  16.486  34.547   7.355
 9799POPC   NC354419   6.659   7.434   5.555
 9799POPC   PO454420   6.689   7.377   5.855
 9799POPC   GL154421   6.614   7.397   6.155
 9799POPC   GL254422   6.524   7.392   6.155
 9799POPC   C1A54423   6.636   7.450   6.455
 9799POPC   D2A54424   6.671   7.371   6.755
 9799POPC   C3A54425   6.682   7.454   7.055
 9799POPC   C4A54426   6.648   7.451   7.355
 9799POPC   C1B54427   6.393   7.280   6.455
 9799POPC   C2B54428   6.457   7.255   6.755
 9799POPC   C3B54429   6.429   7.330   7.055
 9799POPC   C4B54430   6.395   7.283   7.355
 9800POPC   NC354431  26.060  36.138   5.555
 9800POPC   PO454432  26.072  36.140   5.855
 9800POPC   GL154433  26.059  36.082   6.155
 9800POPC   GL254434  26.089  36.240   6.155
 9800POPC   C1A54435  26.052  36.120   6.455
 9800POPC   D2A54436  25.996  36.133   6.755
 9800POPC   C3A54437  26.035  36.139   7.055
 9800POPC   C4A54438  26.089  36.136   7.355
 9800POPC   C1B54439  26.194  36.317   6.455
 9800POPC   C2B54440  26.246  36.331   6.755
 9800POPC   C3B54441  26.178  36.294   7.055
 9800POPC   C4B54442  26.167  36.311   7.355
 9801POPC   NC354443  21.387  33.790   5.555
 9801POPC   PO454444  21.412  33.776   5.855
 9801POPC   GL154445  21.373  33.839   6.155
 9801POPC   GL254446  21.330  33.877   6.155
 9801POPC   C1A54447  21.406  33.824   6.455
 9801POPC   D2A54448  21.432  33.841   6.755
 9801POPC   C3A54449  21.386  33.844   7.055
 9801POPC   C4A54450  21.372  33.834   7.355
 9801POPC   C1B54451  21.308  34.035   6.455
 9801POPC   C2B54452  21.283  34.088   6.755
 9801POPC   C3B54453  21.290  34.044   7.055
 9801POPC   C4B54454  21.298  34.086   7.355
 9802POPC   NC354455  26.073  32.222   5.555
 9802POPC   PO454456  26.053  32.233   5.855
 9802POPC   GL154457  26.008  32.295   6.155
 9802POPC   GL254458  26.156  32.262   6.155
 9802POPC   C1A54459  26.049  32.273   6.455
 9802POPC   D2A54460  26.070  32.222   6.755
 9802POPC   C3A54461  26.013  32.271   7.055
 9802POPC   C4A54462  26.077  32.206   7.355
 9802POPC   C1B54463  26.297  32.317   6.455
 9802POPC   C2B54464  26.253  32.308   6.755
 9802POPC   C3B54465  26.295  32.361   7.055
 9802POPC   C4B54466  26.262  32.305   7.355
 9803POPC   NC354467  41.575  43.135   5.555
 9803POPC   PO454468  41.515  43.123   5.855
 9803POPC   GL154469  41.573  43.150   6.155
 9803POPC   GL254470  41.479  43.215   6.155
 9803POPC   C1A54471  41.540  43.142   6.455
 9803POPC   D2A54472  41.545  43.130   6.755
 9803POPC   C3A54473  41.537  43.096   7.055
 9803POPC   C4A54474  41.570  43.071   7.355
 9803POPC   C1B54475  41.402  43.231   6.455
 9803POPC   C2B54476  41.333  43.230   6.755
 9803POPC   C3B54477  41.350  43.276   7.055
 9803POPC   C4B54478  41.350  43.233   7.355
 9804POPC   NC354479   2.736  32.247   5.555
 9804POPC   PO454480   2.814  32.236   5.855
 9804POPC   GL154481   2.777  32.231   6.155
 9804POPC   GL254482   2.659  32.336   6.155
 9804POPC   C1A54483   2.795  32.289   6.455
 9804POPC   D2A54484   2.805  32.281   6.755
 9804POPC   C3A54485   2.799  32.228   7.055
 9804POPC   C4A54486   2.721  32.220   7.355
 9804POPC   C1B54487   2.644  32.494   6.455
 9804POPC   C2B54488   2.641  32.499   6.755
 9804POPC   C3B54489   2.644  32.475   7.055
 9804POPC   C4B54490   2.585  32.416   7.355
 9805POPC   NC354491  36.882  29.889   5.555
 9805POPC   PO454492  36.928  29.890   5.855
 9805POPC   GL154493  36.887  29.934   6.155
 9805POPC   GL254494  36.748  29.833   6.155
 9805POPC   C1A54495  36.917  29.947   6.455
 9805POPC   D2A54496  36.918  29.956   6.755
 9805POPC   C3A54497  36.917  29.889   7.055
 9805POPC   C4A54498  36.943  29.938   7.355
 9805POPC   C1B54499  36.707  29.803   6.455
 9805POPC   C2B54500  36.621  29.869   6.755
 9805POPC   C3B54501  36.685  29.845   7.055
 9805POPC   C4B54502  36.674  29.794   7.355
 9806POPC   NC354503  29.894  20.625   5.555
 9806POPC   PO454504  29.913  20.638   5.855
 9806POPC   GL154505  29.936  20.585   6.155
 9806POPC   GL254506  29.929  20.510   6.155
 9806POPC   C1A54507  29.932  20.584   6.455
 9806POPC   D2A54508  29.944  20.659   6.755
 9806POPC   C3A54509  29.968  20.567   7.055
 9806POPC   C4A54510  29.910  20.585   7.355
 9806POPC   C1B54511  29.838  20.397   6.455
 9806POPC   C2B54512  29.907  20.331   6.755
 9806POPC   C3B54513  29.857  20.374   7.055
 9806POPC   C4B54514  29.887  20.395   7.355
 9807POPC   NC354515  30.686  27.618   5.555
 9807POPC   PO454516  30.678  27.586   5.855
 9807POPC   GL154517  30.739  27.560   6.155
 9807POPC   GL254518  30.620  27.597   6.155
 9807POPC   C1A54519  30.711  27.627   6.455
 9807POPC   D2A54520  30.673  27.633   6.755
 9807POPC   C3A54521  30.650  27.571   7.055
 9807POPC   C4A54522  30.660  27.558   7.355
 9807POPC   C1B54523  30.493  27.647   6.455
 9807POPC   C2B54524  30.456  27.694   6.755
 9807POPC   C3B54525  30.448  27.687   7.055
 9807POPC   C4B54526  30.500  27.670   7.355
 9808POPC   NC354527  29.934  25.259   5.555
 9808POPC   PO454528  29.876  25.250   5.855
 9808POPC   GL154529  29.962  25.228   6.155
 9808POPC   GL254530  29.914  25.420   6.155
 9808POPC   C1A54531  29.936  25.309   6.455
 9808POPC   D2A54532  29.920  25.239   6.755
 9808POPC   C3A54533  29.887  25.260   7.055
 9808POPC   C4A54534  29.911  25.234   7.355
 9808POPC   C1B54535  29.973  25.549   6.455
 9808POPC   C2B54536  29.905  25.547   6.755
 9808POPC   C3B54537  29.906  25.500   7.055
 9808POPC   C4B54538  29.945  25.558   7.355
 9809POPC   NC354539  16.683   4.329   5.555
 9809POPC   PO454540  16.724   4.306   5.855
 9809POPC   GL154541  16.726   4.273   6.155
 9809POPC   GL254542  16.877   4.326   6.155
 9809POPC   C1A54543  16.696   4.282   6.455
 9809POPC   D2A54544  16.694   4.317   6.755
 9809POPC   C3A54545  16.704   4.338   7.055
 9809POPC   C4A54546  16.711   4.334   7.355
 9809POPC   C1B54547  16.941   4.222   6.455
 9809POPC   C2B54548  16.938   4.263   6.755
 9809POPC   C3B54549  16.952   4.227   7.055
 9809POPC   C4B54550  16.952   4.254   7.355
 9810POPC   NC354551   0.403  38.500   5.555
 9810POPC   PO454552   0.470  38.443   5.855
 9810POPC   GL154553   0.418  38.490   6.155
 9810POPC   GL254554   0.332  38.407   6.155
 9810POPC   C1A54555   0.467  38.439   6.455
 9810POPC   D2A54556   0.405  38.472   6.755
 9810POPC   C3A54557   0.482  38.406   7.055
 9810POPC   C4A54558   0.429  38.431   7.355
 9810POPC   C1B54559   0.285  38.323   6.455
 9810POPC   C2B54560   0.227  38.331   6.755
 9810POPC   C3B54561   0.246  38.255   7.055
 9810POPC   C4B54562   0.211  38.280   7.355
 9811POPC   NC354563  36.091  38.478   5.555
 9811POPC   PO454564  36.147  38.415   5.855
 9811POPC   GL154565  36.092  38.424   6.155
 9811POPC   GL254566  36.233  38.528   6.155
 9811POPC   C1A54567  36.167  38.409   6.455
 9811POPC   D2A54568  36.111  38.429   6.755
 9811POPC   C3A54569  36.108  38.460   7.055
 9811POPC   C4A54570  36.123  38.439   7.355
 9811POPC   C1B54571  36.358  38.595   6.455
 9811POPC   C2B54572  36.382  38.565   6.755
 9811POPC   C3B54573  36.314  38.620   7.055
 9811POPC   C4B54574  36.387  38.599   7.355
 9812POPC   NC354575  14.388  25.277   5.555
 9812POPC   PO454576  14.397  25.238   5.855
 9812POPC   GL154577  14.436  25.232   6.155
 9812POPC   GL254578  14.304  25.356   6.155
 9812POPC   C1A54579  14.417  25.307   6.455
 9812POPC   D2A54580  14.401  25.314   6.755
 9812POPC   C3A54581  14.404  25.248   7.055
 9812POPC   C4A54582  14.450  25.299   7.355
 9812POPC   C1B54583  14.176  25.372   6.455
 9812POPC   C2B54584  14.130  25.323   6.755
 9812POPC   C3B54585  14.211  25.389   7.055
 9812POPC   C4B54586  14.124  25.311   7.355
 9813POPC   NC354587  31.496  10.549   5.555
 9813POPC   PO454588  31.503  10.552   5.855
 9813POPC   GL154589  31.442  10.485   6.155
 9813POPC   GL254590  31.452  10.351   6.155
 9813POPC   C1A54591  31.501  10.531   6.455
 9813POPC   D2A54592  31.519  10.486   6.755
 9813POPC   C3A54593  31.485  10.569   7.055
 9813POPC   C4A54594  31.517  10.523   7.355
 9813POPC   C1B54595  31.445  10.271   6.455
 9813POPC   C2B54596  31.480  10.311   6.755
 9813POPC   C3B54597  31.437  10.278   7.055
 9813POPC   C4B54598  31.498  10.280   7.355
 9814POPC   NC354599   9.784  14.387   5.555
 9814POPC   PO454600   9.744  14.377   5.855
 9814POPC   GL154601   9.720  14.397   6.155
 9814POPC   GL254602   9.824  14.342   6.155
 9814POPC   C1A54603   9.710  14.399   6.455
 9814POPC   D2A54604   9.775  14.426   6.755
 9814POPC   C3A54605   9.767  14.425   7.055
 9814POPC   C4A54606   9.750  14.354   7.355
 9814POPC   C1B54607   9.965  14.332   6.455
 9814POPC   C2B54608  10.006  14.384   6.755
 9814POPC   C3B54609   9.981  14.362   7.055
 9814POPC   C4B54610   9.967  14.386   7.355
 9815POPC   NC354611  34.619  30.654   5.555
 9815POPC   PO454612  34.566  30.712   5.855
 9815POPC   GL154613  34.555  30.719   6.155
 9815POPC   GL254614  34.477  30.578   6.155
 9815POPC   C1A54615  34.626  30.687   6.455
 9815POPC   D2A54616  34.588  30.710   6.755
 9815POPC   C3A54617  34.552  30.647   7.055
 9815POPC   C4A54618  34.554  30.702   7.355
 9815POPC   C1B54619  34.441  30.489   6.455
 9815POPC   C2B54620  34.409  30.510   6.755
 9815POPC   C3B54621  34.375  30.557   7.055
 9815POPC   C4B54622  34.344  30.533   7.355
 9816POPC   NC354623   1.175  44.653   5.555
 9816POPC   PO454624   1.230  44.678   5.855
 9816POPC   GL154625   1.263  44.615   6.155
 9816POPC   GL254626   1.380  44.656   6.155
 9816POPC   C1A54627   1.240  44.664   6.455
 9816POPC   D2A54628   1.205  44.631   6.755
 9816POPC   C3A54629   1.241  44.660   7.055
 9816POPC   C4A54630   1.234  44.682   7.355
 9816POPC   C1B54631   1.414  44.677   6.455
 9816POPC   C2B54632   1.431  44.680   6.755
 9816POPC   C3B54633   1.477  44.587   7.055
 9816POPC   C4B54634   1.493  44.669   7.355
 9817POPC   NC354635  32.290   2.754   5.555
 9817POPC   PO454636  32.294   2.788   5.855
 9817POPC   GL154637  32.201   2.728   6.155
 9817POPC   GL254638  32.119   2.803   6.155
 9817POPC   C1A54639  32.225   2.742   6.455
 9817POPC   D2A54640  32.231   2.732   6.755
 9817POPC   C3A54641  32.273   2.775   7.055
 9817POPC   C4A54642  32.237   2.735   7.355
 9817POPC   C1B54643  32.007   2.819   6.455
 9817POPC   C2B54644  32.054   2.843   6.755
 9817POPC   C3B54645  32.065   2.833   7.055
 9817POPC   C4B54646  31.998   2.900   7.355
 9818POPC   NC354647  32.246  36.883   5.555
 9818POPC   PO454648  32.263  36.942   5.855
 9818POPC   GL154649  32.228  36.869   6.155
 9818POPC   GL254650  32.119  37.016   6.155
 9818POPC   C1A54651  32.243  36.911   6.455
 9818POPC   D2A54652  32.294  36.865   6.755
 9818POPC   C3A54653  32.292  36.924   7.055
 9818POPC   C4A54654  32.278  36.887   7.355
 9818POPC   C1B54655  32.060  37.061   6.455
 9818POPC   C2B54656  32.078  37.091   6.755
 9818POPC   C3B54657  32.063  37.087   7.055
 9818POPC   C4B54658  32.083  37.108   7.355
 9819POPC   NC354659  36.891   9.782   5.555
 9819POPC   PO454660  36.880   9.706   5.855
 9819POPC   GL154661  36.906   9.772   6.155
 9819POPC   GL254662  36.825   9.662   6.155
 9819POPC   C1A54663  36.910   9.778   6.455
 9819POPC   D2A54664  36.925   9.723   6.755
 9819POPC   C3A54665  36.947   9.755   7.055
 9819POPC   C4A54666  36.878   9.736   7.355
 9819POPC   C1B54667  36.830   9.521   6.455
 9819POPC   C2B54668  36.835   9.526   6.755
 9819POPC   C3B54669  36.844   9.481   7.055
 9819POPC   C4B54670  36.856   9.553   7.355
 9820POPC   NC354671  17.470   8.155   5.555
 9820POPC   PO454672  17.468   8.154   5.855
 9820POPC   GL154673  17.488   8.159   6.155
 9820POPC   GL254674  17.548   8.295   6.155
 9820POPC   C1A54675  17.489   8.244   6.455
 9820POPC   D2A54676  17.548   8.239   6.755
 9820POPC   C3A54677  17.542   8.170   7.055
 9820POPC   C4A54678  17.535   8.185   7.355
 9820POPC   C1B54679  17.635   8.381   6.455
 9820POPC   C2B54680  17.622   8.383   6.755
 9820POPC   C3B54681  17.673   8.450   7.055
 9820POPC   C4B54682  17.609   8.431   7.355
 9821POPC   NC354683  14.440   2.032   5.555
 9821POPC   PO454684  14.354   1.966   5.855
 9821POPC   GL154685  14.391   2.005   6.155
 9821POPC   GL254686  14.539   1.989   6.155
 9821POPC   C1A54687  14.446   1.970   6.455
 9821POPC   D2A54688  14.448   1.973   6.755
 9821POPC   C3A54689  14.380   2.020   7.055
 9821POPC   C4A54690  14.401   1.985   7.355
 9821POPC   C1B54691  14.657   1.930   6.455
 9821POPC   C2B54692  14.626   1.967   6.755
 9821POPC   C3B54693  14.611   1.998   7.055
 9821POPC   C4B54694  14.640   1.989   7.355
 9822POPC   NC354695  36.159  15.162   5.555
 9822POPC   PO454696  36.169  15.215   5.855
 9822POPC   GL154697  36.169  15.136   6.155
 9822POPC   GL254698  36.153  15.295   6.155
 9822POPC   C1A54699  36.147  15.141   6.455
 9822POPC   D2A54700  36.152  15.182   6.755
 9822POPC   C3A54701  36.098  15.203   7.055
 9822POPC   C4A54702  36.109  15.142   7.355
 9822POPC   C1B54703  36.141  15.407   6.455
 9822POPC   C2B54704  36.102  15.414   6.755
 9822POPC   C3B54705  36.155  15.382   7.055
 9822POPC   C4B54706  36.137  15.386   7.355
 9823POPC   NC354707  15.187   5.850   5.555
 9823POPC   PO454708  15.228   5.889   5.855
 9823POPC   GL154709  15.166   5.865   6.155
 9823POPC   GL254710  15.315   5.912   6.155
 9823POPC   C1A54711  15.184   5.900   6.455
 9823POPC   D2A54712  15.144   5.901   6.755
 9823POPC   C3A54713  15.140   5.846   7.055
 9823POPC   C4A54714  15.146   5.840   7.355
 9823POPC   C1B54715  15.375   6.007   6.455
 9823POPC   C2B54716  15.429   5.959   6.755
 9823POPC   C3B54717  15.374   5.942   7.055
 9823POPC   C4B54718  15.368   5.986   7.355
 9824POPC   NC354719  36.126  34.529   5.555
 9824POPC   PO454720  36.096  34.581   5.855
 9824POPC   GL154721  36.115  34.547   6.155
 9824POPC   GL254722  36.051  34.622   6.155
 9824POPC   C1A54723  36.165  34.592   6.455
 9824POPC   D2A54724  36.174  34.586   6.755
 9824POPC   C3A54725  36.111  34.543   7.055
 9824POPC   C4A54726  36.113  34.563   7.355
 9824POPC   C1B54727  35.859  34.733   6.455
 9824POPC   C2B54728  35.886  34.737   6.755
 9824POPC   C3B54729  35.941  34.677   7.055
 9824POPC   C4B54730  35.911  34.721   7.355
 9825POPC   NC354731  33.841  19.057   5.555
 9825POPC   PO454732  33.812  19.051   5.855
 9825POPC   GL154733  33.784  19.055   6.155
 9825POPC   GL254734  33.791  19.170   6.155
 9825POPC   C1A54735  33.825  19.076   6.455
 9825POPC   D2A54736  33.827  19.091   6.755
 9825POPC   C3A54737  33.806  19.097   7.055
 9825POPC   C4A54738  33.839  19.054   7.355
 9825POPC   C1B54739  33.719  19.274   6.455
 9825POPC   C2B54740  33.709  19.259   6.755
 9825POPC   C3B54741  33.706  19.325   7.055
 9825POPC   C4B54742  33.773  19.254   7.355
 9826POPC   NC354743   5.132  43.879   5.555
 9826POPC   PO454744   5.062  43.877   5.855
 9826POPC   GL154745   5.070  43.897   6.155
 9826POPC   GL254746   4.971  43.893   6.155
 9826POPC   C1A54747   5.068  43.921   6.455
 9826POPC   D2A54748   5.114  43.866   6.755
 9826POPC   C3A54749   5.061  43.855   7.055
 9826POPC   C4A54750   5.098  43.917   7.355
 9826POPC   C1B54751   4.845  43.873   6.455
 9826POPC   C2B54752   4.829  43.822   6.755
 9826POPC   C3B54753   4.844  43.878   7.055
 9826POPC   C4B54754   4.869  43.878   7.355
 9827POPC   NC354755  24.441  40.032   5.555
 9827POPC   PO454756  24.509  40.002   5.855
 9827POPC   GL154757  24.462  39.970   6.155
 9827POPC   GL254758  24.640  39.914   6.155
 9827POPC   C1A54759  24.443  40.009   6.455
 9827POPC   D2A54760  24.462  40.010   6.755
 9827POPC   C3A54761  24.511  40.027   7.055
 9827POPC   C4A54762  24.498  40.001   7.355
 9827POPC   C1B54763  24.714  39.897   6.455
 9827POPC   C2B54764  24.727  39.861   6.755
 9827POPC   C3B54765  24.702  39.910   7.055
 9827POPC   C4B54766  24.651  39.836   7.355
 9828POPC   NC354767  15.193  15.163   5.555
 9828POPC   PO454768  15.218  15.229   5.855
 9828POPC   GL154769  15.147  15.200   6.155
 9828POPC   GL254770  15.241  15.250   6.155
 9828POPC   C1A54771  15.197  15.208   6.455
 9828POPC   D2A54772  15.130  15.201   6.755
 9828POPC   C3A54773  15.216  15.181   7.055
 9828POPC   C4A54774  15.197  15.227   7.355
 9828POPC   C1B54775  15.365  15.299   6.455
 9828POPC   C2B54776  15.358  15.368   6.755
 9828POPC   C3B54777  15.368  15.339   7.055
 9828POPC   C4B54778  15.361  15.314   7.355
 9829POPC   NC354779  26.807   7.395   5.555
 9829POPC   PO454780  26.779   7.466   5.855
 9829POPC   GL154781  26.786   7.393   6.155
 9829POPC   GL254782  26.679   7.340   6.155
 9829POPC   C1A54783  26.866   7.454   6.455
 9829POPC   D2A54784  26.841   7.397   6.755
 9829POPC   C3A54785  26.858   7.444   7.055
 9829POPC   C4A54786  26.820   7.419   7.355
 9829POPC   C1B54787  26.642   7.246   6.455
 9829POPC   C2B54788  26.660   7.321   6.755
 9829POPC   C3B54789  26.581   7.308   7.055
 9829POPC   C4B54790  26.599   7.296   7.355
 9830POPC   NC354791  39.260   8.176   5.555
 9830POPC   PO454792  39.271   8.239   5.855
 9830POPC   GL154793  39.244   8.185   6.155
 9830POPC   GL254794  39.393   8.185   6.155
 9830POPC   C1A54795  39.222   8.238   6.455
 9830POPC   D2A54796  39.266   8.223   6.755
 9830POPC   C3A54797  39.194   8.222   7.055
 9830POPC   C4A54798  39.246   8.194   7.355
 9830POPC   C1B54799  39.459   8.183   6.455
 9830POPC   C2B54800  39.472   8.110   6.755
 9830POPC   C3B54801  39.519   8.145   7.055
 9830POPC   C4B54802  39.464   8.122   7.355
 9831POPC   NC354803   4.272  34.584   5.555
 9831POPC   PO454804   4.325  34.615   5.855
 9831POPC   GL154805   4.341  34.565   6.155
 9831POPC   GL254806   4.431  34.667   6.155
 9831POPC   C1A54807   4.292  34.534   6.455
 9831POPC   D2A54808   4.332  34.527   6.755
 9831POPC   C3A54809   4.280  34.564   7.055
 9831POPC   C4A54810   4.313  34.608   7.355
 9831POPC   C1B54811   4.487  34.705   6.455
 9831POPC   C2B54812   4.499  34.663   6.755
 9831POPC   C3B54813   4.496  34.721   7.055
 9831POPC   C4B54814   4.559  34.734   7.355
 9832POPC   NC354815  26.841  29.116   5.555
 9832POPC   PO454816  26.798  29.142   5.855
 9832POPC   GL154817  26.825  29.129   6.155
 9832POPC   GL254818  26.851  29.021   6.155
 9832POPC   C1A54819  26.817  29.111   6.455
 9832POPC   D2A54820  26.835  29.194   6.755
 9832POPC   C3A54821  26.769  29.132   7.055
 9832POPC   C4A54822  26.790  29.109   7.355
 9832POPC   C1B54823  26.917  28.960   6.455
 9832POPC   C2B54824  26.918  28.906   6.755
 9832POPC   C3B54825  26.892  28.941   7.055
 9832POPC   C4B54826  26.924  28.879   7.355
 9833POPC   NC354827   0.442  44.613   5.555
 9833POPC   PO454828   0.402  44.649   5.855
 9833POPC   GL154829   0.456  44.702   6.155
 9833POPC   GL254830   0.340  44.756   6.155
 9833POPC   C1A54831   0.391  44.678   6.455
 9833POPC   D2A54832   0.405  44.656   6.755
 9833POPC   C3A54833   0.465  44.651   7.055
 9833POPC   C4A54834   0.481  44.698   7.355
 9833POPC   C1B54835   0.214  44.732   6.455
 9833POPC   C2B54836   0.255  44.736   6.755
 9833POPC   C3B54837   0.230  44.821   7.055
 9833POPC   C4B54838   0.193  44.766   7.355
 9834POPC   NC354839  32.261   9.717   5.555
 9834POPC   PO454840  32.227   9.777   5.855
 9834POPC   GL154841  32.245   9.781   6.155
 9834POPC   GL254842  32.310   9.907   6.155
 9834POPC   C1A54843  32.204   9.778   6.455
 9834POPC   D2A54844  32.287   9.772   6.755
 9834POPC   C3A54845  32.297   9.747   7.055
 9834POPC   C4A54846  32.201   9.765   7.355
 9834POPC   C1B54847  32.335  10.002   6.455
 9834POPC   C2B54848  32.334   9.935   6.755
 9834POPC   C3B54849  32.348   9.935   7.055
 9834POPC   C4B54850  32.387   9.988   7.355
 9835POPC   NC354851   8.202  15.194   5.555
 9835POPC   PO454852   8.217  15.178   5.855
 9835POPC   GL154853   8.195  15.149   6.155
 9835POPC   GL254854   8.243  15.279   6.155
 9835POPC   C1A54855   8.186  15.159   6.455
 9835POPC   D2A54856   8.174  15.153   6.755
 9835POPC   C3A54857   8.182  15.159   7.055
 9835POPC   C4A54858   8.192  15.141   7.355
 9835POPC   C1B54859   8.164  15.468   6.455
 9835POPC   C2B54860   8.170  15.461   6.755
 9835POPC   C3B54861   8.239  15.459   7.055
 9835POPC   C4B54862   8.174  15.397   7.355
 9836POPC   NC354863  44.671  39.208   5.555
 9836POPC   PO454864  44.662  39.272   5.855
 9836POPC   GL154865  44.671  39.223   6.155
 9836POPC   GL254866  44.593  39.384   6.155
 9836POPC   C1A54867  44.614  39.208   6.455
 9836POPC   D2A54868  44.694  39.193   6.755
 9836POPC   C3A54869  44.712  39.243   7.055
 9836POPC   C4A54870  44.702  39.184   7.355
 9836POPC   C1B54871  44.576  39.424   6.455
 9836POPC   C2B54872  44.555  39.445   6.755
 9836POPC   C3B54873  44.547  39.498   7.055
 9836POPC   C4B54874  44.518  39.403   7.355
 9837POPC   NC354875  15.228  26.011   5.555
 9837POPC   PO454876  15.188  26.002   5.855
 9837POPC   GL154877  15.171  26.030   6.155
 9837POPC   GL254878  15.035  26.091   6.155
 9837POPC   C1A54879  15.147  26.088   6.455
 9837POPC   D2A54880  15.156  26.028   6.755
 9837POPC   C3A54881  15.192  26.010   7.055
 9837POPC   C4A54882  15.216  25.995   7.355
 9837POPC   C1B54883  14.976  26.055   6.455
 9837POPC   C2B54884  14.914  26.020   6.755
 9837POPC   C3B54885  14.915  26.031   7.055
 9837POPC   C4B54886  14.921  26.037   7.355
 9838POPC   NC354887   8.994  40.765   5.555
 9838POPC   PO454888   8.928  40.824   5.855
 9838POPC   GL154889   8.996  40.827   6.155
 9838POPC   GL254890   8.900  40.883   6.155
 9838POPC   C1A54891   8.972  40.783   6.455
 9838POPC   D2A54892   8.944  40.749   6.755
 9838POPC   C3A54893   9.009  40.791   7.055
 9838POPC   C4A54894   8.957  40.784   7.355
 9838POPC   C1B54895   8.842  40.952   6.455
 9838POPC   C2B54896   8.801  40.944   6.755
 9838POPC   C3B54897   8.799  40.981   7.055
 9838POPC   C4B54898   8.767  40.933   7.355
 9839POPC   NC354899  37.687  41.542   5.555
 9839POPC   PO454900  37.679  41.583   5.855
 9839POPC   GL154901  37.715  41.535   6.155
 9839POPC   GL254902  37.669  41.454   6.155
 9839POPC   C1A54903  37.667  41.531   6.455
 9839POPC   D2A54904  37.643  41.533   6.755
 9839POPC   C3A54905  37.681  41.581   7.055
 9839POPC   C4A54906  37.637  41.518   7.355
 9839POPC   C1B54907  37.707  41.303   6.455
 9839POPC   C2B54908  37.622  41.303   6.755
 9839POPC   C3B54909  37.646  41.272   7.055
 9839POPC   C4B54910  37.715  41.354   7.355
 9840POPC   NC354911  30.701  15.980   5.555
 9840POPC   PO454912  30.675  15.951   5.855
 9840POPC   GL154913  30.675  15.994   6.155
 9840POPC   GL254914  30.843  15.900   6.155
 9840POPC   C1A54915  30.692  15.958   6.455
 9840POPC   D2A54916  30.699  16.004   6.755
 9840POPC   C3A54917  30.723  15.937   7.055
 9840POPC   C4A54918  30.719  15.999   7.355
 9840POPC   C1B54919  30.921  15.923   6.455
 9840POPC   C2B54920  30.936  15.894   6.755
 9840POPC   C3B54921  30.964  15.889   7.055
 9840POPC   C4B54922  30.935  15.862   7.355
 9841POPC   NC354923  15.999   4.363   5.555
 9841POPC   PO454924  15.910   4.335   5.855
 9841POPC   GL154925  15.990   4.306   6.155
 9841POPC   GL254926  16.000   4.430   6.155
 9841POPC   C1A54927  15.942   4.307   6.455
 9841POPC   D2A54928  15.991   4.334   6.755
 9841POPC   C3A54929  15.964   4.279   7.055
 9841POPC   C4A54930  15.925   4.306   7.355
 9841POPC   C1B54931  16.101   4.504   6.455
 9841POPC   C2B54932  16.127   4.501   6.755
 9841POPC   C3B54933  16.106   4.510   7.055
 9841POPC   C4B54934  16.131   4.552   7.355
 9842POPC   NC354935  38.445  32.248   5.555
 9842POPC   PO454936  38.431  32.223   5.855
 9842POPC   GL154937  38.501  32.296   6.155
 9842POPC   GL254938  38.544  32.241   6.155
 9842POPC   C1A54939  38.438  32.273   6.455
 9842POPC   D2A54940  38.420  32.244   6.755
 9842POPC   C3A54941  38.429  32.217   7.055
 9842POPC   C4A54942  38.497  32.268   7.355
 9842POPC   C1B54943  38.729  32.218   6.455
 9842POPC   C2B54944  38.727  32.220   6.755
 9842POPC   C3B54945  38.679  32.228   7.055
 9842POPC   C4B54946  38.725  32.236   7.355
 9843POPC   NC354947  17.485  15.205   5.555
 9843POPC   PO454948  17.521  15.186   5.855
 9843POPC   GL154949  17.518  15.148   6.155
 9843POPC   GL254950  17.397  15.258   6.155
 9843POPC   C1A54951  17.504  15.187   6.455
 9843POPC   D2A54952  17.508  15.166   6.755
 9843POPC   C3A54953  17.457  15.218   7.055
 9843POPC   C4A54954  17.485  15.143   7.355
 9843POPC   C1B54955  17.374  15.332   6.455
 9843POPC   C2B54956  17.275  15.311   6.755
 9843POPC   C3B54957  17.344  15.357   7.055
 9843POPC   C4B54958  17.369  15.337   7.355
 9844POPC   NC354959  36.933  31.425   5.555
 9844POPC   PO454960  36.936  31.461   5.855
 9844POPC   GL154961  36.924  31.497   6.155
 9844POPC   GL254962  36.971  31.321   6.155
 9844POPC   C1A54963  36.946  31.457   6.455
 9844POPC   D2A54964  36.939  31.516   6.755
 9844POPC   C3A54965  36.908  31.486   7.055
 9844POPC   C4A54966  36.914  31.492   7.355
 9844POPC   C1B54967  37.003  31.219   6.455
 9844POPC   C2B54968  37.029  31.282   6.755
 9844POPC   C3B54969  37.040  31.259   7.055
 9844POPC   C4B54970  37.004  31.295   7.355
 9845POPC   NC354971   3.579  43.903   5.555
 9845POPC   PO454972   3.512  43.844   5.855
 9845POPC   GL154973   3.538  43.858   6.155
 9845POPC   GL254974   3.588  43.780   6.155
 9845POPC   C1A54975   3.551  43.903   6.455
 9845POPC   D2A54976   3.582  43.882   6.755
 9845POPC   C3A54977   3.580  43.866   7.055
 9845POPC   C4A54978   3.510  43.911   7.355
 9845POPC   C1B54979   3.639  43.612   6.455
 9845POPC   C2B54980   3.608  43.621   6.755
 9845POPC   C3B54981   3.639  43.656   7.055
 9845POPC   C4B54982   3.623  43.670   7.355
 9846POPC   NC354983  19.029  30.703   5.555
 9846POPC   PO454984  19.042  30.736   5.855
 9846POPC   GL154985  19.046  30.737   6.155
 9846POPC   GL254986  18.899  30.693   6.155
 9846POPC   C1A54987  19.068  30.721   6.455
 9846POPC   D2A54988  19.048  30.736   6.755
 9846POPC   C3A54989  19.063  30.728   7.055
 9846POPC   C4A54990  19.099  30.667   7.355
 9846POPC   C1B54991  18.826  30.741   6.455
 9846POPC   C2B54992  18.860  30.769   6.755
 9846POPC   C3B54993  18.827  30.684   7.055
 9846POPC   C4B54994  18.830  30.761   7.355
 9847POPC   NC354995   8.225  18.288   5.555
 9847POPC   PO454996   8.176  18.246   5.855
 9847POPC   GL154997   8.204  18.329   6.155
 9847POPC   GL254998   8.158  18.357   6.155
 9847POPC   C1A54999   8.235  18.252   6.455
 9847POPC   D2A55000   8.179  18.235   6.755
 9847POPC   C3A55001   8.206  18.293   7.055
 9847POPC   C4A55002   8.149  18.243   7.355
 9847POPC   C1B55003   8.054  18.440   6.455
 9847POPC   C2B55004   8.036  18.443   6.755
 9847POPC   C3B55005   8.090  18.488   7.055
 9847POPC   C4B55006   8.093  18.530   7.355
 9848POPC   NC355007  35.399  20.609   5.555
 9848POPC   PO455008  35.376  20.578   5.855
 9848POPC   GL155009  35.310  20.582   6.155
 9848POPC   GL255010  35.470  20.621   6.155
 9848POPC   C1A55011  35.387  20.625   6.455
 9848POPC   D2A55012  35.339  20.596   6.755
 9848POPC   C3A55013  35.395  20.577   7.055
 9848POPC   C4A55014  35.327  20.629   7.355
 9848POPC   C1B55015  35.649  20.602   6.455
 9848POPC   C2B55016  35.595  20.667   6.755
 9848POPC   C3B55017  35.608  20.644   7.055
 9848POPC   C4B55018  35.611  20.688   7.355
 9849POPC   NC355019   2.737  13.614   5.555
 9849POPC   PO455020   2.722  13.657   5.855
 9849POPC   GL155021   2.724  13.636   6.155
 9849POPC   GL255022   2.877  13.714   6.155
 9849POPC   C1A55023   2.792  13.610   6.455
 9849POPC   D2A55024   2.770  13.667   6.755
 9849POPC   C3A55025   2.729  13.643   7.055
 9849POPC   C4A55026   2.739  13.635   7.355
 9849POPC   C1B55027   3.006  13.743   6.455
 9849POPC   C2B55028   2.988  13.677   6.755
 9849POPC   C3B55029   3.006  13.727   7.055
 9849POPC   C4B55030   3.042  13.731   7.355
 9850POPC   NC355031  29.916  13.639   5.555
 9850POPC   PO455032  29.895  13.589   5.855
 9850POPC   GL155033  29.911  13.623   6.155
 9850POPC   GL255034  29.833  13.559   6.155
 9850POPC   C1A55035  29.941  13.586   6.455
 9850POPC   D2A55036  29.925  13.612   6.755
 9850POPC   C3A55037  29.880  13.655   7.055
 9850POPC   C4A55038  29.947  13.676   7.355
 9850POPC   C1B55039  29.815  13.410   6.455
 9850POPC   C2B55040  29.791  13.439   6.755
 9850POPC   C3B55041  29.814  13.448   7.055
 9850POPC   C4B55042  29.835  13.451   7.355
 9851POPC   NC355043  12.876  14.453   5.555
 9851POPC   PO455044  12.891  14.414   5.855
 9851POPC   GL155045  12.843  14.355   6.155
 9851POPC   GL255046  12.858  14.320   6.155
 9851POPC   C1A55047  12.860  14.443   6.455
 9851POPC   D2A55048  12.808  14.451   6.755
 9851POPC   C3A55049  12.823  14.359   7.055
 9851POPC   C4A55050  12.825  14.406   7.355
 9851POPC   C1B55051  12.839  14.154   6.455
 9851POPC   C2B55052  12.805  14.126   6.755
 9851POPC   C3B55053  12.883  14.163   7.055
 9851POPC   C4B55054  12.884  14.173   7.355
 9852POPC   NC355055   1.217  17.530   5.555
 9852POPC   PO455056   1.257  17.469   5.855
 9852POPC   GL155057   1.257  17.523   6.155
 9852POPC   GL255058   1.170  17.603   6.155
 9852POPC   C1A55059   1.219  17.532   6.455
 9852POPC   D2A55060   1.254  17.503   6.755
 9852POPC   C3A55061   1.183  17.527   7.055
 9852POPC   C4A55062   1.182  17.476   7.355
 9852POPC   C1B55063   1.043  17.704   6.455
 9852POPC   C2B55064   1.028  17.670   6.755
 9852POPC   C3B55065   1.019  17.714   7.055
 9852POPC   C4B55066   1.093  17.661   7.355
 9853POPC   NC355067  43.927  19.851   5.555
 9853POPC   PO455068  43.846  19.799   5.855
 9853POPC   GL155069  43.922  19.846   6.155
 9853POPC   GL255070  43.785  19.737   6.155
 9853POPC   C1A55071  43.892  19.788   6.455
 9853POPC   D2A55072  43.881  19.861   6.755
 9853POPC   C3A55073  43.917  19.812   7.055
 9853POPC   C4A55074  43.855  19.873   7.355
 9853POPC   C1B55075  43.740  19.679   6.455
 9853POPC   C2B55076  43.666  19.611   6.755
 9853POPC   C3B55077  43.732  19.619   7.055
 9853POPC   C4B55078  43.696  19.648   7.355
 9854POPC   NC355079  31.497  14.388   5.555
 9854POPC   PO455080  31.517  14.381   5.855
 9854POPC   GL155081  31.431  14.380   6.155
 9854POPC   GL255082  31.612  14.283   6.155
 9854POPC   C1A55083  31.434  14.383   6.455
 9854POPC   D2A55084  31.522  14.420   6.755
 9854POPC   C3A55085  31.440  14.435   7.055
 9854POPC   C4A55086  31.456  14.358   7.355
 9854POPC   C1B55087  31.658  14.216   6.455
 9854POPC   C2B55088  31.652  14.236   6.755
 9854POPC   C3B55089  31.635  14.239   7.055
 9854POPC   C4B55090  31.672  14.241   7.355
 9855POPC   NC355091  22.948  43.881   5.555
 9855POPC   PO455092  22.952  43.892   5.855
 9855POPC   GL155093  22.960  43.862   6.155
 9855POPC   GL255094  22.907  44.001   6.155
 9855POPC   C1A55095  22.965  43.889   6.455
 9855POPC   D2A55096  22.949  43.916   6.755
 9855POPC   C3A55097  22.954  43.838   7.055
 9855POPC   C4A55098  22.919  43.860   7.355
 9855POPC   C1B55099  22.833  44.150   6.455
 9855POPC   C2B55100  22.883  44.130   6.755
 9855POPC   C3B55101  22.853  44.155   7.055
 9855POPC   C4B55102  22.866  44.165   7.355
 9856POPC   NC355103   7.387  34.531   5.555
 9856POPC   PO455104   7.373  34.596   5.855
 9856POPC   GL155105   7.430  34.553   6.155
 9856POPC   GL255106   7.486  34.464   6.155
 9856POPC   C1A55107   7.454  34.594   6.455
 9856POPC   D2A55108   7.452  34.586   6.755
 9856POPC   C3A55109   7.424  34.597   7.055
 9856POPC   C4A55110   7.425  34.536   7.355
 9856POPC   C1B55111   7.619  34.460   6.455
 9856POPC   C2B55112   7.599  34.451   6.755
 9856POPC   C3B55113   7.608  34.403   7.055
 9856POPC   C4B55114   7.666  34.433   7.355
 9857POPC   NC355115  30.694  29.921   5.555
 9857POPC   PO455116  30.651  29.918   5.855
 9857POPC   GL155117  30.731  29.919   6.155
 9857POPC   GL255118  30.635  30.058   6.155
 9857POPC   C1A55119  30.691  29.944   6.455
 9857POPC   D2A55120  30.655  29.954   6.755
 9857POPC   C3A55121  30.730  29.968   7.055
 9857POPC   C4A55122  30.719  29.905   7.355
 9857POPC   C1B55123  30.643  30.179   6.455
 9857POPC   C2B55124  30.672  30.155   6.755
 9857POPC   C3B55125  30.650  30.212   7.055
 9857POPC   C4B55126  30.678  30.170   7.355
 9858POPC   NC355127  27.587  26.794   5.555
 9858POPC   PO455128  27.581  26.771   5.855
 9858POPC   GL155129  27.641  26.849   6.155
 9858POPC   GL255130  27.746  26.816   6.155
 9858POPC   C1A55131  27.597  26.852   6.455
 9858POPC   D2A55132  27.623  26.856   6.755
 9858POPC   C3A55133  27.569  26.847   7.055
 9858POPC   C4A55134  27.595  26.856   7.355
 9858POPC   C1B55135  27.880  26.829   6.455
 9858POPC   C2B55136  27.883  26.768   6.755
 9858POPC   C3B55137  27.837  26.811   7.055
 9858POPC   C4B55138  27.860  26.826   7.355
 9859POPC   NC355139   3.512  34.582   5.555
 9859POPC   PO455140   3.551  34.574   5.855
 9859POPC   GL155141   3.567  34.570   6.155
 9859POPC   GL255142   3.542  34.735   6.155
 9859POPC   C1A55143   3.512  34.550   6.455
 9859POPC   D2A55144   3.495  34.620   6.755
 9859POPC   C3A55145   3.579  34.622   7.055
 9859POPC   C4A55146   3.589  34.562   7.355
 9859POPC   C1B55147   3.557  34.875   6.455
 9859POPC   C2B55148   3.566  34.868   6.755
 9859POPC   C3B55149   3.494  34.809   7.055
 9859POPC   C4B55150   3.573  34.863   7.355
 9860POPC   NC355151  43.869   6.642   5.555
 9860POPC   PO455152  43.898   6.685   5.855
 9860POPC   GL155153  43.932   6.693   6.155
 9860POPC   GL255154  43.761   6.644   6.155
 9860POPC   C1A55155  43.861   6.617   6.455
 9860POPC   D2A55156  43.897   6.617   6.755
 9860POPC   C3A55157  43.850   6.634   7.055
 9860POPC   C4A55158  43.844   6.678   7.355
 9860POPC   C1B55159  43.679   6.634   6.455
 9860POPC   C2B55160  43.688   6.555   6.755
 9860POPC   C3B55161  43.655   6.581   7.055
 9860POPC   C4B55162  43.669   6.636   7.355
 9861POPC   NC355163  25.999  25.244   5.555
 9861POPC   PO455164  26.033  25.277   5.855
 9861POPC   GL155165  26.018  25.315   6.155
 9861POPC   GL255166  26.091  25.159   6.155
 9861POPC   C1A55167  26.041  25.247   6.455
 9861POPC   D2A55168  26.069  25.288   6.755
 9861POPC   C3A55169  26.076  25.231   7.055
 9861POPC   C4A55170  26.086  25.275   7.355
 9861POPC   C1B55171  26.136  25.071   6.455
 9861POPC   C2B55172  26.116  25.049   6.755
 9861POPC   C3B55173  26.143  24.993   7.055
 9861POPC   C4B55174  26.125  25.025   7.355
 9862POPC   NC355175  36.082  19.066   5.555
 9862POPC   PO455176  36.117  19.078   5.855
 9862POPC   GL155177  36.089  19.047   6.155
 9862POPC   GL255178  36.240  18.909   6.155
 9862POPC   C1A55179  36.085  19.076   6.455
 9862POPC   D2A55180  36.153  19.060   6.755
 9862POPC   C3A55181  36.131  19.027   7.055
 9862POPC   C4A55182  36.093  19.012   7.355
 9862POPC   C1B55183  36.299  18.840   6.455
 9862POPC   C2B55184  36.263  18.842   6.755
 9862POPC   C3B55185  36.252  18.851   7.055
 9862POPC   C4B55186  36.243  18.806   7.355
 9863POPC   NC355187  23.719  12.114   5.555
 9863POPC   PO455188  23.682  12.108   5.855
 9863POPC   GL155189  23.693  12.074   6.155
 9863POPC   GL255190  23.591  11.988   6.155
 9863POPC   C1A55191  23.753  12.055   6.455
 9863POPC   D2A55192  23.746  12.091   6.755
 9863POPC   C3A55193  23.670  12.040   7.055
 9863POPC   C4A55194  23.745  12.028   7.355
 9863POPC   C1B55195  23.533  11.921   6.455
 9863POPC   C2B55196  23.492  11.930   6.755
 9863POPC   C3B55197  23.475  11.995   7.055
 9863POPC   C4B55198  23.484  11.977   7.355
 9864POPC   NC355199  29.171  26.011   5.555
 9864POPC   PO455200  29.175  26.034   5.855
 9864POPC   GL155201  29.175  26.055   6.155
 9864POPC   GL255202  29.279  26.085   6.155
 9864POPC   C1A55203  29.174  26.028   6.455
 9864POPC   D2A55204  29.140  26.015   6.755
 9864POPC   C3A55205  29.119  26.075   7.055
 9864POPC   C4A55206  29.132  26.020   7.355
 9864POPC   C1B55207  29.382  26.048   6.455
 9864POPC   C2B55208  29.440  26.051   6.755
 9864POPC   C3B55209  29.415  26.040   7.055
 9864POPC   C4B55210  29.386  26.095   7.355
 9865POPC   NC355211  16.710  31.494   5.555
 9865POPC   PO455212  16.752  31.489   5.855
 9865POPC   GL155213  16.688  31.474   6.155
 9865POPC   GL255214  16.828  31.447   6.155
 9865POPC   C1A55215  16.716  31.447   6.455
 9865POPC   D2A55216  16.753  31.433   6.755
 9865POPC   C3A55217  16.730  31.498   7.055
 9865POPC   C4A55218  16.745  31.453   7.355
 9865POPC   C1B55219  16.939  31.503   6.455
 9865POPC   C2B55220  17.017  31.486   6.755
 9865POPC   C3B55221  17.015  31.526   7.055
 9865POPC   C4B55222  17.021  31.531   7.355
 9866POPC   NC355223   2.723  43.929   5.555
 9866POPC   PO455224   2.813  43.839   5.855
 9866POPC   GL155225   2.766  43.932   6.155
 9866POPC   GL255226   2.874  43.757   6.155
 9866POPC   C1A55227   2.769  43.867   6.455
 9866POPC   D2A55228   2.753  43.875   6.755
 9866POPC   C3A55229   2.813  43.847   7.055
 9866POPC   C4A55230   2.750  43.936   7.355
 9866POPC   C1B55231   2.898  43.636   6.455
 9866POPC   C2B55232   2.932  43.705   6.755
 9866POPC   C3B55233   2.893  43.654   7.055
 9866POPC   C4B55234   2.857  43.666   7.355
 9867POPC   NC355235   1.197   8.976   5.555
 9867POPC   PO455236   1.170   8.971   5.855
 9867POPC   GL155237   1.188   8.953   6.155
 9867POPC   GL255238   1.209   9.140   6.155
 9867POPC   C1A55239   1.188   8.938   6.455
 9867POPC   D2A55240   1.263   8.955   6.755
 9867POPC   C3A55241   1.164   8.949   7.055
 9867POPC   C4A55242   1.239   8.935   7.355
 9867POPC   C1B55243   1.241   9.261   6.455
 9867POPC   C2B55244   1.213   9.244   6.755
 9867POPC   C3B55245   1.207   9.237   7.055
 9867POPC   C4B55246   1.208   9.232   7.355
 9868POPC   NC355247  34.605  14.392   5.555
 9868POPC   PO455248  34.582  14.381   5.855
 9868POPC   GL155249  34.608  14.417   6.155
 9868POPC   GL255250  34.628  14.283   6.155
 9868POPC   C1A55251  34.610  14.405   6.455
 9868POPC   D2A55252  34.550  14.388   6.755
 9868POPC   C3A55253  34.606  14.442   7.055
 9868POPC   C4A55254  34.619  14.449   7.355
 9868POPC   C1B55255  34.782  14.270   6.455
 9868POPC   C2B55256  34.732  14.187   6.755
 9868POPC   C3B55257  34.771  14.200   7.055
 9868POPC   C4B55258  34.734  14.239   7.355
 9869POPC   NC355259  22.114  40.817   5.555
 9869POPC   PO455260  22.162  40.803   5.855
 9869POPC   GL155261  22.117  40.793   6.155
 9869POPC   GL255262  22.311  40.828   6.155
 9869POPC   C1A55263  22.133  40.815   6.455
 9869POPC   D2A55264  22.145  40.747   6.755
 9869POPC   C3A55265  22.156  40.750   7.055
 9869POPC   C4A55266  22.195  40.809   7.355
 9869POPC   C1B55267  22.450  40.750   6.455
 9869POPC   C2B55268  22.403  40.785   6.755
 9869POPC   C3B55269  22.416  40.846   7.055
 9869POPC   C4B55270  22.367  40.753   7.355
 9870POPC   NC355271   1.179  28.358   5.555
 9870POPC   PO455272   1.213  28.343   5.855
 9870POPC   GL155273   1.228  28.337   6.155
 9870POPC   GL255274   1.309  28.401   6.155
 9870POPC   C1A55275   1.202  28.339   6.455
 9870POPC   D2A55276   1.194  28.320   6.755
 9870POPC   C3A55277   1.197  28.395   7.055
 9870POPC   C4A55278   1.255  28.407   7.355
 9870POPC   C1B55279   1.464  28.460   6.455
 9870POPC   C2B55280   1.445  28.435   6.755
 9870POPC   C3B55281   1.487  28.408   7.055
 9870POPC   C4B55282   1.439  28.380   7.355
 9871POPC   NC355283  15.981  37.709   5.555
 9871POPC   PO455284  15.989  37.665   5.855
 9871POPC   GL155285  15.955  37.632   6.155
 9871POPC   GL255286  15.817  37.665   6.155
 9871POPC   C1A55287  15.942  37.702   6.455
 9871POPC   D2A55288  15.929  37.631   6.755
 9871POPC   C3A55289  15.935  37.651   7.055
 9871POPC   C4A55290  15.968  37.719   7.355
 9871POPC   C1B55291  15.718  37.710   6.455
 9871POPC   C2B55292  15.656  37.666   6.755
 9871POPC   C3B55293  15.746  37.690   7.055
 9871POPC   C4B55294  15.697  37.701   7.355
 9872POPC   NC355295  40.053  17.540   5.555
 9872POPC   PO455296  40.001  17.460   5.855
 9872POPC   GL155297  40.032  17.540   6.155
 9872POPC   GL255298  40.126  17.586   6.155
 9872POPC   C1A55299  39.966  17.460   6.455
 9872POPC   D2A55300  40.030  17.499   6.755
 9872POPC   C3A55301  39.959  17.464   7.055
 9872POPC   C4A55302  39.972  17.497   7.355
 9872POPC   C1B55303  40.187  17.640   6.455
 9872POPC   C2B55304  40.189  17.722   6.755
 9872POPC   C3B55305  40.232  17.671   7.055
 9872POPC   C4B55306  40.172  17.658   7.355
 9873POPC   NC355307   5.058  26.008   5.555
 9873POPC   PO455308   5.061  26.020   5.855
 9873POPC   GL155309   5.092  26.060   6.155
 9873POPC   GL255310   5.057  25.941   6.155
 9873POPC   C1A55311   5.115  26.061   6.455
 9873POPC   D2A55312   5.130  26.030   6.755
 9873POPC   C3A55313   5.101  26.046   7.055
 9873POPC   C4A55314   5.110  26.022   7.355
 9873POPC   C1B55315   5.065  25.788   6.455
 9873POPC   C2B55316   5.018  25.790   6.755
 9873POPC   C3B55317   5.001  25.795   7.055
 9873POPC   C4B55318   5.012  25.838   7.355
 9874POPC   NC355319  43.924  36.899   5.555
 9874POPC   PO455320  43.932  36.889   5.855
 9874POPC   GL155321  43.922  36.858   6.155
 9874POPC   GL255322  43.871  37.049   6.155
 9874POPC   C1A55323  43.889  36.938   6.455
 9874POPC   D2A55324  43.927  36.866   6.755
 9874POPC   C3A55325  43.876  36.871   7.055
 9874POPC   C4A55326  43.905  36.883   7.355
 9874POPC   C1B55327  43.765  37.121   6.455
 9874POPC   C2B55328  43.822  37.090   6.755
 9874POPC   C3B55329  43.748  37.155   7.055
 9874POPC   C4B55330  43.817  37.166   7.355
 9875POPC   NC355331   8.935   9.785   5.555
 9875POPC   PO455332   8.953   9.777   5.855
 9875POPC   GL155333   8.972   9.751   6.155
 9875POPC   GL255334   9.052   9.796   6.155
 9875POPC   C1A55335   8.975   9.777   6.455
 9875POPC   D2A55336   8.981   9.720   6.755
 9875POPC   C3A55337   8.989   9.791   7.055
 9875POPC   C4A55338   8.965   9.749   7.355
 9875POPC   C1B55339   9.270   9.744   6.455
 9875POPC   C2B55340   9.187   9.744   6.755
 9875POPC   C3B55341   9.192   9.786   7.055
 9875POPC   C4B55342   9.252   9.740   7.355
 9876POPC   NC355343  29.102  43.074   5.555
 9876POPC   PO455344  29.097  43.112   5.855
 9876POPC   GL155345  29.108  43.083   6.155
 9876POPC   GL255346  29.122  43.004   6.155
 9876POPC   C1A55347  29.125  43.135   6.455
 9876POPC   D2A55348  29.186  43.065   6.755
 9876POPC   C3A55349  29.120  43.072   7.055
 9876POPC   C4A55350  29.147  43.078   7.355
 9876POPC   C1B55351  29.084  42.866   6.455
 9876POPC   C2B55352  29.077  42.843   6.755
 9876POPC   C3B55353  29.120  42.833   7.055
 9876POPC   C4B55354  29.113  42.885   7.355
 9877POPC   NC355355  29.149   1.987   5.555
 9877POPC   PO455356  29.101   1.954   5.855
 9877POPC   GL155357  29.115   1.976   6.155
 9877POPC   GL255358  29.257   2.053   6.155
 9877POPC   C1A55359  29.185   1.972   6.455
 9877POPC   D2A55360  29.128   1.944   6.755
 9877POPC   C3A55361  29.152   2.014   7.055
 9877POPC   C4A55362  29.110   1.972   7.355
 9877POPC   C1B55363  29.353   2.023   6.455
 9877POPC   C2B55364  29.383   2.105   6.755
 9877POPC   C3B55365  29.416   2.033   7.055
 9877POPC   C4B55366  29.414   2.103   7.355
 9878POPC   NC355367  44.665  33.788   5.555
 9878POPC   PO455368  44.712  33.836   5.855
 9878POPC   GL155369  44.711  33.817   6.155
 9878POPC   GL255370  44.537  33.844   6.155
 9878POPC   C1A55371  44.644  33.784   6.455
 9878POPC   D2A55372  44.660  33.811   6.755
 9878POPC   C3A55373  44.639  33.757   7.055
 9878POPC   C4A55374  44.704  33.771   7.355
 9878POPC   C1B55375  44.402  33.867   6.455
 9878POPC   C2B55376  44.388  33.839   6.755
 9878POPC   C3B55377  44.381  33.830   7.055
 9878POPC   C4B55378  44.458  33.875   7.355
 9879POPC   NC355379   7.428   7.406   5.555
 9879POPC   PO455380   7.457   7.449   5.855
 9879POPC   GL155381   7.409   7.425   6.155
 9879POPC   GL255382   7.515   7.508   6.155
 9879POPC   C1A55383   7.400   7.441   6.455
 9879POPC   D2A55384   7.458   7.439   6.755
 9879POPC   C3A55385   7.396   7.400   7.055
 9879POPC   C4A55386   7.373   7.371   7.355
 9879POPC   C1B55387   7.603   7.627   6.455
 9879POPC   C2B55388   7.584   7.604   6.755
 9879POPC   C3B55389   7.553   7.564   7.055
 9879POPC   C4B55390   7.553   7.591   7.355
 9880POPC   NC355391  29.904  33.788   5.555
 9880POPC   PO455392  29.935  33.774   5.855
 9880POPC   GL155393  29.952  33.768   6.155
 9880POPC   GL255394  30.022  33.876   6.155
 9880POPC   C1A55395  29.896  33.840   6.455
 9880POPC   D2A55396  29.877  33.820   6.755
 9880POPC   C3A55397  29.877  33.760   7.055
 9880POPC   C4A55398  29.901  33.758   7.355
 9880POPC   C1B55399  30.129  33.907   6.455
 9880POPC   C2B55400  30.084  33.929   6.755
 9880POPC   C3B55401  30.134  33.957   7.055
 9880POPC   C4B55402  30.147  33.964   7.355
 9881POPC   NC355403  44.682  18.287   5.555
 9881POPC   PO455404  44.702  18.257   5.855
 9881POPC   GL155405  44.615  18.248   6.155
 9881POPC   GL255406  44.536  18.295   6.155
 9881POPC   C1A55407  44.662  18.254   6.455
 9881POPC   D2A55408  44.678  18.310   6.755
 9881POPC   C3A55409  44.675  18.266   7.055
 9881POPC   C4A55410  44.704  18.327   7.355
 9881POPC   C1B55411  44.394  18.317   6.455
 9881POPC   C2B55412  44.442  18.393   6.755
 9881POPC   C3B55413  44.404  18.348   7.055
 9881POPC   C4B55414  44.406  18.389   7.355
 9882POPC   NC355415  29.953   1.222   5.555
 9882POPC   PO455416  29.941   1.169   5.855
 9882POPC   GL155417  29.951   1.241   6.155
 9882POPC   GL255418  29.934   1.327   6.155
 9882POPC   C1A55419  29.923   1.188   6.455
 9882POPC   D2A55420  29.888   1.167   6.755
 9882POPC   C3A55421  29.871   1.250   7.055
 9882POPC   C4A55422  29.921   1.207   7.355
 9882POPC   C1B55423  29.953   1.462   6.455
 9882POPC   C2B55424  29.924   1.500   6.755
 9882POPC   C3B55425  29.925   1.442   7.055
 9882POPC   C4B55426  29.929   1.506   7.355
 9883POPC   NC355427  42.365  41.526   5.555
 9883POPC   PO455428  42.384  41.600   5.855
 9883POPC   GL155429  42.361  41.562   6.155
 9883POPC   GL255430  42.471  41.496   6.155
 9883POPC   C1A55431  42.375  41.586   6.455
 9883POPC   D2A55432  42.376  41.512   6.755
 9883POPC   C3A55433  42.350  41.554   7.055
 9883POPC   C4A55434  42.373  41.527   7.355
 9883POPC   C1B55435  42.495  41.416   6.455
 9883POPC   C2B55436  42.567  41.406   6.755
 9883POPC   C3B55437  42.532  41.374   7.055
 9883POPC   C4B55438  42.543  41.420   7.355
 9884POPC   NC355439   4.270  23.731   5.555
 9884POPC   PO455440   4.289  23.705   5.855
 9884POPC   GL155441   4.333  23.666   6.155
 9884POPC   GL255442   4.439  23.766   6.155
 9884POPC   C1A55443   4.343  23.665   6.455
 9884POPC   D2A55444   4.344  23.756   6.755
 9884POPC   C3A55445   4.273  23.727   7.055
 9884POPC   C4A55446   4.285  23.732   7.355
 9884POPC   C1B55447   4.545  23.819   6.455
 9884POPC   C2B55448   4.536  23.811   6.755
 9884POPC   C3B55449   4.522  23.797   7.055
 9884POPC   C4B55450   4.507  23.784   7.355
 9885POPC   NC355451   2.728   9.758   5.555
 9885POPC   PO455452   2.734   9.784   5.855
 9885POPC   GL155453   2.743   9.761   6.155
 9885POPC   GL255454   2.637   9.811   6.155
 9885POPC   C1A55455   2.719   9.711   6.455
 9885POPC   D2A55456   2.721   9.717   6.755
 9885POPC   C3A55457   2.767   9.725   7.055
 9885POPC   C4A55458   2.720   9.760   7.355
 9885POPC   C1B55459   2.604   9.878   6.455
 9885POPC   C2B55460   2.583   9.876   6.755
 9885POPC   C3B55461   2.609   9.902   7.055
 9885POPC   C4B55462   2.528   9.852   7.355
 9886POPC   NC355463  32.255  40.741   5.555
 9886POPC   PO455464  32.263  40.802   5.855
 9886POPC   GL155465  32.202  40.830   6.155
 9886POPC   GL255466  32.382  40.733   6.155
 9886POPC   C1A55467  32.199  40.756   6.455
 9886POPC   D2A55468  32.281  40.781   6.755
 9886POPC   C3A55469  32.247  40.741   7.055
 9886POPC   C4A55470  32.284  40.812   7.355
 9886POPC   C1B55471  32.522  40.802   6.455
 9886POPC   C2B55472  32.504  40.709   6.755
 9886POPC   C3B55473  32.489  40.777   7.055
 9886POPC   C4B55474  32.451  40.786   7.355
 9887POPC   NC355475  19.108  13.615   5.555
 9887POPC   PO455476  19.100  13.607   5.855
 9887POPC   GL155477  19.030  13.599   6.155
 9887POPC   GL255478  19.171  13.636   6.155
 9887POPC   C1A55479  19.048  13.609   6.455
 9887POPC   D2A55480  19.034  13.655   6.755
 9887POPC   C3A55481  19.068  13.659   7.055
 9887POPC   C4A55482  19.009  13.618   7.355
 9887POPC   C1B55483  19.317  13.742   6.455
 9887POPC   C2B55484  19.322  13.721   6.755
 9887POPC   C3B55485  19.258  13.729   7.055
 9887POPC   C4B55486  19.313  13.794   7.355
 9888POPC   NC355487  36.135  22.922   5.555
 9888POPC   PO455488  36.161  22.939   5.855
 9888POPC   GL155489  36.137  22.888   6.155
 9888POPC   GL255490  35.972  22.932   6.155
 9888POPC   C1A55491  36.103  22.893   6.455
 9888POPC   D2A55492  36.119  22.938   6.755
 9888POPC   C3A55493  36.160  22.951   7.055
 9888POPC   C4A55494  36.168  22.911   7.355
 9888POPC   C1B55495  35.860  22.826   6.455
 9888POPC   C2B55496  35.901  22.831   6.755
 9888POPC   C3B55497  35.904  22.798   7.055
 9888POPC   C4B55498  35.866  22.837   7.355
 9889POPC   NC355499  29.884  17.467   5.555
 9889POPC   PO455500  29.892  17.553   5.855
 9889POPC   GL155501  29.940  17.491   6.155
 9889POPC   GL255502  29.969  17.451   6.155
 9889POPC   C1A55503  29.894  17.509   6.455
 9889POPC   D2A55504  29.952  17.470   6.755
 9889POPC   C3A55505  29.876  17.521   7.055
 9889POPC   C4A55506  29.889  17.506   7.355
 9889POPC   C1B55507  30.103  17.251   6.455
 9889POPC   C2B55508  30.081  17.297   6.755
 9889POPC   C3B55509  30.029  17.327   7.055
 9889POPC   C4B55510  30.010  17.300   7.355
 9890POPC   NC355511  17.463   8.943   5.555
 9890POPC   PO455512  17.548   8.926   5.855
 9890POPC   GL155513  17.496   8.942   6.155
 9890POPC   GL255514  17.635   9.083   6.155
 9890POPC   C1A55515  17.513   9.000   6.455
 9890POPC   D2A55516  17.492   8.968   6.755
 9890POPC   C3A55517  17.460   8.985   7.055
 9890POPC   C4A55518  17.478   9.006   7.355
 9890POPC   C1B55519  17.722   9.127   6.455
 9890POPC   C2B55520  17.742   9.132   6.755
 9890POPC   C3B55521  17.714   9.082   7.055
 9890POPC   C4B55522  17.706   9.122   7.355
 9891POPC   NC355523  39.959  43.837   5.555
 9891POPC   PO455524  39.998  43.858   5.855
 9891POPC   GL155525  39.996  43.881   6.155
 9891POPC   GL255526  40.111  43.767   6.155
 9891POPC   C1A55527  39.992  43.922   6.455
 9891POPC   D2A55528  40.038  43.891   6.755
 9891POPC   C3A55529  39.979  43.887   7.055
 9891POPC   C4A55530  39.984  43.870   7.355
 9891POPC   C1B55531  40.211  43.677   6.455
 9891POPC   C2B55532  40.219  43.720   6.755
 9891POPC   C3B55533  40.197  43.707   7.055
 9891POPC   C4B55534  40.194  43.772   7.355
 9892POPC   NC355535  12.887   2.036   5.555
 9892POPC   PO455536  12.886   1.980   5.855
 9892POPC   GL155537  12.881   1.984   6.155
 9892POPC   GL255538  12.758   2.060   6.155
 9892POPC   C1A55539  12.804   2.011   6.455
 9892POPC   D2A55540  12.830   2.013   6.755
 9892POPC   C3A55541  12.817   2.011   7.055
 9892POPC   C4A55542  12.836   1.941   7.355
 9892POPC   C1B55543  12.629   2.068   6.455
 9892POPC   C2B55544  12.619   2.073   6.755
 9892POPC   C3B55545  12.613   2.059   7.055
 9892POPC   C4B55546  12.627   2.118   7.355
 9893POPC   NC355547   4.268  32.990   5.555
 9893POPC   PO455548   4.286  33.059   5.855
 9893POPC   GL155549   4.349  33.040   6.155
 9893POPC   GL255550   4.390  33.066   6.155
 9893POPC   C1A55551   4.272  33.021   6.455
 9893POPC   D2A55552   4.343  33.071   6.755
 9893POPC   C3A55553   4.279  32.995   7.055
 9893POPC   C4A55554   4.291  33.042   7.355
 9893POPC   C1B55555   4.528  33.131   6.455
 9893POPC   C2B55556   4.603  33.070   6.755
 9893POPC   C3B55557   4.562  33.095   7.055
 9893POPC   C4B55558   4.529  33.038   7.355
 9894POPC   NC355559  12.899  28.372   5.555
 9894POPC   PO455560  12.821  28.411   5.855
 9894POPC   GL155561  12.837  28.359   6.155
 9894POPC   GL255562  12.904  28.451   6.155
 9894POPC   C1A55563  12.856  28.372   6.455
 9894POPC   D2A55564  12.830  28.331   6.755
 9894POPC   C3A55565  12.840  28.326   7.055
 9894POPC   C4A55566  12.825  28.400   7.355
 9894POPC   C1B55567  12.944  28.588   6.455
 9894POPC   C2B55568  12.942  28.595   6.755
 9894POPC   C3B55569  12.897  28.629   7.055
 9894POPC   C4B55570  12.885  28.656   7.355
 9895POPC   NC355571   3.548  21.369   5.555
 9895POPC   PO455572   3.546  21.376   5.855
 9895POPC   GL155573   3.567  21.391   6.155
 9895POPC   GL255574   3.583  21.460   6.155
 9895POPC   C1A55575   3.499  21.415   6.455
 9895POPC   D2A55576   3.551  21.374   6.755
 9895POPC   C3A55577   3.493  21.357   7.055
 9895POPC   C4A55578   3.515  21.361   7.355
 9895POPC   C1B55579   3.555  21.587   6.455
 9895POPC   C2B55580   3.603  21.677   6.755
 9895POPC   C3B55581   3.588  21.655   7.055
 9895POPC   C4B55582   3.606  21.652   7.355
 9896POPC   NC355583  39.229  36.174   5.555
 9896POPC   PO455584  39.212  36.170   5.855
 9896POPC   GL155585  39.187  36.150   6.155
 9896POPC   GL255586  39.267  36.205   6.155
 9896POPC   C1A55587  39.250  36.119   6.455
 9896POPC   D2A55588  39.195  36.147   6.755
 9896POPC   C3A55589  39.181  36.116   7.055
 9896POPC   C4A55590  39.190  36.107   7.355
 9896POPC   C1B55591  39.358  36.383   6.455
 9896POPC   C2B55592  39.347  36.367   6.755
 9896POPC   C3B55593  39.358  36.392   7.055
 9896POPC   C4B55594  39.330  36.308   7.355
 9897POPC   NC355595  10.570   1.186   5.555
 9897POPC   PO455596  10.506   1.245   5.855
 9897POPC   GL155597  10.557   1.218   6.155
 9897POPC   GL255598  10.634   1.123   6.155
 9897POPC   C1A55599  10.496   1.242   6.455
 9897POPC   D2A55600  10.547   1.209   6.755
 9897POPC   C3A55601  10.536   1.184   7.055
 9897POPC   C4A55602  10.565   1.244   7.355
 9897POPC   C1B55603  10.794   1.121   6.455
 9897POPC   C2B55604  10.744   1.059   6.755
 9897POPC   C3B55605  10.701   1.067   7.055
 9897POPC   C4B55606  10.794   1.057   7.355
 9898POPC   NC355607  19.873   8.192   5.555
 9898POPC   PO455608  19.864   8.220   5.855
 9898POPC   GL155609  19.861   8.193   6.155
 9898POPC   GL255610  19.754   8.340   6.155
 9898POPC   C1A55611  19.813   8.154   6.455
 9898POPC   D2A55612  19.787   8.177   6.755
 9898POPC   C3A55613  19.847   8.169   7.055
 9898POPC   C4A55614  19.813   8.245   7.355
 9898POPC   C1B55615  19.665   8.365   6.455
 9898POPC   C2B55616  19.658   8.420   6.755
 9898POPC   C3B55617  19.708   8.374   7.055
 9898POPC   C4B55618  19.715   8.435   7.355
 9899POPC   NC355619  12.031  12.842   5.555
 9899POPC   PO455620  12.064  12.876   5.855
 9899POPC   GL155621  12.072  12.807   6.155
 9899POPC   GL255622  11.968  12.980   6.155
 9899POPC   C1A55623  12.036  12.882   6.455
 9899POPC   D2A55624  12.034  12.827   6.755
 9899POPC   C3A55625  12.050  12.802   7.055
 9899POPC   C4A55626  12.089  12.867   7.355
 9899POPC   C1B55627  11.954  13.050   6.455
 9899POPC   C2B55628  11.925  13.099   6.755
 9899POPC   C3B55629  11.969  13.059   7.055
 9899POPC   C4B55630  11.926  13.088   7.355
 9900POPC   NC355631  43.091   5.068   5.555
 9900POPC   PO455632  43.073   5.085   5.855
 9900POPC   GL155633  43.087   5.115   6.155
 9900POPC   GL255634  43.232   5.155   6.155
 9900POPC   C1A55635  43.149   5.088   6.455
 9900POPC   D2A55636  43.117   5.134   6.755
 9900POPC   C3A55637  43.078   5.083   7.055
 9900POPC   C4A55638  43.109   5.103   7.355
 9900POPC   C1B55639  43.327   5.268   6.455
 9900POPC   C2B55640  43.287   5.199   6.755
 9900POPC   C3B55641  43.354   5.266   7.055
 9900POPC   C4B55642  43.365   5.178   7.355
 9901POPC   NC355643   6.669  37.658   5.555
 9901POPC   PO455644   6.597  37.678   5.855
 9901POPC   GL155645   6.625  37.678   6.155
 9901POPC   GL255646   6.671  37.819   6.155
 9901POPC   C1A55647   6.657  37.641   6.455
 9901POPC   D2A55648   6.673  37.660   6.755
 9901POPC   C3A55649   6.695  37.677   7.055
 9901POPC   C4A55650   6.656  37.696   7.355
 9901POPC   C1B55651   6.768  37.883   6.455
 9901POPC   C2B55652   6.814  37.866   6.755
 9901POPC   C3B55653   6.776  37.894   7.055
 9901POPC   C4B55654   6.751  37.929   7.355
 9902POPC   NC355655  16.774  36.121   5.555
 9902POPC   PO455656  16.707  36.128   5.855
 9902POPC   GL155657  16.703  36.082   6.155
 9902POPC   GL255658  16.670  36.013   6.155
 9902POPC   C1A55659  16.741  36.161   6.455
 9902POPC   D2A55660  16.714  36.117   6.755
 9902POPC   C3A55661  16.707  36.121   7.055
 9902POPC   C4A55662  16.758  36.143   7.355
 9902POPC   C1B55663  16.692  35.901   6.455
 9902POPC   C2B55664  16.691  35.847   6.755
 9902POPC   C3B55665  16.667  35.919   7.055
 9902POPC   C4B55666  16.739  35.851   7.355
 9903POPC   NC355667   7.464  19.787   5.555
 9903POPC   PO455668   7.445  19.814   5.855
 9903POPC   GL155669   7.392  19.857   6.155
 9903POPC   GL255670   7.436  19.999   6.155
 9903POPC   C1A55671   7.422  19.861   6.455
 9903POPC   D2A55672   7.445  19.802   6.755
 9903POPC   C3A55673   7.444  19.812   7.055
 9903POPC   C4A55674   7.452  19.828   7.355
 9903POPC   C1B55675   7.413  20.042   6.455
 9903POPC   C2B55676   7.419  20.037   6.755
 9903POPC   C3B55677   7.401  20.071   7.055
 9903POPC   C4B55678   7.456  20.107   7.355
 9904POPC   NC355679  22.929  14.387   5.555
 9904POPC   PO455680  22.972  14.409   5.855
 9904POPC   GL155681  22.984  14.429   6.155
 9904POPC   GL255682  22.806  14.348   6.155
 9904POPC   C1A55683  22.964  14.441   6.455
 9904POPC   D2A55684  22.893  14.360   6.755
 9904POPC   C3A55685  22.928  14.422   7.055
 9904POPC   C4A55686  22.893  14.398   7.355
 9904POPC   C1B55687  22.747  14.379   6.455
 9904POPC   C2B55688  22.698  14.285   6.755
 9904POPC   C3B55689  22.696  14.348   7.055
 9904POPC   C4B55690  22.744  14.309   7.355
 9905POPC   NC355691   5.861   1.249   5.555
 9905POPC   PO455692   5.856   1.237   5.855
 9905POPC   GL155693   5.854   1.251   6.155
 9905POPC   GL255694   5.982   1.329   6.155
 9905POPC   C1A55695   5.886   1.187   6.455
 9905POPC   D2A55696   5.850   1.222   6.755
 9905POPC   C3A55697   5.873   1.226   7.055
 9905POPC   C4A55698   5.912   1.190   7.355
 9905POPC   C1B55699   6.002   1.460   6.455
 9905POPC   C2B55700   5.976   1.464   6.755
 9905POPC   C3B55701   5.959   1.418   7.055
 9905POPC   C4B55702   6.048   1.399   7.355
 9906POPC   NC355703   2.752  38.448   5.555
 9906POPC   PO455704   2.797  38.422   5.855
 9906POPC   GL155705   2.718  38.432   6.155
 9906POPC   GL255706   2.897  38.393   6.155
 9906POPC   C1A55707   2.804  38.481   6.455
 9906POPC   D2A55708   2.719  38.448   6.755
 9906POPC   C3A55709   2.772  38.454   7.055
 9906POPC   C4A55710   2.777  38.451   7.355
 9906POPC   C1B55711   2.934  38.286   6.455
 9906POPC   C2B55712   2.893  38.318   6.755
 9906POPC   C3B55713   2.919  38.304   7.055
 9906POPC   C4B55714   2.954  38.317   7.355
 9907POPC   NC355715  30.681  19.859   5.555
 9907POPC   PO455716  30.667  19.861   5.855
 9907POPC   GL155717  30.693  19.831   6.155
 9907POPC   GL255718  30.677  19.963   6.155
 9907POPC   C1A55719  30.648  19.856   6.455
 9907POPC   D2A55720  30.744  19.805   6.755
 9907POPC   C3A55721  30.667  19.816   7.055
 9907POPC   C4A55722  30.650  19.803   7.355
 9907POPC   C1B55723  30.629  20.069   6.455
 9907POPC   C2B55724  30.602  20.058   6.755
 9907POPC   C3B55725  30.619  20.040   7.055
 9907POPC   C4B55726  30.566  20.047   7.355
 9908POPC   NC355727  15.923  10.526   5.555
 9908POPC   PO455728  15.915  10.501   5.855
 9908POPC   GL155729  15.905  10.495   6.155
 9908POPC   GL255730  16.057  10.422   6.155
 9908POPC   C1A55731  15.957  10.558   6.455
 9908POPC   D2A55732  16.003  10.484   6.755
 9908POPC   C3A55733  15.951  10.505   7.055
 9908POPC   C4A55734  15.958  10.501   7.355
 9908POPC   C1B55735  16.132  10.324   6.455
 9908POPC   C2B55736  16.100  10.334   6.755
 9908POPC   C3B55737  16.171  10.365   7.055
 9908POPC   C4B55738  16.157  10.320   7.355
 9909POPC   NC355739  29.120  22.144   5.555
 9909POPC   PO455740  29.121  22.206   5.855
 9909POPC   GL155741  29.153  22.198   6.155
 9909POPC   GL255742  29.245  22.035   6.155
 9909POPC   C1A55743  29.158  22.135   6.455
 9909POPC   D2A55744  29.186  22.146   6.755
 9909POPC   C3A55745  29.175  22.127   7.055
 9909POPC   C4A55746  29.111  22.169   7.355
 9909POPC   C1B55747  29.234  21.948   6.455
 9909POPC   C2B55748  29.264  21.938   6.755
 9909POPC   C3B55749  29.244  21.985   7.055
 9909POPC   C4B55750  29.260  21.899   7.355
 9910POPC   NC355751   5.911  17.469   5.555
 9910POPC   PO455752   5.888  17.470   5.855
 9910POPC   GL155753   5.911  17.514   6.155
 9910POPC   GL255754   5.917  17.588   6.155
 9910POPC   C1A55755   5.831  17.530   6.455
 9910POPC   D2A55756   5.890  17.538   6.755
 9910POPC   C3A55757   5.892  17.502   7.055
 9910POPC   C4A55758   5.905  17.462   7.355
 9910POPC   C1B55759   6.010  17.687   6.455
 9910POPC   C2B55760   6.011  17.708   6.755
 9910POPC   C3B55761   6.086  17.640   7.055
 9910POPC   C4B55762   6.078  17.715   7.355
 9911POPC   NC355763   0.464  16.694   5.555
 9911POPC   PO455764   0.443  16.772   5.855
 9911POPC   GL155765   0.476  16.729   6.155
 9911POPC   GL255766   0.343  16.815   6.155
 9911POPC   C1A55767   0.402  16.780   6.455
 9911POPC   D2A55768   0.444  16.720   6.755
 9911POPC   C3A55769   0.467  16.714   7.055
 9911POPC   C4A55770   0.459  16.686   7.355
 9911POPC   C1B55771   0.227  16.898   6.455
 9911POPC   C2B55772   0.235  16.845   6.755
 9911POPC   C3B55773   0.208  16.860   7.055
 9911POPC   C4B55774   0.240  16.915   7.355
 9912POPC   NC355775  13.618  44.655   5.555
 9912POPC   PO455776  13.621  44.634   5.855
 9912POPC   GL155777  13.633  44.646   6.155
 9912POPC   GL255778  13.662  44.539   6.155
 9912POPC   C1A55779  13.614  44.707   6.455
 9912POPC   D2A55780  13.605  44.637   6.755
 9912POPC   C3A55781  13.673  44.707   7.055
 9912POPC   C4A55782  13.591  44.691   7.355
 9912POPC   C1B55783  13.734  44.445   6.455
 9912POPC   C2B55784  13.752  44.422   6.755
 9912POPC   C3B55785  13.721  44.434   7.055
 9912POPC   C4B55786  13.692  44.462   7.355
 9913POPC   NC355787  44.697  26.056   5.555
 9913POPC   PO455788  44.670  26.082   5.855
 9913POPC   GL155789  44.697  26.000   6.155
 9913POPC   GL255790  44.564  26.103   6.155
 9913POPC   C1A55791  44.699  26.018   6.455
 9913POPC   D2A55792  44.672  26.042   6.755
 9913POPC   C3A55793  44.623  26.017   7.055
 9913POPC   C4A55794  44.649  26.080   7.355
 9913POPC   C1B55795  44.426  26.180   6.455
 9913POPC   C2B55796  44.477  26.208   6.755
 9913POPC   C3B55797  44.486  26.173   7.055
 9913POPC   C4B55798  44.463  26.237   7.355
 9914POPC   NC355799  34.532  21.373   5.555
 9914POPC   PO455800  34.575  21.347   5.855
 9914POPC   GL155801  34.572  21.393   6.155
 9914POPC   GL255802  34.744  21.403   6.155
 9914POPC   C1A55803  34.590  21.417   6.455
 9914POPC   D2A55804  34.570  21.408   6.755
 9914POPC   C3A55805  34.619  21.378   7.055
 9914POPC   C4A55806  34.586  21.383   7.355
 9914POPC   C1B55807  34.824  21.293   6.455
 9914POPC   C2B55808  34.855  21.355   6.755
 9914POPC   C3B55809  34.842  21.320   7.055
 9914POPC   C4B55810  34.866  21.338   7.355
 9915POPC   NC355811  23.677  41.547   5.555
 9915POPC   PO455812  23.708  41.562   5.855
 9915POPC   GL155813  23.745  41.547   6.155
 9915POPC   GL255814  23.636  41.654   6.155
 9915POPC   C1A55815  23.669  41.555   6.455
 9915POPC   D2A55816  23.759  41.541   6.755
 9915POPC   C3A55817  23.705  41.533   7.055
 9915POPC   C4A55818  23.748  41.579   7.355
 9915POPC   C1B55819  23.591  41.710   6.455
 9915POPC   C2B55820  23.515  41.721   6.755
 9915POPC   C3B55821  23.581  41.786   7.055
 9915POPC   C4B55822  23.566  41.780   7.355
 9916POPC   NC355823  18.294   4.318   5.555
 9916POPC   PO455824  18.283   4.284   5.855
 9916POPC   GL155825  18.312   4.296   6.155
 9916POPC   GL255826  18.266   4.409   6.155
 9916POPC   C1A55827  18.332   4.330   6.455
 9916POPC   D2A55828  18.293   4.354   6.755
 9916POPC   C3A55829  18.269   4.293   7.055
 9916POPC   C4A55830  18.271   4.288   7.355
 9916POPC   C1B55831  18.271   4.599   6.455
 9916POPC   C2B55832  18.337   4.536   6.755
 9916POPC   C3B55833  18.334   4.543   7.055
 9916POPC   C4B55834  18.323   4.598   7.355
 9917POPC   NC355835  25.238  31.501   5.555
 9917POPC   PO455836  25.273  31.436   5.855
 9917POPC   GL155837  25.221  31.478   6.155
 9917POPC   GL255838  25.389  31.589   6.155
 9917POPC   C1A55839  25.304  31.439   6.455
 9917POPC   D2A55840  25.254  31.481   6.755
 9917POPC   C3A55841  25.254  31.483   7.055
 9917POPC   C4A55842  25.264  31.519   7.355
 9917POPC   C1B55843  25.440  31.687   6.455
 9917POPC   C2B55844  25.404  31.675   6.755
 9917POPC   C3B55845  25.425  31.694   7.055
 9917POPC   C4B55846  25.378  31.704   7.355
 9918POPC   NC355847  19.057  39.277   5.555
 9918POPC   PO455848  19.030  39.194   5.855
 9918POPC   GL155849  19.095  39.202   6.155
 9918POPC   GL255850  19.063  39.309   6.155
 9918POPC   C1A55851  19.039  39.271   6.455
 9918POPC   D2A55852  19.057  39.230   6.755
 9918POPC   C3A55853  19.109  39.197   7.055
 9918POPC   C4A55854  19.028  39.200   7.355
 9918POPC   C1B55855  19.139  39.466   6.455
 9918POPC   C2B55856  19.125  39.506   6.755
 9918POPC   C3B55857  19.117  39.465   7.055
 9918POPC   C4B55858  19.152  39.472   7.355
 9919POPC   NC355859  19.051  26.014   5.555
 9919POPC   PO455860  19.088  26.030   5.855
 9919POPC   GL155861  19.076  26.029   6.155
 9919POPC   GL255862  19.043  25.875   6.155
 9919POPC   C1A55863  19.042  26.075   6.455
 9919POPC   D2A55864  19.090  25.992   6.755
 9919POPC   C3A55865  19.075  26.014   7.055
 9919POPC   C4A55866  19.086  26.046   7.355
 9919POPC   C1B55867  19.100  25.816   6.455
 9919POPC   C2B55868  19.059  25.790   6.755
 9919POPC   C3B55869  19.074  25.814   7.055
 9919POPC   C4B55870  19.117  25.816   7.355
 9920POPC   NC355871   6.656   2.786   5.555
 9920POPC   PO455872   6.694   2.726   5.855
 9920POPC   GL155873   6.642   2.812   6.155
 9920POPC   GL255874   6.818   2.748   6.155
 9920POPC   C1A55875   6.683   2.765   6.455
 9920POPC   D2A55876   6.675   2.724   6.755
 9920POPC   C3A55877   6.655   2.769   7.055
 9920POPC   C4A55878   6.619   2.720   7.355
 9920POPC   C1B55879   6.897   2.772   6.455
 9920POPC   C2B55880   6.939   2.768   6.755
 9920POPC   C3B55881   6.898   2.815   7.055
 9920POPC   C4B55882   6.848   2.828   7.355
 9921POPC   NC355883  38.407  23.724   5.555
 9921POPC   PO455884  38.406  23.700   5.855
 9921POPC   GL155885  38.426  23.761   6.155
 9921POPC   GL255886  38.392  23.827   6.155
 9921POPC   C1A55887  38.465  23.727   6.455
 9921POPC   D2A55888  38.472  23.751   6.755
 9921POPC   C3A55889  38.409  23.738   7.055
 9921POPC   C4A55890  38.406  23.698   7.355
 9921POPC   C1B55891  38.310  23.881   6.455
 9921POPC   C2B55892  38.334  23.894   6.755
 9921POPC   C3B55893  38.313  23.950   7.055
 9921POPC   C4B55894  38.283  23.963   7.355
 9922POPC   NC355895  40.027  20.659   5.555
 9922POPC   PO455896  40.046  20.634   5.855
 9922POPC   GL155897  40.009  20.599   6.155
 9922POPC   GL255898  40.074  20.481   6.155
 9922POPC   C1A55899  39.972  20.602   6.455
 9922POPC   D2A55900  39.964  20.596   6.755
 9922POPC   C3A55901  40.017  20.585   7.055
 9922POPC   C4A55902  39.982  20.648   7.355
 9922POPC   C1B55903  40.179  20.473   6.455
 9922POPC   C2B55904  40.217  20.468   6.755
 9922POPC   C3B55905  40.210  20.443   7.055
 9922POPC   C4B55906  40.215  20.451   7.355
 9923POPC   NC355907  31.430  44.672   5.555
 9923POPC   PO455908  31.430  44.710   5.855
 9923POPC   GL155909  31.456  44.710   6.155
 9923POPC   GL255910  31.440  44.581   6.155
 9923POPC   C1A55911  31.428  44.620   6.455
 9923POPC   D2A55912  31.472  44.622   6.755
 9923POPC   C3A55913  31.487  44.685   7.055
 9923POPC   C4A55914  31.521  44.669   7.355
 9923POPC   C1B55915  31.369  44.423   6.455
 9923POPC   C2B55916  31.340  44.399   6.755
 9923POPC   C3B55917  31.344  44.468   7.055
 9923POPC   C4B55918  31.398  44.464   7.355
 9924POPC   NC355919  36.885  39.993   5.555
 9924POPC   PO455920  36.872  40.009   5.855
 9924POPC   GL155921  36.898  39.961   6.155
 9924POPC   GL255922  37.070  40.089   6.155
 9924POPC   C1A55923  36.881  39.988   6.455
 9924POPC   D2A55924  36.928  40.042   6.755
 9924POPC   C3A55925  36.871  39.980   7.055
 9924POPC   C4A55926  36.879  40.027   7.355
 9924POPC   C1B55927  37.110  40.079   6.455
 9924POPC   C2B55928  37.167  40.087   6.755
 9924POPC   C3B55929  37.148  40.100   7.055
 9924POPC   C4B55930  37.121  40.076   7.355
 9925POPC   NC355931  28.364  12.094   5.555
 9925POPC   PO455932  28.344  12.119   5.855
 9925POPC   GL155933  28.347  12.068   6.155
 9925POPC   GL255934  28.199  12.008   6.155
 9925POPC   C1A55935  28.417  12.031   6.455
 9925POPC   D2A55936  28.410  12.047   6.755
 9925POPC   C3A55937  28.360  12.113   7.055
 9925POPC   C4A55938  28.405  12.076   7.355
 9925POPC   C1B55939  28.133  12.008   6.455
 9925POPC   C2B55940  28.171  12.041   6.755
 9925POPC   C3B55941  28.142  11.983   7.055
 9925POPC   C4B55942  28.165  12.057   7.355
 9926POPC   NC355943  16.727   8.997   5.555
 9926POPC   PO455944  16.691   9.007   5.855
 9926POPC   GL155945  16.726   8.994   6.155
 9926POPC   GL255946  16.669   9.092   6.155
 9926POPC   C1A55947  16.699   9.017   6.455
 9926POPC   D2A55948  16.718   8.955   6.755
 9926POPC   C3A55949  16.758   8.957   7.055
 9926POPC   C4A55950  16.712   9.018   7.355
 9926POPC   C1B55951  16.517   9.083   6.455
 9926POPC   C2B55952  16.526   9.133   6.755
 9926POPC   C3B55953  16.492   9.087   7.055
 9926POPC   C4B55954  16.535   9.141   7.355
 9927POPC   NC355955  25.253  32.975   5.555
 9927POPC   PO455956  25.222  32.976   5.855
 9927POPC   GL155957  25.291  33.053   6.155
 9927POPC   GL255958  25.107  32.948   6.155
 9927POPC   C1A55959  25.271  33.006   6.455
 9927POPC   D2A55960  25.270  33.029   6.755
 9927POPC   C3A55961  25.225  33.057   7.055
 9927POPC   C4A55962  25.263  33.014   7.355
 9927POPC   C1B55963  25.017  32.881   6.455
 9927POPC   C2B55964  24.997  32.965   6.755
 9927POPC   C3B55965  25.057  32.920   7.055
 9927POPC   C4B55966  24.997  32.911   7.355
 9928POPC   NC355967  12.038  39.991   5.555
 9928POPC   PO455968  12.036  40.048   5.855
 9928POPC   GL155969  12.107  39.979   6.155
 9928POPC   GL255970  12.112  39.903   6.155
 9928POPC   C1A55971  12.126  39.981   6.455
 9928POPC   D2A55972  12.053  40.006   6.755
 9928POPC   C3A55973  12.085  40.035   7.055
 9928POPC   C4A55974  12.037  40.028   7.355
 9928POPC   C1B55975  12.035  39.803   6.455
 9928POPC   C2B55976  12.093  39.768   6.755
 9928POPC   C3B55977  12.070  39.742   7.055
 9928POPC   C4B55978  12.066  39.712   7.355
 9929POPC   NC355979  19.095  41.564   5.555
 9929POPC   PO455980  19.044  41.523   5.855
 9929POPC   GL155981  19.074  41.533   6.155
 9929POPC   GL255982  19.029  41.471   6.155
 9929POPC   C1A55983  19.036  41.539   6.455
 9929POPC   D2A55984  19.018  41.568   6.755
 9929POPC   C3A55985  19.029  41.539   7.055
 9929POPC   C4A55986  19.101  41.585   7.355
 9929POPC   C1B55987  19.015  41.305   6.455
 9929POPC   C2B55988  19.039  41.309   6.755
 9929POPC   C3B55989  19.044  41.294   7.055
 9929POPC   C4B55990  19.048  41.292   7.355
 9930POPC   NC355991   4.331   8.997   5.555
 9930POPC   PO455992   4.268   9.012   5.855
 9930POPC   GL155993   4.358   8.930   6.155
 9930POPC   GL255994   4.249   9.068   6.155
 9930POPC   C1A55995   4.366   8.954   6.455
 9930POPC   D2A55996   4.319   8.978   6.755
 9930POPC   C3A55997   4.293   8.970   7.055
 9930POPC   C4A55998   4.325   8.963   7.355
 9930POPC   C1B55999   4.203   9.157   6.455
 9930POPC   C2B56000   4.248   9.228   6.755
 9930POPC   C3B56001   4.195   9.228   7.055
 9930POPC   C4B56002   4.228   9.182   7.355
 9931POPC   NC356003  13.641   2.737   5.555
 9931POPC   PO456004  13.630   2.767   5.855
 9931POPC   GL156005  13.604   2.791   6.155
 9931POPC   GL256006  13.560   2.873   6.155
 9931POPC   C1A56007  13.625   2.739   6.455
 9931POPC   D2A56008  13.604   2.720   6.755
 9931POPC   C3A56009  13.603   2.760   7.055
 9931POPC   C4A56010  13.601   2.757   7.355
 9931POPC   C1B56011  13.615   2.992   6.455
 9931POPC   C2B56012  13.576   2.975   6.755
 9931POPC   C3B56013  13.558   2.989   7.055
 9931POPC   C4B56014  13.524   3.001   7.355
 9932POPC   NC356015   4.290  43.083   5.555
 9932POPC   PO456016   4.354  43.082   5.855
 9932POPC   GL156017   4.355  43.140   6.155
 9932POPC   GL256018   4.246  42.996   6.155
 9932POPC   C1A56019   4.309  43.077   6.455
 9932POPC   D2A56020   4.334  43.116   6.755
 9932POPC   C3A56021   4.351  43.148   7.055
 9932POPC   C4A56022   4.328  43.159   7.355
 9932POPC   C1B56023   4.158  42.952   6.455
 9932POPC   C2B56024   4.113  42.962   6.755
 9932POPC   C3B56025   4.123  42.894   7.055
 9932POPC   C4B56026   4.178  42.905   7.355
 9933POPC   NC356027  33.060  14.436   5.555
 9933POPC   PO456028  32.990  14.453   5.855
 9933POPC   GL156029  32.998  14.398   6.155
 9933POPC   GL256030  32.927  14.498   6.155
 9933POPC   C1A56031  32.983  14.355   6.455
 9933POPC   D2A56032  32.997  14.377   6.755
 9933POPC   C3A56033  33.010  14.370   7.055
 9933POPC   C4A56034  32.980  14.405   7.355
 9933POPC   C1B56035  32.852  14.634   6.455
 9933POPC   C2B56036  32.851  14.640   6.755
 9933POPC   C3B56037  32.883  14.550   7.055
 9933POPC   C4B56038  32.896  14.607   7.355
 9934POPC   NC356039  12.072  36.098   5.555
 9934POPC   PO456040  12.089  36.121   5.855
 9934POPC   GL156041  12.111  36.081   6.155
 9934POPC   GL256042  11.916  36.184   6.155
 9934POPC   C1A56043  12.047  36.111   6.455
 9934POPC   D2A56044  12.028  36.108   6.755
 9934POPC   C3A56045  12.035  36.123   7.055
 9934POPC   C4A56046  12.122  36.168   7.355
 9934POPC   C1B56047  11.870  36.194   6.455
 9934POPC   C2B56048  11.792  36.250   6.755
 9934POPC   C3B56049  11.812  36.153   7.055
 9934POPC   C4B56050  11.788  36.169   7.355
 9935POPC   NC356051  15.182   2.739   5.555
 9935POPC   PO456052  15.166   2.784   5.855
 9935POPC   GL156053  15.199   2.808   6.155
 9935POPC   GL256054  15.238   2.826   6.155
 9935POPC   C1A56055  15.178   2.717   6.455
 9935POPC   D2A56056  15.151   2.797   6.755
 9935POPC   C3A56057  15.203   2.762   7.055
 9935POPC   C4A56058  15.149   2.812   7.355
 9935POPC   C1B56059  15.412   2.952   6.455
 9935POPC   C2B56060  15.378   2.900   6.755
 9935POPC   C3B56061  15.355   2.924   7.055
 9935POPC   C4B56062  15.411   2.909   7.355
 9936POPC   NC356063  13.672  24.459   5.555
 9936POPC   PO456064  13.636  24.476   5.855
 9936POPC   GL156065  13.579  24.440   6.155
 9936POPC   GL256066  13.486  24.465   6.155
 9936POPC   C1A56067  13.619  24.500   6.455
 9936POPC   D2A56068  13.676  24.503   6.755
 9936POPC   C3A56069  13.635  24.450   7.055
 9936POPC   C4A56070  13.622  24.482   7.355
 9936POPC   C1B56071  13.381  24.374   6.455
 9936POPC   C2B56072  13.408  24.401   6.755
 9936POPC   C3B56073  13.379  24.386   7.055
 9936POPC   C4B56074  13.411  24.390   7.355
 9937POPC   NC356075  24.530  31.466   5.555
 9937POPC   PO456076  24.484  31.500   5.855
 9937POPC   GL156077  24.536  31.507   6.155
 9937POPC   GL256078  24.651  31.543   6.155
 9937POPC   C1A56079  24.470  31.519   6.455
 9937POPC   D2A56080  24.539  31.496   6.755
 9937POPC   C3A56081  24.531  31.482   7.055
 9937POPC   C4A56082  24.464  31.511   7.355
 9937POPC   C1B56083  24.750  31.537   6.455
 9937POPC   C2B56084  24.752  31.523   6.755
 9937POPC   C3B56085  24.779  31.549   7.055
 9937POPC   C4B56086  24.769  31.493   7.355
 9938POPC   NC356087  23.716  22.981   5.555
 9938POPC   PO456088  23.712  22.980   5.855
 9938POPC   GL156089  23.690  22.926   6.155
 9938POPC   GL256090  23.803  23.039   6.155
 9938POPC   C1A56091  23.741  22.888   6.455
 9938POPC   D2A56092  23.714  22.979   6.755
 9938POPC   C3A56093  23.702  22.977   7.055
 9938POPC   C4A56094  23.745  22.955   7.355
 9938POPC   C1B56095  23.844  23.088   6.455
 9938POPC   C2B56096  23.841  23.137   6.755
 9938POPC   C3B56097  23.881  23.149   7.055
 9938POPC   C4B56098  23.926  23.165   7.355
 9939POPC   NC356099  27.578  23.680   5.555
 9939POPC   PO456100  27.627  23.693   5.855
 9939POPC   GL156101  27.567  23.679   6.155
 9939POPC   GL256102  27.478  23.670   6.155
 9939POPC   C1A56103  27.559  23.730   6.455
 9939POPC   D2A56104  27.559  23.728   6.755
 9939POPC   C3A56105  27.620  23.763   7.055
 9939POPC   C4A56106  27.596  23.667   7.355
 9939POPC   C1B56107  27.387  23.652   6.455
 9939POPC   C2B56108  27.403  23.649   6.755
 9939POPC   C3B56109  27.321  23.631   7.055
 9939POPC   C4B56110  27.345  23.595   7.355
 9940POPC   NC356111   7.409  30.662   5.555
 9940POPC   PO456112   7.388  30.671   5.855
 9940POPC   GL156113   7.392  30.656   6.155
 9940POPC   GL256114   7.523  30.641   6.155
 9940POPC   C1A56115   7.404  30.723   6.455
 9940POPC   D2A56116   7.379  30.700   6.755
 9940POPC   C3A56117   7.455  30.715   7.055
 9940POPC   C4A56118   7.372  30.682   7.355
 9940POPC   C1B56119   7.575  30.486   6.455
 9940POPC   C2B56120   7.590  30.502   6.755
 9940POPC   C3B56121   7.551  30.463   7.055
 9940POPC   C4B56122   7.553  30.533   7.355
 9941POPC   NC356123   8.212   0.413   5.555
 9941POPC   PO456124   8.178   0.486   5.855
 9941POPC   GL156125   8.201   0.408   6.155
 9941POPC   GL256126   8.254   0.345   6.155
 9941POPC   C1A56127   8.160   0.454   6.455
 9941POPC   D2A56128   8.213   0.409   6.755
 9941POPC   C3A56129   8.182   0.474   7.055
 9941POPC   C4A56130   8.202   0.402   7.355
 9941POPC   C1B56131   8.372   0.309   6.455
 9941POPC   C2B56132   8.410   0.271   6.755
 9941POPC   C3B56133   8.408   0.258   7.055
 9941POPC   C4B56134   8.422   0.285   7.355
 9942POPC   NC356135  19.048   4.314   5.555
 9942POPC   PO456136  19.030   4.289   5.855
 9942POPC   GL156137  19.078   4.343   6.155
 9942POPC   GL256138  19.050   4.177   6.155
 9942POPC   C1A56139  19.055   4.321   6.455
 9942POPC   D2A56140  19.060   4.355   6.755
 9942POPC   C3A56141  19.073   4.294   7.055
 9942POPC   C4A56142  19.012   4.282   7.355
 9942POPC   C1B56143  18.926   4.046   6.455
 9942POPC   C2B56144  18.951   4.090   6.755
 9942POPC   C3B56145  18.953   4.138   7.055
 9942POPC   C4B56146  18.914   4.107   7.355
 9943POPC   NC356147  30.705  43.860   5.555
 9943POPC   PO456148  30.722  43.875   5.855
 9943POPC   GL156149  30.696  43.867   6.155
 9943POPC   GL256150  30.758  43.957   6.155
 9943POPC   C1A56151  30.653  43.840   6.455
 9943POPC   D2A56152  30.739  43.898   6.755
 9943POPC   C3A56153  30.715  43.866   7.055
 9943POPC   C4A56154  30.666  43.918   7.355
 9943POPC   C1B56155  30.843  44.033   6.455
 9943POPC   C2B56156  30.838  44.045   6.755
 9943POPC   C3B56157  30.856  44.059   7.055
 9943POPC   C4B56158  30.860  44.038   7.355
 9944POPC   NC356159  18.271  34.560   5.555
 9944POPC   PO456160  18.290  34.577   5.855
 9944POPC   GL156161  18.243  34.553   6.155
 9944POPC   GL256162  18.404  34.539   6.155
 9944POPC   C1A56163  18.270  34.614   6.455
 9944POPC   D2A56164  18.292  34.602   6.755
 9944POPC   C3A56165  18.298  34.544   7.055
 9944POPC   C4A56166  18.302  34.542   7.355
 9944POPC   C1B56167  18.485  34.501   6.455
 9944POPC   C2B56168  18.506  34.514   6.755
 9944POPC   C3B56169  18.487  34.584   7.055
 9944POPC   C4B56170  18.497  34.516   7.355
 9945POPC   NC356171  34.553  43.071   5.555
 9945POPC   PO456172  34.607  43.090   5.855
 9945POPC   GL156173  34.574  43.139   6.155
 9945POPC   GL256174  34.658  43.028   6.155
 9945POPC   C1A56175  34.586  43.065   6.455
 9945POPC   D2A56176  34.559  43.158   6.755
 9945POPC   C3A56177  34.578  43.129   7.055
 9945POPC   C4A56178  34.537  43.137   7.355
 9945POPC   C1B56179  34.748  42.957   6.455
 9945POPC   C2B56180  34.815  43.021   6.755
 9945POPC   C3B56181  34.783  43.016   7.055
 9945POPC   C4B56182  34.825  43.042   7.355
 9946POPC   NC356183  16.739  39.266   5.555
 9946POPC   PO456184  16.731  39.230   5.855
 9946POPC   GL156185  16.700  39.222   6.155
 9946POPC   GL256186  16.853  39.185   6.155
 9946POPC   C1A56187  16.776  39.184   6.455
 9946POPC   D2A56188  16.698  39.216   6.755
 9946POPC   C3A56189  16.742  39.230   7.055
 9946POPC   C4A56190  16.718  39.231   7.355
 9946POPC   C1B56191  17.002  39.236   6.455
 9946POPC   C2B56192  16.933  39.281   6.755
 9946POPC   C3B56193  16.977  39.268   7.055
 9946POPC   C4B56194  17.014  39.244   7.355
 9947POPC   NC356195   3.559   2.010   5.555
 9947POPC   PO456196   3.547   2.023   5.855
 9947POPC   GL156197   3.498   2.037   6.155
 9947POPC   GL256198   3.468   1.913   6.155
 9947POPC   C1A56199   3.522   1.994   6.455
 9947POPC   D2A56200   3.558   1.975   6.755
 9947POPC   C3A56201   3.589   1.967   7.055
 9947POPC   C4A56202   3.554   2.028   7.355
 9947POPC   C1B56203   3.447   1.774   6.455
 9947POPC   C2B56204   3.494   1.799   6.755
 9947POPC   C3B56205   3.465   1.732   7.055
 9947POPC   C4B56206   3.462   1.741   7.355
 9948POPC   NC356207   8.236  35.352   5.555
 9948POPC   PO456208   8.223  35.311   5.855
 9948POPC   GL156209   8.164  35.387   6.155
 9948POPC   GL256210   8.139  35.228   6.155
 9948POPC   C1A56211   8.211  35.346   6.455
 9948POPC   D2A56212   8.190  35.317   6.755
 9948POPC   C3A56213   8.206  35.322   7.055
 9948POPC   C4A56214   8.155  35.349   7.355
 9948POPC   C1B56215   8.095  35.195   6.455
 9948POPC   C2B56216   8.052  35.116   6.755
 9948POPC   C3B56217   8.076  35.111   7.055
 9948POPC   C4B56218   8.068  35.130   7.355
 9949POPC   NC356219   5.901  33.040   5.555
 9949POPC   PO456220   5.844  33.063   5.855
 9949POPC   GL156221   5.836  33.008   6.155
 9949POPC   GL256222   5.826  33.108   6.155
 9949POPC   C1A56223   5.916  33.050   6.455
 9949POPC   D2A56224   5.855  33.036   6.755
 9949POPC   C3A56225   5.827  33.050   7.055
 9949POPC   C4A56226   5.830  32.985   7.355
 9949POPC   C1B56227   5.738  33.196   6.455
 9949POPC   C2B56228   5.773  33.280   6.755
 9949POPC   C3B56229   5.729  33.254   7.055
 9949POPC   C4B56230   5.716  33.190   7.355
 9950POPC   NC356231   4.310  36.943   5.555
 9950POPC   PO456232   4.356  36.895   5.855
 9950POPC   GL156233   4.288  36.897   6.155
 9950POPC   GL256234   4.360  36.829   6.155
 9950POPC   C1A56235   4.290  36.897   6.455
 9950POPC   D2A56236   4.342  36.909   6.755
 9950POPC   C3A56237   4.317  36.931   7.055
 9950POPC   C4A56238   4.277  36.900   7.355
 9950POPC   C1B56239   4.400  36.721   6.455
 9950POPC   C2B56240   4.412  36.637   6.755
 9950POPC   C3B56241   4.432  36.732   7.055
 9950POPC   C4B56242   4.405  36.647   7.355
 9951POPC   NC356243  40.820  41.524   5.555
 9951POPC   PO456244  40.749  41.534   5.855
 9951POPC   GL156245  40.808  41.537   6.155
 9951POPC   GL256246  40.843  41.527   6.155
 9951POPC   C1A56247  40.803  41.569   6.455
 9951POPC   D2A56248  40.792  41.589   6.755
 9951POPC   C3A56249  40.756  41.577   7.055
 9951POPC   C4A56250  40.803  41.543   7.355
 9951POPC   C1B56251  40.963  41.445   6.455
 9951POPC   C2B56252  40.928  41.383   6.755
 9951POPC   C3B56253  41.019  41.375   7.055
 9951POPC   C4B56254  41.014  41.381   7.355
 9952POPC   NC356255  40.014  12.805   5.555
 9952POPC   PO456256  40.054  12.898   5.855
 9952POPC   GL156257  40.041  12.882   6.155
 9952POPC   GL256258  40.161  12.849   6.155
 9952POPC   C1A56259  39.961  12.854   6.455
 9952POPC   D2A56260  40.053  12.893   6.755
 9952POPC   C3A56261  39.988  12.840   7.055
 9952POPC   C4A56262  39.966  12.835   7.355
 9952POPC   C1B56263  40.276  12.809   6.455
 9952POPC   C2B56264  40.249  12.743   6.755
 9952POPC   C3B56265  40.284  12.752   7.055
 9952POPC   C4B56266  40.249  12.789   7.355
 9953POPC   NC356267  29.921   4.267   5.555
 9953POPC   PO456268  29.954   4.366   5.855
 9953POPC   GL156269  29.911   4.285   6.155
 9953POPC   GL256270  29.917   4.235   6.155
 9953POPC   C1A56271  29.882   4.349   6.455
 9953POPC   D2A56272  29.946   4.293   6.755
 9953POPC   C3A56273  29.914   4.295   7.055
 9953POPC   C4A56274  29.888   4.312   7.355
 9953POPC   C1B56275  29.949   4.083   6.455
 9953POPC   C2B56276  29.928   4.049   6.755
 9953POPC   C3B56277  29.951   4.080   7.055
 9953POPC   C4B56278  29.868   4.041   7.355
 9954POPC   NC356279   6.623   5.050   5.555
 9954POPC   PO456280   6.667   5.105   5.855
 9954POPC   GL156281   6.608   5.101   6.155
 9954POPC   GL256282   6.734   5.169   6.155
 9954POPC   C1A56283   6.666   5.143   6.455
 9954POPC   D2A56284   6.680   5.118   6.755
 9954POPC   C3A56285   6.636   5.143   7.055
 9954POPC   C4A56286   6.604   5.067   7.355
 9954POPC   C1B56287   6.841   5.250   6.455
 9954POPC   C2B56288   6.810   5.259   6.755
 9954POPC   C3B56289   6.870   5.210   7.055
 9954POPC   C4B56290   6.891   5.205   7.355
 9955POPC   NC356291  42.291   1.247   5.555
 9955POPC   PO456292  42.369   1.187   5.855
 9955POPC   GL156293  42.309   1.237   6.155
 9955POPC   GL256294  42.431   1.228   6.155
 9955POPC   C1A56295  42.355   1.192   6.455
 9955POPC   D2A56296  42.380   1.182   6.755
 9955POPC   C3A56297  42.355   1.217   7.055
 9955POPC   C4A56298  42.298   1.195   7.355
 9955POPC   C1B56299  42.557   1.124   6.455
 9955POPC   C2B56300  42.580   1.209   6.755
 9955POPC   C3B56301  42.614   1.180   7.055
 9955POPC   C4B56302  42.581   1.183   7.355
 9956POPC   NC356303  26.057  43.105   5.555
 9956POPC   PO456304  26.054  43.069   5.855
 9956POPC   GL156305  26.018  43.082   6.155
 9956POPC   GL256306  25.886  43.140   6.155
 9956POPC   C1A56307  26.058  43.071   6.455
 9956POPC   D2A56308  26.038  43.101   6.755
 9956POPC   C3A56309  25.993  43.113   7.055
 9956POPC   C4A56310  26.053  43.097   7.355
 9956POPC   C1B56311  25.752  43.047   6.455
 9956POPC   C2B56312  25.819  43.121   6.755
 9956POPC   C3B56313  25.827  43.056   7.055
 9956POPC   C4B56314  25.779  43.051   7.355
 9957POPC   NC356315  25.291  28.348   5.555
 9957POPC   PO456316  25.249  28.417   5.855
 9957POPC   GL156317  25.303  28.332   6.155
 9957POPC   GL256318  25.293  28.479   6.155
 9957POPC   C1A56319  25.311  28.371   6.455
 9957POPC   D2A56320  25.285  28.418   6.755
 9957POPC   C3A56321  25.307  28.410   7.055
 9957POPC   C4A56322  25.232  28.373   7.355
 9957POPC   C1B56323  25.329  28.624   6.455
 9957POPC   C2B56324  25.319  28.617   6.755
 9957POPC   C3B56325  25.304  28.648   7.055
 9957POPC   C4B56326  25.308  28.618   7.355
 9958POPC   NC356327  35.357  14.403   5.555
 9958POPC   PO456328  35.400  14.365   5.855
 9958POPC   GL156329  35.380  14.389   6.155
 9958POPC   GL256330  35.353  14.558   6.155
 9958POPC   C1A56331  35.365  14.395   6.455
 9958POPC   D2A56332  35.368  14.437   6.755
 9958POPC   C3A56333  35.352  14.395   7.055
 9958POPC   C4A56334  35.387  14.398   7.355
 9958POPC   C1B56335  35.400  14.668   6.455
 9958POPC   C2B56336  35.472  14.677   6.755
 9958POPC   C3B56337  35.472  14.597   7.055
 9958POPC   C4B56338  35.430  14.588   7.355
 9959POPC   NC356339  35.342  11.275   5.555
 9959POPC   PO456340  35.374  11.303   5.855
 9959POPC   GL156341  35.343  11.287   6.155
 9959POPC   GL256342  35.433  11.162   6.155
 9959POPC   C1A56343  35.364  11.307   6.455
 9959POPC   D2A56344  35.305  11.313   6.755
 9959POPC   C3A56345  35.359  11.296   7.055
 9959POPC   C4A56346  35.308  11.308   7.355
 9959POPC   C1B56347  35.506  11.125   6.455
 9959POPC   C2B56348  35.511  11.159   6.755
 9959POPC   C3B56349  35.503  11.102   7.055
 9959POPC   C4B56350  35.477  11.073   7.355
 9960POPC   NC356351  39.192  23.739   5.555
 9960POPC   PO456352  39.246  23.740   5.855
 9960POPC   GL156353  39.183  23.701   6.155
 9960POPC   GL256354  39.161  23.588   6.155
 9960POPC   C1A56355  39.186  23.672   6.455
 9960POPC   D2A56356  39.235  23.736   6.755
 9960POPC   C3A56357  39.202  23.676   7.055
 9960POPC   C4A56358  39.202  23.707   7.355
 9960POPC   C1B56359  39.172  23.514   6.455
 9960POPC   C2B56360  39.143  23.521   6.755
 9960POPC   C3B56361  39.186  23.442   7.055
 9960POPC   C4B56362  39.177  23.433   7.355
 9961POPC   NC356363  14.389  32.243   5.555
 9961POPC   PO456364  14.368  32.205   5.855
 9961POPC   GL156365  14.361  32.262   6.155
 9961POPC   GL256366  14.528  32.321   6.155
 9961POPC   C1A56367  14.448  32.287   6.455
 9961POPC   D2A56368  14.413  32.222   6.755
 9961POPC   C3A56369  14.397  32.258   7.055
 9961POPC   C4A56370  14.387  32.229   7.355
 9961POPC   C1B56371  14.607  32.256   6.455
 9961POPC   C2B56372  14.632  32.251   6.755
 9961POPC   C3B56373  14.675  32.279   7.055
 9961POPC   C4B56374  14.687  32.319   7.355
 9962POPC   NC356375  13.583  37.646   5.555
 9962POPC   PO456376  13.667  37.673   5.855
 9962POPC   GL156377  13.672  37.691   6.155
 9962POPC   GL256378  13.591  37.787   6.155
 9962POPC   C1A56379  13.649  37.666   6.455
 9962POPC   D2A56380  13.662  37.648   6.755
 9962POPC   C3A56381  13.610  37.645   7.055
 9962POPC   C4A56382  13.647  37.716   7.355
 9962POPC   C1B56383  13.519  37.879   6.455
 9962POPC   C2B56384  13.544  37.911   6.755
 9962POPC   C3B56385  13.554  37.872   7.055
 9962POPC   C4B56386  13.545  37.864   7.355
 9963POPC   NC356387  40.000   8.162   5.555
 9963POPC   PO456388  39.976   8.230   5.855
 9963POPC   GL156389  39.999   8.163   6.155
 9963POPC   GL256390  40.016   8.280   6.155
 9963POPC   C1A56391  39.998   8.221   6.455
 9963POPC   D2A56392  39.985   8.221   6.755
 9963POPC   C3A56393  40.040   8.160   7.055
 9963POPC   C4A56394  40.003   8.239   7.355
 9963POPC   C1B56395  40.055   8.417   6.455
 9963POPC   C2B56396  40.047   8.427   6.755
 9963POPC   C3B56397  40.024   8.413   7.055
 9963POPC   C4B56398  40.080   8.425   7.355
 9964POPC   NC356399  19.037  15.917   5.555
 9964POPC   PO456400  19.073  16.001   5.855
 9964POPC   GL156401  19.089  15.972   6.155
 9964POPC   GL256402  19.156  15.944   6.155
 9964POPC   C1A56403  19.052  15.916   6.455
 9964POPC   D2A56404  19.048  15.946   6.755
 9964POPC   C3A56405  19.017  15.967   7.055
 9964POPC   C4A56406  19.060  15.973   7.355
 9964POPC   C1B56407  19.241  15.868   6.455
 9964POPC   C2B56408  19.253  15.881   6.755
 9964POPC   C3B56409  19.258  15.858   7.055
 9964POPC   C4B56410  19.282  15.860   7.355
 9965POPC   NC356411   6.661  14.453   5.555
 9965POPC   PO456412   6.645  14.396   5.855
 9965POPC   GL156413   6.694  14.401   6.155
 9965POPC   GL256414   6.559  14.472   6.155
 9965POPC   C1A56415   6.682  14.405   6.455
 9965POPC   D2A56416   6.682  14.396   6.755
 9965POPC   C3A56417   6.691  14.359   7.055
 9965POPC   C4A56418   6.683  14.387   7.355
 9965POPC   C1B56419   6.449  14.414   6.455
 9965POPC   C2B56420   6.380  14.444   6.755
 9965POPC   C3B56421   6.402  14.476   7.055
 9965POPC   C4B56422   6.376  14.440   7.355
 9966POPC   NC356423   7.434   8.973   5.555
 9966POPC   PO456424   7.440   8.971   5.855
 9966POPC   GL156425   7.388   8.940   6.155
 9966POPC   GL256426   7.337   8.872   6.155
 9966POPC   C1A56427   7.448   9.013   6.455
 9966POPC   D2A56428   7.385   8.961   6.755
 9966POPC   C3A56429   7.383   8.951   7.055
 9966POPC   C4A56430   7.378   8.960   7.355
 9966POPC   C1B56431   7.197   8.785   6.455
 9966POPC   C2B56432   7.280   8.789   6.755
 9966POPC   C3B56433   7.221   8.751   7.055
 9966POPC   C4B56434   7.266   8.802   7.355
 9967POPC   NC356435  19.845   9.735   5.555
 9967POPC   PO456436  19.812   9.762   5.855
 9967POPC   GL156437  19.881   9.709   6.155
 9967POPC   GL256438  19.828   9.919   6.155
 9967POPC   C1A56439  19.790   9.708   6.455
 9967POPC   D2A56440  19.790   9.771   6.755
 9967POPC   C3A56441  19.856   9.742   7.055
 9967POPC   C4A56442  19.884   9.721   7.355
 9967POPC   C1B56443  19.879  10.044   6.455
 9967POPC   C2B56444  19.886  10.034   6.755
 9967POPC   C3B56445  19.805  10.033   7.055
 9967POPC   C4B56446  19.807   9.998   7.355
 9968POPC   NC356447  20.597  36.914   5.555
 9968POPC   PO456448  20.636  36.952   5.855
 9968POPC   GL156449  20.565  36.901   6.155
 9968POPC   GL256450  20.567  36.790   6.155
 9968POPC   C1A56451  20.630  36.951   6.455
 9968POPC   D2A56452  20.655  36.899   6.755
 9968POPC   C3A56453  20.602  36.859   7.055
 9968POPC   C4A56454  20.656  36.931   7.355
 9968POPC   C1B56455  20.598  36.631   6.455
 9968POPC   C2B56456  20.585  36.661   6.755
 9968POPC   C3B56457  20.630  36.614   7.055
 9968POPC   C4B56458  20.579  36.693   7.355
 9969POPC   NC356459  22.888   7.401   5.555
 9969POPC   PO456460  22.966   7.374   5.855
 9969POPC   GL156461  22.922   7.416   6.155
 9969POPC   GL256462  22.970   7.486   6.155
 9969POPC   C1A56463  22.964   7.444   6.455
 9969POPC   D2A56464  22.948   7.427   6.755
 9969POPC   C3A56465  22.931   7.404   7.055
 9969POPC   C4A56466  22.915   7.417   7.355
 9969POPC   C1B56467  23.101   7.588   6.455
 9969POPC   C2B56468  23.088   7.645   6.755
 9969POPC   C3B56469  23.041   7.590   7.055
 9969POPC   C4B56470  23.101   7.581   7.355
 9970POPC   NC356471  21.415  12.026   5.555
 9970POPC   PO456472  21.404  12.078   5.855
 9970POPC   GL156473  21.351  12.074   6.155
 9970POPC   GL256474  21.359  12.168   6.155
 9970POPC   C1A56475  21.393  12.063   6.455
 9970POPC   D2A56476  21.348  12.061   6.755
 9970POPC   C3A56477  21.431  12.116   7.055
 9970POPC   C4A56478  21.337  12.075   7.355
 9970POPC   C1B56479  21.383  12.342   6.455
 9970POPC   C2B56480  21.424  12.314   6.755
 9970POPC   C3B56481  21.393  12.337   7.055
 9970POPC   C4B56482  21.412  12.276   7.355
 9971POPC   NC356483  22.199  24.470   5.555
 9971POPC   PO456484  22.212  24.487   5.855
 9971POPC   GL156485  22.124  24.491   6.155
 9971POPC   GL256486  22.099  24.583   6.155
 9971POPC   C1A56487  22.132  24.466   6.455
 9971POPC   D2A56488  22.141  24.447   6.755
 9971POPC   C3A56489  22.205  24.540   7.055
 9971POPC   C4A56490  22.183  24.528   7.355
 9971POPC   C1B56491  22.077  24.740   6.455
 9971POPC   C2B56492  22.037  24.709   6.755
 9971POPC   C3B56493  22.047  24.763   7.055
 9971POPC   C4B56494  22.079  24.702   7.355
 9972POPC   NC356495  30.650  21.374   5.555
 9972POPC   PO456496  30.668  21.434   5.855
 9972POPC   GL156497  30.707  21.431   6.155
 9972POPC   GL256498  30.609  21.306   6.155
 9972POPC   C1A56499  30.683  21.424   6.455
 9972POPC   D2A56500  30.729  21.419   6.755
 9972POPC   C3A56501  30.695  21.387   7.055
 9972POPC   C4A56502  30.652  21.403   7.355
 9972POPC   C1B56503  30.479  21.177   6.455
 9972POPC   C2B56504  30.474  21.216   6.755
 9972POPC   C3B56505  30.476  21.235   7.055
 9972POPC   C4B56506  30.507  21.186   7.355
 9973POPC   NC356507  17.554  43.109   5.555
 9973POPC   PO456508  17.465  43.106   5.855
 9973POPC   GL156509  17.492  43.110   6.155
 9973POPC   GL256510  17.436  43.043   6.155
 9973POPC   C1A56511  17.482  43.125   6.455
 9973POPC   D2A56512  17.471  43.084   6.755
 9973POPC   C3A56513  17.471  43.149   7.055
 9973POPC   C4A56514  17.531  43.136   7.355
 9973POPC   C1B56515  17.351  42.905   6.455
 9973POPC   C2B56516  17.287  42.995   6.755
 9973POPC   C3B56517  17.359  42.991   7.055
 9973POPC   C4B56518  17.305  42.936   7.355
 9974POPC   NC356519  10.535  18.281   5.555
 9974POPC   PO456520  10.497  18.288   5.855
 9974POPC   GL156521  10.533  18.257   6.155
 9974POPC   GL256522  10.492  18.210   6.155
 9974POPC   C1A56523  10.566  18.248   6.455
 9974POPC   D2A56524  10.568  18.306   6.755
 9974POPC   C3A56525  10.514  18.305   7.055
 9974POPC   C4A56526  10.552  18.249   7.355
 9974POPC   C1B56527  10.426  18.056   6.455
 9974POPC   C2B56528  10.416  18.014   6.755
 9974POPC   C3B56529  10.466  18.058   7.055
 9974POPC   C4B56530  10.470  18.000   7.355
 9975POPC   NC356531  34.566   8.957   5.555
 9975POPC   PO456532  34.541   9.013   5.855
 9975POPC   GL156533  34.615   9.011   6.155
 9975POPC   GL256534  34.670   9.084   6.155
 9975POPC   C1A56535  34.579   9.018   6.455
 9975POPC   D2A56536  34.558   8.983   6.755
 9975POPC   C3A56537  34.554   8.978   7.055
 9975POPC   C4A56538  34.539   8.961   7.355
 9975POPC   C1B56539  34.666   9.149   6.455
 9975POPC   C2B56540  34.680   9.228   6.755
 9975POPC   C3B56541  34.681   9.182   7.055
 9975POPC   C4B56542  34.677   9.181   7.355
 9976POPC   NC356543  31.442  30.739   5.555
 9976POPC   PO456544  31.519  30.672   5.855
 9976POPC   GL156545  31.473  30.682   6.155
 9976POPC   GL256546  31.573  30.720   6.155
 9976POPC   C1A56547  31.463  30.709   6.455
 9976POPC   D2A56548  31.521  30.660   6.755
 9976POPC   C3A56549  31.432  30.690   7.055
 9976POPC   C4A56550  31.454  30.682   7.355
 9976POPC   C1B56551  31.748  30.765   6.455
 9976POPC   C2B56552  31.721  30.770   6.755
 9976POPC   C3B56553  31.654  30.788   7.055
 9976POPC   C4B56554  31.742  30.786   7.355
 9977POPC   NC356555  42.315  43.849   5.555
 9977POPC   PO456556  42.382  43.883   5.855
 9977POPC   GL156557  42.350  43.899   6.155
 9977POPC   GL256558  42.487  43.899   6.155
 9977POPC   C1A56559  42.335  43.918   6.455
 9977POPC   D2A56560  42.330  43.915   6.755
 9977POPC   C3A56561  42.324  43.884   7.055
 9977POPC   C4A56562  42.317  43.866   7.355
 9977POPC   C1B56563  42.523  43.956   6.455
 9977POPC   C2B56564  42.600  44.022   6.755
 9977POPC   C3B56565  42.579  43.996   7.055
 9977POPC   C4B56566  42.541  44.007   7.355
 9978POPC   NC356567   4.335  42.323   5.555
 9978POPC   PO456568   4.318  42.292   5.855
 9978POPC   GL156569   4.309  42.297   6.155
 9978POPC   GL256570   4.165  42.335   6.155
 9978POPC   C1A56571   4.279  42.299   6.455
 9978POPC   D2A56572   4.315  42.287   6.755
 9978POPC   C3A56573   4.287  42.351   7.055
 9978POPC   C4A56574   4.360  42.326   7.355
 9978POPC   C1B56575   4.028  42.345   6.455
 9978POPC   C2B56576   4.066  42.367   6.755
 9978POPC   C3B56577   4.047  42.347   7.055
 9978POPC   C4B56578   4.109  42.382   7.355
 9979POPC   NC356579   7.427  14.442   5.555
 9979POPC   PO456580   7.373  14.354   5.855
 9979POPC   GL156581   7.435  14.404   6.155
 9979POPC   GL256582   7.406  14.566   6.155
 9979POPC   C1A56583   7.432  14.412   6.455
 9979POPC   D2A56584   7.402  14.453   6.755
 9979POPC   C3A56585   7.393  14.378   7.055
 9979POPC   C4A56586   7.376  14.426   7.355
 9979POPC   C1B56587   7.391  14.693   6.455
 9979POPC   C2B56588   7.323  14.657   6.755
 9979POPC   C3B56589   7.323  14.617   7.055
 9979POPC   C4B56590   7.384  14.678   7.355
 9980POPC   NC356591  33.057  19.794   5.555
 9980POPC   PO456592  32.980  19.840   5.855
 9980POPC   GL156593  32.975  19.834   6.155
 9980POPC   GL256594  32.967  19.974   6.155
 9980POPC   C1A56595  33.061  19.817   6.455
 9980POPC   D2A56596  32.996  19.847   6.755
 9980POPC   C3A56597  33.034  19.835   7.055
 9980POPC   C4A56598  33.046  19.820   7.355
 9980POPC   C1B56599  32.913  20.117   6.455
 9980POPC   C2B56600  32.984  20.034   6.755
 9980POPC   C3B56601  32.891  20.041   7.055
 9980POPC   C4B56602  32.894  20.021   7.355
 9981POPC   NC356603   2.033  12.086   5.555
 9981POPC   PO456604   2.039  12.029   5.855
 9981POPC   GL156605   1.977  12.097   6.155
 9981POPC   GL256606   1.903  12.098   6.155
 9981POPC   C1A56607   2.034  12.100   6.455
 9981POPC   D2A56608   2.037  12.074   6.755
 9981POPC   C3A56609   2.025  12.050   7.055
 9981POPC   C4A56610   1.966  12.120   7.355
 9981POPC   C1B56611   1.709  12.194   6.455
 9981POPC   C2B56612   1.704  12.191   6.755
 9981POPC   C3B56613   1.712  12.125   7.055
 9981POPC   C4B56614   1.758  12.193   7.355
 9982POPC   NC356615  31.503   6.684   5.555
 9982POPC   PO456616  31.497   6.627   5.855
 9982POPC   GL156617  31.444   6.666   6.155
 9982POPC   GL256618  31.529   6.508   6.155
 9982POPC   C1A56619  31.493   6.656   6.455
 9982POPC   D2A56620  31.435   6.663   6.755
 9982POPC   C3A56621  31.457   6.604   7.055
 9982POPC   C4A56622  31.444   6.659   7.355
 9982POPC   C1B56623  31.578   6.449   6.455
 9982POPC   C2B56624  31.479   6.405   6.755
 9982POPC   C3B56625  31.506   6.387   7.055
 9982POPC   C4B56626  31.565   6.413   7.355
 9983POPC   NC356627  12.830  15.214   5.555
 9983POPC   PO456628  12.812  15.213   5.855
 9983POPC   GL156629  12.895  15.157   6.155
 9983POPC   GL256630  12.923  15.055   6.155
 9983POPC   C1A56631  12.866  15.133   6.455
 9983POPC   D2A56632  12.883  15.200   6.755
 9983POPC   C3A56633  12.805  15.178   7.055
 9983POPC   C4A56634  12.866  15.192   7.355
 9983POPC   C1B56635  12.942  14.959   6.455
 9983POPC   C2B56636  12.946  14.936   6.755
 9983POPC   C3B56637  12.928  14.967   7.055
 9983POPC   C4B56638  12.918  14.899   7.355
 9984POPC   NC356639  16.769   8.160   5.555
 9984POPC   PO456640  16.756   8.219   5.855
 9984POPC   GL156641  16.726   8.231   6.155
 9984POPC   GL256642  16.643   8.162   6.155
 9984POPC   C1A56643  16.777   8.214   6.455
 9984POPC   D2A56644  16.729   8.186   6.755
 9984POPC   C3A56645  16.694   8.210   7.055
 9984POPC   C4A56646  16.711   8.224   7.355
 9984POPC   C1B56647  16.500   8.217   6.455
 9984POPC   C2B56648  16.487   8.193   6.755
 9984POPC   C3B56649  16.473   8.185   7.055
 9984POPC   C4B56650  16.527   8.157   7.355
 9985POPC   NC356651   1.192  43.857   5.555
 9985POPC   PO456652   1.187  43.932   5.855
 9985POPC   GL156653   1.242  43.895   6.155
 9985POPC   GL256654   1.143  43.990   6.155
 9985POPC   C1A56655   1.177  43.868   6.455
 9985POPC   D2A56656   1.169  43.888   6.755
 9985POPC   C3A56657   1.204  43.862   7.055
 9985POPC   C4A56658   1.215  43.864   7.355
 9985POPC   C1B56659   1.026  44.025   6.455
 9985POPC   C2B56660   0.952  44.008   6.755
 9985POPC   C3B56661   1.016  43.956   7.055
 9985POPC   C4B56662   0.995  44.014   7.355
 9986POPC   NC356663  21.393  14.397   5.555
 9986POPC   PO456664  21.411  14.363   5.855
 9986POPC   GL156665  21.353  14.403   6.155
 9986POPC   GL256666  21.309  14.426   6.155
 9986POPC   C1A56667  21.405  14.410   6.455
 9986POPC   D2A56668  21.373  14.377   6.755
 9986POPC   C3A56669  21.342  14.373   7.055
 9986POPC   C4A56670  21.411  14.447   7.355
 9986POPC   C1B56671  21.132  14.482   6.455
 9986POPC   C2B56672  21.190  14.534   6.755
 9986POPC   C3B56673  21.202  14.522   7.055
 9986POPC   C4B56674  21.121  14.548   7.355
 9987POPC   NC356675  16.753  42.344   5.555
 9987POPC   PO456676  16.723  42.373   5.855
 9987POPC   GL156677  16.700  42.373   6.155
 9987POPC   GL256678  16.649  42.262   6.155
 9987POPC   C1A56679  16.744  42.342   6.455
 9987POPC   D2A56680  16.751  42.305   6.755
 9987POPC   C3A56681  16.684  42.308   7.055
 9987POPC   C4A56682  16.744  42.321   7.355
 9987POPC   C1B56683  16.596  42.092   6.455
 9987POPC   C2B56684  16.604  42.128   6.755
 9987POPC   C3B56685  16.581  42.154   7.055
 9987POPC   C4B56686  16.667  42.084   7.355
 9988POPC   NC356687  36.105  39.235   5.555
 9988POPC   PO456688  36.156  39.240   5.855
 9988POPC   GL156689  36.149  39.198   6.155
 9988POPC   GL256690  36.021  39.286   6.155
 9988POPC   C1A56691  36.130  39.265   6.455
 9988POPC   D2A56692  36.164  39.218   6.755
 9988POPC   C3A56693  36.120  39.260   7.055
 9988POPC   C4A56694  36.141  39.270   7.355
 9988POPC   C1B56695  35.844  39.304   6.455
 9988POPC   C2B56696  35.912  39.303   6.755
 9988POPC   C3B56697  35.875  39.279   7.055
 9988POPC   C4B56698  35.896  39.298   7.355
 9989POPC   NC356699  19.869  32.263   5.555
 9989POPC   PO456700  19.860  32.257   5.855
 9989POPC   GL156701  19.823  32.205   6.155
 9989POPC   GL256702  19.738  32.220   6.155
 9989POPC   C1A56703  19.815  32.296   6.455
 9989POPC   D2A56704  19.836  32.231   6.755
 9989POPC   C3A56705  19.804  32.297   7.055
 9989POPC   C4A56706  19.825  32.205   7.355
 9989POPC   C1B56707  19.628  32.227   6.455
 9989POPC   C2B56708  19.577  32.198   6.755
 9989POPC   C3B56709  19.538  32.240   7.055
 9989POPC   C4B56710  19.570  32.247   7.355
 9990POPC   NC356711  29.963  35.329   5.555
 9990POPC   PO456712  29.925  35.376   5.855
 9990POPC   GL156713  29.968  35.370   6.155
 9990POPC   GL256714  29.791  35.399   6.155
 9990POPC   C1A56715  29.958  35.344   6.455
 9990POPC   D2A56716  29.906  35.308   6.755
 9990POPC   C3A56717  29.932  35.364   7.055
 9990POPC   C4A56718  29.946  35.326   7.355
 9990POPC   C1B56719  29.724  35.509   6.455
 9990POPC   C2B56720  29.706  35.466   6.755
 9990POPC   C3B56721  29.759  35.487   7.055
 9990POPC   C4B56722  29.760  35.514   7.355
 9991POPC   NC356723  33.016  38.411   5.555
 9991POPC   PO456724  33.014  38.445   5.855
 9991POPC   GL156725  33.031  38.447   6.155
 9991POPC   GL256726  33.176  38.501   6.155
 9991POPC   C1A56727  33.035  38.428   6.455
 9991POPC   D2A56728  33.044  38.501   6.755
 9991POPC   C3A56729  33.017  38.505   7.055
 9991POPC   C4A56730  33.071  38.411   7.355
 9991POPC   C1B56731  33.238  38.626   6.455
 9991POPC   C2B56732  33.268  38.572   6.755
 9991POPC   C3B56733  33.255  38.552   7.055
 9991POPC   C4B56734  33.193  38.639   7.355
 9992POPC   NC356735  13.620  19.041   5.555
 9992POPC   PO456736  13.642  19.107   5.855
 9992POPC   GL156737  13.578  19.051   6.155
 9992POPC   GL256738  13.667  19.146   6.155
 9992POPC   C1A56739  13.604  19.089   6.455
 9992POPC   D2A56740  13.626  19.020   6.755
 9992POPC   C3A56741  13.594  19.015   7.055
 9992POPC   C4A56742  13.653  19.091   7.355
 9992POPC   C1B56743  13.623  19.258   6.455
 9992POPC   C2B56744  13.628  19.282   6.755
 9992POPC   C3B56745  13.647  19.284   7.055
 9992POPC   C4B56746  13.664  19.349   7.355
 9993POPC   NC356747  22.951  25.226   5.555
 9993POPC   PO456748  22.927  25.253   5.855
 9993POPC   GL156749  22.905  25.307   6.155
 9993POPC   GL256750  22.835  25.207   6.155
 9993POPC   C1A56751  22.968  25.257   6.455
 9993POPC   D2A56752  22.947  25.233   6.755
 9993POPC   C3A56753  22.987  25.243   7.055
 9993POPC   C4A56754  22.939  25.283   7.355
 9993POPC   C1B56755  22.726  25.122   6.455
 9993POPC   C2B56756  22.725  25.056   6.755
 9993POPC   C3B56757  22.744  25.077   7.055
 9993POPC   C4B56758  22.802  25.057   7.355
 9994POPC   NC356759  31.491   8.989   5.555
 9994POPC   PO456760  31.522   9.014   5.855
 9994POPC   GL156761  31.484   8.923   6.155
 9994POPC   GL256762  31.361   8.931   6.155
 9994POPC   C1A56763  31.442   8.999   6.455
 9994POPC   D2A56764  31.454   9.008   6.755
 9994POPC   C3A56765  31.505   9.015   7.055
 9994POPC   C4A56766  31.460   8.976   7.355
 9994POPC   C1B56767  31.238   8.934   6.455
 9994POPC   C2B56768  31.268   8.911   6.755
 9994POPC   C3B56769  31.271   8.945   7.055
 9994POPC   C4B56770  31.220   8.958   7.355
 9995POPC   NC356771   9.738   1.952   5.555
 9995POPC   PO456772   9.750   1.954   5.855
 9995POPC   GL156773   9.707   1.999   6.155
 9995POPC   GL256774   9.847   2.098   6.155
 9995POPC   C1A56775   9.728   1.943   6.455
 9995POPC   D2A56776   9.749   1.975   6.755
 9995POPC   C3A56777   9.746   2.021   7.055
 9995POPC   C4A56778   9.743   1.958   7.355
 9995POPC   C1B56779   9.917   2.187   6.455
 9995POPC   C2B56780   9.875   2.183   6.755
 9995POPC   C3B56781   9.931   2.183   7.055
 9995POPC   C4B56782   9.910   2.158   7.355
 9996POPC   NC356783  28.361  22.132   5.555
 9996POPC   PO456784  28.402  22.179   5.855
 9996POPC   GL156785  28.322  22.150   6.155
 9996POPC   GL256786  28.461  22.257   6.155
 9996POPC   C1A56787  28.396  22.178   6.455
 9996POPC   D2A56788  28.415  22.193   6.755
 9996POPC   C3A56789  28.330  22.166   7.055
 9996POPC   C4A56790  28.363  22.144   7.355
 9996POPC   C1B56791  28.487  22.379   6.455
 9996POPC   C2B56792  28.516  22.340   6.755
 9996POPC   C3B56793  28.538  22.421   7.055
 9996POPC   C4B56794  28.516  22.356   7.355
 9997POPC   NC356795  34.560   2.006   5.555
 9997POPC   PO456796  34.605   2.031   5.855
 9997POPC   GL156797  34.616   1.975   6.155
 9997POPC   GL256798  34.527   1.874   6.155
 9997POPC   C1A56799  34.611   1.957   6.455
 9997POPC   D2A56800  34.549   2.020   6.755
 9997POPC   C3A56801  34.550   1.948   7.055
 9997POPC   C4A56802  34.558   1.976   7.355
 9997POPC   C1B56803  34.595   1.765   6.455
 9997POPC   C2B56804  34.596   1.736   6.755
 9997POPC   C3B56805  34.550   1.762   7.055
 9997POPC   C4B56806  34.597   1.728   7.355
 9998POPC   NC356807  43.841   3.568   5.555
 9998POPC   PO456808  43.912   3.493   5.855
 9998POPC   GL156809  43.874   3.577   6.155
 9998POPC   GL256810  43.845   3.450   6.155
 9998POPC   C1A56811  43.851   3.525   6.455
 9998POPC   D2A56812  43.866   3.559   6.755
 9998POPC   C3A56813  43.868   3.562   7.055
 9998POPC   C4A56814  43.839   3.505   7.355
 9998POPC   C1B56815  43.726   3.330   6.455
 9998POPC   C2B56816  43.723   3.304   6.755
 9998POPC   C3B56817  43.774   3.382   7.055
 9998POPC   C4B56818  43.783   3.357   7.355
 9999POPC   NC356819  34.593  29.101   5.555
 9999POPC   PO456820  34.527  29.102   5.855
 9999POPC   GL156821  34.567  29.171   6.155
 9999POPC   GL256822  34.480  29.102   6.155
 9999POPC   C1A56823  34.621  29.175   6.455
 9999POPC   D2A56824  34.561  29.188   6.755
 9999POPC   C3A56825  34.569  29.183   7.055
 9999POPC   C4A56826  34.544  29.130   7.355
 9999POPC   C1B56827  34.377  29.055   6.455
 9999POPC   C2B56828  34.336  29.024   6.755
 9999POPC   C3B56829  34.383  28.995   7.055
 9999POPC   C4B56830  34.409  28.988   7.355
10000POPC   NC356831  20.634  30.700   5.555
10000POPC   PO456832  20.569  30.656   5.855
10000POPC   GL156833  20.615  30.745   6.155
10000POPC   GL256834  20.563  30.577   6.155
10000POPC   C1A56835  20.638  30.693   6.455
10000POPC   D2A56836  20.576  30.694   6.755
10000POPC   C3A56837  20.642  30.742   7.055
10000POPC   C4A56838  20.632  30.716   7.355
10000POPC   C1B56839  20.612  30.405   6.455
10000POPC   C2B56840  20.569  30.401   6.755
10000POPC   C3B56841  20.645  30.455   7.055
10000POPC   C4B56842  20.629  30.423   7.355
10001POPC   NC356843  32.999  42.367   5.555
10001POPC   PO456844  32.976  42.348   5.855
10001POPC   GL156845  33.029  42.326   6.155
10001POPC   GL256846  32.914  42.415   6.155
10001POPC   C1A56847  32.982  42.322   6.455
10001POPC   D2A56848  33.065  42.358   6.755
10001POPC   C3A56849  33.025  42.341   7.055
10001POPC   C4A56850  32.991  42.314   7.355
10001POPC   C1B56851  32.766  42.491   6.455
10001POPC   C2B56852  32.814  42.451   6.755
10001POPC   C3B56853  32.846  42.488   7.055
10001POPC   C4B56854  32.811  42.411   7.355
10002POPC   NC356855  13.606  22.175   5.555
10002POPC   PO456856  13.659  22.205   5.855
10002POPC   GL156857  13.641  22.183   6.155
10002POPC   GL256858  13.723  22.090   6.155
10002POPC   C1A56859  13.629  22.122   6.455
10002POPC   D2A56860  13.599  22.173   6.755
10002POPC   C3A56861  13.605  22.116   7.055
10002POPC   C4A56862  13.578  22.142   7.355
10002POPC   C1B56863  13.779  21.926   6.455
10002POPC   C2B56864  13.726  21.936   6.755
10002POPC   C3B56865  13.738  21.900   7.055
10002POPC   C4B56866  13.784  21.958   7.355
10003POPC   NC356867  14.392  42.290   5.555
10003POPC   PO456868  14.424  42.327   5.855
10003POPC   GL156869  14.406  42.305   6.155
10003POPC   GL256870  14.317  42.349   6.155
10003POPC   C1A56871  14.375  42.362   6.455
10003POPC   D2A56872  14.449  42.321   6.755
10003POPC   C3A56873  14.381  42.354   7.055
10003POPC   C4A56874  14.404  42.319   7.355
10003POPC   C1B56875  14.196  42.335   6.455
10003POPC   C2B56876  14.127  42.402   6.755
10003POPC   C3B56877  14.137  42.381   7.055
10003POPC   C4B56878  14.205  42.339   7.355
10004POPC   NC356879  35.390   9.020   5.555
10004POPC   PO456880  35.344   8.986   5.855
10004POPC   GL156881  35.371   8.974   6.155
10004POPC   GL256882  35.266   8.880   6.155
10004POPC   C1A56883  35.363   8.972   6.455
10004POPC   D2A56884  35.321   9.001   6.755
10004POPC   C3A56885  35.367   8.924   7.055
10004POPC   C4A56886  35.327   8.966   7.355
10004POPC   C1B56887  35.179   8.746   6.455
10004POPC   C2B56888  35.198   8.713   6.755
10004POPC   C3B56889  35.236   8.735   7.055
10004POPC   C4B56890  35.249   8.799   7.355
10005POPC   NC356891  35.335  12.037   5.555
10005POPC   PO456892  35.377  12.041   5.855
10005POPC   GL156893  35.359  12.094   6.155
10005POPC   GL256894  35.481  12.014   6.155
10005POPC   C1A56895  35.354  12.117   6.455
10005POPC   D2A56896  35.379  12.077   6.755
10005POPC   C3A56897  35.340  12.114   7.055
10005POPC   C4A56898  35.347  12.114   7.355
10005POPC   C1B56899  35.576  12.017   6.455
10005POPC   C2B56900  35.621  12.024   6.755
10005POPC   C3B56901  35.558  11.993   7.055
10005POPC   C4B56902  35.621  11.994   7.355
10006POPC   NC356903   2.037  21.419   5.555
10006POPC   PO456904   1.979  21.376   5.855
10006POPC   GL156905   1.941  21.419   6.155
10006POPC   GL256906   1.908  21.274   6.155
10006POPC   C1A56907   1.965  21.392   6.455
10006POPC   D2A56908   2.024  21.400   6.755
10006POPC   C3A56909   1.969  21.369   7.055
10006POPC   C4A56910   2.014  21.384   7.355
10006POPC   C1B56911   1.740  21.272   6.455
10006POPC   C2B56912   1.758  21.261   6.755
10006POPC   C3B56913   1.778  21.243   7.055
10006POPC   C4B56914   1.802  21.289   7.355
10007POPC   NC356915  28.346  20.571   5.555
10007POPC   PO456916  28.342  20.645   5.855
10007POPC   GL156917  28.326  20.612   6.155
10007POPC   GL256918  28.246  20.705   6.155
10007POPC   C1A56919  28.320  20.631   6.455
10007POPC   D2A56920  28.381  20.611   6.755
10007POPC   C3A56921  28.395  20.607   7.055
10007POPC   C4A56922  28.406  20.633   7.355
10007POPC   C1B56923  28.168  20.743   6.455
10007POPC   C2B56924  28.213  20.765   6.755
10007POPC   C3B56925  28.208  20.760   7.055
10007POPC   C4B56926  28.143  20.796   7.355
10008POPC   NC356927  31.430  29.141   5.555
10008POPC   PO456928  31.489  29.194   5.855
10008POPC   GL156929  31.451  29.194   6.155
10008POPC   GL256930  31.383  29.092   6.155
10008POPC   C1A56931  31.476  29.102   6.455
10008POPC   D2A56932  31.482  29.117   6.755
10008POPC   C3A56933  31.492  29.169   7.055
10008POPC   C4A56934  31.455  29.180   7.355
10008POPC   C1B56935  31.258  29.057   6.455
10008POPC   C2B56936  31.294  29.072   6.755
10008POPC   C3B56937  31.233  29.066   7.055
10008POPC   C4B56938  31.253  29.006   7.355
10009POPC   NC356939  15.189  33.808   5.555
10009POPC   PO456940  15.196  33.754   5.855
10009POPC   GL156941  15.161  33.772   6.155
10009POPC   GL256942  15.232  33.657   6.155
10009POPC   C1A56943  15.170  33.823   6.455
10009POPC   D2A56944  15.209  33.750   6.755
10009POPC   C3A56945  15.180  33.840   7.055
10009POPC   C4A56946  15.193  33.839   7.355
10009POPC   C1B56947  15.289  33.581   6.455
10009POPC   C2B56948  15.292  33.606   6.755
10009POPC   C3B56949  15.322  33.596   7.055
10009POPC   C4B56950  15.313  33.542   7.355
10010POPC   NC356951  14.439  13.587   5.555
10010POPC   PO456952  14.442  13.670   5.855
10010POPC   GL156953  14.395  13.651   6.155
10010POPC   GL256954  14.308  13.505   6.155
10010POPC   C1A56955  14.392  13.655   6.455
10010POPC   D2A56956  14.392  13.675   6.755
10010POPC   C3A56957  14.374  13.622   7.055
10010POPC   C4A56958  14.452  13.662   7.355
10010POPC   C1B56959  14.268  13.499   6.455
10010POPC   C2B56960  14.252  13.469   6.755
10010POPC   C3B56961  14.250  13.433   7.055
10010POPC   C4B56962  14.239  13.443   7.355
10011POPC   NC356963   7.455  37.666   5.555
10011POPC   PO456964   7.410  37.693   5.855
10011POPC   GL156965   7.399  37.711   6.155
10011POPC   GL256966   7.354  37.588   6.155
10011POPC   C1A56967   7.436  37.689   6.455
10011POPC   D2A56968   7.424  37.727   6.755
10011POPC   C3A56969   7.416  37.712   7.055
10011POPC   C4A56970   7.431  37.648   7.355
10011POPC   C1B56971   7.207  37.552   6.455
10011POPC   C2B56972   7.261  37.528   6.755
10011POPC   C3B56973   7.196  37.471   7.055
10011POPC   C4B56974   7.214  37.490   7.355
10012POPC   NC356975   5.905   4.276   5.555
10012POPC   PO456976   5.895   4.285   5.855
10012POPC   GL156977   5.854   4.364   6.155
10012POPC   GL256978   5.968   4.261   6.155
10012POPC   C1A56979   5.894   4.275   6.455
10012POPC   D2A56980   5.840   4.352   6.755
10012POPC   C3A56981   5.916   4.361   7.055
10012POPC   C4A56982   5.913   4.321   7.355
10012POPC   C1B56983   6.072   4.261   6.455
10012POPC   C2B56984   6.055   4.200   6.755
10012POPC   C3B56985   6.110   4.268   7.055
10012POPC   C4B56986   6.078   4.226   7.355
10013POPC   NC356987  16.688  33.840   5.555
10013POPC   PO456988  16.697  33.777   5.855
10013POPC   GL156989  16.734  33.800   6.155
10013POPC   GL256990  16.778  33.893   6.155
10013POPC   C1A56991  16.703  33.820   6.455
10013POPC   D2A56992  16.757  33.775   6.755
10013POPC   C3A56993  16.772  33.825   7.055
10013POPC   C4A56994  16.779  33.756   7.355
10013POPC   C1B56995  16.772  34.071   6.455
10013POPC   C2B56996  16.733  34.061   6.755
10013POPC   C3B56997  16.724  34.008   7.055
10013POPC   C4B56998  16.802  34.000   7.355
10014POPC   NC356999  19.054  12.895   5.555
10014POPC   PO457000  19.082  12.884   5.855
10014POPC   GL157001  19.052  12.856   6.155
10014POPC   GL257002  18.891  12.796   6.155
10014POPC   C1A57003  19.052  12.821   6.455
10014POPC   D2A57004  19.093  12.876   6.755
10014POPC   C3A57005  19.023  12.835   7.055
10014POPC   C4A57006  19.074  12.845   7.355
10014POPC   C1B57007  18.784  12.814   6.455
10014POPC   C2B57008  18.766  12.840   6.755
10014POPC   C3B57009  18.805  12.823   7.055
10014POPC   C4B57010  18.860  12.851   7.355
10015POPC   NC357011  43.128  40.788   5.555
10015POPC   PO457012  43.128  40.830   5.855
10015POPC   GL157013  43.155  40.752   6.155
10015POPC   GL257014  43.013  40.655   6.155
10015POPC   C1A57015  43.077  40.801   6.455
10015POPC   D2A57016  43.150  40.792   6.755
10015POPC   C3A57017  43.067  40.826   7.055
10015POPC   C4A57018  43.124  40.757   7.355
10015POPC   C1B57019  42.967  40.557   6.455
10015POPC   C2B57020  42.987  40.580   6.755
10015POPC   C3B57021  42.927  40.601   7.055
10015POPC   C4B57022  42.986  40.606   7.355
10016POPC   NC357023  17.458  12.063   5.555
10016POPC   PO457024  17.472  12.050   5.855
10016POPC   GL157025  17.544  12.068   6.155
10016POPC   GL257026  17.549  11.939   6.155
10016POPC   C1A57027  17.541  12.052   6.455
10016POPC   D2A57028  17.552  12.065   6.755
10016POPC   C3A57029  17.489  12.032   7.055
10016POPC   C4A57030  17.535  12.105   7.355
10016POPC   C1B57031  17.519  11.812   6.455
10016POPC   C2B57032  17.589  11.832   6.755
10016POPC   C3B57033  17.506  11.870   7.055
10016POPC   C4B57034  17.541  11.807   7.355
10017POPC   NC357035  20.627  11.254   5.555
10017POPC   PO457036  20.626  11.261   5.855
10017POPC   GL157037  20.574  11.284   6.155
10017POPC   GL257038  20.594  11.401   6.155
10017POPC   C1A57039  20.635  11.296   6.455
10017POPC   D2A57040  20.603  11.316   6.755
10017POPC   C3A57041  20.580  11.288   7.055
10017POPC   C4A57042  20.608  11.271   7.355
10017POPC   C1B57043  20.532  11.507   6.455
10017POPC   C2B57044  20.546  11.574   6.755
10017POPC   C3B57045  20.586  11.511   7.055
10017POPC   C4B57046  20.534  11.591   7.355
10018POPC   NC357047  40.787  22.927   5.555
10018POPC   PO457048  40.805  22.892   5.855
10018POPC   GL157049  40.796  22.957   6.155
10018POPC   GL257050  40.773  22.867   6.155
10018POPC   C1A57051  40.777  22.975   6.455
10018POPC   D2A57052  40.810  22.910   6.755
10018POPC   C3A57053  40.752  22.909   7.055
10018POPC   C4A57054  40.780  22.961   7.355
10018POPC   C1B57055  40.697  22.703   6.455
10018POPC   C2B57056  40.661  22.676   6.755
10018POPC   C3B57057  40.684  22.663   7.055
10018POPC   C4B57058  40.711  22.740   7.355
10019POPC   NC357059  33.790   4.277   5.555
10019POPC   PO457060  33.847   4.358   5.855
10019POPC   GL157061  33.826   4.281   6.155
10019POPC   GL257062  33.932   4.367   6.155
10019POPC   C1A57063  33.788   4.286   6.455
10019POPC   D2A57064  33.769   4.280   6.755
10019POPC   C3A57065  33.755   4.284   7.055
10019POPC   C4A57066  33.847   4.340   7.355
10019POPC   C1B57067  33.981   4.457   6.455
10019POPC   C2B57068  33.952   4.503   6.755
10019POPC   C3B57069  33.956   4.513   7.055
10019POPC   C4B57070  33.991   4.524   7.355
10020POPC   NC357071  15.223  32.254   5.555
10020POPC   PO457072  15.208  32.277   5.855
10020POPC   GL157073  15.144  32.274   6.155
10020POPC   GL257074  15.182  32.155   6.155
10020POPC   C1A57075  15.182  32.220   6.455
10020POPC   D2A57076  15.155  32.216   6.755
10020POPC   C3A57077  15.193  32.267   7.055
10020POPC   C4A57078  15.194  32.269   7.355
10020POPC   C1B57079  15.237  32.034   6.455
10020POPC   C2B57080  15.231  32.024   6.755
10020POPC   C3B57081  15.311  32.020   7.055
10020POPC   C4B57082  15.229  32.024   7.355
10021POPC   NC357083  15.192  43.154   5.555
10021POPC   PO457084  15.169  43.073   5.855
10021POPC   GL157085  15.139  43.070   6.155
10021POPC   GL257086  15.084  43.225   6.155
10021POPC   C1A57087  15.150  43.156   6.455
10021POPC   D2A57088  15.218  43.141   6.755
10021POPC   C3A57089  15.149  43.090   7.055
10021POPC   C4A57090  15.199  43.095   7.355
10021POPC   C1B57091  15.089  43.342   6.455
10021POPC   C2B57092  15.064  43.346   6.755
10021POPC   C3B57093  15.008  43.365   7.055
10021POPC   C4B57094  15.057  43.300   7.355
10022POPC   NC357095   4.328   7.389   5.555
10022POPC   PO457096   4.272   7.463   5.855
10022POPC   GL157097   4.360   7.461   6.155
10022POPC   GL257098   4.260   7.503   6.155
10022POPC   C1A57099   4.271   7.404   6.455
10022POPC   D2A57100   4.352   7.394   6.755
10022POPC   C3A57101   4.336   7.387   7.055
10022POPC   C4A57102   4.322   7.447   7.355
10022POPC   C1B57103   4.211   7.658   6.455
10022POPC   C2B57104   4.273   7.645   6.755
10022POPC   C3B57105   4.282   7.699   7.055
10022POPC   C4B57106   4.269   7.630   7.355
10023POPC   NC357107   3.528  39.230   5.555
10023POPC   PO457108   3.514  39.239   5.855
10023POPC   GL157109   3.515  39.204   6.155
10023POPC   GL257110   3.451  39.261   6.155
10023POPC   C1A57111   3.529  39.247   6.455
10023POPC   D2A57112   3.521  39.196   6.755
10023POPC   C3A57113   3.509  39.278   7.055
10023POPC   C4A57114   3.543  39.194   7.355
10023POPC   C1B57115   3.286  39.325   6.455
10023POPC   C2B57116   3.330  39.299   6.755
10023POPC   C3B57117   3.334  39.305   7.055
10023POPC   C4B57118   3.317  39.308   7.355
10024POPC   NC357119   5.120  32.979   5.555
10024POPC   PO457120   5.137  33.057   5.855
10024POPC   GL157121   5.130  33.051   6.155
10024POPC   GL257122   5.200  33.161   6.155
10024POPC   C1A57123   5.088  33.057   6.455
10024POPC   D2A57124   5.074  32.994   6.755
10024POPC   C3A57125   5.105  32.985   7.055
10024POPC   C4A57126   5.098  32.975   7.355
10024POPC   C1B57127   5.254  33.255   6.455
10024POPC   C2B57128   5.214  33.257   6.755
10024POPC   C3B57129   5.201  33.242   7.055
10024POPC   C4B57130   5.261  33.233   7.355
10025POPC   NC357131  18.326   1.950   5.555
10025POPC   PO457132  18.309   1.995   5.855
10025POPC   GL157133  18.321   2.024   6.155
10025POPC   GL257134  18.241   1.899   6.155
10025POPC   C1A57135  18.302   1.961   6.455
10025POPC   D2A57136  18.256   1.944   6.755
10025POPC   C3A57137  18.323   1.952   7.055
10025POPC   C4A57138  18.330   1.974   7.355
10025POPC   C1B57139  18.279   1.784   6.455
10025POPC   C2B57140  18.344   1.758   6.755
10025POPC   C3B57141  18.266   1.784   7.055
10025POPC   C4B57142  18.251   1.720   7.355
10026POPC   NC357143  28.383  43.135   5.555
10026POPC   PO457144  28.399  43.096   5.855
10026POPC   GL157145  28.337  43.108   6.155
10026POPC   GL257146  28.430  43.264   6.155
10026POPC   C1A57147  28.409  43.089   6.455
10026POPC   D2A57148  28.376  43.155   6.755
10026POPC   C3A57149  28.381  43.151   7.055
10026POPC   C4A57150  28.374  43.110   7.355
10026POPC   C1B57151  28.491  43.341   6.455
10026POPC   C2B57152  28.431  43.380   6.755
10026POPC   C3B57153  28.471  43.305   7.055
10026POPC   C4B57154  28.500  43.356   7.355
10027POPC   NC357155   0.431  36.858   5.555
10027POPC   PO457156   0.479  36.927   5.855
10027POPC   GL157157   0.446  36.863   6.155
10027POPC   GL257158   0.423  37.003   6.155
10027POPC   C1A57159   0.441  36.866   6.455
10027POPC   D2A57160   0.432  36.917   6.755
10027POPC   C3A57161   0.455  36.870   7.055
10027POPC   C4A57162   0.426  36.855   7.355
10027POPC   C1B57163   0.489  37.140   6.455
10027POPC   C2B57164   0.457  37.130   6.755
10027POPC   C3B57165   0.511  37.119   7.055
10027POPC   C4B57166   0.506  37.140   7.355
10028POPC   NC357167  37.661  36.949   5.555
10028POPC   PO457168  37.714  36.948   5.855
10028POPC   GL157169  37.667  36.868   6.155
10028POPC   GL257170  37.698  37.029   6.155
10028POPC   C1A57171  37.631  36.940   6.455
10028POPC   D2A57172  37.696  36.896   6.755
10028POPC   C3A57173  37.700  36.913   7.055
10028POPC   C4A57174  37.718  36.927   7.355
10028POPC   C1B57175  37.736  37.202   6.455
10028POPC   C2B57176  37.676  37.142   6.755
10028POPC   C3B57177  37.692  37.123   7.055
10028POPC   C4B57178  37.665  37.183   7.355
10029POPC   NC357179  39.217  41.588   5.555
10029POPC   PO457180  39.269  41.585   5.855
10029POPC   GL157181  39.277  41.552   6.155
10029POPC   GL257182  39.354  41.526   6.155
10029POPC   C1A57183  39.242  41.535   6.455
10029POPC   D2A57184  39.215  41.514   6.755
10029POPC   C3A57185  39.245  41.536   7.055
10029POPC   C4A57186  39.216  41.603   7.355
10029POPC   C1B57187  39.490  41.397   6.455
10029POPC   C2B57188  39.406  41.417   6.755
10029POPC   C3B57189  39.399  41.387   7.055
10029POPC   C4B57190  39.483  41.468   7.355
10030POPC   NC357191   4.301  30.714   5.555
10030POPC   PO457192   4.323  30.688   5.855
10030POPC   GL157193   4.274  30.649   6.155
10030POPC   GL257194   4.387  30.650   6.155
10030POPC   C1A57195   4.270  30.663   6.455
10030POPC   D2A57196   4.280  30.698   6.755
10030POPC   C3A57197   4.277  30.648   7.055
10030POPC   C4A57198   4.346  30.712   7.355
10030POPC   C1B57199   4.513  30.495   6.455
10030POPC   C2B57200   4.478  30.529   6.755
10030POPC   C3B57201   4.518  30.493   7.055
10030POPC   C4B57202   4.507  30.561   7.355
10031POPC   NC357203  29.908  44.680   5.555
10031POPC   PO457204  29.901  44.613   5.855
10031POPC   GL157205  29.906  44.699   6.155
10031POPC   GL257206  30.036  44.747   6.155
10031POPC   C1A57207  29.963  44.670   6.455
10031POPC   D2A57208  29.871  44.661   6.755
10031POPC   C3A57209  29.894  44.633   7.055
10031POPC   C4A57210  29.948  44.625   7.355
10031POPC   C1B57211  30.160  44.763   6.455
10031POPC   C2B57212  30.135  44.801   6.755
10031POPC   C3B57213  30.125  44.833   7.055
10031POPC   C4B57214  30.127  44.809   7.355
10032POPC   NC357215  43.912  32.992   5.555
10032POPC   PO457216  43.856  33.019   5.855
10032POPC   GL157217  43.927  33.024   6.155
10032POPC   GL257218  43.759  33.079   6.155
10032POPC   C1A57219  43.874  33.073   6.455
10032POPC   D2A57220  43.852  33.053   6.755
10032POPC   C3A57221  43.922  33.069   7.055
10032POPC   C4A57222  43.848  33.015   7.355
10032POPC   C1B57223  43.686  33.067   6.455
10032POPC   C2B57224  43.672  33.150   6.755
10032POPC   C3B57225  43.695  33.127   7.055
10032POPC   C4B57226  43.661  33.076   7.355
10033POPC   NC357227  32.292  44.672   5.555
10033POPC   PO457228  32.269  44.637   5.855
10033POPC   GL157229  32.236  44.673   6.155
10033POPC   GL257230  32.314  44.564   6.155
10033POPC   C1A57231  32.248  44.669   6.455
10033POPC   D2A57232  32.266  44.615   6.755
10033POPC   C3A57233  32.267  44.702   7.055
10033POPC   C4A57234  32.218  44.668   7.355
10033POPC   C1B57235  32.430  44.463   6.455
10033POPC   C2B57236  32.435  44.474   6.755
10033POPC   C3B57237  32.459  44.536   7.055
10033POPC   C4B57238  32.403  44.530   7.355
10034POPC   NC357239  42.328   5.057   5.555
10034POPC   PO457240  42.374   5.111   5.855
10034POPC   GL157241  42.334   5.107   6.155
10034POPC   GL257242  42.283   5.017   6.155
10034POPC   C1A57243  42.285   5.073   6.455
10034POPC   D2A57244  42.345   5.059   6.755
10034POPC   C3A57245  42.370   5.052   7.055
10034POPC   C4A57246  42.344   5.136   7.355
10034POPC   C1B57247  42.286   4.821   6.455
10034POPC   C2B57248  42.276   4.840   6.755
10034POPC   C3B57249  42.294   4.821   7.055
10034POPC   C4B57250  42.291   4.855   7.355
10035POPC   NC357251  41.523  19.803   5.555
10035POPC   PO457252  41.598  19.882   5.855
10035POPC   GL157253  41.579  19.834   6.155
10035POPC   GL257254  41.708  19.785   6.155
10035POPC   C1A57255  41.527  19.796   6.455
10035POPC   D2A57256  41.531  19.830   6.755
10035POPC   C3A57257  41.590  19.871   7.055
10035POPC   C4A57258  41.604  19.842   7.355
10035POPC   C1B57259  41.779  19.759   6.455
10035POPC   C2B57260  41.738  19.763   6.755
10035POPC   C3B57261  41.775  19.743   7.055
10035POPC   C4B57262  41.744  19.742   7.355
10036POPC   NC357263  29.191   0.406   5.555
10036POPC   PO457264  29.117   0.446   5.855
10036POPC   GL157265  29.177   0.396   6.155
10036POPC   GL257266  29.241   0.423   6.155
10036POPC   C1A57267  29.169   0.472   6.455
10036POPC   D2A57268  29.186   0.391   6.755
10036POPC   C3A57269  29.167   0.404   7.055
10036POPC   C4A57270  29.136   0.392   7.355
10036POPC   C1B57271  29.399   0.439   6.455
10036POPC   C2B57272  29.390   0.462   6.755
10036POPC   C3B57273  29.393   0.454   7.055
10036POPC   C4B57274  29.382   0.524   7.355
10037POPC   NC357275  28.331  15.944   5.555
10037POPC   PO457276  28.412  15.955   5.855
10037POPC   GL157277  28.406  15.940   6.155
10037POPC   GL257278  28.213  15.966   6.155
10037POPC   C1A57279  28.326  15.956   6.455
10037POPC   D2A57280  28.356  15.911   6.755
10037POPC   C3A57281  28.350  15.958   7.055
10037POPC   C4A57282  28.398  15.966   7.355
10037POPC   C1B57283  28.084  15.945   6.455
10037POPC   C2B57284  28.082  16.016   6.755
10037POPC   C3B57285  28.170  15.963   7.055
10037POPC   C4B57286  28.111  16.024   7.355
10038POPC   NC357287  26.810  42.339   5.555
10038POPC   PO457288  26.789  42.325   5.855
10038POPC   GL157289  26.796  42.344   6.155
10038POPC   GL257290  26.859  42.223   6.155
10038POPC   C1A57291  26.780  42.347   6.455
10038POPC   D2A57292  26.823  42.305   6.755
10038POPC   C3A57293  26.818  42.349   7.055
10038POPC   C4A57294  26.856  42.327   7.355
10038POPC   C1B57295  26.834  42.096   6.455
10038POPC   C2B57296  26.773  42.041   6.755
10038POPC   C3B57297  26.843  42.113   7.055
10038POPC   C4B57298  26.785  42.115   7.355
10039POPC   NC357299   3.501   9.700   5.555
10039POPC   PO457300   3.539   9.781   5.855
10039POPC   GL157301   3.549   9.790   6.155
10039POPC   GL257302   3.670   9.644   6.155
10039POPC   C1A57303   3.557   9.795   6.455
10039POPC   D2A57304   3.540   9.736   6.755
10039POPC   C3A57305   3.549   9.765   7.055
10039POPC   C4A57306   3.521   9.754   7.355
10039POPC   C1B57307   3.754   9.575   6.455
10039POPC   C2B57308   3.720   9.622   6.755
10039POPC   C3B57309   3.736   9.624   7.055
10039POPC   C4B57310   3.738   9.565   7.355
10040POPC   NC357311   8.192   5.848   5.555
10040POPC   PO457312   8.224   5.871   5.855
10040POPC   GL157313   8.182   5.861   6.155
10040POPC   GL257314   8.144   5.773   6.155
10040POPC   C1A57315   8.232   5.832   6.455
10040POPC   D2A57316   8.190   5.881   6.755
10040POPC   C3A57317   8.151   5.865   7.055
10040POPC   C4A57318   8.208   5.897   7.355
10040POPC   C1B57319   8.160   5.652   6.455
10040POPC   C2B57320   8.118   5.623   6.755
10040POPC   C3B57321   8.142   5.676   7.055
10040POPC   C4B57322   8.117   5.641   7.355
10041POPC   NC357323  37.641  40.004   5.555
10041POPC   PO457324  37.692  40.021   5.855
10041POPC   GL157325  37.673  39.971   6.155
10041POPC   GL257326  37.761  40.023   6.155
10041POPC   C1A57327  37.653  40.057   6.455
10041POPC   D2A57328  37.728  39.970   6.755
10041POPC   C3A57329  37.708  40.012   7.055
10041POPC   C4A57330  37.706  40.027   7.355
10041POPC   C1B57331  37.950  40.069   6.455
10041POPC   C2B57332  37.875  40.084   6.755
10041POPC   C3B57333  37.931  40.028   7.055
10041POPC   C4B57334  37.930  40.086   7.355
10042POPC   NC357335  13.594  39.191   5.555
10042POPC   PO457336  13.647  39.210   5.855
10042POPC   GL157337  13.601  39.194   6.155
10042POPC   GL257338  13.553  39.372   6.155
10042POPC   C1A57339  13.629  39.210   6.455
10042POPC   D2A57340  13.620  39.273   6.755
10042POPC   C3A57341  13.634  39.253   7.055
10042POPC   C4A57342  13.617  39.268   7.355
10042POPC   C1B57343  13.537  39.478   6.455
10042POPC   C2B57344  13.565  39.451   6.755
10042POPC   C3B57345  13.506  39.412   7.055
10042POPC   C4B57346  13.475  39.459   7.355
10043POPC   NC357347  17.555  32.205   5.555
10043POPC   PO457348  17.541  32.235   5.855
10043POPC   GL157349  17.488  32.264   6.155
10043POPC   GL257350  17.638  32.176   6.155
10043POPC   C1A57351  17.499  32.240   6.455
10043POPC   D2A57352  17.539  32.201   6.755
10043POPC   C3A57353  17.545  32.248   7.055
10043POPC   C4A57354  17.527  32.204   7.355
10043POPC   C1B57355  17.669  32.029   6.455
10043POPC   C2B57356  17.663  32.030   6.755
10043POPC   C3B57357  17.683  32.087   7.055
10043POPC   C4B57358  17.648  32.024   7.355
10044POPC   NC357359  11.312  20.583   5.555
10044POPC   PO457360  11.287  20.634   5.855
10044POPC   GL157361  11.311  20.589   6.155
10044POPC   GL257362  11.413  20.649   6.155
10044POPC   C1A57363  11.320  20.565   6.455
10044POPC   D2A57364  11.264  20.623   6.755
10044POPC   C3A57365  11.317  20.650   7.055
10044POPC   C4A57366  11.289  20.614   7.355
10044POPC   C1B57367  11.564  20.712   6.455
10044POPC   C2B57368  11.530  20.677   6.755
10044POPC   C3B57369  11.576  20.725   7.055
10044POPC   C4B57370  11.541  20.665   7.355
10045POPC   NC357371  30.692   8.228   5.555
10045POPC   PO457372  30.672   8.167   5.855
10045POPC   GL157373  30.679   8.229   6.155
10045POPC   GL257374  30.847   8.171   6.155
10045POPC   C1A57375  30.679   8.157   6.455
10045POPC   D2A57376  30.649   8.162   6.755
10045POPC   C3A57377  30.687   8.190   7.055
10045POPC   C4A57378  30.692   8.173   7.355
10045POPC   C1B57379  30.950   8.204   6.455
10045POPC   C2B57380  30.923   8.213   6.755
10045POPC   C3B57381  30.982   8.160   7.055
10045POPC   C4B57382  30.935   8.150   7.355
10046POPC   NC357383  44.621  19.882   5.555
10046POPC   PO457384  44.672  19.796   5.855
10046POPC   GL157385  44.669  19.834   6.155
10046POPC   GL257386  44.587  19.753   6.155
10046POPC   C1A57387  44.685  19.799   6.455
10046POPC   D2A57388  44.623  19.824   6.755
10046POPC   C3A57389  44.635  19.865   7.055
10046POPC   C4A57390  44.661  19.824   7.355
10046POPC   C1B57391  44.460  19.716   6.455
10046POPC   C2B57392  44.478  19.689   6.755
10046POPC   C3B57393  44.490  19.639   7.055
10046POPC   C4B57394  44.459  19.706   7.355
10047POPC   NC357395  18.294   0.476   5.555
10047POPC   PO457396  18.312   0.421   5.855
10047POPC   GL157397  18.330   0.415   6.155
10047POPC   GL257398  18.150   0.380   6.155
10047POPC   C1A57399  18.330   0.480   6.455
10047POPC   D2A57400  18.275   0.450   6.755
10047POPC   C3A57401  18.267   0.404   7.055
10047POPC   C4A57402  18.326   0.419   7.355
10047POPC   C1B57403  18.031   0.416   6.455
10047POPC   C2B57404  18.019   0.404   6.755
10047POPC   C3B57405  18.011   0.404   7.055
10047POPC   C4B57406  18.003   0.405   7.355
10048POPC   NC357407  24.519  42.380   5.555
10048POPC   PO457408  24.505  42.304   5.855
10048POPC   GL157409  24.451  42.367   6.155
10048POPC   GL257410  24.413  42.356   6.155
10048POPC   C1A57411  24.440  42.326   6.455
10048POPC   D2A57412  24.443  42.318   6.755
10048POPC   C3A57413  24.506  42.331   7.055
10048POPC   C4A57414  24.501  42.327   7.355
10048POPC   C1B57415  24.206  42.373   6.455
10048POPC   C2B57416  24.297  42.401   6.755
10048POPC   C3B57417  24.207  42.426   7.055
10048POPC   C4B57418  24.262  42.429   7.355
10049POPC   NC357419  22.198   0.420   5.555
10049POPC   PO457420  22.205   0.465   5.855
10049POPC   GL157421  22.190   0.439   6.155
10049POPC   GL257422  22.147   0.284   6.155
10049POPC   C1A57423  22.160   0.430   6.455
10049POPC   D2A57424  22.144   0.400   6.755
10049POPC   C3A57425  22.206   0.393   7.055
10049POPC   C4A57426  22.122   0.460   7.355
10049POPC   C1B57427  22.039   0.150   6.455
10049POPC   C2B57428  22.035   0.176   6.755
10049POPC   C3B57429  22.121   0.226   7.055
10049POPC   C4B57430  22.117   0.228   7.355
10050POPC   NC357431  40.035  43.073   5.555
10050POPC   PO457432  40.047  43.095   5.855
10050POPC   GL157433  40.032  43.138   6.155
10050POPC   GL257434  39.856  43.103   6.155
10050POPC   C1A57435  40.035  43.130   6.455
10050POPC   D2A57436  40.043  43.096   6.755
10050POPC   C3A57437  39.961  43.128   7.055
10050POPC   C4A57438  40.041  43.088   7.355
10050POPC   C1B57439  39.786  43.185   6.455
10050POPC   C2B57440  39.717  43.154   6.755
10050POPC   C3B57441  39.765  43.115   7.055
10050POPC   C4B57442  39.754  43.203   7.355
10051POPC   NC357443  43.124  25.277   5.555
10051POPC   PO457444  43.122  25.263   5.855
10051POPC   GL157445  43.139  25.239   6.155
10051POPC   GL257446  43.138  25.133   6.155
10051POPC   C1A57447  43.136  25.229   6.455
10051POPC   D2A57448  43.137  25.231   6.755
10051POPC   C3A57449  43.074  25.237   7.055
10051POPC   C4A57450  43.062  25.290   7.355
10051POPC   C1B57451  43.276  25.050   6.455
10051POPC   C2B57452  43.271  25.081   6.755
10051POPC   C3B57453  43.225  25.099   7.055
10051POPC   C4B57454  43.306  25.020   7.355
10052POPC   NC357455   3.535  40.806   5.555
10052POPC   PO457456   3.559  40.744   5.855
10052POPC   GL157457   3.495  40.752   6.155
10052POPC   GL257458   3.554  40.947   6.155
10052POPC   C1A57459   3.580  40.789   6.455
10052POPC   D2A57460   3.511  40.810   6.755
10052POPC   C3A57461   3.523  40.803   7.055
10052POPC   C4A57462   3.521  40.787   7.355
10052POPC   C1B57463   3.525  41.020   6.455
10052POPC   C2B57464   3.538  41.040   6.755
10052POPC   C3B57465   3.565  41.025   7.055
10052POPC   C4B57466   3.494  41.005   7.355
10053POPC   NC357467  36.084  41.531   5.555
10053POPC   PO457468  36.110  41.566   5.855
10053POPC   GL157469  36.104  41.571   6.155
10053POPC   GL257470  36.014  41.468   6.155
10053POPC   C1A57471  36.093  41.527   6.455
10053POPC   D2A57472  36.148  41.529   6.755
10053POPC   C3A57473  36.156  41.533   7.055
10053POPC   C4A57474  36.120  41.592   7.355
10053POPC   C1B57475  35.978  41.390   6.455
10053POPC   C2B57476  35.930  41.358   6.755
10053POPC   C3B57477  36.006  41.394   7.055
10053POPC   C4B57478  35.925  41.372   7.355
10054POPC   NC357479   8.178  20.595   5.555
10054POPC   PO457480   8.238  20.580   5.855
10054POPC   GL157481   8.237  20.597   6.155
10054POPC   GL257482   8.292  20.515   6.155
10054POPC   C1A57483   8.217  20.593   6.455
10054POPC   D2A57484   8.187  20.617   6.755
10054POPC   C3A57485   8.243  20.567   7.055
10054POPC   C4A57486   8.175  20.625   7.355
10054POPC   C1B57487   8.310  20.452   6.455
10054POPC   C2B57488   8.307  20.435   6.755
10054POPC   C3B57489   8.300  20.427   7.055
10054POPC   C4B57490   8.314  20.442   7.355
10055POPC   NC357491   6.650  10.514   5.555
10055POPC   PO457492   6.690  10.475   5.855
10055POPC   GL157493   6.668  10.551   6.155
10055POPC   GL257494   6.795  10.465   6.155
10055POPC   C1A57495   6.667  10.525   6.455
10055POPC   D2A57496   6.655  10.520   6.755
10055POPC   C3A57497   6.600  10.561   7.055
10055POPC   C4A57498   6.633  10.519   7.355
10055POPC   C1B57499   6.878  10.397   6.455
10055POPC   C2B57500   6.924  10.450   6.755
10055POPC   C3B57501   6.835  10.390   7.055
10055POPC   C4B57502   6.888  10.484   7.355
10056POPC   NC357503  42.344  29.142   5.555
10056POPC   PO457504  42.302  29.184   5.855
10056POPC   GL157505  42.315  29.105   6.155
10056POPC   GL257506  42.188  29.047   6.155
10056POPC   C1A57507  42.381  29.103   6.455
10056POPC   D2A57508  42.380  29.168   6.755
10056POPC   C3A57509  42.338  29.192   7.055
10056POPC   C4A57510  42.382  29.153   7.355
10056POPC   C1B57511  42.126  28.955   6.455
10056POPC   C2B57512  42.107  28.985   6.755
10056POPC   C3B57513  42.152  28.961   7.055
10056POPC   C4B57514  42.137  28.994   7.355
10057POPC   NC357515   2.731  37.672   5.555
10057POPC   PO457516   2.740  37.666   5.855
10057POPC   GL157517   2.736  37.632   6.155
10057POPC   GL257518   2.872  37.702   6.155
10057POPC   C1A57519   2.769  37.678   6.455
10057POPC   D2A57520   2.725  37.652   6.755
10057POPC   C3A57521   2.771  37.661   7.055
10057POPC   C4A57522   2.794  37.701   7.355
10057POPC   C1B57523   3.016  37.581   6.455
10057POPC   C2B57524   3.012  37.580   6.755
10057POPC   C3B57525   3.008  37.584   7.055
10057POPC   C4B57526   3.001  37.606   7.355
10058POPC   NC357527  21.358  43.902   5.555
10058POPC   PO457528  21.420  43.934   5.855
10058POPC   GL157529  21.342  43.898   6.155
10058POPC   GL257530  21.262  43.934   6.155
10058POPC   C1A57531  21.430  43.929   6.455
10058POPC   D2A57532  21.363  43.891   6.755
10058POPC   C3A57533  21.382  43.866   7.055
10058POPC   C4A57534  21.409  43.875   7.355
10058POPC   C1B57535  21.136  44.007   6.455
10058POPC   C2B57536  21.167  44.039   6.755
10058POPC   C3B57537  21.198  43.985   7.055
10058POPC   C4B57538  21.146  43.995   7.355
10059POPC   NC357539  31.493   0.418   5.555
10059POPC   PO457540  31.521   0.390   5.855
10059POPC   GL157541  31.425   0.427   6.155
10059POPC   GL257542  31.603   0.473   6.155
10059POPC   C1A57543  31.474   0.471   6.455
10059POPC   D2A57544  31.451   0.441   6.755
10059POPC   C3A57545  31.422   0.424   7.055
10059POPC   C4A57546  31.482   0.480   7.355
10059POPC   C1B57547  31.721   0.456   6.455
10059POPC   C2B57548  31.687   0.462   6.755
10059POPC   C3B57549  31.675   0.462   7.055
10059POPC   C4B57550  31.701   0.477   7.355
10060POPC   NC357551   7.435  42.350   5.555
10060POPC   PO457552   7.402  42.290   5.855
10060POPC   GL157553   7.450  42.332   6.155
10060POPC   GL257554   7.477  42.236   6.155
10060POPC   C1A57555   7.418  42.322   6.455
10060POPC   D2A57556   7.382  42.286   6.755
10060POPC   C3A57557   7.379  42.302   7.055
10060POPC   C4A57558   7.437  42.285   7.355
10060POPC   C1B57559   7.617  42.171   6.455
10060POPC   C2B57560   7.671  42.165   6.755
10060POPC   C3B57561   7.663  42.183   7.055
10060POPC   C4B57562   7.670  42.144   7.355
10061POPC   NC357563  41.511  26.069   5.555
10061POPC   PO457564  41.556  26.073   5.855
10061POPC   GL157565  41.557  26.027   6.155
10061POPC   GL257566  41.669  26.137   6.155
10061POPC   C1A57567  41.529  26.054   6.455
10061POPC   D2A57568  41.515  26.070   6.755
10061POPC   C3A57569  41.601  26.068   7.055
10061POPC   C4A57570  41.524  26.057   7.355
10061POPC   C1B57571  41.697  26.230   6.455
10061POPC   C2B57572  41.769  26.181   6.755
10061POPC   C3B57573  41.778  26.186   7.055
10061POPC   C4B57574  41.702  26.250   7.355
10062POPC   NC357575  17.498   3.551   5.555
10062POPC   PO457576  17.474   3.584   5.855
10062POPC   GL157577  17.495   3.522   6.155
10062POPC   GL257578  17.442   3.446   6.155
10062POPC   C1A57579  17.556   3.552   6.455
10062POPC   D2A57580  17.528   3.496   6.755
10062POPC   C3A57581  17.502   3.500   7.055
10062POPC   C4A57582  17.516   3.584   7.355
10062POPC   C1B57583  17.278   3.403   6.455
10062POPC   C2B57584  17.355   3.392   6.755
10062POPC   C3B57585  17.335   3.346   7.055
10062POPC   C4B57586  17.336   3.338   7.355
10063POPC   NC357587   3.543  15.228   5.555
10063POPC   PO457588   3.508  15.165   5.855
10063POPC   GL157589   3.559  15.153   6.155
10063POPC   GL257590   3.503  15.278   6.155
10063POPC   C1A57591   3.544  15.159   6.455
10063POPC   D2A57592   3.528  15.211   6.755
10063POPC   C3A57593   3.570  15.135   7.055
10063POPC   C4A57594   3.537  15.133   7.355
10063POPC   C1B57595   3.558  15.434   6.455
10063POPC   C2B57596   3.582  15.454   6.755
10063POPC   C3B57597   3.520  15.461   7.055
10063POPC   C4B57598   3.598  15.476   7.355
10064POPC   NC357599  44.691  17.508   5.555
10064POPC   PO457600  44.613  17.491   5.855
10064POPC   GL157601  44.677  17.479   6.155
10064POPC   GL257602  44.778  17.424   6.155
10064POPC   C1A57603  44.704  17.500   6.455
10064POPC   D2A57604  44.683  17.504   6.755
10064POPC   C3A57605  44.667  17.475   7.055
10064POPC   C4A57606  44.644  17.532   7.355
10064POPC   C1B57607  44.944  17.442   6.455
10064POPC   C2B57608  44.927  17.412   6.755
10064POPC   C3B57609  44.879  17.430   7.055
10064POPC   C4B57610  44.890  17.474   7.355
10065POPC   NC357611  10.558   0.392   5.555
10065POPC   PO457612  10.566   0.447   5.855
10065POPC   GL157613  10.542   0.470   6.155
10065POPC   GL257614  10.404   0.515   6.155
10065POPC   C1A57615  10.530   0.415   6.455
10065POPC   D2A57616  10.477   0.455   6.755
10065POPC   C3A57617  10.536   0.400   7.055
10065POPC   C4A57618  10.522   0.454   7.355
10065POPC   C1B57619  10.397   0.591   6.455
10065POPC   C2B57620  10.371   0.644   6.755
10065POPC   C3B57621  10.353   0.637   7.055
10065POPC   C4B57622  10.411   0.626   7.355
10066POPC   NC357623  26.820   1.951   5.555
10066POPC   PO457624  26.791   1.997   5.855
10066POPC   GL157625  26.866   2.011   6.155
10066POPC   GL257626  26.752   2.092   6.155
10066POPC   C1A57627  26.846   1.957   6.455
10066POPC   D2A57628  26.801   1.959   6.755
10066POPC   C3A57629  26.793   1.949   7.055
10066POPC   C4A57630  26.784   1.957   7.355
10066POPC   C1B57631  26.694   2.171   6.455
10066POPC   C2B57632  26.642   2.158   6.755
10066POPC   C3B57633  26.677   2.202   7.055
10066POPC   C4B57634  26.680   2.242   7.355
10067POPC   NC357635  30.689  41.606   5.555
10067POPC   PO457636  30.712  41.514   5.855
10067POPC   GL157637  30.719  41.583   6.155
10067POPC   GL257638  30.815  41.571   6.155
10067POPC   C1A57639  30.672  41.518   6.455
10067POPC   D2A57640  30.650  41.593   6.755
10067POPC   C3A57641  30.673  41.606   7.055
10067POPC   C4A57642  30.683  41.602   7.355
10067POPC   C1B57643  30.910  41.718   6.455
10067POPC   C2B57644  30.949  41.707   6.755
10067POPC   C3B57645  30.950  41.645   7.055
10067POPC   C4B57646  30.929  41.682   7.355
10068POPC   NC357647  21.363  15.955   5.555
10068POPC   PO457648  21.348  15.999   5.855
10068POPC   GL157649  21.432  15.946   6.155
10068POPC   GL257650  21.464  15.989   6.155
10068POPC   C1A57651  21.435  15.958   6.455
10068POPC   D2A57652  21.371  15.958   6.755
10068POPC   C3A57653  21.345  15.981   7.055
10068POPC   C4A57654  21.392  15.987   7.355
10068POPC   C1B57655  21.640  16.032   6.455
10068POPC   C2B57656  21.675  15.950   6.755
10068POPC   C3B57657  21.650  16.029   7.055
10068POPC   C4B57658  21.644  15.944   7.355
10069POPC   NC357659   8.238  19.038   5.555
10069POPC   PO457660   8.171  19.011   5.855
10069POPC   GL157661   8.242  19.034   6.155
10069POPC   GL257662   8.114  19.133   6.155
10069POPC   C1A57663   8.185  19.025   6.455
10069POPC   D2A57664   8.169  19.103   6.755
10069POPC   C3A57665   8.215  19.108   7.055
10069POPC   C4A57666   8.157  19.063   7.355
10069POPC   C1B57667   8.107  19.273   6.455
10069POPC   C2B57668   8.143  19.272   6.755
10069POPC   C3B57669   8.151  19.341   7.055
10069POPC   C4B57670   8.126  19.347   7.355
10070POPC   NC357671  28.412   2.786   5.555
10070POPC   PO457672  28.319   2.750   5.855
10070POPC   GL157673  28.405   2.730   6.155
10070POPC   GL257674  28.494   2.856   6.155
10070POPC   C1A57675  28.367   2.730   6.455
10070POPC   D2A57676  28.370   2.767   6.755
10070POPC   C3A57677  28.373   2.745   7.055
10070POPC   C4A57678  28.345   2.792   7.355
10070POPC   C1B57679  28.608   2.961   6.455
10070POPC   C2B57680  28.592   2.888   6.755
10070POPC   C3B57681  28.611   2.930   7.055
10070POPC   C4B57682  28.557   2.957   7.355
10071POPC   NC357683  37.675  42.295   5.555
10071POPC   PO457684  37.718  42.316   5.855
10071POPC   GL157685  37.648  42.291   6.155
10071POPC   GL257686  37.723  42.477   6.155
10071POPC   C1A57687  37.657  42.315   6.455
10071POPC   D2A57688  37.631  42.309   6.755
10071POPC   C3A57689  37.700  42.337   7.055
10071POPC   C4A57690  37.712  42.381   7.355
10071POPC   C1B57691  37.778  42.601   6.455
10071POPC   C2B57692  37.696  42.595   6.755
10071POPC   C3B57693  37.718  42.600   7.055
10071POPC   C4B57694  37.752  42.558   7.355
10072POPC   NC357695  25.300  43.861   5.555
10072POPC   PO457696  25.225  43.912   5.855
10072POPC   GL157697  25.258  43.881   6.155
10072POPC   GL257698  25.147  43.872   6.155
10072POPC   C1A57699  25.306  43.841   6.455
10072POPC   D2A57700  25.289  43.908   6.755
10072POPC   C3A57701  25.283  43.891   7.055
10072POPC   C4A57702  25.255  43.918   7.355
10072POPC   C1B57703  25.097  43.763   6.455
10072POPC   C2B57704  25.093  43.803   6.755
10072POPC   C3B57705  25.089  43.766   7.055
10072POPC   C4B57706  25.000  43.763   7.355
10073POPC   NC357707   8.974  19.873   5.555
10073POPC   PO457708   8.942  19.882   5.855
10073POPC   GL157709   9.013  19.847   6.155
10073POPC   GL257710   9.075  19.768   6.155
10073POPC   C1A57711   9.008  19.869   6.455
10073POPC   D2A57712   8.988  19.824   6.755
10073POPC   C3A57713   8.983  19.844   7.055
10073POPC   C4A57714   8.997  19.842   7.355
10073POPC   C1B57715   9.134  19.634   6.455
10073POPC   C2B57716   9.116  19.625   6.755
10073POPC   C3B57717   9.123  19.669   7.055
10073POPC   C4B57718   9.147  19.699   7.355
10074POPC   NC357719  37.637  23.696   5.555
10074POPC   PO457720  37.639  23.690   5.855
10074POPC   GL157721  37.709  23.673   6.155
10074POPC   GL257722  37.800  23.771   6.155
10074POPC   C1A57723  37.723  23.740   6.455
10074POPC   D2A57724  37.640  23.708   6.755
10074POPC   C3A57725  37.709  23.669   7.055
10074POPC   C4A57726  37.724  23.763   7.355
10074POPC   C1B57727  37.895  23.814   6.455
10074POPC   C2B57728  37.910  23.749   6.755
10074POPC   C3B57729  37.901  23.821   7.055
10074POPC   C4B57730  37.901  23.769   7.355
10075POPC   NC357731  20.646  44.615   5.555
10075POPC   PO457732  20.619  44.682   5.855
10075POPC   GL157733  20.580  44.656   6.155
10075POPC   GL257734  20.777  44.752   6.155
10075POPC   C1A57735  20.586  44.635   6.455
10075POPC   D2A57736  20.582  44.698   6.755
10075POPC   C3A57737  20.645  44.687   7.055
10075POPC   C4A57738  20.588  44.614   7.355
10075POPC   C1B57739  20.808  44.788   6.455
10075POPC   C2B57740  20.850  44.795   6.755
10075POPC   C3B57741  20.860  44.701   7.055
10075POPC   C4B57742  20.804  44.741   7.355
10076POPC   NC357743  28.330  30.659   5.555
10076POPC   PO457744  28.380  30.650   5.855
10076POPC   GL157745  28.410  30.678   6.155
10076POPC   GL257746  28.477  30.628   6.155
10076POPC   C1A57747  28.377  30.686   6.455
10076POPC   D2A57748  28.352  30.651   6.755
10076POPC   C3A57749  28.380  30.699   7.055
10076POPC   C4A57750  28.362  30.690   7.355
10076POPC   C1B57751  28.605  30.497   6.455
10076POPC   C2B57752  28.578  30.499   6.755
10076POPC   C3B57753  28.538  30.523   7.055
10076POPC   C4B57754  28.539  30.496   7.355
10077POPC   NC357755  14.411  37.649   5.555
10077POPC   PO457756  14.396  37.674   5.855
10077POPC   GL157757  14.376  37.711   6.155
10077POPC   GL257758  14.487  37.759   6.155
10077POPC   C1A57759  14.408  37.711   6.455
10077POPC   D2A57760  14.424  37.697   6.755
10077POPC   C3A57761  14.442  37.633   7.055
10077POPC   C4A57762  14.439  37.681   7.355
10077POPC   C1B57763  14.658  37.766   6.455
10077POPC   C2B57764  14.579  37.774   6.755
10077POPC   C3B57765  14.609  37.813   7.055
10077POPC   C4B57766  14.600  37.785   7.355
10078POPC   NC357767  27.585  30.682   5.555
10078POPC   PO457768  27.636  30.678   5.855
10078POPC   GL157769  27.633  30.701   6.155
10078POPC   GL257770  27.656  30.583   6.155
10078POPC   C1A57771  27.627  30.667   6.455
10078POPC   D2A57772  27.596  30.722   6.755
10078POPC   C3A57773  27.584  30.716   7.055
10078POPC   C4A57774  27.555  30.649   7.355
10078POPC   C1B57775  27.763  30.469   6.455
10078POPC   C2B57776  27.801  30.560   6.755
10078POPC   C3B57777  27.758  30.491   7.055
10078POPC   C4B57778  27.724  30.550   7.355
10079POPC   NC357779  37.662  22.941   5.555
10079POPC   PO457780  37.686  22.966   5.855
10079POPC   GL157781  37.678  22.967   6.155
10079POPC   GL257782  37.806  23.045   6.155
10079POPC   C1A57783  37.682  22.945   6.455
10079POPC   D2A57784  37.699  22.935   6.755
10079POPC   C3A57785  37.685  22.974   7.055
10079POPC   C4A57786  37.649  22.929   7.355
10079POPC   C1B57787  37.861  23.127   6.455
10079POPC   C2B57788  37.809  23.143   6.755
10079POPC   C3B57789  37.874  23.138   7.055
10079POPC   C4B57790  37.828  23.144   7.355
10080POPC   NC357791  30.727  12.880   5.555
10080POPC   PO457792  30.717  12.812   5.855
10080POPC   GL157793  30.739  12.899   6.155
10080POPC   GL257794  30.759  12.786   6.155
10080POPC   C1A57795  30.652  12.869   6.455
10080POPC   D2A57796  30.695  12.846   6.755
10080POPC   C3A57797  30.702  12.840   7.055
10080POPC   C4A57798  30.737  12.832   7.355
10080POPC   C1B57799  30.918  12.690   6.455
10080POPC   C2B57800  30.917  12.674   6.755
10080POPC   C3B57801  30.923  12.674   7.055
10080POPC   C4B57802  30.861  12.671   7.355
10081POPC   NC357803  41.598  28.391   5.555
10081POPC   PO457804  41.599  28.359   5.855
10081POPC   GL157805  41.533  28.340   6.155
10081POPC   GL257806  41.516  28.436   6.155
10081POPC   C1A57807  41.533  28.324   6.455
10081POPC   D2A57808  41.514  28.356   6.755
10081POPC   C3A57809  41.602  28.384   7.055
10081POPC   C4A57810  41.583  28.328   7.355
10081POPC   C1B57811  41.352  28.567   6.455
10081POPC   C2B57812  41.433  28.505   6.755
10081POPC   C3B57813  41.387  28.529   7.055
10081POPC   C4B57814  41.420  28.532   7.355
10082POPC   NC357815   9.703  38.431   5.555
10082POPC   PO457816   9.703  38.417   5.855
10082POPC   GL157817   9.797  38.449   6.155
10082POPC   GL257818   9.621  38.371   6.155
10082POPC   C1A57819   9.755  38.454   6.455
10082POPC   D2A57820   9.764  38.497   6.755
10082POPC   C3A57821   9.774  38.466   7.055
10082POPC   C4A57822   9.709  38.435   7.355
10082POPC   C1B57823   9.550  38.369   6.455
10082POPC   C2B57824   9.514  38.315   6.755
10082POPC   C3B57825   9.511  38.347   7.055
10082POPC   C4B57826   9.491  38.360   7.355
10083POPC   NC357827  14.380   0.408   5.555
10083POPC   PO457828  14.410   0.481   5.855
10083POPC   GL157829  14.395   0.484   6.155
10083POPC   GL257830  14.379   0.579   6.155
10083POPC   C1A57831  14.357   0.398   6.455
10083POPC   D2A57832  14.419   0.481   6.755
10083POPC   C3A57833  14.364   0.467   7.055
10083POPC   C4A57834  14.407   0.428   7.355
10083POPC   C1B57835  14.296   0.644   6.455
10083POPC   C2B57836  14.296   0.651   6.755
10083POPC   C3B57837  14.266   0.660   7.055
10083POPC   C4B57838  14.325   0.664   7.355
10084POPC   NC357839  15.916   2.014   5.555
10084POPC   PO457840  15.927   1.979   5.855
10084POPC   GL157841  15.978   1.963   6.155
10084POPC   GL257842  15.853   2.064   6.155
10084POPC   C1A57843  15.918   1.957   6.455
10084POPC   D2A57844  15.918   2.016   6.755
10084POPC   C3A57845  15.952   2.013   7.055
10084POPC   C4A57846  16.004   2.009   7.355
10084POPC   C1B57847  15.791   2.129   6.455
10084POPC   C2B57848  15.750   2.204   6.755
10084POPC   C3B57849  15.770   2.202   7.055
10084POPC   C4B57850  15.743   2.143   7.355
10085POPC   NC357851   8.214  12.865   5.555
10085POPC   PO457852   8.167  12.841   5.855
10085POPC   GL157853   8.186  12.842   6.155
10085POPC   GL257854   8.335  12.945   6.155
10085POPC   C1A57855   8.154  12.813   6.455
10085POPC   D2A57856   8.212  12.872   6.755
10085POPC   C3A57857   8.170  12.869   7.055
10085POPC   C4A57858   8.195  12.876   7.355
10085POPC   C1B57859   8.476  12.926   6.455
10085POPC   C2B57860   8.461  12.909   6.755
10085POPC   C3B57861   8.424  12.965   7.055
10085POPC   C4B57862   8.393  12.987   7.355
10086POPC   NC357863   8.989  40.025   5.555
10086POPC   PO457864   8.957  40.019   5.855
10086POPC   GL157865   9.013  40.013   6.155
10086POPC   GL257866   8.887  39.921   6.155
10086POPC   C1A57867   8.973  39.965   6.455
10086POPC   D2A57868   8.969  40.007   6.755
10086POPC   C3A57869   8.982  40.045   7.055
10086POPC   C4A57870   8.925  40.008   7.355
10086POPC   C1B57871   8.902  39.792   6.455
10086POPC   C2B57872   8.851  39.798   6.755
10086POPC   C3B57873   8.838  39.815   7.055
10086POPC   C4B57874   8.920  39.756   7.355
10087POPC   NC357875   1.213  19.869   5.555
10087POPC   PO457876   1.253  19.814   5.855
10087POPC   GL157877   1.226  19.837   6.155
10087POPC   GL257878   1.228  19.724   6.155
10087POPC   C1A57879   1.194  19.830   6.455
10087POPC   D2A57880   1.188  19.866   6.755
10087POPC   C3A57881   1.193  19.838   7.055
10087POPC   C4A57882   1.212  19.863   7.355
10087POPC   C1B57883   1.182  19.563   6.455
10087POPC   C2B57884   1.194  19.619   6.755
10087POPC   C3B57885   1.165  19.578   7.055
10087POPC   C4B57886   1.157  19.584   7.355
10088POPC   NC357887  23.701  33.777   5.555
10088POPC   PO457888  23.747  33.837   5.855
10088POPC   GL157889  23.674  33.806   6.155
10088POPC   GL257890  23.607  33.865   6.155
10088POPC   C1A57891  23.681  33.776   6.455
10088POPC   D2A57892  23.749  33.776   6.755
10088POPC   C3A57893  23.692  33.780   7.055
10088POPC   C4A57894  23.688  33.791   7.355
10088POPC   C1B57895  23.618  34.016   6.455
10088POPC   C2B57896  23.613  34.044   6.755
10088POPC   C3B57897  23.576  33.989   7.055
10088POPC   C4B57898  23.575  34.065   7.355
10089POPC   NC357899  28.403   3.544   5.555
10089POPC   PO457900  28.406   3.522   5.855
10089POPC   GL157901  28.340   3.536   6.155
10089POPC   GL257902  28.294   3.617   6.155
10089POPC   C1A57903  28.352   3.537   6.455
10089POPC   D2A57904  28.388   3.552   6.755
10089POPC   C3A57905  28.387   3.530   7.055
10089POPC   C4A57906  28.362   3.523   7.355
10089POPC   C1B57907  28.084   3.648   6.455
10089POPC   C2B57908  28.172   3.594   6.755
10089POPC   C3B57909  28.119   3.615   7.055
10089POPC   C4B57910  28.124   3.657   7.355
10090POPC   NC357911   8.218  22.956   5.555
10090POPC   PO457912   8.161  22.942   5.855
10090POPC   GL157913   8.161  22.905   6.155
10090POPC   GL257914   8.351  22.957   6.155
10090POPC   C1A57915   8.185  22.966   6.455
10090POPC   D2A57916   8.183  22.893   6.755
10090POPC   C3A57917   8.210  22.913   7.055
10090POPC   C4A57918   8.197  22.971   7.355
10090POPC   C1B57919   8.371  23.020   6.455
10090POPC   C2B57920   8.454  23.035   6.755
10090POPC   C3B57921   8.364  23.109   7.055
10090POPC   C4B57922   8.381  23.024   7.355
10091POPC   NC357923  19.809  40.740   5.555
10091POPC   PO457924  19.804  40.766   5.855
10091POPC   GL157925  19.854  40.800   6.155
10091POPC   GL257926  19.662  40.748   6.155
10091POPC   C1A57927  19.813  40.830   6.455
10091POPC   D2A57928  19.795  40.810   6.755
10091POPC   C3A57929  19.849  40.800   7.055
10091POPC   C4A57930  19.800  40.807   7.355
10091POPC   C1B57931  19.597  40.750   6.455
10091POPC   C2B57932  19.609  40.740   6.755
10091POPC   C3B57933  19.602  40.762   7.055
10091POPC   C4B57934  19.587  40.790   7.355
10092POPC   NC357935  43.885  22.954   5.555
10092POPC   PO457936  43.898  22.957   5.855
10092POPC   GL157937  43.918  22.910   6.155
10092POPC   GL257938  43.727  22.921   6.155
10092POPC   C1A57939  43.851  22.979   6.455
10092POPC   D2A57940  43.934  22.906   6.755
10092POPC   C3A57941  43.932  22.924   7.055
10092POPC   C4A57942  43.895  22.968   7.355
10092POPC   C1B57943  43.688  23.021   6.455
10092POPC   C2B57944  43.650  23.024   6.755
10092POPC   C3B57945  43.675  22.989   7.055
10092POPC   C4B57946  43.648  22.951   7.355
10093POPC   NC357947  13.589  34.555   5.555
10093POPC   PO457948  13.606  34.619   5.855
10093POPC   GL157949  13.676  34.598   6.155
10093POPC   GL257950  13.740  34.535   6.155
10093POPC   C1A57951  13.665  34.546   6.455
10093POPC   D2A57952  13.653  34.558   6.755
10093POPC   C3A57953  13.645  34.543   7.055
10093POPC   C4A57954  13.626  34.597   7.355
10093POPC   C1B57955  13.860  34.530   6.455
10093POPC   C2B57956  13.909  34.503   6.755
10093POPC   C3B57957  13.836  34.509   7.055
10093POPC   C4B57958  13.867  34.476   7.355
10094POPC   NC357959  26.859  21.342   5.555
10094POPC   PO457960  26.808  21.414   5.855
10094POPC   GL157961  26.824  21.395   6.155
10094POPC   GL257962  26.911  21.361   6.155
10094POPC   C1A57963  26.841  21.410   6.455
10094POPC   D2A57964  26.793  21.409   6.755
10094POPC   C3A57965  26.821  21.336   7.055
10094POPC   C4A57966  26.796  21.361   7.355
10094POPC   C1B57967  27.079  21.337   6.455
10094POPC   C2B57968  27.043  21.331   6.755
10094POPC   C3B57969  27.037  21.254   7.055
10094POPC   C4B57970  27.041  21.244   7.355
10095POPC   NC357971  19.785   7.388   5.555
10095POPC   PO457972  19.884   7.454   5.855
10095POPC   GL157973  19.831   7.431   6.155
10095POPC   GL257974  19.830   7.340   6.155
10095POPC   C1A57975  19.848   7.395   6.455
10095POPC   D2A57976  19.822   7.439   6.755
10095POPC   C3A57977  19.849   7.442   7.055
10095POPC   C4A57978  19.787   7.412   7.355
10095POPC   C1B57979  19.899   7.217   6.455
10095POPC   C2B57980  19.869   7.223   6.755
10095POPC   C3B57981  19.827   7.131   7.055
10095POPC   C4B57982  19.860   7.142   7.355
10096POPC   NC357983   2.793  40.053   5.555
10096POPC   PO457984   2.787  39.968   5.855
10096POPC   GL157985   2.791  40.052   6.155
10096POPC   GL257986   2.848  40.130   6.155
10096POPC   C1A57987   2.735  39.980   6.455
10096POPC   D2A57988   2.755  39.995   6.755
10096POPC   C3A57989   2.765  40.047   7.055
10096POPC   C4A57990   2.737  40.035   7.355
10096POPC   C1B57991   2.861  40.238   6.455
10096POPC   C2B57992   2.864  40.235   6.755
10096POPC   C3B57993   2.883  40.200   7.055
10096POPC   C4B57994   2.909  40.192   7.355
10097POPC   NC357995  26.813  33.837   5.555
10097POPC   PO457996  26.838  33.756   5.855
10097POPC   GL157997  26.819  33.765   6.155
10097POPC   GL257998  26.795  33.699   6.155
10097POPC   C1A57999  26.840  33.808   6.455
10097POPC   D2A58000  26.800  33.759   6.755
10097POPC   C3A58001  26.830  33.794   7.055
10097POPC   C4A58002  26.790  33.811   7.355
10097POPC   C1B58003  26.718  33.559   6.455
10097POPC   C2B58004  26.723  33.534   6.755
10097POPC   C3B58005  26.699  33.591   7.055
10097POPC   C4B58006  26.732  33.574   7.355
10098POPC   NC358007  10.549  12.894   5.555
10098POPC   PO458008  10.558  12.884   5.855
10098POPC   GL158009  10.520  12.827   6.155
10098POPC   GL258010  10.368  12.914   6.155
10098POPC   C1A58011  10.532  12.867   6.455
10098POPC   D2A58012  10.496  12.889   6.755
10098POPC   C3A58013  10.566  12.813   7.055
10098POPC   C4A58014  10.486  12.820   7.355
10098POPC   C1B58015  10.241  12.921   6.455
10098POPC   C2B58016  10.275  12.914   6.755
10098POPC   C3B58017  10.236  12.930   7.055
10098POPC   C4B58018  10.269  12.890   7.355
10099POPC   NC358019   8.931  44.640   5.555
10099POPC   PO458020   8.994  44.662   5.855
10099POPC   GL158021   8.923  44.638   6.155
10099POPC   GL258022   9.027  44.785   6.155
10099POPC   C1A58023   9.005  44.704   6.455
10099POPC   D2A58024   8.941  44.658   6.755
10099POPC   C3A58025   8.939  44.645   7.055
10099POPC   C4A58026   8.960  44.709   7.355
10099POPC   C1B58027   9.123  44.847   6.455
10099POPC   C2B58028   9.108  44.840   6.755
10099POPC   C3B58029   9.114  44.877   7.055
10099POPC   C4B58030   9.116  44.838   7.355
10100POPC   NC358031  11.310  43.908   5.555
10100POPC   PO458032  11.336  43.842   5.855
10100POPC   GL158033  11.273  43.931   6.155
10100POPC   GL258034  11.399  43.784   6.155
10100POPC   C1A58035  11.322  43.886   6.455
10100POPC   D2A58036  11.271  43.877   6.755
10100POPC   C3A58037  11.266  43.920   7.055
10100POPC   C4A58038  11.291  43.921   7.355
10100POPC   C1B58039  11.403  43.656   6.455
10100POPC   C2B58040  11.447  43.674   6.755
10100POPC   C3B58041  11.407  43.645   7.055
10100POPC   C4B58042  11.433  43.684   7.355
10101POPC   NC358043  28.365  16.702   5.555
10101POPC   PO458044  28.341  16.720   5.855
10101POPC   GL158045  28.324  16.715   6.155
10101POPC   GL258046  28.532  16.689   6.155
10101POPC   C1A58047  28.339  16.779   6.455
10101POPC   D2A58048  28.324  16.777   6.755
10101POPC   C3A58049  28.333  16.767   7.055
10101POPC   C4A58050  28.380  16.744   7.355
10101POPC   C1B58051  28.551  16.609   6.455
10101POPC   C2B58052  28.561  16.599   6.755
10101POPC   C3B58053  28.597  16.656   7.055
10101POPC   C4B58054  28.561  16.584   7.355
10102POPC   NC358055  33.829  20.592   5.555
10102POPC   PO458056  33.836  20.633   5.855
10102POPC   GL158057  33.828  20.620   6.155
10102POPC   GL258058  33.857  20.687   6.155
10102POPC   C1A58059  33.799  20.571   6.455
10102POPC   D2A58060  33.849  20.583   6.755
10102POPC   C3A58061  33.814  20.571   7.055
10102POPC   C4A58062  33.800  20.655   7.355
10102POPC   C1B58063  33.964  20.785   6.455
10102POPC   C2B58064  33.927  20.781   6.755
10102POPC   C3B58065  33.970  20.749   7.055
10102POPC   C4B58066  33.965  20.826   7.355
10103POPC   NC358067  34.624  39.978   5.555
10103POPC   PO458068  34.609  39.973   5.855
10103POPC   GL158069  34.615  40.025   6.155
10103POPC   GL258070  34.419  40.022   6.155
10103POPC   C1A58071  34.530  40.024   6.455
10103POPC   D2A58072  34.616  40.042   6.755
10103POPC   C3A58073  34.586  40.008   7.055
10103POPC   C4A58074  34.526  40.048   7.355
10103POPC   C1B58075  34.336  40.004   6.455
10103POPC   C2B58076  34.280  39.955   6.755
10103POPC   C3B58077  34.355  39.928   7.055
10103POPC   C4B58078  34.341  39.992   7.355
10104POPC   NC358079  22.174  22.915   5.555
10104POPC   PO458080  22.208  22.942   5.855
10104POPC   GL158081  22.161  22.925   6.155
10104POPC   GL258082  22.031  22.937   6.155
10104POPC   C1A58083  22.186  22.983   6.455
10104POPC   D2A58084  22.122  22.964   6.755
10104POPC   C3A58085  22.115  22.952   7.055
10104POPC   C4A58086  22.194  22.925   7.355
10104POPC   C1B58087  21.912  22.878   6.455
10104POPC   C2B58088  21.936  22.897   6.755
10104POPC   C3B58089  21.871  22.951   7.055
10104POPC   C4B58090  21.921  22.883   7.355
10105POPC   NC358091   8.949   2.771   5.555
10105POPC   PO458092   8.934   2.757   5.855
10105POPC   GL158093   8.964   2.726   6.155
10105POPC   GL258094   8.902   2.859   6.155
10105POPC   C1A58095   9.008   2.801   6.455
10105POPC   D2A58096   8.936   2.738   6.755
10105POPC   C3A58097   8.992   2.783   7.055
10105POPC   C4A58098   8.969   2.737   7.355
10105POPC   C1B58099   8.812   3.021   6.455
10105POPC   C2B58100   8.865   2.958   6.755
10105POPC   C3B58101   8.860   2.987   7.055
10105POPC   C4B58102   8.854   3.014   7.355
10106POPC   NC358103  15.935   3.568   5.555
10106POPC   PO458104  15.971   3.523   5.855
10106POPC   GL158105  15.915   3.534   6.155
10106POPC   GL258106  16.048   3.437   6.155
10106POPC   C1A58107  16.005   3.538   6.455
10106POPC   D2A58108  15.952   3.590   6.755
10106POPC   C3A58109  15.979   3.575   7.055
10106POPC   C4A58110  15.958   3.560   7.355
10106POPC   C1B58111  16.185   3.435   6.455
10106POPC   C2B58112  16.170   3.411   6.755
10106POPC   C3B58113  16.143   3.382   7.055
10106POPC   C4B58114  16.202   3.428   7.355
10107POPC   NC358115  32.210   4.366   5.555
10107POPC   PO458116  32.223   4.296   5.855
10107POPC   GL158117  32.210   4.301   6.155
10107POPC   GL258118  32.268   4.244   6.155
10107POPC   C1A58119  32.209   4.342   6.455
10107POPC   D2A58120  32.290   4.292   6.755
10107POPC   C3A58121  32.270   4.360   7.055
10107POPC   C4A58122  32.281   4.276   7.355
10107POPC   C1B58123  32.374   4.078   6.455
10107POPC   C2B58124  32.315   4.122   6.755
10107POPC   C3B58125  32.351   4.055   7.055
10107POPC   C4B58126  32.320   4.057   7.355
10108POPC   NC358127  14.371  15.932   5.555
10108POPC   PO458128  14.420  15.992   5.855
10108POPC   GL158129  14.395  15.907   6.155
10108POPC   GL258130  14.342  16.066   6.155
10108POPC   C1A58131  14.431  15.937   6.455
10108POPC   D2A58132  14.400  15.965   6.755
10108POPC   C3A58133  14.442  15.913   7.055
10108POPC   C4A58134  14.390  15.915   7.355
10108POPC   C1B58135  14.302  16.156   6.455
10108POPC   C2B58136  14.326  16.184   6.755
10108POPC   C3B58137  14.343  16.157   7.055
10108POPC   C4B58138  14.288  16.141   7.355
10109POPC   NC358139  15.170  28.408   5.555
10109POPC   PO458140  15.226  28.339   5.855
10109POPC   GL158141  15.195  28.376   6.155
10109POPC   GL258142  15.269  28.424   6.155
10109POPC   C1A58143  15.165  28.374   6.455
10109POPC   D2A58144  15.155  28.338   6.755
10109POPC   C3A58145  15.203  28.350   7.055
10109POPC   C4A58146  15.136  28.353   7.355
10109POPC   C1B58147  15.414  28.415   6.455
10109POPC   C2B58148  15.472  28.338   6.755
10109POPC   C3B58149  15.449  28.415   7.055
10109POPC   C4B58150  15.448  28.424   7.355
10110POPC   NC358151   8.986  14.391   5.555
10110POPC   PO458152   8.984  14.406   5.855
10110POPC   GL158153   8.961  14.434   6.155
10110POPC   GL258154   8.892  14.558   6.155
10110POPC   C1A58155   8.963  14.421   6.455
10110POPC   D2A58156   9.004  14.362   6.755
10110POPC   C3A58157   8.936  14.393   7.055
10110POPC   C4A58158   9.006  14.422   7.355
10110POPC   C1B58159   8.881  14.637   6.455
10110POPC   C2B58160   8.839  14.682   6.755
10110POPC   C3B58161   8.826  14.584   7.055
10110POPC   C4B58162   8.825  14.615   7.355
10111POPC   NC358163  23.752  12.838   5.555
10111POPC   PO458164  23.721  12.814   5.855
10111POPC   GL158165  23.728  12.825   6.155
10111POPC   GL258166  23.771  12.787   6.155
10111POPC   C1A58167  23.716  12.884   6.455
10111POPC   D2A58168  23.698  12.872   6.755
10111POPC   C3A58169  23.729  12.831   7.055
10111POPC   C4A58170  23.761  12.877   7.355
10111POPC   C1B58171  23.842  12.588   6.455
10111POPC   C2B58172  23.798  12.670   6.755
10111POPC   C3B58173  23.784  12.627   7.055
10111POPC   C4B58174  23.849  12.620   7.355
10112POPC   NC358175  12.086   1.190   5.555
10112POPC   PO458176  12.080   1.221   5.855
10112POPC   GL158177  12.062   1.250   6.155
10112POPC   GL258178  12.146   1.367   6.155
10112POPC   C1A58179  12.080   1.175   6.455
10112POPC   D2A58180  12.072   1.218   6.755
10112POPC   C3A58181  12.098   1.165   7.055
10112POPC   C4A58182  12.040   1.196   7.355
10112POPC   C1B58183  12.199   1.380   6.455
10112POPC   C2B58184  12.202   1.431   6.755
10112POPC   C3B58185  12.243   1.431   7.055
10112POPC   C4B58186  12.193   1.446   7.355
10113POPC   NC358187  39.998  16.730   5.555
10113POPC   PO458188  40.054  16.733   5.855
10113POPC   GL158189  40.014  16.762   6.155
10113POPC   GL258190  39.888  16.784   6.155
10113POPC   C1A58191  40.018  16.756   6.455
10113POPC   D2A58192  40.033  16.701   6.755
10113POPC   C3A58193  39.958  16.738   7.055
10113POPC   C4A58194  39.968  16.749   7.355
10113POPC   C1B58195  39.802  16.771   6.455
10113POPC   C2B58196  39.780  16.734   6.755
10113POPC   C3B58197  39.740  16.772   7.055
10113POPC   C4B58198  39.717  16.744   7.355
10114POPC   NC358199  15.171   3.497   5.555
10114POPC   PO458200  15.212   3.524   5.855
10114POPC   GL158201  15.209   3.539   6.155
10114POPC   GL258202  15.159   3.425   6.155
10114POPC   C1A58203  15.148   3.538   6.455
10114POPC   D2A58204  15.197   3.514   6.755
10114POPC   C3A58205  15.205   3.547   7.055
10114POPC   C4A58206  15.225   3.552   7.355
10114POPC   C1B58207  15.096   3.286   6.455
10114POPC   C2B58208  15.015   3.338   6.755
10114POPC   C3B58209  15.036   3.372   7.055
10114POPC   C4B58210  15.035   3.360   7.355
10115POPC   NC358211  41.586  31.425   5.555
10115POPC   PO458212  41.598  31.470   5.855
10115POPC   GL158213  41.609  31.514   6.155
10115POPC   GL258214  41.588  31.369   6.155
10115POPC   C1A58215  41.562  31.476   6.455
10115POPC   D2A58216  41.538  31.501   6.755
10115POPC   C3A58217  41.602  31.504   7.055
10115POPC   C4A58218  41.535  31.442   7.355
10115POPC   C1B58219  41.641  31.219   6.455
10115POPC   C2B58220  41.712  31.297   6.755
10115POPC   C3B58221  41.644  31.232   7.055
10115POPC   C4B58222  41.626  31.217   7.355
10116POPC   NC358223  26.056  29.136   5.555
10116POPC   PO458224  26.006  29.174   5.855
10116POPC   GL158225  25.998  29.099   6.155
10116POPC   GL258226  25.970  29.277   6.155
10116POPC   C1A58227  26.004  29.157   6.455
10116POPC   D2A58228  26.051  29.174   6.755
10116POPC   C3A58229  26.057  29.117   7.055
10116POPC   C4A58230  26.050  29.157   7.355
10116POPC   C1B58231  25.938  29.390   6.455
10116POPC   C2B58232  25.968  29.361   6.755
10116POPC   C3B58233  25.901  29.377   7.055
10116POPC   C4B58234  25.898  29.355   7.355
10117POPC   NC358235  44.689   3.573   5.555
10117POPC   PO458236  44.691   3.509   5.855
10117POPC   GL158237  44.647   3.543   6.155
10117POPC   GL258238  44.688   3.663   6.155
10117POPC   C1A58239  44.636   3.576   6.455
10117POPC   D2A58240  44.696   3.557   6.755
10117POPC   C3A58241  44.628   3.574   7.055
10117POPC   C4A58242  44.673   3.537   7.355
10117POPC   C1B58243  44.658   3.802   6.455
10117POPC   C2B58244  44.748   3.742   6.755
10117POPC   C3B58245  44.709   3.802   7.055
10117POPC   C4B58246  44.725   3.772   7.355
10118POPC   NC358247  41.594  29.118   5.555
10118POPC   PO458248  41.577  29.183   5.855
10118POPC   GL158249  41.556  29.170   6.155
10118POPC   GL258250  41.408  29.138   6.155
10118POPC   C1A58251  41.532  29.157   6.455
10118POPC   D2A58252  41.577  29.126   6.755
10118POPC   C3A58253  41.534  29.119   7.055
10118POPC   C4A58254  41.516  29.151   7.355
10118POPC   C1B58255  41.279  29.174   6.455
10118POPC   C2B58256  41.319  29.209   6.755
10118POPC   C3B58257  41.340  29.251   7.055
10118POPC   C4B58258  41.334  29.194   7.355
10119POPC   NC358259  37.672  31.455   5.555
10119POPC   PO458260  37.660  31.448   5.855
10119POPC   GL158261  37.684  31.497   6.155
10119POPC   GL258262  37.705  31.617   6.155
10119POPC   C1A58263  37.657  31.456   6.455
10119POPC   D2A58264  37.657  31.496   6.755
10119POPC   C3A58265  37.691  31.482   7.055
10119POPC   C4A58266  37.641  31.429   7.355
10119POPC   C1B58267  37.821  31.627   6.455
10119POPC   C2B58268  37.802  31.709   6.755
10119POPC   C3B58269  37.813  31.693   7.055
10119POPC   C4B58270  37.814  31.633   7.355
10120POPC   NC358271  22.118  22.154   5.555
10120POPC   PO458272  22.122  22.212   5.855
10120POPC   GL158273  22.124  22.113   6.155
10120POPC   GL258274  22.025  22.120   6.155
10120POPC   C1A58275  22.194  22.204   6.455
10120POPC   D2A58276  22.187  22.166   6.755
10120POPC   C3A58277  22.148  22.140   7.055
10120POPC   C4A58278  22.200  22.174   7.355
10120POPC   C1B58279  21.936  22.142   6.455
10120POPC   C2B58280  21.877  22.097   6.755
10120POPC   C3B58281  21.890  22.150   7.055
10120POPC   C4B58282  21.910  22.141   7.355
10121POPC   NC358283   8.939  17.464   5.555
10121POPC   PO458284   9.001  17.488   5.855
10121POPC   GL158285   9.012  17.512   6.155
10121POPC   GL258286   9.013  17.662   6.155
10121POPC   C1A58287   8.971  17.548   6.455
10121POPC   D2A58288   8.957  17.543   6.755
10121POPC   C3A58289   9.011  17.468   7.055
10121POPC   C4A58290   8.982  17.540   7.355
10121POPC   C1B58291   9.014  17.717   6.455
10121POPC   C2B58292   9.113  17.750   6.755
10121POPC   C3B58293   9.071  17.778   7.055
10121POPC   C4B58294   9.112  17.711   7.355
10122POPC   NC358295  38.503  36.094   5.555
10122POPC   PO458296  38.433  36.137   5.855
10122POPC   GL158297  38.500  36.119   6.155
10122POPC   GL258298  38.383  36.207   6.155
10122POPC   C1A58299  38.417  36.145   6.455
10122POPC   D2A58300  38.453  36.116   6.755
10122POPC   C3A58301  38.425  36.168   7.055
10122POPC   C4A58302  38.444  36.149   7.355
10122POPC   C1B58303  38.364  36.336   6.455
10122POPC   C2B58304  38.361  36.379   6.755
10122POPC   C3B58305  38.335  36.321   7.055
10122POPC   C4B58306  38.289  36.331   7.355
10123POPC   NC358307  19.792  29.915   5.555
10123POPC   PO458308  19.819  29.930   5.855
10123POPC   GL158309  19.844  29.925   6.155
10123POPC   GL258310  19.835  30.041   6.155
10123POPC   C1A58311  19.866  29.909   6.455
10123POPC   D2A58312  19.807  29.934   6.755
10123POPC   C3A58313  19.820  29.902   7.055
10123POPC   C4A58314  19.826  29.873   7.355
10123POPC   C1B58315  19.787  30.140   6.455
10123POPC   C2B58316  19.778  30.146   6.755
10123POPC   C3B58317  19.840  30.134   7.055
10123POPC   C4B58318  19.770  30.193   7.355
10124POPC   NC358319   8.983  33.061   5.555
10124POPC   PO458320   8.923  32.989   5.855
10124POPC   GL158321   9.021  33.065   6.155
10124POPC   GL258322   8.972  33.100   6.155
10124POPC   C1A58323   8.950  33.030   6.455
10124POPC   D2A58324   8.949  32.993   6.755
10124POPC   C3A58325   9.020  32.992   7.055
10124POPC   C4A58326   8.992  33.022   7.355
10124POPC   C1B58327   8.867  33.247   6.455
10124POPC   C2B58328   8.901  33.216   6.755
10124POPC   C3B58329   8.926  33.284   7.055
10124POPC   C4B58330   8.832  33.250   7.355
10125POPC   NC358331   9.739  19.085   5.555
10125POPC   PO458332   9.729  19.084   5.855
10125POPC   GL158333   9.738  19.106   6.155
10125POPC   GL258334   9.787  19.012   6.155
10125POPC   C1A58335   9.762  19.021   6.455
10125POPC   D2A58336   9.728  19.064   6.755
10125POPC   C3A58337   9.727  19.085   7.055
10125POPC   C4A58338   9.734  19.089   7.355
10125POPC   C1B58339   9.919  18.923   6.455
10125POPC   C2B58340   9.956  18.840   6.755
10125POPC   C3B58341   9.968  18.929   7.055
10125POPC   C4B58342   9.958  18.916   7.355
10126POPC   NC358343  21.416  31.490   5.555
10126POPC   PO458344  21.436  31.504   5.855
10126POPC   GL158345  21.436  31.452   6.155
10126POPC   GL258346  21.457  31.630   6.155
10126POPC   C1A58347  21.354  31.515   6.455
10126POPC   D2A58348  21.383  31.423   6.755
10126POPC   C3A58349  21.434  31.490   7.055
10126POPC   C4A58350  21.423  31.488   7.355
10126POPC   C1B58351  21.520  31.656   6.455
10126POPC   C2B58352  21.442  31.683   6.755
10126POPC   C3B58353  21.515  31.701   7.055
10126POPC   C4B58354  21.441  31.739   7.355
10127POPC   NC358355  26.860  13.663   5.555
10127POPC   PO458356  26.836  13.663   5.855
10127POPC   GL158357  26.827  13.631   6.155
10127POPC   GL258358  26.672  13.614   6.155
10127POPC   C1A58359  26.846  13.588   6.455
10127POPC   D2A58360  26.829  13.596   6.755
10127POPC   C3A58361  26.786  13.626   7.055
10127POPC   C4A58362  26.814  13.667   7.355
10127POPC   C1B58363  26.541  13.600   6.455
10127POPC   C2B58364  26.542  13.534   6.755
10127POPC   C3B58365  26.548  13.531   7.055
10127POPC   C4B58366  26.567  13.604   7.355
10128POPC   NC358367  29.136   6.685   5.555
10128POPC   PO458368  29.167   6.639   5.855
10128POPC   GL158369  29.137   6.624   6.155
10128POPC   GL258370  29.277   6.643   6.155
10128POPC   C1A58371  29.126   6.687   6.455
10128POPC   D2A58372  29.132   6.654   6.755
10128POPC   C3A58373  29.112   6.599   7.055
10128POPC   C4A58374  29.151   6.600   7.355
10128POPC   C1B58375  29.399   6.689   6.455
10128POPC   C2B58376  29.364   6.683   6.755
10128POPC   C3B58377  29.346   6.671   7.055
10128POPC   C4B58378  29.362   6.691   7.355
10129POPC   NC358379  39.972   9.710   5.555
10129POPC   PO458380  40.039   9.743   5.855
10129POPC   GL158381  39.990   9.792   6.155
10129POPC   GL258382  39.959   9.812   6.155
10129POPC   C1A58383  40.013   9.710   6.455
10129POPC   D2A58384  40.001   9.737   6.755
10129POPC   C3A58385  39.990   9.732   7.055
10129POPC   C4A58386  39.998   9.775   7.355
10129POPC   C1B58387  39.855   9.964   6.455
10129POPC   C2B58388  39.866   9.971   6.755
10129POPC   C3B58389  39.928   9.969   7.055
10129POPC   C4B58390  39.902   9.993   7.355
10130POPC   NC358391  10.509  19.091   5.555
10130POPC   PO458392  10.547  19.020   5.855
10130POPC   GL158393  10.557  19.062   6.155
10130POPC   GL258394  10.414  19.078   6.155
10130POPC   C1A58395  10.497  19.095   6.455
10130POPC   D2A58396  10.528  19.042   6.755
10130POPC   C3A58397  10.506  19.102   7.055
10130POPC   C4A58398  10.494  19.096   7.355
10130POPC   C1B58399  10.342  19.209   6.455
10130POPC   C2B58400  10.255  19.195   6.755
10130POPC   C3B58401  10.316  19.130   7.055
10130POPC   C4B58402  10.316  19.142   7.355
10131POPC   NC358403  37.635   8.955   5.555
10131POPC   PO458404  37.707   8.954   5.855
10131POPC   GL158405  37.703   8.923   6.155
10131POPC   GL258406  37.607   8.927   6.155
10131POPC   C1A58407  37.656   8.935   6.455
10131POPC   D2A58408  37.692   8.983   6.755
10131POPC   C3A58409  37.701   9.015   7.055
10131POPC   C4A58410  37.690   9.001   7.355
10131POPC   C1B58411  37.420   8.829   6.455
10131POPC   C2B58412  37.451   8.834   6.755
10131POPC   C3B58413  37.421   8.816   7.055
10131POPC   C4B58414  37.466   8.854   7.355
10132POPC   NC358415  29.871  31.428   5.555
10132POPC   PO458416  29.904  31.429   5.855
10132POPC   GL158417  29.915  31.518   6.155
10132POPC   GL258418  29.848  31.556   6.155
10132POPC   C1A58419  29.956  31.492   6.455
10132POPC   D2A58420  29.893  31.476   6.755
10132POPC   C3A58421  29.887  31.500   7.055
10132POPC   C4A58422  29.962  31.433   7.355
10132POPC   C1B58423  29.721  31.674   6.455
10132POPC   C2B58424  29.786  31.639   6.755
10132POPC   C3B58425  29.726  31.603   7.055
10132POPC   C4B58426  29.757  31.608   7.355
10133POPC   NC358427   5.101  38.502   5.555
10133POPC   PO458428   5.084  38.505   5.855
10133POPC   GL158429   5.089  38.484   6.155
10133POPC   GL258430   5.206  38.547   6.155
10133POPC   C1A58431   5.077  38.485   6.455
10133POPC   D2A58432   5.062  38.456   6.755
10133POPC   C3A58433   5.099  38.477   7.055
10133POPC   C4A58434   5.089  38.500   7.355
10133POPC   C1B58435   5.214  38.684   6.455
10133POPC   C2B58436   5.253  38.680   6.755
10133POPC   C3B58437   5.270  38.671   7.055
10133POPC   C4B58438   5.262  38.630   7.355
10134POPC   NC358439  42.352  24.473   5.555
10134POPC   PO458440  42.374  24.514   5.855
10134POPC   GL158441  42.325  24.498   6.155
10134POPC   GL258442  42.446  24.505   6.155
10134POPC   C1A58443  42.303  24.450   6.455
10134POPC   D2A58444  42.320  24.453   6.755
10134POPC   C3A58445  42.286  24.469   7.055
10134POPC   C4A58446  42.368  24.494   7.355
10134POPC   C1B58447  42.558  24.479   6.455
10134POPC   C2B58448  42.572  24.466   6.755
10134POPC   C3B58449  42.570  24.465   7.055
10134POPC   C4B58450  42.619  24.421   7.355
10135POPC   NC358451  15.222  23.751   5.555
10135POPC   PO458452  15.161  23.759   5.855
10135POPC   GL158453  15.194  23.720   6.155
10135POPC   GL258454  15.064  23.734   6.155
10135POPC   C1A58455  15.213  23.677   6.455
10135POPC   D2A58456  15.202  23.731   6.755
10135POPC   C3A58457  15.179  23.738   7.055
10135POPC   C4A58458  15.203  23.714   7.355
10135POPC   C1B58459  14.933  23.786   6.455
10135POPC   C2B58460  14.942  23.735   6.755
10135POPC   C3B58461  14.890  23.808   7.055
10135POPC   C4B58462  14.896  23.729   7.355
10136POPC   NC358463  27.585  31.432   5.555
10136POPC   PO458464  27.592  31.504   5.855
10136POPC   GL158465  27.563  31.500   6.155
10136POPC   GL258466  27.658  31.382   6.155
10136POPC   C1A58467  27.577  31.452   6.455
10136POPC   D2A58468  27.604  31.495   6.755
10136POPC   C3A58469  27.605  31.498   7.055
10136POPC   C4A58470  27.611  31.440   7.355
10136POPC   C1B58471  27.592  31.188   6.455
10136POPC   C2B58472  27.637  31.221   6.755
10136POPC   C3B58473  27.589  31.256   7.055
10136POPC   C4B58474  27.620  31.237   7.355
10137POPC   NC358475   8.985  43.856   5.555
10137POPC   PO458476   9.022  43.917   5.855
10137POPC   GL158477   8.995  43.871   6.155
10137POPC   GL258478   9.086  43.988   6.155
10137POPC   C1A58479   9.009  43.900   6.455
10137POPC   D2A58480   8.947  43.926   6.755
10137POPC   C3A58481   9.015  43.891   7.055
10137POPC   C4A58482   9.007  43.932   7.355
10137POPC   C1B58483   9.204  44.026   6.455
10137POPC   C2B58484   9.156  43.994   6.755
10137POPC   C3B58485   9.237  44.055   7.055
10137POPC   C4B58486   9.156  44.021   7.355
10138POPC   NC358487   2.793  34.556   5.555
10138POPC   PO458488   2.786  34.577   5.855
10138POPC   GL158489   2.761  34.571   6.155
10138POPC   GL258490   2.608  34.663   6.155
10138POPC   C1A58491   2.750  34.542   6.455
10138POPC   D2A58492   2.776  34.576   6.755
10138POPC   C3A58493   2.792  34.566   7.055
10138POPC   C4A58494   2.790  34.537   7.355
10138POPC   C1B58495   2.568  34.694   6.455
10138POPC   C2B58496   2.521  34.686   6.755
10138POPC   C3B58497   2.554  34.696   7.055
10138POPC   C4B58498   2.486  34.658   7.355
10139POPC   NC358499  26.076   7.461   5.555
10139POPC   PO458500  26.078   7.454   5.855
10139POPC   GL158501  26.044   7.467   6.155
10139POPC   GL258502  25.890   7.406   6.155
10139POPC   C1A58503  26.055   7.392   6.455
10139POPC   D2A58504  26.088   7.453   6.755
10139POPC   C3A58505  26.057   7.450   7.055
10139POPC   C4A58506  26.049   7.415   7.355
10139POPC   C1B58507  25.827   7.353   6.455
10139POPC   C2B58508  25.764   7.307   6.755
10139POPC   C3B58509  25.787   7.373   7.055
10139POPC   C4B58510  25.801   7.342   7.355
10140POPC   NC358511  12.107  35.402   5.555
10140POPC   PO458512  12.107  35.375   5.855
10140POPC   GL158513  12.105  35.349   6.155
10140POPC   GL258514  12.196  35.418   6.155
10140POPC   C1A58515  12.070  35.368   6.455
10140POPC   D2A58516  12.046  35.336   6.755
10140POPC   C3A58517  12.039  35.360   7.055
10140POPC   C4A58518  12.074  35.370   7.355
10140POPC   C1B58519  12.283  35.511   6.455
10140POPC   C2B58520  12.238  35.489   6.755
10140POPC   C3B58521  12.270  35.525   7.055
10140POPC   C4B58522  12.287  35.478   7.355
10141POPC   NC358523  40.803  33.832   5.555
10141POPC   PO458524  40.757  33.767   5.855
10141POPC   GL158525  40.737  33.846   6.155
10141POPC   GL258526  40.931  33.824   6.155
10141POPC   C1A58527  40.816  33.783   6.455
10141POPC   D2A58528  40.771  33.780   6.755
10141POPC   C3A58529  40.809  33.754   7.055
10141POPC   C4A58530  40.807  33.804   7.355
10141POPC   C1B58531  41.000  33.881   6.455
10141POPC   C2B58532  40.974  33.954   6.755
10141POPC   C3B58533  41.002  33.929   7.055
10141POPC   C4B58534  41.020  33.917   7.355
10142POPC   NC358535  40.745  34.621   5.555
10142POPC   PO458536  40.769  34.532   5.855
10142POPC   GL158537  40.812  34.615   6.155
10142POPC   GL258538  40.903  34.504   6.155
10142POPC   C1A58539  40.755  34.565   6.455
10142POPC   D2A58540  40.757  34.604   6.755
10142POPC   C3A58541  40.764  34.573   7.055
10142POPC   C4A58542  40.768  34.601   7.355
10142POPC   C1B58543  40.945  34.406   6.455
10142POPC   C2B58544  40.886  34.383   6.755
10142POPC   C3B58545  40.953  34.397   7.055
10142POPC   C4B58546  40.896  34.395   7.355
10143POPC   NC358547  22.148  31.432   5.555
10143POPC   PO458548  22.142  31.441   5.855
10143POPC   GL158549  22.126  31.451   6.155
10143POPC   GL258550  22.250  31.599   6.155
10143POPC   C1A58551  22.144  31.462   6.455
10143POPC   D2A58552  22.196  31.482   6.755
10143POPC   C3A58553  22.203  31.504   7.055
10143POPC   C4A58554  22.162  31.473   7.355
10143POPC   C1B58555  22.250  31.688   6.455
10143POPC   C2B58556  22.252  31.686   6.755
10143POPC   C3B58557  22.253  31.737   7.055
10143POPC   C4B58558  22.268  31.741   7.355
10144POPC   NC358559  44.629  22.177   5.555
10144POPC   PO458560  44.702  22.114   5.855
10144POPC   GL158561  44.623  22.147   6.155
10144POPC   GL258562  44.779  22.107   6.155
10144POPC   C1A58563  44.671  22.208   6.455
10144POPC   D2A58564  44.631  22.210   6.755
10144POPC   C3A58565  44.642  22.187   7.055
10144POPC   C4A58566  44.704  22.172   7.355
10144POPC   C1B58567  44.884  22.076   6.455
10144POPC   C2B58568  44.876  22.074   6.755
10144POPC   C3B58569  44.929  22.101   7.055
10144POPC   C4B58570  44.886  22.036   7.355
10145POPC   NC358571  40.814  38.461   5.555
10145POPC   PO458572  40.759  38.495   5.855
10145POPC   GL158573  40.759  38.490   6.155
10145POPC   GL258574  40.673  38.560   6.155
10145POPC   C1A58575  40.778  38.417   6.455
10145POPC   D2A58576  40.787  38.484   6.755
10145POPC   C3A58577  40.814  38.417   7.055
10145POPC   C4A58578  40.769  38.499   7.355
10145POPC   C1B58579  40.644  38.647   6.455
10145POPC   C2B58580  40.596  38.661   6.755
10145POPC   C3B58581  40.643  38.627   7.055
10145POPC   C4B58582  40.682  38.659   7.355
10146POPC   NC358583  19.036  10.555   5.555
10146POPC   PO458584  19.069  10.500   5.855
10146POPC   GL158585  19.016  10.513   6.155
10146POPC   GL258586  19.125  10.519   6.155
10146POPC   C1A58587  19.031  10.564   6.455
10146POPC   D2A58588  19.015  10.493   6.755
10146POPC   C3A58589  19.105  10.506   7.055
10146POPC   C4A58590  19.105  10.568   7.355
10146POPC   C1B58591  19.242  10.464   6.455
10146POPC   C2B58592  19.297  10.393   6.755
10146POPC   C3B58593  19.271  10.412   7.055
10146POPC   C4B58594  19.284  10.462   7.355
10147POPC   NC358595  15.918   5.044   5.555
10147POPC   PO458596  15.985   5.108   5.855
10147POPC   GL158597  15.978   5.099   6.155
10147POPC   GL258598  15.931   5.257   6.155
10147POPC   C1A58599  15.940   5.081   6.455
10147POPC   D2A58600  15.927   5.133   6.755
10147POPC   C3A58601  15.989   5.051   7.055
10147POPC   C4A58602  15.926   5.065   7.355
10147POPC   C1B58603  15.982   5.320   6.455
10147POPC   C2B58604  15.980   5.320   6.755
10147POPC   C3B58605  15.969   5.373   7.055
10147POPC   C4B58606  15.964   5.382   7.355
10148POPC   NC358607  40.766  15.180   5.555
10148POPC   PO458608  40.755  15.221   5.855
10148POPC   GL158609  40.740  15.182   6.155
10148POPC   GL258610  40.834  15.052   6.155
10148POPC   C1A58611  40.782  15.193   6.455
10148POPC   D2A58612  40.745  15.210   6.755
10148POPC   C3A58613  40.771  15.219   7.055
10148POPC   C4A58614  40.804  15.199   7.355
10148POPC   C1B58615  40.889  14.917   6.455
10148POPC   C2B58616  40.863  14.977   6.755
10148POPC   C3B58617  40.810  14.952   7.055
10148POPC   C4B58618  40.869  14.941   7.355
10149POPC   NC358619  14.372  26.780   5.555
10149POPC   PO458620  14.394  26.812   5.855
10149POPC   GL158621  14.452  26.825   6.155
10149POPC   GL258622  14.441  26.671   6.155
10149POPC   C1A58623  14.421  26.820   6.455
10149POPC   D2A58624  14.364  26.860   6.755
10149POPC   C3A58625  14.416  26.815   7.055
10149POPC   C4A58626  14.449  26.788   7.355
10149POPC   C1B58627  14.492  26.601   6.455
10149POPC   C2B58628  14.463  26.604   6.755
10149POPC   C3B58629  14.449  26.569   7.055
10149POPC   C4B58630  14.470  26.540   7.355
10150POPC   NC358631  21.432  24.461   5.555
10150POPC   PO458632  21.339  24.527   5.855
10150POPC   GL158633  21.421  24.473   6.155
10150POPC   GL258634  21.264  24.478   6.155
10150POPC   C1A58635  21.365  24.458   6.455
10150POPC   D2A58636  21.398  24.457   6.755
10150POPC   C3A58637  21.384  24.501   7.055
10150POPC   C4A58638  21.349  24.524   7.355
10150POPC   C1B58639  21.154  24.355   6.455
10150POPC   C2B58640  21.155  24.322   6.755
10150POPC   C3B58641  21.163  24.418   7.055
10150POPC   C4B58642  21.152  24.366   7.355
10151POPC   NC358643  12.862  12.808   5.555
10151POPC   PO458644  12.872  12.899   5.855
10151POPC   GL158645  12.891  12.891   6.155
10151POPC   GL258646  12.924  12.779   6.155
10151POPC   C1A58647  12.847  12.837   6.455
10151POPC   D2A58648  12.824  12.814   6.755
10151POPC   C3A58649  12.867  12.880   7.055
10151POPC   C4A58650  12.900  12.882   7.355
10151POPC   C1B58651  13.115  12.707   6.455
10151POPC   C2B58652  13.040  12.760   6.755
10151POPC   C3B58653  13.090  12.711   7.055
10151POPC   C4B58654  13.087  12.710   7.355
10152POPC   NC358655   2.743  10.565   5.555
10152POPC   PO458656   2.812  10.489   5.855
10152POPC   GL158657   2.759  10.551   6.155
10152POPC   GL258658   2.624  10.511   6.155
10152POPC   C1A58659   2.719  10.532   6.455
10152POPC   D2A58660   2.759  10.567   6.755
10152POPC   C3A58661   2.718  10.483   7.055
10152POPC   C4A58662   2.723  10.557   7.355
10152POPC   C1B58663   2.480  10.545   6.455
10152POPC   C2B58664   2.506  10.547   6.755
10152POPC   C3B58665   2.533  10.523   7.055
10152POPC   C4B58666   2.505  10.543   7.355
10153POPC   NC358667  29.924  42.371   5.555
10153POPC   PO458668  29.912  42.299   5.855
10153POPC   GL158669  29.887  42.360   6.155
10153POPC   GL258670  29.854  42.383   6.155
10153POPC   C1A58671  29.933  42.301   6.455
10153POPC   D2A58672  29.906  42.323   6.755
10153POPC   C3A58673  29.888  42.348   7.055
10153POPC   C4A58674  29.874  42.329   7.355
10153POPC   C1B58675  29.752  42.502   6.455
10153POPC   C2B58676  29.709  42.510   6.755
10153POPC   C3B58677  29.761  42.457   7.055
10153POPC   C4B58678  29.757  42.438   7.355
10154POPC   NC358679  24.516  43.134   5.555
10154POPC   PO458680  24.536  43.127   5.855
10154POPC   GL158681  24.462  43.137   6.155
10154POPC   GL258682  24.426  43.030   6.155
10154POPC   C1A58683  24.452  43.089   6.455
10154POPC   D2A58684  24.488  43.075   6.755
10154POPC   C3A58685  24.521  43.077   7.055
10154POPC   C4A58686  24.513  43.069   7.355
10154POPC   C1B58687  24.316  42.971   6.455
10154POPC   C2B58688  24.309  42.961   6.755
10154POPC   C3B58689  24.316  42.915   7.055
10154POPC   C4B58690  24.286  42.938   7.355
10155POPC   NC358691   4.276  19.876   5.555
10155POPC   PO458692   4.357  19.813   5.855
10155POPC   GL158693   4.286  19.881   6.155
10155POPC   GL258694   4.253  19.983   6.155
10155POPC   C1A58695   4.319  19.797   6.455
10155POPC   D2A58696   4.271  19.842   6.755
10155POPC   C3A58697   4.357  19.796   7.055
10155POPC   C4A58698   4.302  19.799   7.355
10155POPC   C1B58699   4.274  20.128   6.455
10155POPC   C2B58700   4.310  20.045   6.755
10155POPC   C3B58701   4.222  20.111   7.055
10155POPC   C4B58702   4.271  20.059   7.355
10156POPC   NC358703  10.505  36.931   5.555
10156POPC   PO458704  10.538  36.891   5.855
10156POPC   GL158705  10.552  36.893   6.155
10156POPC   GL258706  10.572  36.786   6.155
10156POPC   C1A58707  10.504  36.899   6.455
10156POPC   D2A58708  10.497  36.876   6.755
10156POPC   C3A58709  10.569  36.873   7.055
10156POPC   C4A58710  10.500  36.896   7.355
10156POPC   C1B58711  10.694  36.674   6.455
10156POPC   C2B58712  10.667  36.706   6.755
10156POPC   C3B58713  10.607  36.721   7.055
10156POPC   C4B58714  10.695  36.704   7.355
10157POPC   NC358715   7.438  31.512   5.555
10157POPC   PO458716   7.412  31.493   5.855
10157POPC   GL158717   7.404  31.473   6.155
10157POPC   GL258718   7.291  31.421   6.155
10157POPC   C1A58719   7.376  31.475   6.455
10157POPC   D2A58720   7.466  31.482   6.755
10157POPC   C3A58721   7.461  31.459   7.055
10157POPC   C4A58722   7.453  31.500   7.355
10157POPC   C1B58723   7.198  31.388   6.455
10157POPC   C2B58724   7.203  31.428   6.755
10157POPC   C3B58725   7.162  31.424   7.055
10157POPC   C4B58726   7.189  31.379   7.355
10158POPC   NC358727  22.113  15.134   5.555
10158POPC   PO458728  22.176  15.140   5.855
10158POPC   GL158729  22.164  15.203   6.155
10158POPC   GL258730  22.273  15.208   6.155
10158POPC   C1A58731  22.201  15.224   6.455
10158POPC   D2A58732  22.160  15.185   6.755
10158POPC   C3A58733  22.135  15.158   7.055
10158POPC   C4A58734  22.194  15.217   7.355
10158POPC   C1B58735  22.367  15.226   6.455
10158POPC   C2B58736  22.418  15.246   6.755
10158POPC   C3B58737  22.371  15.212   7.055
10158POPC   C4B58738  22.442  15.151   7.355
10159POPC   NC358739  36.944   6.646   5.555
10159POPC   PO458740  36.882   6.651   5.855
10159POPC   GL158741  36.903   6.661   6.155
10159POPC   GL258742  36.807   6.765   6.155
10159POPC   C1A58743  36.924   6.672   6.455
10159POPC   D2A58744  36.912   6.662   6.755
10159POPC   C3A58745  36.902   6.640   7.055
10159POPC   C4A58746  36.915   6.673   7.355
10159POPC   C1B58747  36.705   6.820   6.455
10159POPC   C2B58748  36.759   6.800   6.755
10159POPC   C3B58749  36.696   6.776   7.055
10159POPC   C4B58750  36.740   6.770   7.355
10160POPC   NC358751   0.460   2.742   5.555
10160POPC   PO458752   0.460   2.751   5.855
10160POPC   GL158753   0.449   2.802   6.155
10160POPC   GL258754   0.565   2.775   6.155
10160POPC   C1A58755   0.463   2.748   6.455
10160POPC   D2A58756   0.477   2.798   6.755
10160POPC   C3A58757   0.476   2.734   7.055
10160POPC   C4A58758   0.424   2.763   7.355
10160POPC   C1B58759   0.636   2.728   6.455
10160POPC   C2B58760   0.632   2.640   6.755
10160POPC   C3B58761   0.626   2.659   7.055
10160POPC   C4B58762   0.693   2.732   7.355
10161POPC   NC358763  12.846  42.292   5.555
10161POPC   PO458764  12.834  42.346   5.855
10161POPC   GL158765  12.812  42.371   6.155
10161POPC   GL258766  12.980  42.440   6.155
10161POPC   C1A58767  12.833  42.374   6.455
10161POPC   D2A58768  12.863  42.299   6.755
10161POPC   C3A58769  12.822  42.301   7.055
10161POPC   C4A58770  12.836  42.294   7.355
10161POPC   C1B58771  13.039  42.501   6.455
10161POPC   C2B58772  12.979  42.574   6.755
10161POPC   C3B58773  13.004  42.519   7.055
10161POPC   C4B58774  13.012  42.519   7.355
10162POPC   NC358775  42.356   9.021   5.555
10162POPC   PO458776  42.332   8.967   5.855
10162POPC   GL158777  42.318   8.931   6.155
10162POPC   GL258778  42.359   9.094   6.155
10162POPC   C1A58779  42.310   9.005   6.455
10162POPC   D2A58780  42.327   8.995   6.755
10162POPC   C3A58781  42.333   9.013   7.055
10162POPC   C4A58782  42.335   8.995   7.355
10162POPC   C1B58783  42.317   9.222   6.455
10162POPC   C2B58784  42.382   9.182   6.755
10162POPC   C3B58785  42.315   9.252   7.055
10162POPC   C4B58786  42.353   9.254   7.355
10163POPC   NC358787  34.596  38.415   5.555
10163POPC   PO458788  34.583  38.474   5.855
10163POPC   GL158789  34.552  38.429   6.155
10163POPC   GL258790  34.657  38.429   6.155
10163POPC   C1A58791  34.566  38.467   6.455
10163POPC   D2A58792  34.615  38.483   6.755
10163POPC   C3A58793  34.533  38.489   7.055
10163POPC   C4A58794  34.569  38.438   7.355
10163POPC   C1B58795  34.862  38.438   6.455
10163POPC   C2B58796  34.837  38.421   6.755
10163POPC   C3B58797  34.870  38.425   7.055
10163POPC   C4B58798  34.829  38.458   7.355
10164POPC   NC358799   1.994  42.332   5.555
10164POPC   PO458800   1.956  42.302   5.855
10164POPC   GL158801   2.020  42.364   6.155
10164POPC   GL258802   2.123  42.414   6.155
10164POPC   C1A58803   2.002  42.326   6.455
10164POPC   D2A58804   1.964  42.337   6.755
10164POPC   C3A58805   2.036  42.341   7.055
10164POPC   C4A58806   1.948  42.380   7.355
10164POPC   C1B58807   2.245  42.376   6.455
10164POPC   C2B58808   2.254  42.444   6.755
10164POPC   C3B58809   2.248  42.423   7.055
10164POPC   C4B58810   2.176  42.406   7.355
10165POPC   NC358811  16.740  15.188   5.555
10165POPC   PO458812  16.723  15.213   5.855
10165POPC   GL158813  16.772  15.198   6.155
10165POPC   GL258814  16.673  15.329   6.155
10165POPC   C1A58815  16.709  15.141   6.455
10165POPC   D2A58816  16.688  15.190   6.755
10165POPC   C3A58817  16.693  15.200   7.055
10165POPC   C4A58818  16.724  15.199   7.355
10165POPC   C1B58819  16.686  15.419   6.455
10165POPC   C2B58820  16.698  15.472   6.755
10165POPC   C3B58821  16.713  15.396   7.055
10165POPC   C4B58822  16.664  15.410   7.355
10166POPC   NC358823  20.570   1.210   5.555
10166POPC   PO458824  20.570   1.232   5.855
10166POPC   GL158825  20.659   1.256   6.155
10166POPC   GL258826  20.750   1.242   6.155
10166POPC   C1A58827  20.613   1.239   6.455
10166POPC   D2A58828  20.589   1.184   6.755
10166POPC   C3A58829  20.643   1.202   7.055
10166POPC   C4A58830  20.602   1.222   7.355
10166POPC   C1B58831  20.853   1.360   6.455
10166POPC   C2B58832  20.866   1.339   6.755
10166POPC   C3B58833  20.796   1.342   7.055
10166POPC   C4B58834  20.817   1.285   7.355
10167POPC   NC358835   8.959  29.934   5.555
10167POPC   PO458836   9.013  29.916   5.855
10167POPC   GL158837   9.008  29.879   6.155
10167POPC   GL258838   9.049  29.917   6.155
10167POPC   C1A58839   8.948  29.920   6.455
10167POPC   D2A58840   8.953  29.908   6.755
10167POPC   C3A58841   8.990  29.881   7.055
10167POPC   C4A58842   8.939  29.895   7.355
10167POPC   C1B58843   9.185  30.003   6.455
10167POPC   C2B58844   9.196  30.018   6.755
10167POPC   C3B58845   9.175  29.988   7.055
10167POPC   C4B58846   9.163  29.973   7.355
10168POPC   NC358847  40.793   5.845   5.555
10168POPC   PO458848  40.739   5.896   5.855
10168POPC   GL158849  40.774   5.849   6.155
10168POPC   GL258850  40.864   5.951   6.155
10168POPC   C1A58851  40.803   5.881   6.455
10168POPC   D2A58852  40.733   5.852   6.755
10168POPC   C3A58853  40.763   5.912   7.055
10168POPC   C4A58854  40.802   5.882   7.355
10168POPC   C1B58855  41.006   5.959   6.455
10168POPC   C2B58856  40.973   5.942   6.755
10168POPC   C3B58857  40.965   6.003   7.055
10168POPC   C4B58858  40.974   6.007   7.355
10169POPC   NC358859  41.558   0.419   5.555
10169POPC   PO458860  41.562   0.401   5.855
10169POPC   GL158861  41.608   0.403   6.155
10169POPC   GL258862  41.401   0.413   6.155
10169POPC   C1A58863  41.594   0.448   6.455
10169POPC   D2A58864  41.591   0.406   6.755
10169POPC   C3A58865  41.581   0.416   7.055
10169POPC   C4A58866  41.531   0.419   7.355
10169POPC   C1B58867  41.287   0.416   6.455
10169POPC   C2B58868  41.324   0.375   6.755
10169POPC   C3B58869  41.270   0.352   7.055
10169POPC   C4B58870  41.275   0.429   7.355
10170POPC   NC358871  36.176  18.256   5.555
10170POPC   PO458872  36.172  18.274   5.855
10170POPC   GL158873  36.082  18.327   6.155
10170POPC   GL258874  36.007  18.278   6.155
10170POPC   C1A58875  36.117  18.282   6.455
10170POPC   D2A58876  36.132  18.319   6.755
10170POPC   C3A58877  36.150  18.299   7.055
10170POPC   C4A58878  36.115  18.261   7.355
10170POPC   C1B58879  35.850  18.253   6.455
10170POPC   C2B58880  35.884  18.348   6.755
10170POPC   C3B58881  35.852  18.263   7.055
10170POPC   C4B58882  35.860  18.268   7.355
10171POPC   NC358883  39.228  32.265   5.555
10171POPC   PO458884  39.236  32.238   5.855
10171POPC   GL158885  39.248  32.212   6.155
10171POPC   GL258886  39.181  32.345   6.155
10171POPC   C1A58887  39.239  32.209   6.455
10171POPC   D2A58888  39.217  32.262   6.755
10171POPC   C3A58889  39.186  32.247   7.055
10171POPC   C4A58890  39.246  32.230   7.355
10171POPC   C1B58891  39.025  32.436   6.455
10171POPC   C2B58892  39.051  32.389   6.755
10171POPC   C3B58893  39.091  32.476   7.055
10171POPC   C4B58894  39.040  32.482   7.355
10172POPC   NC358895  36.939  13.639   5.555
10172POPC   PO458896  36.925  13.641   5.855
10172POPC   GL158897  36.905  13.614   6.155
10172POPC   GL258898  36.844  13.528   6.155
10172POPC   C1A58899  36.950  13.600   6.455
10172POPC   D2A58900  36.894  13.665   6.755
10172POPC   C3A58901  36.862  13.629   7.055
10172POPC   C4A58902  36.937  13.593   7.355
10172POPC   C1B58903  36.671  13.449   6.455
10172POPC   C2B58904  36.667  13.489   6.755
10172POPC   C3B58905  36.688  13.473   7.055
10172POPC   C4B58906  36.734  13.511   7.355
10173POPC   NC358907  39.277  22.150   5.555
10173POPC   PO458908  39.267  22.205   5.855
10173POPC   GL158909  39.198  22.162   6.155
10173POPC   GL258910  39.147  22.125   6.155
10173POPC   C1A58911  39.190  22.142   6.455
10173POPC   D2A58912  39.184  22.207   6.755
10173POPC   C3A58913  39.247  22.118   7.055
10173POPC   C4A58914  39.191  22.116   7.355
10173POPC   C1B58915  38.977  22.115   6.455
10173POPC   C2B58916  38.951  22.186   6.755
10173POPC   C3B58917  38.983  22.123   7.055
10173POPC   C4B58918  39.026  22.170   7.355
10174POPC   NC358919   0.409   8.191   5.555
10174POPC   PO458920   0.466   8.240   5.855
10174POPC   GL158921   0.470   8.231   6.155
10174POPC   GL258922   0.356   8.142   6.155
10174POPC   C1A58923   0.411   8.207   6.455
10174POPC   D2A58924   0.460   8.201   6.755
10174POPC   C3A58925   0.435   8.166   7.055
10174POPC   C4A58926   0.459   8.220   7.355
10174POPC   C1B58927   0.200   8.180   6.455
10174POPC   C2B58928   0.148   8.156   6.755
10174POPC   C3B58929   0.234   8.168   7.055
10174POPC   C4B58930   0.210   8.130   7.355
10175POPC   NC358931  19.821   2.752   5.555
10175POPC   PO458932  19.822   2.814   5.855
10175POPC   GL158933  19.829   2.805   6.155
10175POPC   GL258934  19.696   2.708   6.155
10175POPC   C1A58935  19.847   2.791   6.455
10175POPC   D2A58936  19.809   2.763   6.755
10175POPC   C3A58937  19.835   2.799   7.055
10175POPC   C4A58938  19.843   2.724   7.355
10175POPC   C1B58939  19.584   2.738   6.455
10175POPC   C2B58940  19.554   2.688   6.755
10175POPC   C3B58941  19.603   2.716   7.055
10175POPC   C4B58942  19.546   2.695   7.355
10176POPC   NC358943  31.503  37.710   5.555
10176POPC   PO458944  31.516  37.728   5.855
10176POPC   GL158945  31.449  37.687   6.155
10176POPC   GL258946  31.633  37.649   6.155
10176POPC   C1A58947  31.471  37.706   6.455
10176POPC   D2A58948  31.469  37.669   6.755
10176POPC   C3A58949  31.445  37.655   7.055
10176POPC   C4A58950  31.432  37.724   7.355
10176POPC   C1B58951  31.760  37.648   6.455
10176POPC   C2B58952  31.671  37.598   6.755
10176POPC   C3B58953  31.685  37.627   7.055
10176POPC   C4B58954  31.690  37.618   7.355
10177POPC   NC358955  12.036  43.844   5.555
10177POPC   PO458956  12.029  43.852   5.855
10177POPC   GL158957  12.064  43.895   6.155
10177POPC   GL258958  11.990  43.952   6.155
10177POPC   C1A58959  12.039  43.892   6.455
10177POPC   D2A58960  12.125  43.860   6.755
10177POPC   C3A58961  12.109  43.923   7.055
10177POPC   C4A58962  12.057  43.892   7.355
10177POPC   C1B58963  11.873  43.956   6.455
10177POPC   C2B58964  11.874  43.925   6.755
10177POPC   C3B58965  11.833  43.942   7.055
10177POPC   C4B58966  11.813  43.906   7.355
10178POPC   NC358967  18.301   2.720   5.555
10178POPC   PO458968  18.326   2.728   5.855
10178POPC   GL158969  18.274   2.784   6.155
10178POPC   GL258970  18.136   2.726   6.155
10178POPC   C1A58971  18.264   2.760   6.455
10178POPC   D2A58972  18.300   2.752   6.755
10178POPC   C3A58973  18.248   2.801   7.055
10178POPC   C4A58974  18.254   2.772   7.355
10178POPC   C1B58975  18.045   2.566   6.455
10178POPC   C2B58976  18.042   2.619   6.755
10178POPC   C3B58977  18.052   2.655   7.055
10178POPC   C4B58978  18.050   2.592   7.355
10179POPC   NC358979  29.893  37.697   5.555
10179POPC   PO458980  29.905  37.713   5.855
10179POPC   GL158981  29.902  37.658   6.155
10179POPC   GL258982  30.057  37.628   6.155
10179POPC   C1A58983  29.896  37.646   6.455
10179POPC   D2A58984  29.890  37.727   6.755
10179POPC   C3A58985  29.871  37.689   7.055
10179POPC   C4A58986  29.912  37.636   7.355
10179POPC   C1B58987  30.188  37.621   6.455
10179POPC   C2B58988  30.142  37.641   6.755
10179POPC   C3B58989  30.114  37.610   7.055
10179POPC   C4B58990  30.207  37.652   7.355
10180POPC   NC358991  43.925  21.401   5.555
10180POPC   PO458992  43.920  21.420   5.855
10180POPC   GL158993  43.900  21.359   6.155
10180POPC   GL258994  43.779  21.321   6.155
10180POPC   C1A58995  43.915  21.391   6.455
10180POPC   D2A58996  43.919  21.424   6.755
10180POPC   C3A58997  43.927  21.355   7.055
10180POPC   C4A58998  43.880  21.347   7.355
10180POPC   C1B58999  43.661  21.206   6.455
10180POPC   C2B59000  43.740  21.253   6.755
10180POPC   C3B59001  43.754  21.207   7.055
10180POPC   C4B59002  43.726  21.234   7.355
10181POPC   NC359003  23.696  43.067   5.555
10181POPC   PO459004  23.702  43.143   5.855
10181POPC   GL159005  23.731  43.159   6.155
10181POPC   GL259006  23.557  43.074   6.155
10181POPC   C1A59007  23.733  43.143   6.455
10181POPC   D2A59008  23.702  43.072   6.755
10181POPC   C3A59009  23.701  43.154   7.055
10181POPC   C4A59010  23.669  43.064   7.355
10181POPC   C1B59011  23.429  43.078   6.455
10181POPC   C2B59012  23.469  43.046   6.755
10181POPC   C3B59013  23.466  43.078   7.055
10181POPC   C4B59014  23.516  43.014   7.355
10182POPC   NC359015  39.194  11.269   5.555
10182POPC   PO459016  39.201  11.251   5.855
10182POPC   GL159017  39.226  11.346   6.155
10182POPC   GL259018  39.187  11.166   6.155
10182POPC   C1A59019  39.200  11.317   6.455
10182POPC   D2A59020  39.195  11.275   6.755
10182POPC   C3A59021  39.276  11.329   7.055
10182POPC   C4A59022  39.278  11.305   7.355
10182POPC   C1B59023  39.076  11.059   6.455
10182POPC   C2B59024  39.124  11.076   6.755
10182POPC   C3B59025  39.035  11.085   7.055
10182POPC   C4B59026  39.037  11.078   7.355
10183POPC   NC359027   7.420  23.708   5.555
10183POPC   PO459028   7.444  23.710   5.855
10183POPC   GL159029   7.388  23.671   6.155
10183POPC   GL259030   7.330  23.642   6.155
10183POPC   C1A59031   7.431  23.680   6.455
10183POPC   D2A59032   7.429  23.676   6.755
10183POPC   C3A59033   7.430  23.737   7.055
10183POPC   C4A59034   7.435  23.717   7.355
10183POPC   C1B59035   7.155  23.661   6.455
10183POPC   C2B59036   7.196  23.615   6.755
10183POPC   C3B59037   7.150  23.581   7.055
10183POPC   C4B59038   7.221  23.614   7.355
10184POPC   NC359039  16.737   1.944   5.555
10184POPC   PO459040  16.769   1.980   5.855
10184POPC   GL159041  16.733   2.030   6.155
10184POPC   GL259042  16.699   2.141   6.155
10184POPC   C1A59043  16.721   2.015   6.455
10184POPC   D2A59044  16.699   2.000   6.755
10184POPC   C3A59045  16.771   2.011   7.055
10184POPC   C4A59046  16.751   1.989   7.355
10184POPC   C1B59047  16.646   2.223   6.455
10184POPC   C2B59048  16.742   2.287   6.755
10184POPC   C3B59049  16.739   2.232   7.055
10184POPC   C4B59050  16.691   2.249   7.355
10185POPC   NC359051  43.889   2.770   5.555
10185POPC   PO459052  43.898   2.788   5.855
10185POPC   GL159053  43.886   2.736   6.155
10185POPC   GL259054  43.766   2.756   6.155
10185POPC   C1A59055  43.864   2.808   6.455
10185POPC   D2A59056  43.926   2.746   6.755
10185POPC   C3A59057  43.859   2.723   7.055
10185POPC   C4A59058  43.933   2.744   7.355
10185POPC   C1B59059  43.682   2.706   6.455
10185POPC   C2B59060  43.615   2.799   6.755
10185POPC   C3B59061  43.678   2.729   7.055
10185POPC   C4B59062  43.598   2.769   7.355
10186POPC   NC359063  21.373  32.298   5.555
10186POPC   PO459064  21.397  32.278   5.855
10186POPC   GL159065  21.341  32.263   6.155
10186POPC   GL259066  21.429  32.367   6.155
10186POPC   C1A59067  21.404  32.248   6.455
10186POPC   D2A59068  21.396  32.236   6.755
10186POPC   C3A59069  21.395  32.296   7.055
10186POPC   C4A59070  21.424  32.220   7.355
10186POPC   C1B59071  21.472  32.480   6.455
10186POPC   C2B59072  21.498  32.504   6.755
10186POPC   C3B59073  21.485  32.469   7.055
10186POPC   C4B59074  21.528  32.520   7.355
10187POPC   NC359075  33.756  33.022   5.555
10187POPC   PO459076  33.803  33.068   5.855
10187POPC   GL159077  33.786  32.978   6.155
10187POPC   GL259078  33.742  32.924   6.155
10187POPC   C1A59079  33.753  33.067   6.455
10187POPC   D2A59080  33.780  33.026   6.755
10187POPC   C3A59081  33.758  33.012   7.055
10187POPC   C4A59082  33.816  32.996   7.355
10187POPC   C1B59083  33.643  32.835   6.455
10187POPC   C2B59084  33.620  32.783   6.755
10187POPC   C3B59085  33.651  32.818   7.055
10187POPC   C4B59086  33.643  32.805   7.355
10188POPC   NC359087   8.188  42.296   5.555
10188POPC   PO459088   8.183  42.346   5.855
10188POPC   GL159089   8.187  42.358   6.155
10188POPC   GL259090   8.064  42.389   6.155
10188POPC   C1A59091   8.206  42.347   6.455
10188POPC   D2A59092   8.236  42.346   6.755
10188POPC   C3A59093   8.202  42.361   7.055
10188POPC   C4A59094   8.231  42.361   7.355
10188POPC   C1B59095   8.030  42.415   6.455
10188POPC   C2B59096   7.938  42.508   6.755
10188POPC   C3B59097   8.016  42.502   7.055
10188POPC   C4B59098   8.007  42.458   7.355
10189POPC   NC359099   4.319  44.639   5.555
10189POPC   PO459100   4.279  44.639   5.855
10189POPC   GL159101   4.333  44.636   6.155
10189POPC   GL259102   4.408  44.619   6.155
10189POPC   C1A59103   4.337  44.676   6.455
10189POPC   D2A59104   4.300  44.648   6.755
10189POPC   C3A59105   4.349  44.612   7.055
10189POPC   C4A59106   4.278  44.628   7.355
10189POPC   C1B59107   4.590  44.668   6.455
10189POPC   C2B59108   4.539  44.700   6.755
10189POPC   C3B59109   4.574  44.652   7.055
10189POPC   C4B59110   4.576  44.650   7.355
10190POPC   NC359111  19.044   2.000   5.555
10190POPC   PO459112  19.064   1.991   5.855
10190POPC   GL159113  19.080   1.955   6.155
10190POPC   GL259114  18.944   1.969   6.155
10190POPC   C1A59115  19.030   2.029   6.455
10190POPC   D2A59116  19.108   2.039   6.755
10190POPC   C3A59117  19.049   2.010   7.055
10190POPC   C4A59118  19.059   2.002   7.355
10190POPC   C1B59119  18.810   1.865   6.455
10190POPC   C2B59120  18.841   1.885   6.755
10190POPC   C3B59121  18.874   1.900   7.055
10190POPC   C4B59122  18.829   1.878   7.355
10191POPC   NC359123  11.273  32.251   5.555
10191POPC   PO459124  11.293  32.278   5.855
10191POPC   GL159125  11.345  32.228   6.155
10191POPC   GL259126  11.447  32.185   6.155
10191POPC   C1A59127  11.311  32.226   6.455
10191POPC   D2A59128  11.258  32.206   6.755
10191POPC   C3A59129  11.289  32.277   7.055
10191POPC   C4A59130  11.306  32.289   7.355
10191POPC   C1B59131  11.468  32.125   6.455
10191POPC   C2B59132  11.480  32.094   6.755
10191POPC   C3B59133  11.502  32.105   7.055
10191POPC   C4B59134  11.457  32.050   7.355
10192POPC   NC359135  30.737  30.720   5.555
10192POPC   PO459136  30.704  30.705   5.855
10192POPC   GL159137  30.716  30.665   6.155
10192POPC   GL259138  30.786  30.703   6.155
10192POPC   C1A59139  30.731  30.726   6.455
10192POPC   D2A59140  30.740  30.737   6.755
10192POPC   C3A59141  30.728  30.710   7.055
10192POPC   C4A59142  30.673  30.746   7.355
10192POPC   C1B59143  30.944  30.707   6.455
10192POPC   C2B59144  30.945  30.684   6.755
10192POPC   C3B59145  30.932  30.736   7.055
10192POPC   C4B59146  30.958  30.684   7.355
10193POPC   NC359147  11.323  37.638   5.555
10193POPC   PO459148  11.349  37.671   5.855
10193POPC   GL159149  11.325  37.699   6.155
10193POPC   GL259150  11.418  37.652   6.155
10193POPC   C1A59151  11.307  37.651   6.455
10193POPC   D2A59152  11.292  37.653   6.755
10193POPC   C3A59153  11.304  37.662   7.055
10193POPC   C4A59154  11.332  37.651   7.355
10193POPC   C1B59155  11.575  37.659   6.455
10193POPC   C2B59156  11.523  37.611   6.755
10193POPC   C3B59157  11.566  37.644   7.055
10193POPC   C4B59158  11.532  37.692   7.355
10194POPC   NC359159  41.548   2.765   5.555
10194POPC   PO459160  41.527   2.747   5.855
10194POPC   GL159161  41.529   2.781   6.155
10194POPC   GL259162  41.513   2.849   6.155
10194POPC   C1A59163  41.529   2.797   6.455
10194POPC   D2A59164  41.579   2.748   6.755
10194POPC   C3A59165  41.533   2.747   7.055
10194POPC   C4A59166  41.542   2.767   7.355
10194POPC   C1B59167  41.432   3.001   6.455
10194POPC   C2B59168  41.392   2.956   6.755
10194POPC   C3B59169  41.383   3.022   7.055
10194POPC   C4B59170  41.409   3.013   7.355
10195POPC   NC359171  44.666  40.036   5.555
10195POPC   PO459172  44.668  39.964   5.855
10195POPC   GL159173  44.620  40.020   6.155
10195POPC   GL259174  44.709  39.888   6.155
10195POPC   C1A59175  44.649  39.999   6.455
10195POPC   D2A59176  44.637  40.005   6.755
10195POPC   C3A59177  44.705  40.006   7.055
10195POPC   C4A59178  44.640  40.024   7.355
10195POPC   C1B59179  44.746  39.836   6.455
10195POPC   C2B59180  44.766  39.755   6.755
10195POPC   C3B59181  44.811  39.804   7.055
10195POPC   C4B59182  44.836  39.786   7.355
10196POPC   NC359183  12.846   4.312   5.555
10196POPC   PO459184  12.872   4.303   5.855
10196POPC   GL159185  12.875   4.337   6.155
10196POPC   GL259186  12.839   4.409   6.155
10196POPC   C1A59187  12.894   4.319   6.455
10196POPC   D2A59188  12.877   4.312   6.755
10196POPC   C3A59189  12.888   4.331   7.055
10196POPC   C4A59190  12.879   4.355   7.355
10196POPC   C1B59191  12.747   4.576   6.455
10196POPC   C2B59192  12.764   4.516   6.755
10196POPC   C3B59193  12.793   4.514   7.055
10196POPC   C4B59194  12.758   4.567   7.355
10197POPC   NC359195  28.329  29.160   5.555
10197POPC   PO459196  28.401  29.186   5.855
10197POPC   GL159197  28.393  29.176   6.155
10197POPC   GL259198  28.280  29.104   6.155
10197POPC   C1A59199  28.341  29.139   6.455
10197POPC   D2A59200  28.336  29.187   6.755
10197POPC   C3A59201  28.373  29.161   7.055
10197POPC   C4A59202  28.373  29.132   7.355
10197POPC   C1B59203  28.085  29.052   6.455
10197POPC   C2B59204  28.174  29.059   6.755
10197POPC   C3B59205  28.117  29.079   7.055
10197POPC   C4B59206  28.101  29.097   7.355
10198POPC   NC359207   2.771   1.185   5.555
10198POPC   PO459208   2.758   1.198   5.855
10198POPC   GL159209   2.740   1.262   6.155
10198POPC   GL259210   2.922   1.277   6.155
10198POPC   C1A59211   2.813   1.204   6.455
10198POPC   D2A59212   2.751   1.177   6.755
10198POPC   C3A59213   2.766   1.167   7.055
10198POPC   C4A59214   2.771   1.240   7.355
10198POPC   C1B59215   2.957   1.277   6.455
10198POPC   C2B59216   3.044   1.335   6.755
10198POPC   C3B59217   2.991   1.313   7.055
10198POPC   C4B59218   2.952   1.305   7.355
10199POPC   NC359219  36.919  18.237   5.555
10199POPC   PO459220  36.953  18.316   5.855
10199POPC   GL159221  36.918  18.293   6.155
10199POPC   GL259222  36.763  18.153   6.155
10199POPC   C1A59223  36.910  18.311   6.455
10199POPC   D2A59224  36.936  18.262   6.755
10199POPC   C3A59225  36.871  18.314   7.055
10199POPC   C4A59226  36.855  18.308   7.355
10199POPC   C1B59227  36.708  18.083   6.455
10199POPC   C2B59228  36.738  18.124   6.755
10199POPC   C3B59229  36.711  18.129   7.055
10199POPC   C4B59230  36.721  18.130   7.355
10200POPC   NC359231   1.239   3.568   5.555
10200POPC   PO459232   1.205   3.590   5.855
10200POPC   GL159233   1.225   3.551   6.155
10200POPC   GL259234   1.064   3.437   6.155
10200POPC   C1A59235   1.185   3.526   6.455
10200POPC   D2A59236   1.178   3.583   6.755
10200POPC   C3A59237   1.263   3.541   7.055
10200POPC   C4A59238   1.226   3.499   7.355
10200POPC   C1B59239   0.980   3.442   6.455
10200POPC   C2B59240   0.979   3.442   6.755
10200POPC   C3B59241   1.024   3.391   7.055
10200POPC   C4B59242   0.948   3.432   7.355
10201POPC   NC359243  18.245  38.486   5.555
10201POPC   PO459244  18.278  38.478   5.855
10201POPC   GL159245  18.297  38.483   6.155
10201POPC   GL259246  18.408  38.393   6.155
10201POPC   C1A59247  18.310  38.420   6.455
10201POPC   D2A59248  18.267  38.415   6.755
10201POPC   C3A59249  18.320  38.410   7.055
10201POPC   C4A59250  18.310  38.409   7.355
10201POPC   C1B59251  18.517  38.296   6.455
10201POPC   C2B59252  18.478  38.364   6.755
10201POPC   C3B59253  18.552  38.328   7.055
10201POPC   C4B59254  18.461  38.305   7.355
10202POPC   NC359255  33.843  43.882   5.555
10202POPC   PO459256  33.802  43.905   5.855
10202POPC   GL159257  33.783  43.918   6.155
10202POPC   GL259258  33.913  43.887   6.155
10202POPC   C1A59259  33.819  43.910   6.455
10202POPC   D2A59260  33.813  43.923   6.755
10202POPC   C3A59261  33.844  43.899   7.055
10202POPC   C4A59262  33.762  43.894   7.355
10202POPC   C1B59263  34.057  43.862   6.455
10202POPC   C2B59264  34.093  43.925   6.755
10202POPC   C3B59265  34.072  43.853   7.055
10202POPC   C4B59266  34.008  43.909   7.355
10203POPC   NC359267  25.238   9.743   5.555
10203POPC   PO459268  25.287   9.779   5.855
10203POPC   GL159269  25.232   9.776   6.155
10203POPC   GL259270  25.374   9.726   6.155
10203POPC   C1A59271  25.229   9.710   6.455
10203POPC   D2A59272  25.299   9.754   6.755
10203POPC   C3A59273  25.288   9.789   7.055
10203POPC   C4A59274  25.272   9.724   7.355
10203POPC   C1B59275  25.456   9.635   6.455
10203POPC   C2B59276  25.522   9.638   6.755
10203POPC   C3B59277  25.447   9.604   7.055
10203POPC   C4B59278  25.490   9.676   7.355
10204POPC   NC359279   9.724   1.175   5.555
10204POPC   PO459280   9.738   1.180   5.855
10204POPC   GL159281   9.735   1.189   6.155
10204POPC   GL259282   9.678   1.175   6.155
10204POPC   C1A59283   9.710   1.226   6.455
10204POPC   D2A59284   9.774   1.186   6.755
10204POPC   C3A59285   9.735   1.262   7.055
10204POPC   C4A59286   9.751   1.212   7.355
10204POPC   C1B59287   9.537   1.033   6.455
10204POPC   C2B59288   9.531   1.086   6.755
10204POPC   C3B59289   9.536   1.094   7.055
10204POPC   C4B59290   9.521   1.048   7.355
10205POPC   NC359291  36.121  31.473   5.555
10205POPC   PO459292  36.172  31.473   5.855
10205POPC   GL159293  36.110  31.519   6.155
10205POPC   GL259294  36.156  31.564   6.155
10205POPC   C1A59295  36.127  31.452   6.455
10205POPC   D2A59296  36.084  31.478   6.755
10205POPC   C3A59297  36.105  31.498   7.055
10205POPC   C4A59298  36.175  31.481   7.355
10205POPC   C1B59299  36.124  31.737   6.455
10205POPC   C2B59300  36.126  31.679   6.755
10205POPC   C3B59301  36.120  31.698   7.055
10205POPC   C4B59302  36.208  31.734   7.355
10206POPC   NC359303  36.153  22.154   5.555
10206POPC   PO459304  36.109  22.185   5.855
10206POPC   GL159305  36.111  22.156   6.155
10206POPC   GL259306  36.166  22.076   6.155
10206POPC   C1A59307  36.155  22.193   6.455
10206POPC   D2A59308  36.118  22.205   6.755
10206POPC   C3A59309  36.084  22.180   7.055
10206POPC   C4A59310  36.127  22.134   7.355
10206POPC   C1B59311  36.161  21.914   6.455
10206POPC   C2B59312  36.178  21.952   6.755
10206POPC   C3B59313  36.115  21.923   7.055
10206POPC   C4B59314  36.203  21.956   7.355
10207POPC   NC359315  12.837   3.589   5.555
10207POPC   PO459316  12.803   3.548   5.855
10207POPC   GL159317  12.804   3.580   6.155
10207POPC   GL259318  12.759   3.630   6.155
10207POPC   C1A59319  12.881   3.530   6.455
10207POPC   D2A59320  12.887   3.494   6.755
10207POPC   C3A59321  12.884   3.507   7.055
10207POPC   C4A59322  12.828   3.505   7.355
10207POPC   C1B59323  12.743   3.718   6.455
10207POPC   C2B59324  12.743   3.789   6.755
10207POPC   C3B59325  12.782   3.807   7.055
10207POPC   C4B59326  12.694   3.747   7.355
10208POPC   NC359327  36.951  42.294   5.555
10208POPC   PO459328  36.902  42.356   5.855
10208POPC   GL159329  36.879  42.371   6.155
10208POPC   GL259330  37.023  42.301   6.155
10208POPC   C1A59331  36.899  42.330   6.455
10208POPC   D2A59332  36.927  42.350   6.755
10208POPC   C3A59333  36.939  42.339   7.055
10208POPC   C4A59334  36.899  42.315   7.355
10208POPC   C1B59335  37.121  42.373   6.455
10208POPC   C2B59336  37.183  42.337   6.755
10208POPC   C3B59337  37.177  42.365   7.055
10208POPC   C4B59338  37.133  42.401   7.355
10209POPC   NC359339  43.158  44.651   5.555
10209POPC   PO459340  43.080  44.649   5.855
10209POPC   GL159341  43.144  44.690   6.155
10209POPC   GL259342  43.047  44.752   6.155
10209POPC   C1A59343  43.138  44.667   6.455
10209POPC   D2A59344  43.068  44.666   6.755
10209POPC   C3A59345  43.077  44.628   7.055
10209POPC   C4A59346  43.118  44.650   7.355
10209POPC   C1B59347  43.045  44.937   6.455
10209POPC   C2B59348  43.085  44.894   6.755
10209POPC   C3B59349  43.097  44.894   7.055
10209POPC   C4B59350  43.039  44.871   7.355
10210POPC   NC359351  38.442   3.571   5.555
10210POPC   PO459352  38.433   3.586   5.855
10210POPC   GL159353  38.484   3.566   6.155
10210POPC   GL259354  38.495   3.417   6.155
10210POPC   C1A59355  38.416   3.535   6.455
10210POPC   D2A59356  38.415   3.497   6.755
10210POPC   C3A59357  38.464   3.492   7.055
10210POPC   C4A59358  38.458   3.536   7.355
10210POPC   C1B59359  38.605   3.395   6.455
10210POPC   C2B59360  38.653   3.335   6.755
10210POPC   C3B59361  38.642   3.366   7.055
10210POPC   C4B59362  38.614   3.377   7.355
10211POPC   NC359363  26.066  43.931   5.555
10211POPC   PO459364  26.007  43.842   5.855
10211POPC   GL159365  26.079  43.872   6.155
10211POPC   GL259366  26.093  43.737   6.155
10211POPC   C1A59367  26.043  43.875   6.455
10211POPC   D2A59368  26.019  43.858   6.755
10211POPC   C3A59369  26.042  43.873   7.055
10211POPC   C4A59370  26.009  43.860   7.355
10211POPC   C1B59371  26.094  43.603   6.455
10211POPC   C2B59372  26.140  43.685   6.755
10211POPC   C3B59373  26.068  43.605   7.055
10211POPC   C4B59374  26.082  43.687   7.355
10212POPC   NC359375  43.874  26.031   5.555
10212POPC   PO459376  43.858  26.002   5.855
10212POPC   GL159377  43.861  26.033   6.155
10212POPC   GL259378  44.002  26.074   6.155
10212POPC   C1A59379  43.840  26.035   6.455
10212POPC   D2A59380  43.875  26.034   6.755
10212POPC   C3A59381  43.883  26.064   7.055
10212POPC   C4A59382  43.934  26.049   7.355
10212POPC   C1B59383  44.037  26.172   6.455
10212POPC   C2B59384  44.127  26.243   6.755
10212POPC   C3B59385  44.133  26.173   7.055
10212POPC   C4B59386  44.052  26.222   7.355
10213POPC   NC359387  35.375  15.906   5.555
10213POPC   PO459388  35.379  16.002   5.855
10213POPC   GL159389  35.394  15.906   6.155
10213POPC   GL259390  35.422  16.069   6.155
10213POPC   C1A59391  35.316  16.005   6.455
10213POPC   D2A59392  35.346  15.966   6.755
10213POPC   C3A59393  35.341  16.003   7.055
10213POPC   C4A59394  35.323  15.943   7.355
10213POPC   C1B59395  35.494  16.185   6.455
10213POPC   C2B59396  35.509  16.117   6.755
10213POPC   C3B59397  35.560  16.169   7.055
10213POPC   C4B59398  35.555  16.132   7.355
10214POPC   NC359399  39.242  28.391   5.555
10214POPC   PO459400  39.226  28.322   5.855
10214POPC   GL159401  39.196  28.383   6.155
10214POPC   GL259402  39.130  28.342   6.155
10214POPC   C1A59403  39.200  28.385   6.455
10214POPC   D2A59404  39.224  28.402   6.755
10214POPC   C3A59405  39.241  28.338   7.055
10214POPC   C4A59406  39.247  28.337   7.355
10214POPC   C1B59407  39.022  28.280   6.455
10214POPC   C2B59408  39.053  28.278   6.755
10214POPC   C3B59409  39.059  28.226   7.055
10214POPC   C4B59410  39.011  28.212   7.355
10215POPC   NC359411  16.751  27.582   5.555
10215POPC   PO459412  16.723  27.609   5.855
10215POPC   GL159413  16.773  27.613   6.155
10215POPC   GL259414  16.864  27.512   6.155
10215POPC   C1A59415  16.707  27.608   6.455
10215POPC   D2A59416  16.772  27.552   6.755
10215POPC   C3A59417  16.688  27.636   7.055
10215POPC   C4A59418  16.776  27.617   7.355
10215POPC   C1B59419  16.914  27.478   6.455
10215POPC   C2B59420  16.946  27.410   6.755
10215POPC   C3B59421  16.897  27.429   7.055
10215POPC   C4B59422  16.967  27.410   7.355
10216POPC   NC359423   3.514  35.336   5.555
10216POPC   PO459424   3.562  35.394   5.855
10216POPC   GL159425   3.502  35.388   6.155
10216POPC   GL259426   3.531  35.442   6.155
10216POPC   C1A59427   3.567  35.396   6.455
10216POPC   D2A59428   3.520  35.370   6.755
10216POPC   C3A59429   3.570  35.331   7.055
10216POPC   C4A59430   3.588  35.325   7.355
10216POPC   C1B59431   3.563  35.629   6.455
10216POPC   C2B59432   3.636  35.576   6.755
10216POPC   C3B59433   3.621  35.643   7.055
10216POPC   C4B59434   3.580  35.636   7.355
10217POPC   NC359435  19.092   0.410   5.555
10217POPC   PO459436  19.045   0.479   5.855
10217POPC   GL159437  19.083   0.454   6.155
10217POPC   GL259438  18.974   0.336   6.155
10217POPC   C1A59439  19.086   0.485   6.455
10217POPC   D2A59440  19.041   0.434   6.755
10217POPC   C3A59441  19.088   0.454   7.055
10217POPC   C4A59442  19.050   0.395   7.355
10217POPC   C1B59443  18.833   0.262   6.455
10217POPC   C2B59444  18.921   0.301   6.755
10217POPC   C3B59445  18.865   0.273   7.055
10217POPC   C4B59446  18.905   0.220   7.355
10218POPC   NC359447   9.729  12.862   5.555
10218POPC   PO459448   9.754  12.846   5.855
10218POPC   GL159449   9.724  12.803   6.155
10218POPC   GL259450   9.742  12.768   6.155
10218POPC   C1A59451   9.718  12.815   6.455
10218POPC   D2A59452   9.756  12.842   6.755
10218POPC   C3A59453   9.719  12.874   7.055
10218POPC   C4A59454   9.754  12.849   7.355
10218POPC   C1B59455   9.657  12.618   6.455
10218POPC   C2B59456   9.691  12.651   6.755
10218POPC   C3B59457   9.669  12.655   7.055
10218POPC   C4B59458   9.651  12.631   7.355
10219POPC   NC359459   3.584  32.265   5.555
10219POPC   PO459460   3.510  32.231   5.855
10219POPC   GL159461   3.499  32.238   6.155
10219POPC   GL259462   3.620  32.136   6.155
10219POPC   C1A59463   3.532  32.212   6.455
10219POPC   D2A59464   3.585  32.221   6.755
10219POPC   C3A59465   3.557  32.200   7.055
10219POPC   C4A59466   3.512  32.293   7.355
10219POPC   C1B59467   3.775  32.103   6.455
10219POPC   C2B59468   3.766  32.130   6.755
10219POPC   C3B59469   3.790  32.105   7.055
10219POPC   C4B59470   3.774  32.116   7.355
10220POPC   NC359471  44.693   5.913   5.555
10220POPC   PO459472  44.654   5.834   5.855
10220POPC   GL159473  44.660   5.881   6.155
10220POPC   GL259474  44.580   5.804   6.155
10220POPC   C1A59475  44.615   5.870   6.455
10220POPC   D2A59476  44.615   5.900   6.755
10220POPC   C3A59477  44.651   5.913   7.055
10220POPC   C4A59478  44.663   5.906   7.355
10220POPC   C1B59479  44.396   5.824   6.455
10220POPC   C2B59480  44.389   5.828   6.755
10220POPC   C3B59481  44.411   5.801   7.055
10220POPC   C4B59482  44.427   5.831   7.355
10221POPC   NC359483  29.176  41.576   5.555
10221POPC   PO459484  29.176  41.591   5.855
10221POPC   GL159485  29.120  41.600   6.155
10221POPC   GL259486  28.989  41.507   6.155
10221POPC   C1A59487  29.133  41.569   6.455
10221POPC   D2A59488  29.138  41.593   6.755
10221POPC   C3A59489  29.147  41.604   7.055
10221POPC   C4A59490  29.105  41.530   7.355
10221POPC   C1B59491  28.905  41.516   6.455
10221POPC   C2B59492  28.953  41.454   6.755
10221POPC   C3B59493  28.940  41.438   7.055
10221POPC   C4B59494  28.871  41.441   7.355
10222POPC   NC359495   1.984  38.443   5.555
10222POPC   PO459496   1.947  38.441   5.855
10222POPC   GL159497   1.988  38.493   6.155
10222POPC   GL259498   2.010  38.581   6.155
10222POPC   C1A59499   1.960  38.493   6.455
10222POPC   D2A59500   1.946  38.427   6.755
10222POPC   C3A59501   2.025  38.463   7.055
10222POPC   C4A59502   1.940  38.454   7.355
10222POPC   C1B59503   1.973  38.661   6.455
10222POPC   C2B59504   2.024  38.725   6.755
10222POPC   C3B59505   1.987  38.696   7.055
10222POPC   C4B59506   1.961  38.738   7.355
10223POPC   NC359507  21.417  25.301   5.555
10223POPC   PO459508  21.408  25.315   5.855
10223POPC   GL159509  21.411  25.247   6.155
10223POPC   GL259510  21.425  25.148   6.155
10223POPC   C1A59511  21.398  25.274   6.455
10223POPC   D2A59512  21.403  25.260   6.755
10223POPC   C3A59513  21.358  25.222   7.055
10223POPC   C4A59514  21.384  25.249   7.355
10223POPC   C1B59515  21.545  25.027   6.455
10223POPC   C2B59516  21.510  25.040   6.755
10223POPC   C3B59517  21.484  25.077   7.055
10223POPC   C4B59518  21.555  25.028   7.355
10224POPC   NC359519   5.072  16.720   5.555
10224POPC   PO459520   5.073  16.723   5.855
10224POPC   GL159521   5.103  16.778   6.155
10224POPC   GL259522   5.198  16.722   6.155
10224POPC   C1A59523   5.080  16.684   6.455
10224POPC   D2A59524   5.068  16.745   6.755
10224POPC   C3A59525   5.079  16.762   7.055
10224POPC   C4A59526   5.054  16.699   7.355
10224POPC   C1B59527   5.316  16.709   6.455
10224POPC   C2B59528   5.338  16.727   6.755
10224POPC   C3B59529   5.329  16.684   7.055
10224POPC   C4B59530   5.334  16.672   7.355
10225POPC   NC359531  22.191   8.241   5.555
10225POPC   PO459532  22.151   8.234   5.855
10225POPC   GL159533  22.123   8.175   6.155
10225POPC   GL259534  22.314   8.246   6.155
10225POPC   C1A59535  22.131   8.224   6.455
10225POPC   D2A59536  22.205   8.206   6.755
10225POPC   C3A59537  22.208   8.203   7.055
10225POPC   C4A59538  22.131   8.147   7.355
10225POPC   C1B59539  22.384   8.327   6.455
10225POPC   C2B59540  22.368   8.319   6.755
10225POPC   C3B59541  22.438   8.295   7.055
10225POPC   C4B59542  22.429   8.312   7.355
10226POPC   NC359543  31.426  17.550   5.555
10226POPC   PO459544  31.491  17.527   5.855
10226POPC   GL159545  31.482  17.531   6.155
10226POPC   GL259546  31.593  17.578   6.155
10226POPC   C1A59547  31.481  17.527   6.455
10226POPC   D2A59548  31.427  17.488   6.755
10226POPC   C3A59549  31.468  17.550   7.055
10226POPC   C4A59550  31.468  17.480   7.355
10226POPC   C1B59551  31.651  17.576   6.455
10226POPC   C2B59552  31.745  17.652   6.755
10226POPC   C3B59553  31.733  17.604   7.055
10226POPC   C4B59554  31.687  17.647   7.355
10227POPC   NC359555  39.990  12.095   5.555
10227POPC   PO459556  40.049  12.082   5.855
10227POPC   GL159557  39.967  12.066   6.155
10227POPC   GL259558  40.136  12.181   6.155
10227POPC   C1A59559  40.049  12.052   6.455
10227POPC   D2A59560  40.055  12.113   6.755
10227POPC   C3A59561  40.039  12.059   7.055
10227POPC   C4A59562  39.999  12.112   7.355
10227POPC   C1B59563  40.219  12.287   6.455
10227POPC   C2B59564  40.150  12.244   6.755
10227POPC   C3B59565  40.211  12.222   7.055
10227POPC   C4B59566  40.216  12.291   7.355
10228POPC   NC359567  38.440  16.734   5.555
10228POPC   PO459568  38.440  16.682   5.855
10228POPC   GL159569  38.421  16.716   6.155
10228POPC   GL259570  38.354  16.699   6.155
10228POPC   C1A59571  38.471  16.748   6.455
10228POPC   D2A59572  38.405  16.707   6.755
10228POPC   C3A59573  38.481  16.752   7.055
10228POPC   C4A59574  38.503  16.687   7.355
10228POPC   C1B59575  38.264  16.649   6.455
10228POPC   C2B59576  38.249  16.626   6.755
10228POPC   C3B59577  38.238  16.654   7.055
10228POPC   C4B59578  38.253  16.624   7.355
10229POPC   NC359579  43.878  34.560   5.555
10229POPC   PO459580  43.840  34.620   5.855
10229POPC   GL159581  43.918  34.536   6.155
10229POPC   GL259582  43.967  34.601   6.155
10229POPC   C1A59583  43.926  34.595   6.455
10229POPC   D2A59584  43.843  34.561   6.755
10229POPC   C3A59585  43.899  34.539   7.055
10229POPC   C4A59586  43.877  34.551   7.355
10229POPC   C1B59587  44.073  34.642   6.455
10229POPC   C2B59588  44.093  34.633   6.755
10229POPC   C3B59589  44.079  34.684   7.055
10229POPC   C4B59590  44.127  34.653   7.355
10230POPC   NC359591  35.358  32.983   5.555
10230POPC   PO459592  35.398  32.986   5.855
10230POPC   GL159593  35.387  33.020   6.155
10230POPC   GL259594  35.502  33.036   6.155
10230POPC   C1A59595  35.331  32.982   6.455
10230POPC   D2A59596  35.368  33.008   6.755
10230POPC   C3A59597  35.335  33.000   7.055
10230POPC   C4A59598  35.386  32.998   7.355
10230POPC   C1B59599  35.606  32.975   6.455
10230POPC   C2B59600  35.633  32.966   6.755
10230POPC   C3B59601  35.558  32.976   7.055
10230POPC   C4B59602  35.632  33.030   7.355
10231POPC   NC359603  33.786  29.185   5.555
10231POPC   PO459604  33.807  29.139   5.855
10231POPC   GL159605  33.846  29.124   6.155
10231POPC   GL259606  33.880  29.006   6.155
10231POPC   C1A59607  33.830  29.115   6.455
10231POPC   D2A59608  33.833  29.133   6.755
10231POPC   C3A59609  33.781  29.137   7.055
10231POPC   C4A59610  33.779  29.178   7.355
10231POPC   C1B59611  33.895  28.923   6.455
10231POPC   C2B59612  33.905  28.886   6.755
10231POPC   C3B59613  33.955  28.917   7.055
10231POPC   C4B59614  33.944  28.873   7.355
10232POPC   NC359615  18.303  26.780   5.555
10232POPC   PO459616  18.241  26.792   5.855
10232POPC   GL159617  18.303  26.769   6.155
10232POPC   GL259618  18.241  26.711   6.155
10232POPC   C1A59619  18.237  26.867   6.455
10232POPC   D2A59620  18.286  26.785   6.755
10232POPC   C3A59621  18.284  26.857   7.055
10232POPC   C4A59622  18.323  26.791   7.355
10232POPC   C1B59623  18.089  26.636   6.455
10232POPC   C2B59624  18.088  26.661   6.755
10232POPC   C3B59625  18.076  26.625   7.055
10232POPC   C4B59626  18.096  26.650   7.355
10233POPC   NC359627  26.772  25.237   5.555
10233POPC   PO459628  26.772  25.315   5.855
10233POPC   GL159629  26.779  25.309   6.155
10233POPC   GL259630  26.960  25.188   6.155
10233POPC   C1A59631  26.838  25.300   6.455
10233POPC   D2A59632  26.838  25.279   6.755
10233POPC   C3A59633  26.789  25.258   7.055
10233POPC   C4A59634  26.832  25.219   7.355
10233POPC   C1B59635  27.095  25.178   6.455
10233POPC   C2B59636  27.032  25.167   6.755
10233POPC   C3B59637  27.053  25.208   7.055
10233POPC   C4B59638  27.066  25.169   7.355
10234POPC   NC359639  29.128  39.243   5.555
10234POPC   PO459640  29.170  39.242   5.855
10234POPC   GL159641  29.118  39.211   6.155
10234POPC   GL259642  29.064  39.292   6.155
10234POPC   C1A59643  29.167  39.193   6.455
10234POPC   D2A59644  29.099  39.241   6.755
10234POPC   C3A59645  29.182  39.220   7.055
10234POPC   C4A59646  29.117  39.245   7.355
10234POPC   C1B59647  29.025  39.447   6.455
10234POPC   C2B59648  28.946  39.390   6.755
10234POPC   C3B59649  28.933  39.441   7.055
10234POPC   C4B59650  28.966  39.393   7.355
10235POPC   NC359651  15.211   8.980   5.555
10235POPC   PO459652  15.130   8.946   5.855
10235POPC   GL159653  15.174   8.942   6.155
10235POPC   GL259654  15.136   9.112   6.155
10235POPC   C1A59655  15.174   8.968   6.455
10235POPC   D2A59656  15.192   8.973   6.755
10235POPC   C3A59657  15.152   8.944   7.055
10235POPC   C4A59658  15.202   8.960   7.355
10235POPC   C1B59659  14.988   9.163   6.455
10235POPC   C2B59660  15.047   9.182   6.755
10235POPC   C3B59661  15.043   9.125   7.055
10235POPC   C4B59662  15.048   9.139   7.355
10236POPC   NC359663  31.522  21.354   5.555
10236POPC   PO459664  31.503  21.408   5.855
10236POPC   GL159665  31.458  21.423   6.155
10236POPC   GL259666  31.551  21.256   6.155
10236POPC   C1A59667  31.426  21.351   6.455
10236POPC   D2A59668  31.459  21.411   6.755
10236POPC   C3A59669  31.481  21.401   7.055
10236POPC   C4A59670  31.522  21.431   7.355
10236POPC   C1B59671  31.597  21.227   6.455
10236POPC   C2B59672  31.680  21.164   6.755
10236POPC   C3B59673  31.617  21.158   7.055
10236POPC   C4B59674  31.631  21.235   7.355
10237POPC   NC359675  30.673  34.541   5.555
10237POPC   PO459676  30.732  34.583   5.855
10237POPC   GL159677  30.725  34.537   6.155
10237POPC   GL259678  30.639  34.447   6.155
10237POPC   C1A59679  30.702  34.618   6.455
10237POPC   D2A59680  30.650  34.580   6.755
10237POPC   C3A59681  30.666  34.587   7.055
10237POPC   C4A59682  30.671  34.567   7.355
10237POPC   C1B59683  30.546  34.356   6.455
10237POPC   C2B59684  30.478  34.440   6.755
10237POPC   C3B59685  30.549  34.397   7.055
10237POPC   C4B59686  30.501  34.353   7.355
10238POPC   NC359687  39.229  12.841   5.555
10238POPC   PO459688  39.250  12.831   5.855
10238POPC   GL159689  39.253  12.864   6.155
10238POPC   GL259690  39.237  12.740   6.155
10238POPC   C1A59691  39.197  12.875   6.455
10238POPC   D2A59692  39.257  12.841   6.755
10238POPC   C3A59693  39.207  12.814   7.055
10238POPC   C4A59694  39.231  12.805   7.355
10238POPC   C1B59695  39.215  12.601   6.455
10238POPC   C2B59696  39.156  12.593   6.755
10238POPC   C3B59697  39.191  12.584   7.055
10238POPC   C4B59698  39.241  12.648   7.355
10239POPC   NC359699  17.509   5.880   5.555
10239POPC   PO459700  17.533   5.892   5.855
10239POPC   GL159701  17.479   5.846   6.155
10239POPC   GL259702  17.406   5.952   6.155
10239POPC   C1A59703  17.529   5.888   6.455
10239POPC   D2A59704  17.491   5.891   6.755
10239POPC   C3A59705  17.491   5.855   7.055
10239POPC   C4A59706  17.536   5.848   7.355
10239POPC   C1B59707  17.328   5.967   6.455
10239POPC   C2B59708  17.305   6.022   6.755
10239POPC   C3B59709  17.322   6.023   7.055
10239POPC   C4B59710  17.239   6.023   7.355
10240POPC   NC359711  23.751  14.359   5.555
10240POPC   PO459712  23.671  14.423   5.855
10240POPC   GL159713  23.747  14.423   6.155
10240POPC   GL259714  23.754  14.535   6.155
10240POPC   C1A59715  23.745  14.422   6.455
10240POPC   D2A59716  23.675  14.365   6.755
10240POPC   C3A59717  23.729  14.360   7.055
10240POPC   C4A59718  23.688  14.397   7.355
10240POPC   C1B59719  23.907  14.617   6.455
10240POPC   C2B59720  23.912  14.615   6.755
10240POPC   C3B59721  23.869  14.557   7.055
10240POPC   C4B59722  23.834  14.594   7.355
10241POPC   NC359723   8.993  22.178   5.555
10241POPC   PO459724   8.998  22.159   5.855
10241POPC   GL159725   8.979  22.182   6.155
10241POPC   GL259726   8.863  22.180   6.155
10241POPC   C1A59727   8.926  22.162   6.455
10241POPC   D2A59728   9.021  22.186   6.755
10241POPC   C3A59729   8.964  22.174   7.055
10241POPC   C4A59730   8.967  22.118   7.355
10241POPC   C1B59731   8.715  22.263   6.455
10241POPC   C2B59732   8.688  22.228   6.755
10241POPC   C3B59733   8.704  22.205   7.055
10241POPC   C4B59734   8.706  22.204   7.355
10242POPC   NC359735  15.913  40.757   5.555
10242POPC   PO459736  15.931  40.753   5.855
10242POPC   GL159737  15.986  40.804   6.155
10242POPC   GL259738  15.917  40.892   6.155
10242POPC   C1A59739  15.960  40.744   6.455
10242POPC   D2A59740  15.994  40.770   6.755
10242POPC   C3A59741  15.994  40.752   7.055
10242POPC   C4A59742  15.927  40.812   7.355
10242POPC   C1B59743  15.962  41.029   6.455
10242POPC   C2B59744  15.928  41.027   6.755
10242POPC   C3B59745  15.892  40.982   7.055
10242POPC   C4B59746  15.883  41.050   7.355
10243POPC   NC359747  27.587  18.320   5.555
10243POPC   PO459748  27.594  18.301   5.855
10243POPC   GL159749  27.590  18.310   6.155
10243POPC   GL259750  27.664  18.247   6.155
10243POPC   C1A59751  27.631  18.254   6.455
10243POPC   D2A59752  27.596  18.255   6.755
10243POPC   C3A59753  27.588  18.317   7.055
10243POPC   C4A59754  27.593  18.247   7.355
10243POPC   C1B59755  27.797  18.175   6.455
10243POPC   C2B59756  27.785  18.173   6.755
10243POPC   C3B59757  27.764  18.154   7.055
10243POPC   C4B59758  27.851  18.126   7.355
10244POPC   NC359759  29.893   7.429   5.555
10244POPC   PO459760  29.874   7.405   5.855
10244POPC   GL159761  29.969   7.381   6.155
10244POPC   GL259762  30.027   7.470   6.155
10244POPC   C1A59763  29.896   7.395   6.455
10244POPC   D2A59764  29.953   7.392   6.755
10244POPC   C3A59765  29.915   7.408   7.055
10244POPC   C4A59766  29.940   7.431   7.355
10244POPC   C1B59767  30.070   7.647   6.455
10244POPC   C2B59768  30.111   7.609   6.755
10244POPC   C3B59769  30.110   7.589   7.055
10244POPC   C4B59770  30.081   7.590   7.355
10245POPC   NC359771  33.804  43.080   5.555
10245POPC   PO459772  33.831  43.086   5.855
10245POPC   GL159773  33.808  43.155   6.155
10245POPC   GL259774  33.929  43.205   6.155
10245POPC   C1A59775  33.789  43.083   6.455
10245POPC   D2A59776  33.831  43.102   6.755
10245POPC   C3A59777  33.790  43.086   7.055
10245POPC   C4A59778  33.838  43.133   7.355
10245POPC   C1B59779  33.989  43.220   6.455
10245POPC   C2B59780  34.011  43.207   6.755
10245POPC   C3B59781  34.009  43.220   7.055
10245POPC   C4B59782  33.978  43.190   7.355
10246POPC   NC359783   5.840  42.327   5.555
10246POPC   PO459784   5.853  42.374   5.855
10246POPC   GL159785   5.832  42.286   6.155
10246POPC   GL259786   5.844  42.428   6.155
10246POPC   C1A59787   5.898  42.328   6.455
10246POPC   D2A59788   5.874  42.340   6.755
10246POPC   C3A59789   5.829  42.363   7.055
10246POPC   C4A59790   5.854  42.359   7.355
10246POPC   C1B59791   5.846  42.601   6.455
10246POPC   C2B59792   5.856  42.616   6.755
10246POPC   C3B59793   5.883  42.565   7.055
10246POPC   C4B59794   5.865  42.628   7.355
10247POPC   NC359795  37.641  27.616   5.555
10247POPC   PO459796  37.714  27.555   5.855
10247POPC   GL159797  37.699  27.550   6.155
10247POPC   GL259798  37.812  27.580   6.155
10247POPC   C1A59799  37.697  27.584   6.455
10247POPC   D2A59800  37.645  27.551   6.755
10247POPC   C3A59801  37.667  27.600   7.055
10247POPC   C4A59802  37.681  27.592   7.355
10247POPC   C1B59803  37.909  27.538   6.455
10247POPC   C2B59804  37.894  27.615   6.755
10247POPC   C3B59805  37.899  27.530   7.055
10247POPC   C4B59806  37.904  27.587   7.355
10248POPC   NC359807  21.352  28.385   5.555
10248POPC   PO459808  21.434  28.405   5.855
10248POPC   GL159809  21.436  28.353   6.155
10248POPC   GL259810  21.289  28.380   6.155
10248POPC   C1A59811  21.418  28.419   6.455
10248POPC   D2A59812  21.413  28.333   6.755
10248POPC   C3A59813  21.383  28.351   7.055
10248POPC   C4A59814  21.420  28.332   7.355
10248POPC   C1B59815  21.112  28.439   6.455
10248POPC   C2B59816  21.106  28.386   6.755
10248POPC   C3B59817  21.104  28.356   7.055
10248POPC   C4B59818  21.108  28.407   7.355
10249POPC   NC359819  29.170  33.811   5.555
10249POPC   PO459820  29.110  33.784   5.855
10249POPC   GL159821  29.187  33.793   6.155
10249POPC   GL259822  29.200  33.892   6.155
10249POPC   C1A59823  29.156  33.779   6.455
10249POPC   D2A59824  29.144  33.778   6.755
10249POPC   C3A59825  29.152  33.850   7.055
10249POPC   C4A59826  29.126  33.825   7.355
10249POPC   C1B59827  29.216  34.010   6.455
10249POPC   C2B59828  29.199  34.032   6.755
10249POPC   C3B59829  29.179  33.994   7.055
10249POPC   C4B59830  29.221  34.082   7.355
10250POPC   NC359831   6.606  34.532   5.555
10250POPC   PO459832   6.612  34.575   5.855
10250POPC   GL159833   6.606  34.541   6.155
10250POPC   GL259834   6.539  34.549   6.155
10250POPC   C1A59835   6.603  34.607   6.455
10250POPC   D2A59836   6.679  34.549   6.755
10250POPC   C3A59837   6.693  34.568   7.055
10250POPC   C4A59838   6.654  34.533   7.355
10250POPC   C1B59839   6.419  34.479   6.455
10250POPC   C2B59840   6.406  34.470   6.755
10250POPC   C3B59841   6.403  34.480   7.055
10250POPC   C4B59842   6.435  34.494   7.355
10251POPC   NC359843  19.074  16.709   5.555
10251POPC   PO459844  19.051  16.685   5.855
10251POPC   GL159845  19.017  16.703   6.155
10251POPC   GL259846  19.125  16.763   6.155
10251POPC   C1A59847  19.073  16.756   6.455
10251POPC   D2A59848  19.061  16.740   6.755
10251POPC   C3A59849  19.035  16.776   7.055
10251POPC   C4A59850  19.062  16.726   7.355
10251POPC   C1B59851  19.304  16.840   6.455
10251POPC   C2B59852  19.245  16.871   6.755
10251POPC   C3B59853  19.220  16.934   7.055
10251POPC   C4B59854  19.275  16.862   7.355
10252POPC   NC359855  43.849  32.202   5.555
10252POPC   PO459856  43.909  32.254   5.855
10252POPC   GL159857  43.840  32.228   6.155
10252POPC   GL259858  43.785  32.386   6.155
10252POPC   C1A59859  43.934  32.235   6.455
10252POPC   D2A59860  43.892  32.252   6.755
10252POPC   C3A59861  43.894  32.226   7.055
10252POPC   C4A59862  43.893  32.223   7.355
10252POPC   C1B59863  43.802  32.480   6.455
10252POPC   C2B59864  43.714  32.425   6.755
10252POPC   C3B59865  43.730  32.499   7.055
10252POPC   C4B59866  43.733  32.449   7.355
10253POPC   NC359867  32.238  16.769   5.555
10253POPC   PO459868  32.287  16.772   5.855
10253POPC   GL159869  32.297  16.726   6.155
10253POPC   GL259870  32.360  16.664   6.155
10253POPC   C1A59871  32.266  16.710   6.455
10253POPC   D2A59872  32.285  16.702   6.755
10253POPC   C3A59873  32.223  16.700   7.055
10253POPC   C4A59874  32.287  16.718   7.355
10253POPC   C1B59875  32.492  16.581   6.455
10253POPC   C2B59876  32.451  16.630   6.755
10253POPC   C3B59877  32.435  16.655   7.055
10253POPC   C4B59878  32.515  16.580   7.355
10254POPC   NC359879   5.842   2.032   5.555
10254POPC   PO459880   5.831   1.948   5.855
10254POPC   GL159881   5.833   1.958   6.155
10254POPC   GL259882   6.026   1.972   6.155
10254POPC   C1A59883   5.837   1.957   6.455
10254POPC   D2A59884   5.859   2.005   6.755
10254POPC   C3A59885   5.918   1.992   7.055
10254POPC   C4A59886   5.852   2.038   7.355
10254POPC   C1B59887   6.112   1.934   6.455
10254POPC   C2B59888   6.117   1.924   6.755
10254POPC   C3B59889   6.089   1.925   7.055
10254POPC   C4B59890   6.116   1.892   7.355
10255POPC   NC359891   5.827  36.866   5.555
10255POPC   PO459892   5.861  36.858   5.855
10255POPC   GL159893   5.883  36.857   6.155
10255POPC   GL259894   6.029  36.999   6.155
10255POPC   C1A59895   5.846  36.913   6.455
10255POPC   D2A59896   5.877  36.953   6.755
10255POPC   C3A59897   5.834  36.950   7.055
10255POPC   C4A59898   5.912  36.905   7.355
10255POPC   C1B59899   6.081  36.984   6.455
10255POPC   C2B59900   6.129  37.013   6.755
10255POPC   C3B59901   6.109  37.029   7.055
10255POPC   C4B59902   6.112  36.996   7.355
10256POPC   NC359903  29.168  31.444   5.555
10256POPC   PO459904  29.152  31.504   5.855
10256POPC   GL159905  29.193  31.424   6.155
10256POPC   GL259906  29.278  31.489   6.155
10256POPC   C1A59907  29.138  31.441   6.455
10256POPC   D2A59908  29.172  31.471   6.755
10256POPC   C3A59909  29.169  31.450   7.055
10256POPC   C4A59910  29.185  31.448   7.355
10256POPC   C1B59911  29.396  31.605   6.455
10256POPC   C2B59912  29.388  31.531   6.755
10256POPC   C3B59913  29.357  31.575   7.055
10256POPC   C4B59914  29.396  31.610   7.355
10257POPC   NC359915  14.435   4.339   5.555
10257POPC   PO459916  14.374   4.287   5.855
10257POPC   GL159917  14.368   4.310   6.155
10257POPC   GL259918  14.444   4.461   6.155
10257POPC   C1A59919  14.405   4.360   6.455
10257POPC   D2A59920  14.414   4.305   6.755
10257POPC   C3A59921  14.431   4.292   7.055
10257POPC   C4A59922  14.439   4.315   7.355
10257POPC   C1B59923  14.485   4.519   6.455
10257POPC   C2B59924  14.565   4.486   6.755
10257POPC   C3B59925  14.535   4.566   7.055
10257POPC   C4B59926  14.484   4.553   7.355
10258POPC   NC359927  10.479  34.595   5.555
10258POPC   PO459928  10.522  34.612   5.855
10258POPC   GL159929  10.518  34.618   6.155
10258POPC   GL259930  10.483  34.453   6.155
10258POPC   C1A59931  10.568  34.599   6.455
10258POPC   D2A59932  10.493  34.582   6.755
10258POPC   C3A59933  10.508  34.554   7.055
10258POPC   C4A59934  10.500  34.576   7.355
10258POPC   C1B59935  10.428  34.392   6.455
10258POPC   C2B59936  10.383  34.358   6.755
10258POPC   C3B59937  10.429  34.392   7.055
10258POPC   C4B59938  10.465  34.355   7.355
10259POPC   NC359939  33.014   3.543   5.555
10259POPC   PO459940  33.024   3.540   5.855
10259POPC   GL159941  33.071   3.537   6.155
10259POPC   GL259942  33.029   3.455   6.155
10259POPC   C1A59943  33.072   3.547   6.455
10259POPC   D2A59944  33.052   3.566   6.755
10259POPC   C3A59945  33.025   3.502   7.055
10259POPC   C4A59946  33.039   3.585   7.355
10259POPC   C1B59947  33.163   3.306   6.455
10259POPC   C2B59948  33.082   3.286   6.755
10259POPC   C3B59949  33.150   3.348   7.055
10259POPC   C4B59950  33.137   3.312   7.355
10260POPC   NC359951  27.622  29.898   5.555
10260POPC   PO459952  27.588  29.930   5.855
10260POPC   GL159953  27.557  29.900   6.155
10260POPC   GL259954  27.726  29.845   6.155
10260POPC   C1A59955  27.550  29.927   6.455
10260POPC   D2A59956  27.554  29.884   6.755
10260POPC   C3A59957  27.552  29.952   7.055
10260POPC   C4A59958  27.561  29.898   7.355
10260POPC   C1B59959  27.832  29.854   6.455
10260POPC   C2B59960  27.806  29.892   6.755
10260POPC   C3B59961  27.816  29.834   7.055
10260POPC   C4B59962  27.815  29.889   7.355
10261POPC   NC359963  43.100  29.923   5.555
10261POPC   PO459964  43.146  29.948   5.855
10261POPC   GL159965  43.122  29.956   6.155
10261POPC   GL259966  43.260  29.833   6.155
10261POPC   C1A59967  43.138  29.901   6.455
10261POPC   D2A59968  43.062  29.964   6.755
10261POPC   C3A59969  43.138  29.893   7.055
10261POPC   C4A59970  43.130  29.908   7.355
10261POPC   C1B59971  43.354  29.748   6.455
10261POPC   C2B59972  43.278  29.736   6.755
10261POPC   C3B59973  43.357  29.727   7.055
10261POPC   C4B59974  43.351  29.792   7.355
10262POPC   NC359975   0.433  41.552   5.555
10262POPC   PO459976   0.423  41.592   5.855
10262POPC   GL159977   0.419  41.602   6.155
10262POPC   GL259978   0.571  41.537   6.155
10262POPC   C1A59979   0.423  41.525   6.455
10262POPC   D2A59980   0.419  41.530   6.755
10262POPC   C3A59981   0.434  41.595   7.055
10262POPC   C4A59982   0.441  41.578   7.355
10262POPC   C1B59983   0.668  41.521   6.455
10262POPC   C2B59984   0.662  41.532   6.755
10262POPC   C3B59985   0.655  41.508   7.055
10262POPC   C4B59986   0.710  41.569   7.355
10263POPC   NC359987  16.746  36.941   5.555
10263POPC   PO459988  16.756  36.931   5.855
10263POPC   GL159989  16.700  36.889   6.155
10263POPC   GL259990  16.592  36.884   6.155
10263POPC   C1A59991  16.698  36.854   6.455
10263POPC   D2A59992  16.778  36.925   6.755
10263POPC   C3A59993  16.737  36.951   7.055
10263POPC   C4A59994  16.770  36.897   7.355
10263POPC   C1B59995  16.534  36.799   6.455
10263POPC   C2B59996  16.531  36.809   6.755
10263POPC   C3B59997  16.516  36.743   7.055
10263POPC   C4B59998  16.509  36.805   7.355
10264POPC   NC359999  41.566  21.387   5.555
10264POPC   PO460000  41.600  21.378   5.855
10264POPC   GL160001  41.561  21.341   6.155
10264POPC   GL260002  41.644  21.462   6.155
10264POPC   C1A60003  41.601  21.415   6.455
10264POPC   D2A60004  41.531  21.385   6.755
10264POPC   C3A60005  41.559  21.356   7.055
10264POPC   C4A60006  41.580  21.399   7.355
10264POPC   C1B60007  41.781  21.489   6.455
10264POPC   C2B60008  41.834  21.498   6.755
10264POPC   C3B60009  41.828  21.489   7.055
10264POPC   C4B60010  41.832  21.435   7.355
10265POPC   NC360011   7.451  43.137   5.555
10265POPC   PO460012   7.400  43.067   5.855
10265POPC   GL160013   7.453  43.137   6.155
10265POPC   GL260014   7.289  43.035   6.155
10265POPC   C1A60015   7.416  43.157   6.455
10265POPC   D2A60016   7.418  43.132   6.755
10265POPC   C3A60017   7.421  43.113   7.055
10265POPC   C4A60018   7.469  43.147   7.355
10265POPC   C1B60019   7.245  42.925   6.455
10265POPC   C2B60020   7.246  43.005   6.755
10265POPC   C3B60021   7.204  43.009   7.055
10265POPC   C4B60022   7.175  42.931   7.355
10266POPC   NC360023  38.409  22.191   5.555
10266POPC   PO460024  38.504  22.135   5.855
10266POPC   GL160025  38.426  22.152   6.155
10266POPC   GL260026  38.326  22.083   6.155
10266POPC   C1A60027  38.484  22.117   6.455
10266POPC   D2A60028  38.452  22.173   6.755
10266POPC   C3A60029  38.482  22.128   7.055
10266POPC   C4A60030  38.433  22.199   7.355
10266POPC   C1B60031  38.238  22.054   6.455
10266POPC   C2B60032  38.248  22.035   6.755
10266POPC   C3B60033  38.212  22.007   7.055
10266POPC   C4B60034  38.278  22.055   7.355
10267POPC   NC360035  44.687  33.065   5.555
10267POPC   PO460036  44.630  33.054   5.855
10267POPC   GL160037  44.626  33.043   6.155
10267POPC   GL260038  44.535  32.980   6.155
10267POPC   C1A60039  44.690  32.990   6.455
10267POPC   D2A60040  44.692  33.052   6.755
10267POPC   C3A60041  44.634  33.045   7.055
10267POPC   C4A60042  44.623  33.039   7.355
10267POPC   C1B60043  44.523  32.895   6.455
10267POPC   C2B60044  44.500  32.877   6.755
10267POPC   C3B60045  44.451  32.833   7.055
10267POPC   C4B60046  44.507  32.811   7.355
10268POPC   NC360047   5.856  36.103   5.555
10268POPC   PO460048   5.901  36.160   5.855
10268POPC   GL160049   5.874  36.091   6.155
10268POPC   GL260050   5.750  36.149   6.155
10268POPC   C1A60051   5.911  36.120   6.455
10268POPC   D2A60052   5.907  36.172   6.755
10268POPC   C3A60053   5.842  36.099   7.055
10268POPC   C4A60054   5.850  36.096   7.355
10268POPC   C1B60055   5.653  36.145   6.455
10268POPC   C2B60056   5.586  36.180   6.755
10268POPC   C3B60057   5.579  36.124   7.055
10268POPC   C4B60058   5.625  36.139   7.355
10269POPC   NC360059  32.257  34.554   5.555
10269POPC   PO460060  32.203  34.613   5.855
10269POPC   GL160061  32.258  34.531   6.155
10269POPC   GL260062  32.220  34.744   6.155
10269POPC   C1A60063  32.229  34.585   6.455
10269POPC   D2A60064  32.204  34.571   6.755
10269POPC   C3A60065  32.276  34.544   7.055
10269POPC   C4A60066  32.233  34.597   7.355
10269POPC   C1B60067  32.160  34.777   6.455
10269POPC   C2B60068  32.223  34.862   6.755
10269POPC   C3B60069  32.173  34.824   7.055
10269POPC   C4B60070  32.238  34.792   7.355
10270POPC   NC360071  39.999  39.229   5.555
10270POPC   PO460072  40.010  39.207   5.855
10270POPC   GL160073  39.969  39.207   6.155
10270POPC   GL260074  40.039  39.362   6.155
10270POPC   C1A60075  39.976  39.239   6.455
10270POPC   D2A60076  40.037  39.245   6.755
10270POPC   C3A60077  39.981  39.216   7.055
10270POPC   C4A60078  39.999  39.202   7.355
10270POPC   C1B60079  40.179  39.488   6.455
10270POPC   C2B60080  40.122  39.453   6.755
10270POPC   C3B60081  40.126  39.404   7.055
10270POPC   C4B60082  40.155  39.414   7.355
10271POPC   NC360083  30.663  35.366   5.555
10271POPC   PO460084  30.712  35.369   5.855
10271POPC   GL160085  30.705  35.369   6.155
10271POPC   GL260086  30.834  35.295   6.155
10271POPC   C1A60087  30.683  35.401   6.455
10271POPC   D2A60088  30.700  35.351   6.755
10271POPC   C3A60089  30.647  35.308   7.055
10271POPC   C4A60090  30.664  35.380   7.355
10271POPC   C1B60091  30.950  35.197   6.455
10271POPC   C2B60092  30.946  35.259   6.755
10271POPC   C3B60093  30.918  35.227   7.055
10271POPC   C4B60094  30.918  35.238   7.355
10272POPC   NC360095   4.307  20.587   5.555
10272POPC   PO460096   4.312  20.641   5.855
10272POPC   GL160097   4.334  20.582   6.155
10272POPC   GL260098   4.225  20.620   6.155
10272POPC   C1A60099   4.273  20.602   6.455
10272POPC   D2A60100   4.271  20.580   6.755
10272POPC   C3A60101   4.314  20.602   7.055
10272POPC   C4A60102   4.365  20.658   7.355
10272POPC   C1B60103   4.056  20.629   6.455
10272POPC   C2B60104   4.019  20.560   6.755
10272POPC   C3B60105   4.037  20.631   7.055
10272POPC   C4B60106   4.061  20.630   7.355
10273POPC   NC360107  31.484  20.631   5.555
10273POPC   PO460108  31.489  20.571   5.855
10273POPC   GL160109  31.461  20.604   6.155
10273POPC   GL260110  31.630  20.523   6.155
10273POPC   C1A60111  31.461  20.635   6.455
10273POPC   D2A60112  31.490  20.570   6.755
10273POPC   C3A60113  31.510  20.621   7.055
10273POPC   C4A60114  31.489  20.643   7.355
10273POPC   C1B60115  31.666  20.483   6.455
10273POPC   C2B60116  31.683  20.525   6.755
10273POPC   C3B60117  31.706  20.448   7.055
10273POPC   C4B60118  31.701  20.507   7.355
10274POPC   NC360119  19.838  11.339   5.555
10274POPC   PO460120  19.853  11.338   5.855
10274POPC   GL160121  19.821  11.329   6.155
10274POPC   GL260122  19.800  11.239   6.155
10274POPC   C1A60123  19.811  11.330   6.455
10274POPC   D2A60124  19.825  11.276   6.755
10274POPC   C3A60125  19.864  11.318   7.055
10274POPC   C4A60126  19.807  11.293   7.355
10274POPC   C1B60127  19.712  11.108   6.455
10274POPC   C2B60128  19.650  11.141   6.755
10274POPC   C3B60129  19.665  11.123   7.055
10274POPC   C4B60130  19.659  11.134   7.355
10275POPC   NC360131  39.234  36.911   5.555
10275POPC   PO460132  39.185  36.932   5.855
10275POPC   GL160133  39.242  36.919   6.155
10275POPC   GL260134  39.194  37.003   6.155
10275POPC   C1A60135  39.237  36.942   6.455
10275POPC   D2A60136  39.238  36.872   6.755
10275POPC   C3A60137  39.280  36.879   7.055
10275POPC   C4A60138  39.181  36.925   7.355
10275POPC   C1B60139  39.139  37.112   6.455
10275POPC   C2B60140  39.144  37.151   6.755
10275POPC   C3B60141  39.190  37.146   7.055
10275POPC   C4B60142  39.158  37.193   7.355
10276POPC   NC360143  28.410  27.583   5.555
10276POPC   PO460144  28.331  27.621   5.855
10276POPC   GL160145  28.363  27.619   6.155
10276POPC   GL260146  28.477  27.583   6.155
10276POPC   C1A60147  28.349  27.642   6.455
10276POPC   D2A60148  28.399  27.575   6.755
10276POPC   C3A60149  28.331  27.556   7.055
10276POPC   C4A60150  28.391  27.638   7.355
10276POPC   C1B60151  28.631  27.464   6.455
10276POPC   C2B60152  28.621  27.484   6.755
10276POPC   C3B60153  28.582  27.504   7.055
10276POPC   C4B60154  28.631  27.446   7.355
10277POPC   NC360155   1.211  33.750   5.555
10277POPC   PO460156   1.167  33.849   5.855
10277POPC   GL160157   1.248  33.843   6.155
10277POPC   GL260158   1.099  33.905   6.155
10277POPC   C1A60159   1.261  33.771   6.455
10277POPC   D2A60160   1.242  33.777   6.755
10277POPC   C3A60161   1.256  33.770   7.055
10277POPC   C4A60162   1.192  33.850   7.355
10277POPC   C1B60163   1.069  34.012   6.455
10277POPC   C2B60164   1.100  34.000   6.755
10277POPC   C3B60165   1.096  34.025   7.055
10277POPC   C4B60166   1.041  33.969   7.355
10278POPC   NC360167  20.651  29.131   5.555
10278POPC   PO460168  20.657  29.137   5.855
10278POPC   GL160169  20.644  29.103   6.155
10278POPC   GL260170  20.743  29.203   6.155
10278POPC   C1A60171  20.615  29.166   6.455
10278POPC   D2A60172  20.562  29.191   6.755
10278POPC   C3A60173  20.622  29.167   7.055
10278POPC   C4A60174  20.608  29.151   7.355
10278POPC   C1B60175  20.874  29.191   6.455
10278POPC   C2B60176  20.887  29.206   6.755
10278POPC   C3B60177  20.823  29.195   7.055
10278POPC   C4B60178  20.803  29.215   7.355
10279POPC   NC360179  31.476   2.789   5.555
10279POPC   PO460180  31.511   2.753   5.855
10279POPC   GL160181  31.453   2.727   6.155
10279POPC   GL260182  31.445   2.936   6.155
10279POPC   C1A60183  31.486   2.791   6.455
10279POPC   D2A60184  31.476   2.748   6.755
10279POPC   C3A60185  31.500   2.782   7.055
10279POPC   C4A60186  31.471   2.727   7.355
10279POPC   C1B60187  31.523   2.998   6.455
10279POPC   C2B60188  31.466   3.024   6.755
10279POPC   C3B60189  31.488   3.021   7.055
10279POPC   C4B60190  31.490   3.007   7.355
10280POPC   NC360191  14.358  12.859   5.555
10280POPC   PO460192  14.433  12.899   5.855
10280POPC   GL160193  14.438  12.804   6.155
10280POPC   GL260194  14.429  12.754   6.155
10280POPC   C1A60195  14.368  12.812   6.455
10280POPC   D2A60196  14.378  12.888   6.755
10280POPC   C3A60197  14.371  12.835   7.055
10280POPC   C4A60198  14.434  12.810   7.355
10280POPC   C1B60199  14.427  12.647   6.455
10280POPC   C2B60200  14.341  12.555   6.755
10280POPC   C3B60201  14.337  12.559   7.055
10280POPC   C4B60202  14.389  12.613   7.355
10281POPC   NC360203   8.951   0.457   5.555
10281POPC   PO460204   9.022   0.397   5.855
10281POPC   GL160205   8.958   0.426   6.155
10281POPC   GL260206   9.077   0.484   6.155
10281POPC   C1A60207   8.936   0.452   6.455
10281POPC   D2A60208   8.935   0.477   6.755
10281POPC   C3A60209   8.956   0.486   7.055
10281POPC   C4A60210   8.975   0.411   7.355
10281POPC   C1B60211   9.165   0.565   6.455
10281POPC   C2B60212   9.189   0.545   6.755
10281POPC   C3B60213   9.176   0.565   7.055
10281POPC   C4B60214   9.202   0.572   7.355
10282POPC   NC360215   5.832  41.551   5.555
10282POPC   PO460216   5.821  41.555   5.855
10282POPC   GL160217   5.858  41.539   6.155
10282POPC   GL260218   5.817  41.718   6.155
10282POPC   C1A60219   5.847  41.584   6.455
10282POPC   D2A60220   5.888  41.573   6.755
10282POPC   C3A60221   5.838  41.517   7.055
10282POPC   C4A60222   5.899  41.550   7.355
10282POPC   C1B60223   5.822  41.808   6.455
10282POPC   C2B60224   5.760  41.756   6.755
10282POPC   C3B60225   5.803  41.754   7.055
10282POPC   C4B60226   5.746  41.767   7.355
10283POPC   NC360227  23.697  26.768   5.555
10283POPC   PO460228  23.679  26.769   5.855
10283POPC   GL160229  23.671  26.865   6.155
10283POPC   GL260230  23.558  26.802   6.155
10283POPC   C1A60231  23.672  26.846   6.455
10283POPC   D2A60232  23.673  26.811   6.755
10283POPC   C3A60233  23.739  26.774   7.055
10283POPC   C4A60234  23.763  26.865   7.355
10283POPC   C1B60235  23.465  26.745   6.455
10283POPC   C2B60236  23.466  26.789   6.755
10283POPC   C3B60237  23.445  26.741   7.055
10283POPC   C4B60238  23.507  26.738   7.355
10284POPC   NC360239  26.795   6.596   5.555
10284POPC   PO460240  26.838   6.630   5.855
10284POPC   GL160241  26.792   6.630   6.155
10284POPC   GL260242  26.756   6.738   6.155
10284POPC   C1A60243  26.812   6.693   6.455
10284POPC   D2A60244  26.797   6.644   6.755
10284POPC   C3A60245  26.847   6.655   7.055
10284POPC   C4A60246  26.841   6.615   7.355
10284POPC   C1B60247  26.596   6.812   6.455
10284POPC   C2B60248  26.663   6.790   6.755
10284POPC   C3B60249  26.657   6.820   7.055
10284POPC   C4B60250  26.573   6.792   7.355
10285POPC   NC360251  30.707   2.037   5.555
10285POPC   PO460252  30.664   2.023   5.855
10285POPC   GL160253  30.686   2.015   6.155
10285POPC   GL260254  30.763   2.079   6.155
10285POPC   C1A60255  30.676   1.952   6.455
10285POPC   D2A60256  30.732   1.981   6.755
10285POPC   C3A60257  30.677   1.942   7.055
10285POPC   C4A60258  30.729   1.969   7.355
10285POPC   C1B60259  30.893   2.201   6.455
10285POPC   C2B60260  30.861   2.181   6.755
10285POPC   C3B60261  30.830   2.136   7.055
10285POPC   C4B60262  30.839   2.199   7.355
10286POPC   NC360263  22.156  25.268   5.555
10286POPC   PO460264  22.199  25.310   5.855
10286POPC   GL160265  22.143  25.277   6.155
10286POPC   GL260266  22.269  25.291   6.155
10286POPC   C1A60267  22.184  25.285   6.455
10286POPC   D2A60268  22.179  25.217   6.755
10286POPC   C3A60269  22.116  25.302   7.055
10286POPC   C4A60270  22.141  25.308   7.355
10286POPC   C1B60271  22.336  25.383   6.455
10286POPC   C2B60272  22.413  25.354   6.755
10286POPC   C3B60273  22.371  25.440   7.055
10286POPC   C4B60274  22.393  25.430   7.355
10287POPC   NC360275  21.432   9.710   5.555
10287POPC   PO460276  21.354   9.715   5.855
10287POPC   GL160277  21.399   9.713   6.155
10287POPC   GL260278  21.249   9.705   6.155
10287POPC   C1A60279  21.372   9.714   6.455
10287POPC   D2A60280  21.422   9.798   6.755
10287POPC   C3A60281  21.354   9.709   7.055
10287POPC   C4A60282  21.345   9.772   7.355
10287POPC   C1B60283  21.159   9.653   6.455
10287POPC   C2B60284  21.177   9.640   6.755
10287POPC   C3B60285  21.112   9.682   7.055
10287POPC   C4B60286  21.175   9.717   7.355
10288POPC   NC360287  36.171  42.364   5.555
10288POPC   PO460288  36.098  42.356   5.855
10288POPC   GL160289  36.122  42.290   6.155
10288POPC   GL260290  36.036  42.304   6.155
10288POPC   C1A60291  36.175  42.349   6.455
10288POPC   D2A60292  36.151  42.327   6.755
10288POPC   C3A60293  36.131  42.308   7.055
10288POPC   C4A60294  36.134  42.308   7.355
10288POPC   C1B60295  35.915  42.243   6.455
10288POPC   C2B60296  35.889  42.277   6.755
10288POPC   C3B60297  35.927  42.254   7.055
10288POPC   C4B60298  35.920  42.210   7.355
10289POPC   NC360299  36.155  12.071   5.555
10289POPC   PO460300  36.165  12.048   5.855
10289POPC   GL160301  36.107  12.099   6.155
10289POPC   GL260302  36.031  12.091   6.155
10289POPC   C1A60303  36.160  12.051   6.455
10289POPC   D2A60304  36.115  12.083   6.755
10289POPC   C3A60305  36.087  12.070   7.055
10289POPC   C4A60306  36.109  12.052   7.355
10289POPC   C1B60307  35.842  12.086   6.455
10289POPC   C2B60308  35.859  12.091   6.755
10289POPC   C3B60309  35.900  12.068   7.055
10289POPC   C4B60310  35.887  12.061   7.355
10290POPC   NC360311  28.332  34.561   5.555
10290POPC   PO460312  28.341  34.620   5.855
10290POPC   GL160313  28.355  34.598   6.155
10290POPC   GL260314  28.290  34.579   6.155
10290POPC   C1A60315  28.418  34.585   6.455
10290POPC   D2A60316  28.364  34.556   6.755
10290POPC   C3A60317  28.324  34.531   7.055
10290POPC   C4A60318  28.327  34.581   7.355
10290POPC   C1B60319  28.124  34.498   6.455
10290POPC   C2B60320  28.090  34.514   6.755
10290POPC   C3B60321  28.178  34.481   7.055
10290POPC   C4B60322  28.165  34.553   7.355
10291POPC   NC360323  15.952   1.201   5.555
10291POPC   PO460324  15.921   1.229   5.855
10291POPC   GL160325  15.957   1.222   6.155
10291POPC   GL260326  16.009   1.112   6.155
10291POPC   C1A60327  15.957   1.211   6.455
10291POPC   D2A60328  15.958   1.208   6.755
10291POPC   C3A60329  15.971   1.253   7.055
10291POPC   C4A60330  15.998   1.239   7.355
10291POPC   C1B60331  16.049   0.963   6.455
10291POPC   C2B60332  16.100   0.990   6.755
10291POPC   C3B60333  16.120   0.990   7.055
10291POPC   C4B60334  16.047   1.003   7.355
10292POPC   NC360335  44.668  31.438   5.555
10292POPC   PO460336  44.639  31.466   5.855
10292POPC   GL160337  44.622  31.485   6.155
10292POPC   GL260338  44.594  31.568   6.155
10292POPC   C1A60339  44.687  31.494   6.455
10292POPC   D2A60340  44.620  31.511   6.755
10292POPC   C3A60341  44.638  31.502   7.055
10292POPC   C4A60342  44.655  31.514   7.355
10292POPC   C1B60343  44.629  31.728   6.455
10292POPC   C2B60344  44.638  31.692   6.755
10292POPC   C3B60345  44.628  31.709   7.055
10292POPC   C4B60346  44.616  31.755   7.355
10293POPC   NC360347  42.345  33.845   5.555
10293POPC   PO460348  42.292  33.797   5.855
10293POPC   GL160349  42.352  33.844   6.155
10293POPC   GL260350  42.482  33.816   6.155
10293POPC   C1A60351  42.311  33.838   6.455
10293POPC   D2A60352  42.376  33.814   6.755
10293POPC   C3A60353  42.319  33.780   7.055
10293POPC   C4A60354  42.366  33.849   7.355
10293POPC   C1B60355  42.583  33.726   6.455
10293POPC   C2B60356  42.575  33.716   6.755
10293POPC   C3B60357  42.596  33.736   7.055
10293POPC   C4B60358  42.572  33.722   7.355
10294POPC   NC360359  38.450  22.969   5.555
10294POPC   PO460360  38.465  22.929   5.855
10294POPC   GL160361  38.493  22.909   6.155
10294POPC   GL260362  38.438  23.092   6.155
10294POPC   C1A60363  38.502  22.944   6.455
10294POPC   D2A60364  38.493  22.981   6.755
10294POPC   C3A60365  38.465  22.968   7.055
10294POPC   C4A60366  38.477  22.965   7.355
10294POPC   C1B60367  38.385  23.182   6.455
10294POPC   C2B60368  38.319  23.172   6.755
10294POPC   C3B60369  38.346  23.121   7.055
10294POPC   C4B60370  38.340  23.175   7.355
10295POPC   NC360371   1.958  19.803   5.555
10295POPC   PO460372   1.994  19.864   5.855
10295POPC   GL160373   1.989  19.796   6.155
10295POPC   GL260374   1.910  19.725   6.155
10295POPC   C1A60375   1.957  19.868   6.455
10295POPC   D2A60376   2.026  19.796   6.755
10295POPC   C3A60377   1.984  19.872   7.055
10295POPC   C4A60378   2.037  19.884   7.355
10295POPC   C1B60379   1.850  19.632   6.455
10295POPC   C2B60380   1.931  19.564   6.755
10295POPC   C3B60381   1.919  19.628   7.055
10295POPC   C4B60382   1.872  19.628   7.355
10296POPC   NC360383  34.556  15.905   5.555
10296POPC   PO460384  34.559  15.932   5.855
10296POPC   GL160385  34.578  16.001   6.155
10296POPC   GL260386  34.451  15.932   6.155
10296POPC   C1A60387  34.613  15.966   6.455
10296POPC   D2A60388  34.549  15.958   6.755
10296POPC   C3A60389  34.594  15.942   7.055
10296POPC   C4A60390  34.615  15.962   7.355
10296POPC   C1B60391  34.361  15.773   6.455
10296POPC   C2B60392  34.330  15.801   6.755
10296POPC   C3B60393  34.380  15.783   7.055
10296POPC   C4B60394  34.347  15.835   7.355
10297POPC   NC360395  37.640  38.418   5.555
10297POPC   PO460396  37.706  38.505   5.855
10297POPC   GL160397  37.698  38.448   6.155
10297POPC   GL260398  37.635  38.525   6.155
10297POPC   C1A60399  37.655  38.487   6.455
10297POPC   D2A60400  37.665  38.442   6.755
10297POPC   C3A60401  37.697  38.429   7.055
10297POPC   C4A60402  37.660  38.490   7.355
10297POPC   C1B60403  37.529  38.626   6.455
10297POPC   C2B60404  37.458  38.617   6.755
10297POPC   C3B60405  37.523  38.596   7.055
10297POPC   C4B60406  37.510  38.624   7.355
10298POPC   NC360407   9.722  37.651   5.555
10298POPC   PO460408   9.746  37.715   5.855
10298POPC   GL160409   9.713  37.697   6.155
10298POPC   GL260410   9.894  37.558   6.155
10298POPC   C1A60411   9.715  37.668   6.455
10298POPC   D2A60412   9.797  37.641   6.755
10298POPC   C3A60413   9.722  37.723   7.055
10298POPC   C4A60414   9.761  37.708   7.355
10298POPC   C1B60415   9.921  37.547   6.455
10298POPC   C2B60416   9.995  37.547   6.755
10298POPC   C3B60417   9.924  37.561   7.055
10298POPC   C4B60418   9.908  37.539   7.355
10299POPC   NC360419  28.348   7.443   5.555
10299POPC   PO460420  28.334   7.379   5.855
10299POPC   GL160421  28.409   7.414   6.155
10299POPC   GL260422  28.368   7.285   6.155
10299POPC   C1A60423  28.373   7.416   6.455
10299POPC   D2A60424  28.329   7.378   6.755
10299POPC   C3A60425  28.375   7.445   7.055
10299POPC   C4A60426  28.410   7.435   7.355
10299POPC   C1B60427  28.385   7.130   6.455
10299POPC   C2B60428  28.437   7.138   6.755
10299POPC   C3B60429  28.438   7.205   7.055
10299POPC   C4B60430  28.385   7.185   7.355
10300POPC   NC360431   1.989  31.458   5.555
10300POPC   PO460432   1.948  31.468   5.855
10300POPC   GL160433   1.971  31.488   6.155
10300POPC   GL260434   2.107  31.530   6.155
10300POPC   C1A60435   2.014  31.517   6.455
10300POPC   D2A60436   1.969  31.440   6.755
10300POPC   C3A60437   1.969  31.470   7.055
10300POPC   C4A60438   1.949  31.493   7.355
10300POPC   C1B60439   2.082  31.634   6.455
10300POPC   C2B60440   2.156  31.659   6.755
10300POPC   C3B60441   2.163  31.634   7.055
10300POPC   C4B60442   2.093  31.666   7.355
10301POPC   NC360443   6.637  12.084   5.555
10301POPC   PO460444   6.680  12.037   5.855
10301POPC   GL160445   6.688  12.102   6.155
10301POPC   GL260446   6.656  11.947   6.155
10301POPC   C1A60447   6.616  12.046   6.455
10301POPC   D2A60448   6.617  12.054   6.755
10301POPC   C3A60449   6.687  12.031   7.055
10301POPC   C4A60450   6.672  12.029   7.355
10301POPC   C1B60451   6.739  11.800   6.455
10301POPC   C2B60452   6.767  11.878   6.755
10301POPC   C3B60453   6.721  11.886   7.055
10301POPC   C4B60454   6.709  11.899   7.355
10302POPC   NC360455  25.245  29.918   5.555
10302POPC   PO460456  25.277  29.931   5.855
10302POPC   GL160457  25.254  29.909   6.155
10302POPC   GL260458  25.314  29.990   6.155
10302POPC   C1A60459  25.240  29.895   6.455
10302POPC   D2A60460  25.239  29.964   6.755
10302POPC   C3A60461  25.302  29.960   7.055
10302POPC   C4A60462  25.298  29.877   7.355
10302POPC   C1B60463  25.466  30.103   6.455
10302POPC   C2B60464  25.466  30.056   6.755
10302POPC   C3B60465  25.435  30.046   7.055
10302POPC   C4B60466  25.439  30.134   7.355
10303POPC   NC360467  19.788   1.973   5.555
10303POPC   PO460468  19.826   1.959   5.855
10303POPC   GL160469  19.850   2.035   6.155
10303POPC   GL260470  19.931   2.054   6.155
10303POPC   C1A60471  19.880   1.974   6.455
10303POPC   D2A60472  19.862   2.002   6.755
10303POPC   C3A60473  19.839   1.949   7.055
10303POPC   C4A60474  19.818   1.943   7.355
10303POPC   C1B60475  20.020   2.128   6.455
10303POPC   C2B60476  20.079   2.153   6.755
10303POPC   C3B60477  20.077   2.151   7.055
10303POPC   C4B60478  20.072   2.114   7.355
10304POPC   NC360479   1.186   1.220   5.555
10304POPC   PO460480   1.216   1.253   5.855
10304POPC   GL160481   1.186   1.205   6.155
10304POPC   GL260482   1.156   1.138   6.155
10304POPC   C1A60483   1.179   1.186   6.455
10304POPC   D2A60484   1.212   1.166   6.755
10304POPC   C3A60485   1.218   1.229   7.055
10304POPC   C4A60486   1.166   1.260   7.355
10304POPC   C1B60487   1.223   0.979   6.455
10304POPC   C2B60488   1.181   0.985   6.755
10304POPC   C3B60489   1.239   0.923   7.055
10304POPC   C4B60490   1.175   0.981   7.355
10305POPC   NC360491  36.951  20.624   5.555
10305POPC   PO460492  36.856  20.611   5.855
10305POPC   GL160493  36.947  20.642   6.155
10305POPC   GL260494  36.916  20.519   6.155
10305POPC   C1A60495  36.894  20.637   6.455
10305POPC   D2A60496  36.906  20.598   6.755
10305POPC   C3A60497  36.859  20.592   7.055
10305POPC   C4A60498  36.900  20.565   7.355
10305POPC   C1B60499  36.984  20.396   6.455
10305POPC   C2B60500  37.050  20.381   6.755
10305POPC   C3B60501  37.056  20.417   7.055
10305POPC   C4B60502  37.050  20.400   7.355
10306POPC   NC360503  42.324   5.890   5.555
10306POPC   PO460504  42.293   5.867   5.855
10306POPC   GL160505  42.370   5.847   6.155
10306POPC   GL260506  42.262   6.025   6.155
10306POPC   C1A60507  42.330   5.867   6.455
10306POPC   D2A60508  42.287   5.852   6.755
10306POPC   C3A60509  42.316   5.893   7.055
10306POPC   C4A60510  42.350   5.864   7.355
10306POPC   C1B60511  42.280   6.088   6.455
10306POPC   C2B60512  42.203   6.074   6.755
10306POPC   C3B60513  42.271   6.089   7.055
10306POPC   C4B60514  42.287   6.066   7.355
10307POPC   NC360515  15.943  31.486   5.555
10307POPC   PO460516  15.948  31.512   5.855
10307POPC   GL160517  15.932  31.490   6.155
10307POPC   GL260518  15.876  31.454   6.155
10307POPC   C1A60519  15.997  31.428   6.455
10307POPC   D2A60520  15.947  31.444   6.755
10307POPC   C3A60521  15.949  31.516   7.055
10307POPC   C4A60522  15.926  31.460   7.355
10307POPC   C1B60523  15.676  31.487   6.455
10307POPC   C2B60524  15.708  31.464   6.755
10307POPC   C3B60525  15.680  31.500   7.055
10307POPC   C4B60526  15.754  31.541   7.355
10308POPC   NC360527  11.265  40.016   5.555
10308POPC   PO460528  11.313  39.987   5.855
10308POPC   GL160529  11.254  40.050   6.155
10308POPC   GL260530  11.216  39.999   6.155
10308POPC   C1A60531  11.320  40.032   6.455
10308POPC   D2A60532  11.309  40.052   6.755
10308POPC   C3A60533  11.318  40.018   7.055
10308POPC   C4A60534  11.274  40.045   7.355
10308POPC   C1B60535  11.057  40.098   6.455
10308POPC   C2B60536  11.077  40.014   6.755
10308POPC   C3B60537  11.082  40.059   7.055
10308POPC   C4B60538  11.007  40.012   7.355
10309POPC   NC360539  41.545   5.897   5.555
10309POPC   PO460540  41.519   5.830   5.855
10309POPC   GL160541  41.561   5.899   6.155
10309POPC   GL260542  41.482   5.990   6.155
10309POPC   C1A60543  41.551   5.919   6.455
10309POPC   D2A60544  41.558   5.863   6.755
10309POPC   C3A60545  41.527   5.830   7.055
10309POPC   C4A60546  41.607   5.891   7.355
10309POPC   C1B60547  41.370   6.081   6.455
10309POPC   C2B60548  41.363   6.100   6.755
10309POPC   C3B60549  41.373   6.076   7.055
10309POPC   C4B60550  41.361   6.065   7.355
10310POPC   NC360551  15.912  39.240   5.555
10310POPC   PO460552  16.004  39.213   5.855
10310POPC   GL160553  15.909  39.227   6.155
10310POPC   GL260554  15.955  39.343   6.155
10310POPC   C1A60555  15.929  39.186   6.455
10310POPC   D2A60556  15.993  39.244   6.755
10310POPC   C3A60557  15.959  39.273   7.055
10310POPC   C4A60558  15.938  39.199   7.355
10310POPC   C1B60559  15.945  39.511   6.455
10310POPC   C2B60560  15.933  39.459   6.755
10310POPC   C3B60561  15.855  39.508   7.055
10310POPC   C4B60562  15.891  39.509   7.355
10311POPC   NC360563   5.880  30.706   5.555
10311POPC   PO460564   5.824  30.734   5.855
10311POPC   GL160565   5.899  30.716   6.155
10311POPC   GL260566   5.827  30.803   6.155
10311POPC   C1A60567   5.889  30.666   6.455
10311POPC   D2A60568   5.858  30.661   6.755
10311POPC   C3A60569   5.827  30.668   7.055
10311POPC   C4A60570   5.866  30.720   7.355
10311POPC   C1B60571   5.896  30.906   6.455
10311POPC   C2B60572   5.900  30.924   6.755
10311POPC   C3B60573   5.860  30.935   7.055
10311POPC   C4B60574   5.868  30.976   7.355
10312POPC   NC360575  29.142   4.331   5.555
10312POPC   PO460576  29.156   4.321   5.855
10312POPC   GL160577  29.178   4.303   6.155
10312POPC   GL260578  29.276   4.354   6.155
10312POPC   C1A60579  29.135   4.290   6.455
10312POPC   D2A60580  29.188   4.294   6.755
10312POPC   C3A60581  29.134   4.322   7.055
10312POPC   C4A60582  29.193   4.334   7.355
10312POPC   C1B60583  29.330   4.490   6.455
10312POPC   C2B60584  29.388   4.479   6.755
10312POPC   C3B60585  29.392   4.425   7.055
10312POPC   C4B60586  29.373   4.478   7.355
10313POPC   NC360587   5.851  33.835   5.555
10313POPC   PO460588   5.861  33.762   5.855
10313POPC   GL160589   5.836  33.848   6.155
10313POPC   GL260590   5.787  33.879   6.155
10313POPC   C1A60591   5.872  33.757   6.455
10313POPC   D2A60592   5.828  33.807   6.755
10313POPC   C3A60593   5.847  33.805   7.055
10313POPC   C4A60594   5.830  33.776   7.355
10313POPC   C1B60595   5.738  34.062   6.455
10313POPC   C2B60596   5.721  34.007   6.755
10313POPC   C3B60597   5.721  34.067   7.055
10313POPC   C4B60598   5.715  34.021   7.355
10314POPC   NC360599  25.311  39.199   5.555
10314POPC   PO460600  25.243  39.214   5.855
10314POPC   GL160601  25.308  39.247   6.155
10314POPC   GL260602  25.338  39.296   6.155
10314POPC   C1A60603  25.276  39.240   6.455
10314POPC   D2A60604  25.229  39.226   6.755
10314POPC   C3A60605  25.273  39.182   7.055
10314POPC   C4A60606  25.292  39.261   7.355
10314POPC   C1B60607  25.503  39.333   6.455
10314POPC   C2B60608  25.477  39.382   6.755
10314POPC   C3B60609  25.497  39.398   7.055
10314POPC   C4B60610  25.456  39.373   7.355
10315POPC   NC360611  17.514  12.899   5.555
10315POPC   PO460612  17.518  12.829   5.855
10315POPC   GL160613  17.474  12.829   6.155
10315POPC   GL260614  17.387  12.803   6.155
10315POPC   C1A60615  17.519  12.863   6.455
10315POPC   D2A60616  17.461  12.845   6.755
10315POPC   C3A60617  17.539  12.849   7.055
10315POPC   C4A60618  17.554  12.883   7.355
10315POPC   C1B60619  17.224  12.829   6.455
10315POPC   C2B60620  17.231  12.781   6.755
10315POPC   C3B60621  17.285  12.801   7.055
10315POPC   C4B60622  17.274  12.824   7.355
10316POPC   NC360623  27.602   9.719   5.555
10316POPC   PO460624  27.595   9.700   5.855
10316POPC   GL160625  27.581   9.718   6.155
10316POPC   GL260626  27.577   9.913   6.155
10316POPC   C1A60627  27.582   9.751   6.455
10316POPC   D2A60628  27.552   9.732   6.755
10316POPC   C3A60629  27.604   9.773   7.055
10316POPC   C4A60630  27.609   9.772   7.355
10316POPC   C1B60631  27.595   9.985   6.455
10316POPC   C2B60632  27.646   9.954   6.755
10316POPC   C3B60633  27.645   9.988   7.055
10316POPC   C4B60634  27.583  10.017   7.355
10317POPC   NC360635  25.226  24.495   5.555
10317POPC   PO460636  25.311  24.508   5.855
10317POPC   GL160637  25.281  24.507   6.155
10317POPC   GL260638  25.322  24.545   6.155
10317POPC   C1A60639  25.300  24.534   6.455
10317POPC   D2A60640  25.265  24.523   6.755
10317POPC   C3A60641  25.273  24.479   7.055
10317POPC   C4A60642  25.265  24.472   7.355
10317POPC   C1B60643  25.461  24.631   6.455
10317POPC   C2B60644  25.503  24.636   6.755
10317POPC   C3B60645  25.454  24.607   7.055
10317POPC   C4B60646  25.411  24.692   7.355
10318POPC   NC360647  12.897  12.107   5.555
10318POPC   PO460648  12.888  12.104   5.855
10318POPC   GL160649  12.873  12.058   6.155
10318POPC   GL260650  12.793  12.189   6.155
10318POPC   C1A60651  12.822  12.086   6.455
10318POPC   D2A60652  12.810  12.052   6.755
10318POPC   C3A60653  12.871  12.042   7.055
10318POPC   C4A60654  12.812  12.043   7.355
10318POPC   C1B60655  12.768  12.324   6.455
10318POPC   C2B60656  12.786  12.349   6.755
10318POPC   C3B60657  12.782  12.333   7.055
10318POPC   C4B60658  12.788  12.313   7.355
10319POPC   NC360659  33.030  17.480   5.555
10319POPC   PO460660  33.009  17.511   5.855
10319POPC   GL160661  33.050  17.528   6.155
10319POPC   GL260662  33.078  17.618   6.155
10319POPC   C1A60663  33.034  17.529   6.455
10319POPC   D2A60664  33.009  17.459   6.755
10319POPC   C3A60665  33.002  17.501   7.055
10319POPC   C4A60666  32.975  17.555   7.355
10319POPC   C1B60667  33.202  17.760   6.455
10319POPC   C2B60668  33.206  17.724   6.755
10319POPC   C3B60669  33.132  17.750   7.055
10319POPC   C4B60670  33.215  17.697   7.355
10320POPC   NC360671  33.055   6.630   5.555
10320POPC   PO460672  33.066   6.616   5.855
10320POPC   GL160673  33.067   6.685   6.155
10320POPC   GL260674  33.131   6.589   6.155
10320POPC   C1A60675  32.976   6.624   6.455
10320POPC   D2A60676  33.032   6.686   6.755
10320POPC   C3A60677  33.073   6.623   7.055
10320POPC   C4A60678  33.006   6.622   7.355
10320POPC   C1B60679  33.260   6.621   6.455
10320POPC   C2B60680  33.254   6.623   6.755
10320POPC   C3B60681  33.283   6.553   7.055
10320POPC   C4B60682  33.233   6.594   7.355
10321POPC   NC360683  36.084  27.620   5.555
10321POPC   PO460684  36.127  27.571   5.855
10321POPC   GL160685  36.113  27.631   6.155
10321POPC   GL260686  36.181  27.650   6.155
10321POPC   C1A60687  36.080  27.590   6.455
10321POPC   D2A60688  36.138  27.636   6.755
10321POPC   C3A60689  36.152  27.640   7.055
10321POPC   C4A60690  36.168  27.551   7.355
10321POPC   C1B60691  36.320  27.723   6.455
10321POPC   C2B60692  36.375  27.723   6.755
10321POPC   C3B60693  36.362  27.715   7.055
10321POPC   C4B60694  36.371  27.724   7.355
10322POPC   NC360695   8.959  21.355   5.555
10322POPC   PO460696   8.925  21.381   5.855
10322POPC   GL160697   8.974  21.418   6.155
10322POPC   GL260698   9.105  21.367   6.155
10322POPC   C1A60699   9.000  21.387   6.455
10322POPC   D2A60700   8.953  21.356   6.755
10322POPC   C3A60701   8.978  21.338   7.055
10322POPC   C4A60702   8.997  21.410   7.355
10322POPC   C1B60703   9.184  21.318   6.455
10322POPC   C2B60704   9.180  21.301   6.755
10322POPC   C3B60705   9.222  21.289   7.055
10322POPC   C4B60706   9.250  21.347   7.355
10323POPC   NC360707  33.750  10.564   5.555
10323POPC   PO460708  33.839  10.508   5.855
10323POPC   GL160709  33.763  10.499   6.155
10323POPC   GL260710  33.689  10.621   6.155
10323POPC   C1A60711  33.773  10.483   6.455
10323POPC   D2A60712  33.751  10.530   6.755
10323POPC   C3A60713  33.760  10.548   7.055
10323POPC   C4A60714  33.771  10.562   7.355
10323POPC   C1B60715  33.605  10.693   6.455
10323POPC   C2B60716  33.627  10.685   6.755
10323POPC   C3B60717  33.546  10.624   7.055
10323POPC   C4B60718  33.564  10.640   7.355
10324POPC   NC360719  43.893  17.481   5.555
10324POPC   PO460720  43.898  17.536   5.855
10324POPC   GL160721  43.879  17.528   6.155
10324POPC   GL260722  43.985  17.571   6.155
10324POPC   C1A60723  43.847  17.503   6.455
10324POPC   D2A60724  43.883  17.471   6.755
10324POPC   C3A60725  43.923  17.464   7.055
10324POPC   C4A60726  43.865  17.484   7.355
10324POPC   C1B60727  44.079  17.706   6.455
10324POPC   C2B60728  44.052  17.736   6.755
10324POPC   C3B60729  44.010  17.728   7.055
10324POPC   C4B60730  44.063  17.661   7.355
10325POPC   NC360731  36.929  19.805   5.555
10325POPC   PO460732  36.855  19.855   5.855
10325POPC   GL160733  36.916  19.882   6.155
10325POPC   GL260734  36.768  19.816   6.155
10325POPC   C1A60735  36.905  19.829   6.455
10325POPC   D2A60736  36.920  19.860   6.755
10325POPC   C3A60737  36.913  19.795   7.055
10325POPC   C4A60738  36.928  19.863   7.355
10325POPC   C1B60739  36.694  19.929   6.455
10325POPC   C2B60740  36.665  19.849   6.755
10325POPC   C3B60741  36.667  19.921   7.055
10325POPC   C4B60742  36.707  19.916   7.355
10326POPC   NC360743  33.777   8.957   5.555
10326POPC   PO460744  33.752   8.950   5.855
10326POPC   GL160745  33.811   8.935   6.155
10326POPC   GL260746  33.936   8.942   6.155
10326POPC   C1A60747  33.827   9.007   6.455
10326POPC   D2A60748  33.767   9.022   6.755
10326POPC   C3A60749  33.848   8.986   7.055
10326POPC   C4A60750  33.823   8.978   7.355
10326POPC   C1B60751  34.067   8.914   6.455
10326POPC   C2B60752  34.048   8.872   6.755
10326POPC   C3B60753  34.039   8.861   7.055
10326POPC   C4B60754  34.064   8.870   7.355
10327POPC   NC360755  24.525  27.548   5.555
10327POPC   PO460756  24.510  27.584   5.855
10327POPC   GL160757  24.532  27.575   6.155
10327POPC   GL260758  24.626  27.710   6.155
10327POPC   C1A60759  24.447  27.566   6.455
10327POPC   D2A60760  24.450  27.582   6.755
10327POPC   C3A60761  24.510  27.624   7.055
10327POPC   C4A60762  24.464  27.620   7.355
10327POPC   C1B60763  24.691  27.763   6.455
10327POPC   C2B60764  24.712  27.751   6.755
10327POPC   C3B60765  24.748  27.744   7.055
10327POPC   C4B60766  24.665  27.725   7.355
10328POPC   NC360767   6.669   8.173   5.555
10328POPC   PO460768   6.613   8.168   5.855
10328POPC   GL160769   6.629   8.185   6.155
10328POPC   GL260770   6.614   8.057   6.155
10328POPC   C1A60771   6.689   8.209   6.455
10328POPC   D2A60772   6.649   8.228   6.755
10328POPC   C3A60773   6.623   8.209   7.055
10328POPC   C4A60774   6.641   8.217   7.355
10328POPC   C1B60775   6.559   7.935   6.455
10328POPC   C2B60776   6.608   7.979   6.755
10328POPC   C3B60777   6.607   7.940   7.055
10328POPC   C4B60778   6.527   7.977   7.355
10329POPC   NC360779  38.425  42.325   5.555
10329POPC   PO460780  38.481  42.352   5.855
10329POPC   GL160781  38.411  42.312   6.155
10329POPC   GL260782  38.466  42.204   6.155
10329POPC   C1A60783  38.502  42.365   6.455
10329POPC   D2A60784  38.496  42.287   6.755
10329POPC   C3A60785  38.500  42.371   7.055
10329POPC   C4A60786  38.489  42.317   7.355
10329POPC   C1B60787  38.466  42.077   6.455
10329POPC   C2B60788  38.485  42.052   6.755
10329POPC   C3B60789  38.521  42.065   7.055
10329POPC   C4B60790  38.473  42.078   7.355
10330POPC   NC360791  32.210  14.399   5.555
10330POPC   PO460792  32.256  14.443   5.855
10330POPC   GL160793  32.221  14.362   6.155
10330POPC   GL260794  32.277  14.309   6.155
10330POPC   C1A60795  32.238  14.408   6.455
10330POPC   D2A60796  32.218  14.446   6.755
10330POPC   C3A60797  32.199  14.373   7.055
10330POPC   C4A60798  32.279  14.418   7.355
10330POPC   C1B60799  32.234  14.172   6.455
10330POPC   C2B60800  32.286  14.144   6.755
10330POPC   C3B60801  32.267  14.199   7.055
10330POPC   C4B60802  32.211  14.165   7.355
10331POPC   NC360803  22.201  28.340   5.555
10331POPC   PO460804  22.139  28.379   5.855
10331POPC   GL160805  22.167  28.320   6.155
10331POPC   GL260806  22.173  28.271   6.155
10331POPC   C1A60807  22.119  28.376   6.455
10331POPC   D2A60808  22.184  28.361   6.755
10331POPC   C3A60809  22.159  28.346   7.055
10331POPC   C4A60810  22.157  28.390   7.355
10331POPC   C1B60811  22.295  28.119   6.455
10331POPC   C2B60812  22.235  28.169   6.755
10331POPC   C3B60813  22.273  28.135   7.055
10331POPC   C4B60814  22.293  28.124   7.355
10332POPC   NC360815  23.710  32.234   5.555
10332POPC   PO460816  23.690  32.222   5.855
10332POPC   GL160817  23.709  32.220   6.155
10332POPC   GL260818  23.701  32.144   6.155
10332POPC   C1A60819  23.716  32.279   6.455
10332POPC   D2A60820  23.757  32.210   6.755
10332POPC   C3A60821  23.692  32.255   7.055
10332POPC   C4A60822  23.750  32.265   7.355
10332POPC   C1B60823  23.637  31.973   6.455
10332POPC   C2B60824  23.693  32.042   6.755
10332POPC   C3B60825  23.687  31.999   7.055
10332POPC   C4B60826  23.708  31.954   7.355
10333POPC   NC360827  36.882  17.497   5.555
10333POPC   PO460828  36.932  17.457   5.855
10333POPC   GL160829  36.925  17.488   6.155
10333POPC   GL260830  36.824  17.460   6.155
10333POPC   C1A60831  36.877  17.532   6.455
10333POPC   D2A60832  36.924  17.485   6.755
10333POPC   C3A60833  36.929  17.464   7.055
10333POPC   C4A60834  36.943  17.543   7.355
10333POPC   C1B60835  36.699  17.342   6.455
10333POPC   C2B60836  36.707  17.381   6.755
10333POPC   C3B60837  36.713  17.343   7.055
10333POPC   C4B60838  36.710  17.342   7.355
10334POPC   NC360839  40.016  22.158   5.555
10334POPC   PO460840  40.033  22.114   5.855
10334POPC   GL160841  39.957  22.123   6.155
10334POPC   GL260842  39.983  22.224   6.155
10334POPC   C1A60843  40.020  22.198   6.455
10334POPC   D2A60844  40.006  22.131   6.755
10334POPC   C3A60845  39.997  22.114   7.055
10334POPC   C4A60846  39.983  22.174   7.355
10334POPC   C1B60847  39.885  22.346   6.455
10334POPC   C2B60848  39.885  22.410   6.755
10334POPC   C3B60849  39.846  22.395   7.055
10334POPC   C4B60850  39.855  22.370   7.355
10335POPC   NC360851   2.717   3.561   5.555
10335POPC   PO460852   2.726   3.559   5.855
10335POPC   GL160853   2.747   3.509   6.155
10335POPC   GL260854   2.715   3.421   6.155
10335POPC   C1A60855   2.740   3.527   6.455
10335POPC   D2A60856   2.717   3.561   6.755
10335POPC   C3A60857   2.745   3.584   7.055
10335POPC   C4A60858   2.798   3.523   7.355
10335POPC   C1B60859   2.569   3.383   6.455
10335POPC   C2B60860   2.546   3.396   6.755
10335POPC   C3B60861   2.618   3.316   7.055
10335POPC   C4B60862   2.626   3.332   7.355
10336POPC   NC360863   4.362  43.898   5.555
10336POPC   PO460864   4.354  43.898   5.855
10336POPC   GL160865   4.310  43.874   6.155
10336POPC   GL260866   4.427  43.806   6.155
10336POPC   C1A60867   4.319  43.910   6.455
10336POPC   D2A60868   4.306  43.885   6.755
10336POPC   C3A60869   4.348  43.846   7.055
10336POPC   C4A60870   4.275  43.837   7.355
10336POPC   C1B60871   4.532  43.794   6.455
10336POPC   C2B60872   4.565  43.801   6.755
10336POPC   C3B60873   4.532  43.784   7.055
10336POPC   C4B60874   4.585  43.831   7.355
10337POPC   NC360875   3.521  18.308   5.555
10337POPC   PO460876   3.511  18.260   5.855
10337POPC   GL160877   3.585  18.243   6.155
10337POPC   GL260878   3.525  18.147   6.155
10337POPC   C1A60879   3.512  18.286   6.455
10337POPC   D2A60880   3.524  18.261   6.755
10337POPC   C3A60881   3.583  18.266   7.055
10337POPC   C4A60882   3.550  18.240   7.355
10337POPC   C1B60883   3.552  18.066   6.455
10337POPC   C2B60884   3.562  17.986   6.755
10337POPC   C3B60885   3.547  18.042   7.055
10337POPC   C4B60886   3.538  18.049   7.355
10338POPC   NC360887  28.375  21.349   5.555
10338POPC   PO460888  28.405  21.387   5.855
10338POPC   GL160889  28.330  21.344   6.155
10338POPC   GL260890  28.303  21.276   6.155
10338POPC   C1A60891  28.384  21.390   6.455
10338POPC   D2A60892  28.369  21.401   6.755
10338POPC   C3A60893  28.339  21.420   7.055
10338POPC   C4A60894  28.376  21.380   7.355
10338POPC   C1B60895  28.246  21.173   6.455
10338POPC   C2B60896  28.304  21.169   6.755
10338POPC   C3B60897  28.322  21.192   7.055
10338POPC   C4B60898  28.335  21.144   7.355
10339POPC   NC360899  35.367  37.723   5.555
10339POPC   PO460900  35.398  37.702   5.855
10339POPC   GL160901  35.371  37.705   6.155
10339POPC   GL260902  35.258  37.620   6.155
10339POPC   C1A60903  35.338  37.690   6.455
10339POPC   D2A60904  35.357  37.647   6.755
10339POPC   C3A60905  35.389  37.715   7.055
10339POPC   C4A60906  35.338  37.680   7.355
10339POPC   C1B60907  35.181  37.482   6.455
10339POPC   C2B60908  35.206  37.466   6.755
10339POPC   C3B60909  35.184  37.431   7.055
10339POPC   C4B60910  35.208  37.482   7.355
10340POPC   NC360911  18.277   1.208   5.555
10340POPC   PO460912  18.308   1.254   5.855
10340POPC   GL160913  18.259   1.255   6.155
10340POPC   GL260914  18.414   1.241   6.155
10340POPC   C1A60915  18.280   1.222   6.455
10340POPC   D2A60916  18.278   1.259   6.755
10340POPC   C3A60917  18.235   1.188   7.055
10340POPC   C4A60918  18.328   1.220   7.355
10340POPC   C1B60919  18.541   1.227   6.455
10340POPC   C2B60920  18.548   1.132   6.755
10340POPC   C3B60921  18.492   1.148   7.055
10340POPC   C4B60922  18.567   1.211   7.355
10341POPC   NC360923  32.208  15.172   5.555
10341POPC   PO460924  32.226  15.182   5.855
10341POPC   GL160925  32.236  15.173   6.155
10341POPC   GL260926  32.396  15.214   6.155
10341POPC   C1A60927  32.199  15.160   6.455
10341POPC   D2A60928  32.285  15.195   6.755
10341POPC   C3A60929  32.238  15.162   7.055
10341POPC   C4A60930  32.268  15.180   7.355
10341POPC   C1B60931  32.530  15.231   6.455
10341POPC   C2B60932  32.519  15.285   6.755
10341POPC   C3B60933  32.485  15.238   7.055
10341POPC   C4B60934  32.481  15.268   7.355
10342POPC   NC360935   0.460   5.047   5.555
10342POPC   PO460936   0.456   5.067   5.855
10342POPC   GL160937   0.462   5.116   6.155
10342POPC   GL260938   0.312   5.145   6.155
10342POPC   C1A60939   0.407   5.061   6.455
10342POPC   D2A60940   0.432   5.126   6.755
10342POPC   C3A60941   0.450   5.075   7.055
10342POPC   C4A60942   0.418   5.072   7.355
10342POPC   C1B60943   0.235   5.205   6.455
10342POPC   C2B60944   0.231   5.164   6.755
10342POPC   C3B60945   0.185   5.132   7.055
10342POPC   C4B60946   0.248   5.190   7.355
10343POPC   NC360947   5.098  14.357   5.555
10343POPC   PO460948   5.137  14.397   5.855
10343POPC   GL160949   5.062  14.378   6.155
10343POPC   GL260950   4.924  14.431   6.155
10343POPC   C1A60951   5.102  14.365   6.455
10343POPC   D2A60952   5.119  14.395   6.755
10343POPC   C3A60953   5.074  14.416   7.055
10343POPC   C4A60954   5.106  14.377   7.355
10343POPC   C1B60955   4.876  14.412   6.455
10343POPC   C2B60956   4.878  14.488   6.755
10343POPC   C3B60957   4.818  14.432   7.055
10343POPC   C4B60958   4.852  14.477   7.355
10344POPC   NC360959  26.041  10.554   5.555
10344POPC   PO460960  26.006  10.517   5.855
10344POPC   GL160961  26.014  10.542   6.155
10344POPC   GL260962  26.140  10.567   6.155
10344POPC   C1A60963  26.036  10.560   6.455
10344POPC   D2A60964  26.077  10.563   6.755
10344POPC   C3A60965  25.996  10.489   7.055
10344POPC   C4A60966  25.999  10.515   7.355
10344POPC   C1B60967  26.215  10.634   6.455
10344POPC   C2B60968  26.275  10.670   6.755
10344POPC   C3B60969  26.235  10.697   7.055
10344POPC   C4B60970  26.270  10.665   7.355
10345POPC   NC360971   5.843  44.619   5.555
10345POPC   PO460972   5.904  44.703   5.855
10345POPC   GL160973   5.911  44.707   6.155
10345POPC   GL260974   5.774  44.581   6.155
10345POPC   C1A60975   5.878  44.684   6.455
10345POPC   D2A60976   5.896  44.680   6.755
10345POPC   C3A60977   5.907  44.697   7.055
10345POPC   C4A60978   5.862  44.638   7.355
10345POPC   C1B60979   5.740  44.399   6.455
10345POPC   C2B60980   5.743  44.424   6.755
10345POPC   C3B60981   5.771  44.482   7.055
10345POPC   C4B60982   5.768  44.469   7.355
10346POPC   NC360983  37.658  11.310   5.555
10346POPC   PO460984  37.650  11.257   5.855
10346POPC   GL160985  37.708  11.274   6.155
10346POPC   GL260986  37.761  11.336   6.155
10346POPC   C1A60987  37.703  11.335   6.455
10346POPC   D2A60988  37.671  11.316   6.755
10346POPC   C3A60989  37.629  11.288   7.055
10346POPC   C4A60990  37.640  11.278   7.355
10346POPC   C1B60991  37.948  11.331   6.455
10346POPC   C2B60992  37.975  11.278   6.755
10346POPC   C3B60993  37.929  11.337   7.055
10346POPC   C4B60994  37.889  11.273   7.355
10347POPC   NC360995  22.177  12.845   5.555
10347POPC   PO460996  22.138  12.881   5.855
10347POPC   GL160997  22.191  12.881   6.155
10347POPC   GL260998  22.186  12.794   6.155
10347POPC   C1A60999  22.122  12.817   6.455
10347POPC   D2A61000  22.160  12.841   6.755
10347POPC   C3A61001  22.153  12.879   7.055
10347POPC   C4A61002  22.162  12.872   7.355
10347POPC   C1B61003  22.270  12.668   6.455
10347POPC   C2B61004  22.268  12.611   6.755
10347POPC   C3B61005  22.273  12.690   7.055
10347POPC   C4B61006  22.292  12.658   7.355
10348POPC   NC361007  18.299  12.862   5.555
10348POPC   PO461008  18.295  12.872   5.855
10348POPC   GL161009  18.329  12.898   6.155
10348POPC   GL261010  18.271  12.735   6.155
10348POPC   C1A61011  18.275  12.899   6.455
10348POPC   D2A61012  18.285  12.835   6.755
10348POPC   C3A61013  18.294  12.863   7.055
10348POPC   C4A61014  18.235  12.856   7.355
10348POPC   C1B61015  18.286  12.567   6.455
10348POPC   C2B61016  18.284  12.607   6.755
10348POPC   C3B61017  18.338  12.586   7.055
10348POPC   C4B61018  18.288  12.646   7.355
10349POPC   NC361019  41.596  11.320   5.555
10349POPC   PO461020  41.543  11.273   5.855
10349POPC   GL161021  41.535  11.285   6.155
10349POPC   GL261022  41.484  11.149   6.155
10349POPC   C1A61023  41.525  11.286   6.455
10349POPC   D2A61024  41.542  11.346   6.755
10349POPC   C3A61025  41.514  11.281   7.055
10349POPC   C4A61026  41.559  11.302   7.355
10349POPC   C1B61027  41.433  11.057   6.455
10349POPC   C2B61028  41.530  11.050   6.755
10349POPC   C3B61029  41.493  11.065   7.055
10349POPC   C4B61030  41.526  11.014   7.355
10350POPC   NC361031  29.899  39.961   5.555
10350POPC   PO461032  29.929  40.056   5.855
10350POPC   GL161033  29.917  39.971   6.155
10350POPC   GL261034  29.750  39.974   6.155
10350POPC   C1A61035  29.926  39.985   6.455
10350POPC   D2A61036  29.886  39.997   6.755
10350POPC   C3A61037  29.946  40.004   7.055
10350POPC   C4A61038  29.874  39.967   7.355
10350POPC   C1B61039  29.650  39.997   6.455
10350POPC   C2B61040  29.684  39.999   6.755
10350POPC   C3B61041  29.676  40.029   7.055
10350POPC   C4B61042  29.711  39.983   7.355
10351POPC   NC361043  44.629  42.343   5.555
10351POPC   PO461044  44.622  42.296   5.855
10351POPC   GL161045  44.679  42.374   6.155
10351POPC   GL261046  44.725  42.282   6.155
10351POPC   C1A61047  44.671  42.327   6.455
10351POPC   D2A61048  44.631  42.324   6.755
10351POPC   C3A61049  44.669  42.370   7.055
10351POPC   C4A61050  44.655  42.347   7.355
10351POPC   C1B61051  44.843  42.165   6.455
10351POPC   C2B61052  44.826  42.168   6.755
10351POPC   C3B61053  44.804  42.141   7.055
10351POPC   C4B61054  44.791  42.129   7.355
10352POPC   NC361055  14.370  22.985   5.555
10352POPC   PO461056  14.439  22.987   5.855
10352POPC   GL161057  14.448  22.980   6.155
10352POPC   GL261058  14.272  22.899   6.155
10352POPC   C1A61059  14.401  22.968   6.455
10352POPC   D2A61060  14.396  22.950   6.755
10352POPC   C3A61061  14.410  22.969   7.055
10352POPC   C4A61062  14.428  22.953   7.355
10352POPC   C1B61063  14.200  22.866   6.455
10352POPC   C2B61064  14.174  22.869   6.755
10352POPC   C3B61065  14.191  22.788   7.055
10352POPC   C4B61066  14.163  22.809   7.355
10353POPC   NC361067  17.480  44.671   5.555
10353POPC   PO461068  17.511  44.674   5.855
10353POPC   GL161069  17.499  44.636   6.155
10353POPC   GL261070  17.525  44.529   6.155
10353POPC   C1A61071  17.536  44.650   6.455
10353POPC   D2A61072  17.458  44.673   6.755
10353POPC   C3A61073  17.485  44.634   7.055
10353POPC   C4A61074  17.464  44.650   7.355
10353POPC   C1B61075  17.639  44.412   6.455
10353POPC   C2B61076  17.601  44.417   6.755
10353POPC   C3B61077  17.609  44.407   7.055
10353POPC   C4B61078  17.586  44.392   7.355
10354POPC   NC361079  39.214   7.446   5.555
10354POPC   PO461080  39.198   7.418   5.855
10354POPC   GL161081  39.281   7.424   6.155
10354POPC   GL261082  39.232   7.303   6.155
10354POPC   C1A61083  39.216   7.434   6.455
10354POPC   D2A61084  39.250   7.381   6.755
10354POPC   C3A61085  39.231   7.372   7.055
10354POPC   C4A61086  39.237   7.400   7.355
10354POPC   C1B61087  39.219   7.161   6.455
10354POPC   C2B61088  39.233   7.157   6.755
10354POPC   C3B61089  39.208   7.209   7.055
10354POPC   C4B61090  39.222   7.121   7.355
10355POPC   NC361091  27.600   3.556   5.555
10355POPC   PO461092  27.570   3.550   5.855
10355POPC   GL161093  27.585   3.506   6.155
10355POPC   GL261094  27.765   3.523   6.155
10355POPC   C1A61095  27.642   3.561   6.455
10355POPC   D2A61096  27.627   3.537   6.755
10355POPC   C3A61097  27.551   3.554   7.055
10355POPC   C4A61098  27.640   3.582   7.355
10355POPC   C1B61099  27.800   3.606   6.455
10355POPC   C2B61100  27.890   3.611   6.755
10355POPC   C3B61101  27.800   3.621   7.055
10355POPC   C4B61102  27.877   3.607   7.355
10356POPC   NC361103  13.586  19.829   5.555
10356POPC   PO461104  13.659  19.809   5.855
10356POPC   GL161105  13.582  19.810   6.155
10356POPC   GL261106  13.488  19.948   6.155
10356POPC   C1A61107  13.643  19.873   6.455
10356POPC   D2A61108  13.646  19.795   6.755
10356POPC   C3A61109  13.615  19.866   7.055
10356POPC   C4A61110  13.639  19.814   7.355
10356POPC   C1B61111  13.484  20.029   6.455
10356POPC   C2B61112  13.472  20.030   6.755
10356POPC   C3B61113  13.460  20.009   7.055
10356POPC   C4B61114  13.448  19.964   7.355
10357POPC   NC361115  12.829  22.157   5.555
10357POPC   PO461116  12.886  22.146   5.855
10357POPC   GL161117  12.862  22.155   6.155
10357POPC   GL261118  12.895  22.060   6.155
10357POPC   C1A61119  12.849  22.181   6.455
10357POPC   D2A61120  12.876  22.205   6.755
10357POPC   C3A61121  12.824  22.162   7.055
10357POPC   C4A61122  12.808  22.127   7.355
10357POPC   C1B61123  12.864  21.958   6.455
10357POPC   C2B61124  12.861  21.886   6.755
10357POPC   C3B61125  12.878  21.937   7.055
10357POPC   C4B61126  12.896  21.890   7.355
10358POPC   NC361127  24.510   9.713   5.555
10358POPC   PO461128  24.451   9.742   5.855
10358POPC   GL161129  24.525   9.754   6.155
10358POPC   GL261130  24.607   9.756   6.155
10358POPC   C1A61131  24.526   9.749   6.455
10358POPC   D2A61132  24.528   9.711   6.755
10358POPC   C3A61133  24.526   9.758   7.055
10358POPC   C4A61134  24.516   9.757   7.355
10358POPC   C1B61135  24.746   9.671   6.455
10358POPC   C2B61136  24.709   9.749   6.755
10358POPC   C3B61137  24.713   9.719   7.055
10358POPC   C4B61138  24.695   9.706   7.355
10359POPC   NC361139  15.966  15.990   5.555
10359POPC   PO461140  15.938  15.924   5.855
10359POPC   GL161141  15.916  15.993   6.155
10359POPC   GL261142  16.018  16.090   6.155
10359POPC   C1A61143  15.909  15.997   6.455
10359POPC   D2A61144  15.939  15.936   6.755
10359POPC   C3A61145  15.957  15.951   7.055
10359POPC   C4A61146  15.926  15.975   7.355
10359POPC   C1B61147  16.047  16.204   6.455
10359POPC   C2B61148  16.037  16.163   6.755
10359POPC   C3B61149  16.078  16.166   7.055
10359POPC   C4B61150  16.078  16.177   7.355
10360POPC   NC361151  41.583   5.095   5.555
10360POPC   PO461152  41.552   5.067   5.855
10360POPC   GL161153  41.594   5.072   6.155
10360POPC   GL261154  41.603   5.232   6.155
10360POPC   C1A61155  41.522   5.089   6.455
10360POPC   D2A61156  41.546   5.060   6.755
10360POPC   C3A61157  41.548   5.068   7.055
10360POPC   C4A61158  41.570   5.067   7.355
10360POPC   C1B61159  41.568   5.380   6.455
10360POPC   C2B61160  41.554   5.376   6.755
10360POPC   C3B61161  41.565   5.321   7.055
10360POPC   C4B61162  41.597   5.332   7.355
10361POPC   NC361163  21.434   0.393   5.555
10361POPC   PO461164  21.421   0.412   5.855
10361POPC   GL161165  21.352   0.465   6.155
10361POPC   GL261166  21.493   0.462   6.155
10361POPC   C1A61167  21.432   0.403   6.455
10361POPC   D2A61168  21.351   0.401   6.755
10361POPC   C3A61169  21.436   0.395   7.055
10361POPC   C4A61170  21.435   0.399   7.355
10361POPC   C1B61171  21.604   0.524   6.455
10361POPC   C2B61172  21.615   0.505   6.755
10361POPC   C3B61173  21.651   0.512   7.055
10361POPC   C4B61174  21.677   0.525   7.355
10362POPC   NC361175  13.578  12.045   5.555
10362POPC   PO461176  13.625  12.055   5.855
10362POPC   GL161177  13.606  12.061   6.155
10362POPC   GL261178  13.795  12.065   6.155
10362POPC   C1A61179  13.659  12.114   6.455
10362POPC   D2A61180  13.641  12.110   6.755
10362POPC   C3A61181  13.675  12.126   7.055
10362POPC   C4A61182  13.660  12.098   7.355
10362POPC   C1B61183  13.889  12.135   6.455
10362POPC   C2B61184  13.914  12.102   6.755
10362POPC   C3B61185  13.850  12.134   7.055
10362POPC   C4B61186  13.852  12.106   7.355
10363POPC   NC361187  20.596   6.605   5.555
10363POPC   PO461188  20.631   6.678   5.855
10363POPC   GL161189  20.562   6.615   6.155
10363POPC   GL261190  20.628   6.789   6.155
10363POPC   C1A61191  20.610   6.632   6.455
10363POPC   D2A61192  20.615   6.635   6.755
10363POPC   C3A61193  20.584   6.693   7.055
10363POPC   C4A61194  20.593   6.627   7.355
10363POPC   C1B61195  20.606   6.878   6.455
10363POPC   C2B61196  20.521   6.863   6.755
10363POPC   C3B61197  20.547   6.892   7.055
10363POPC   C4B61198  20.596   6.914   7.355
10364POPC   NC361199   6.673  15.157   5.555
10364POPC   PO461200   6.656  15.185   5.855
10364POPC   GL161201   6.676  15.201   6.155
10364POPC   GL261202   6.677  15.085   6.155
10364POPC   C1A61203   6.615  15.208   6.455
10364POPC   D2A61204   6.672  15.224   6.755
10364POPC   C3A61205   6.668  15.203   7.055
10364POPC   C4A61206   6.690  15.176   7.355
10364POPC   C1B61207   6.772  14.985   6.455
10364POPC   C2B61208   6.750  14.939   6.755
10364POPC   C3B61209   6.800  14.963   7.055
10364POPC   C4B61210   6.737  14.999   7.355
10365POPC   NC361211  39.198  19.843   5.555
10365POPC   PO461212  39.181  19.788   5.855
10365POPC   GL161213  39.209  19.796   6.155
10365POPC   GL261214  39.204  19.752   6.155
10365POPC   C1A61215  39.258  19.850   6.455
10365POPC   D2A61216  39.256  19.858   6.755
10365POPC   C3A61217  39.245  19.853   7.055
10365POPC   C4A61218  39.232  19.812   7.355
10365POPC   C1B61219  39.044  19.621   6.455
10365POPC   C2B61220  39.141  19.595   6.755
10365POPC   C3B61221  39.075  19.656   7.055
10365POPC   C4B61222  39.066  19.620   7.355
10366POPC   NC361223  16.713  33.060   5.555
10366POPC   PO461224  16.714  33.043   5.855
10366POPC   GL161225  16.687  33.030   6.155
10366POPC   GL261226  16.747  33.096   6.155
10366POPC   C1A61227  16.745  33.003   6.455
10366POPC   D2A61228  16.769  33.032   6.755
10366POPC   C3A61229  16.738  32.984   7.055
10366POPC   C4A61230  16.743  33.057   7.355
10366POPC   C1B61231  16.787  33.307   6.455
10366POPC   C2B61232  16.858  33.297   6.755
10366POPC   C3B61233  16.853  33.217   7.055
10366POPC   C4B61234  16.794  33.229   7.355
10367POPC   NC361235  18.287  35.341   5.555
10367POPC   PO461236  18.315  35.363   5.855
10367POPC   GL161237  18.318  35.357   6.155
10367POPC   GL261238  18.384  35.310   6.155
10367POPC   C1A61239  18.311  35.377   6.455
10367POPC   D2A61240  18.319  35.373   6.755
10367POPC   C3A61241  18.325  35.329   7.055
10367POPC   C4A61242  18.264  35.345   7.355
10367POPC   C1B61243  18.526  35.238   6.455
10367POPC   C2B61244  18.504  35.191   6.755
10367POPC   C3B61245  18.500  35.188   7.055
10367POPC   C4B61246  18.461  35.237   7.355
10368POPC   NC361247  22.176  32.282   5.555
10368POPC   PO461248  22.201  32.224   5.855
10368POPC   GL161249  22.176  32.218   6.155
10368POPC   GL261250  22.216  32.076   6.155
10368POPC   C1A61251  22.172  32.234   6.455
10368POPC   D2A61252  22.180  32.201   6.755
10368POPC   C3A61253  22.204  32.246   7.055
10368POPC   C4A61254  22.155  32.257   7.355
10368POPC   C1B61255  22.244  32.027   6.455
10368POPC   C2B61256  22.182  32.008   6.755
10368POPC   C3B61257  22.238  31.953   7.055
10368POPC   C4B61258  22.179  32.005   7.355
10369POPC   NC361259  40.821  18.254   5.555
10369POPC   PO461260  40.736  18.329   5.855
10369POPC   GL161261  40.783  18.320   6.155
10369POPC   GL261262  40.665  18.205   6.155
10369POPC   C1A61263  40.763  18.283   6.455
10369POPC   D2A61264  40.769  18.315   6.755
10369POPC   C3A61265  40.807  18.259   7.055
10369POPC   C4A61266  40.808  18.320   7.355
10369POPC   C1B61267  40.565  18.239   6.455
10369POPC   C2B61268  40.550  18.194   6.755
10369POPC   C3B61269  40.571  18.238   7.055
10369POPC   C4B61270  40.581  18.170   7.355
10370POPC   NC361271  13.593  28.326   5.555
10370POPC   PO461272  13.671  28.347   5.855
10370POPC   GL161273  13.579  28.405   6.155
10370POPC   GL261274  13.630  28.236   6.155
10370POPC   C1A61275  13.578  28.344   6.455
10370POPC   D2A61276  13.585  28.368   6.755
10370POPC   C3A61277  13.583  28.323   7.055
10370POPC   C4A61278  13.639  28.415   7.355
10370POPC   C1B61279  13.558  28.080   6.455
10370POPC   C2B61280  13.536  28.126   6.755
10370POPC   C3B61281  13.606  28.138   7.055
10370POPC   C4B61282  13.531  28.131   7.355
10371POPC   NC361283   6.655   4.351   5.555
10371POPC   PO461284   6.656   4.269   5.855
10371POPC   GL161285   6.675   4.269   6.155
10371POPC   GL261286   6.578   4.208   6.155
10371POPC   C1A61287   6.672   4.271   6.455
10371POPC   D2A61288   6.622   4.299   6.755
10371POPC   C3A61289   6.618   4.271   7.055
10371POPC   C4A61290   6.691   4.287   7.355
10371POPC   C1B61291   6.490   4.166   6.455
10371POPC   C2B61292   6.475   4.162   6.755
10371POPC   C3B61293   6.422   4.129   7.055
10371POPC   C4B61294   6.494   4.124   7.355
10372POPC   NC361295  19.856  12.074   5.555
10372POPC   PO461296  19.860  12.072   5.855
10372POPC   GL161297  19.828  12.080   6.155
10372POPC   GL261298  19.747  12.016   6.155
10372POPC   C1A61299  19.871  12.063   6.455
10372POPC   D2A61300  19.831  12.030   6.755
10372POPC   C3A61301  19.828  12.096   7.055
10372POPC   C4A61302  19.839  12.037   7.355
10372POPC   C1B61303  19.726  11.888   6.455
10372POPC   C2B61304  19.678  11.879   6.755
10372POPC   C3B61305  19.725  11.888   7.055
10372POPC   C4B61306  19.645  11.855   7.355
10373POPC   NC361307  31.485   3.573   5.555
10373POPC   PO461308  31.513   3.526   5.855
10373POPC   GL161309  31.457   3.590   6.155
10373POPC   GL261310  31.645   3.526   6.155
10373POPC   C1A61311  31.449   3.582   6.455
10373POPC   D2A61312  31.424   3.545   6.755
10373POPC   C3A61313  31.458   3.588   7.055
10373POPC   C4A61314  31.446   3.518   7.355
10373POPC   C1B61315  31.693   3.509   6.455
10373POPC   C2B61316  31.730   3.525   6.755
10373POPC   C3B61317  31.672   3.546   7.055
10373POPC   C4B61318  31.729   3.489   7.355
10374POPC   NC361319  37.709  24.511   5.555
10374POPC   PO461320  37.726  24.534   5.855
10374POPC   GL161321  37.701  24.505   6.155
10374POPC   GL261322  37.622  24.396   6.155
10374POPC   C1A61323  37.657  24.517   6.455
10374POPC   D2A61324  37.678  24.441   6.755
10374POPC   C3A61325  37.703  24.538   7.055
10374POPC   C4A61326  37.670  24.461   7.355
10374POPC   C1B61327  37.626  24.229   6.455
10374POPC   C2B61328  37.562  24.255   6.755
10374POPC   C3B61329  37.548  24.294   7.055
10374POPC   C4B61330  37.547  24.309   7.355
10375POPC   NC361331  13.624  35.323   5.555
10375POPC   PO461332  13.668  35.357   5.855
10375POPC   GL161333  13.647  35.357   6.155
10375POPC   GL261334  13.558  35.220   6.155
10375POPC   C1A61335  13.588  35.338   6.455
10375POPC   D2A61336  13.650  35.314   6.755
10375POPC   C3A61337  13.642  35.365   7.055
10375POPC   C4A61338  13.583  35.317   7.355
10375POPC   C1B61339  13.485  35.128   6.455
10375POPC   C2B61340  13.554  35.118   6.755
10375POPC   C3B61341  13.479  35.116   7.055
10375POPC   C4B61342  13.537  35.096   7.355
10376POPC   NC361343  19.088  25.313   5.555
10376POPC   PO461344  19.028  25.288   5.855
10376POPC   GL161345  19.083  25.270   6.155
10376POPC   GL261346  19.129  25.320   6.155
10376POPC   C1A61347  19.035  25.282   6.455
10376POPC   D2A61348  19.057  25.247   6.755
10376POPC   C3A61349  19.034  25.229   7.055
10376POPC   C4A61350  19.033  25.294   7.355
10376POPC   C1B61351  19.213  25.483   6.455
10376POPC   C2B61352  19.173  25.489   6.755
10376POPC   C3B61353  19.214  25.422   7.055
10376POPC   C4B61354  19.170  25.425   7.355
10377POPC   NC361355  26.811   9.003   5.555
10377POPC   PO461356  26.795   8.950   5.855
10377POPC   GL161357  26.780   8.992   6.155
10377POPC   GL261358  26.945   8.979   6.155
10377POPC   C1A61359  26.807   8.967   6.455
10377POPC   D2A61360  26.834   9.012   6.755
10377POPC   C3A61361  26.861   8.949   7.055
10377POPC   C4A61362  26.842   8.980   7.355
10377POPC   C1B61363  27.042   9.121   6.455
10377POPC   C2B61364  26.996   9.042   6.755
10377POPC   C3B61365  27.067   9.049   7.055
10377POPC   C4B61366  27.049   9.087   7.355
10378POPC   NC361367  12.103  40.760   5.555
10378POPC   PO461368  12.064  40.735   5.855
10378POPC   GL161369  12.121  40.751   6.155
10378POPC   GL261370  12.214  40.705   6.155
10378POPC   C1A61371  12.095  40.779   6.455
10378POPC   D2A61372  12.105  40.766   6.755
10378POPC   C3A61373  12.081  40.796   7.055
10378POPC   C4A61374  12.069  40.784   7.355
10378POPC   C1B61375  12.248  40.656   6.455
10378POPC   C2B61376  12.308  40.619   6.755
10378POPC   C3B61377  12.305  40.674   7.055
10378POPC   C4B61378  12.224  40.604   7.355
10379POPC   NC361379  16.722   5.890   5.555
10379POPC   PO461380  16.768   5.830   5.855
10379POPC   GL161381  16.764   5.897   6.155
10379POPC   GL261382  16.720   5.979   6.155
10379POPC   C1A61383  16.719   5.832   6.455
10379POPC   D2A61384  16.722   5.850   6.755
10379POPC   C3A61385  16.710   5.910   7.055
10379POPC   C4A61386  16.732   5.895   7.355
10379POPC   C1B61387  16.806   6.109   6.455
10379POPC   C2B61388  16.754   6.093   6.755
10379POPC   C3B61389  16.807   6.093   7.055
10379POPC   C4B61390  16.827   6.124   7.355
10380POPC   NC361391  29.127   5.824   5.555
10380POPC   PO461392  29.191   5.869   5.855
10380POPC   GL161393  29.180   5.918   6.155
10380POPC   GL261394  29.026   5.929   6.155
10380POPC   C1A61395  29.097   5.915   6.455
10380POPC   D2A61396  29.183   5.886   6.755
10380POPC   C3A61397  29.122   5.823   7.055
10380POPC   C4A61398  29.127   5.821   7.355
10380POPC   C1B61399  28.944   5.944   6.455
10380POPC   C2B61400  28.877   5.952   6.755
10380POPC   C3B61401  28.901   5.919   7.055
10380POPC   C4B61402  28.869   5.975   7.355
10381POPC   NC361403  31.505  12.833   5.555
10381POPC   PO461404  31.507  12.850   5.855
10381POPC   GL161405  31.502  12.900   6.155
10381POPC   GL261406  31.314  12.816   6.155
10381POPC   C1A61407  31.465  12.862   6.455
10381POPC   D2A61408  31.457  12.884   6.755
10381POPC   C3A61409  31.479  12.842   7.055
10381POPC   C4A61410  31.492  12.803   7.355
10381POPC   C1B61411  31.191  12.800   6.455
10381POPC   C2B61412  31.236  12.786   6.755
10381POPC   C3B61413  31.203  12.801   7.055
10381POPC   C4B61414  31.240  12.848   7.355
10382POPC   NC361415   1.973  40.008   5.555
10382POPC   PO461416   1.990  40.013   5.855
10382POPC   GL161417   1.949  39.978   6.155
10382POPC   GL261418   1.962  39.850   6.155
10382POPC   C1A61419   2.005  40.013   6.455
10382POPC   D2A61420   1.986  40.006   6.755
10382POPC   C3A61421   2.004  40.010   7.055
10382POPC   C4A61422   2.011  40.045   7.355
10382POPC   C1B61423   1.906  39.773   6.455
10382POPC   C2B61424   1.941  39.716   6.755
10382POPC   C3B61425   1.937  39.775   7.055
10382POPC   C4B61426   1.896  39.753   7.355
10383POPC   NC361427  37.701  39.219   5.555
10383POPC   PO461428  37.699  39.257   5.855
10383POPC   GL161429  37.696  39.192   6.155
10383POPC   GL261430  37.599  39.312   6.155
10383POPC   C1A61431  37.668  39.225   6.455
10383POPC   D2A61432  37.717  39.223   6.755
10383POPC   C3A61433  37.727  39.216   7.055
10383POPC   C4A61434  37.687  39.233   7.355
10383POPC   C1B61435  37.580  39.418   6.455
10383POPC   C2B61436  37.570  39.401   6.755
10383POPC   C3B61437  37.513  39.448   7.055
10383POPC   C4B61438  37.493  39.409   7.355
10384POPC   NC361439   8.179  33.784   5.555
10384POPC   PO461440   8.190  33.805   5.855
10384POPC   GL161441   8.188  33.832   6.155
10384POPC   GL261442   8.139  33.756   6.155
10384POPC   C1A61443   8.233  33.787   6.455
10384POPC   D2A61444   8.161  33.763   6.755
10384POPC   C3A61445   8.158  33.754   7.055
10384POPC   C4A61446   8.233  33.755   7.355
10384POPC   C1B61447   7.948  33.633   6.455
10384POPC   C2B61448   8.003  33.641   6.755
10384POPC   C3B61449   7.983  33.701   7.055
10384POPC   C4B61450   8.004  33.651   7.355
10385POPC   NC361451  14.426  17.526   5.555
10385POPC   PO461452  14.404  17.518   5.855
10385POPC   GL161453  14.379  17.525   6.155
10385POPC   GL261454  14.354  17.436   6.155
10385POPC   C1A61455  14.444  17.538   6.455
10385POPC   D2A61456  14.401  17.504   6.755
10385POPC   C3A61457  14.388  17.510   7.055
10385POPC   C4A61458  14.396  17.555   7.355
10385POPC   C1B61459  14.301  17.291   6.455
10385POPC   C2B61460  14.245  17.315   6.755
10385POPC   C3B61461  14.273  17.303   7.055
10385POPC   C4B61462  14.296  17.294   7.355
10386POPC   NC361463  29.971   2.761   5.555
10386POPC   PO461464  29.890   2.795   5.855
10386POPC   GL161465  29.966   2.785   6.155
10386POPC   GL261466  30.086   2.711   6.155
10386POPC   C1A61467  29.919   2.789   6.455
10386POPC   D2A61468  29.970   2.798   6.755
10386POPC   C3A61469  29.878   2.736   7.055
10386POPC   C4A61470  29.912   2.775   7.355
10386POPC   C1B61471  30.193   2.716   6.455
10386POPC   C2B61472  30.199   2.692   6.755
10386POPC   C3B61473  30.189   2.677   7.055
10386POPC   C4B61474  30.129   2.725   7.355
10387POPC   NC361475  35.368   8.237   5.555
10387POPC   PO461476  35.388   8.200   5.855
10387POPC   GL161477  35.310   8.178   6.155
10387POPC   GL261478  35.284   8.236   6.155
10387POPC   C1A61479  35.382   8.194   6.455
10387POPC   D2A61480  35.311   8.184   6.755
10387POPC   C3A61481  35.321   8.243   7.055
10387POPC   C4A61482  35.363   8.176   7.355
10387POPC   C1B61483  35.156   8.344   6.455
10387POPC   C2B61484  35.162   8.342   6.755
10387POPC   C3B61485  35.138   8.344   7.055
10387POPC   C4B61486  35.147   8.367   7.355
10388POPC   NC361487  30.703  17.532   5.555
10388POPC   PO461488  30.652  17.468   5.855
10388POPC   GL161489  30.744  17.458   6.155
10388POPC   GL261490  30.826  17.561   6.155
10388POPC   C1A61491  30.739  17.547   6.455
10388POPC   D2A61492  30.734  17.512   6.755
10388POPC   C3A61493  30.675  17.555   7.055
10388POPC   C4A61494  30.690  17.523   7.355
10388POPC   C1B61495  30.958  17.649   6.455
10388POPC   C2B61496  30.929  17.601   6.755
10388POPC   C3B61497  30.876  17.641   7.055
10388POPC   C4B61498  30.959  17.591   7.355
10389POPC   NC361499   9.790  35.347   5.555
10389POPC   PO461500   9.701  35.388   5.855
10389POPC   GL161501   9.747  35.353   6.155
10389POPC   GL261502   9.767  35.235   6.155
10389POPC   C1A61503   9.790  35.338   6.455
10389POPC   D2A61504   9.771  35.392   6.755
10389POPC   C3A61505   9.724  35.389   7.055
10389POPC   C4A61506   9.777  35.355   7.355
10389POPC   C1B61507   9.782  35.114   6.455
10389POPC   C2B61508   9.782  35.101   6.755
10389POPC   C3B61509   9.717  35.109   7.055
10389POPC   C4B61510   9.731  35.123   7.355
10390POPC   NC361511  11.265  19.052   5.555
10390POPC   PO461512  11.348  19.010   5.855
10390POPC   GL161513  11.341  19.082   6.155
10390POPC   GL261514  11.325  19.131   6.155
10390POPC   C1A61515  11.345  19.060   6.455
10390POPC   D2A61516  11.273  19.070   6.755
10390POPC   C3A61517  11.349  19.019   7.055
10390POPC   C4A61518  11.256  19.082   7.355
10390POPC   C1B61519  11.451  19.314   6.455
10390POPC   C2B61520  11.380  19.289   6.755
10390POPC   C3B61521  11.398  19.294   7.055
10390POPC   C4B61522  11.376  19.298   7.355
10391POPC   NC361523   2.749  12.072   5.555
10391POPC   PO461524   2.808  12.113   5.855
10391POPC   GL161525   2.807  12.049   6.155
10391POPC   GL261526   2.602  12.156   6.155
10391POPC   C1A61527   2.733  12.028   6.455
10391POPC   D2A61528   2.760  12.107   6.755
10391POPC   C3A61529   2.762  12.076   7.055
10391POPC   C4A61530   2.763  12.106   7.355
10391POPC   C1B61531   2.482  12.102   6.455
10391POPC   C2B61532   2.521  12.123   6.755
10391POPC   C3B61533   2.568  12.183   7.055
10391POPC   C4B61534   2.512  12.184   7.355
10392POPC   NC361535   6.662   3.494   5.555
10392POPC   PO461536   6.673   3.572   5.855
10392POPC   GL161537   6.623   3.545   6.155
10392POPC   GL261538   6.795   3.527   6.155
10392POPC   C1A61539   6.623   3.555   6.455
10392POPC   D2A61540   6.694   3.535   6.755
10392POPC   C3A61541   6.674   3.572   7.055
10392POPC   C4A61542   6.601   3.519   7.355
10392POPC   C1B61543   6.843   3.407   6.455
10392POPC   C2B61544   6.843   3.458   6.755
10392POPC   C3B61545   6.899   3.417   7.055
10392POPC   C4B61546   6.840   3.390   7.355
10393POPC   NC361547   0.435  40.797   5.555
10393POPC   PO461548   0.433  40.736   5.855
10393POPC   GL161549   0.479  40.774   6.155
10393POPC   GL261550   0.310  40.776   6.155
10393POPC   C1A61551   0.417  40.831   6.455
10393POPC   D2A61552   0.441  40.743   6.755
10393POPC   C3A61553   0.431  40.802   7.055
10393POPC   C4A61554   0.394  40.771   7.355
10393POPC   C1B61555   0.211  40.701   6.455
10393POPC   C2B61556   0.217  40.690   6.755
10393POPC   C3B61557   0.231  40.725   7.055
10393POPC   C4B61558   0.202  40.718   7.355
10394POPC   NC361559  12.061  44.697   5.555
10394POPC   PO461560  12.038  44.697   5.855
10394POPC   GL161561  12.102  44.632   6.155
10394POPC   GL261562  12.039  44.806   6.155
10394POPC   C1A61563  12.103  44.656   6.455
10394POPC   D2A61564  12.060  44.620   6.755
10394POPC   C3A61565  12.110  44.661   7.055
10394POPC   C4A61566  12.047  44.707   7.355
10394POPC   C1B61567  11.972  44.898   6.455
10394POPC   C2B61568  12.007  44.930   6.755
10394POPC   C3B61569  11.967  44.891   7.055
10394POPC   C4B61570  12.039  44.868   7.355
10395POPC   NC361571  29.123  27.603   5.555
10395POPC   PO461572  29.136  27.607   5.855
10395POPC   GL161573  29.180  27.579   6.155
10395POPC   GL261574  29.107  27.711   6.155
10395POPC   C1A61575  29.144  27.577   6.455
10395POPC   D2A61576  29.157  27.633   6.755
10395POPC   C3A61577  29.183  27.601   7.055
10395POPC   C4A61578  29.155  27.547   7.355
10395POPC   C1B61579  28.961  27.828   6.455
10395POPC   C2B61580  28.999  27.816   6.755
10395POPC   C3B61581  28.961  27.800   7.055
10395POPC   C4B61582  28.991  27.829   7.355
10396POPC   NC361583  20.568  39.984   5.555
10396POPC   PO461584  20.653  40.003   5.855
10396POPC   GL161585  20.613  39.986   6.155
10396POPC   GL261586  20.696  40.117   6.155
10396POPC   C1A61587  20.593  40.041   6.455
10396POPC   D2A61588  20.658  40.041   6.755
10396POPC   C3A61589  20.607  40.049   7.055
10396POPC   C4A61590  20.576  40.053   7.355
10396POPC   C1B61591  20.698  40.233   6.455
10396POPC   C2B61592  20.766  40.171   6.755
10396POPC   C3B61593  20.726  40.190   7.055
10396POPC   C4B61594  20.709  40.187   7.355
10397POPC   NC361595  25.302  30.719   5.555
10397POPC   PO461596  25.310  30.694   5.855
10397POPC   GL161597  25.277  30.711   6.155
10397POPC   GL261598  25.218  30.817   6.155
10397POPC   C1A61599  25.271  30.668   6.455
10397POPC   D2A61600  25.297  30.713   6.755
10397POPC   C3A61601  25.304  30.735   7.055
10397POPC   C4A61602  25.228  30.692   7.355
10397POPC   C1B61603  25.055  30.869   6.455
10397POPC   C2B61604  25.097  30.849   6.755
10397POPC   C3B61605  25.088  30.918   7.055
10397POPC   C4B61606  25.047  30.877   7.355
10398POPC   NC361607   9.002  36.882   5.555
10398POPC   PO461608   8.926  36.913   5.855
10398POPC   GL161609   8.997  36.899   6.155
10398POPC   GL261610   9.064  36.819   6.155
10398POPC   C1A61611   9.011  36.916   6.455
10398POPC   D2A61612   8.926  36.934   6.755
10398POPC   C3A61613   8.951  36.874   7.055
10398POPC   C4A61614   8.939  36.913   7.355
10398POPC   C1B61615   9.179  36.768   6.455
10398POPC   C2B61616   9.117  36.779   6.755
10398POPC   C3B61617   9.114  36.755   7.055
10398POPC   C4B61618   9.186  36.781   7.355
10399POPC   NC361619   9.019  39.201   5.555
10399POPC   PO461620   8.924  39.207   5.855
10399POPC   GL161621   8.936  39.189   6.155
10399POPC   GL261622   8.993  39.365   6.155
10399POPC   C1A61623   8.962  39.247   6.455
10399POPC   D2A61624   8.929  39.278   6.755
10399POPC   C3A61625   8.942  39.192   7.055
10399POPC   C4A61626   9.015  39.203   7.355
10399POPC   C1B61627   8.980  39.448   6.455
10399POPC   C2B61628   9.003  39.435   6.755
10399POPC   C3B61629   8.983  39.488   7.055
10399POPC   C4B61630   9.010  39.482   7.355
10400POPC   NC361631  37.694  29.151   5.555
10400POPC   PO461632  37.643  29.166   5.855
10400POPC   GL161633  37.710  29.135   6.155
10400POPC   GL261634  37.607  28.998   6.155
10400POPC   C1A61635  37.700  29.155   6.455
10400POPC   D2A61636  37.683  29.169   6.755
10400POPC   C3A61637  37.717  29.191   7.055
10400POPC   C4A61638  37.636  29.171   7.355
10400POPC   C1B61639  37.499  28.958   6.455
10400POPC   C2B61640  37.541  28.918   6.755
10400POPC   C3B61641  37.528  28.979   7.055
10400POPC   C4B61642  37.475  28.911   7.355
10401POPC   NC361643  40.774  36.885   5.555
10401POPC   PO461644  40.818  36.920   5.855
10401POPC   GL161645  40.818  36.886   6.155
10401POPC   GL261646  40.679  36.834   6.155
10401POPC   C1A61647  40.787  36.919   6.455
10401POPC   D2A61648  40.784  36.931   6.755
10401POPC   C3A61649  40.765  36.940   7.055
10401POPC   C4A61650  40.745  36.867   7.355
10401POPC   C1B61651  40.690  36.679   6.455
10401POPC   C2B61652  40.598  36.747   6.755
10401POPC   C3B61653  40.678  36.663   7.055
10401POPC   C4B61654  40.623  36.680   7.355
10402POPC   NC361655   4.339   2.796   5.555
10402POPC   PO461656   4.313   2.726   5.855
10402POPC   GL161657   4.297   2.769   6.155
10402POPC   GL261658   4.488   2.798   6.155
10402POPC   C1A61659   4.313   2.723   6.455
10402POPC   D2A61660   4.310   2.739   6.755
10402POPC   C3A61661   4.295   2.774   7.055
10402POPC   C4A61662   4.347   2.786   7.355
10402POPC   C1B61663   4.578   2.806   6.455
10402POPC   C2B61664   4.522   2.790   6.755
10402POPC   C3B61665   4.527   2.830   7.055
10402POPC   C4B61666   4.612   2.822   7.355
10403POPC   NC361667  26.030  15.168   5.555
10403POPC   PO461668  26.018  15.169   5.855
10403POPC   GL161669  26.065  15.206   6.155
10403POPC   GL261670  26.101  15.094   6.155
10403POPC   C1A61671  25.993  15.133   6.455
10403POPC   D2A61672  26.026  15.215   6.755
10403POPC   C3A61673  26.034  15.215   7.055
10403POPC   C4A61674  26.047  15.134   7.355
10403POPC   C1B61675  26.214  15.091   6.455
10403POPC   C2B61676  26.291  14.996   6.755
10403POPC   C3B61677  26.218  15.019   7.055
10403POPC   C4B61678  26.255  15.014   7.355
10404POPC   NC361679  43.159  19.039   5.555
10404POPC   PO461680  43.147  19.034   5.855
10404POPC   GL161681  43.112  19.052   6.155
10404POPC   GL261682  43.242  18.976   6.155
10404POPC   C1A61683  43.118  19.038   6.455
10404POPC   D2A61684  43.127  19.049   6.755
10404POPC   C3A61685  43.077  19.103   7.055
10404POPC   C4A61686  43.151  19.103   7.355
10404POPC   C1B61687  43.375  18.991   6.455
10404POPC   C2B61688  43.319  18.994   6.755
10404POPC   C3B61689  43.377  18.984   7.055
10404POPC   C4B61690  43.364  18.926   7.355
10405POPC   NC361691   9.733  40.001   5.555
10405POPC   PO461692   9.740  40.051   5.855
10405POPC   GL161693   9.748  39.983   6.155
10405POPC   GL261694   9.832  40.053   6.155
10405POPC   C1A61695   9.772  40.010   6.455
10405POPC   D2A61696   9.742  40.026   6.755
10405POPC   C3A61697   9.703  40.025   7.055
10405POPC   C4A61698   9.727  39.995   7.355
10405POPC   C1B61699   9.993  40.110   6.455
10405POPC   C2B61700   9.969  40.114   6.755
10405POPC   C3B61701  10.035  40.075   7.055
10405POPC   C4B61702   9.982  40.028   7.355
10406POPC   NC361703  29.187  28.404   5.555
10406POPC   PO461704  29.131  28.333   5.855
10406POPC   GL161705  29.147  28.394   6.155
10406POPC   GL261706  28.979  28.342   6.155
10406POPC   C1A61707  29.158  28.362   6.455
10406POPC   D2A61708  29.179  28.328   6.755
10406POPC   C3A61709  29.184  28.386   7.055
10406POPC   C4A61710  29.188  28.332   7.355
10406POPC   C1B61711  28.933  28.386   6.455
10406POPC   C2B61712  28.850  28.375   6.755
10406POPC   C3B61713  28.856  28.443   7.055
10406POPC   C4B61714  28.856  28.441   7.355
10407POPC   NC361715  27.613  28.330   5.555
10407POPC   PO461716  27.569  28.381   5.855
10407POPC   GL161717  27.621  28.417   6.155
10407POPC   GL261718  27.579  28.242   6.155
10407POPC   C1A61719  27.574  28.366   6.455
10407POPC   D2A61720  27.628  28.373   6.755
10407POPC   C3A61721  27.574  28.396   7.055
10407POPC   C4A61722  27.568  28.333   7.355
10407POPC   C1B61723  27.481  28.142   6.455
10407POPC   C2B61724  27.529  28.108   6.755
10407POPC   C3B61725  27.509  28.105   7.055
10407POPC   C4B61726  27.512  28.182   7.355
10408POPC   NC361727   2.760  40.769   5.555
10408POPC   PO461728   2.815  40.779   5.855
10408POPC   GL161729   2.729  40.744   6.155
10408POPC   GL261730   2.673  40.795   6.155
10408POPC   C1A61731   2.724  40.766   6.455
10408POPC   D2A61732   2.737  40.754   6.755
10408POPC   C3A61733   2.725  40.826   7.055
10408POPC   C4A61734   2.716  40.784   7.355
10408POPC   C1B61735   2.557  40.736   6.455
10408POPC   C2B61736   2.487  40.762   6.755
10408POPC   C3B61737   2.476  40.779   7.055
10408POPC   C4B61738   2.533  40.742   7.355
10409POPC   NC361739  43.925  24.482   5.555
10409POPC   PO461740  43.910  24.521   5.855
10409POPC   GL161741  43.843  24.512   6.155
10409POPC   GL261742  43.988  24.401   6.155
10409POPC   C1A61743  43.896  24.502   6.455
10409POPC   D2A61744  43.927  24.516   6.755
10409POPC   C3A61745  43.895  24.467   7.055
10409POPC   C4A61746  43.840  24.469   7.355
10409POPC   C1B61747  44.111  24.334   6.455
10409POPC   C2B61748  44.086  24.344   6.755
10409POPC   C3B61749  44.109  24.416   7.055
10409POPC   C4B61750  44.115  24.352   7.355
10410POPC   NC361751   1.210  39.228   5.555
10410POPC   PO461752   1.172  39.245   5.855
10410POPC   GL161753   1.200  39.216   6.155
10410POPC   GL261754   1.380  39.232   6.155
10410POPC   C1A61755   1.263  39.232   6.455
10410POPC   D2A61756   1.245  39.207   6.755
10410POPC   C3A61757   1.227  39.256   7.055
10410POPC   C4A61758   1.236  39.258   7.355
10410POPC   C1B61759   1.430  39.234   6.455
10410POPC   C2B61760   1.413  39.252   6.755
10410POPC   C3B61761   1.436  39.264   7.055
10410POPC   C4B61762   1.443  39.255   7.355
10411POPC   NC361763  14.382  22.210   5.555
10411POPC   PO461764  14.450  22.171   5.855
10411POPC   GL161765  14.424  22.179   6.155
10411POPC   GL261766  14.438  22.258   6.155
10411POPC   C1A61767  14.397  22.170   6.455
10411POPC   D2A61768  14.375  22.126   6.755
10411POPC   C3A61769  14.420  22.208   7.055
10411POPC   C4A61770  14.412  22.181   7.355
10411POPC   C1B61771  14.472  22.359   6.455
10411POPC   C2B61772  14.494  22.359   6.755
10411POPC   C3B61773  14.506  22.364   7.055
10411POPC   C4B61774  14.479  22.413   7.355
10412POPC   NC361775  17.516  40.735   5.555
10412POPC   PO461776  17.545  40.833   5.855
10412POPC   GL161777  17.498  40.803   6.155
10412POPC   GL261778  17.519  40.918   6.155
10412POPC   C1A61779  17.511  40.777   6.455
10412POPC   D2A61780  17.482  40.776   6.755
10412POPC   C3A61781  17.554  40.752   7.055
10412POPC   C4A61782  17.507  40.787   7.355
10412POPC   C1B61783  17.585  41.052   6.455
10412POPC   C2B61784  17.523  41.032   6.755
10412POPC   C3B61785  17.544  41.073   7.055
10412POPC   C4B61786  17.572  41.054   7.355
10413POPC   NC361787  29.135   3.554   5.555
10413POPC   PO461788  29.102   3.578   5.855
10413POPC   GL161789  29.151   3.545   6.155
10413POPC   GL261790  29.167   3.444   6.155
10413POPC   C1A61791  29.104   3.536   6.455
10413POPC   D2A61792  29.172   3.578   6.755
10413POPC   C3A61793  29.120   3.538   7.055
10413POPC   C4A61794  29.159   3.534   7.355
10413POPC   C1B61795  29.211   3.278   6.455
10413POPC   C2B61796  29.254   3.271   6.755
10413POPC   C3B61797  29.238   3.292   7.055
10413POPC   C4B61798  29.226   3.266   7.355
10414POPC   NC361799   3.565  28.414   5.555
10414POPC   PO461800   3.497  28.393   5.855
10414POPC   GL161801   3.570  28.383   6.155
10414POPC   GL261802   3.456  28.370   6.155
10414POPC   C1A61803   3.590  28.377   6.455
10414POPC   D2A61804   3.588  28.413   6.755
10414POPC   C3A61805   3.562  28.384   7.055
10414POPC   C4A61806   3.502  28.390   7.355
10414POPC   C1B61807   3.285  28.297   6.455
10414POPC   C2B61808   3.291  28.387   6.755
10414POPC   C3B61809   3.314  28.316   7.055
10414POPC   C4B61810   3.259  28.363   7.355
10415POPC   NC361811  37.684   9.729   5.555
10415POPC   PO461812  37.670   9.743   5.855
10415POPC   GL161813  37.691   9.728   6.155
10415POPC   GL261814  37.612   9.823   6.155
10415POPC   C1A61815  37.669   9.711   6.455
10415POPC   D2A61816  37.654   9.769   6.755
10415POPC   C3A61817  37.645   9.791   7.055
10415POPC   C4A61818  37.718   9.777   7.355
10415POPC   C1B61819  37.520   9.942   6.455
10415POPC   C2B61820  37.517   9.917   6.755
10415POPC   C3B61821  37.500   9.938   7.055
10415POPC   C4B61822  37.587   9.966   7.355
10416POPC   NC361823  44.635   4.306   5.555
10416POPC   PO461824  44.669   4.301   5.855
10416POPC   GL161825  44.614   4.327   6.155
10416POPC   GL261826  44.643   4.177   6.155
10416POPC   C1A61827  44.646   4.280   6.455
10416POPC   D2A61828  44.707   4.277   6.755
10416POPC   C3A61829  44.678   4.346   7.055
10416POPC   C4A61830  44.678   4.299   7.355
10416POPC   C1B61831  44.575   4.054   6.455
10416POPC   C2B61832  44.580   4.052   6.755
10416POPC   C3B61833  44.599   4.093   7.055
10416POPC   C4B61834  44.553   4.115   7.355
10417POPC   NC361835  12.032  15.194   5.555
10417POPC   PO461836  12.061  15.132   5.855
10417POPC   GL161837  12.031  15.151   6.155
10417POPC   GL261838  11.948  15.118   6.155
10417POPC   C1A61839  12.064  15.194   6.455
10417POPC   D2A61840  12.122  15.189   6.755
10417POPC   C3A61841  12.108  15.193   7.055
10417POPC   C4A61842  12.049  15.218   7.355
10417POPC   C1B61843  11.900  14.988   6.455
10417POPC   C2B61844  11.920  14.982   6.755
10417POPC   C3B61845  11.920  15.034   7.055
10417POPC   C4B61846  11.958  14.972   7.355
10418POPC   NC361847  21.430  22.919   5.555
10418POPC   PO461848  21.371  22.966   5.855
10418POPC   GL161849  21.357  22.893   6.155
10418POPC   GL261850  21.298  23.013   6.155
10418POPC   C1A61851  21.341  22.978   6.455
10418POPC   D2A61852  21.336  22.903   6.755
10418POPC   C3A61853  21.401  22.965   7.055
10418POPC   C4A61854  21.400  22.950   7.355
10418POPC   C1B61855  21.221  23.182   6.455
10418POPC   C2B61856  21.198  23.098   6.755
10418POPC   C3B61857  21.204  23.155   7.055
10418POPC   C4B61858  21.260  23.124   7.355
10419POPC   NC361859  40.759   6.624   5.555
10419POPC   PO461860  40.822   6.694   5.855
10419POPC   GL161861  40.758   6.644   6.155
10419POPC   GL261862  40.867   6.720   6.155
10419POPC   C1A61863  40.789   6.683   6.455
10419POPC   D2A61864  40.734   6.647   6.755
10419POPC   C3A61865  40.802   6.600   7.055
10419POPC   C4A61866  40.831   6.691   7.355
10419POPC   C1B61867  40.879   6.824   6.455
10419POPC   C2B61868  40.925   6.896   6.755
10419POPC   C3B61869  40.968   6.842   7.055
10419POPC   C4B61870  40.960   6.888   7.355
10420POPC   NC361871  30.733   5.872   5.555
10420POPC   PO461872  30.739   5.916   5.855
10420POPC   GL161873  30.663   5.861   6.155
10420POPC   GL261874  30.676   5.977   6.155
10420POPC   C1A61875  30.709   5.865   6.455
10420POPC   D2A61876  30.712   5.833   6.755
10420POPC   C3A61877  30.707   5.902   7.055
10420POPC   C4A61878  30.674   5.910   7.355
10420POPC   C1B61879  30.704   6.116   6.455
10420POPC   C2B61880  30.726   6.101   6.755
10420POPC   C3B61881  30.648   6.097   7.055
10420POPC   C4B61882  30.655   6.125   7.355
10421POPC   NC361883  40.809  17.522   5.555
10421POPC   PO461884  40.793  17.524   5.855
10421POPC   GL161885  40.820  17.466   6.155
10421POPC   GL261886  40.791  17.628   6.155
10421POPC   C1A61887  40.824  17.534   6.455
10421POPC   D2A61888  40.742  17.484   6.755
10421POPC   C3A61889  40.823  17.478   7.055
10421POPC   C4A61890  40.788  17.521   7.355
10421POPC   C1B61891  40.856  17.722   6.455
10421POPC   C2B61892  40.906  17.700   6.755
10421POPC   C3B61893  40.907  17.780   7.055
10421POPC   C4B61894  40.902  17.726   7.355
10422POPC   NC361895   7.403  18.327   5.555
10422POPC   PO461896   7.380  18.248   5.855
10422POPC   GL161897   7.452  18.325   6.155
10422POPC   GL261898   7.468  18.407   6.155
10422POPC   C1A61899   7.399  18.276   6.455
10422POPC   D2A61900   7.393  18.288   6.755
10422POPC   C3A61901   7.429  18.314   7.055
10422POPC   C4A61902   7.375  18.270   7.355
10422POPC   C1B61903   7.467  18.498   6.455
10422POPC   C2B61904   7.520  18.567   6.755
10422POPC   C3B61905   7.523  18.472   7.055
10422POPC   C4B61906   7.527  18.537   7.355
10423POPC   NC361907  12.096   2.011   5.555
10423POPC   PO461908  12.084   2.001   5.855
10423POPC   GL161909  12.097   2.039   6.155
10423POPC   GL261910  12.154   2.131   6.155
10423POPC   C1A61911  12.032   1.950   6.455
10423POPC   D2A61912  12.102   2.007   6.755
10423POPC   C3A61913  12.069   2.011   7.055
10423POPC   C4A61914  12.098   2.038   7.355
10423POPC   C1B61915  12.245   2.179   6.455
10423POPC   C2B61916  12.238   2.185   6.755
10423POPC   C3B61917  12.226   2.150   7.055
10423POPC   C4B61918  12.190   2.203   7.355
10424POPC   NC361919  14.373  40.034   5.555
10424POPC   PO461920  14.399  39.964   5.855
10424POPC   GL161921  14.429  39.999   6.155
10424POPC   GL261922  14.366  39.850   6.155
10424POPC   C1A61923  14.387  40.052   6.455
10424POPC   D2A61924  14.419  40.028   6.755
10424POPC   C3A61925  14.451  40.051   7.055
10424POPC   C4A61926  14.407  40.038   7.355
10424POPC   C1B61927  14.380  39.755   6.455
10424POPC   C2B61928  14.374  39.779   6.755
10424POPC   C3B61929  14.403  39.787   7.055
10424POPC   C4B61930  14.335  39.741   7.355
10425POPC   NC361931   5.871  35.391   5.555
10425POPC   PO461932   5.863  35.361   5.855
10425POPC   GL161933   5.858  35.390   6.155
10425POPC   GL261934   5.999  35.385   6.155
10425POPC   C1A61935   5.825  35.318   6.455
10425POPC   D2A61936   5.833  35.315   6.755
10425POPC   C3A61937   5.840  35.376   7.055
10425POPC   C4A61938   5.883  35.328   7.355
10425POPC   C1B61939   6.096  35.469   6.455
10425POPC   C2B61940   6.056  35.535   6.755
10425POPC   C3B61941   6.021  35.480   7.055
10425POPC   C4B61942   6.020  35.554   7.355
10426POPC   NC361943  37.706  15.213   5.555
10426POPC   PO461944  37.698  15.196   5.855
10426POPC   GL161945  37.697  15.162   6.155
10426POPC   GL261946  37.545  15.171   6.155
10426POPC   C1A61947  37.712  15.215   6.455
10426POPC   D2A61948  37.704  15.223   6.755
10426POPC   C3A61949  37.715  15.171   7.055
10426POPC   C4A61950  37.648  15.199   7.355
10426POPC   C1B61951  37.418  15.257   6.455
10426POPC   C2B61952  37.478  15.204   6.755
10426POPC   C3B61953  37.486  15.224   7.055
10426POPC   C4B61954  37.404  15.223   7.355
10427POPC   NC361955  10.557  22.193   5.555
10427POPC   PO461956  10.517  22.129   5.855
10427POPC   GL161957  10.500  22.189   6.155
10427POPC   GL261958  10.588  22.098   6.155
10427POPC   C1A61959  10.528  22.120   6.455
10427POPC   D2A61960  10.524  22.199   6.755
10427POPC   C3A61961  10.541  22.155   7.055
10427POPC   C4A61962  10.552  22.174   7.355
10427POPC   C1B61963  10.709  21.939   6.455
10427POPC   C2B61964  10.659  21.929   6.755
10427POPC   C3B61965  10.689  21.986   7.055
10427POPC   C4B61966  10.650  21.957   7.355
10428POPC   NC361967  10.506  23.683   5.555
10428POPC   PO461968  10.509  23.747   5.855
10428POPC   GL161969  10.479  23.735   6.155
10428POPC   GL261970  10.652  23.820   6.155
10428POPC   C1A61971  10.477  23.718   6.455
10428POPC   D2A61972  10.497  23.696   6.755
10428POPC   C3A61973  10.511  23.754   7.055
10428POPC   C4A61974  10.538  23.711   7.355
10428POPC   C1B61975  10.709  23.906   6.455
10428POPC   C2B61976  10.718  23.874   6.755
10428POPC   C3B61977  10.773  23.896   7.055
10428POPC   C4B61978  10.775  23.808   7.355
10429POPC   NC361979   8.983  37.694   5.555
10429POPC   PO461980   8.948  37.691   5.855
10429POPC   GL161981   8.976  37.689   6.155
10429POPC   GL261982   8.944  37.809   6.155
10429POPC   C1A61983   8.943  37.642   6.455
10429POPC   D2A61984   8.977  37.702   6.755
10429POPC   C3A61985   8.956  37.681   7.055
10429POPC   C4A61986   8.997  37.685   7.355
10429POPC   C1B61987   8.943  37.947   6.455
10429POPC   C2B61988   8.964  37.937   6.755
10429POPC   C3B61989   8.885  37.974   7.055
10429POPC   C4B61990   8.897  37.884   7.355
10430POPC   NC361991  36.142  36.156   5.555
10430POPC   PO461992  36.099  36.149   5.855
10430POPC   GL161993  36.128  36.088   6.155
10430POPC   GL261994  36.094  36.199   6.155
10430POPC   C1A61995  36.176  36.140   6.455
10430POPC   D2A61996  36.177  36.142   6.755
10430POPC   C3A61997  36.110  36.089   7.055
10430POPC   C4A61998  36.079  36.090   7.355
10430POPC   C1B61999  36.033  36.352   6.455
10430POPC   C2B62000  36.008  36.374   6.755
10430POPC   C3B62001  35.954  36.306   7.055
10430POPC   C4B62002  36.020  36.381   7.355
10431POPC   NC362003   8.953  34.535   5.555
10431POPC   PO462004   8.999  34.580   5.855
10431POPC   GL162005   8.999  34.527   6.155
10431POPC   GL262006   9.084  34.605   6.155
10431POPC   C1A62007   8.943  34.536   6.455
10431POPC   D2A62008   8.960  34.596   6.755
10431POPC   C3A62009   8.967  34.541   7.055
10431POPC   C4A62010   8.957  34.579   7.355
10431POPC   C1B62011   9.193  34.747   6.455
10431POPC   C2B62012   9.145  34.745   6.755
10431POPC   C3B62013   9.231  34.683   7.055
10431POPC   C4B62014   9.156  34.668   7.355
10432POPC   NC362015  39.977  15.216   5.555
10432POPC   PO462016  39.967  15.192   5.855
10432POPC   GL162017  40.033  15.137   6.155
10432POPC   GL262018  39.906  15.341   6.155
10432POPC   C1A62019  40.035  15.203   6.455
10432POPC   D2A62020  40.017  15.130   6.755
10432POPC   C3A62021  40.017  15.164   7.055
10432POPC   C4A62022  40.003  15.197   7.355
10432POPC   C1B62023  39.901  15.405   6.455
10432POPC   C2B62024  39.937  15.358   6.755
10432POPC   C3B62025  39.914  15.380   7.055
10432POPC   C4B62026  39.935  15.430   7.355
10433POPC   NC362027  20.586  28.398   5.555
10433POPC   PO462028  20.603  28.368   5.855
10433POPC   GL162029  20.563  28.335   6.155
10433POPC   GL262030  20.542  28.236   6.155
10433POPC   C1A62031  20.584  28.386   6.455
10433POPC   D2A62032  20.658  28.389   6.755
10433POPC   C3A62033  20.642  28.359   7.055
10433POPC   C4A62034  20.619  28.330   7.355
10433POPC   C1B62035  20.426  28.163   6.455
10433POPC   C2B62036  20.459  28.149   6.755
10433POPC   C3B62037  20.415  28.151   7.055
10433POPC   C4B62038  20.420  28.210   7.355
10434POPC   NC362039  33.028  15.222   5.555
10434POPC   PO462040  33.028  15.214   5.855
10434POPC   GL162041  33.029  15.175   6.155
10434POPC   GL262042  33.006  15.334   6.155
10434POPC   C1A62043  32.988  15.164   6.455
10434POPC   D2A62044  32.981  15.209   6.755
10434POPC   C3A62045  33.073  15.202   7.055
10434POPC   C4A62046  33.046  15.215   7.355
10434POPC   C1B62047  32.977  15.478   6.455
10434POPC   C2B62048  33.014  15.467   6.755
10434POPC   C3B62049  33.045  15.440   7.055
10434POPC   C4B62050  33.042  15.383   7.355
10435POPC   NC362051  42.308  29.881   5.555
10435POPC   PO462052  42.383  29.924   5.855
10435POPC   GL162053  42.371  29.953   6.155
10435POPC   GL262054  42.172  29.904   6.155
10435POPC   C1A62055  42.372  29.966   6.455
10435POPC   D2A62056  42.376  29.879   6.755
10435POPC   C3A62057  42.335  29.938   7.055
10435POPC   C4A62058  42.354  29.962   7.355
10435POPC   C1B62059  42.128  29.858   6.455
10435POPC   C2B62060  42.054  29.925   6.755
10435POPC   C3B62061  42.042  29.945   7.055
10435POPC   C4B62062  42.037  29.938   7.355
10436POPC   NC362063  26.848  43.902   5.555
10436POPC   PO462064  26.809  43.887   5.855
10436POPC   GL162065  26.856  43.909   6.155
10436POPC   GL262066  26.965  43.962   6.155
10436POPC   C1A62067  26.816  43.870   6.455
10436POPC   D2A62068  26.850  43.855   6.755
10436POPC   C3A62069  26.789  43.892   7.055
10436POPC   C4A62070  26.854  43.862   7.355
10436POPC   C1B62071  27.071  43.971   6.455
10436POPC   C2B62072  27.079  44.036   6.755
10436POPC   C3B62073  27.014  43.968   7.055
10436POPC   C4B62074  27.075  44.011   7.355
10437POPC   NC362075   5.082   9.792   5.555
10437POPC   PO462076   5.141   9.716   5.855
10437POPC   GL162077   5.116   9.729   6.155
10437POPC   GL262078   5.213   9.657   6.155
10437POPC   C1A62079   5.116   9.786   6.455
10437POPC   D2A62080   5.095   9.729   6.755
10437POPC   C3A62081   5.086   9.753   7.055
10437POPC   C4A62082   5.085   9.739   7.355
10437POPC   C1B62083   5.288   9.610   6.455
10437POPC   C2B62084   5.260   9.556   6.755
10437POPC   C3B62085   5.210   9.551   7.055
10437POPC   C4B62086   5.297   9.564   7.355
10438POPC   NC362087  36.926   7.403   5.555
10438POPC   PO462088  36.910   7.412   5.855
10438POPC   GL162089  36.930   7.391   6.155
10438POPC   GL262090  36.975   7.350   6.155
10438POPC   C1A62091  36.884   7.468   6.455
10438POPC   D2A62092  36.914   7.399   6.755
10438POPC   C3A62093  36.888   7.452   7.055
10438POPC   C4A62094  36.935   7.383   7.355
10438POPC   C1B62095  37.152   7.274   6.455
10438POPC   C2B62096  37.102   7.262   6.755
10438POPC   C3B62097  37.166   7.282   7.055
10438POPC   C4B62098  37.090   7.287   7.355
10439POPC   NC362099   2.745  19.849   5.555
10439POPC   PO462100   2.775  19.810   5.855
10439POPC   GL162101   2.718  19.805   6.155
10439POPC   GL262102   2.896  19.725   6.155
10439POPC   C1A62103   2.791  19.805   6.455
10439POPC   D2A62104   2.739  19.864   6.755
10439POPC   C3A62105   2.815  19.853   7.055
10439POPC   C4A62106   2.801  19.821   7.355
10439POPC   C1B62107   2.964  19.657   6.455
10439POPC   C2B62108   2.933  19.684   6.755
10439POPC   C3B62109   2.881  19.628   7.055
10439POPC   C4B62110   2.936  19.627   7.355
10440POPC   NC362111  43.842  43.862   5.555
10440POPC   PO462112  43.923  43.837   5.855
10440POPC   GL162113  43.873  43.924   6.155
10440POPC   GL262114  43.720  43.862   6.155
10440POPC   C1A62115  43.849  43.861   6.455
10440POPC   D2A62116  43.884  43.894   6.755
10440POPC   C3A62117  43.845  43.844   7.055
10440POPC   C4A62118  43.908  43.866   7.355
10440POPC   C1B62119  43.681  43.827   6.455
10440POPC   C2B62120  43.697  43.775   6.755
10440POPC   C3B62121  43.636  43.841   7.055
10440POPC   C4B62122  43.620  43.758   7.355
10441POPC   NC362123  21.358  43.098   5.555
10441POPC   PO462124  21.379  43.067   5.855
10441POPC   GL162125  21.425  43.103   6.155
10441POPC   GL262126  21.277  43.053   6.155
10441POPC   C1A62127  21.409  43.098   6.455
10441POPC   D2A62128  21.406  43.132   6.755
10441POPC   C3A62129  21.419  43.150   7.055
10441POPC   C4A62130  21.383  43.158   7.355
10441POPC   C1B62131  21.159  42.920   6.455
10441POPC   C2B62132  21.209  42.937   6.755
10441POPC   C3B62133  21.229  42.980   7.055
10441POPC   C4B62134  21.213  42.923   7.355
10442POPC   NC362135  43.110  37.696   5.555
10442POPC   PO462136  43.087  37.638   5.855
10442POPC   GL162137  43.110  37.671   6.155
10442POPC   GL262138  43.101  37.806   6.155
10442POPC   C1A62139  43.108  37.728   6.455
10442POPC   D2A62140  43.114  37.667   6.755
10442POPC   C3A62141  43.076  37.646   7.055
10442POPC   C4A62142  43.099  37.633   7.355
10442POPC   C1B62143  43.098  37.976   6.455
10442POPC   C2B62144  43.114  37.882   6.755
10442POPC   C3B62145  43.089  37.977   7.055
10442POPC   C4B62146  43.151  37.928   7.355
10443POPC   NC362147   4.347   5.056   5.555
10443POPC   PO462148   4.296   5.082   5.855
10443POPC   GL162149   4.357   5.107   6.155
10443POPC   GL262150   4.385   4.969   6.155
10443POPC   C1A62151   4.353   5.110   6.455
10443POPC   D2A62152   4.324   5.091   6.755
10443POPC   C3A62153   4.311   5.082   7.055
10443POPC   C4A62154   4.272   5.138   7.355
10443POPC   C1B62155   4.517   4.925   6.455
10443POPC   C2B62156   4.537   4.942   6.755
10443POPC   C3B62157   4.554   4.957   7.055
10443POPC   C4B62158   4.529   4.980   7.355
10444POPC   NC362159  30.656  36.122   5.555
10444POPC   PO462160  30.677  36.114   5.855
10444POPC   GL162161  30.736  36.159   6.155
10444POPC   GL262162  30.805  36.172   6.155
10444POPC   C1A62163  30.666  36.149   6.455
10444POPC   D2A62164  30.679  36.087   6.755
10444POPC   C3A62165  30.682  36.122   7.055
10444POPC   C4A62166  30.740  36.085   7.355
10444POPC   C1B62167  30.953  36.129   6.455
10444POPC   C2B62168  30.952  36.176   6.755
10444POPC   C3B62169  30.954  36.135   7.055
10444POPC   C4B62170  30.920  36.201   7.355
10445POPC   NC362171  17.530  40.041   5.555
10445POPC   PO462172  17.538  40.044   5.855
10445POPC   GL162173  17.495  39.990   6.155
10445POPC   GL262174  17.610  39.874   6.155
10445POPC   C1A62175  17.525  39.976   6.455
10445POPC   D2A62176  17.475  40.053   6.755
10445POPC   C3A62177  17.550  39.999   7.055
10445POPC   C4A62178  17.544  39.967   7.355
10445POPC   C1B62179  17.666  39.794   6.455
10445POPC   C2B62180  17.695  39.823   6.755
10445POPC   C3B62181  17.704  39.795   7.055
10445POPC   C4B62182  17.636  39.857   7.355
10446POPC   NC362183  24.482  43.903   5.555
10446POPC   PO462184  24.484  43.915   5.855
10446POPC   GL162185  24.484  43.902   6.155
10446POPC   GL262186  24.512  43.738   6.155
10446POPC   C1A62187  24.539  43.925   6.455
10446POPC   D2A62188  24.498  43.922   6.755
10446POPC   C3A62189  24.490  43.891   7.055
10446POPC   C4A62190  24.520  43.869   7.355
10446POPC   C1B62191  24.652  43.629   6.455
10446POPC   C2B62192  24.631  43.699   6.755
10446POPC   C3B62193  24.634  43.621   7.055
10446POPC   C4B62194  24.598  43.700   7.355
10447POPC   NC362195   1.986   3.574   5.555
10447POPC   PO462196   2.037   3.495   5.855
10447POPC   GL162197   2.001   3.545   6.155
10447POPC   GL262198   1.903   3.537   6.155
10447POPC   C1A62199   1.957   3.520   6.455
10447POPC   D2A62200   1.941   3.577   6.755
10447POPC   C3A62201   1.952   3.519   7.055
10447POPC   C4A62202   1.951   3.521   7.355
10447POPC   C1B62203   1.757   3.573   6.455
10447POPC   C2B62204   1.782   3.641   6.755
10447POPC   C3B62205   1.770   3.591   7.055
10447POPC   C4B62206   1.750   3.573   7.355
10448POPC   NC362207  41.584  41.549   5.555
10448POPC   PO462208  41.549  41.579   5.855
10448POPC   GL162209  41.590  41.562   6.155
10448POPC   GL262210  41.455  41.619   6.155
10448POPC   C1A62211  41.558  41.552   6.455
10448POPC   D2A62212  41.540  41.517   6.755
10448POPC   C3A62213  41.555  41.567   7.055
10448POPC   C4A62214  41.543  41.551   7.355
10448POPC   C1B62215  41.461  41.769   6.455
10448POPC   C2B62216  41.402  41.753   6.755
10448POPC   C3B62217  41.451  41.816   7.055
10448POPC   C4B62218  41.483  41.749   7.355
10449POPC   NC362219  16.004  33.818   5.555
10449POPC   PO462220  15.977  33.757   5.855
10449POPC   GL162221  15.935  33.793   6.155
10449POPC   GL262222  15.980  33.657   6.155
10449POPC   C1A62223  15.951  33.819   6.455
10449POPC   D2A62224  15.987  33.770   6.755
10449POPC   C3A62225  15.927  33.774   7.055
10449POPC   C4A62226  15.982  33.781   7.355
10449POPC   C1B62227  15.996  33.559   6.455
10449POPC   C2B62228  15.966  33.594   6.755
10449POPC   C3B62229  15.925  33.564   7.055
10449POPC   C4B62230  15.984  33.548   7.355
10450POPC   NC362231  12.052  24.443   5.555
10450POPC   PO462232  12.066  24.467   5.855
10450POPC   GL162233  12.080  24.457   6.155
10450POPC   GL262234  11.925  24.473   6.155
10450POPC   C1A62235  12.111  24.463   6.455
10450POPC   D2A62236  12.099  24.490   6.755
10450POPC   C3A62237  12.046  24.445   7.055
10450POPC   C4A62238  12.058  24.493   7.355
10450POPC   C1B62239  11.842  24.392   6.455
10450POPC   C2B62240  11.820  24.340   6.755
10450POPC   C3B62241  11.878  24.376   7.055
10450POPC   C4B62242  11.818  24.372   7.355
10451POPC   NC362243  23.740   2.785   5.555
10451POPC   PO462244  23.691   2.728   5.855
10451POPC   GL162245  23.681   2.811   6.155
10451POPC   GL262246  23.687   2.644   6.155
10451POPC   C1A62247  23.762   2.776   6.455
10451POPC   D2A62248  23.683   2.726   6.755
10451POPC   C3A62249  23.701   2.800   7.055
10451POPC   C4A62250  23.732   2.795   7.355
10451POPC   C1B62251  23.775   2.481   6.455
10451POPC   C2B62252  23.709   2.488   6.755
10451POPC   C3B62253  23.731   2.555   7.055
10451POPC   C4B62254  23.734   2.559   7.355
10452POPC   NC362255  15.184  14.362   5.555
10452POPC   PO462256  15.154  14.434   5.855
10452POPC   GL162257  15.150  14.356   6.155
10452POPC   GL262258  15.244  14.323   6.155
10452POPC   C1A62259  15.134  14.356   6.455
10452POPC   D2A62260  15.142  14.384   6.755
10452POPC   C3A62261  15.213  14.379   7.055
10452POPC   C4A62262  15.145  14.369   7.355
10452POPC   C1B62263  15.304  14.179   6.455
10452POPC   C2B62264  15.247  14.174   6.755
10452POPC   C3B62265  15.232  14.133   7.055
10452POPC   C4B62266  15.300  14.162   7.355
10453POPC   NC362267  35.366   9.787   5.555
10453POPC   PO462268  35.352   9.713   5.855
10453POPC   GL162269  35.350   9.741   6.155
10453POPC   GL262270  35.449   9.607   6.155
10453POPC   C1A62271  35.309   9.707   6.455
10453POPC   D2A62272  35.380   9.732   6.755
10453POPC   C3A62273  35.372   9.724   7.055
10453POPC   C4A62274  35.308   9.788   7.355
10453POPC   C1B62275  35.473   9.496   6.455
10453POPC   C2B62276  35.447   9.546   6.755
10453POPC   C3B62277  35.529   9.515   7.055
10453POPC   C4B62278  35.448   9.577   7.355
10454POPC   NC362279  13.625  22.965   5.555
10454POPC   PO462280  13.604  22.913   5.855
10454POPC   GL162281  13.640  22.914   6.155
10454POPC   GL262282  13.711  23.018   6.155
10454POPC   C1A62283  13.605  22.910   6.455
10454POPC   D2A62284  13.637  22.970   6.755
10454POPC   C3A62285  13.624  22.979   7.055
10454POPC   C4A62286  13.626  22.954   7.355
10454POPC   C1B62287  13.785  23.205   6.455
10454POPC   C2B62288  13.719  23.190   6.755
10454POPC   C3B62289  13.774  23.128   7.055
10454POPC   C4B62290  13.698  23.190   7.355
10455POPC   NC362291  36.941  29.127   5.555
10455POPC   PO462292  36.944  29.184   5.855
10455POPC   GL162293  36.885  29.183   6.155
10455POPC   GL262294  37.028  29.071   6.155
10455POPC   C1A62295  36.938  29.126   6.455
10455POPC   D2A62296  36.931  29.187   6.755
10455POPC   C3A62297  36.916  29.108   7.055
10455POPC   C4A62298  36.946  29.156   7.355
10455POPC   C1B62299  37.053  29.006   6.455
10455POPC   C2B62300  37.126  28.968   6.755
10455POPC   C3B62301  37.109  29.017   7.055
10455POPC   C4B62302  37.076  28.987   7.355
10456POPC   NC362303  28.336  22.960   5.555
10456POPC   PO462304  28.355  22.977   5.855
10456POPC   GL162305  28.376  22.913   6.155
10456POPC   GL262306  28.245  22.821   6.155
10456POPC   C1A62307  28.341  22.926   6.455
10456POPC   D2A62308  28.378  22.973   6.755
10456POPC   C3A62309  28.394  22.892   7.055
10456POPC   C4A62310  28.329  22.982   7.355
10456POPC   C1B62311  28.218  22.745   6.455
10456POPC   C2B62312  28.167  22.813   6.755
10456POPC   C3B62313  28.203  22.796   7.055
10456POPC   C4B62314  28.200  22.807   7.355
10457POPC   NC362315  15.186   7.451   5.555
10457POPC   PO462316  15.169   7.392   5.855
10457POPC   GL162317  15.175   7.464   6.155
10457POPC   GL262318  15.132   7.508   6.155
10457POPC   C1A62319  15.214   7.403   6.455
10457POPC   D2A62320  15.182   7.386   6.755
10457POPC   C3A62321  15.150   7.418   7.055
10457POPC   C4A62322  15.163   7.371   7.355
10457POPC   C1B62323  15.063   7.652   6.455
10457POPC   C2B62324  15.003   7.589   6.755
10457POPC   C3B62325  15.055   7.578   7.055
10457POPC   C4B62326  15.029   7.629   7.355
10458POPC   NC362327  37.706  10.538   5.555
10458POPC   PO462328  37.700  10.542   5.855
10458POPC   GL162329  37.705  10.498   6.155
10458POPC   GL262330  37.592  10.503   6.155
10458POPC   C1A62331  37.653  10.496   6.455
10458POPC   D2A62332  37.703  10.474   6.755
10458POPC   C3A62333  37.685  10.513   7.055
10458POPC   C4A62334  37.723  10.505   7.355
10458POPC   C1B62335  37.408  10.478   6.455
10458POPC   C2B62336  37.435  10.471   6.755
10458POPC   C3B62337  37.393  10.401   7.055
10458POPC   C4B62338  37.488  10.430   7.355
10459POPC   NC362339  10.475  16.759   5.555
10459POPC   PO462340  10.501  16.741   5.855
10459POPC   GL162341  10.520  16.740   6.155
10459POPC   GL262342  10.579  16.866   6.155
10459POPC   C1A62343  10.543  16.750   6.455
10459POPC   D2A62344  10.528  16.748   6.755
10459POPC   C3A62345  10.494  16.685   7.055
10459POPC   C4A62346  10.547  16.753   7.355
10459POPC   C1B62347  10.535  16.941   6.455
10459POPC   C2B62348  10.537  16.970   6.755
10459POPC   C3B62349  10.626  16.940   7.055
10459POPC   C4B62350  10.540  16.995   7.355
10460POPC   NC362351   4.287   8.203   5.555
10460POPC   PO462352   4.323   8.198   5.855
10460POPC   GL162353   4.293   8.217   6.155
10460POPC   GL262354   4.299   8.065   6.155
10460POPC   C1A62355   4.348   8.197   6.455
10460POPC   D2A62356   4.332   8.157   6.755
10460POPC   C3A62357   4.274   8.179   7.055
10460POPC   C4A62358   4.303   8.214   7.355
10460POPC   C1B62359   4.240   7.981   6.455
10460POPC   C2B62360   4.224   7.917   6.755
10460POPC   C3B62361   4.229   7.959   7.055
10460POPC   C4B62362   4.274   7.956   7.355
10461POPC   NC362363   5.106  44.644   5.555
10461POPC   PO462364   5.080  44.665   5.855
10461POPC   GL162365   5.057  44.706   6.155
10461POPC   GL262366   5.060  44.577   6.155
10461POPC   C1A62367   5.073  44.626   6.455
10461POPC   D2A62368   5.059  44.623   6.755
10461POPC   C3A62369   5.050  44.699   7.055
10461POPC   C4A62370   5.080  44.676   7.355
10461POPC   C1B62371   5.008  44.428   6.455
10461POPC   C2B62372   4.971  44.474   6.755
10461POPC   C3B62373   5.031  44.437   7.055
10461POPC   C4B62374   5.021  44.452   7.355
10462POPC   NC362375  11.331  29.158   5.555
10462POPC   PO462376  11.299  29.182   5.855
10462POPC   GL162377  11.300  29.128   6.155
10462POPC   GL262378  11.286  28.998   6.155
10462POPC   C1A62379  11.344  29.113   6.455
10462POPC   D2A62380  11.322  29.176   6.755
10462POPC   C3A62381  11.294  29.127   7.055
10462POPC   C4A62382  11.255  29.185   7.355
10462POPC   C1B62383  11.352  28.892   6.455
10462POPC   C2B62384  11.312  28.905   6.755
10462POPC   C3B62385  11.308  28.935   7.055
10462POPC   C4B62386  11.340  28.906   7.355
10463POPC   NC362387  23.679  23.759   5.555
10463POPC   PO462388  23.727  23.668   5.855
10463POPC   GL162389  23.698  23.761   6.155
10463POPC   GL262390  23.815  23.613   6.155
10463POPC   C1A62391  23.757  23.746   6.455
10463POPC   D2A62392  23.729  23.730   6.755
10463POPC   C3A62393  23.717  23.697   7.055
10463POPC   C4A62394  23.681  23.749   7.355
10463POPC   C1B62395  23.865  23.544   6.455
10463POPC   C2B62396  23.856  23.496   6.755
10463POPC   C3B62397  23.893  23.460   7.055
10463POPC   C4B62398  23.842  23.503   7.355
10464POPC   NC362399  42.358  35.348   5.555
10464POPC   PO462400  42.316  35.336   5.855
10464POPC   GL162401  42.371  35.401   6.155
10464POPC   GL262402  42.231  35.388   6.155
10464POPC   C1A62403  42.304  35.341   6.455
10464POPC   D2A62404  42.301  35.334   6.755
10464POPC   C3A62405  42.329  35.319   7.055
10464POPC   C4A62406  42.346  35.368   7.355
10464POPC   C1B62407  42.147  35.445   6.455
10464POPC   C2B62408  42.096  35.451   6.755
10464POPC   C3B62409  42.160  35.434   7.055
10464POPC   C4B62410  42.093  35.463   7.355
10465POPC   NC362411  35.385  22.144   5.555
10465POPC   PO462412  35.374  22.123   5.855
10465POPC   GL162413  35.359  22.150   6.155
10465POPC   GL262414  35.466  22.214   6.155
10465POPC   C1A62415  35.354  22.156   6.455
10465POPC   D2A62416  35.371  22.157   6.755
10465POPC   C3A62417  35.321  22.124   7.055
10465POPC   C4A62418  35.355  22.188   7.355
10465POPC   C1B62419  35.516  22.388   6.455
10465POPC   C2B62420  35.488  22.362   6.755
10465POPC   C3B62421  35.515  22.356   7.055
10465POPC   C4B62422  35.569  22.382   7.355
10466POPC   NC362423   5.101   0.465   5.555
10466POPC   PO462424   5.068   0.471   5.855
10466POPC   GL162425   5.072   0.471   6.155
10466POPC   GL262426   5.231   0.513   6.155
10466POPC   C1A62427   5.106   0.468   6.455
10466POPC   D2A62428   5.046   0.427   6.755
10466POPC   C3A62429   5.090   0.476   7.055
10466POPC   C4A62430   5.104   0.443   7.355
10466POPC   C1B62431   5.360   0.568   6.455
10466POPC   C2B62432   5.329   0.573   6.755
10466POPC   C3B62433   5.279   0.549   7.055
10466POPC   C4B62434   5.312   0.557   7.355
10467POPC   NC362435  35.318   6.612   5.555
10467POPC   PO462436  35.350   6.671   5.855
10467POPC   GL162437  35.393   6.637   6.155
10467POPC   GL262438  35.240   6.620   6.155
10467POPC   C1A62439  35.369   6.647   6.455
10467POPC   D2A62440  35.358   6.654   6.755
10467POPC   C3A62441  35.358   6.595   7.055
10467POPC   C4A62442  35.332   6.654   7.355
10467POPC   C1B62443  35.068   6.638   6.455
10467POPC   C2B62444  35.115   6.679   6.755
10467POPC   C3B62445  35.084   6.662   7.055
10467POPC   C4B62446  35.108   6.637   7.355
10468POPC   NC362447   1.251   8.223   5.555
10468POPC   PO462448   1.263   8.169   5.855
10468POPC   GL162449   1.252   8.204   6.155
10468POPC   GL262450   1.198   8.306   6.155
10468POPC   C1A62451   1.186   8.170   6.455
10468POPC   D2A62452   1.226   8.237   6.755
10468POPC   C3A62453   1.209   8.233   7.055
10468POPC   C4A62454   1.263   8.156   7.355
10468POPC   C1B62455   1.244   8.417   6.455
10468POPC   C2B62456   1.273   8.429   6.755
10468POPC   C3B62457   1.235   8.478   7.055
10468POPC   C4B62458   1.282   8.458   7.355
10469POPC   NC362459  43.084  17.548   5.555
10469POPC   PO462460  43.069  17.479   5.855
10469POPC   GL162461  43.070  17.543   6.155
10469POPC   GL262462  43.219  17.533   6.155
10469POPC   C1A62463  43.097  17.490   6.455
10469POPC   D2A62464  43.063  17.493   6.755
10469POPC   C3A62465  43.086  17.522   7.055
10469POPC   C4A62466  43.152  17.547   7.355
10469POPC   C1B62467  43.300  17.632   6.455
10469POPC   C2B62468  43.341  17.581   6.755
10469POPC   C3B62469  43.328  17.630   7.055
10469POPC   C4B62470  43.358  17.611   7.355
10470POPC   NC362471  34.602  17.552   5.555
10470POPC   PO462472  34.625  17.535   5.855
10470POPC   GL162473  34.565  17.519   6.155
10470POPC   GL262474  34.429  17.409   6.155
10470POPC   C1A62475  34.599  17.486   6.455
10470POPC   D2A62476  34.576  17.504   6.755
10470POPC   C3A62477  34.610  17.461   7.055
10470POPC   C4A62478  34.606  17.508   7.355
10470POPC   C1B62479  34.321  17.410   6.455
10470POPC   C2B62480  34.326  17.425   6.755
10470POPC   C3B62481  34.381  17.367   7.055
10470POPC   C4B62482  34.351  17.414   7.355
10471POPC   NC362483  28.325   5.904   5.555
10471POPC   PO462484  28.369   5.835   5.855
10471POPC   GL162485  28.358   5.862   6.155
10471POPC   GL262486  28.303   5.726   6.155
10471POPC   C1A62487  28.370   5.847   6.455
10471POPC   D2A62488  28.331   5.858   6.755
10471POPC   C3A62489  28.388   5.839   7.055
10471POPC   C4A62490  28.413   5.889   7.355
10471POPC   C1B62491  28.248   5.669   6.455
10471POPC   C2B62492  28.312   5.642   6.755
10471POPC   C3B62493  28.330   5.634   7.055
10471POPC   C4B62494  28.288   5.659   7.355
10472POPC   NC362495  44.634  30.705   5.555
10472POPC   PO462496  44.689  30.727   5.855
10472POPC   GL162497  44.710  30.702   6.155
10472POPC   GL262498  44.626  30.570   6.155
10472POPC   C1A62499  44.678  30.716   6.455
10472POPC   D2A62500  44.710  30.738   6.755
10472POPC   C3A62501  44.613  30.656   7.055
10472POPC   C4A62502  44.652  30.703   7.355
10472POPC   C1B62503  44.610  30.405   6.455
10472POPC   C2B62504  44.602  30.475   6.755
10472POPC   C3B62505  44.600  30.425   7.055
10472POPC   C4B62506  44.622  30.427   7.355
10473POPC   NC362507  14.360  34.571   5.555
10473POPC   PO462508  14.363  34.601   5.855
10473POPC   GL162509  14.382  34.560   6.155
10473POPC   GL262510  14.346  34.715   6.155
10473POPC   C1A62511  14.435  34.601   6.455
10473POPC   D2A62512  14.367  34.613   6.755
10473POPC   C3A62513  14.441  34.619   7.055
10473POPC   C4A62514  14.356  34.552   7.355
10473POPC   C1B62515  14.327  34.812   6.455
10473POPC   C2B62516  14.364  34.779   6.755
10473POPC   C3B62517  14.343  34.841   7.055
10473POPC   C4B62518  14.371  34.780   7.355
10474POPC   NC362519   8.959  22.963   5.555
10474POPC   PO462520   8.951  22.971   5.855
10474POPC   GL162521   9.019  22.940   6.155
10474POPC   GL262522   9.001  23.075   6.155
10474POPC   C1A62523   8.944  22.979   6.455
10474POPC   D2A62524   9.011  22.949   6.755
10474POPC   C3A62525   8.949  22.894   7.055
10474POPC   C4A62526   8.950  22.919   7.355
10474POPC   C1B62527   9.121  23.109   6.455
10474POPC   C2B62528   9.057  23.120   6.755
10474POPC   C3B62529   9.135  23.178   7.055
10474POPC   C4B62530   9.058  23.148   7.355
10475POPC   NC362531  39.984   5.113   5.555
10475POPC   PO462532  39.974   5.106   5.855
10475POPC   GL162533  40.019   5.063   6.155
10475POPC   GL262534  39.987   4.960   6.155
10475POPC   C1A62535  40.020   5.096   6.455
10475POPC   D2A62536  40.001   5.062   6.755
10475POPC   C3A62537  39.962   5.078   7.055
10475POPC   C4A62538  39.983   5.098   7.355
10475POPC   C1B62539  39.996   4.824   6.455
10475POPC   C2B62540  40.021   4.855   6.755
10475POPC   C3B62541  40.077   4.827   7.055
10475POPC   C4B62542  40.038   4.802   7.355
10476POPC   NC362543   9.758  42.354   5.555
10476POPC   PO462544   9.711  42.309   5.855
10476POPC   GL162545   9.721  42.379   6.155
10476POPC   GL262546   9.802  42.234   6.155
10476POPC   C1A62547   9.769  42.304   6.455
10476POPC   D2A62548   9.754  42.340   6.755
10476POPC   C3A62549   9.739  42.365   7.055
10476POPC   C4A62550   9.778  42.306   7.355
10476POPC   C1B62551   9.811  42.118   6.455
10476POPC   C2B62552   9.862  42.105   6.755
10476POPC   C3B62553   9.834  42.127   7.055
10476POPC   C4B62554   9.786  42.102   7.355
10477POPC   NC362555  40.752  10.507   5.555
10477POPC   PO462556  40.828  10.535   5.855
10477POPC   GL162557  40.811  10.562   6.155
10477POPC   GL262558  40.751  10.434   6.155
10477POPC   C1A62559  40.784  10.514   6.455
10477POPC   D2A62560  40.736  10.476   6.755
10477POPC   C3A62561  40.753  10.520   7.055
10477POPC   C4A62562  40.754  10.501   7.355
10477POPC   C1B62563  40.662  10.287   6.455
10477POPC   C2B62564  40.706  10.322   6.755
10477POPC   C3B62565  40.747  10.319   7.055
10477POPC   C4B62566  40.678  10.329   7.355
10478POPC   NC362567  40.756  22.178   5.555
10478POPC   PO462568  40.801  22.170   5.855
10478POPC   GL162569  40.770  22.192   6.155
10478POPC   GL262570  40.894  22.118   6.155
10478POPC   C1A62571  40.734  22.201   6.455
10478POPC   D2A62572  40.825  22.189   6.755
10478POPC   C3A62573  40.742  22.190   7.055
10478POPC   C4A62574  40.769  22.178   7.355
10478POPC   C1B62575  40.907  21.954   6.455
10478POPC   C2B62576  40.949  22.015   6.755
10478POPC   C3B62577  40.952  22.014   7.055
10478POPC   C4B62578  40.967  21.937   7.355
10479POPC   NC362579  16.721  10.560   5.555
10479POPC   PO462580  16.723  10.481   5.855
10479POPC   GL162581  16.714  10.526   6.155
10479POPC   GL262582  16.803  10.660   6.155
10479POPC   C1A62583  16.753  10.551   6.455
10479POPC   D2A62584  16.698  10.521   6.755
10479POPC   C3A62585  16.722  10.483   7.055
10479POPC   C4A62586  16.768  10.548   7.355
10479POPC   C1B62587  16.872  10.682   6.455
10479POPC   C2B62588  16.943  10.739   6.755
10479POPC   C3B62589  16.876  10.685   7.055
10479POPC   C4B62590  16.908  10.714   7.355
10480POPC   NC362591   4.354  18.252   5.555
10480POPC   PO462592   4.276  18.301   5.855
10480POPC   GL162593   4.283  18.288   6.155
10480POPC   GL262594   4.380  18.207   6.155
10480POPC   C1A62595   4.366  18.286   6.455
10480POPC   D2A62596   4.298  18.314   6.755
10480POPC   C3A62597   4.353  18.321   7.055
10480POPC   C4A62598   4.335  18.295   7.355
10480POPC   C1B62599   4.520  18.162   6.455
10480POPC   C2B62600   4.583  18.183   6.755
10480POPC   C3B62601   4.578  18.142   7.055
10480POPC   C4B62602   4.535  18.204   7.355
10481POPC   NC362603  12.055  22.145   5.555
10481POPC   PO462604  12.033  22.149   5.855
10481POPC   GL162605  12.037  22.212   6.155
10481POPC   GL262606  12.148  22.107   6.155
10481POPC   C1A62607  12.028  22.200   6.455
10481POPC   D2A62608  12.088  22.113   6.755
10481POPC   C3A62609  12.062  22.202   7.055
10481POPC   C4A62610  12.073  22.151   7.355
10481POPC   C1B62611  12.258  21.932   6.455
10481POPC   C2B62612  12.224  21.950   6.755
10481POPC   C3B62613  12.223  21.981   7.055
10481POPC   C4B62614  12.228  22.008   7.355
10482POPC   NC362615  13.633  33.807   5.555
10482POPC   PO462616  13.583  33.768   5.855
10482POPC   GL162617  13.644  33.806   6.155
10482POPC   GL262618  13.768  33.858   6.155
10482POPC   C1A62619  13.636  33.823   6.455
10482POPC   D2A62620  13.587  33.823   6.755
10482POPC   C3A62621  13.668  33.762   7.055
10482POPC   C4A62622  13.607  33.765   7.355
10482POPC   C1B62623  13.861  33.797   6.455
10482POPC   C2B62624  13.889  33.800   6.755
10482POPC   C3B62625  13.869  33.797   7.055
10482POPC   C4B62626  13.835  33.800   7.355
10483POPC   NC362627   2.010  34.571   5.555
10483POPC   PO462628   1.985  34.613   5.855
10483POPC   GL162629   1.983  34.622   6.155
10483POPC   GL262630   2.048  34.449   6.155
10483POPC   C1A62631   1.999  34.586   6.455
10483POPC   D2A62632   1.992  34.565   6.755
10483POPC   C3A62633   1.956  34.544   7.055
10483POPC   C4A62634   2.004  34.534   7.355
10483POPC   C1B62635   2.112  34.389   6.455
10483POPC   C2B62636   2.089  34.383   6.755
10483POPC   C3B62637   2.113  34.336   7.055
10483POPC   C4B62638   2.110  34.358   7.355
10484POPC   NC362639  29.160   2.771   5.555
10484POPC   PO462640  29.100   2.773   5.855
10484POPC   GL162641  29.182   2.744   6.155
10484POPC   GL262642  29.257   2.817   6.155
10484POPC   C1A62643  29.122   2.733   6.455
10484POPC   D2A62644  29.173   2.779   6.755
10484POPC   C3A62645  29.123   2.748   7.055
10484POPC   C4A62646  29.151   2.760   7.355
10484POPC   C1B62647  29.346   2.959   6.455
10484POPC   C2B62648  29.295   2.971   6.755
10484POPC   C3B62649  29.324   2.900   7.055
10484POPC   C4B62650  29.293   2.936   7.355
10485POPC   NC362651  36.171  35.393   5.555
10485POPC   PO462652  36.107  35.380   5.855
10485POPC   GL162653  36.078  35.365   6.155
10485POPC   GL262654  36.298  35.371   6.155
10485POPC   C1A62655  36.094  35.358   6.455
10485POPC   D2A62656  36.131  35.346   6.755
10485POPC   C3A62657  36.161  35.340   7.055
10485POPC   C4A62658  36.175  35.337   7.355
10485POPC   C1B62659  36.379  35.410   6.455
10485POPC   C2B62660  36.329  35.423   6.755
10485POPC   C3B62661  36.407  35.423   7.055
10485POPC   C4B62662  36.370  35.338   7.355
10486POPC   NC362663  44.642  19.052   5.555
10486POPC   PO462664  44.693  19.093   5.855
10486POPC   GL162665  44.700  19.043   6.155
10486POPC   GL262666  44.651  18.915   6.155
10486POPC   C1A62667  44.663  19.065   6.455
10486POPC   D2A62668  44.660  19.085   6.755
10486POPC   C3A62669  44.642  19.012   7.055
10486POPC   C4A62670  44.699  19.058   7.355
10486POPC   C1B62671  44.661  18.826   6.455
10486POPC   C2B62672  44.705  18.810   6.755
10486POPC   C3B62673  44.682  18.837   7.055
10486POPC   C4B62674  44.656  18.810   7.355
10487POPC   NC362675  13.579  39.984   5.555
10487POPC   PO462676  13.630  40.019   5.855
10487POPC   GL162677  13.670  40.017   6.155
10487POPC   GL262678  13.694  39.936   6.155
10487POPC   C1A62679  13.581  39.995   6.455
10487POPC   D2A62680  13.627  40.015   6.755
10487POPC   C3A62681  13.603  40.045   7.055
10487POPC   C4A62682  13.605  39.995   7.355
10487POPC   C1B62683  13.747  39.812   6.455
10487POPC   C2B62684  13.710  39.815   6.755
10487POPC   C3B62685  13.752  39.739   7.055
10487POPC   C4B62686  13.691  39.797   7.355
10488POPC   NC362687  20.604  40.806   5.555
10488POPC   PO462688  20.567  40.734   5.855
10488POPC   GL162689  20.649  40.734   6.155
10488POPC   GL262690  20.735  40.667   6.155
10488POPC   C1A62691  20.636  40.779   6.455
10488POPC   D2A62692  20.566  40.799   6.755
10488POPC   C3A62693  20.579  40.822   7.055
10488POPC   C4A62694  20.655  40.761   7.355
10488POPC   C1B62695  20.807  40.645   6.455
10488POPC   C2B62696  20.801  40.666   6.755
10488POPC   C3B62697  20.776  40.620   7.055
10488POPC   C4B62698  20.765  40.654   7.355
10489POPC   NC362699  15.140  31.520   5.555
10489POPC   PO462700  15.147  31.459   5.855
10489POPC   GL162701  15.130  31.467   6.155
10489POPC   GL262702  15.112  31.363   6.155
10489POPC   C1A62703  15.156  31.441   6.455
10489POPC   D2A62704  15.204  31.492   6.755
10489POPC   C3A62705  15.180  31.449   7.055
10489POPC   C4A62706  15.197  31.489   7.355
10489POPC   C1B62707  14.989  31.321   6.455
10489POPC   C2B62708  15.013  31.299   6.755
10489POPC   C3B62709  15.021  31.358   7.055
10489POPC   C4B62710  14.938  31.344   7.355
10490POPC   NC362711   7.383   0.430   5.555
10490POPC   PO462712   7.372   0.417   5.855
10490POPC   GL162713   7.414   0.391   6.155
10490POPC   GL262714   7.260   0.479   6.155
10490POPC   C1A62715   7.396   0.396   6.455
10490POPC   D2A62716   7.376   0.424   6.755
10490POPC   C3A62717   7.404   0.465   7.055
10490POPC   C4A62718   7.420   0.405   7.355
10490POPC   C1B62719   7.176   0.530   6.455
10490POPC   C2B62720   7.192   0.519   6.755
10490POPC   C3B62721   7.213   0.499   7.055
10490POPC   C4B62722   7.218   0.520   7.355
10491POPC   NC362723  30.717  16.775   5.555
10491POPC   PO462724  30.708  16.765   5.855
10491POPC   GL162725  30.742  16.765   6.155
10491POPC   GL262726  30.575  16.721   6.155
10491POPC   C1A62727  30.732  16.744   6.455
10491POPC   D2A62728  30.653  16.760   6.755
10491POPC   C3A62729  30.675  16.710   7.055
10491POPC   C4A62730  30.652  16.690   7.355
10491POPC   C1B62731  30.490  16.734   6.455
10491POPC   C2B62732  30.467  16.746   6.755
10491POPC   C3B62733  30.413  16.815   7.055
10491POPC   C4B62734  30.448  16.821   7.355
10492POPC   NC362735   5.141  35.384   5.555
10492POPC   PO462736   5.064  35.382   5.855
10492POPC   GL162737   5.092  35.330   6.155
10492POPC   GL262738   5.164  35.467   6.155
10492POPC   C1A62739   5.089  35.356   6.455
10492POPC   D2A62740   5.139  35.361   6.755
10492POPC   C3A62741   5.092  35.395   7.055
10492POPC   C4A62742   5.051  35.361   7.355
10492POPC   C1B62743   5.257  35.545   6.455
10492POPC   C2B62744   5.256  35.550   6.755
10492POPC   C3B62745   5.246  35.541   7.055
10492POPC   C4B62746   5.305  35.565   7.355
10493POPC   NC362747  38.418  25.243   5.555
10493POPC   PO462748  38.456  25.228   5.855
10493POPC   GL162749  38.445  25.291   6.155
10493POPC   GL262750  38.332  25.239   6.155
10493POPC   C1A62751  38.454  25.233   6.455
10493POPC   D2A62752  38.501  25.231   6.755
10493POPC   C3A62753  38.469  25.272   7.055
10493POPC   C4A62754  38.473  25.295   7.355
10493POPC   C1B62755  38.223  25.289   6.455
10493POPC   C2B62756  38.182  25.207   6.755
10493POPC   C3B62757  38.243  25.274   7.055
10493POPC   C4B62758  38.156  25.217   7.355
10494POPC   NC362759  43.891  23.755   5.555
10494POPC   PO462760  43.874  23.746   5.855
10494POPC   GL162761  43.852  23.678   6.155
10494POPC   GL262762  43.931  23.611   6.155
10494POPC   C1A62763  43.915  23.704   6.455
10494POPC   D2A62764  43.931  23.692   6.755
10494POPC   C3A62765  43.914  23.727   7.055
10494POPC   C4A62766  43.859  23.676   7.355
10494POPC   C1B62767  44.088  23.477   6.455
10494POPC   C2B62768  44.084  23.511   6.755
10494POPC   C3B62769  44.084  23.549   7.055
10494POPC   C4B62770  44.091  23.520   7.355
10495POPC   NC362771  12.855  13.641   5.555
10495POPC   PO462772  12.831  13.628   5.855
10495POPC   GL162773  12.878  13.607   6.155
10495POPC   GL262774  12.758  13.563   6.155
10495POPC   C1A62775  12.844  13.589   6.455
10495POPC   D2A62776  12.840  13.579   6.755
10495POPC   C3A62777  12.888  13.675   7.055
10495POPC   C4A62778  12.829  13.594   7.355
10495POPC   C1B62779  12.639  13.608   6.455
10495POPC   C2B62780  12.603  13.585   6.755
10495POPC   C3B62781  12.589  13.610   7.055
10495POPC   C4B62782  12.566  13.537   7.355
10496POPC   NC362783   3.518  36.101   5.555
10496POPC   PO462784   3.494  36.147   5.855
10496POPC   GL162785   3.525  36.095   6.155
10496POPC   GL262786   3.608  36.202   6.155
10496POPC   C1A62787   3.568  36.117   6.455
10496POPC   D2A62788   3.524  36.115   6.755
10496POPC   C3A62789   3.548  36.168   7.055
10496POPC   C4A62790   3.526  36.149   7.355
10496POPC   C1B62791   3.736  36.223   6.455
10496POPC   C2B62792   3.747  36.245   6.755
10496POPC   C3B62793   3.779  36.280   7.055
10496POPC   C4B62794   3.750  36.242   7.355
10497POPC   NC362795  15.963  38.489   5.555
10497POPC   PO462796  15.921  38.432   5.855
10497POPC   GL162797  15.947  38.502   6.155
10497POPC   GL262798  16.083  38.595   6.155
10497POPC   C1A62799  15.981  38.503   6.455
10497POPC   D2A62800  15.955  38.407   6.755
10497POPC   C3A62801  15.907  38.458   7.055
10497POPC   C4A62802  16.003  38.477   7.355
10497POPC   C1B62803  16.127  38.611   6.455
10497POPC   C2B62804  16.116  38.642   6.755
10497POPC   C3B62805  16.134  38.685   7.055
10497POPC   C4B62806  16.064  38.698   7.355
10498POPC   NC362807  16.765   3.516   5.555
10498POPC   PO462808  16.741   3.543   5.855
10498POPC   GL162809  16.751   3.553   6.155
10498POPC   GL262810  16.824   3.492   6.155
10498POPC   C1A62811  16.683   3.552   6.455
10498POPC   D2A62812  16.756   3.550   6.755
10498POPC   C3A62813  16.757   3.535   7.055
10498POPC   C4A62814  16.735   3.512   7.355
10498POPC   C1B62815  16.979   3.550   6.455
10498POPC   C2B62816  16.968   3.513   6.755
10498POPC   C3B62817  16.976   3.512   7.055
10498POPC   C4B62818  17.005   3.556   7.355
10499POPC   NC362819   6.643   5.826   5.555
10499POPC   PO462820   6.634   5.841   5.855
10499POPC   GL162821   6.607   5.862   6.155
10499POPC   GL262822   6.668   5.940   6.155
10499POPC   C1A62823   6.689   5.875   6.455
10499POPC   D2A62824   6.660   5.918   6.755
10499POPC   C3A62825   6.621   5.889   7.055
10499POPC   C4A62826   6.680   5.918   7.355
10499POPC   C1B62827   6.679   6.155   6.455
10499POPC   C2B62828   6.733   6.152   6.755
10499POPC   C3B62829   6.753   6.091   7.055
10499POPC   C4B62830   6.742   6.075   7.355
10500POPC   NC362831  42.289  30.680   5.555
10500POPC   PO462832  42.287  30.685   5.855
10500POPC   GL162833  42.361  30.714   6.155
10500POPC   GL262834  42.482  30.588   6.155
10500POPC   C1A62835  42.378  30.669   6.455
10500POPC   D2A62836  42.370  30.704   6.755
10500POPC   C3A62837  42.300  30.664   7.055
10500POPC   C4A62838  42.355  30.729   7.355
10500POPC   C1B62839  42.537  30.576   6.455
10500POPC   C2B62840  42.513  30.593   6.755
10500POPC   C3B62841  42.580  30.547   7.055
10500POPC   C4B62842  42.497  30.522   7.355
10501POPC   NC362843  33.773  14.404   5.555
10501POPC   PO462844  33.849  14.397   5.855
10501POPC   GL162845  33.771  14.443   6.155
10501POPC   GL262846  33.692  14.327   6.155
10501POPC   C1A62847  33.752  14.388   6.455
10501POPC   D2A62848  33.769  14.379   6.755
10501POPC   C3A62849  33.835  14.373   7.055
10501POPC   C4A62850  33.767  14.409   7.355
10501POPC   C1B62851  33.577  14.300   6.455
10501POPC   C2B62852  33.639  14.286   6.755
10501POPC   C3B62853  33.606  14.297   7.055
10501POPC   C4B62854  33.624  14.219   7.355
10502POPC   NC362855   4.340  19.019   5.555
10502POPC   PO462856   4.311  19.050   5.855
10502POPC   GL162857   4.347  19.048   6.155
10502POPC   GL262858   4.240  18.926   6.155
10502POPC   C1A62859   4.283  19.051   6.455
10502POPC   D2A62860   4.307  19.083   6.755
10502POPC   C3A62861   4.327  19.068   7.055
10502POPC   C4A62862   4.330  19.100   7.355
10502POPC   C1B62863   4.268  18.860   6.455
10502POPC   C2B62864   4.230  18.812   6.755
10502POPC   C3B62865   4.213  18.794   7.055
10502POPC   C4B62866   4.238  18.800   7.355
10503POPC   NC362867   8.214  10.545   5.555
10503POPC   PO462868   8.149  10.476   5.855
10503POPC   GL162869   8.213  10.494   6.155
10503POPC   GL262870   8.126  10.395   6.155
10503POPC   C1A62871   8.165  10.478   6.455
10503POPC   D2A62872   8.149  10.490   6.755
10503POPC   C3A62873   8.205  10.508   7.055
10503POPC   C4A62874   8.240  10.544   7.355
10503POPC   C1B62875   8.033  10.336   6.455
10503POPC   C2B62876   8.005  10.290   6.755
10503POPC   C3B62877   8.078  10.319   7.055
10503POPC   C4B62878   8.053  10.312   7.355
10504POPC   NC362879  44.644  44.703   5.555
10504POPC   PO462880  44.646  44.698   5.855
10504POPC   GL162881  44.650  44.622   6.155
10504POPC   GL262882  44.595  44.538   6.155
10504POPC   C1A62883  44.704  44.633   6.455
10504POPC   D2A62884  44.701  44.708   6.755
10504POPC   C3A62885  44.697  44.631   7.055
10504POPC   C4A62886  44.631  44.650   7.355
10504POPC   C1B62887  44.435  44.450   6.455
10504POPC   C2B62888  44.439  44.539   6.755
10504POPC   C3B62889  44.446  44.467   7.055
10504POPC   C4B62890  44.476  44.505   7.355
10505POPC   NC362891  37.664  12.830   5.555
10505POPC   PO462892  37.722  12.837   5.855
10505POPC   GL162893  37.715  12.867   6.155
10505POPC   GL262894  37.555  12.785   6.155
10505POPC   C1A62895  37.640  12.830   6.455
10505POPC   D2A62896  37.643  12.853   6.755
10505POPC   C3A62897  37.653  12.886   7.055
10505POPC   C4A62898  37.684  12.877   7.355
10505POPC   C1B62899  37.455  12.730   6.455
10505POPC   C2B62900  37.448  12.715   6.755
10505POPC   C3B62901  37.504  12.753   7.055
10505POPC   C4B62902  37.430  12.688   7.355
10506POPC   NC362903  40.744  40.780   5.555
10506POPC   PO462904  40.739  40.733   5.855
10506POPC   GL162905  40.832  40.809   6.155
10506POPC   GL262906  40.763  40.881   6.155
10506POPC   C1A62907  40.797  40.782   6.455
10506POPC   D2A62908  40.790  40.754   6.755
10506POPC   C3A62909  40.751  40.787   7.055
10506POPC   C4A62910  40.810  40.739   7.355
10506POPC   C1B62911  40.833  41.014   6.455
10506POPC   C2B62912  40.804  40.989   6.755
10506POPC   C3B62913  40.809  41.060   7.055
10506POPC   C4B62914  40.867  41.045   7.355
10507POPC   NC362915   5.140  19.878   5.555
10507POPC   PO462916   5.113  19.791   5.855
10507POPC   GL162917   5.062  19.791   6.155
10507POPC   GL262918   5.187  19.775   6.155
10507POPC   C1A62919   5.080  19.794   6.455
10507POPC   D2A62920   5.079  19.788   6.755
10507POPC   C3A62921   5.044  19.850   7.055
10507POPC   C4A62922   5.071  19.881   7.355
10507POPC   C1B62923   5.276  19.720   6.455
10507POPC   C2B62924   5.303  19.738   6.755
10507POPC   C3B62925   5.361  19.697   7.055
10507POPC   C4B62926   5.347  19.778   7.355
10508POPC   NC362927  29.174  23.682   5.555
10508POPC   PO462928  29.127  23.670   5.855
10508POPC   GL162929  29.119  23.705   6.155
10508POPC   GL262930  29.156  23.650   6.155
10508POPC   C1A62931  29.135  23.718   6.455
10508POPC   D2A62932  29.125  23.688   6.755
10508POPC   C3A62933  29.114  23.737   7.055
10508POPC   C4A62934  29.111  23.763   7.355
10508POPC   C1B62935  29.228  23.509   6.455
10508POPC   C2B62936  29.226  23.496   6.755
10508POPC   C3B62937  29.272  23.453   7.055
10508POPC   C4B62938  29.262  23.463   7.355
10509POPC   NC362939   8.188  30.735   5.555
10509POPC   PO462940   8.185  30.655   5.855
10509POPC   GL162941   8.157  30.673   6.155
10509POPC   GL262942   8.217  30.569   6.155
10509POPC   C1A62943   8.178  30.697   6.455
10509POPC   D2A62944   8.182  30.656   6.755
10509POPC   C3A62945   8.171  30.670   7.055
10509POPC   C4A62946   8.231  30.717   7.355
10509POPC   C1B62947   8.119  30.420   6.455
10509POPC   C2B62948   8.202  30.484   6.755
10509POPC   C3B62949   8.148  30.486   7.055
10509POPC   C4B62950   8.167  30.463   7.355
10510POPC   NC362951   4.284  31.454   5.555
10510POPC   PO462952   4.326  31.480   5.855
10510POPC   GL162953   4.274  31.439   6.155
10510POPC   GL262954   4.199  31.470   6.155
10510POPC   C1A62955   4.328  31.486   6.455
10510POPC   D2A62956   4.338  31.500   6.755
10510POPC   C3A62957   4.310  31.508   7.055
10510POPC   C4A62958   4.298  31.514   7.355
10510POPC   C1B62959   4.095  31.510   6.455
10510POPC   C2B62960   4.028  31.527   6.755
10510POPC   C3B62961   4.030  31.505   7.055
10510POPC   C4B62962   4.049  31.510   7.355
10511POPC   NC362963   8.242  43.152   5.555
10511POPC   PO462964   8.209  43.067   5.855
10511POPC   GL162965   8.147  43.073   6.155
10511POPC   GL262966   8.284  42.987   6.155
10511POPC   C1A62967   8.230  43.101   6.455
10511POPC   D2A62968   8.150  43.108   6.755
10511POPC   C3A62969   8.204  43.110   7.055
10511POPC   C4A62970   8.237  43.104   7.355
10511POPC   C1B62971   8.273  42.870   6.455
10511POPC   C2B62972   8.275  42.898   6.755
10511POPC   C3B62973   8.306  42.857   7.055
10511POPC   C4B62974   8.279  42.860   7.355
10512POPC   NC362975   2.748  43.132   5.555
10512POPC   PO462976   2.803  43.088   5.855
10512POPC   GL162977   2.755  43.130   6.155
10512POPC   GL262978   2.761  42.980   6.155
10512POPC   C1A62979   2.750  43.066   6.455
10512POPC   D2A62980   2.764  43.101   6.755
10512POPC   C3A62981   2.788  43.083   7.055
10512POPC   C4A62982   2.724  43.083   7.355
10512POPC   C1B62983   2.692  42.893   6.455
10512POPC   C2B62984   2.703  42.851   6.755
10512POPC   C3B62985   2.707  42.871   7.055
10512POPC   C4B62986   2.622  42.927   7.355
10513POPC   NC362987   3.570  22.929   5.555
10513POPC   PO462988   3.520  22.954   5.855
10513POPC   GL162989   3.541  22.966   6.155
10513POPC   GL262990   3.387  22.931   6.155
10513POPC   C1A62991   3.554  22.900   6.455
10513POPC   D2A62992   3.523  22.905   6.755
10513POPC   C3A62993   3.535  22.978   7.055
10513POPC   C4A62994   3.577  22.893   7.355
10513POPC   C1B62995   3.279  22.908   6.455
10513POPC   C2B62996   3.266  22.909   6.755
10513POPC   C3B62997   3.317  22.929   7.055
10513POPC   C4B62998   3.282  22.905   7.355
10514POPC   NC362999   5.857  43.861   5.555
10514POPC   PO463000   5.862  43.931   5.855
10514POPC   GL163001   5.820  43.880   6.155
10514POPC   GL263002   5.778  44.047   6.155
10514POPC   C1A63003   5.851  43.930   6.455
10514POPC   D2A63004   5.836  43.883   6.755
10514POPC   C3A63005   5.899  43.868   7.055
10514POPC   C4A63006   5.907  43.881   7.355
10514POPC   C1B63007   5.771  44.164   6.455
10514POPC   C2B63008   5.767  44.113   6.755
10514POPC   C3B63009   5.803  44.155   7.055
10514POPC   C4B63010   5.798  44.139   7.355
10515POPC   NC363011  38.483  18.258   5.555
10515POPC   PO463012  38.428  18.308   5.855
10515POPC   GL163013  38.468  18.275   6.155
10515POPC   GL263014  38.617  18.271   6.155
10515POPC   C1A63015  38.422  18.249   6.455
10515POPC   D2A63016  38.470  18.279   6.755
10515POPC   C3A63017  38.477  18.312   7.055
10515POPC   C4A63018  38.408  18.302   7.355
10515POPC   C1B63019  38.754  18.276   6.455
10515POPC   C2B63020  38.728  18.297   6.755
10515POPC   C3B63021  38.689  18.265   7.055
10515POPC   C4B63022  38.712  18.238   7.355
10516POPC   NC363023  16.704  37.708   5.555
10516POPC   PO463024  16.769  37.635   5.855
10516POPC   GL163025  16.722  37.717   6.155
10516POPC   GL263026  16.862  37.725   6.155
10516POPC   C1A63027  16.691  37.720   6.455
10516POPC   D2A63028  16.707  37.661   6.755
10516POPC   C3A63029  16.738  37.657   7.055
10516POPC   C4A63030  16.760  37.710   7.355
10516POPC   C1B63031  16.927  37.900   6.455
10516POPC   C2B63032  16.893  37.831   6.755
10516POPC   C3B63033  16.912  37.861   7.055
10516POPC   C4B63034  16.943  37.890   7.355
10517POPC   NC363035   0.424   0.423   5.555
10517POPC   PO463036   0.454   0.436   5.855
10517POPC   GL163037   0.455   0.459   6.155
10517POPC   GL263038   0.508   0.472   6.155
10517POPC   C1A63039   0.394   0.403   6.455
10517POPC   D2A63040   0.418   0.408   6.755
10517POPC   C3A63041   0.476   0.395   7.055
10517POPC   C4A63042   0.446   0.439   7.355
10517POPC   C1B63043   0.624   0.582   6.455
10517POPC   C2B63044   0.597   0.544   6.755
10517POPC   C3B63045   0.687   0.529   7.055
10517POPC   C4B63046   0.648   0.586   7.355
10518POPC   NC363047  19.107  29.876   5.555
10518POPC   PO463048  19.041  29.948   5.855
10518POPC   GL163049  19.082  29.902   6.155
10518POPC   GL263050  18.948  29.865   6.155
10518POPC   C1A63051  19.086  29.964   6.455
10518POPC   D2A63052  19.038  29.898   6.755
10518POPC   C3A63053  19.009  29.930   7.055
10518POPC   C4A63054  19.108  29.910   7.355
10518POPC   C1B63055  18.835  29.801   6.455
10518POPC   C2B63056  18.807  29.806   6.755
10518POPC   C3B63057  18.891  29.791   7.055
10518POPC   C4B63058  18.829  29.819   7.355
10519POPC   NC363059   7.445   5.864   5.555
10519POPC   PO463060   7.454   5.880   5.855
10519POPC   GL163061   7.391   5.919   6.155
10519POPC   GL263062   7.325   5.993   6.155
10519POPC   C1A63063   7.421   5.879   6.455
10519POPC   D2A63064   7.450   5.878   6.755
10519POPC   C3A63065   7.463   5.902   7.055
10519POPC   C4A63066   7.372   5.822   7.355
10519POPC   C1B63067   7.193   6.077   6.455
10519POPC   C2B63068   7.268   6.037   6.755
10519POPC   C3B63069   7.282   6.024   7.055
10519POPC   C4B63070   7.271   6.035   7.355
10520POPC   NC363071  18.277  29.097   5.555
10520POPC   PO463072  18.286  29.163   5.855
10520POPC   GL163073  18.330  29.177   6.155
10520POPC   GL263074  18.386  29.084   6.155
10520POPC   C1A63075  18.332  29.098   6.455
10520POPC   D2A63076  18.271  29.165   6.755
10520POPC   C3A63077  18.329  29.114   7.055
10520POPC   C4A63078  18.296  29.160   7.355
10520POPC   C1B63079  18.362  28.936   6.455
10520POPC   C2B63080  18.434  28.912   6.755
10520POPC   C3B63081  18.375  28.950   7.055
10520POPC   C4B63082  18.376  28.927   7.355
10521POPC   NC363083  41.528  23.677   5.555
10521POPC   PO463084  41.540  23.711   5.855
10521POPC   GL163085  41.579  23.702   6.155
10521POPC   GL263086  41.539  23.787   6.155
10521POPC   C1A63087  41.530  23.763   6.455
10521POPC   D2A63088  41.524  23.762   6.755
10521POPC   C3A63089  41.561  23.758   7.055
10521POPC   C4A63090  41.544  23.710   7.355
10521POPC   C1B63091  41.472  23.995   6.455
10521POPC   C2B63092  41.474  23.989   6.755
10521POPC   C3B63093  41.526  23.966   7.055
10521POPC   C4B63094  41.434  23.906   7.355
10522POPC   NC363095  33.822  40.798   5.555
10522POPC   PO463096  33.785  40.765   5.855
10522POPC   GL163097  33.841  40.771   6.155
10522POPC   GL263098  33.882  40.874   6.155
10522POPC   C1A63099  33.802  40.811   6.455
10522POPC   D2A63100  33.789  40.734   6.755
10522POPC   C3A63101  33.829  40.760   7.055
10522POPC   C4A63102  33.845  40.761   7.355
10522POPC   C1B63103  33.993  40.915   6.455
10522POPC   C2B63104  33.985  40.945   6.755
10522POPC   C3B63105  33.991  40.931   7.055
10522POPC   C4B63106  34.058  40.882   7.355
10523POPC   NC363107   5.080  12.065   5.555
10523POPC   PO463108   5.120  12.115   5.855
10523POPC   GL163109   5.135  12.073   6.155
10523POPC   GL263110   5.054  11.921   6.155
10523POPC   C1A63111   5.131  12.039   6.455
10523POPC   D2A63112   5.121  12.069   6.755
10523POPC   C3A63113   5.101  12.026   7.055
10523POPC   C4A63114   5.099  12.071   7.355
10523POPC   C1B63115   5.118  11.823   6.455
10523POPC   C2B63116   5.054  11.834   6.755
10523POPC   C3B63117   5.058  11.786   7.055
10523POPC   C4B63118   5.042  11.853   7.355
10524POPC   NC363119  40.051  42.297   5.555
10524POPC   PO463120  40.040  42.362   5.855
10524POPC   GL163121  39.983  42.296   6.155
10524POPC   GL263122  39.865  42.263   6.155
10524POPC   C1A63123  40.014  42.297   6.455
10524POPC   D2A63124  40.035  42.317   6.755
10524POPC   C3A63125  39.970  42.317   7.055
10524POPC   C4A63126  39.993  42.345   7.355
10524POPC   C1B63127  39.736  42.193   6.455
10524POPC   C2B63128  39.744  42.268   6.755
10524POPC   C3B63129  39.753  42.234   7.055
10524POPC   C4B63130  39.804  42.200   7.355
10525POPC   NC363131  20.613  26.060   5.555
10525POPC   PO463132  20.651  26.059   5.855
10525POPC   GL163133  20.654  26.081   6.155
10525POPC   GL263134  20.636  25.924   6.155
10525POPC   C1A63135  20.610  26.044   6.455
10525POPC   D2A63136  20.575  26.063   6.755
10525POPC   C3A63137  20.585  26.037   7.055
10525POPC   C4A63138  20.575  26.061   7.355
10525POPC   C1B63139  20.619  25.828   6.455
10525POPC   C2B63140  20.587  25.816   6.755
10525POPC   C3B63141  20.636  25.780   7.055
10525POPC   C4B63142  20.615  25.797   7.355
10526POPC   NC363143  35.324  42.344   5.555
10526POPC   PO463144  35.321  42.343   5.855
10526POPC   GL163145  35.392  42.312   6.155
10526POPC   GL263146  35.477  42.336   6.155
10526POPC   C1A63147  35.384  42.313   6.455
10526POPC   D2A63148  35.338  42.317   6.755
10526POPC   C3A63149  35.379  42.317   7.055
10526POPC   C4A63150  35.336  42.375   7.355
10526POPC   C1B63151  35.625  42.253   6.455
10526POPC   C2B63152  35.575  42.277   6.755
10526POPC   C3B63153  35.619  42.288   7.055
10526POPC   C4B63154  35.608  42.281   7.355
10527POPC   NC363155  30.732   2.749   5.555
10527POPC   PO463156  30.657   2.773   5.855
10527POPC   GL163157  30.683   2.782   6.155
10527POPC   GL263158  30.776   2.834   6.155
10527POPC   C1A63159  30.668   2.787   6.455
10527POPC   D2A63160  30.680   2.756   6.755
10527POPC   C3A63161  30.703   2.776   7.055
10527POPC   C4A63162  30.662   2.772   7.355
10527POPC   C1B63163  30.904   2.839   6.455
10527POPC   C2B63164  30.933   2.879   6.755
10527POPC   C3B63165  30.885   2.889   7.055
10527POPC   C4B63166  30.880   2.910   7.355
10528POPC   NC363167  26.792  38.428   5.555
10528POPC   PO463168  26.774  38.430   5.855
10528POPC   GL163169  26.860  38.460   6.155
10528POPC   GL263170  26.884  38.557   6.155
10528POPC   C1A63171  26.853  38.463   6.455
10528POPC   D2A63172  26.844  38.424   6.755
10528POPC   C3A63173  26.801  38.415   7.055
10528POPC   C4A63174  26.849  38.426   7.355
10528POPC   C1B63175  26.866  38.689   6.455
10528POPC   C2B63176  26.830  38.732   6.755
10528POPC   C3B63177  26.825  38.747   7.055
10528POPC   C4B63178  26.838  38.708   7.355
10529POPC   NC363179  32.239  42.287   5.555
10529POPC   PO463180  32.210  42.315   5.855
10529POPC   GL163181  32.277  42.346   6.155
10529POPC   GL263182  32.323  42.379   6.155
10529POPC   C1A63183  32.254  42.297   6.455
10529POPC   D2A63184  32.212  42.373   6.755
10529POPC   C3A63185  32.296  42.363   7.055
10529POPC   C4A63186  32.220  42.355   7.355
10529POPC   C1B63187  32.408  42.533   6.455
10529POPC   C2B63188  32.474  42.496   6.755
10529POPC   C3B63189  32.423  42.450   7.055
10529POPC   C4B63190  32.490  42.479   7.355
10530POPC   NC363191  30.653  33.022   5.555
10530POPC   PO463192  30.694  33.032   5.855
10530POPC   GL163193  30.734  33.009   6.155
10530POPC   GL263194  30.716  33.173   6.155
10530POPC   C1A63195  30.677  33.001   6.455
10530POPC   D2A63196  30.670  33.046   6.755
10530POPC   C3A63197  30.657  33.051   7.055
10530POPC   C4A63198  30.672  33.030   7.355
10530POPC   C1B63199  30.848  33.215   6.455
10530POPC   C2B63200  30.817  33.260   6.755
10530POPC   C3B63201  30.791  33.199   7.055
10530POPC   C4B63202  30.803  33.237   7.355
10531POPC   NC363203  16.728  40.045   5.555
10531POPC   PO463204  16.702  40.002   5.855
10531POPC   GL163205  16.693  39.973   6.155
10531POPC   GL263206  16.888  40.033   6.155
10531POPC   C1A63207  16.764  40.001   6.455
10531POPC   D2A63208  16.748  40.004   6.755
10531POPC   C3A63209  16.767  39.997   7.055
10531POPC   C4A63210  16.706  40.019   7.355
10531POPC   C1B63211  16.950  40.079   6.455
10531POPC   C2B63212  16.997  40.061   6.755
10531POPC   C3B63213  16.982  40.072   7.055
10531POPC   C4B63214  16.997  40.088   7.355
10532POPC   NC363215  13.617   0.398   5.555
10532POPC   PO463216  13.632   0.487   5.855
10532POPC   GL163217  13.585   0.476   6.155
10532POPC   GL263218  13.629   0.565   6.155
10532POPC   C1A63219  13.643   0.394   6.455
10532POPC   D2A63220  13.616   0.476   6.755
10532POPC   C3A63221  13.619   0.414   7.055
10532POPC   C4A63222  13.612   0.444   7.355
10532POPC   C1B63223  13.595   0.701   6.455
10532POPC   C2B63224  13.570   0.679   6.755
10532POPC   C3B63225  13.648   0.696   7.055
10532POPC   C4B63226  13.617   0.673   7.355
10533POPC   NC363227  13.613  20.575   5.555
10533POPC   PO463228  13.648  20.600   5.855
10533POPC   GL163229  13.646  20.592   6.155
10533POPC   GL263230  13.618  20.703   6.155
10533POPC   C1A63231  13.670  20.641   6.455
10533POPC   D2A63232  13.636  20.572   6.755
10533POPC   C3A63233  13.596  20.592   7.055
10533POPC   C4A63234  13.609  20.616   7.355
10533POPC   C1B63235  13.654  20.876   6.455
10533POPC   C2B63236  13.679  20.894   6.755
10533POPC   C3B63237  13.709  20.896   7.055
10533POPC   C4B63238  13.705  20.836   7.355
10534POPC   NC363239  36.113   7.373   5.555
10534POPC   PO463240  36.106   7.441   5.855
10534POPC   GL163241  36.124   7.373   6.155
10534POPC   GL263242  36.213   7.472   6.155
10534POPC   C1A63243  36.177   7.371   6.455
10534POPC   D2A63244  36.169   7.438   6.755
10534POPC   C3A63245  36.130   7.429   7.055
10534POPC   C4A63246  36.082   7.462   7.355
10534POPC   C1B63247  36.294   7.654   6.455
10534POPC   C2B63248  36.279   7.615   6.755
10534POPC   C3B63249  36.283   7.617   7.055
10534POPC   C4B63250  36.313   7.656   7.355
10535POPC   NC363251  10.522  41.534   5.555
10535POPC   PO463252  10.556  41.575   5.855
10535POPC   GL163253  10.478  41.543   6.155
10535POPC   GL263254  10.435  41.557   6.155
10535POPC   C1A63255  10.529  41.579   6.455
10535POPC   D2A63256  10.499  41.546   6.755
10535POPC   C3A63257  10.513  41.578   7.055
10535POPC   C4A63258  10.564  41.586   7.355
10535POPC   C1B63259  10.300  41.547   6.455
10535POPC   C2B63260  10.282  41.513   6.755
10535POPC   C3B63261  10.292  41.522   7.055
10535POPC   C4B63262  10.261  41.517   7.355
10536POPC   NC363263  17.485  27.619   5.555
10536POPC   PO463264  17.494  27.563   5.855
10536POPC   GL163265  17.504  27.585   6.155
10536POPC   GL263266  17.483  27.763   6.155
10536POPC   C1A63267  17.523  27.575   6.455
10536POPC   D2A63268  17.514  27.603   6.755
10536POPC   C3A63269  17.539  27.627   7.055
10536POPC   C4A63270  17.475  27.599   7.355
10536POPC   C1B63271  17.566  27.813   6.455
10536POPC   C2B63272  17.501  27.799   6.755
10536POPC   C3B63273  17.567  27.856   7.055
10536POPC   C4B63274  17.562  27.878   7.355
10537POPC   NC363275  29.175  14.396   5.555
10537POPC   PO463276  29.156  14.418   5.855
10537POPC   GL163277  29.168  14.449   6.155
10537POPC   GL263278  29.197  14.477   6.155
10537POPC   C1A63279  29.185  14.407   6.455
10537POPC   D2A63280  29.146  14.410   6.755
10537POPC   C3A63281  29.171  14.451   7.055
10537POPC   C4A63282  29.162  14.426   7.355
10537POPC   C1B63283  29.248  14.604   6.455
10537POPC   C2B63284  29.293  14.629   6.755
10537POPC   C3B63285  29.228  14.621   7.055
10537POPC   C4B63286  29.223  14.633   7.355
10538POPC   NC363287  15.160  29.192   5.555
10538POPC   PO463288  15.207  29.144   5.855
10538POPC   GL163289  15.159  29.173   6.155
10538POPC   GL263290  15.200  29.225   6.155
10538POPC   C1A63291  15.158  29.190   6.455
10538POPC   D2A63292  15.175  29.176   6.755
10538POPC   C3A63293  15.197  29.118   7.055
10538POPC   C4A63294  15.217  29.171   7.355
10538POPC   C1B63295  15.231  29.405   6.455
10538POPC   C2B63296  15.219  29.373   6.755
10538POPC   C3B63297  15.293  29.388   7.055
10538POPC   C4B63298  15.216  29.376   7.355
10539POPC   NC363299  43.071  36.928   5.555
10539POPC   PO463300  43.145  36.925   5.855
10539POPC   GL163301  43.110  36.906   6.155
10539POPC   GL263302  43.015  36.861   6.155
10539POPC   C1A63303  43.136  36.854   6.455
10539POPC   D2A63304  43.095  36.895   6.755
10539POPC   C3A63305  43.101  36.907   7.055
10539POPC   C4A63306  43.070  36.910   7.355
10539POPC   C1B63307  42.819  36.873   6.455
10539POPC   C2B63308  42.849  36.908   6.755
10539POPC   C3B63309  42.891  36.920   7.055
10539POPC   C4B63310  42.860  36.881   7.355
10540POPC   NC363311   4.283   4.350   5.555
10540POPC   PO463312   4.287   4.347   5.855
10540POPC   GL163313   4.350   4.346   6.155
10540POPC   GL263314   4.383   4.474   6.155
10540POPC   C1A63315   4.288   4.284   6.455
10540POPC   D2A63316   4.314   4.292   6.755
10540POPC   C3A63317   4.307   4.360   7.055
10540POPC   C4A63318   4.282   4.289   7.355
10540POPC   C1B63319   4.406   4.573   6.455
10540POPC   C2B63320   4.446   4.581   6.755
10540POPC   C3B63321   4.453   4.507   7.055
10540POPC   C4B63322   4.420   4.545   7.355
10541POPC   NC363323  36.140  26.035   5.555
10541POPC   PO463324  36.112  26.031   5.855
10541POPC   GL163325  36.131  26.070   6.155
10541POPC   GL263326  36.276  26.127   6.155
10541POPC   C1A63327  36.086  26.059   6.455
10541POPC   D2A63328  36.158  26.082   6.755
10541POPC   C3A63329  36.156  26.066   7.055
10541POPC   C4A63330  36.125  26.019   7.355
10541POPC   C1B63331  36.362  26.126   6.455
10541POPC   C2B63332  36.379  26.119   6.755
10541POPC   C3B63333  36.389  26.127   7.055
10541POPC   C4B63334  36.317  26.082   7.355
10542POPC   NC363335   2.756   8.182   5.555
10542POPC   PO463336   2.726   8.236   5.855
10542POPC   GL163337   2.797   8.199   6.155
10542POPC   GL263338   2.808   8.062   6.155
10542POPC   C1A63339   2.749   8.183   6.455
10542POPC   D2A63340   2.759   8.181   6.755
10542POPC   C3A63341   2.787   8.168   7.055
10542POPC   C4A63342   2.806   8.176   7.355
10542POPC   C1B63343   2.776   7.911   6.455
10542POPC   C2B63344   2.814   7.921   6.755
10542POPC   C3B63345   2.832   7.983   7.055
10542POPC   C4B63346   2.808   7.935   7.355
10543POPC   NC363347  36.093  11.275   5.555
10543POPC   PO463348  36.104  11.276   5.855
10543POPC   GL163349  36.163  11.259   6.155
10543POPC   GL263350  35.980  11.268   6.155
10543POPC   C1A63351  36.086  11.338   6.455
10543POPC   D2A63352  36.115  11.314   6.755
10543POPC   C3A63353  36.111  11.331   7.055
10543POPC   C4A63354  36.136  11.330   7.355
10543POPC   C1B63355  35.854  11.151   6.455
10543POPC   C2B63356  35.887  11.237   6.755
10543POPC   C3B63357  35.864  11.201   7.055
10543POPC   C4B63358  35.895  11.187   7.355
10544POPC   NC363359  36.130  17.521   5.555
10544POPC   PO463360  36.167  17.509   5.855
10544POPC   GL163361  36.101  17.466   6.155
10544POPC   GL263362  36.050  17.450   6.155
10544POPC   C1A63363  36.111  17.546   6.455
10544POPC   D2A63364  36.087  17.488   6.755
10544POPC   C3A63365  36.139  17.546   7.055
10544POPC   C4A63366  36.089  17.536   7.355
10544POPC   C1B63367  35.991  17.261   6.455
10544POPC   C2B63368  35.983  17.320   6.755
10544POPC   C3B63369  35.944  17.260   7.055
10544POPC   C4B63370  36.003  17.317   7.355
10545POPC   NC363371  27.622  40.054   5.555
10545POPC   PO463372  27.606  40.021   5.855
10545POPC   GL163373  27.613  40.040   6.155
10545POPC   GL263374  27.565  39.854   6.155
10545POPC   C1A63375  27.594  40.017   6.455
10545POPC   D2A63376  27.590  40.017   6.755
10545POPC   C3A63377  27.606  39.999   7.055
10545POPC   C4A63378  27.615  40.023   7.355
10545POPC   C1B63379  27.519  39.763   6.455
10545POPC   C2B63380  27.580  39.737   6.755
10545POPC   C3B63381  27.499  39.757   7.055
10545POPC   C4B63382  27.523  39.757   7.355
10546POPC   NC363383  21.405   1.259   5.555
10546POPC   PO463384  21.378   1.211   5.855
10546POPC   GL163385  21.394   1.250   6.155
10546POPC   GL263386  21.492   1.219   6.155
10546POPC   C1A63387  21.422   1.180   6.455
10546POPC   D2A63388  21.428   1.205   6.755
10546POPC   C3A63389  21.348   1.218   7.055
10546POPC   C4A63390  21.362   1.196   7.355
10546POPC   C1B63391  21.606   1.170   6.455
10546POPC   C2B63392  21.579   1.145   6.755
10546POPC   C3B63393  21.634   1.106   7.055
10546POPC   C4B63394  21.641   1.171   7.355
10547POPC   NC363395  22.203  27.619   5.555
10547POPC   PO463396  22.131  27.584   5.855
10547POPC   GL163397  22.141  27.594   6.155
10547POPC   GL263398  22.003  27.604   6.155
10547POPC   C1A63399  22.128  27.546   6.455
10547POPC   D2A63400  22.206  27.607   6.755
10547POPC   C3A63401  22.131  27.638   7.055
10547POPC   C4A63402  22.136  27.585   7.355
10547POPC   C1B63403  21.875  27.543   6.455
10547POPC   C2B63404  21.953  27.600   6.755
10547POPC   C3B63405  21.879  27.541   7.055
10547POPC   C4B63406  21.941  27.605   7.355
10548POPC   NC363407  17.524   2.004   5.555
10548POPC   PO463408  17.459   1.998   5.855
10548POPC   GL163409  17.511   1.988   6.155
10548POPC   GL263410  17.382   2.072   6.155
10548POPC   C1A63411  17.467   1.946   6.455
10548POPC   D2A63412  17.556   1.963   6.755
10548POPC   C3A63413  17.507   2.026   7.055
10548POPC   C4A63414  17.475   1.955   7.355
10548POPC   C1B63415  17.256   2.031   6.455
10548POPC   C2B63416  17.263   2.042   6.755
10548POPC   C3B63417  17.264   2.096   7.055
10548POPC   C4B63418  17.239   2.066   7.355
10549POPC   NC363419  33.787  41.530   5.555
10549POPC   PO463420  33.781  41.563   5.855
10549POPC   GL163421  33.803  41.515   6.155
10549POPC   GL263422  33.892  41.511   6.155
10549POPC   C1A63423  33.829  41.517   6.455
10549POPC   D2A63424  33.762  41.525   6.755
10549POPC   C3A63425  33.811  41.573   7.055
10549POPC   C4A63426  33.750  41.511   7.355
10549POPC   C1B63427  34.058  41.449   6.455
10549POPC   C2B63428  34.050  41.493   6.755
10549POPC   C3B63429  34.077  41.473   7.055
10549POPC   C4B63430  34.074  41.526   7.355
10550POPC   NC363431  26.070   1.238   5.555
10550POPC   PO463432  26.010   1.191   5.855
10550POPC   GL163433  25.994   1.260   6.155
10550POPC   GL263434  26.067   1.107   6.155
10550POPC   C1A63435  26.056   1.234   6.455
10550POPC   D2A63436  26.004   1.236   6.755
10550POPC   C3A63437  26.032   1.215   7.055
10550POPC   C4A63438  26.068   1.206   7.355
10550POPC   C1B63439  26.140   1.011   6.455
10550POPC   C2B63440  26.187   1.041   6.755
10550POPC   C3B63441  26.192   0.981   7.055
10550POPC   C4B63442  26.166   1.001   7.355
10551POPC   NC363443  24.466  29.966   5.555
10551POPC   PO463444  24.518  29.922   5.855
10551POPC   GL163445  24.456  29.927   6.155
10551POPC   GL263446  24.557  30.077   6.155
10551POPC   C1A63447  24.460  29.883   6.455
10551POPC   D2A63448  24.535  29.907   6.755
10551POPC   C3A63449  24.532  29.908   7.055
10551POPC   C4A63450  24.444  29.879   7.355
10551POPC   C1B63451  24.571  30.187   6.455
10551POPC   C2B63452  24.645  30.115   6.755
10551POPC   C3B63453  24.580  30.172   7.055
10551POPC   C4B63454  24.587  30.143   7.355
10552POPC   NC363455  29.140   8.242   5.555
10552POPC   PO463456  29.170   8.211   5.855
10552POPC   GL163457  29.179   8.201   6.155
10552POPC   GL263458  29.107   8.292   6.155
10552POPC   C1A63459  29.171   8.165   6.455
10552POPC   D2A63460  29.099   8.185   6.755
10552POPC   C3A63461  29.121   8.243   7.055
10552POPC   C4A63462  29.141   8.152   7.355
10552POPC   C1B63463  29.001   8.463   6.455
10552POPC   C2B63464  29.025   8.398   6.755
10552POPC   C3B63465  28.997   8.430   7.055
10552POPC   C4B63466  29.001   8.432   7.355
10553POPC   NC363467  32.983  19.103   5.555
10553POPC   PO463468  33.062  19.048   5.855
10553POPC   GL163469  33.010  19.070   6.155
10553POPC   GL263470  33.083  19.205   6.155
10553POPC   C1A63471  33.026  19.048   6.455
10553POPC   D2A63472  33.035  19.105   6.755
10553POPC   C3A63473  32.994  19.073   7.055
10553POPC   C4A63474  33.018  19.046   7.355
10553POPC   C1B63475  33.163  19.329   6.455
10553POPC   C2B63476  33.135  19.241   6.755
10553POPC   C3B63477  33.167  19.280   7.055
10553POPC   C4B63478  33.184  19.300   7.355
10554POPC   NC363479  26.863  39.979   5.555
10554POPC   PO463480  26.789  39.981   5.855
10554POPC   GL163481  26.787  40.057   6.155
10554POPC   GL263482  26.879  40.090   6.155
10554POPC   C1A63483  26.820  40.022   6.455
10554POPC   D2A63484  26.801  40.035   6.755
10554POPC   C3A63485  26.861  40.043   7.055
10554POPC   C4A63486  26.818  40.045   7.355
10554POPC   C1B63487  26.923  40.268   6.455
10554POPC   C2B63488  26.866  40.296   6.755
10554POPC   C3B63489  26.897  40.274   7.055
10554POPC   C4B63490  26.867  40.228   7.355
10555POPC   NC363491  36.943  34.565   5.555
10555POPC   PO463492  36.885  34.620   5.855
10555POPC   GL163493  36.940  34.615   6.155
10555POPC   GL263494  36.812  34.521   6.155
10555POPC   C1A63495  36.862  34.548   6.455
10555POPC   D2A63496  36.889  34.612   6.755
10555POPC   C3A63497  36.926  34.585   7.055
10555POPC   C4A63498  36.921  34.613   7.355
10555POPC   C1B63499  36.725  34.410   6.455
10555POPC   C2B63500  36.720  34.341   6.755
10555POPC   C3B63501  36.719  34.386   7.055
10555POPC   C4B63502  36.756  34.379   7.355
10556POPC   NC363503  22.961  19.032   5.555
10556POPC   PO463504  22.898  19.071   5.855
10556POPC   GL163505  22.918  19.083   6.155
10556POPC   GL263506  22.994  18.919   6.155
10556POPC   C1A63507  22.929  19.073   6.455
10556POPC   D2A63508  22.947  19.087   6.755
10556POPC   C3A63509  22.953  19.055   7.055
10556POPC   C4A63510  22.969  19.043   7.355
10556POPC   C1B63511  22.953  18.805   6.455
10556POPC   C2B63512  23.001  18.808   6.755
10556POPC   C3B63513  22.903  18.810   7.055
10556POPC   C4B63514  22.985  18.802   7.355
10557POPC   NC363515  32.276   7.420   5.555
10557POPC   PO463516  32.249   7.393   5.855
10557POPC   GL163517  32.244   7.470   6.155
10557POPC   GL263518  32.266   7.500   6.155
10557POPC   C1A63519  32.200   7.389   6.455
10557POPC   D2A63520  32.211   7.441   6.755
10557POPC   C3A63521  32.269   7.451   7.055
10557POPC   C4A63522  32.252   7.434   7.355
10557POPC   C1B63523  32.253   7.660   6.455
10557POPC   C2B63524  32.240   7.719   6.755
10557POPC   C3B63525  32.239   7.720   7.055
10557POPC   C4B63526  32.255   7.646   7.355
10558POPC   NC363527   6.673  17.484   5.555
10558POPC   PO463528   6.618  17.538   5.855
10558POPC   GL163529   6.673  17.518   6.155
10558POPC   GL263530   6.528  17.499   6.155
10558POPC   C1A63531   6.630  17.494   6.455
10558POPC   D2A63532   6.622  17.502   6.755
10558POPC   C3A63533   6.662  17.496   7.055
10558POPC   C4A63534   6.607  17.488   7.355
10558POPC   C1B63535   6.427  17.431   6.455
10558POPC   C2B63536   6.433  17.443   6.755
10558POPC   C3B63537   6.367  17.414   7.055
10558POPC   C4B63538   6.395  17.460   7.355
10559POPC   NC363539   1.240   5.051   5.555
10559POPC   PO463540   1.186   5.060   5.855
10559POPC   GL163541   1.223   5.113   6.155
10559POPC   GL263542   1.337   5.215   6.155
10559POPC   C1A63543   1.260   5.063   6.455
10559POPC   D2A63544   1.242   5.138   6.755
10559POPC   C3A63545   1.234   5.103   7.055
10559POPC   C4A63546   1.239   5.077   7.355
10559POPC   C1B63547   1.407   5.268   6.455
10559POPC   C2B63548   1.365   5.256   6.755
10559POPC   C3B63549   1.427   5.268   7.055
10559POPC   C4B63550   1.380   5.239   7.355
10560POPC   NC363551  32.236  29.927   5.555
10560POPC   PO463552  32.218  29.962   5.855
10560POPC   GL163553  32.222  29.946   6.155
10560POPC   GL263554  32.351  29.854   6.155
10560POPC   C1A63555  32.292  29.899   6.455
10560POPC   D2A63556  32.260  29.921   6.755
10560POPC   C3A63557  32.289  29.968   7.055
10560POPC   C4A63558  32.254  29.915   7.355
10560POPC   C1B63559  32.438  29.785   6.455
10560POPC   C2B63560  32.476  29.791   6.755
10560POPC   C3B63561  32.506  29.811   7.055
10560POPC   C4B63562  32.411  29.748   7.355
10561POPC   NC363563  35.393  43.109   5.555
10561POPC   PO463564  35.385  43.074   5.855
10561POPC   GL163565  35.343  43.098   6.155
10561POPC   GL263566  35.326  42.947   6.155
10561POPC   C1A63567  35.399  43.125   6.455
10561POPC   D2A63568  35.386  43.125   6.755
10561POPC   C3A63569  35.316  43.082   7.055
10561POPC   C4A63570  35.367  43.087   7.355
10561POPC   C1B63571  35.275  42.917   6.455
10561POPC   C2B63572  35.274  42.837   6.755
10561POPC   C3B63573  35.309  42.878   7.055
10561POPC   C4B63574  35.328  42.874   7.355
10562POPC   NC363575  33.753  15.184   5.555
10562POPC   PO463576  33.798  15.154   5.855
10562POPC   GL163577  33.847  15.156   6.155
10562POPC   GL263578  33.696  15.121   6.155
10562POPC   C1A63579  33.760  15.228   6.455
10562POPC   D2A63580  33.806  15.223   6.755
10562POPC   C3A63581  33.799  15.172   7.055
10562POPC   C4A63582  33.750  15.205   7.355
10562POPC   C1B63583  33.560  15.118   6.455
10562POPC   C2B63584  33.533  15.127   6.755
10562POPC   C3B63585  33.524  15.050   7.055
10562POPC   C4B63586  33.606  15.087   7.355
10563POPC   NC363587  37.672  33.790   5.555
10563POPC   PO463588  37.686  33.812   5.855
10563POPC   GL163589  37.647  33.813   6.155
10563POPC   GL263590  37.530  33.718   6.155
10563POPC   C1A63591  37.666  33.785   6.455
10563POPC   D2A63592  37.648  33.825   6.755
10563POPC   C3A63593  37.659  33.843   7.055
10563POPC   C4A63594  37.637  33.831   7.355
10563POPC   C1B63595  37.461  33.693   6.455
10563POPC   C2B63596  37.431  33.683   6.755
10563POPC   C3B63597  37.443  33.661   7.055
10563POPC   C4B63598  37.478  33.681   7.355
10564POPC   NC363599  33.798  17.459   5.555
10564POPC   PO463600  33.822  17.517   5.855
10564POPC   GL163601  33.759  17.541   6.155
10564POPC   GL263602  33.927  17.408   6.155
10564POPC   C1A63603  33.815  17.535   6.455
10564POPC   D2A63604  33.845  17.545   6.755
10564POPC   C3A63605  33.766  17.458   7.055
10564POPC   C4A63606  33.836  17.470   7.355
10564POPC   C1B63607  34.073  17.404   6.455
10564POPC   C2B63608  34.075  17.422   6.755
10564POPC   C3B63609  34.066  17.387   7.055
10564POPC   C4B63610  34.050  17.397   7.355
10565POPC   NC363611  39.988  34.529   5.555
10565POPC   PO463612  39.970  34.536   5.855
10565POPC   GL163613  39.974  34.569   6.155
10565POPC   GL263614  40.078  34.624   6.155
10565POPC   C1A63615  39.989  34.532   6.455
10565POPC   D2A63616  39.993  34.538   6.755
10565POPC   C3A63617  39.971  34.547   7.055
10565POPC   C4A63618  40.028  34.600   7.355
10565POPC   C1B63619  40.155  34.709   6.455
10565POPC   C2B63620  40.164  34.755   6.755
10565POPC   C3B63621  40.227  34.761   7.055
10565POPC   C4B63622  40.175  34.732   7.355
10566POPC   NC363623   5.830  40.013   5.555
10566POPC   PO463624   5.899  40.021   5.855
10566POPC   GL163625   5.910  40.017   6.155
10566POPC   GL263626   5.839  39.867   6.155
10566POPC   C1A63627   5.839  40.019   6.455
10566POPC   D2A63628   5.822  40.004   6.755
10566POPC   C3A63629   5.917  39.965   7.055
10566POPC   C4A63630   5.897  40.052   7.355
10566POPC   C1B63631   5.724  39.786   6.455
10566POPC   C2B63632   5.769  39.763   6.755
10566POPC   C3B63633   5.781  39.764   7.055
10566POPC   C4B63634   5.735  39.744   7.355
10567POPC   NC363635   0.485   6.682   5.555
10567POPC   PO463636   0.481   6.640   5.855
10567POPC   GL163637   0.405   6.680   6.155
10567POPC   GL263638   0.303   6.708   6.155
10567POPC   C1A63639   0.478   6.668   6.455
10567POPC   D2A63640   0.401   6.673   6.755
10567POPC   C3A63641   0.455   6.599   7.055
10567POPC   C4A63642   0.436   6.610   7.355
10567POPC   C1B63643   0.163   6.720   6.455
10567POPC   C2B63644   0.210   6.686   6.755
10567POPC   C3B63645   0.203   6.695   7.055
10567POPC   C4B63646   0.224   6.729   7.355
10568POPC   NC363647  40.768  39.966   5.555
10568POPC   PO463648  40.831  39.961   5.855
10568POPC   GL163649  40.771  40.026   6.155
10568POPC   GL263650  40.652  39.910   6.155
10568POPC   C1A63651  40.755  40.053   6.455
10568POPC   D2A63652  40.754  40.009   6.755
10568POPC   C3A63653  40.750  40.049   7.055
10568POPC   C4A63654  40.831  39.965   7.355
10568POPC   C1B63655  40.569  39.845   6.455
10568POPC   C2B63656  40.607  39.890   6.755
10568POPC   C3B63657  40.580  39.814   7.055
10568POPC   C4B63658  40.626  39.796   7.355
10569POPC   NC363659  43.908  36.140   5.555
10569POPC   PO463660  43.859  36.107   5.855
10569POPC   GL163661  43.936  36.145   6.155
10569POPC   GL263662  43.765  36.231   6.155
10569POPC   C1A63663  43.893  36.160   6.455
10569POPC   D2A63664  43.884  36.150   6.755
10569POPC   C3A63665  43.900  36.172   7.055
10569POPC   C4A63666  43.881  36.110   7.355
10569POPC   C1B63667  43.696  36.265   6.455
10569POPC   C2B63668  43.666  36.268   6.755
10569POPC   C3B63669  43.669  36.303   7.055
10569POPC   C4B63670  43.691  36.316   7.355
10570POPC   NC363671   8.209  40.792   5.555
10570POPC   PO463672   8.208  40.787   5.855
10570POPC   GL163673   8.183  40.779   6.155
10570POPC   GL263674   8.095  40.904   6.155
10570POPC   C1A63675   8.188  40.776   6.455
10570POPC   D2A63676   8.221  40.734   6.755
10570POPC   C3A63677   8.169  40.826   7.055
10570POPC   C4A63678   8.180  40.753   7.355
10570POPC   C1B63679   8.055  40.979   6.455
10570POPC   C2B63680   8.027  40.904   6.755
10570POPC   C3B63681   7.965  40.975   7.055
10570POPC   C4B63682   8.025  40.938   7.355
10571POPC   NC363683  15.212  22.966   5.555
10571POPC   PO463684  15.178  22.984   5.855
10571POPC   GL163685  15.145  22.900   6.155
10571POPC   GL263686  15.111  23.023   6.155
10571POPC   C1A63687  15.138  22.956   6.455
10571POPC   D2A63688  15.193  22.924   6.755
10571POPC   C3A63689  15.163  22.988   7.055
10571POPC   C4A63690  15.149  22.981   7.355
10571POPC   C1B63691  15.004  23.076   6.455
10571POPC   C2B63692  14.924  23.031   6.755
10571POPC   C3B63693  14.988  23.096   7.055
10571POPC   C4B63694  14.946  23.104   7.355
10572POPC   NC363695  15.937   7.453   5.555
10572POPC   PO463696  15.924   7.449   5.855
10572POPC   GL163697  15.984   7.437   6.155
10572POPC   GL263698  16.079   7.518   6.155
10572POPC   C1A63699  15.908   7.373   6.455
10572POPC   D2A63700  15.923   7.423   6.755
10572POPC   C3A63701  15.961   7.391   7.055
10572POPC   C4A63702  15.963   7.398   7.355
10572POPC   C1B63703  16.150   7.585   6.455
10572POPC   C2B63704  16.103   7.570   6.755
10572POPC   C3B63705  16.126   7.626   7.055
10572POPC   C4B63706  16.144   7.654   7.355
10573POPC   NC363707  15.956  22.114   5.555
10573POPC   PO463708  15.916  22.186   5.855
10573POPC   GL163709  15.987  22.142   6.155
10573POPC   GL263710  15.880  22.214   6.155
10573POPC   C1A63711  16.003  22.171   6.455
10573POPC   D2A63712  15.962  22.127   6.755
10573POPC   C3A63713  15.990  22.155   7.055
10573POPC   C4A63714  16.005  22.127   7.355
10573POPC   C1B63715  15.722  22.206   6.455
10573POPC   C2B63716  15.713  22.263   6.755
10573POPC   C3B63717  15.685  22.208   7.055
10573POPC   C4B63718  15.672  22.189   7.355
10574POPC   NC363719  39.187   9.711   5.555
10574POPC   PO463720  39.195   9.702   5.855
10574POPC   GL163721  39.271   9.775   6.155
10574POPC   GL263722  39.183   9.803   6.155
10574POPC   C1A63723  39.275   9.761   6.455
10574POPC   D2A63724  39.243   9.795   6.755
10574POPC   C3A63725  39.233   9.776   7.055
10574POPC   C4A63726  39.191   9.766   7.355
10574POPC   C1B63727  39.059   9.925   6.455
10574POPC   C2B63728  39.049   9.880   6.755
10574POPC   C3B63729  39.042   9.947   7.055
10574POPC   C4B63730  39.047   9.890   7.355
10575POPC   NC363731  36.884   8.238   5.555
10575POPC   PO463732  36.903   8.161   5.855
10575POPC   GL163733  36.932   8.219   6.155
10575POPC   GL263734  36.800   8.095   6.155
10575POPC   C1A63735  36.859   8.203   6.455
10575POPC   D2A63736  36.889   8.147   6.755
10575POPC   C3A63737  36.916   8.224   7.055
10575POPC   C4A63738  36.897   8.193   7.355
10575POPC   C1B63739  36.719   8.053   6.455
10575POPC   C2B63740  36.644   8.123   6.755
10575POPC   C3B63741  36.654   8.093   7.055
10575POPC   C4B63742  36.633   8.066   7.355
10576POPC   NC363743   1.196  29.113   5.555
10576POPC   PO463744   1.206  29.161   5.855
10576POPC   GL163745   1.255  29.143   6.155
10576POPC   GL263746   1.123  29.050   6.155
10576POPC   C1A63747   1.234  29.125   6.455
10576POPC   D2A63748   1.257  29.193   6.755
10576POPC   C3A63749   1.248  29.116   7.055
10576POPC   C4A63750   1.239  29.160   7.355
10576POPC   C1B63751   1.042  28.998   6.455
10576POPC   C2B63752   1.025  28.933   6.755
10576POPC   C3B63753   0.991  28.963   7.055
10576POPC   C4B63754   1.000  28.963   7.355
10577POPC   NC363755   5.908   0.484   5.555
10577POPC   PO463756   5.853   0.395   5.855
10577POPC   GL163757   5.850   0.389   6.155
10577POPC   GL263758   5.931   0.353   6.155
10577POPC   C1A63759   5.886   0.467   6.455
10577POPC   D2A63760   5.881   0.454   6.755
10577POPC   C3A63761   5.887   0.462   7.055
10577POPC   C4A63762   5.842   0.409   7.355
10577POPC   C1B63763   6.031   0.188   6.455
10577POPC   C2B63764   5.957   0.258   6.755
10577POPC   C3B63765   5.945   0.258   7.055
10577POPC   C4B63766   6.026   0.238   7.355
10578POPC   NC363767  11.320  39.279   5.555
10578POPC   PO463768  11.288  39.252   5.855
10578POPC   GL163769  11.309  39.251   6.155
10578POPC   GL263770  11.339  39.321   6.155
10578POPC   C1A63771  11.348  39.253   6.455
10578POPC   D2A63772  11.271  39.256   6.755
10578POPC   C3A63773  11.268  39.278   7.055
10578POPC   C4A63774  11.258  39.257   7.355
10578POPC   C1B63775  11.340  39.468   6.455
10578POPC   C2B63776  11.392  39.482   6.755
10578POPC   C3B63777  11.310  39.518   7.055
10578POPC   C4B63778  11.328  39.512   7.355
10579POPC   NC363779  16.778  15.985   5.555
10579POPC   PO463780  16.741  15.969   5.855
10579POPC   GL163781  16.733  15.963   6.155
10579POPC   GL263782  16.725  16.047   6.155
10579POPC   C1A63783  16.748  15.927   6.455
10579POPC   D2A63784  16.762  16.005   6.755
10579POPC   C3A63785  16.772  15.955   7.055
10579POPC   C4A63786  16.750  15.987   7.355
10579POPC   C1B63787  16.770  16.237   6.455
10579POPC   C2B63788  16.789  16.229   6.755
10579POPC   C3B63789  16.725  16.184   7.055
10579POPC   C4B63790  16.770  16.161   7.355
10580POPC   NC363791   1.242  36.933   5.555
10580POPC   PO463792   1.226  36.920   5.855
10580POPC   GL163793   1.238  36.942   6.155
10580POPC   GL263794   1.297  37.013   6.155
10580POPC   C1A63795   1.238  36.891   6.455
10580POPC   D2A63796   1.217  36.949   6.755
10580POPC   C3A63797   1.202  36.875   7.055
10580POPC   C4A63798   1.173  36.929   7.355
10580POPC   C1B63799   1.413  37.083   6.455
10580POPC   C2B63800   1.416  37.064   6.755
10580POPC   C3B63801   1.426  37.048   7.055
10580POPC   C4B63802   1.378  37.054   7.355
10581POPC   NC363803  39.225  24.532   5.555
10581POPC   PO463804  39.186  24.456   5.855
10581POPC   GL163805  39.222  24.517   6.155
10581POPC   GL263806  39.310  24.353   6.155
10581POPC   C1A63807  39.263  24.465   6.455
10581POPC   D2A63808  39.234  24.459   6.755
10581POPC   C3A63809  39.215  24.525   7.055
10581POPC   C4A63810  39.244  24.522   7.355
10581POPC   C1B63811  39.373  24.327   6.455
10581POPC   C2B63812  39.456  24.271   6.755
10581POPC   C3B63813  39.361  24.359   7.055
10581POPC   C4B63814  39.397  24.279   7.355
10582POPC   NC363815   8.970  10.500   5.555
10582POPC   PO463816   8.976  10.508   5.855
10582POPC   GL163817   8.986  10.506   6.155
10582POPC   GL263818   9.077  10.488   6.155
10582POPC   C1A63819   8.967  10.504   6.455
10582POPC   D2A63820   8.958  10.528   6.755
10582POPC   C3A63821   9.020  10.492   7.055
10582POPC   C4A63822   8.991  10.540   7.355
10582POPC   C1B63823   9.177  10.349   6.455
10582POPC   C2B63824   9.119  10.365   6.755
10582POPC   C3B63825   9.180  10.307   7.055
10582POPC   C4B63826   9.194  10.400   7.355
10583POPC   NC363827   4.322  11.302   5.555
10583POPC   PO463828   4.322  11.275   5.855
10583POPC   GL163829   4.366  11.256   6.155
10583POPC   GL263830   4.300  11.455   6.155
10583POPC   C1A63831   4.299  11.300   6.455
10583POPC   D2A63832   4.315  11.273   6.755
10583POPC   C3A63833   4.335  11.305   7.055
10583POPC   C4A63834   4.344  11.337   7.355
10583POPC   C1B63835   4.233  11.473   6.455
10583POPC   C2B63836   4.224  11.534   6.755
10583POPC   C3B63837   4.181  11.477   7.055
10583POPC   C4B63838   4.215  11.545   7.355
10584POPC   NC363839  18.327  43.134   5.555
10584POPC   PO463840  18.266  43.109   5.855
10584POPC   GL163841  18.331  43.135   6.155
10584POPC   GL263842  18.198  43.142   6.155
10584POPC   C1A63843  18.279  43.134   6.455
10584POPC   D2A63844  18.318  43.154   6.755
10584POPC   C3A63845  18.249  43.083   7.055
10584POPC   C4A63846  18.234  43.092   7.355
10584POPC   C1B63847  18.061  43.309   6.455
10584POPC   C2B63848  18.120  43.256   6.755
10584POPC   C3B63849  18.046  43.233   7.055
10584POPC   C4B63850  18.109  43.258   7.355
10585POPC   NC363851   8.228   3.528   5.555
10585POPC   PO463852   8.174   3.543   5.855
10585POPC   GL163853   8.180   3.516   6.155
10585POPC   GL263854   8.339   3.594   6.155
10585POPC   C1A63855   8.157   3.495   6.455
10585POPC   D2A63856   8.175   3.568   6.755
10585POPC   C3A63857   8.233   3.586   7.055
10585POPC   C4A63858   8.153   3.547   7.355
10585POPC   C1B63859   8.435   3.624   6.455
10585POPC   C2B63860   8.468   3.655   6.755
10585POPC   C3B63861   8.378   3.640   7.055
10585POPC   C4B63862   8.424   3.628   7.355
10586POPC   NC363863  30.678  40.032   5.555
10586POPC   PO463864  30.674  39.962   5.855
10586POPC   GL163865  30.651  40.036   6.155
10586POPC   GL263866  30.804  39.877   6.155
10586POPC   C1A63867  30.740  39.965   6.455
10586POPC   D2A63868  30.728  40.044   6.755
10586POPC   C3A63869  30.686  40.008   7.055
10586POPC   C4A63870  30.683  39.997   7.355
10586POPC   C1B63871  30.862  39.769   6.455
10586POPC   C2B63872  30.870  39.816   6.755
10586POPC   C3B63873  30.813  39.819   7.055
10586POPC   C4B63874  30.878  39.758   7.355
10587POPC   NC363875   4.314  21.418   5.555
10587POPC   PO463876   4.317  21.417   5.855
10587POPC   GL163877   4.270  21.407   6.155
10587POPC   GL263878   4.236  21.273   6.155
10587POPC   C1A63879   4.357  21.346   6.455
10587POPC   D2A63880   4.319  21.350   6.755
10587POPC   C3A63881   4.268  21.371   7.055
10587POPC   C4A63882   4.356  21.412   7.355
10587POPC   C1B63883   4.172  21.178   6.455
10587POPC   C2B63884   4.172  21.154   6.755
10587POPC   C3B63885   4.230  21.168   7.055
10587POPC   C4B63886   4.162  21.181   7.355
10588POPC   NC363887  15.922  29.941   5.555
10588POPC   PO463888  15.960  29.953   5.855
10588POPC   GL163889  15.935  29.904   6.155
10588POPC   GL263890  16.027  29.840   6.155
10588POPC   C1A63891  15.966  29.960   6.455
10588POPC   D2A63892  15.944  29.898   6.755
10588POPC   C3A63893  15.945  29.922   7.055
10588POPC   C4A63894  16.001  29.880   7.355
10588POPC   C1B63895  16.138  29.754   6.455
10588POPC   C2B63896  16.162  29.743   6.755
10588POPC   C3B63897  16.112  29.729   7.055
10588POPC   C4B63898  16.091  29.712   7.355
10589POPC   NC363899  41.607  25.256   5.555
10589POPC   PO463900  41.552  25.242   5.855
10589POPC   GL163901  41.528  25.285   6.155
10589POPC   GL263902  41.601  25.384   6.155
10589POPC   C1A63903  41.521  25.277   6.455
10589POPC   D2A63904  41.576  25.258   6.755
10589POPC   C3A63905  41.596  25.308   7.055
10589POPC   C4A63906  41.558  25.246   7.355
10589POPC   C1B63907  41.719  25.483   6.455
10589POPC   C2B63908  41.700  25.429   6.755
10589POPC   C3B63909  41.735  25.467   7.055
10589POPC   C4B63910  41.696  25.462   7.355
10590POPC   NC363911  12.067  19.846   5.555
10590POPC   PO463912  12.099  19.844   5.855
10590POPC   GL163913  12.069  19.858   6.155
10590POPC   GL263914  12.229  19.832   6.155
10590POPC   C1A63915  12.064  19.818   6.455
10590POPC   D2A63916  12.073  19.811   6.755
10590POPC   C3A63917  12.091  19.868   7.055
10590POPC   C4A63918  12.118  19.846   7.355
10590POPC   C1B63919  12.361  19.754   6.455
10590POPC   C2B63920  12.340  19.796   6.755
10590POPC   C3B63921  12.276  19.763   7.055
10590POPC   C4B63922  12.340  19.779   7.355
10591POPC   NC363923  39.275   5.076   5.555
10591POPC   PO463924  39.202   5.049   5.855
10591POPC   GL163925  39.227   5.119   6.155
10591POPC   GL263926  39.314   5.181   6.155
10591POPC   C1A63927  39.184   5.124   6.455
10591POPC   D2A63928  39.255   5.057   6.755
10591POPC   C3A63929  39.265   5.062   7.055
10591POPC   C4A63930  39.189   5.143   7.355
10591POPC   C1B63931  39.407   5.185   6.455
10591POPC   C2B63932  39.464   5.210   6.755
10591POPC   C3B63933  39.476   5.180   7.055
10591POPC   C4B63934  39.436   5.212   7.355
10592POPC   NC363935  25.284  23.671   5.555
10592POPC   PO463936  25.256  23.751   5.855
10592POPC   GL163937  25.265  23.748   6.155
10592POPC   GL263938  25.159  23.765   6.155
10592POPC   C1A63939  25.223  23.760   6.455
10592POPC   D2A63940  25.291  23.734   6.755
10592POPC   C3A63941  25.242  23.686   7.055
10592POPC   C4A63942  25.258  23.742   7.355
10592POPC   C1B63943  25.078  23.849   6.455
10592POPC   C2B63944  25.064  23.855   6.755
10592POPC   C3B63945  25.065  23.882   7.055
10592POPC   C4B63946  25.112  23.936   7.355
10593POPC   NC363947  19.849   0.403   5.555
10593POPC   PO463948  19.800   0.400   5.855
10593POPC   GL163949  19.871   0.452   6.155
10593POPC   GL263950  19.962   0.361   6.155
10593POPC   C1A63951  19.850   0.468   6.455
10593POPC   D2A63952  19.787   0.458   6.755
10593POPC   C3A63953  19.812   0.425   7.055
10593POPC   C4A63954  19.839   0.477   7.355
10593POPC   C1B63955  20.061   0.297   6.455
10593POPC   C2B63956  20.021   0.305   6.755
10593POPC   C3B63957  20.010   0.237   7.055
10593POPC   C4B63958  20.009   0.281   7.355
10594POPC   NC363959   8.952  29.095   5.555
10594POPC   PO463960   8.999  29.112   5.855
10594POPC   GL163961   8.932  29.128   6.155
10594POPC   GL263962   9.008  29.282   6.155
10594POPC   C1A63963   9.021  29.142   6.455
10594POPC   D2A63964   8.980  29.182   6.755
10594POPC   C3A63965   9.022  29.179   7.055
10594POPC   C4A63966   8.944  29.186   7.355
10594POPC   C1B63967   9.111  29.307   6.455
10594POPC   C2B63968   9.141  29.296   6.755
10594POPC   C3B63969   9.158  29.285   7.055
10594POPC   C4B63970   9.092  29.315   7.355
10595POPC   NC363971  18.311   6.623   5.555
10595POPC   PO463972  18.330   6.643   5.855
10595POPC   GL163973  18.293   6.692   6.155
10595POPC   GL263974  18.159   6.561   6.155
10595POPC   C1A63975  18.299   6.605   6.455
10595POPC   D2A63976  18.310   6.633   6.755
10595POPC   C3A63977  18.311   6.643   7.055
10595POPC   C4A63978  18.290   6.678   7.355
10595POPC   C1B63979  18.027   6.540   6.455
10595POPC   C2B63980  18.054   6.611   6.755
10595POPC   C3B63981  18.014   6.526   7.055
10595POPC   C4B63982  18.089   6.572   7.355
10596POPC   NC363983   8.976  15.964   5.555
10596POPC   PO463984   9.004  15.949   5.855
10596POPC   GL163985   8.926  15.907   6.155
10596POPC   GL263986   8.923  16.056   6.155
10596POPC   C1A63987   8.967  15.955   6.455
10596POPC   D2A63988   9.016  15.990   6.755
10596POPC   C3A63989   8.960  15.921   7.055
10596POPC   C4A63990   8.965  15.927   7.355
10596POPC   C1B63991   8.956  16.167   6.455
10596POPC   C2B63992   8.959  16.249   6.755
10596POPC   C3B63993   8.894  16.240   7.055
10596POPC   C4B63994   8.975  16.208   7.355
10597POPC   NC363995   5.070  13.623   5.555
10597POPC   PO463996   5.131  13.635   5.855
10597POPC   GL163997   5.057  13.581   6.155
10597POPC   GL263998   5.009  13.603   6.155
10597POPC   C1A63999   5.137  13.598   6.455
10597POPC   D2A64000   5.090  13.675   6.755
10597POPC   C3A64001   5.112  13.593   7.055
10597POPC   C4A64002   5.075  13.578   7.355
10597POPC   C1B64003   4.903  13.503   6.455
10597POPC   C2B64004   4.853  13.559   6.755
10597POPC   C3B64005   4.853  13.493   7.055
10597POPC   C4B64006   4.847  13.502   7.355
10598POPC   NC364007   3.514   6.605   5.555
10598POPC   PO464008   3.553   6.689   5.855
10598POPC   GL164009   3.502   6.634   6.155
10598POPC   GL264010   3.647   6.589   6.155
10598POPC   C1A64011   3.563   6.649   6.455
10598POPC   D2A64012   3.547   6.651   6.755
10598POPC   C3A64013   3.562   6.674   7.055
10598POPC   C4A64014   3.565   6.600   7.355
10598POPC   C1B64015   3.725   6.526   6.455
10598POPC   C2B64016   3.802   6.521   6.755
10598POPC   C3B64017   3.763   6.489   7.055
10598POPC   C4B64018   3.740   6.479   7.355
10599POPC   NC364019  29.961   5.082   5.555
10599POPC   PO464020  29.939   5.100   5.855
10599POPC   GL164021  29.943   5.130   6.155
10599POPC   GL264022  30.021   5.102   6.155
10599POPC   C1A64023  29.952   5.072   6.455
10599POPC   D2A64024  29.914   5.079   6.755
10599POPC   C3A64025  29.944   5.115   7.055
10599POPC   C4A64026  29.941   5.108   7.355
10599POPC   C1B64027  30.168   5.090   6.455
10599POPC   C2B64028  30.202   5.131   6.755
10599POPC   C3B64029  30.121   5.167   7.055
10599POPC   C4B64030  30.131   5.110   7.355
10600POPC   NC364031  29.906  15.975   5.555
10600POPC   PO464032  29.876  15.954   5.855
10600POPC   GL164033  29.911  15.985   6.155
10600POPC   GL264034  29.872  15.830   6.155
10600POPC   C1A64035  29.923  15.930   6.455
10600POPC   D2A64036  29.882  15.923   6.755
10600POPC   C3A64037  29.945  15.930   7.055
10600POPC   C4A64038  29.908  15.947   7.355
10600POPC   C1B64039  29.797  15.723   6.455
10600POPC   C2B64040  29.827  15.679   6.755
10600POPC   C3B64041  29.807  15.699   7.055
10600POPC   C4B64042  29.816  15.761   7.355
10601POPC   NC364043  16.722   5.109   5.555
10601POPC   PO464044  16.715   5.135   5.855
10601POPC   GL164045  16.687   5.134   6.155
10601POPC   GL264046  16.852   5.114   6.155
10601POPC   C1A64047  16.709   5.125   6.455
10601POPC   D2A64048  16.684   5.065   6.755
10601POPC   C3A64049  16.718   5.063   7.055
10601POPC   C4A64050  16.727   5.101   7.355
10601POPC   C1B64051  16.974   5.103   6.455
10601POPC   C2B64052  16.964   5.072   6.755
10601POPC   C3B64053  17.024   5.119   7.055
10601POPC   C4B64054  16.961   5.085   7.355
10602POPC   NC364055  24.442   0.472   5.555
10602POPC   PO464056  24.476   0.435   5.855
10602POPC   GL164057  24.493   0.397   6.155
10602POPC   GL264058  24.550   0.285   6.155
10602POPC   C1A64059  24.457   0.430   6.455
10602POPC   D2A64060  24.530   0.424   6.755
10602POPC   C3A64061  24.477   0.463   7.055
10602POPC   C4A64062  24.530   0.442   7.355
10602POPC   C1B64063  24.523   0.197   6.455
10602POPC   C2B64064  24.529   0.208   6.755
10602POPC   C3B64065  24.495   0.222   7.055
10602POPC   C4B64066  24.479   0.208   7.355
10603POPC   NC364067  18.268   5.124   5.555
10603POPC   PO464068  18.259   5.119   5.855
10603POPC   GL164069  18.307   5.067   6.155
10603POPC   GL264070  18.364   5.213   6.155
10603POPC   C1A64071  18.258   5.141   6.455
10603POPC   D2A64072  18.267   5.107   6.755
10603POPC   C3A64073  18.323   5.088   7.055
10603POPC   C4A64074  18.266   5.078   7.355
10603POPC   C1B64075  18.377   5.350   6.455
10603POPC   C2B64076  18.366   5.301   6.755
10603POPC   C3B64077  18.392   5.288   7.055
10603POPC   C4B64078  18.411   5.305   7.355
10604POPC   NC364079  12.884   0.462   5.555
10604POPC   PO464080  12.819   0.411   5.855
10604POPC   GL164081  12.860   0.474   6.155
10604POPC   GL264082  12.731   0.426   6.155
10604POPC   C1A64083  12.834   0.486   6.455
10604POPC   D2A64084  12.857   0.424   6.755
10604POPC   C3A64085  12.852   0.486   7.055
10604POPC   C4A64086  12.828   0.478   7.355
10604POPC   C1B64087  12.644   0.483   6.455
10604POPC   C2B64088  12.593   0.460   6.755
10604POPC   C3B64089  12.614   0.488   7.055
10604POPC   C4B64090  12.628   0.463   7.355
10605POPC   NC364091  15.936  13.668   5.555
10605POPC   PO464092  15.915  13.579   5.855
10605POPC   GL164093  15.979  13.659   6.155
10605POPC   GL264094  16.044  13.669   6.155
10605POPC   C1A64095  15.984  13.580   6.455
10605POPC   D2A64096  15.987  13.646   6.755
10605POPC   C3A64097  15.989  13.612   7.055
10605POPC   C4A64098  15.907  13.609   7.355
10605POPC   C1B64099  16.139  13.739   6.455
10605POPC   C2B64100  16.177  13.740   6.755
10605POPC   C3B64101  16.131  13.792   7.055
10605POPC   C4B64102  16.176  13.776   7.355
10606POPC   NC364103  10.505  17.518   5.555
10606POPC   PO464104  10.520  17.494   5.855
10606POPC   GL164105  10.546  17.511   6.155
10606POPC   GL264106  10.682  17.574   6.155
10606POPC   C1A64107  10.499  17.477   6.455
10606POPC   D2A64108  10.560  17.530   6.755
10606POPC   C3A64109  10.527  17.489   7.055
10606POPC   C4A64110  10.506  17.526   7.355
10606POPC   C1B64111  10.701  17.660   6.455
10606POPC   C2B64112  10.749  17.631   6.755
10606POPC   C3B64113  10.724  17.649   7.055
10606POPC   C4B64114  10.696  17.639   7.355
10607POPC   NC364115  30.710  18.294   5.555
10607POPC   PO464116  30.647  18.303   5.855
10607POPC   GL164117  30.721  18.300   6.155
10607POPC   GL264118  30.832  18.275   6.155
10607POPC   C1A64119  30.707  18.274   6.455
10607POPC   D2A64120  30.653  18.251   6.755
10607POPC   C3A64121  30.732  18.331   7.055
10607POPC   C4A64122  30.711  18.243   7.355
10607POPC   C1B64123  30.967  18.388   6.455
10607POPC   C2B64124  30.915  18.334   6.755
10607POPC   C3B64125  30.900  18.373   7.055
10607POPC   C4B64126  30.925  18.393   7.355
10608POPC   NC364127   7.444   9.712   5.555
10608POPC   PO464128   7.383   9.719   5.855
10608POPC   GL164129   7.407   9.785   6.155
10608POPC   GL264130   7.375   9.788   6.155
10608POPC   C1A64131   7.468   9.772   6.455
10608POPC   D2A64132   7.465   9.790   6.755
10608POPC   C3A64133   7.403   9.707   7.055
10608POPC   C4A64134   7.388   9.747   7.355
10608POPC   C1B64135   7.277   9.902   6.455
10608POPC   C2B64136   7.215   9.907   6.755
10608POPC   C3B64137   7.239   9.949   7.055
10608POPC   C4B64138   7.228   9.878   7.355
10609POPC   NC364139  12.847  19.868   5.555
10609POPC   PO464140  12.859  19.847   5.855
10609POPC   GL164141  12.875  19.860   6.155
10609POPC   GL264142  12.808  19.713   6.155
10609POPC   C1A64143  12.820  19.878   6.455
10609POPC   D2A64144  12.858  19.867   6.755
10609POPC   C3A64145  12.854  19.840   7.055
10609POPC   C4A64146  12.808  19.828   7.355
10609POPC   C1B64147  12.716  19.635   6.455
10609POPC   C2B64148  12.728  19.609   6.755
10609POPC   C3B64149  12.737  19.623   7.055
10609POPC   C4B64150  12.716  19.603   7.355
10610POPC   NC364151  31.451  41.570   5.555
10610POPC   PO464152  31.441  41.605   5.855
10610POPC   GL164153  31.443  41.584   6.155
10610POPC   GL264154  31.555  41.470   6.155
10610POPC   C1A64155  31.519  41.541   6.455
10610POPC   D2A64156  31.495  41.570   6.755
10610POPC   C3A64157  31.500  41.549   7.055
10610POPC   C4A64158  31.469  41.584   7.355
10610POPC   C1B64159  31.613  41.346   6.455
10610POPC   C2B64160  31.664  41.320   6.755
10610POPC   C3B64161  31.632  41.406   7.055
10610POPC   C4B64162  31.594  41.392   7.355
10611POPC   NC364163  29.114  10.555   5.555
10611POPC   PO464164  29.125  10.482   5.855
10611POPC   GL164165  29.112  10.520   6.155
10611POPC   GL264166  29.205  10.588   6.155
10611POPC   C1A64167  29.127  10.491   6.455
10611POPC   D2A64168  29.159  10.549   6.755
10611POPC   C3A64169  29.132  10.507   7.055
10611POPC   C4A64170  29.158  10.501   7.355
10611POPC   C1B64171  29.250  10.703   6.455
10611POPC   C2B64172  29.333  10.762   6.755
10611POPC   C3B64173  29.308  10.703   7.055
10611POPC   C4B64174  29.248  10.720   7.355
10612POPC   NC364175  29.955   0.442   5.555
10612POPC   PO464176  29.873   0.397   5.855
10612POPC   GL164177  29.899   0.401   6.155
10612POPC   GL264178  29.855   0.478   6.155
10612POPC   C1A64179  29.962   0.429   6.455
10612POPC   D2A64180  29.880   0.470   6.755
10612POPC   C3A64181  29.921   0.456   7.055
10612POPC   C4A64182  29.947   0.418   7.355
10612POPC   C1B64183  29.690   0.568   6.455
10612POPC   C2B64184  29.699   0.525   6.755
10612POPC   C3B64185  29.669   0.554   7.055
10612POPC   C4B64186  29.699   0.595   7.355
10613POPC   NC364187  25.308  12.847   5.555
10613POPC   PO464188  25.312  12.887   5.855
10613POPC   GL164189  25.261  12.862   6.155
10613POPC   GL264190  25.400  12.935   6.155
10613POPC   C1A64191  25.251  12.888   6.455
10613POPC   D2A64192  25.279  12.812   6.755
10613POPC   C3A64193  25.280  12.824   7.055
10613POPC   C4A64194  25.285  12.883   7.355
10613POPC   C1B64195  25.523  12.936   6.455
10613POPC   C2B64196  25.471  12.881   6.755
10613POPC   C3B64197  25.485  12.912   7.055
10613POPC   C4B64198  25.468  12.966   7.355
10614POPC   NC364199  43.863  41.587   5.555
10614POPC   PO464200  43.910  41.521   5.855
10614POPC   GL164201  43.898  41.588   6.155
10614POPC   GL264202  44.024  41.585   6.155
10614POPC   C1A64203  43.926  41.553   6.455
10614POPC   D2A64204  43.901  41.582   6.755
10614POPC   C3A64205  43.932  41.509   7.055
10614POPC   C4A64206  43.898  41.568   7.355
10614POPC   C1B64207  44.145  41.615   6.455
10614POPC   C2B64208  44.150  41.628   6.755
10614POPC   C3B64209  44.140  41.600   7.055
10614POPC   C4B64210  44.121  41.606   7.355
10615POPC   NC364211   2.795   4.287   5.555
10615POPC   PO464212   2.779   4.353   5.855
10615POPC   GL164213   2.719   4.325   6.155
10615POPC   GL264214   2.798   4.406   6.155
10615POPC   C1A64215   2.795   4.328   6.455
10615POPC   D2A64216   2.769   4.276   6.755
10615POPC   C3A64217   2.782   4.309   7.055
10615POPC   C4A64218   2.784   4.344   7.355
10615POPC   C1B64219   2.828   4.567   6.455
10615POPC   C2B64220   2.825   4.570   6.755
10615POPC   C3B64221   2.862   4.602   7.055
10615POPC   C4B64222   2.862   4.602   7.355
10616POPC   NC364223  32.979   9.727   5.555
10616POPC   PO464224  32.991   9.708   5.855
10616POPC   GL164225  33.063   9.762   6.155
10616POPC   GL264226  32.910   9.855   6.155
10616POPC   C1A64227  33.015   9.721   6.455
10616POPC   D2A64228  33.000   9.735   6.755
10616POPC   C3A64229  33.074   9.700   7.055
10616POPC   C4A64230  33.013   9.767   7.355
10616POPC   C1B64231  32.934   9.937   6.455
10616POPC   C2B64232  32.908   9.966   6.755
10616POPC   C3B64233  32.938   9.948   7.055
10616POPC   C4B64234  32.875   9.967   7.355
10617POPC   NC364235  28.351  14.445   5.555
10617POPC   PO464236  28.355  14.386   5.855
10617POPC   GL164237  28.329  14.413   6.155
10617POPC   GL264238  28.252  14.431   6.155
10617POPC   C1A64239  28.347  14.399   6.455
10617POPC   D2A64240  28.352  14.429   6.755
10617POPC   C3A64241  28.343  14.359   7.055
10617POPC   C4A64242  28.406  14.374   7.355
10617POPC   C1B64243  28.148  14.379   6.455
10617POPC   C2B64244  28.143  14.409   6.755
10617POPC   C3B64245  28.126  14.336   7.055
10617POPC   C4B64246  28.110  14.363   7.355
10618POPC   NC364247  14.397  18.298   5.555
10618POPC   PO464248  14.360  18.313   5.855
10618POPC   GL164249  14.441  18.287   6.155
10618POPC   GL264250  14.395  18.407   6.155
10618POPC   C1A64251  14.372  18.325   6.455
10618POPC   D2A64252  14.389  18.280   6.755
10618POPC   C3A64253  14.401  18.328   7.055
10618POPC   C4A64254  14.441  18.300   7.355
10618POPC   C1B64255  14.434  18.489   6.455
10618POPC   C2B64256  14.462  18.491   6.755
10618POPC   C3B64257  14.436  18.479   7.055
10618POPC   C4B64258  14.492  18.482   7.355
10619POPC   NC364259  36.137   6.599   5.555
10619POPC   PO464260  36.130   6.644   5.855
10619POPC   GL164261  36.100   6.619   6.155
10619POPC   GL264262  36.236   6.631   6.155
10619POPC   C1A64263  36.167   6.647   6.455
10619POPC   D2A64264  36.099   6.694   6.755
10619POPC   C3A64265  36.162   6.630   7.055
10619POPC   C4A64266  36.115   6.651   7.355
10619POPC   C1B64267  36.393   6.642   6.455
10619POPC   C2B64268  36.424   6.720   6.755
10619POPC   C3B64269  36.421   6.703   7.055
10619POPC   C4B64270  36.351   6.711   7.355
10620POPC   NC364271  19.859  23.762   5.555
10620POPC   PO464272  19.825  23.705   5.855
10620POPC   GL164273  19.824  23.723   6.155
10620POPC   GL264274  19.765  23.768   6.155
10620POPC   C1A64275  19.813  23.670   6.455
10620POPC   D2A64276  19.848  23.666   6.755
10620POPC   C3A64277  19.883  23.751   7.055
10620POPC   C4A64278  19.880  23.763   7.355
10620POPC   C1B64279  19.585  23.839   6.455
10620POPC   C2B64280  19.664  23.812   6.755
10620POPC   C3B64281  19.632  23.878   7.055
10620POPC   C4B64282  19.637  23.852   7.355
10621POPC   NC364283  14.388  35.349   5.555
10621POPC   PO464284  14.363  35.325   5.855
10621POPC   GL164285  14.424  35.313   6.155
10621POPC   GL264286  14.437  35.262   6.155
10621POPC   C1A64287  14.390  35.352   6.455
10621POPC   D2A64288  14.439  35.357   6.755
10621POPC   C3A64289  14.431  35.307   7.055
10621POPC   C4A64290  14.355  35.397   7.355
10621POPC   C1B64291  14.501  35.142   6.455
10621POPC   C2B64292  14.513  35.121   6.755
10621POPC   C3B64293  14.535  35.156   7.055
10621POPC   C4B64294  14.553  35.131   7.355
10622POPC   NC364295   6.690  31.508   5.555
10622POPC   PO464296   6.598  31.497   5.855
10622POPC   GL164297   6.649  31.438   6.155
10622POPC   GL264298   6.628  31.363   6.155
10622POPC   C1A64299   6.668  31.519   6.455
10622POPC   D2A64300   6.622  31.448   6.755
10622POPC   C3A64301   6.694  31.440   7.055
10622POPC   C4A64302   6.656  31.436   7.355
10622POPC   C1B64303   6.546  31.280   6.455
10622POPC   C2B64304   6.556  31.243   6.755
10622POPC   C3B64305   6.503  31.231   7.055
10622POPC   C4B64306   6.521  31.243   7.355
10623POPC   NC364307  12.051  30.700   5.555
10623POPC   PO464308  12.093  30.689   5.855
10623POPC   GL164309  12.095  30.658   6.155
10623POPC   GL264310  12.170  30.705   6.155
10623POPC   C1A64311  12.117  30.683   6.455
10623POPC   D2A64312  12.053  30.734   6.755
10623POPC   C3A64313  12.037  30.703   7.055
10623POPC   C4A64314  12.123  30.658   7.355
10623POPC   C1B64315  12.334  30.760   6.455
10623POPC   C2B64316  12.286  30.789   6.755
10623POPC   C3B64317  12.310  30.705   7.055
10623POPC   C4B64318  12.333  30.771   7.355
10624POPC   NC364319  22.917  30.678   5.555
10624POPC   PO464320  22.889  30.678   5.855
10624POPC   GL164321  22.905  30.681   6.155
10624POPC   GL264322  23.067  30.675   6.155
10624POPC   C1A64323  22.902  30.674   6.455
10624POPC   D2A64324  22.902  30.657   6.755
10624POPC   C3A64325  22.985  30.696   7.055
10624POPC   C4A64326  22.975  30.741   7.355
10624POPC   C1B64327  23.190  30.627   6.455
10624POPC   C2B64328  23.170  30.542   6.755
10624POPC   C3B64329  23.184  30.546   7.055
10624POPC   C4B64330  23.153  30.621   7.355
10625POPC   NC364331  31.439  38.468   5.555
10625POPC   PO464332  31.479  38.495   5.855
10625POPC   GL164333  31.436  38.417   6.155
10625POPC   GL264334  31.534  38.493   6.155
10625POPC   C1A64335  31.471  38.465   6.455
10625POPC   D2A64336  31.494  38.424   6.755
10625POPC   C3A64337  31.436  38.497   7.055
10625POPC   C4A64338  31.465  38.468   7.355
10625POPC   C1B64339  31.704  38.580   6.455
10625POPC   C2B64340  31.668  38.651   6.755
10625POPC   C3B64341  31.651  38.576   7.055
10625POPC   C4B64342  31.642  38.589   7.355
10626POPC   NC364343  15.935   8.167   5.555
10626POPC   PO464344  15.977   8.151   5.855
10626POPC   GL164345  15.955   8.245   6.155
10626POPC   GL264346  15.972   8.112   6.155
10626POPC   C1A64347  15.910   8.238   6.455
10626POPC   D2A64348  15.943   8.170   6.755
10626POPC   C3A64349  15.990   8.160   7.055
10626POPC   C4A64350  15.994   8.159   7.355
10626POPC   C1B64351  16.062   7.953   6.455
10626POPC   C2B64352  16.069   7.911   6.755
10626POPC   C3B64353  15.994   7.934   7.055
10626POPC   C4B64354  16.026   8.007   7.355
10627POPC   NC364355  15.186  27.641   5.555
10627POPC   PO464356  15.171  27.642   5.855
10627POPC   GL164357  15.197  27.585   6.155
10627POPC   GL264358  15.241  27.706   6.155
10627POPC   C1A64359  15.162  27.564   6.455
10627POPC   D2A64360  15.213  27.595   6.755
10627POPC   C3A64361  15.220  27.584   7.055
10627POPC   C4A64362  15.155  27.596   7.355
10627POPC   C1B64363  15.359  27.759   6.455
10627POPC   C2B64364  15.347  27.778   6.755
10627POPC   C3B64365  15.410  27.790   7.055
10627POPC   C4B64366  15.411  27.737   7.355
10628POPC   NC364367  15.166  26.791   5.555
10628POPC   PO464368  15.144  26.839   5.855
10628POPC   GL164369  15.181  26.857   6.155
10628POPC   GL264370  15.316  26.717   6.155
10628POPC   C1A64371  15.154  26.777   6.455
10628POPC   D2A64372  15.213  26.827   6.755
10628POPC   C3A64373  15.183  26.778   7.055
10628POPC   C4A64374  15.222  26.794   7.355
10628POPC   C1B64375  15.343  26.697   6.455
10628POPC   C2B64376  15.364  26.650   6.755
10628POPC   C3B64377  15.400  26.684   7.055
10628POPC   C4B64378  15.371  26.681   7.355
10629POPC   NC364379  36.915  27.568   5.555
10629POPC   PO464380  36.914  27.569   5.855
10629POPC   GL164381  36.917  27.607   6.155
10629POPC   GL264382  36.846  27.471   6.155
10629POPC   C1A64383  36.861  27.609   6.455
10629POPC   D2A64384  36.894  27.574   6.755
10629POPC   C3A64385  36.866  27.549   7.055
10629POPC   C4A64386  36.883  27.622   7.355
10629POPC   C1B64387  36.711  27.489   6.455
10629POPC   C2B64388  36.680  27.470   6.755
10629POPC   C3B64389  36.731  27.489   7.055
10629POPC   C4B64390  36.676  27.461   7.355
10630POPC   NC364391   5.130  15.142   5.555
10630POPC   PO464392   5.057  15.224   5.855
10630POPC   GL164393   5.103  15.150   6.155
10630POPC   GL264394   5.061  15.267   6.155
10630POPC   C1A64395   5.105  15.157   6.455
10630POPC   D2A64396   5.131  15.199   6.755
10630POPC   C3A64397   5.081  15.159   7.055
10630POPC   C4A64398   5.090  15.165   7.355
10630POPC   C1B64399   5.022  15.412   6.455
10630POPC   C2B64400   4.992  15.442   6.755
10630POPC   C3B64401   4.997  15.459   7.055
10630POPC   C4B64402   5.007  15.433   7.355
10631POPC   NC364403  36.152  21.375   5.555
10631POPC   PO464404  36.156  21.387   5.855
10631POPC   GL164405  36.176  21.355   6.155
10631POPC   GL264406  35.968  21.428   6.155
10631POPC   C1A64407  36.134  21.425   6.455
10631POPC   D2A64408  36.088  21.342   6.755
10631POPC   C3A64409  36.121  21.415   7.055
10631POPC   C4A64410  36.142  21.339   7.355
10631POPC   C1B64411  35.837  21.350   6.455
10631POPC   C2B64412  35.829  21.419   6.755
10631POPC   C3B64413  35.857  21.421   7.055
10631POPC   C4B64414  35.888  21.417   7.355
10632POPC   NC364415  19.067  40.004   5.555
10632POPC   PO464416  19.082  40.042   5.855
10632POPC   GL164417  19.015  40.036   6.155
10632POPC   GL264418  19.110  39.868   6.155
10632POPC   C1A64419  19.087  40.008   6.455
10632POPC   D2A64420  19.028  40.015   6.755
10632POPC   C3A64421  19.040  40.056   7.055
10632POPC   C4A64422  19.039  40.044   7.355
10632POPC   C1B64423  19.146  39.770   6.455
10632POPC   C2B64424  19.165  39.797   6.755
10632POPC   C3B64425  19.126  39.797   7.055
10632POPC   C4B64426  19.139  39.800   7.355
10633POPC   NC364427  37.638  19.875   5.555
10633POPC   PO464428  37.635  19.869   5.855
10633POPC   GL164429  37.674  19.864   6.155
10633POPC   GL264430  37.741  19.916   6.155
10633POPC   C1A64431  37.633  19.854   6.455
10633POPC   D2A64432  37.697  19.788   6.755
10633POPC   C3A64433  37.677  19.791   7.055
10633POPC   C4A64434  37.693  19.805   7.355
10633POPC   C1B64435  37.774  20.028   6.455
10633POPC   C2B64436  37.771  20.074   6.755
10633POPC   C3B64437  37.795  20.031   7.055
10633POPC   C4B64438  37.789  20.089   7.355
10634POPC   NC364439  35.359  27.629   5.555
10634POPC   PO464440  35.395  27.575   5.855
10634POPC   GL164441  35.354  27.621   6.155
10634POPC   GL264442  35.444  27.644   6.155
10634POPC   C1A64443  35.356  27.590   6.455
10634POPC   D2A64444  35.328  27.568   6.755
10634POPC   C3A64445  35.372  27.566   7.055
10634POPC   C4A64446  35.343  27.588   7.355
10634POPC   C1B64447  35.531  27.779   6.455
10634POPC   C2B64448  35.562  27.732   6.755
10634POPC   C3B64449  35.575  27.806   7.055
10634POPC   C4B64450  35.534  27.759   7.355
10635POPC   NC364451  41.534  18.258   5.555
10635POPC   PO464452  41.574  18.330   5.855
10635POPC   GL164453  41.560  18.275   6.155
10635POPC   GL264454  41.553  18.348   6.155
10635POPC   C1A64455  41.555  18.328   6.455
10635POPC   D2A64456  41.587  18.323   6.755
10635POPC   C3A64457  41.556  18.250   7.055
10635POPC   C4A64458  41.536  18.291   7.355
10635POPC   C1B64459  41.447  18.474   6.455
10635POPC   C2B64460  41.464  18.518   6.755
10635POPC   C3B64461  41.407  18.518   7.055
10635POPC   C4B64462  41.501  18.477   7.355
10636POPC   NC364463  29.168   7.407   5.555
10636POPC   PO464464  29.147   7.402   5.855
10636POPC   GL164465  29.179   7.434   6.155
10636POPC   GL264466  29.118   7.341   6.155
10636POPC   C1A64467  29.148   7.390   6.455
10636POPC   D2A64468  29.147   7.436   6.755
10636POPC   C3A64469  29.186   7.445   7.055
10636POPC   C4A64470  29.144   7.400   7.355
10636POPC   C1B64471  28.988   7.259   6.455
10636POPC   C2B64472  29.043   7.181   6.755
10636POPC   C3B64473  29.046   7.225   7.055
10636POPC   C4B64474  29.019   7.229   7.355
10637POPC   NC364475  16.708  38.422   5.555
10637POPC   PO464476  16.697  38.472   5.855
10637POPC   GL164477  16.763  38.413   6.155
10637POPC   GL264478  16.868  38.409   6.155
10637POPC   C1A64479  16.733  38.472   6.455
10637POPC   D2A64480  16.749  38.409   6.755
10637POPC   C3A64481  16.774  38.482   7.055
10637POPC   C4A64482  16.709  38.482   7.355
10637POPC   C1B64483  16.957  38.409   6.455
10637POPC   C2B64484  17.009  38.415   6.755
10637POPC   C3B64485  17.001  38.364   7.055
10637POPC   C4B64486  16.995  38.426   7.355
10638POPC   NC364487  24.446  40.737   5.555
10638POPC   PO464488  24.533  40.797   5.855
10638POPC   GL164489  24.502  40.818   6.155
10638POPC   GL264490  24.462  40.629   6.155
10638POPC   C1A64491  24.487  40.759   6.455
10638POPC   D2A64492  24.454  40.765   6.755
10638POPC   C3A64493  24.534  40.777   7.055
10638POPC   C4A64494  24.536  40.773   7.355
10638POPC   C1B64495  24.397  40.499   6.455
10638POPC   C2B64496  24.482  40.540   6.755
10638POPC   C3B64497  24.442  40.494   7.055
10638POPC   C4B64498  24.458  40.536   7.355
10639POPC   NC364499  35.349  28.350   5.555
10639POPC   PO464500  35.394  28.340   5.855
10639POPC   GL164501  35.327  28.410   6.155
10639POPC   GL264502  35.398  28.213   6.155
10639POPC   C1A64503  35.399  28.377   6.455
10639POPC   D2A64504  35.350  28.338   6.755
10639POPC   C3A64505  35.365  28.329   7.055
10639POPC   C4A64506  35.395  28.375   7.355
10639POPC   C1B64507  35.436  28.102   6.455
10639POPC   C2B64508  35.357  28.156   6.755
10639POPC   C3B64509  35.435  28.164   7.055
10639POPC   C4B64510  35.448  28.109   7.355
10640POPC   NC364511   4.353  10.558   5.555
10640POPC   PO464512   4.359  10.476   5.855
10640POPC   GL164513   4.350  10.556   6.155
10640POPC   GL264514   4.305  10.609   6.155
10640POPC   C1A64515   4.278  10.474   6.455
10640POPC   D2A64516   4.324  10.480   6.755
10640POPC   C3A64517   4.366  10.574   7.055
10640POPC   C4A64518   4.355  10.564   7.355
10640POPC   C1B64519   4.320  10.750   6.455
10640POPC   C2B64520   4.350  10.771   6.755
10640POPC   C3B64521   4.360  10.740   7.055
10640POPC   C4B64522   4.309  10.806   7.355
10641POPC   NC364523  23.704  22.183   5.555
10641POPC   PO464524  23.695  22.204   5.855
10641POPC   GL164525  23.754  22.117   6.155
10641POPC   GL264526  23.570  22.069   6.155
10641POPC   C1A64527  23.729  22.180   6.455
10641POPC   D2A64528  23.699  22.168   6.755
10641POPC   C3A64529  23.731  22.123   7.055
10641POPC   C4A64530  23.737  22.197   7.355
10641POPC   C1B64531  23.496  22.004   6.455
10641POPC   C2B64532  23.549  22.022   6.755
10641POPC   C3B64533  23.495  21.974   7.055
10641POPC   C4B64534  23.513  22.044   7.355
10642POPC   NC364535  36.906  25.308   5.555
10642POPC   PO464536  36.879  25.248   5.855
10642POPC   GL164537  36.860  25.267   6.155
10642POPC   GL264538  36.961  25.108   6.155
10642POPC   C1A64539  36.949  25.269   6.455
10642POPC   D2A64540  36.929  25.260   6.755
10642POPC   C3A64541  36.905  25.264   7.055
10642POPC   C4A64542  36.865  25.233   7.355
10642POPC   C1B64543  36.899  24.984   6.455
10642POPC   C2B64544  36.971  24.998   6.755
10642POPC   C3B64545  36.995  25.055   7.055
10642POPC   C4B64546  36.982  25.026   7.355
10643POPC   NC364547  17.483  35.347   5.555
10643POPC   PO464548  17.458  35.390   5.855
10643POPC   GL164549  17.550  35.334   6.155
10643POPC   GL264550  17.462  35.443   6.155
10643POPC   C1A64551  17.473  35.400   6.455
10643POPC   D2A64552  17.462  35.396   6.755
10643POPC   C3A64553  17.521  35.339   7.055
10643POPC   C4A64554  17.475  35.356   7.355
10643POPC   C1B64555  17.483  35.636   6.455
10643POPC   C2B64556  17.444  35.613   6.755
10643POPC   C3B64557  17.450  35.594   7.055
10643POPC   C4B64558  17.476  35.580   7.355
10644POPC   NC364559   4.308  12.084   5.555
10644POPC   PO464560   4.346  12.040   5.855
10644POPC   GL164561   4.346  12.089   6.155
10644POPC   GL264562   4.240  12.093   6.155
10644POPC   C1A64563   4.299  12.101   6.455
10644POPC   D2A64564   4.358  12.092   6.755
10644POPC   C3A64565   4.279  12.112   7.055
10644POPC   C4A64566   4.280  12.082   7.355
10644POPC   C1B64567   4.080  12.019   6.455
10644POPC   C2B64568   4.060  12.061   6.755
10644POPC   C3B64569   4.029  11.983   7.055
10644POPC   C4B64570   4.031  11.973   7.355
10645POPC   NC364571  39.184  17.475   5.555
10645POPC   PO464572  39.230  17.555   5.855
10645POPC   GL164573  39.239  17.548   6.155
10645POPC   GL264574  39.135  17.433   6.155
10645POPC   C1A64575  39.216  17.485   6.455
10645POPC   D2A64576  39.227  17.548   6.755
10645POPC   C3A64577  39.202  17.551   7.055
10645POPC   C4A64578  39.248  17.528   7.355
10645POPC   C1B64579  39.029  17.373   6.455
10645POPC   C2B64580  38.957  17.426   6.755
10645POPC   C3B64581  38.981  17.422   7.055
10645POPC   C4B64582  38.997  17.356   7.355
10646POPC   NC364583  28.327  29.924   5.555
10646POPC   PO464584  28.365  29.900   5.855
10646POPC   GL164585  28.390  29.946   6.155
10646POPC   GL264586  28.533  29.874   6.155
10646POPC   C1A64587  28.337  29.903   6.455
10646POPC   D2A64588  28.338  29.942   6.755
10646POPC   C3A64589  28.402  29.952   7.055
10646POPC   C4A64590  28.374  29.926   7.355
10646POPC   C1B64591  28.604  29.833   6.455
10646POPC   C2B64592  28.625  29.786   6.755
10646POPC   C3B64593  28.565  29.776   7.055
10646POPC   C4B64594  28.649  29.820   7.355
10647POPC   NC364595  12.865  22.939   5.555
10647POPC   PO464596  12.892  22.927   5.855
10647POPC   GL164597  12.891  22.938   6.155
10647POPC   GL264598  12.753  22.916   6.155
10647POPC   C1A64599  12.867  22.907   6.455
10647POPC   D2A64600  12.802  22.924   6.755
10647POPC   C3A64601  12.885  22.984   7.055
10647POPC   C4A64602  12.839  22.985   7.355
10647POPC   C1B64603  12.614  22.797   6.455
10647POPC   C2B64604  12.601  22.820   6.755
10647POPC   C3B64605  12.658  22.855   7.055
10647POPC   C4B64606  12.592  22.811   7.355
10648POPC   NC364607  15.951  12.869   5.555
10648POPC   PO464608  15.996  12.833   5.855
10648POPC   GL164609  15.913  12.871   6.155
10648POPC   GL264610  16.048  12.751   6.155
10648POPC   C1A64611  15.968  12.895   6.455
10648POPC   D2A64612  15.972  12.867   6.755
10648POPC   C3A64613  15.986  12.901   7.055
10648POPC   C4A64614  15.926  12.874   7.355
10648POPC   C1B64615  16.152  12.665   6.455
10648POPC   C2B64616  16.172  12.763   6.755
10648POPC   C3B64617  16.170  12.743   7.055
10648POPC   C4B64618  16.164  12.672   7.355
10649POPC   NC364619  19.017   7.395   5.555
10649POPC   PO464620  19.038   7.396   5.855
10649POPC   GL164621  19.077   7.398   6.155
10649POPC   GL264622  18.913   7.446   6.155
10649POPC   C1A64623  19.037   7.377   6.455
10649POPC   D2A64624  19.019   7.387   6.755
10649POPC   C3A64625  19.012   7.445   7.055
10649POPC   C4A64626  19.098   7.441   7.355
10649POPC   C1B64627  18.804   7.560   6.455
10649POPC   C2B64628  18.809   7.516   6.755
10649POPC   C3B64629  18.868   7.548   7.055
10649POPC   C4B64630  18.892   7.511   7.355
10650POPC   NC364631  29.128  19.091   5.555
10650POPC   PO464632  29.143  19.028   5.855
10650POPC   GL164633  29.171  19.085   6.155
10650POPC   GL264634  29.088  19.219   6.155
10650POPC   C1A64635  29.133  19.045   6.455
10650POPC   D2A64636  29.113  19.012   6.755
10650POPC   C3A64637  29.188  19.052   7.055
10650POPC   C4A64638  29.191  19.048   7.355
10650POPC   C1B64639  29.041  19.271   6.455
10650POPC   C2B64640  29.058  19.281   6.755
10650POPC   C3B64641  29.114  19.311   7.055
10650POPC   C4B64642  29.051  19.298   7.355
10651POPC   NC364643   5.867  25.285   5.555
10651POPC   PO464644   5.912  25.281   5.855
10651POPC   GL164645   5.844  25.243   6.155
10651POPC   GL264646   5.894  25.209   6.155
10651POPC   C1A64647   5.855  25.231   6.455
10651POPC   D2A64648   5.821  25.265   6.755
10651POPC   C3A64649   5.880  25.230   7.055
10651POPC   C4A64650   5.912  25.222   7.355
10651POPC   C1B64651   6.061  25.012   6.455
10651POPC   C2B64652   6.014  25.083   6.755
10651POPC   C3B64653   6.023  25.049   7.055
10651POPC   C4B64654   6.006  25.080   7.355
10652POPC   NC364655  17.488   5.093   5.555
10652POPC   PO464656  17.523   5.076   5.855
10652POPC   GL164657  17.517   5.049   6.155
10652POPC   GL264658  17.541   4.992   6.155
10652POPC   C1A64659  17.529   5.123   6.455
10652POPC   D2A64660  17.538   5.125   6.755
10652POPC   C3A64661  17.503   5.089   7.055
10652POPC   C4A64662  17.512   5.067   7.355
10652POPC   C1B64663  17.703   4.904   6.455
10652POPC   C2B64664  17.701   4.892   6.755
10652POPC   C3B64665  17.623   4.917   7.055
10652POPC   C4B64666  17.692   4.910   7.355
10653POPC   NC364667  38.445   5.851   5.555
10653POPC   PO464668  38.445   5.889   5.855
10653POPC   GL164669  38.490   5.901   6.155
10653POPC   GL264670  38.472   5.964   6.155
10653POPC   C1A64671  38.434   5.834   6.455
10653POPC   D2A64672  38.499   5.836   6.755
10653POPC   C3A64673  38.502   5.835   7.055
10653POPC   C4A64674  38.476   5.846   7.355
10653POPC   C1B64675  38.501   6.069   6.455
10653POPC   C2B64676  38.419   6.164   6.755
10653POPC   C3B64677  38.492   6.157   7.055
10653POPC   C4B64678  38.517   6.160   7.355
10654POPC   NC364679  33.068   8.180   5.555
10654POPC   PO464680  33.069   8.151   5.855
10654POPC   GL164681  33.068   8.165   6.155
10654POPC   GL264682  32.924   8.166   6.155
10654POPC   C1A64683  33.014   8.148   6.455
10654POPC   D2A64684  32.991   8.236   6.755
10654POPC   C3A64685  33.011   8.208   7.055
10654POPC   C4A64686  33.024   8.153   7.355
10654POPC   C1B64687  32.787   8.041   6.455
10654POPC   C2B64688  32.799   8.100   6.755
10654POPC   C3B64689  32.772   8.061   7.055
10654POPC   C4B64690  32.827   8.071   7.355
10655POPC   NC364691  27.552   8.212   5.555
10655POPC   PO464692  27.568   8.168   5.855
10655POPC   GL164693  27.613   8.181   6.155
10655POPC   GL264694  27.688   8.087   6.155
10655POPC   C1A64695  27.584   8.197   6.455
10655POPC   D2A64696  27.566   8.241   6.755
10655POPC   C3A64697  27.632   8.168   7.055
10655POPC   C4A64698  27.552   8.224   7.355
10655POPC   C1B64699  27.761   8.065   6.455
10655POPC   C2B64700  27.742   8.053   6.755
10655POPC   C3B64701  27.827   8.024   7.055
10655POPC   C4B64702  27.783   8.003   7.355
10656POPC   NC364703  13.665  23.759   5.555
10656POPC   PO464704  13.637  23.737   5.855
10656POPC   GL164705  13.593  23.681   6.155
10656POPC   GL264706  13.573  23.831   6.155
10656POPC   C1A64707  13.610  23.681   6.455
10656POPC   D2A64708  13.592  23.762   6.755
10656POPC   C3A64709  13.641  23.721   7.055
10656POPC   C4A64710  13.653  23.721   7.355
10656POPC   C1B64711  13.489  23.925   6.455
10656POPC   C2B64712  13.541  23.890   6.755
10656POPC   C3B64713  13.518  23.944   7.055
10656POPC   C4B64714  13.490  23.937   7.355
10657POPC   NC364715   9.741  32.260   5.555
10657POPC   PO464716   9.744  32.256   5.855
10657POPC   GL164717   9.714  32.207   6.155
10657POPC   GL264718   9.644  32.122   6.155
10657POPC   C1A64719   9.738  32.287   6.455
10657POPC   D2A64720   9.760  32.267   6.755
10657POPC   C3A64721   9.712  32.208   7.055
10657POPC   C4A64722   9.725  32.255   7.355
10657POPC   C1B64723   9.563  32.088   6.455
10657POPC   C2B64724   9.581  32.014   6.755
10657POPC   C3B64725   9.551  32.003   7.055
10657POPC   C4B64726   9.578  32.050   7.355
10658POPC   NC364727   9.779  33.002   5.555
10658POPC   PO464728   9.725  33.021   5.855
10658POPC   GL164729   9.798  32.999   6.155
10658POPC   GL264730   9.662  33.097   6.155
10658POPC   C1A64731   9.717  33.014   6.455
10658POPC   D2A64732   9.733  33.068   6.755
10658POPC   C3A64733   9.776  32.987   7.055
10658POPC   C4A64734   9.760  32.999   7.355
10658POPC   C1B64735   9.546  33.166   6.455
10658POPC   C2B64736   9.539  33.167   6.755
10658POPC   C3B64737   9.581  33.199   7.055
10658POPC   C4B64738   9.542  33.231   7.355
10659POPC   NC364739  38.454  19.064   5.555
10659POPC   PO464740  38.493  19.106   5.855
10659POPC   GL164741  38.459  19.020   6.155
10659POPC   GL264742  38.529  18.945   6.155
10659POPC   C1A64743  38.420  19.009   6.455
10659POPC   D2A64744  38.406  19.018   6.755
10659POPC   C3A64745  38.489  19.012   7.055
10659POPC   C4A64746  38.434  19.036   7.355
10659POPC   C1B64747  38.644  18.940   6.455
10659POPC   C2B64748  38.691  18.888   6.755
10659POPC   C3B64749  38.686  18.937   7.055
10659POPC   C4B64750  38.633  18.886   7.355
10660POPC   NC364751   5.065  11.263   5.555
10660POPC   PO464752   5.063  11.320   5.855
10660POPC   GL164753   5.089  11.310   6.155
10660POPC   GL264754   5.174  11.169   6.155
10660POPC   C1A64755   5.104  11.275   6.455
10660POPC   D2A64756   5.127  11.266   6.755
10660POPC   C3A64757   5.121  11.290   7.055
10660POPC   C4A64758   5.086  11.328   7.355
10660POPC   C1B64759   5.127  11.051   6.455
10660POPC   C2B64760   5.197  11.089   6.755
10660POPC   C3B64761   5.205  11.078   7.055
10660POPC   C4B64762   5.212  11.050   7.355
10661POPC   NC364763  21.338  40.055   5.555
10661POPC   PO464764  21.417  40.039   5.855
10661POPC   GL164765  21.403  40.050   6.155
10661POPC   GL264766  21.309  40.069   6.155
10661POPC   C1A64767  21.346  39.969   6.455
10661POPC   D2A64768  21.379  39.959   6.755
10661POPC   C3A64769  21.389  39.987   7.055
10661POPC   C4A64770  21.414  40.033   7.355
10661POPC   C1B64771  21.247  40.266   6.455
10661POPC   C2B64772  21.315  40.221   6.755
10661POPC   C3B64773  21.257  40.238   7.055
10661POPC   C4B64774  21.307  40.198   7.355
10662POPC   NC364775  19.041  24.531   5.555
10662POPC   PO464776  19.076  24.512   5.855
10662POPC   GL164777  19.029  24.511   6.155
10662POPC   GL264778  19.145  24.363   6.155
10662POPC   C1A64779  19.078  24.504   6.455
10662POPC   D2A64780  19.059  24.491   6.755
10662POPC   C3A64781  19.088  24.527   7.055
10662POPC   C4A64782  19.032  24.487   7.355
10662POPC   C1B64783  19.266  24.278   6.455
10662POPC   C2B64784  19.239  24.280   6.755
10662POPC   C3B64785  19.249  24.286   7.055
10662POPC   C4B64786  19.182  24.283   7.355
10663POPC   NC364787   3.503   5.907   5.555
10663POPC   PO464788   3.558   5.843   5.855
10663POPC   GL164789   3.535   5.865   6.155
10663POPC   GL264790   3.435   5.789   6.155
10663POPC   C1A64791   3.556   5.886   6.455
10663POPC   D2A64792   3.496   5.915   6.755
10663POPC   C3A64793   3.523   5.848   7.055
10663POPC   C4A64794   3.540   5.909   7.355
10663POPC   C1B64795   3.396   5.661   6.455
10663POPC   C2B64796   3.346   5.658   6.755
10663POPC   C3B64797   3.400   5.676   7.055
10663POPC   C4B64798   3.315   5.680   7.355
10664POPC   NC364799  26.772   5.128   5.555
10664POPC   PO464800  26.844   5.137   5.855
10664POPC   GL164801  26.839   5.047   6.155
10664POPC   GL264802  26.955   5.191   6.155
10664POPC   C1A64803  26.848   5.088   6.455
10664POPC   D2A64804  26.814   5.104   6.755
10664POPC   C3A64805  26.847   5.087   7.055
10664POPC   C4A64806  26.770   5.113   7.355
10664POPC   C1B64807  27.006   5.297   6.455
10664POPC   C2B64808  27.043   5.267   6.755
10664POPC   C3B64809  26.972   5.214   7.055
10664POPC   C4B64810  26.963   5.220   7.355
10665POPC   NC364811  19.043  12.098   5.555
10665POPC   PO464812  19.100  12.031   5.855
10665POPC   GL164813  19.029  12.059   6.155
10665POPC   GL264814  18.974  12.092   6.155
10665POPC   C1A64815  19.079  12.041   6.455
10665POPC   D2A64816  19.066  12.078   6.755
10665POPC   C3A64817  19.057  12.054   7.055
10665POPC   C4A64818  19.033  12.087   7.355
10665POPC   C1B64819  18.820  12.166   6.455
10665POPC   C2B64820  18.829  12.195   6.755
10665POPC   C3B64821  18.880  12.146   7.055
10665POPC   C4B64822  18.814  12.156   7.355
10666POPC   NC364823  17.513   2.722   5.555
10666POPC   PO464824  17.544   2.733   5.855
10666POPC   GL164825  17.526   2.794   6.155
10666POPC   GL264826  17.647   2.839   6.155
10666POPC   C1A64827  17.552   2.798   6.455
10666POPC   D2A64828  17.492   2.751   6.755
10666POPC   C3A64829  17.527   2.753   7.055
10666POPC   C4A64830  17.493   2.779   7.355
10666POPC   C1B64831  17.752   2.904   6.455
10666POPC   C2B64832  17.775   2.809   6.755
10666POPC   C3B64833  17.768   2.863   7.055
10666POPC   C4B64834  17.703   2.841   7.355
10667POPC   NC364835  23.726  31.439   5.555
10667POPC   PO464836  23.755  31.436   5.855
10667POPC   GL164837  23.738  31.485   6.155
10667POPC   GL264838  23.658  31.581   6.155
10667POPC   C1A64839  23.737  31.494   6.455
10667POPC   D2A64840  23.748  31.490   6.755
10667POPC   C3A64841  23.718  31.444   7.055
10667POPC   C4A64842  23.704  31.489   7.355
10667POPC   C1B64843  23.572  31.650   6.455
10667POPC   C2B64844  23.561  31.660   6.755
10667POPC   C3B64845  23.580  31.650   7.055
10667POPC   C4B64846  23.581  31.634   7.355
10668POPC   NC364847  33.052  21.361   5.555
10668POPC   PO464848  33.042  21.348   5.855
10668POPC   GL164849  32.978  21.345   6.155
10668POPC   GL264850  33.048  21.495   6.155
10668POPC   C1A64851  33.064  21.346   6.455
10668POPC   D2A64852  33.038  21.405   6.755
10668POPC   C3A64853  32.999  21.373   7.055
10668POPC   C4A64854  32.978  21.393   7.355
10668POPC   C1B64855  32.993  21.685   6.455
10668POPC   C2B64856  33.009  21.680   6.755
10668POPC   C3B64857  33.057  21.611   7.055
10668POPC   C4B64858  33.035  21.624   7.355
10669POPC   NC364859  29.155   9.004   5.555
10669POPC   PO464860  29.183   8.991   5.855
10669POPC   GL164861  29.194   9.005   6.155
10669POPC   GL264862  29.033   8.898   6.155
10669POPC   C1A64863  29.174   8.988   6.455
10669POPC   D2A64864  29.185   9.004   6.755
10669POPC   C3A64865  29.179   8.968   7.055
10669POPC   C4A64866  29.136   8.938   7.355
10669POPC   C1B64867  29.046   8.806   6.455
10669POPC   C2B64868  28.997   8.734   6.755
10669POPC   C3B64869  29.047   8.783   7.055
10669POPC   C4B64870  28.985   8.709   7.355
10670POPC   NC364871  37.639  32.280   5.555
10670POPC   PO464872  37.685  32.278   5.855
10670POPC   GL164873  37.690  32.236   6.155
10670POPC   GL264874  37.741  32.117   6.155
10670POPC   C1A64875  37.726  32.288   6.455
10670POPC   D2A64876  37.713  32.275   6.755
10670POPC   C3A64877  37.643  32.214   7.055
10670POPC   C4A64878  37.671  32.289   7.355
10670POPC   C1B64879  37.766  31.995   6.455
10670POPC   C2B64880  37.827  32.051   6.755
10670POPC   C3B64881  37.783  32.025   7.055
10670POPC   C4B64882  37.760  32.051   7.355
10671POPC   NC364883  16.723  25.222   5.555
10671POPC   PO464884  16.702  25.217   5.855
10671POPC   GL164885  16.691  25.237   6.155
10671POPC   GL264886  16.811  25.346   6.155
10671POPC   C1A64887  16.767  25.288   6.455
10671POPC   D2A64888  16.686  25.301   6.755
10671POPC   C3A64889  16.689  25.312   7.055
10671POPC   C4A64890  16.718  25.305   7.355
10671POPC   C1B64891  17.005  25.362   6.455
10671POPC   C2B64892  16.953  25.361   6.755
10671POPC   C3B64893  16.976  25.396   7.055
10671POPC   C4B64894  17.007  25.389   7.355
10672POPC   NC364895  43.143  15.164   5.555
10672POPC   PO464896  43.096  15.198   5.855
10672POPC   GL164897  43.081  15.170   6.155
10672POPC   GL264898  43.203  15.093   6.155
10672POPC   C1A64899  43.108  15.216   6.455
10672POPC   D2A64900  43.149  15.145   6.755
10672POPC   C3A64901  43.153  15.199   7.055
10672POPC   C4A64902  43.123  15.185   7.355
10672POPC   C1B64903  43.261  14.926   6.455
10672POPC   C2B64904  43.257  14.979   6.755
10672POPC   C3B64905  43.260  15.006   7.055
10672POPC   C4B64906  43.181  14.962   7.355
10673POPC   NC364907  38.406  15.194   5.555
10673POPC   PO464908  38.477  15.176   5.855
10673POPC   GL164909  38.414  15.221   6.155
10673POPC   GL264910  38.397  15.047   6.155
10673POPC   C1A64911  38.487  15.212   6.455
10673POPC   D2A64912  38.499  15.200   6.755
10673POPC   C3A64913  38.474  15.195   7.055
10673POPC   C4A64914  38.472  15.179   7.355
10673POPC   C1B64915  38.388  14.966   6.455
10673POPC   C2B64916  38.416  14.926   6.755
10673POPC   C3B64917  38.449  14.895   7.055
10673POPC   C4B64918  38.456  14.897   7.355
10674POPC   NC364919  25.235   0.401   5.555
10674POPC   PO464920  25.224   0.471   5.855
10674POPC   GL164921  25.265   0.447   6.155
10674POPC   GL264922  25.360   0.355   6.155
10674POPC   C1A64923  25.267   0.413   6.455
10674POPC   D2A64924  25.220   0.457   6.755
10674POPC   C3A64925  25.279   0.455   7.055
10674POPC   C4A64926  25.235   0.467   7.355
10674POPC   C1B64927  25.447   0.262   6.455
10674POPC   C2B64928  25.421   0.261   6.755
10674POPC   C3B64929  25.463   0.278   7.055
10674POPC   C4B64930  25.412   0.274   7.355
10675POPC   NC364931  26.827  26.810   5.555
10675POPC   PO464932  26.775  26.774   5.855
10675POPC   GL164933  26.851  26.799   6.155
10675POPC   GL264934  26.667  26.882   6.155
10675POPC   C1A64935  26.821  26.821   6.455
10675POPC   D2A64936  26.788  26.828   6.755
10675POPC   C3A64937  26.850  26.838   7.055
10675POPC   C4A64938  26.784  26.803   7.355
10675POPC   C1B64939  26.595  26.898   6.455
10675POPC   C2B64940  26.546  26.872   6.755
10675POPC   C3B64941  26.599  26.907   7.055
10675POPC   C4B64942  26.575  26.925   7.355
10676POPC   NC364943  12.061  21.379   5.555
10676POPC   PO464944  12.048  21.342   5.855
10676POPC   GL164945  12.112  21.359   6.155
10676POPC   GL264946  11.940  21.274   6.155
10676POPC   C1A64947  12.125  21.376   6.455
10676POPC   D2A64948  12.051  21.366   6.755
10676POPC   C3A64949  12.099  21.395   7.055
10676POPC   C4A64950  12.060  21.410   7.355
10676POPC   C1B64951  11.920  21.256   6.455
10676POPC   C2B64952  11.890  21.221   6.755
10676POPC   C3B64953  11.926  21.231   7.055
10676POPC   C4B64954  11.859  21.188   7.355
10677POPC   NC364955  12.892   2.773   5.555
10677POPC   PO464956  12.813   2.751   5.855
10677POPC   GL164957  12.832   2.757   6.155
10677POPC   GL264958  12.981   2.683   6.155
10677POPC   C1A64959  12.818   2.802   6.455
10677POPC   D2A64960  12.894   2.804   6.755
10677POPC   C3A64961  12.827   2.751   7.055
10677POPC   C4A64962  12.835   2.807   7.355
10677POPC   C1B64963  12.997   2.608   6.455
10677POPC   C2B64964  12.995   2.605   6.755
10677POPC   C3B64965  13.044   2.571   7.055
10677POPC   C4B64966  13.040   2.565   7.355
10678POPC   NC364967  43.092  16.690   5.555
10678POPC   PO464968  43.093  16.780   5.855
10678POPC   GL164969  43.117  16.731   6.155
10678POPC   GL264970  43.123  16.894   6.155
10678POPC   C1A64971  43.097  16.761   6.455
10678POPC   D2A64972  43.133  16.715   6.755
10678POPC   C3A64973  43.156  16.709   7.055
10678POPC   C4A64974  43.062  16.700   7.355
10678POPC   C1B64975  43.090  16.973   6.455
10678POPC   C2B64976  43.123  17.002   6.755
10678POPC   C3B64977  43.081  16.988   7.055
10678POPC   C4B64978  43.106  17.003   7.355
10679POPC   NC364979  43.078  36.098   5.555
10679POPC   PO464980  43.069  36.169   5.855
10679POPC   GL164981  43.089  36.105   6.155
10679POPC   GL264982  43.091  36.223   6.155
10679POPC   C1A64983  43.087  36.158   6.455
10679POPC   D2A64984  43.070  36.081   6.755
10679POPC   C3A64985  43.081  36.156   7.055
10679POPC   C4A64986  43.118  36.164   7.355
10679POPC   C1B64987  43.096  36.347   6.455
10679POPC   C2B64988  43.131  36.386   6.755
10679POPC   C3B64989  43.100  36.351   7.055
10679POPC   C4B64990  43.134  36.406   7.355
10680POPC   NC364991  31.473  32.212   5.555
10680POPC   PO464992  31.492  32.216   5.855
10680POPC   GL164993  31.453  32.228   6.155
10680POPC   GL264994  31.532  32.110   6.155
10680POPC   C1A64995  31.472  32.259   6.455
10680POPC   D2A64996  31.515  32.260   6.755
10680POPC   C3A64997  31.461  32.293   7.055
10680POPC   C4A64998  31.445  32.295   7.355
10680POPC   C1B64999  31.681  32.032   6.455
10680POPC   C2B65000  31.644  32.036   6.755
10680POPC   C3B65001  31.598  32.029   7.055
10680POPC   C4B65002  31.658  32.025   7.355
10681POPC   NC365003   3.572  16.769   5.555
10681POPC   PO465004   3.520  16.757   5.855
10681POPC   GL165005   3.530  16.775   6.155
10681POPC   GL265006   3.431  16.696   6.155
10681POPC   C1A65007   3.525  16.765   6.455
10681POPC   D2A65008   3.586  16.737   6.755
10681POPC   C3A65009   3.510  16.725   7.055
10681POPC   C4A65010   3.538  16.698   7.355
10681POPC   C1B65011   3.280  16.673   6.455
10681POPC   C2B65012   3.269  16.665   6.755
10681POPC   C3B65013   3.317  16.682   7.055
10681POPC   C4B65014   3.340  16.678   7.355
10682POPC   NC365015  36.167  28.367   5.555
10682POPC   PO465016  36.137  28.352   5.855
10682POPC   GL165017  36.152  28.418   6.155
10682POPC   GL265018  36.030  28.313   6.155
10682POPC   C1A65019  36.168  28.402   6.455
10682POPC   D2A65020  36.174  28.371   6.755
10682POPC   C3A65021  36.098  28.368   7.055
10682POPC   C4A65022  36.154  28.395   7.355
10682POPC   C1B65023  35.848  28.319   6.455
10682POPC   C2B65024  35.851  28.243   6.755
10682POPC   C3B65025  35.902  28.273   7.055
10682POPC   C4B65026  35.856  28.300   7.355
10683POPC   NC365027  12.867  16.743   5.555
10683POPC   PO465028  12.887  16.730   5.855
10683POPC   GL165029  12.804  16.709   6.155
10683POPC   GL265030  12.738  16.832   6.155
10683POPC   C1A65031  12.862  16.731   6.455
10683POPC   D2A65032  12.822  16.726   6.755
10683POPC   C3A65033  12.874  16.737   7.055
10683POPC   C4A65034  12.813  16.688   7.355
10683POPC   C1B65035  12.652  16.947   6.455
10683POPC   C2B65036  12.663  16.878   6.755
10683POPC   C3B65037  12.677  16.904   7.055
10683POPC   C4B65038  12.695  16.952   7.355
10684POPC   NC365039  44.680   0.479   5.555
10684POPC   PO465040  44.660   0.460   5.855
10684POPC   GL165041  44.665   0.466   6.155
10684POPC   GL265042  44.758   0.366   6.155
10684POPC   C1A65043  44.690   0.410   6.455
10684POPC   D2A65044  44.680   0.394   6.755
10684POPC   C3A65045  44.657   0.483   7.055
10684POPC   C4A65046  44.636   0.455   7.355
10684POPC   C1B65047  44.720   0.213   6.455
10684POPC   C2B65048  44.804   0.239   6.755
10684POPC   C3B65049  44.759   0.175   7.055
10684POPC   C4B65050  44.795   0.222   7.355
10685POPC   NC365051   6.599  23.685   5.555
10685POPC   PO465052   6.603  23.722   5.855
10685POPC   GL165053   6.621  23.726   6.155
10685POPC   GL265054   6.791  23.654   6.155
10685POPC   C1A65055   6.639  23.698   6.455
10685POPC   D2A65056   6.673  23.727   6.755
10685POPC   C3A65057   6.627  23.675   7.055
10685POPC   C4A65058   6.595  23.710   7.355
10685POPC   C1B65059   6.838  23.547   6.455
10685POPC   C2B65060   6.821  23.600   6.755
10685POPC   C3B65061   6.877  23.558   7.055
10685POPC   C4B65062   6.867  23.582   7.355
10686POPC   NC365063  22.899   9.797   5.555
10686POPC   PO465064  22.934   9.755   5.855
10686POPC   GL165065  22.913   9.705   6.155
10686POPC   GL265066  22.921   9.842   6.155
10686POPC   C1A65067  22.925   9.780   6.455
10686POPC   D2A65068  22.921   9.756   6.755
10686POPC   C3A65069  22.907   9.740   7.055
10686POPC   C4A65070  22.929   9.778   7.355
10686POPC   C1B65071  22.992  10.022   6.455
10686POPC   C2B65072  22.921   9.969   6.755
10686POPC   C3B65073  22.994   9.998   7.055
10686POPC   C4B65074  22.985   9.971   7.355
10687POPC   NC365075  39.205  42.290   5.555
10687POPC   PO465076  39.268  42.297   5.855
10687POPC   GL165077  39.228  42.313   6.155
10687POPC   GL265078  39.124  42.194   6.155
10687POPC   C1A65079  39.225  42.372   6.455
10687POPC   D2A65080  39.220  42.308   6.755
10687POPC   C3A65081  39.263  42.373   7.055
10687POPC   C4A65082  39.216  42.375   7.355
10687POPC   C1B65083  39.066  42.136   6.455
10687POPC   C2B65084  39.133  42.114   6.755
10687POPC   C3B65085  39.119  42.110   7.055
10687POPC   C4B65086  39.038  42.109   7.355
10688POPC   NC365087  36.944  19.090   5.555
10688POPC   PO465088  36.949  19.066   5.855
10688POPC   GL165089  36.893  19.089   6.155
10688POPC   GL265090  36.906  19.188   6.155
10688POPC   C1A65091  36.897  19.020   6.455
10688POPC   D2A65092  36.924  19.102   6.755
10688POPC   C3A65093  36.898  19.096   7.055
10688POPC   C4A65094  36.929  19.052   7.355
10688POPC   C1B65095  36.889  19.314   6.455
10688POPC   C2B65096  36.937  19.329   6.755
10688POPC   C3B65097  36.921  19.270   7.055
10688POPC   C4B65098  36.887  19.331   7.355
10689POPC   NC365099   1.263  35.382   5.555
10689POPC   PO465100   1.196  35.387   5.855
10689POPC   GL165101   1.259  35.362   6.155
10689POPC   GL265102   1.083  35.258   6.155
10689POPC   C1A65103   1.248  35.313   6.455
10689POPC   D2A65104   1.263  35.349   6.755
10689POPC   C3A65105   1.170  35.369   7.055
10689POPC   C4A65106   1.246  35.360   7.355
10689POPC   C1B65107   1.025  35.165   6.455
10689POPC   C2B65108   0.995  35.245   6.755
10689POPC   C3B65109   1.062  35.163   7.055
10689POPC   C4B65110   0.988  35.194   7.355
10690POPC   NC365111  16.751  29.149   5.555
10690POPC   PO465112  16.704  29.169   5.855
10690POPC   GL165113  16.738  29.117   6.155
10690POPC   GL265114  16.694  29.277   6.155
10690POPC   C1A65115  16.681  29.099   6.455
10690POPC   D2A65116  16.718  29.138   6.755
10690POPC   C3A65117  16.735  29.181   7.055
10690POPC   C4A65118  16.745  29.152   7.355
10690POPC   C1B65119  16.632  29.410   6.455
10690POPC   C2B65120  16.599  29.336   6.755
10690POPC   C3B65121  16.612  29.385   7.055
10690POPC   C4B65122  16.657  29.421   7.355
10691POPC   NC365123  37.698  21.351   5.555
10691POPC   PO465124  37.691  21.372   5.855
10691POPC   GL165125  37.658  21.413   6.155
10691POPC   GL265126  37.703  21.558   6.155
10691POPC   C1A65127  37.636  21.380   6.455
10691POPC   D2A65128  37.645  21.396   6.755
10691POPC   C3A65129  37.700  21.368   7.055
10691POPC   C4A65130  37.645  21.411   7.355
10691POPC   C1B65131  37.703  21.648   6.455
10691POPC   C2B65132  37.681  21.671   6.755
10691POPC   C3B65133  37.755  21.629   7.055
10691POPC   C4B65134  37.713  21.652   7.355
10692POPC   NC365135   2.024  41.536   5.555
10692POPC   PO465136   1.999  41.547   5.855
10692POPC   GL165137   2.017  41.604   6.155
10692POPC   GL265138   1.971  41.458   6.155
10692POPC   C1A65139   2.035  41.581   6.455
10692POPC   D2A65140   2.020  41.525   6.755
10692POPC   C3A65141   2.004  41.526   7.055
10692POPC   C4A65142   2.002  41.600   7.355
10692POPC   C1B65143   1.993  41.317   6.455
10692POPC   C2B65144   2.051  41.273   6.755
10692POPC   C3B65145   2.047  41.316   7.055
10692POPC   C4B65146   2.032  41.320   7.355
10693POPC   NC365147  33.811  22.204   5.555
10693POPC   PO465148  33.809  22.129   5.855
10693POPC   GL165149  33.766  22.202   6.155
10693POPC   GL265150  33.655  22.103   6.155
10693POPC   C1A65151  33.760  22.150   6.455
10693POPC   D2A65152  33.759  22.145   6.755
10693POPC   C3A65153  33.830  22.211   7.055
10693POPC   C4A65154  33.835  22.209   7.355
10693POPC   C1B65155  33.569  22.054   6.455
10693POPC   C2B65156  33.581  22.054   6.755
10693POPC   C3B65157  33.531  22.095   7.055
10693POPC   C4B65158  33.591  22.038   7.355
10694POPC   NC365159  36.915  12.052   5.555
10694POPC   PO465160  36.895  12.109   5.855
10694POPC   GL165161  36.871  12.032   6.155
10694POPC   GL265162  36.766  12.135   6.155
10694POPC   C1A65163  36.880  12.090   6.455
10694POPC   D2A65164  36.942  12.106   6.755
10694POPC   C3A65165  36.952  12.114   7.055
10694POPC   C4A65166  36.912  12.044   7.355
10694POPC   C1B65167  36.667  12.237   6.455
10694POPC   C2B65168  36.677  12.219   6.755
10694POPC   C3B65169  36.662  12.255   7.055
10694POPC   C4B65170  36.745  12.177   7.355
10695POPC   NC365171   9.736  17.540   5.555
10695POPC   PO465172   9.750  17.475   5.855
10695POPC   GL165173   9.788  17.495   6.155
10695POPC   GL265174   9.742  17.413   6.155
10695POPC   C1A65175   9.793  17.480   6.455
10695POPC   D2A65176   9.705  17.479   6.755
10695POPC   C3A65177   9.740  17.472   7.055
10695POPC   C4A65178   9.740  17.467   7.355
10695POPC   C1B65179   9.712  17.292   6.455
10695POPC   C2B65180   9.767  17.235   6.755
10695POPC   C3B65181   9.741  17.225   7.055
10695POPC   C4B65182   9.776  17.238   7.355
10696POPC   NC365183   8.201   8.148   5.555
10696POPC   PO465184   8.234   8.228   5.855
10696POPC   GL165185   8.206   8.195   6.155
10696POPC   GL265186   8.091   8.263   6.155
10696POPC   C1A65187   8.173   8.238   6.455
10696POPC   D2A65188   8.148   8.240   6.755
10696POPC   C3A65189   8.194   8.175   7.055
10696POPC   C4A65190   8.157   8.206   7.355
10696POPC   C1B65191   8.029   8.406   6.455
10696POPC   C2B65192   8.036   8.457   6.755
10696POPC   C3B65193   8.067   8.413   7.055
10696POPC   C4B65194   8.076   8.374   7.355
10697POPC   NC365195   9.788  43.119   5.555
10697POPC   PO465196   9.772  43.071   5.855
10697POPC   GL165197   9.794  43.105   6.155
10697POPC   GL265198   9.625  42.985   6.155
10697POPC   C1A65199   9.766  43.094   6.455
10697POPC   D2A65200   9.784  43.150   6.755
10697POPC   C3A65201   9.750  43.090   7.055
10697POPC   C4A65202   9.713  43.157   7.355
10697POPC   C1B65203   9.551  42.871   6.455
10697POPC   C2B65204   9.614  42.914   6.755
10697POPC   C3B65205   9.602  42.897   7.055
10697POPC   C4B65206   9.579  42.905   7.355
10698POPC   NC365207   1.228  21.411   5.555
10698POPC   PO465208   1.183  21.426   5.855
10698POPC   GL165209   1.243  21.363   6.155
10698POPC   GL265210   1.139  21.498   6.155
10698POPC   C1A65211   1.171  21.374   6.455
10698POPC   D2A65212   1.240  21.369   6.755
10698POPC   C3A65213   1.181  21.414   7.055
10698POPC   C4A65214   1.253  21.427   7.355
10698POPC   C1B65215   1.092  21.575   6.455
10698POPC   C2B65216   1.077  21.550   6.755
10698POPC   C3B65217   1.102  21.637   7.055
10698POPC   C4B65218   1.047  21.545   7.355
10699POPC   NC365219  28.418  40.768   5.555
10699POPC   PO465220  28.328  40.750   5.855
10699POPC   GL165221  28.336  40.753   6.155
10699POPC   GL265222  28.401  40.862   6.155
10699POPC   C1A65223  28.385  40.814   6.455
10699POPC   D2A65224  28.407  40.736   6.755
10699POPC   C3A65225  28.374  40.746   7.055
10699POPC   C4A65226  28.378  40.833   7.355
10699POPC   C1B65227  28.443  41.010   6.455
10699POPC   C2B65228  28.396  41.046   6.755
10699POPC   C3B65229  28.453  41.069   7.055
10699POPC   C4B65230  28.424  41.002   7.355
10700POPC   NC365231  29.919  12.061   5.555
10700POPC   PO465232  29.889  12.105   5.855
10700POPC   GL165233  29.937  12.099   6.155
10700POPC   GL265234  29.878  12.149   6.155
10700POPC   C1A65235  29.918  12.101   6.455
10700POPC   D2A65236  29.952  12.075   6.755
10700POPC   C3A65237  29.929  12.040   7.055
10700POPC   C4A65238  29.882  12.100   7.355
10700POPC   C1B65239  29.851  12.285   6.455
10700POPC   C2B65240  29.914  12.355   6.755
10700POPC   C3B65241  29.897  12.345   7.055
10700POPC   C4B65242  29.888  12.295   7.355
10701POPC   NC365243   3.583  42.314   5.555
10701POPC   PO465244   3.511  42.288   5.855
10701POPC   GL165245   3.578  42.370   6.155
10701POPC   GL265246   3.642  42.193   6.155
10701POPC   C1A65247   3.522  42.370   6.455
10701POPC   D2A65248   3.525  42.361   6.755
10701POPC   C3A65249   3.537  42.298   7.055
10701POPC   C4A65250   3.542  42.334   7.355
10701POPC   C1B65251   3.715  42.175   6.455
10701POPC   C2B65252   3.669  42.126   6.755
10701POPC   C3B65253   3.740  42.179   7.055
10701POPC   C4B65254   3.753  42.106   7.355
10702POPC   NC365255   0.450   4.344   5.555
10702POPC   PO465256   0.457   4.299   5.855
10702POPC   GL165257   0.423   4.340   6.155
10702POPC   GL265258   0.594   4.341   6.155
10702POPC   C1A65259   0.452   4.335   6.455
10702POPC   D2A65260   0.423   4.338   6.755
10702POPC   C3A65261   0.396   4.332   7.055
10702POPC   C4A65262   0.433   4.286   7.355
10702POPC   C1B65263   0.613   4.425   6.455
10702POPC   C2B65264   0.665   4.470   6.755
10702POPC   C3B65265   0.647   4.442   7.055
10702POPC   C4B65266   0.669   4.409   7.355
10703POPC   NC365267  15.933  14.365   5.555
10703POPC   PO465268  15.975  14.369   5.855
10703POPC   GL165269  15.969  14.386   6.155
10703POPC   GL265270  15.961  14.317   6.155
10703POPC   C1A65271  15.927  14.438   6.455
10703POPC   D2A65272  15.949  14.440   6.755
10703POPC   C3A65273  15.941  14.415   7.055
10703POPC   C4A65274  15.974  14.376   7.355
10703POPC   C1B65275  15.851  14.191   6.455
10703POPC   C2B65276  15.916  14.144   6.755
10703POPC   C3B65277  15.869  14.125   7.055
10703POPC   C4B65278  15.839  14.163   7.355
10704POPC   NC365279  36.887  26.768   5.555
10704POPC   PO465280  36.887  26.768   5.855
10704POPC   GL165281  36.901  26.778   6.155
10704POPC   GL265282  37.020  26.809   6.155
10704POPC   C1A65283  36.925  26.772   6.455
10704POPC   D2A65284  36.944  26.831   6.755
10704POPC   C3A65285  36.894  26.821   7.055
10704POPC   C4A65286  36.901  26.830   7.355
10704POPC   C1B65287  37.129  26.760   6.455
10704POPC   C2B65288  37.145  26.756   6.755
10704POPC   C3B65289  37.150  26.756   7.055
10704POPC   C4B65290  37.161  26.845   7.355
10705POPC   NC365291  44.681   1.973   5.555
10705POPC   PO465292  44.652   1.999   5.855
10705POPC   GL165293  44.616   2.011   6.155
10705POPC   GL265294  44.501   2.044   6.155
10705POPC   C1A65295  44.621   1.964   6.455
10705POPC   D2A65296  44.628   1.986   6.755
10705POPC   C3A65297  44.712   2.009   7.055
10705POPC   C4A65298  44.644   2.023   7.355
10705POPC   C1B65299  44.380   2.059   6.455
10705POPC   C2B65300  44.405   2.089   6.755
10705POPC   C3B65301  44.449   2.028   7.055
10705POPC   C4B65302  44.474   2.078   7.355
10706POPC   NC365303  34.569  20.605   5.555
10706POPC   PO465304  34.528  20.652   5.855
10706POPC   GL165305  34.595  20.612   6.155
10706POPC   GL265306  34.601  20.701   6.155
10706POPC   C1A65307  34.623  20.592   6.455
10706POPC   D2A65308  34.591  20.564   6.755
10706POPC   C3A65309  34.583  20.598   7.055
10706POPC   C4A65310  34.551  20.650   7.355
10706POPC   C1B65311  34.552  20.824   6.455
10706POPC   C2B65312  34.536  20.883   6.755
10706POPC   C3B65313  34.498  20.866   7.055
10706POPC   C4B65314  34.526  20.890   7.355
10707POPC   NC365315  36.870  21.415   5.555
10707POPC   PO465316  36.922  21.371   5.855
10707POPC   GL165317  36.869  21.402   6.155
10707POPC   GL265318  36.746  21.424   6.155
10707POPC   C1A65319  36.952  21.371   6.455
10707POPC   D2A65320  36.895  21.405   6.755
10707POPC   C3A65321  36.925  21.380   7.055
10707POPC   C4A65322  36.870  21.402   7.355
10707POPC   C1B65323  36.675  21.387   6.455
10707POPC   C2B65324  36.612  21.332   6.755
10707POPC   C3B65325  36.677  21.422   7.055
10707POPC   C4B65326  36.632  21.371   7.355
10708POPC   NC365327  16.755  30.682   5.555
10708POPC   PO465328  16.766  30.660   5.855
10708POPC   GL165329  16.757  30.707   6.155
10708POPC   GL265330  16.586  30.707   6.155
10708POPC   C1A65331  16.712  30.742   6.455
10708POPC   D2A65332  16.749  30.676   6.755
10708POPC   C3A65333  16.734  30.682   7.055
10708POPC   C4A65334  16.682  30.692   7.355
10708POPC   C1B65335  16.481  30.636   6.455
10708POPC   C2B65336  16.448  30.588   6.755
10708POPC   C3B65337  16.527  30.647   7.055
10708POPC   C4B65338  16.481  30.590   7.355
10709POPC   NC365339   6.691  42.287   5.555
10709POPC   PO465340   6.689  42.368   5.855
10709POPC   GL165341   6.598  42.351   6.155
10709POPC   GL265342   6.712  42.242   6.155
10709POPC   C1A65343   6.667  42.301   6.455
10709POPC   D2A65344   6.636  42.369   6.755
10709POPC   C3A65345   6.690  42.333   7.055
10709POPC   C4A65346   6.685  42.286   7.355
10709POPC   C1B65347   6.674  42.111   6.455
10709POPC   C2B65348   6.694  42.134   6.755
10709POPC   C3B65349   6.663  42.084   7.055
10709POPC   C4B65350   6.745  42.065   7.355
10710POPC   NC365351  30.703   0.430   5.555
10710POPC   PO465352  30.696   0.437   5.855
10710POPC   GL165353  30.715   0.449   6.155
10710POPC   GL265354  30.653   0.280   6.155
10710POPC   C1A65355  30.655   0.443   6.455
10710POPC   D2A65356  30.665   0.424   6.755
10710POPC   C3A65357  30.743   0.407   7.055
10710POPC   C4A65358  30.726   0.476   7.355
10710POPC   C1B65359  30.605   0.239   6.455
10710POPC   C2B65360  30.616   0.211   6.755
10710POPC   C3B65361  30.549   0.167   7.055
10710POPC   C4B65362  30.616   0.231   7.355
10711POPC   NC365363  32.284  21.389   5.555
10711POPC   PO465364  32.208  21.357   5.855
10711POPC   GL165365  32.297  21.405   6.155
10711POPC   GL265366  32.359  21.314   6.155
10711POPC   C1A65367  32.256  21.382   6.455
10711POPC   D2A65368  32.215  21.387   6.755
10711POPC   C3A65369  32.288  21.387   7.055
10711POPC   C4A65370  32.249  21.418   7.355
10711POPC   C1B65371  32.435  21.260   6.455
10711POPC   C2B65372  32.490  21.226   6.755
10711POPC   C3B65373  32.519  21.308   7.055
10711POPC   C4B65374  32.490  21.238   7.355
10712POPC   NC365375  36.877  30.665   5.555
10712POPC   PO465376  36.945  30.720   5.855
10712POPC   GL165377  36.896  30.730   6.155
10712POPC   GL265378  36.947  30.816   6.155
10712POPC   C1A65379  36.914  30.686   6.455
10712POPC   D2A65380  36.938  30.683   6.755
10712POPC   C3A65381  36.903  30.702   7.055
10712POPC   C4A65382  36.950  30.662   7.355
10712POPC   C1B65383  36.942  30.994   6.455
10712POPC   C2B65384  36.921  30.899   6.755
10712POPC   C3B65385  36.929  30.911   7.055
10712POPC   C4B65386  36.895  30.920   7.355
10713POPC   NC365387   1.989  17.542   5.555
10713POPC   PO465388   2.014  17.511   5.855
10713POPC   GL165389   2.023  17.503   6.155
10713POPC   GL265390   1.888  17.441   6.155
10713POPC   C1A65391   2.011  17.519   6.455
10713POPC   D2A65392   1.952  17.514   6.755
10713POPC   C3A65393   1.954  17.493   7.055
10713POPC   C4A65394   2.039  17.525   7.355
10713POPC   C1B65395   1.831  17.402   6.455
10713POPC   C2B65396   1.751  17.347   6.755
10713POPC   C3B65397   1.784  17.334   7.055
10713POPC   C4B65398   1.833  17.386   7.355
10714POPC   NC365399  17.524  31.438   5.555
10714POPC   PO465400  17.515  31.434   5.855
10714POPC   GL165401  17.488  31.521   6.155
10714POPC   GL265402  17.502  31.605   6.155
10714POPC   C1A65403  17.535  31.467   6.455
10714POPC   D2A65404  17.517  31.449   6.755
10714POPC   C3A65405  17.520  31.479   7.055
10714POPC   C4A65406  17.518  31.504   7.355
10714POPC   C1B65407  17.426  31.745   6.455
10714POPC   C2B65408  17.445  31.718   6.755
10714POPC   C3B65409  17.449  31.731   7.055
10714POPC   C4B65410  17.455  31.708   7.355
10715POPC   NC365411  11.280  18.324   5.555
10715POPC   PO465412  11.333  18.297   5.855
10715POPC   GL165413  11.316  18.269   6.155
10715POPC   GL265414  11.177  18.407   6.155
10715POPC   C1A65415  11.287  18.243   6.455
10715POPC   D2A65416  11.348  18.307   6.755
10715POPC   C3A65417  11.302  18.304   7.055
10715POPC   C4A65418  11.274  18.257   7.355
10715POPC   C1B65419  11.133  18.462   6.455
10715POPC   C2B65420  11.088  18.449   6.755
10715POPC   C3B65421  11.117  18.451   7.055
10715POPC   C4B65422  11.061  18.439   7.355
10716POPC   NC365423  42.349  23.752   5.555
10716POPC   PO465424  42.366  23.667   5.855
10716POPC   GL165425  42.327  23.718   6.155
10716POPC   GL265426  42.250  23.853   6.155
10716POPC   C1A65427  42.304  23.764   6.455
10716POPC   D2A65428  42.309  23.747   6.755
10716POPC   C3A65429  42.364  23.696   7.055
10716POPC   C4A65430  42.293  23.699   7.355
10716POPC   C1B65431  42.184  23.882   6.455
10716POPC   C2B65432  42.190  23.859   6.755
10716POPC   C3B65433  42.170  23.923   7.055
10716POPC   C4B65434  42.159  23.942   7.355
10717POPC   NC365435  32.994   5.908   5.555
10717POPC   PO465436  33.050   5.826   5.855
10717POPC   GL165437  33.017   5.867   6.155
10717POPC   GL265438  33.123   5.900   6.155
10717POPC   C1A65439  33.015   5.912   6.455
10717POPC   D2A65440  33.049   5.841   6.755
10717POPC   C3A65441  32.993   5.851   7.055
10717POPC   C4A65442  33.052   5.906   7.355
10717POPC   C1B65443  33.277   5.928   6.455
10717POPC   C2B65444  33.240   5.896   6.755
10717POPC   C3B65445  33.313   5.919   7.055
10717POPC   C4B65446  33.291   5.879   7.355
10718POPC   NC365447  40.004  28.404   5.555
10718POPC   PO465448  40.026  28.414   5.855
10718POPC   GL165449  39.978  28.371   6.155
10718POPC   GL265450  40.121  28.414   6.155
10718POPC   C1A65451  39.964  28.390   6.455
10718POPC   D2A65452  39.957  28.390   6.755
10718POPC   C3A65453  40.049  28.345   7.055
10718POPC   C4A65454  39.970  28.418   7.355
10718POPC   C1B65455  40.202  28.550   6.455
10718POPC   C2B65456  40.143  28.577   6.755
10718POPC   C3B65457  40.234  28.566   7.055
10718POPC   C4B65458  40.226  28.496   7.355
10719POPC   NC365459  15.155  29.880   5.555
10719POPC   PO465460  15.181  29.937   5.855
10719POPC   GL165461  15.229  29.969   6.155
10719POPC   GL265462  15.310  29.873   6.155
10719POPC   C1A65463  15.216  29.922   6.455
10719POPC   D2A65464  15.203  29.950   6.755
10719POPC   C3A65465  15.160  29.883   7.055
10719POPC   C4A65466  15.177  29.965   7.355
10719POPC   C1B65467  15.298  29.700   6.455
10719POPC   C2B65468  15.298  29.703   6.755
10719POPC   C3B65469  15.369  29.736   7.055
10719POPC   C4B65470  15.340  29.733   7.355
10720POPC   NC365471  17.552  32.984   5.555
10720POPC   PO465472  17.553  33.064   5.855
10720POPC   GL165473  17.462  33.023   6.155
10720POPC   GL265474  17.641  33.122   6.155
10720POPC   C1A65475  17.513  33.051   6.455
10720POPC   D2A65476  17.530  33.044   6.755
10720POPC   C3A65477  17.556  32.983   7.055
10720POPC   C4A65478  17.470  33.058   7.355
10720POPC   C1B65479  17.679  33.191   6.455
10720POPC   C2B65480  17.696  33.187   6.755
10720POPC   C3B65481  17.689  33.214   7.055
10720POPC   C4B65482  17.731  33.157   7.355
10721POPC   NC365483  37.714  43.863   5.555
10721POPC   PO465484  37.693  43.928   5.855
10721POPC   GL165485  37.669  43.857   6.155
10721POPC   GL265486  37.752  43.827   6.155
10721POPC   C1A65487  37.661  43.881   6.455
10721POPC   D2A65488  37.722  43.920   6.755
10721POPC   C3A65489  37.652  43.877   7.055
10721POPC   C4A65490  37.700  43.924   7.355
10721POPC   C1B65491  37.850  43.727   6.455
10721POPC   C2B65492  37.842  43.701   6.755
10721POPC   C3B65493  37.857  43.780   7.055
10721POPC   C4B65494  37.907  43.715   7.355
10722POPC   NC365495   2.788  14.438   5.555
10722POPC   PO465496   2.723  14.416   5.855
10722POPC   GL165497   2.803  14.437   6.155
10722POPC   GL265498   2.800  14.296   6.155
10722POPC   C1A65499   2.742  14.429   6.455
10722POPC   D2A65500   2.801  14.453   6.755
10722POPC   C3A65501   2.809  14.381   7.055
10722POPC   C4A65502   2.805  14.402   7.355
10722POPC   C1B65503   2.755  14.162   6.455
10722POPC   C2B65504   2.791  14.174   6.755
10722POPC   C3B65505   2.772  14.148   7.055
10722POPC   C4B65506   2.720  14.197   7.355
10723POPC   NC365507  32.253  43.123   5.555
10723POPC   PO465508  32.264  43.099   5.855
10723POPC   GL165509  32.254  43.146   6.155
10723POPC   GL265510  32.370  43.087   6.155
10723POPC   C1A65511  32.292  43.072   6.455
10723POPC   D2A65512  32.255  43.087   6.755
10723POPC   C3A65513  32.280  43.086   7.055
10723POPC   C4A65514  32.257  43.090   7.355
10723POPC   C1B65515  32.469  43.122   6.455
10723POPC   C2B65516  32.510  43.086   6.755
10723POPC   C3B65517  32.544  43.082   7.055
10723POPC   C4B65518  32.473  43.058   7.355
10724POPC   NC365519  35.307  19.788   5.555
10724POPC   PO465520  35.334  19.803   5.855
10724POPC   GL165521  35.318  19.876   6.155
10724POPC   GL265522  35.234  19.770   6.155
10724POPC   C1A65523  35.390  19.785   6.455
10724POPC   D2A65524  35.401  19.787   6.755
10724POPC   C3A65525  35.342  19.872   7.055
10724POPC   C4A65526  35.313  19.868   7.355
10724POPC   C1B65527  35.109  19.786   6.455
10724POPC   C2B65528  35.066  19.748   6.755
10724POPC   C3B65529  35.145  19.706   7.055
10724POPC   C4B65530  35.079  19.755   7.355
10725POPC   NC365531  31.451  28.374   5.555
10725POPC   PO465532  31.518  28.409   5.855
10725POPC   GL165533  31.473  28.389   6.155
10725POPC   GL265534  31.580  28.358   6.155
10725POPC   C1A65535  31.424  28.397   6.455
10725POPC   D2A65536  31.471  28.339   6.755
10725POPC   C3A65537  31.467  28.330   7.055
10725POPC   C4A65538  31.511  28.352   7.355
10725POPC   C1B65539  31.733  28.354   6.455
10725POPC   C2B65540  31.746  28.368   6.755
10725POPC   C3B65541  31.704  28.426   7.055
10725POPC   C4B65542  31.675  28.366   7.355
10726POPC   NC365543   5.068  32.245   5.555
10726POPC   PO465544   5.127  32.205   5.855
10726POPC   GL165545   5.046  32.258   6.155
10726POPC   GL265546   5.147  32.106   6.155
10726POPC   C1A65547   5.051  32.203   6.455
10726POPC   D2A65548   5.117  32.236   6.755
10726POPC   C3A65549   5.053  32.243   7.055
10726POPC   C4A65550   5.124  32.294   7.355
10726POPC   C1B65551   5.116  31.981   6.455
10726POPC   C2B65552   5.124  31.962   6.755
10726POPC   C3B65553   5.135  31.991   7.055
10726POPC   C4B65554   5.088  31.955   7.355
10727POPC   NC365555   2.746  19.081   5.555
10727POPC   PO465556   2.716  19.031   5.855
10727POPC   GL165557   2.751  19.103   6.155
10727POPC   GL265558   2.937  19.061   6.155
10727POPC   C1A65559   2.799  19.025   6.455
10727POPC   D2A65560   2.776  19.023   6.755
10727POPC   C3A65561   2.789  19.101   7.055
10727POPC   C4A65562   2.756  19.021   7.355
10727POPC   C1B65563   3.013  19.087   6.455
10727POPC   C2B65564   3.023  19.061   6.755
10727POPC   C3B65565   3.038  19.121   7.055
10727POPC   C4B65566   2.994  19.031   7.355
10728POPC   NC365567  20.656  24.453   5.555
10728POPC   PO465568  20.580  24.474   5.855
10728POPC   GL165569  20.624  24.480   6.155
10728POPC   GL265570  20.495  24.573   6.155
10728POPC   C1A65571  20.660  24.507   6.455
10728POPC   D2A65572  20.586  24.523   6.755
10728POPC   C3A65573  20.620  24.461   7.055
10728POPC   C4A65574  20.646  24.497   7.355
10728POPC   C1B65575  20.406  24.642   6.455
10728POPC   C2B65576  20.394  24.650   6.755
10728POPC   C3B65577  20.442  24.606   7.055
10728POPC   C4B65578  20.453  24.611   7.355
10729POPC   NC365579  24.527  21.386   5.555
10729POPC   PO465580  24.528  21.378   5.855
10729POPC   GL165581  24.515  21.378   6.155
10729POPC   GL265582  24.373  21.452   6.155
10729POPC   C1A65583  24.478  21.378   6.455
10729POPC   D2A65584  24.492  21.434   6.755
10729POPC   C3A65585  24.518  21.400   7.055
10729POPC   C4A65586  24.443  21.348   7.355
10729POPC   C1B65587  24.261  21.467   6.455
10729POPC   C2B65588  24.279  21.542   6.755
10729POPC   C3B65589  24.280  21.482   7.055
10729POPC   C4B65590  24.303  21.498   7.355
10730POPC   NC365591  27.543  38.445   5.555
10730POPC   PO465592  27.576  38.469   5.855
10730POPC   GL165593  27.612  38.467   6.155
10730POPC   GL265594  27.714  38.485   6.155
10730POPC   C1A65595  27.591  38.407   6.455
10730POPC   D2A65596  27.548  38.483   6.755
10730POPC   C3A65597  27.581  38.479   7.055
10730POPC   C4A65598  27.608  38.439   7.355
10730POPC   C1B65599  27.767  38.622   6.455
10730POPC   C2B65600  27.774  38.603   6.755
10730POPC   C3B65601  27.758  38.650   7.055
10730POPC   C4B65602  27.752  38.636   7.355
10731POPC   NC365603  16.758  40.751   5.555
10731POPC   PO465604  16.704  40.828   5.855
10731POPC   GL165605  16.747  40.805   6.155
10731POPC   GL265606  16.641  40.670   6.155
10731POPC   C1A65607  16.740  40.751   6.455
10731POPC   D2A65608  16.752  40.765   6.755
10731POPC   C3A65609  16.744  40.790   7.055
10731POPC   C4A65610  16.717  40.795   7.355
10731POPC   C1B65611  16.600  40.528   6.455
10731POPC   C2B65612  16.612  40.590   6.755
10731POPC   C3B65613  16.588  40.542   7.055
10731POPC   C4B65614  16.600  40.601   7.355
10732POPC   NC365615  16.695  12.037   5.555
10732POPC   PO465616  16.695  12.047   5.855
10732POPC   GL165617  16.742  12.072   6.155
10732POPC   GL265618  16.593  12.053   6.155
10732POPC   C1A65619  16.774  12.112   6.455
10732POPC   D2A65620  16.737  12.083   6.755
10732POPC   C3A65621  16.749  12.082   7.055
10732POPC   C4A65622  16.758  12.041   7.355
10732POPC   C1B65623  16.484  12.128   6.455
10732POPC   C2B65624  16.459  12.042   6.755
10732POPC   C3B65625  16.518  12.108   7.055
10732POPC   C4B65626  16.499  12.058   7.355
10733POPC   NC365627  43.148  21.343   5.555
10733POPC   PO465628  43.087  21.431   5.855
10733POPC   GL165629  43.134  21.398   6.155
10733POPC   GL265630  43.121  21.290   6.155
10733POPC   C1A65631  43.159  21.424   6.455
10733POPC   D2A65632  43.157  21.354   6.755
10733POPC   C3A65633  43.113  21.337   7.055
10733POPC   C4A65634  43.096  21.365   7.355
10733POPC   C1B65635  43.198  21.155   6.455
10733POPC   C2B65636  43.198  21.145   6.755
10733POPC   C3B65637  43.207  21.167   7.055
10733POPC   C4B65638  43.164  21.170   7.355
10734POPC   NC365639  23.711  26.010   5.555
10734POPC   PO465640  23.716  26.023   5.855
10734POPC   GL165641  23.751  26.064   6.155
10734POPC   GL265642  23.558  26.033   6.155
10734POPC   C1A65643  23.718  25.993   6.455
10734POPC   D2A65644  23.689  26.084   6.755
10734POPC   C3A65645  23.762  26.012   7.055
10734POPC   C4A65646  23.691  26.022   7.355
10734POPC   C1B65647  23.473  26.111   6.455
10734POPC   C2B65648  23.460  26.099   6.755
10734POPC   C3B65649  23.447  26.044   7.055
10734POPC   C4B65650  23.469  26.098   7.355
10735POPC   NC365651  36.103  29.117   5.555
10735POPC   PO465652  36.132  29.171   5.855
10735POPC   GL165653  36.081  29.163   6.155
10735POPC   GL265654  36.296  29.148   6.155
10735POPC   C1A65655  36.154  29.112   6.455
10735POPC   D2A65656  36.174  29.136   6.755
10735POPC   C3A65657  36.101  29.141   7.055
10735POPC   C4A65658  36.174  29.185   7.355
10735POPC   C1B65659  36.334  29.137   6.455
10735POPC   C2B65660  36.346  29.230   6.755
10735POPC   C3B65661  36.341  29.200   7.055
10735POPC   C4B65662  36.407  29.192   7.355
10736POPC   NC365663  29.956   8.220   5.555
10736POPC   PO465664  29.903   8.239   5.855
10736POPC   GL165665  29.953   8.152   6.155
10736POPC   GL265666  29.830   8.211   6.155
10736POPC   C1A65667  29.875   8.190   6.455
10736POPC   D2A65668  29.951   8.221   6.755
10736POPC   C3A65669  29.889   8.185   7.055
10736POPC   C4A65670  29.941   8.212   7.355
10736POPC   C1B65671  29.659   8.249   6.455
10736POPC   C2B65672  29.666   8.293   6.755
10736POPC   C3B65673  29.689   8.302   7.055
10736POPC   C4B65674  29.713   8.323   7.355
10737POPC   NC365675  34.586  37.640   5.555
10737POPC   PO465676  34.556  37.664   5.855
10737POPC   GL165677  34.598  37.702   6.155
10737POPC   GL265678  34.704  37.706   6.155
10737POPC   C1A65679  34.554  37.645   6.455
10737POPC   D2A65680  34.622  37.686   6.755
10737POPC   C3A65681  34.611  37.718   7.055
10737POPC   C4A65682  34.546  37.707   7.355
10737POPC   C1B65683  34.788  37.843   6.455
10737POPC   C2B65684  34.808  37.808   6.755
10737POPC   C3B65685  34.787  37.786   7.055
10737POPC   C4B65686  34.787  37.773   7.355
10738POPC   NC365687  12.077  43.155   5.555
10738POPC   PO465688  12.076  43.079   5.855
10738POPC   GL165689  12.083  43.150   6.155
10738POPC   GL265690  12.057  43.243   6.155
10738POPC   C1A65691  12.074  43.100   6.455
10738POPC   D2A65692  12.041  43.147   6.755
10738POPC   C3A65693  12.114  43.106   7.055
10738POPC   C4A65694  12.033  43.142   7.355
10738POPC   C1B65695  11.967  43.355   6.455
10738POPC   C2B65696  11.946  43.281   6.755
10738POPC   C3B65697  11.949  43.332   7.055
10738POPC   C4B65698  11.933  43.331   7.355
10739POPC   NC365699  36.937  33.015   5.555
10739POPC   PO465700  36.882  33.071   5.855
10739POPC   GL165701  36.867  33.024   6.155
10739POPC   GL265702  36.747  32.963   6.155
10739POPC   C1A65703  36.932  33.061   6.455
10739POPC   D2A65704  36.902  33.071   6.755
10739POPC   C3A65705  36.865  32.992   7.055
10739POPC   C4A65706  36.865  33.031   7.355
10739POPC   C1B65707  36.732  32.893   6.455
10739POPC   C2B65708  36.727  32.916   6.755
10739POPC   C3B65709  36.687  32.901   7.055
10739POPC   C4B65710  36.712  32.922   7.355
10740POPC   NC365711   6.678  33.779   5.555
10740POPC   PO465712   6.603  33.805   5.855
10740POPC   GL165713   6.632  33.829   6.155
10740POPC   GL265714   6.762  33.878   6.155
10740POPC   C1A65715   6.653  33.835   6.455
10740POPC   D2A65716   6.684  33.778   6.755
10740POPC   C3A65717   6.688  33.807   7.055
10740POPC   C4A65718   6.688  33.778   7.355
10740POPC   C1B65719   6.874  33.883   6.455
10740POPC   C2B65720   6.887  33.884   6.755
10740POPC   C3B65721   6.905  33.865   7.055
10740POPC   C4B65722   6.865  33.871   7.355
10741POPC   NC365723  19.014  34.573   5.555
10741POPC   PO465724  19.064  34.567   5.855
10741POPC   GL165725  19.060  34.576   6.155
10741POPC   GL265726  19.095  34.453   6.155
10741POPC   C1A65727  19.080  34.537   6.455
10741POPC   D2A65728  19.010  34.540   6.755
10741POPC   C3A65729  19.019  34.554   7.055
10741POPC   C4A65730  19.081  34.556   7.355
10741POPC   C1B65731  19.131  34.347   6.455
10741POPC   C2B65732  19.186  34.378   6.755
10741POPC   C3B65733  19.201  34.388   7.055
10741POPC   C4B65734  19.202  34.335   7.355
10742POPC   NC365735  19.031  43.138   5.555
10742POPC   PO465736  19.071  43.080   5.855
10742POPC   GL165737  19.036  43.069   6.155
10742POPC   GL265738  19.122  42.994   6.155
10742POPC   C1A65739  19.085  43.124   6.455
10742POPC   D2A65740  19.100  43.103   6.755
10742POPC   C3A65741  19.013  43.099   7.055
10742POPC   C4A65742  19.087  43.068   7.355
10742POPC   C1B65743  19.226  42.918   6.455
10742POPC   C2B65744  19.297  42.932   6.755
10742POPC   C3B65745  19.242  42.973   7.055
10742POPC   C4B65746  19.286  42.944   7.355
10743POPC   NC365747  43.088  28.383   5.555
10743POPC   PO465748  43.140  28.391   5.855
10743POPC   GL165749  43.099  28.387   6.155
10743POPC   GL265750  43.119  28.480   6.155
10743POPC   C1A65751  43.085  28.403   6.455
10743POPC   D2A65752  43.104  28.322   6.755
10743POPC   C3A65753  43.128  28.352   7.055
10743POPC   C4A65754  43.091  28.379   7.355
10743POPC   C1B65755  43.029  28.615   6.455
10743POPC   C2B65756  43.034  28.617   6.755
10743POPC   C3B65757  43.041  28.646   7.055
10743POPC   C4B65758  43.031  28.581   7.355
10744POPC   NC365759  44.666   9.753   5.555
10744POPC   PO465760  44.635   9.777   5.855
10744POPC   GL165761  44.658   9.706   6.155
10744POPC   GL265762  44.636   9.669   6.155
10744POPC   C1A65763  44.684   9.766   6.455
10744POPC   D2A65764  44.636   9.711   6.755
10744POPC   C3A65765  44.695   9.752   7.055
10744POPC   C4A65766  44.703   9.766   7.355
10744POPC   C1B65767  44.678   9.470   6.455
10744POPC   C2B65768  44.645   9.463   6.755
10744POPC   C3B65769  44.688   9.473   7.055
10744POPC   C4B65770  44.633   9.543   7.355
10745POPC   NC365771   2.782  22.946   5.555
10745POPC   PO465772   2.752  22.943   5.855
10745POPC   GL165773   2.793  22.957   6.155
10745POPC   GL265774   2.657  23.043   6.155
10745POPC   C1A65775   2.731  22.966   6.455
10745POPC   D2A65776   2.815  22.953   6.755
10745POPC   C3A65777   2.813  22.938   7.055
10745POPC   C4A65778   2.744  22.934   7.355
10745POPC   C1B65779   2.673  23.153   6.455
10745POPC   C2B65780   2.614  23.202   6.755
10745POPC   C3B65781   2.607  23.205   7.055
10745POPC   C4B65782   2.675  23.184   7.355
10746POPC   NC365783  38.425   5.048   5.555
10746POPC   PO465784  38.484   5.047   5.855
10746POPC   GL165785  38.422   5.072   6.155
10746POPC   GL265786  38.391   5.191   6.155
10746POPC   C1A65787  38.449   5.102   6.455
10746POPC   D2A65788  38.468   5.070   6.755
10746POPC   C3A65789  38.431   5.059   7.055
10746POPC   C4A65790  38.480   5.106   7.355
10746POPC   C1B65791  38.282   5.218   6.455
10746POPC   C2B65792  38.184   5.168   6.755
10746POPC   C3B65793  38.192   5.215   7.055
10746POPC   C4B65794  38.207   5.256   7.355
10747POPC   NC365795  37.663  34.569   5.555
10747POPC   PO465796  37.726  34.550   5.855
10747POPC   GL165797  37.639  34.564   6.155
10747POPC   GL265798  37.649  34.459   6.155
10747POPC   C1A65799  37.708  34.567   6.455
10747POPC   D2A65800  37.708  34.613   6.755
10747POPC   C3A65801  37.640  34.579   7.055
10747POPC   C4A65802  37.655  34.546   7.355
10747POPC   C1B65803  37.670  34.342   6.455
10747POPC   C2B65804  37.736  34.338   6.755
10747POPC   C3B65805  37.682  34.356   7.055
10747POPC   C4B65806  37.678  34.346   7.355
10748POPC   NC365807  22.188  21.388   5.555
10748POPC   PO465808  22.178  21.352   5.855
10748POPC   GL165809  22.164  21.363   6.155
10748POPC   GL265810  22.293  21.379   6.155
10748POPC   C1A65811  22.171  21.393   6.455
10748POPC   D2A65812  22.201  21.394   6.755
10748POPC   C3A65813  22.201  21.368   7.055
10748POPC   C4A65814  22.130  21.393   7.355
10748POPC   C1B65815  22.362  21.364   6.455
10748POPC   C2B65816  22.395  21.315   6.755
10748POPC   C3B65817  22.458  21.341   7.055
10748POPC   C4B65818  22.456  21.339   7.355
10749POPC   NC365819  16.698  13.580   5.555
10749POPC   PO465820  16.746  13.628   5.855
10749POPC   GL165821  16.719  13.591   6.155
10749POPC   GL265822  16.679  13.679   6.155
10749POPC   C1A65823  16.683  13.594   6.455
10749POPC   D2A65824  16.764  13.645   6.755
10749POPC   C3A65825  16.729  13.603   7.055
10749POPC   C4A65826  16.690  13.651   7.355
10749POPC   C1B65827  16.583  13.844   6.455
10749POPC   C2B65828  16.507  13.783   6.755
10749POPC   C3B65829  16.579  13.785   7.055
10749POPC   C4B65830  16.544  13.799   7.355
10750POPC   NC365831  16.731  12.870   5.555
10750POPC   PO465832  16.730  12.851   5.855
10750POPC   GL165833  16.694  12.807   6.155
10750POPC   GL265834  16.798  13.008   6.155
10750POPC   C1A65835  16.752  12.833   6.455
10750POPC   D2A65836  16.735  12.820   6.755
10750POPC   C3A65837  16.747  12.827   7.055
10750POPC   C4A65838  16.733  12.810   7.355
10750POPC   C1B65839  16.720  13.096   6.455
10750POPC   C2B65840  16.744  13.116   6.755
10750POPC   C3B65841  16.749  13.060   7.055
10750POPC   C4B65842  16.803  13.142   7.355
10751POPC   NC365843  40.739   9.751   5.555
10751POPC   PO465844  40.740   9.721   5.855
10751POPC   GL165845  40.781   9.741   6.155
10751POPC   GL265846  40.712   9.816   6.155
10751POPC   C1A65847  40.796   9.758   6.455
10751POPC   D2A65848  40.818   9.713   6.755
10751POPC   C3A65849  40.752   9.774   7.055
10751POPC   C4A65850  40.747   9.723   7.355
10751POPC   C1B65851  40.582   9.874   6.455
10751POPC   C2B65852  40.622   9.907   6.755
10751POPC   C3B65853  40.586   9.908   7.055
10751POPC   C4B65854  40.647   9.901   7.355
10752POPC   NC365855   6.684  20.578   5.555
10752POPC   PO465856   6.648  20.658   5.855
10752POPC   GL165857   6.618  20.600   6.155
10752POPC   GL265858   6.775  20.509   6.155
10752POPC   C1A65859   6.621  20.657   6.455
10752POPC   D2A65860   6.662  20.613   6.755
10752POPC   C3A65861   6.654  20.607   7.055
10752POPC   C4A65862   6.635  20.592   7.355
10752POPC   C1B65863   6.837  20.420   6.455
10752POPC   C2B65864   6.844  20.430   6.755
10752POPC   C3B65865   6.776  20.385   7.055
10752POPC   C4B65866   6.769  20.452   7.355
10753POPC   NC365867   4.305   5.911   5.555
10753POPC   PO465868   4.308   5.909   5.855
10753POPC   GL165869   4.333   5.836   6.155
10753POPC   GL265870   4.162   5.884   6.155
10753POPC   C1A65871   4.282   5.839   6.455
10753POPC   D2A65872   4.314   5.874   6.755
10753POPC   C3A65873   4.293   5.841   7.055
10753POPC   C4A65874   4.279   5.917   7.355
10753POPC   C1B65875   4.107   5.978   6.455
10753POPC   C2B65876   4.106   5.971   6.755
10753POPC   C3B65877   4.084   6.041   7.055
10753POPC   C4B65878   4.068   6.018   7.355
10754POPC   NC365879  19.819  44.695   5.555
10754POPC   PO465880  19.857  44.655   5.855
10754POPC   GL165881  19.800  44.655   6.155
10754POPC   GL265882  19.713  44.695   6.155
10754POPC   C1A65883  19.811  44.625   6.455
10754POPC   D2A65884  19.870  44.663   6.755
10754POPC   C3A65885  19.785  44.647   7.055
10754POPC   C4A65886  19.790  44.685   7.355
10754POPC   C1B65887  19.585  44.735   6.455
10754POPC   C2B65888  19.630  44.802   6.755
10754POPC   C3B65889  19.637  44.735   7.055
10754POPC   C4B65890  19.619  44.804   7.355
10755POPC   NC365891   5.067  27.600   5.555
10755POPC   PO465892   5.126  27.590   5.855
10755POPC   GL165893   5.103  27.577   6.155
10755POPC   GL265894   4.956  27.654   6.155
10755POPC   C1A65895   5.081  27.611   6.455
10755POPC   D2A65896   5.094  27.611   6.755
10755POPC   C3A65897   5.109  27.637   7.055
10755POPC   C4A65898   5.076  27.569   7.355
10755POPC   C1B65899   4.903  27.718   6.455
10755POPC   C2B65900   4.906  27.718   6.755
10755POPC   C3B65901   4.832  27.674   7.055
10755POPC   C4B65902   4.875  27.688   7.355
10756POPC   NC365903  25.270  40.045   5.555
10756POPC   PO465904  25.236  40.049   5.855
10756POPC   GL165905  25.220  40.047   6.155
10756POPC   GL265906  25.394  40.005   6.155
10756POPC   C1A65907  25.302  40.048   6.455
10756POPC   D2A65908  25.253  40.001   6.755
10756POPC   C3A65909  25.306  40.054   7.055
10756POPC   C4A65910  25.249  40.032   7.355
10756POPC   C1B65911  25.468  40.066   6.455
10756POPC   C2B65912  25.514  40.004   6.755
10756POPC   C3B65913  25.466  40.091   7.055
10756POPC   C4B65914  25.525  40.015   7.355
10757POPC   NC365915  18.320   5.869   5.555
10757POPC   PO465916  18.257   5.841   5.855
10757POPC   GL165917  18.290   5.859   6.155
10757POPC   GL265918  18.381   5.899   6.155
10757POPC   C1A65919  18.291   5.874   6.455
10757POPC   D2A65920  18.308   5.889   6.755
10757POPC   C3A65921  18.269   5.838   7.055
10757POPC   C4A65922  18.298   5.872   7.355
10757POPC   C1B65923  18.491   5.960   6.455
10757POPC   C2B65924  18.527   5.960   6.755
10757POPC   C3B65925  18.505   5.897   7.055
10757POPC   C4B65926  18.561   5.903   7.355
10758POPC   NC365927   5.824   5.086   5.555
10758POPC   PO465928   5.897   5.098   5.855
10758POPC   GL165929   5.896   5.100   6.155
10758POPC   GL265930   5.933   5.019   6.155
10758POPC   C1A65931   5.831   5.085   6.455
10758POPC   D2A65932   5.826   5.099   6.755
10758POPC   C3A65933   5.840   5.133   7.055
10758POPC   C4A65934   5.918   5.139   7.355
10758POPC   C1B65935   5.929   4.871   6.455
10758POPC   C2B65936   5.939   4.837   6.755
10758POPC   C3B65937   5.967   4.894   7.055
10758POPC   C4B65938   5.934   4.814   7.355
10759POPC   NC365939   2.774   5.856   5.555
10759POPC   PO465940   2.794   5.827   5.855
10759POPC   GL165941   2.730   5.864   6.155
10759POPC   GL265942   2.645   5.823   6.155
10759POPC   C1A65943   2.765   5.848   6.455
10759POPC   D2A65944   2.794   5.897   6.755
10759POPC   C3A65945   2.754   5.866   7.055
10759POPC   C4A65946   2.783   5.860   7.355
10759POPC   C1B65947   2.544   5.836   6.455
10759POPC   C2B65948   2.563   5.826   6.755
10759POPC   C3B65949   2.533   5.828   7.055
10759POPC   C4B65950   2.489   5.849   7.355
10760POPC   NC365951   5.111  36.915   5.555
10760POPC   PO465952   5.045  36.904   5.855
10760POPC   GL165953   5.117  36.942   6.155
10760POPC   GL265954   5.021  36.954   6.155
10760POPC   C1A65955   5.100  36.938   6.455
10760POPC   D2A65956   5.085  36.926   6.755
10760POPC   C3A65957   5.069  36.951   7.055
10760POPC   C4A65958   5.092  36.936   7.355
10760POPC   C1B65959   4.910  37.077   6.455
10760POPC   C2B65960   4.847  37.031   6.755
10760POPC   C3B65961   4.894  37.047   7.055
10760POPC   C4B65962   4.875  37.083   7.355
10761POPC   NC365963  15.946  25.254   5.555
10761POPC   PO465964  15.999  25.296   5.855
10761POPC   GL165965  15.950  25.297   6.155
10761POPC   GL265966  15.800  25.200   6.155
10761POPC   C1A65967  15.985  25.299   6.455
10761POPC   D2A65968  15.966  25.219   6.755
10761POPC   C3A65969  15.987  25.302   7.055
10761POPC   C4A65970  15.982  25.310   7.355
10761POPC   C1B65971  15.684  25.282   6.455
10761POPC   C2B65972  15.715  25.230   6.755
10761POPC   C3B65973  15.691  25.205   7.055
10761POPC   C4B65974  15.686  25.205   7.355
10762POPC   NC365975  44.680  29.874   5.555
10762POPC   PO465976  44.676  29.954   5.855
10762POPC   GL165977  44.635  29.917   6.155
10762POPC   GL265978  44.712  29.798   6.155
10762POPC   C1A65979  44.620  29.906   6.455
10762POPC   D2A65980  44.704  29.960   6.755
10762POPC   C3A65981  44.656  29.928   7.055
10762POPC   C4A65982  44.666  29.944   7.355
10762POPC   C1B65983  44.730  29.639   6.455
10762POPC   C2B65984  44.721  29.718   6.755
10762POPC   C3B65985  44.686  29.700   7.055
10762POPC   C4B65986  44.730  29.728   7.355
10763POPC   NC365987  41.577   3.533   5.555
10763POPC   PO465988  41.570   3.580   5.855
10763POPC   GL165989  41.599   3.506   6.155
10763POPC   GL265990  41.507   3.401   6.155
10763POPC   C1A65991  41.543   3.541   6.455
10763POPC   D2A65992  41.592   3.545   6.755
10763POPC   C3A65993  41.539   3.536   7.055
10763POPC   C4A65994  41.544   3.493   7.355
10763POPC   C1B65995  41.445   3.325   6.455
10763POPC   C2B65996  41.426   3.315   6.755
10763POPC   C3B65997  41.410   3.336   7.055
10763POPC   C4B65998  41.433   3.360   7.355
10764POPC   NC365999  12.122  18.269   5.555
10764POPC   PO466000  12.077  18.262   5.855
10764POPC   GL166001  12.124  18.294   6.155
10764POPC   GL266002  12.164  18.376   6.155
10764POPC   C1A66003  12.073  18.241   6.455
10764POPC   D2A66004  12.092  18.242   6.755
10764POPC   C3A66005  12.072  18.309   7.055
10764POPC   C4A66006  12.095  18.239   7.355
10764POPC   C1B66007  12.296  18.446   6.455
10764POPC   C2B66008  12.249  18.429   6.755
10764POPC   C3B66009  12.226  18.413   7.055
10764POPC   C4B66010  12.304  18.441   7.355
10765POPC   NC366011  16.711  41.547   5.555
10765POPC   PO466012  16.759  41.584   5.855
10765POPC   GL166013  16.761  41.591   6.155
10765POPC   GL266014  16.845  41.549   6.155
10765POPC   C1A66015  16.685  41.526   6.455
10765POPC   D2A66016  16.756  41.578   6.755
10765POPC   C3A66017  16.708  41.595   7.055
10765POPC   C4A66018  16.711  41.581   7.355
10765POPC   C1B66019  16.981  41.510   6.455
10765POPC   C2B66020  17.002  41.530   6.755
10765POPC   C3B66021  16.940  41.557   7.055
10765POPC   C4B66022  16.945  41.469   7.355
10766POPC   NC366023   1.986  43.840   5.555
10766POPC   PO466024   1.942  43.885   5.855
10766POPC   GL166025   1.995  43.889   6.155
10766POPC   GL266026   1.875  43.767   6.155
10766POPC   C1A66027   1.940  43.908   6.455
10766POPC   D2A66028   1.961  43.881   6.755
10766POPC   C3A66029   1.975  43.905   7.055
10766POPC   C4A66030   1.974  43.838   7.355
10766POPC   C1B66031   1.837  43.652   6.455
10766POPC   C2B66032   1.807  43.633   6.755
10766POPC   C3B66033   1.902  43.632   7.055
10766POPC   C4B66034   1.876  43.717   7.355
10767POPC   NC366035  34.582  31.439   5.555
10767POPC   PO466036  34.572  31.477   5.855
10767POPC   GL166037  34.539  31.430   6.155
10767POPC   GL266038  34.442  31.450   6.155
10767POPC   C1A66039  34.616  31.436   6.455
10767POPC   D2A66040  34.615  31.441   6.755
10767POPC   C3A66041  34.620  31.484   7.055
10767POPC   C4A66042  34.616  31.458   7.355
10767POPC   C1B66043  34.374  31.497   6.455
10767POPC   C2B66044  34.318  31.422   6.755
10767POPC   C3B66045  34.312  31.455   7.055
10767POPC   C4B66046  34.347  31.517   7.355
10768POPC   NC366047   8.961  43.159   5.555
10768POPC   PO466048   8.956  43.107   5.855
10768POPC   GL166049   8.994  43.090   6.155
10768POPC   GL266050   8.956  43.234   6.155
10768POPC   C1A66051   8.943  43.156   6.455
10768POPC   D2A66052   8.973  43.070   6.755
10768POPC   C3A66053   8.927  43.098   7.055
10768POPC   C4A66054   8.929  43.074   7.355
10768POPC   C1B66055   8.989  43.394   6.455
10768POPC   C2B66056   8.990  43.354   6.755
10768POPC   C3B66057   8.993  43.401   7.055
10768POPC   C4B66058   8.945  43.361   7.355
10769POPC   NC366059  42.297  18.252   5.555
10769POPC   PO466060  42.312  18.293   5.855
10769POPC   GL166061  42.318  18.240   6.155
10769POPC   GL266062  42.212  18.246   6.155
10769POPC   C1A66063  42.336  18.253   6.455
10769POPC   D2A66064  42.308  18.309   6.755
10769POPC   C3A66065  42.314  18.310   7.055
10769POPC   C4A66066  42.376  18.273   7.355
10769POPC   C1B66067  42.067  18.233   6.455
10769POPC   C2B66068  42.126  18.207   6.755
10769POPC   C3B66069  42.138  18.157   7.055
10769POPC   C4B66070  42.094  18.213   7.355
10770POPC   NC366071  20.615  42.307   5.555
10770POPC   PO466072  20.650  42.288   5.855
10770POPC   GL166073  20.632  42.337   6.155
10770POPC   GL266074  20.566  42.210   6.155
10770POPC   C1A66075  20.653  42.377   6.455
10770POPC   D2A66076  20.626  42.381   6.755
10770POPC   C3A66077  20.640  42.368   7.055
10770POPC   C4A66078  20.627  42.328   7.355
10770POPC   C1B66079  20.565  42.108   6.455
10770POPC   C2B66080  20.572  42.080   6.755
10770POPC   C3B66081  20.521  42.077   7.055
10770POPC   C4B66082  20.515  42.092   7.355
10771POPC   NC366083  29.154  15.166   5.555
10771POPC   PO466084  29.176  15.152   5.855
10771POPC   GL166085  29.185  15.160   6.155
10771POPC   GL266086  29.069  15.035   6.155
10771POPC   C1A66087  29.109  15.206   6.455
10771POPC   D2A66088  29.143  15.198   6.755
10771POPC   C3A66089  29.121  15.146   7.055
10771POPC   C4A66090  29.152  15.204   7.355
10771POPC   C1B66091  29.085  14.944   6.455
10771POPC   C2B66092  29.107  14.904   6.755
10771POPC   C3B66093  29.090  14.915   7.055
10771POPC   C4B66094  29.123  14.910   7.355
10772POPC   NC366095  28.400   8.164   5.555
10772POPC   PO466096  28.343   8.221   5.855
10772POPC   GL166097  28.415   8.155   6.155
10772POPC   GL266098  28.440   8.047   6.155
10772POPC   C1A66099  28.400   8.240   6.455
10772POPC   D2A66100  28.329   8.221   6.755
10772POPC   C3A66101  28.344   8.162   7.055
10772POPC   C4A66102  28.403   8.164   7.355
10772POPC   C1B66103  28.518   7.957   6.455
10772POPC   C2B66104  28.455   8.006   6.755
10772POPC   C3B66105  28.527   7.943   7.055
10772POPC   C4B66106  28.480   7.947   7.355
10773POPC   NC366107  10.523  20.581   5.555
10773POPC   PO466108  10.481  20.630   5.855
10773POPC   GL166109  10.520  20.573   6.155
10773POPC   GL266110  10.564  20.727   6.155
10773POPC   C1A66111  10.518  20.651   6.455
10773POPC   D2A66112  10.568  20.578   6.755
10773POPC   C3A66113  10.533  20.575   7.055
10773POPC   C4A66114  10.495  20.623   7.355
10773POPC   C1B66115  10.651  20.795   6.455
10773POPC   C2B66116  10.672  20.835   6.755
10773POPC   C3B66117  10.728  20.851   7.055
10773POPC   C4B66118  10.671  20.766   7.355
10774POPC   NC366119   4.319   0.401   5.555
10774POPC   PO466120   4.291   0.449   5.855
10774POPC   GL166121   4.362   0.421   6.155
10774POPC   GL266122   4.415   0.461   6.155
10774POPC   C1A66123   4.332   0.432   6.455
10774POPC   D2A66124   4.343   0.448   6.755
10774POPC   C3A66125   4.323   0.475   7.055
10774POPC   C4A66126   4.307   0.427   7.355
10774POPC   C1B66127   4.612   0.442   6.455
10774POPC   C2B66128   4.549   0.443   6.755
10774POPC   C3B66129   4.615   0.436   7.055
10774POPC   C4B66130   4.528   0.502   7.355
10775POPC   NC366131  25.291  13.619   5.555
10775POPC   PO466132  25.275  13.597   5.855
10775POPC   GL166133  25.216  13.655   6.155
10775POPC   GL266134  25.264  13.466   6.155
10775POPC   C1A66135  25.224  13.646   6.455
10775POPC   D2A66136  25.238  13.669   6.755
10775POPC   C3A66137  25.258  13.663   7.055
10775POPC   C4A66138  25.225  13.657   7.355
10775POPC   C1B66139  25.303  13.426   6.455
10775POPC   C2B66140  25.373  13.414   6.755
10775POPC   C3B66141  25.366  13.351   7.055
10775POPC   C4B66142  25.379  13.440   7.355
10776POPC   NC366143   9.710  39.205   5.555
10776POPC   PO466144   9.731  39.218   5.855
10776POPC   GL166145   9.780  39.195   6.155
10776POPC   GL266146   9.825  39.304   6.155
10776POPC   C1A66147   9.793  39.257   6.455
10776POPC   D2A66148   9.702  39.281   6.755
10776POPC   C3A66149   9.759  39.184   7.055
10776POPC   C4A66150   9.761  39.246   7.355
10776POPC   C1B66151  10.007  39.376   6.455
10776POPC   C2B66152  10.006  39.337   6.755
10776POPC   C3B66153  10.012  39.346   7.055
10776POPC   C4B66154  10.014  39.401   7.355
10777POPC   NC366155  36.862  38.451   5.555
10777POPC   PO466156  36.929  38.422   5.855
10777POPC   GL166157  36.885  38.499   6.155
10777POPC   GL266158  36.753  38.569   6.155
10777POPC   C1A66159  36.868  38.408   6.455
10777POPC   D2A66160  36.938  38.421   6.755
10777POPC   C3A66161  36.866  38.459   7.055
10777POPC   C4A66162  36.939  38.483   7.355
10777POPC   C1B66163  36.684  38.582   6.455
10777POPC   C2B66164  36.652  38.553   6.755
10777POPC   C3B66165  36.694  38.589   7.055
10777POPC   C4B66166  36.647  38.621   7.355
10778POPC   NC366167  43.919  39.996   5.555
10778POPC   PO466168  43.901  40.031   5.855
10778POPC   GL166169  43.838  40.052   6.155
10778POPC   GL266170  43.929  40.134   6.155
10778POPC   C1A66171  43.891  39.966   6.455
10778POPC   D2A66172  43.845  39.966   6.755
10778POPC   C3A66173  43.876  40.027   7.055
10778POPC   C4A66174  43.918  40.008   7.355
10778POPC   C1B66175  44.022  40.250   6.455
10778POPC   C2B66176  44.049  40.176   6.755
10778POPC   C3B66177  44.009  40.212   7.055
10778POPC   C4B66178  43.996  40.273   7.355
10779POPC   NC366179  22.140  40.011   5.555
10779POPC   PO466180  22.122  40.021   5.855
10779POPC   GL166181  22.140  39.977   6.155
10779POPC   GL266182  22.148  40.115   6.155
10779POPC   C1A66183  22.197  39.996   6.455
10779POPC   D2A66184  22.198  39.979   6.755
10779POPC   C3A66185  22.127  40.026   7.055
10779POPC   C4A66186  22.182  40.001   7.355
10779POPC   C1B66187  22.113  40.271   6.455
10779POPC   C2B66188  22.106  40.276   6.755
10779POPC   C3B66189  22.188  40.225   7.055
10779POPC   C4B66190  22.101  40.250   7.355
10780POPC   NC366191  34.582  12.071   5.555
10780POPC   PO466192  34.589  12.087   5.855
10780POPC   GL166193  34.605  12.068   6.155
10780POPC   GL266194  34.458  12.084   6.155
10780POPC   C1A66195  34.575  12.063   6.455
10780POPC   D2A66196  34.604  12.107   6.755
10780POPC   C3A66197  34.565  12.106   7.055
10780POPC   C4A66198  34.568  12.099   7.355
10780POPC   C1B66199  34.361  12.079   6.455
10780POPC   C2B66200  34.311  12.134   6.755
10780POPC   C3B66201  34.373  12.107   7.055
10780POPC   C4B66202  34.280  12.085   7.355
10781POPC   NC366203  36.940  36.095   5.555
10781POPC   PO466204  36.898  36.110   5.855
10781POPC   GL166205  36.943  36.114   6.155
10781POPC   GL266206  36.882  36.292   6.155
10781POPC   C1A66207  36.889  36.166   6.455
10781POPC   D2A66208  36.914  36.116   6.755
10781POPC   C3A66209  36.923  36.083   7.055
10781POPC   C4A66210  36.859  36.152   7.355
10781POPC   C1B66211  36.928  36.362   6.455
10781POPC   C2B66212  36.865  36.391   6.755
10781POPC   C3B66213  36.912  36.378   7.055
10781POPC   C4B66214  36.883  36.350   7.355
10782POPC   NC366215  30.725  20.604   5.555
10782POPC   PO466216  30.731  20.639   5.855
10782POPC   GL166217  30.684  20.578   6.155
10782POPC   GL266218  30.760  20.649   6.155
10782POPC   C1A66219  30.696  20.609   6.455
10782POPC   D2A66220  30.667  20.639   6.755
10782POPC   C3A66221  30.656  20.577   7.055
10782POPC   C4A66222  30.723  20.604   7.355
10782POPC   C1B66223  30.951  20.734   6.455
10782POPC   C2B66224  30.923  20.768   6.755
10782POPC   C3B66225  30.913  20.713   7.055
10782POPC   C4B66226  30.966  20.673   7.355
10783POPC   NC366227   8.925  33.809   5.555
10783POPC   PO466228   8.992  33.804   5.855
10783POPC   GL166229   8.925  33.766   6.155
10783POPC   GL266230   8.939  33.663   6.155
10783POPC   C1A66231   8.973  33.844   6.455
10783POPC   D2A66232   8.967  33.775   6.755
10783POPC   C3A66233   8.960  33.774   7.055
10783POPC   C4A66234   8.982  33.841   7.355
10783POPC   C1B66235   8.903  33.539   6.455
10783POPC   C2B66236   8.856  33.562   6.755
10783POPC   C3B66237   8.877  33.579   7.055
10783POPC   C4B66238   8.908  33.575   7.355
10784POPC   NC366239  19.060   8.196   5.555
10784POPC   PO466240  19.066   8.174   5.855
10784POPC   GL166241  19.045   8.181   6.155
10784POPC   GL266242  19.131   8.209   6.155
10784POPC   C1A66243  19.058   8.235   6.455
10784POPC   D2A66244  19.056   8.201   6.755
10784POPC   C3A66245  19.055   8.205   7.055
10784POPC   C4A66246  19.107   8.170   7.355
10784POPC   C1B66247  19.331   8.237   6.455
10784POPC   C2B66248  19.329   8.245   6.755
10784POPC   C3B66249  19.267   8.260   7.055
10784POPC   C4B66250  19.278   8.272   7.355
10785POPC   NC366251  41.602  26.830   5.555
10785POPC   PO466252  41.582  26.804   5.855
10785POPC   GL166253  41.535  26.797   6.155
10785POPC   GL266254  41.565  26.981   6.155
10785POPC   C1A66255  41.583  26.836   6.455
10785POPC   D2A66256  41.545  26.844   6.755
10785POPC   C3A66257  41.546  26.814   7.055
10785POPC   C4A66258  41.557  26.783   7.355
10785POPC   C1B66259  41.520  27.068   6.455
10785POPC   C2B66260  41.521  27.035   6.755
10785POPC   C3B66261  41.480  27.025   7.055
10785POPC   C4B66262  41.513  27.008   7.355
10786POPC   NC366263  18.281  43.895   5.555
10786POPC   PO466264  18.257  43.927   5.855
10786POPC   GL166265  18.323  43.889   6.155
10786POPC   GL266266  18.174  43.957   6.155
10786POPC   C1A66267  18.274  43.920   6.455
10786POPC   D2A66268  18.295  43.895   6.755
10786POPC   C3A66269  18.299  43.886   7.055
10786POPC   C4A66270  18.277  43.934   7.355
10786POPC   C1B66271  18.089  43.997   6.455
10786POPC   C2B66272  18.013  43.990   6.755
10786POPC   C3B66273  18.008  43.983   7.055
10786POPC   C4B66274  18.052  44.021   7.355
10787POPC   NC366275  15.909  34.600   5.555
10787POPC   PO466276  15.922  34.607   5.855
10787POPC   GL166277  15.959  34.588   6.155
10787POPC   GL266278  15.963  34.696   6.155
10787POPC   C1A66279  15.945  34.588   6.455
10787POPC   D2A66280  15.981  34.528   6.755
10787POPC   C3A66281  15.933  34.541   7.055
10787POPC   C4A66282  15.952  34.618   7.355
10787POPC   C1B66283  16.041  34.827   6.455
10787POPC   C2B66284  15.999  34.803   6.755
10787POPC   C3B66285  16.033  34.854   7.055
10787POPC   C4B66286  16.008  34.785   7.355
10788POPC   NC366287  26.843  18.293   5.555
10788POPC   PO466288  26.861  18.281   5.855
10788POPC   GL166289  26.848  18.272   6.155
10788POPC   GL266290  26.903  18.325   6.155
10788POPC   C1A66291  26.852  18.323   6.455
10788POPC   D2A66292  26.788  18.247   6.755
10788POPC   C3A66293  26.851  18.250   7.055
10788POPC   C4A66294  26.789  18.278   7.355
10788POPC   C1B66295  27.068  18.320   6.455
10788POPC   C2B66296  27.107  18.238   6.755
10788POPC   C3B66297  27.069  18.261   7.055
10788POPC   C4B66298  27.057  18.314   7.355
10789POPC   NC366299  22.200  10.511   5.555
10789POPC   PO466300  22.174  10.491   5.855
10789POPC   GL166301  22.122  10.514   6.155
10789POPC   GL266302  22.088  10.633   6.155
10789POPC   C1A66303  22.189  10.527   6.455
10789POPC   D2A66304  22.117  10.545   6.755
10789POPC   C3A66305  22.169  10.561   7.055
10789POPC   C4A66306  22.166  10.498   7.355
10789POPC   C1B66307  21.959  10.640   6.455
10789POPC   C2B66308  22.011  10.643   6.755
10789POPC   C3B66309  21.944  10.641   7.055
10789POPC   C4B66310  22.001  10.729   7.355
10790POPC   NC366311  40.764  16.724   5.555
10790POPC   PO466312  40.796  16.776   5.855
10790POPC   GL166313  40.779  16.745   6.155
10790POPC   GL266314  40.736  16.856   6.155
10790POPC   C1A66315  40.776  16.700   6.455
10790POPC   D2A66316  40.755  16.738   6.755
10790POPC   C3A66317  40.741  16.707   7.055
10790POPC   C4A66318  40.797  16.692   7.355
10790POPC   C1B66319  40.674  16.930   6.455
10790POPC   C2B66320  40.623  16.969   6.755
10790POPC   C3B66321  40.608  16.937   7.055
10790POPC   C4B66322  40.680  16.961   7.355
10791POPC   NC366323  42.374  26.026   5.555
10791POPC   PO466324  42.333  26.038   5.855
10791POPC   GL166325  42.376  25.993   6.155
10791POPC   GL266326  42.384  25.989   6.155
10791POPC   C1A66327  42.347  26.034   6.455
10791POPC   D2A66328  42.364  26.019   6.755
10791POPC   C3A66329  42.334  26.032   7.055
10791POPC   C4A66330  42.365  26.070   7.355
10791POPC   C1B66331  42.579  25.879   6.455
10791POPC   C2B66332  42.560  25.919   6.755
10791POPC   C3B66333  42.492  25.910   7.055
10791POPC   C4B66334  42.558  25.909   7.355
10792POPC   NC366335  35.346  38.423   5.555
10792POPC   PO466336  35.364  38.481   5.855
10792POPC   GL166337  35.330  38.490   6.155
10792POPC   GL266338  35.359  38.608   6.155
10792POPC   C1A66339  35.388  38.460   6.455
10792POPC   D2A66340  35.356  38.455   6.755
10792POPC   C3A66341  35.352  38.487   7.055
10792POPC   C4A66342  35.358  38.473   7.355
10792POPC   C1B66343  35.432  38.659   6.455
10792POPC   C2B66344  35.383  38.682   6.755
10792POPC   C3B66345  35.426  38.683   7.055
10792POPC   C4B66346  35.446  38.653   7.355
10793POPC   NC366347   6.682  22.951   5.555
10793POPC   PO466348   6.596  22.907   5.855
10793POPC   GL166349   6.667  22.935   6.155
10793POPC   GL266350   6.761  22.997   6.155
10793POPC   C1A66351   6.626  22.889   6.455
10793POPC   D2A66352   6.644  22.941   6.755
10793POPC   C3A66353   6.657  22.928   7.055
10793POPC   C4A66354   6.636  22.973   7.355
10793POPC   C1B66355   6.859  23.059   6.455
10793POPC   C2B66356   6.817  23.034   6.755
10793POPC   C3B66357   6.887  23.067   7.055
10793POPC   C4B66358   6.861  23.099   7.355
10794POPC   NC366359  39.238   6.655   5.555
10794POPC   PO466360  39.185   6.646   5.855
10794POPC   GL166361  39.238   6.653   6.155
10794POPC   GL266362  39.293   6.709   6.155
10794POPC   C1A66363  39.185   6.676   6.455
10794POPC   D2A66364  39.207   6.682   6.755
10794POPC   C3A66365  39.225   6.691   7.055
10794POPC   C4A66366  39.244   6.625   7.355
10794POPC   C1B66367  39.489   6.756   6.455
10794POPC   C2B66368  39.424   6.806   6.755
10794POPC   C3B66369  39.481   6.824   7.055
10794POPC   C4B66370  39.488   6.764   7.355
10795POPC   NC366371  32.296   5.909   5.555
10795POPC   PO466372  32.232   5.882   5.855
10795POPC   GL166373  32.283   5.877   6.155
10795POPC   GL266374  32.207   5.966   6.155
10795POPC   C1A66375  32.222   5.839   6.455
10795POPC   D2A66376  32.272   5.904   6.755
10795POPC   C3A66377  32.205   5.825   7.055
10795POPC   C4A66378  32.222   5.898   7.355
10795POPC   C1B66379  32.137   6.116   6.455
10795POPC   C2B66380  32.110   6.081   6.755
10795POPC   C3B66381  32.083   6.099   7.055
10795POPC   C4B66382  32.090   6.023   7.355
10796POPC   NC366383  23.720  28.412   5.555
10796POPC   PO466384  23.667  28.391   5.855
10796POPC   GL166385  23.719  28.337   6.155
10796POPC   GL266386  23.740  28.233   6.155
10796POPC   C1A66387  23.742  28.413   6.455
10796POPC   D2A66388  23.756  28.359   6.755
10796POPC   C3A66389  23.762  28.374   7.055
10796POPC   C4A66390  23.685  28.385   7.355
10796POPC   C1B66391  23.816  28.135   6.455
10796POPC   C2B66392  23.739  28.165   6.755
10796POPC   C3B66393  23.778  28.172   7.055
10796POPC   C4B66394  23.790  28.145   7.355
10797POPC   NC366395  13.665  13.641   5.555
10797POPC   PO466396  13.649  13.674   5.855
10797POPC   GL166397  13.647  13.596   6.155
10797POPC   GL266398  13.588  13.753   6.155
10797POPC   C1A66399  13.579  13.638   6.455
10797POPC   D2A66400  13.612  13.671   6.755
10797POPC   C3A66401  13.624  13.589   7.055
10797POPC   C4A66402  13.635  13.675   7.355
10797POPC   C1B66403  13.517  13.846   6.455
10797POPC   C2B66404  13.470  13.781   6.755
10797POPC   C3B66405  13.479  13.789   7.055
10797POPC   C4B66406  13.449  13.777   7.355
10798POPC   NC366407  12.805  36.952   5.555
10798POPC   PO466408  12.875  36.926   5.855
10798POPC   GL166409  12.823  36.891   6.155
10798POPC   GL266410  12.742  36.974   6.155
10798POPC   C1A66411  12.873  36.947   6.455
10798POPC   D2A66412  12.841  36.905   6.755
10798POPC   C3A66413  12.823  36.875   7.055
10798POPC   C4A66414  12.838  36.928   7.355
10798POPC   C1B66415  12.642  36.949   6.455
10798POPC   C2B66416  12.619  36.940   6.755
10798POPC   C3B66417  12.570  36.926   7.055
10798POPC   C4B66418  12.578  36.919   7.355
10799POPC   NC366419   5.831  40.776   5.555
10799POPC   PO466420   5.858  40.782   5.855
10799POPC   GL166421   5.882  40.809   6.155
10799POPC   GL266422   5.827  40.637   6.155
10799POPC   C1A66423   5.863  40.781   6.455
10799POPC   D2A66424   5.912  40.774   6.755
10799POPC   C3A66425   5.905  40.777   7.055
10799POPC   C4A66426   5.835  40.734   7.355
10799POPC   C1B66427   5.796  40.579   6.455
10799POPC   C2B66428   5.762  40.598   6.755
10799POPC   C3B66429   5.787  40.572   7.055
10799POPC   C4B66430   5.787  40.579   7.355
10800POPC   NC366431  25.999  30.703   5.555
10800POPC   PO466432  26.018  30.697   5.855
10800POPC   GL166433  26.063  30.685   6.155
10800POPC   GL266434  26.179  30.612   6.155
10800POPC   C1A66435  26.058  30.676   6.455
10800POPC   D2A66436  26.020  30.715   6.755
10800POPC   C3A66437  26.020  30.682   7.055
10800POPC   C4A66438  26.073  30.705   7.355
10800POPC   C1B66439  26.320  30.550   6.455
10800POPC   C2B66440  26.310  30.611   6.755
10800POPC   C3B66441  26.261  30.554   7.055
10800POPC   C4B66442  26.296  30.552   7.355
10801POPC   NC366443   2.758   5.136   5.555
10801POPC   PO466444   2.717   5.083   5.855
10801POPC   GL166445   2.804   5.115   6.155
10801POPC   GL266446   2.668   5.145   6.155
10801POPC   C1A66447   2.751   5.115   6.455
10801POPC   D2A66448   2.798   5.104   6.755
10801POPC   C3A66449   2.761   5.050   7.055
10801POPC   C4A66450   2.741   5.140   7.355
10801POPC   C1B66451   2.501   5.158   6.455
10801POPC   C2B66452   2.489   5.230   6.755
10801POPC   C3B66453   2.512   5.169   7.055
10801POPC   C4B66454   2.571   5.225   7.355
10802POPC   NC366455  14.419   3.542   5.555
10802POPC   PO466456  14.400   3.578   5.855
10802POPC   GL166457  14.397   3.538   6.155
10802POPC   GL266458  14.288   3.560   6.155
10802POPC   C1A66459  14.438   3.541   6.455
10802POPC   D2A66460  14.436   3.550   6.755
10802POPC   C3A66461  14.430   3.553   7.055
10802POPC   C4A66462  14.405   3.564   7.355
10802POPC   C1B66463  14.164   3.635   6.455
10802POPC   C2B66464  14.162   3.594   6.755
10802POPC   C3B66465  14.190   3.600   7.055
10802POPC   C4B66466  14.111   3.549   7.355
10803POPC   NC366467  43.891  20.624   5.555
10803POPC   PO466468  43.872  20.652   5.855
10803POPC   GL166469  43.876  20.652   6.155
10803POPC   GL266470  43.834  20.503   6.155
10803POPC   C1A66471  43.914  20.652   6.455
10803POPC   D2A66472  43.913  20.579   6.755
10803POPC   C3A66473  43.846  20.606   7.055
10803POPC   C4A66474  43.898  20.573   7.355
10803POPC   C1B66475  43.787  20.350   6.455
10803POPC   C2B66476  43.741  20.436   6.755
10803POPC   C3B66477  43.773  20.413   7.055
10803POPC   C4B66478  43.735  20.396   7.355
10804POPC   NC366479  20.602   0.429   5.555
10804POPC   PO466480  20.659   0.469   5.855
10804POPC   GL166481  20.615   0.424   6.155
10804POPC   GL266482  20.526   0.374   6.155
10804POPC   C1A66483  20.636   0.475   6.455
10804POPC   D2A66484  20.611   0.412   6.755
10804POPC   C3A66485  20.651   0.467   7.055
10804POPC   C4A66486  20.648   0.419   7.355
10804POPC   C1B66487  20.414   0.373   6.455
10804POPC   C2B66488  20.386   0.305   6.755
10804POPC   C3B66489  20.335   0.354   7.055
10804POPC   C4B66490  20.340   0.283   7.355
10805POPC   NC366491  19.791  15.918   5.555
10805POPC   PO466492  19.812  15.973   5.855
10805POPC   GL166493  19.799  15.982   6.155
10805POPC   GL266494  19.717  15.953   6.155
10805POPC   C1A66495  19.854  15.924   6.455
10805POPC   D2A66496  19.815  15.927   6.755
10805POPC   C3A66497  19.860  15.988   7.055
10805POPC   C4A66498  19.814  15.977   7.355
10805POPC   C1B66499  19.581  15.930   6.455
10805POPC   C2B66500  19.543  15.972   6.755
10805POPC   C3B66501  19.585  15.922   7.055
10805POPC   C4B66502  19.567  15.979   7.355
10806POPC   NC366503  14.449  28.351   5.555
10806POPC   PO466504  14.429  28.374   5.855
10806POPC   GL166505  14.445  28.374   6.155
10806POPC   GL266506  14.326  28.315   6.155
10806POPC   C1A66507  14.412  28.413   6.455
10806POPC   D2A66508  14.409  28.334   6.755
10806POPC   C3A66509  14.366  28.342   7.055
10806POPC   C4A66510  14.414  28.356   7.355
10806POPC   C1B66511  14.210  28.337   6.455
10806POPC   C2B66512  14.129  28.327   6.755
10806POPC   C3B66513  14.200  28.334   7.055
10806POPC   C4B66514  14.133  28.286   7.355
10807POPC   NC366515  39.958  26.006   5.555
10807POPC   PO466516  40.007  26.090   5.855
10807POPC   GL166517  40.014  26.003   6.155
10807POPC   GL266518  40.059  26.106   6.155
10807POPC   C1A66519  40.013  26.071   6.455
10807POPC   D2A66520  40.027  26.028   6.755
10807POPC   C3A66521  40.015  26.068   7.055
10807POPC   C4A66522  39.975  26.043   7.355
10807POPC   C1B66523  40.184  26.164   6.455
10807POPC   C2B66524  40.225  26.151   6.755
10807POPC   C3B66525  40.246  26.153   7.055
10807POPC   C4B66526  40.217  26.164   7.355
10808POPC   NC366527  31.449   5.096   5.555
10808POPC   PO466528  31.435   5.070   5.855
10808POPC   GL166529  31.460   5.095   6.155
10808POPC   GL266530  31.344   5.224   6.155
10808POPC   C1A66531  31.453   5.074   6.455
10808POPC   D2A66532  31.488   5.074   6.755
10808POPC   C3A66533  31.515   5.060   7.055
10808POPC   C4A66534  31.424   5.045   7.355
10808POPC   C1B66535  31.325   5.270   6.455
10808POPC   C2B66536  31.316   5.261   6.755
10808POPC   C3B66537  31.357   5.271   7.055
10808POPC   C4B66538  31.353   5.286   7.355
10809POPC   NC366539  39.206  14.447   5.555
10809POPC   PO466540  39.209  14.430   5.855
10809POPC   GL166541  39.215  14.404   6.155
10809POPC   GL266542  39.341  14.535   6.155
10809POPC   C1A66543  39.214  14.419   6.455
10809POPC   D2A66544  39.255  14.441   6.755
10809POPC   C3A66545  39.212  14.379   7.055
10809POPC   C4A66546  39.194  14.411   7.355
10809POPC   C1B66547  39.414  14.625   6.455
10809POPC   C2B66548  39.341  14.600   6.755
10809POPC   C3B66549  39.389  14.649   7.055
10809POPC   C4B66550  39.335  14.594   7.355
10810POPC   NC366551  30.695   5.046   5.555
10810POPC   PO466552  30.661   5.114   5.855
10810POPC   GL166553  30.721   5.101   6.155
10810POPC   GL266554  30.716   5.222   6.155
10810POPC   C1A66555  30.688   5.126   6.455
10810POPC   D2A66556  30.703   5.061   6.755
10810POPC   C3A66557  30.725   5.139   7.055
10810POPC   C4A66558  30.657   5.120   7.355
10810POPC   C1B66559  30.841   5.331   6.455
10810POPC   C2B66560  30.817   5.344   6.755
10810POPC   C3B66561  30.760   5.365   7.055
10810POPC   C4B66562  30.772   5.321   7.355
10811POPC   NC366563   2.793  15.987   5.555
10811POPC   PO466564   2.793  15.922   5.855
10811POPC   GL166565   2.788  15.971   6.155
10811POPC   GL266566   2.804  15.905   6.155
10811POPC   C1A66567   2.765  15.978   6.455
10811POPC   D2A66568   2.721  15.973   6.755
10811POPC   C3A66569   2.753  15.953   7.055
10811POPC   C4A66570   2.800  16.002   7.355
10811POPC   C1B66571   2.928  15.768   6.455
10811POPC   C2B66572   2.896  15.737   6.755
10811POPC   C3B66573   2.921  15.738   7.055
10811POPC   C4B66574   2.918  15.790   7.355
10812POPC   NC366575  19.847  26.861   5.555
10812POPC   PO466576  19.857  26.788   5.855
10812POPC   GL166577  19.825  26.851   6.155
10812POPC   GL266578  19.890  26.960   6.155
10812POPC   C1A66579  19.786  26.776   6.455
10812POPC   D2A66580  19.862  26.837   6.755
10812POPC   C3A66581  19.794  26.768   7.055
10812POPC   C4A66582  19.861  26.855   7.355
10812POPC   C1B66583  19.922  27.056   6.455
10812POPC   C2B66584  19.983  27.023   6.755
10812POPC   C3B66585  20.006  27.046   7.055
10812POPC   C4B66586  20.000  26.995   7.355
10813POPC   NC366587  19.795  31.460   5.555
10813POPC   PO466588  19.826  31.486   5.855
10813POPC   GL166589  19.792  31.483   6.155
10813POPC   GL266590  19.753  31.461   6.155
10813POPC   C1A66591  19.821  31.442   6.455
10813POPC   D2A66592  19.823  31.503   6.755
10813POPC   C3A66593  19.869  31.444   7.055
10813POPC   C4A66594  19.881  31.441   7.355
10813POPC   C1B66595  19.610  31.386   6.455
10813POPC   C2B66596  19.640  31.365   6.755
10813POPC   C3B66597  19.597  31.338   7.055
10813POPC   C4B66598  19.591  31.380   7.355
10814POPC   NC366599   3.511  15.928   5.555
10814POPC   PO466600   3.567  15.970   5.855
10814POPC   GL166601   3.512  15.919   6.155
10814POPC   GL266602   3.601  16.037   6.155
10814POPC   C1A66603   3.531  15.939   6.455
10814POPC   D2A66604   3.547  15.940   6.755
10814POPC   C3A66605   3.496  15.964   7.055
10814POPC   C4A66606   3.566  15.911   7.355
10814POPC   C1B66607   3.526  16.214   6.455
10814POPC   C2B66608   3.542  16.245   6.755
10814POPC   C3B66609   3.519  16.166   7.055
10814POPC   C4B66610   3.592  16.215   7.355
10815POPC   NC366611   0.459  39.222   5.555
10815POPC   PO466612   0.438  39.203   5.855
10815POPC   GL166613   0.415  39.260   6.155
10815POPC   GL266614   0.322  39.249   6.155
10815POPC   C1A66615   0.456  39.269   6.455
10815POPC   D2A66616   0.390  39.232   6.755
10815POPC   C3A66617   0.471  39.269   7.055
10815POPC   C4A66618   0.422  39.185   7.355
10815POPC   C1B66619   0.174  39.223   6.455
10815POPC   C2B66620   0.142  39.186   6.755
10815POPC   C3B66621   0.186  39.231   7.055
10815POPC   C4B66622   0.145  39.264   7.355
10816POPC   NC366623  37.705  35.337   5.555
10816POPC   PO466624  37.697  35.385   5.855
10816POPC   GL166625  37.687  35.342   6.155
10816POPC   GL266626  37.698  35.200   6.155
10816POPC   C1A66627  37.719  35.316   6.455
10816POPC   D2A66628  37.691  35.343   6.755
10816POPC   C3A66629  37.639  35.331   7.055
10816POPC   C4A66630  37.673  35.399   7.355
10816POPC   C1B66631  37.800  35.145   6.455
10816POPC   C2B66632  37.810  35.169   6.755
10816POPC   C3B66633  37.787  35.128   7.055
10816POPC   C4B66634  37.786  35.090   7.355
10817POPC   NC366635  28.399   5.048   5.555
10817POPC   PO466636  28.321   5.122   5.855
10817POPC   GL166637  28.343   5.088   6.155
10817POPC   GL266638  28.284   5.219   6.155
10817POPC   C1A66639  28.329   5.051   6.455
10817POPC   D2A66640  28.334   5.124   6.755
10817POPC   C3A66641  28.350   5.071   7.055
10817POPC   C4A66642  28.320   5.122   7.355
10817POPC   C1B66643  28.243   5.249   6.455
10817POPC   C2B66644  28.173   5.334   6.755
10817POPC   C3B66645  28.166   5.285   7.055
10817POPC   C4B66646  28.232   5.316   7.355
10818POPC   NC366647  43.079  29.107   5.555
10818POPC   PO466648  43.088  29.116   5.855
10818POPC   GL166649  43.081  29.180   6.155
10818POPC   GL266650  42.962  29.104   6.155
10818POPC   C1A66651  43.110  29.107   6.455
10818POPC   D2A66652  43.086  29.147   6.755
10818POPC   C3A66653  43.090  29.177   7.055
10818POPC   C4A66654  43.107  29.169   7.355
10818POPC   C1B66655  42.906  29.123   6.455
10818POPC   C2B66656  42.830  29.092   6.755
10818POPC   C3B66657  42.853  29.116   7.055
10818POPC   C4B66658  42.828  29.122   7.355
10819POPC   NC366659  18.234   3.506   5.555
10819POPC   PO466660  18.270   3.515   5.855
10819POPC   GL166661  18.290   3.570   6.155
10819POPC   GL266662  18.136   3.519   6.155
10819POPC   C1A66663  18.279   3.585   6.455
10819POPC   D2A66664  18.295   3.495   6.755
10819POPC   C3A66665  18.319   3.584   7.055
10819POPC   C4A66666  18.275   3.579   7.355
10819POPC   C1B66667  18.059   3.378   6.455
10819POPC   C2B66668  18.068   3.463   6.755
10819POPC   C3B66669  18.089   3.441   7.055
10819POPC   C4B66670  18.109   3.471   7.355
10820POPC   NC366671  33.824  36.898   5.555
10820POPC   PO466672  33.805  36.880   5.855
10820POPC   GL166673  33.849  36.892   6.155
10820POPC   GL266674  33.933  36.873   6.155
10820POPC   C1A66675  33.829  36.856   6.455
10820POPC   D2A66676  33.828  36.924   6.755
10820POPC   C3A66677  33.803  36.892   7.055
10820POPC   C4A66678  33.757  36.918   7.355
10820POPC   C1B66679  34.032  36.757   6.455
10820POPC   C2B66680  33.990  36.785   6.755
10820POPC   C3B66681  34.012  36.792   7.055
10820POPC   C4B66682  33.966  36.724   7.355
10821POPC   NC366683  12.120   5.044   5.555
10821POPC   PO466684  12.057   5.116   5.855
10821POPC   GL166685  12.104   5.138   6.155
10821POPC   GL266686  12.006   5.180   6.155
10821POPC   C1A66687  12.061   5.119   6.455
10821POPC   D2A66688  12.113   5.068   6.755
10821POPC   C3A66689  12.039   5.106   7.055
10821POPC   C4A66690  12.124   5.073   7.355
10821POPC   C1B66691  11.841   5.243   6.455
10821POPC   C2B66692  11.843   5.214   6.755
10821POPC   C3B66693  11.838   5.173   7.055
10821POPC   C4B66694  11.866   5.247   7.355
10822POPC   NC366695  44.656  35.341   5.555
10822POPC   PO466696  44.668  35.383   5.855
10822POPC   GL166697  44.633  35.312   6.155
10822POPC   GL266698  44.737  35.454   6.155
10822POPC   C1A66699  44.644  35.313   6.455
10822POPC   D2A66700  44.645  35.364   6.755
10822POPC   C3A66701  44.671  35.307   7.055
10822POPC   C4A66702  44.639  35.386   7.355
10822POPC   C1B66703  44.709  35.595   6.455
10822POPC   C2B66704  44.725  35.557   6.755
10822POPC   C3B66705  44.737  35.584   7.055
10822POPC   C4B66706  44.778  35.556   7.355
10823POPC   NC366707  42.384  20.640   5.555
10823POPC   PO466708  42.378  20.587   5.855
10823POPC   GL166709  42.296  20.593   6.155
10823POPC   GL266710  42.436  20.731   6.155
10823POPC   C1A66711  42.332  20.648   6.455
10823POPC   D2A66712  42.335  20.652   6.755
10823POPC   C3A66713  42.361  20.614   7.055
10823POPC   C4A66714  42.330  20.594   7.355
10823POPC   C1B66715  42.522  20.790   6.455
10823POPC   C2B66716  42.510  20.803   6.755
10823POPC   C3B66717  42.563  20.746   7.055
10823POPC   C4B66718  42.545  20.806   7.355
10824POPC   NC366719   1.174  32.242   5.555
10824POPC   PO466720   1.168  32.295   5.855
10824POPC   GL166721   1.235  32.221   6.155
10824POPC   GL266722   1.176  32.173   6.155
10824POPC   C1A66723   1.198  32.242   6.455
10824POPC   D2A66724   1.211  32.249   6.755
10824POPC   C3A66725   1.170  32.238   7.055
10824POPC   C4A66726   1.203  32.214   7.355
10824POPC   C1B66727   1.094  32.012   6.455
10824POPC   C2B66728   1.151  32.054   6.755
10824POPC   C3B66729   1.117  31.976   7.055
10824POPC   C4B66730   1.125  32.016   7.355
10825POPC   NC366731  25.226  14.376   5.555
10825POPC   PO466732  25.219  14.399   5.855
10825POPC   GL166733  25.255  14.403   6.155
10825POPC   GL266734  25.401  14.358   6.155
10825POPC   C1A66735  25.270  14.410   6.455
10825POPC   D2A66736  25.262  14.451   6.755
10825POPC   C3A66737  25.284  14.364   7.055
10825POPC   C4A66738  25.258  14.371   7.355
10825POPC   C1B66739  25.486  14.285   6.455
10825POPC   C2B66740  25.435  14.252   6.755
10825POPC   C3B66741  25.502  14.237   7.055
10825POPC   C4B66742  25.468  14.220   7.355
10826POPC   NC366743  43.159  19.822   5.555
10826POPC   PO466744  43.101  19.837   5.855
10826POPC   GL166745  43.156  19.841   6.155
10826POPC   GL266746  43.186  19.945   6.155
10826POPC   C1A66747  43.066  19.832   6.455
10826POPC   D2A66748  43.116  19.796   6.755
10826POPC   C3A66749  43.101  19.796   7.055
10826POPC   C4A66750  43.141  19.873   7.355
10826POPC   C1B66751  43.243  19.965   6.455
10826POPC   C2B66752  43.242  20.041   6.755
10826POPC   C3B66753  43.312  19.982   7.055
10826POPC   C4B66754  43.240  19.960   7.355
10827POPC   NC366755   5.053  18.251   5.555
10827POPC   PO466756   5.129  18.247   5.855
10827POPC   GL166757   5.123  18.262   6.155
10827POPC   GL266758   5.011  18.427   6.155
10827POPC   C1A66759   5.107  18.258   6.455
10827POPC   D2A66760   5.096  18.239   6.755
10827POPC   C3A66761   5.141  18.270   7.055
10827POPC   C4A66762   5.051  18.293   7.355
10827POPC   C1B66763   4.996  18.457   6.455
10827POPC   C2B66764   4.903  18.510   6.755
10827POPC   C3B66765   4.929  18.467   7.055
10827POPC   C4B66766   4.994  18.532   7.355
10828POPC   NC366767  17.476  24.452   5.555
10828POPC   PO466768  17.507  24.449   5.855
10828POPC   GL166769  17.457  24.441   6.155
10828POPC   GL266770  17.418  24.563   6.155
10828POPC   C1A66771  17.504  24.471   6.455
10828POPC   D2A66772  17.464  24.502   6.755
10828POPC   C3A66773  17.465  24.454   7.055
10828POPC   C4A66774  17.535  24.489   7.355
10828POPC   C1B66775  17.322  24.649   6.455
10828POPC   C2B66776  17.322  24.639   6.755
10828POPC   C3B66777  17.324  24.657   7.055
10828POPC   C4B66778  17.364  24.634   7.355
10829POPC   NC366779  12.113  39.276   5.555
10829POPC   PO466780  12.050  39.224   5.855
10829POPC   GL166781  12.061  39.277   6.155
10829POPC   GL266782  11.928  39.314   6.155
10829POPC   C1A66783  12.067  39.196   6.455
10829POPC   D2A66784  12.096  39.266   6.755
10829POPC   C3A66785  12.045  39.278   7.055
10829POPC   C4A66786  12.050  39.185   7.355
10829POPC   C1B66787  11.864  39.339   6.455
10829POPC   C2B66788  11.881  39.325   6.755
10829POPC   C3B66789  11.838  39.381   7.055
10829POPC   C4B66790  11.851  39.398   7.355
10830POPC   NC366791  25.267   2.010   5.555
10830POPC   PO466792  25.292   2.014   5.855
10830POPC   GL166793  25.225   1.985   6.155
10830POPC   GL266794  25.175   2.080   6.155
10830POPC   C1A66795  25.296   1.956   6.455
10830POPC   D2A66796  25.287   2.032   6.755
10830POPC   C3A66797  25.240   1.976   7.055
10830POPC   C4A66798  25.231   1.962   7.355
10830POPC   C1B66799  25.170   2.170   6.455
10830POPC   C2B66800  25.183   2.220   6.755
10830POPC   C3B66801  25.184   2.239   7.055
10830POPC   C4B66802  25.201   2.216   7.355
10831POPC   NC366803   8.185   4.336   5.555
10831POPC   PO466804   8.229   4.331   5.855
10831POPC   GL166805   8.157   4.350   6.155
10831POPC   GL266806   8.186   4.433   6.155
10831POPC   C1A66807   8.170   4.351   6.455
10831POPC   D2A66808   8.154   4.276   6.755
10831POPC   C3A66809   8.151   4.311   7.055
10831POPC   C4A66810   8.162   4.325   7.355
10831POPC   C1B66811   8.305   4.588   6.455
10831POPC   C2B66812   8.296   4.567   6.755
10831POPC   C3B66813   8.295   4.605   7.055
10831POPC   C4B66814   8.234   4.564   7.355
10832POPC   NC366815  28.322  39.242   5.555
10832POPC   PO466816  28.348  39.238   5.855
10832POPC   GL166817  28.415  39.246   6.155
10832POPC   GL266818  28.491  39.170   6.155
10832POPC   C1A66819  28.400  39.187   6.455
10832POPC   D2A66820  28.360  39.200   6.755
10832POPC   C3A66821  28.367  39.184   7.055
10832POPC   C4A66822  28.365  39.254   7.355
10832POPC   C1B66823  28.616  39.193   6.455
10832POPC   C2B66824  28.634  39.161   6.755
10832POPC   C3B66825  28.650  39.121   7.055
10832POPC   C4B66826  28.613  39.123   7.355
10833POPC   NC366827  20.566   8.162   5.555
10833POPC   PO466828  20.616   8.179   5.855
10833POPC   GL166829  20.642   8.171   6.155
10833POPC   GL266830  20.610   8.080   6.155
10833POPC   C1A66831  20.567   8.208   6.455
10833POPC   D2A66832  20.653   8.202   6.755
10833POPC   C3A66833  20.642   8.166   7.055
10833POPC   C4A66834  20.602   8.227   7.355
10833POPC   C1B66835  20.705   7.915   6.455
10833POPC   C2B66836  20.694   7.920   6.755
10833POPC   C3B66837  20.625   7.918   7.055
10833POPC   C4B66838  20.643   7.905   7.355
10834POPC   NC366839  32.981   4.355   5.555
10834POPC   PO466840  33.073   4.303   5.855
10834POPC   GL166841  33.023   4.281   6.155
10834POPC   GL266842  33.125   4.340   6.155
10834POPC   C1A66843  33.043   4.345   6.455
10834POPC   D2A66844  33.021   4.310   6.755
10834POPC   C3A66845  32.983   4.341   7.055
10834POPC   C4A66846  33.009   4.360   7.355
10834POPC   C1B66847  33.301   4.271   6.455
10834POPC   C2B66848  33.301   4.362   6.755
10834POPC   C3B66849  33.315   4.298   7.055
10834POPC   C4B66850  33.265   4.297   7.355
10835POPC   NC366851  42.367   0.450   5.555
10835POPC   PO466852  42.346   0.447   5.855
10835POPC   GL166853  42.368   0.390   6.155
10835POPC   GL266854  42.254   0.407   6.155
10835POPC   C1A66855  42.306   0.426   6.455
10835POPC   D2A66856  42.287   0.461   6.755
10835POPC   C3A66857  42.296   0.429   7.055
10835POPC   C4A66858  42.307   0.401   7.355
10835POPC   C1B66859  42.106   0.331   6.455
10835POPC   C2B66860  42.108   0.350   6.755
10835POPC   C3B66861  42.103   0.358   7.055
10835POPC   C4B66862  42.110   0.358   7.355
10836POPC   NC366863  35.382  30.744   5.555
10836POPC   PO466864  35.318  30.687   5.855
10836POPC   GL166865  35.310  30.709   6.155
10836POPC   GL266866  35.180  30.626   6.155
10836POPC   C1A66867  35.350  30.660   6.455
10836POPC   D2A66868  35.387  30.698   6.755
10836POPC   C3A66869  35.336  30.687   7.055
10836POPC   C4A66870  35.381  30.710   7.355
10836POPC   C1B66871  35.150  30.611   6.455
10836POPC   C2B66872  35.146  30.647   6.755
10836POPC   C3B66873  35.103  30.624   7.055
10836POPC   C4B66874  35.122  30.649   7.355
10837POPC   NC366875  38.487  14.429   5.555
10837POPC   PO466876  38.416  14.370   5.855
10837POPC   GL166877  38.412  14.413   6.155
10837POPC   GL266878  38.370  14.381   6.155
10837POPC   C1A66879  38.502  14.372   6.455
10837POPC   D2A66880  38.490  14.437   6.755
10837POPC   C3A66881  38.411  14.426   7.055
10837POPC   C4A66882  38.437  14.388   7.355
10837POPC   C1B66883  38.251  14.419   6.455
10837POPC   C2B66884  38.193  14.479   6.755
10837POPC   C3B66885  38.249  14.497   7.055
10837POPC   C4B66886  38.190  14.497   7.355
10838POPC   NC366887  41.569  30.734   5.555
10838POPC   PO466888  41.516  30.678   5.855
10838POPC   GL166889  41.535  30.688   6.155
10838POPC   GL266890  41.630  30.863   6.155
10838POPC   C1A66891  41.553  30.718   6.455
10838POPC   D2A66892  41.583  30.682   6.755
10838POPC   C3A66893  41.571  30.723   7.055
10838POPC   C4A66894  41.570  30.720   7.355
10838POPC   C1B66895  41.564  30.959   6.455
10838POPC   C2B66896  41.577  30.910   6.755
10838POPC   C3B66897  41.561  30.989   7.055
10838POPC   C4B66898  41.582  30.932   7.355
10839POPC   NC366899  19.809   1.222   5.555
10839POPC   PO466900  19.880   1.237   5.855
10839POPC   GL166901  19.801   1.250   6.155
10839POPC   GL266902  19.695   1.203   6.155
10839POPC   C1A66903  19.826   1.257   6.455
10839POPC   D2A66904  19.836   1.212   6.755
10839POPC   C3A66905  19.822   1.231   7.055
10839POPC   C4A66906  19.818   1.217   7.355
10839POPC   C1B66907  19.610   1.241   6.455
10839POPC   C2B66908  19.605   1.200   6.755
10839POPC   C3B66909  19.557   1.260   7.055
10839POPC   C4B66910  19.573   1.248   7.355
10840POPC   NC366911  40.790  12.027   5.555
10840POPC   PO466912  40.772  12.081   5.855
10840POPC   GL166913  40.791  12.059   6.155
10840POPC   GL266914  40.773  11.913   6.155
10840POPC   C1A66915  40.794  12.034   6.455
10840POPC   D2A66916  40.801  12.041   6.755
10840POPC   C3A66917  40.769  12.072   7.055
10840POPC   C4A66918  40.773  12.047   7.355
10840POPC   C1B66919  40.818  11.786   6.455
10840POPC   C2B66920  40.830  11.822   6.755
10840POPC   C3B66921  40.774  11.790   7.055
10840POPC   C4B66922  40.798  11.808   7.355
10841POPC   NC366923   5.085  33.762   5.555
10841POPC   PO466924   5.107  33.811   5.855
10841POPC   GL166925   5.092  33.790   6.155
10841POPC   GL266926   5.064  33.890   6.155
10841POPC   C1A66927   5.083  33.841   6.455
10841POPC   D2A66928   5.085  33.790   6.755
10841POPC   C3A66929   5.142  33.782   7.055
10841POPC   C4A66930   5.077  33.828   7.355
10841POPC   C1B66931   5.071  34.017   6.455
10841POPC   C2B66932   5.083  34.008   6.755
10841POPC   C3B66933   5.037  34.051   7.055
10841POPC   C4B66934   5.033  34.065   7.355
10842POPC   NC366935  27.625  14.389   5.555
10842POPC   PO466936  27.641  14.415   5.855
10842POPC   GL166937  27.618  14.419   6.155
10842POPC   GL266938  27.497  14.429   6.155
10842POPC   C1A66939  27.622  14.365   6.455
10842POPC   D2A66940  27.555  14.436   6.755
10842POPC   C3A66941  27.556  14.376   7.055
10842POPC   C4A66942  27.617  14.358   7.355
10842POPC   C1B66943  27.370  14.510   6.455
10842POPC   C2B66944  27.313  14.463   6.755
10842POPC   C3B66945  27.327  14.436   7.055
10842POPC   C4B66946  27.328  14.439   7.355
10843POPC   NC366947  34.535  29.935   5.555
10843POPC   PO466948  34.604  29.938   5.855
10843POPC   GL166949  34.580  29.926   6.155
10843POPC   GL266950  34.483  30.024   6.155
10843POPC   C1A66951  34.559  29.936   6.455
10843POPC   D2A66952  34.611  29.898   6.755
10843POPC   C3A66953  34.588  29.907   7.055
10843POPC   C4A66954  34.567  29.966   7.355
10843POPC   C1B66955  34.503  30.181   6.455
10843POPC   C2B66956  34.427  30.173   6.755
10843POPC   C3B66957  34.424  30.133   7.055
10843POPC   C4B66958  34.496  30.173   7.355
10844POPC   NC366959   4.361  16.725   5.555
10844POPC   PO466960   4.290  16.778   5.855
10844POPC   GL166961   4.364  16.774   6.155
10844POPC   GL266962   4.415  16.643   6.155
10844POPC   C1A66963   4.340  16.703   6.455
10844POPC   D2A66964   4.350  16.712   6.755
10844POPC   C3A66965   4.325  16.762   7.055
10844POPC   C4A66966   4.343  16.733   7.355
10844POPC   C1B66967   4.522  16.594   6.455
10844POPC   C2B66968   4.473  16.577   6.755
10844POPC   C3B66969   4.508  16.619   7.055
10844POPC   C4B66970   4.562  16.637   7.355
10845POPC   NC366971  36.934  16.777   5.555
10845POPC   PO466972  36.908  16.743   5.855
10845POPC   GL166973  36.927  16.777   6.155
10845POPC   GL266974  36.929  16.895   6.155
10845POPC   C1A66975  36.896  16.780   6.455
10845POPC   D2A66976  36.928  16.731   6.755
10845POPC   C3A66977  36.865  16.766   7.055
10845POPC   C4A66978  36.914  16.747   7.355
10845POPC   C1B66979  36.874  17.001   6.455
10845POPC   C2B66980  36.884  16.995   6.755
10845POPC   C3B66981  36.827  17.018   7.055
10845POPC   C4B66982  36.890  16.936   7.355
10846POPC   NC366983   2.747  22.146   5.555
10846POPC   PO466984   2.794  22.179   5.855
10846POPC   GL166985   2.759  22.132   6.155
10846POPC   GL266986   2.747  22.009   6.155
10846POPC   C1A66987   2.795  22.139   6.455
10846POPC   D2A66988   2.766  22.173   6.755
10846POPC   C3A66989   2.773  22.169   7.055
10846POPC   C4A66990   2.797  22.195   7.355
10846POPC   C1B66991   2.744  21.897   6.455
10846POPC   C2B66992   2.732  21.921   6.755
10846POPC   C3B66993   2.721  21.915   7.055
10846POPC   C4B66994   2.745  21.955   7.355
10847POPC   NC366995  12.029  14.380   5.555
10847POPC   PO466996  12.119  14.400   5.855
10847POPC   GL166997  12.031  14.448   6.155
10847POPC   GL266998  12.250  14.392   6.155
10847POPC   C1A66999  12.050  14.406   6.455
10847POPC   D2A67000  12.097  14.405   6.755
10847POPC   C3A67001  12.072  14.377   7.055
10847POPC   C4A67002  12.069  14.417   7.355
10847POPC   C1B67003  12.291  14.429   6.455
10847POPC   C2B67004  12.373  14.432   6.755
10847POPC   C3B67005  12.330  14.356   7.055
10847POPC   C4B67006  12.300  14.447   7.355
10848POPC   NC367007  38.417  40.830   5.555
10848POPC   PO467008  38.453  40.787   5.855
10848POPC   GL167009  38.448  40.793   6.155
10848POPC   GL267010  38.370  40.915   6.155
10848POPC   C1A67011  38.450  40.736   6.455
10848POPC   D2A67012  38.461  40.742   6.755
10848POPC   C3A67013  38.408  40.757   7.055
10848POPC   C4A67014  38.448  40.790   7.355
10848POPC   C1B67015  38.324  40.948   6.455
10848POPC   C2B67016  38.357  40.949   6.755
10848POPC   C3B67017  38.287  40.981   7.055
10848POPC   C4B67018  38.318  40.970   7.355
10849POPC   NC367019  44.688  41.574   5.555
10849POPC   PO467020  44.664  41.535   5.855
10849POPC   GL167021  44.627  41.591   6.155
10849POPC   GL267022  44.515  41.664   6.155
10849POPC   C1A67023  44.666  41.562   6.455
10849POPC   D2A67024  44.652  41.608   6.755
10849POPC   C3A67025  44.632  41.541   7.055
10849POPC   C4A67026  44.708  41.514   7.355
10849POPC   C1B67027  44.466  41.674   6.455
10849POPC   C2B67028  44.449  41.704   6.755
10849POPC   C3B67029  44.494  41.658   7.055
10849POPC   C4B67030  44.419  41.746   7.355
10850POPC   NC367031  27.593  39.256   5.555
10850POPC   PO467032  27.581  39.228   5.855
10850POPC   GL167033  27.623  39.242   6.155
10850POPC   GL267034  27.430  39.194   6.155
10850POPC   C1A67035  27.617  39.243   6.455
10850POPC   D2A67036  27.572  39.265   6.755
10850POPC   C3A67037  27.582  39.246   7.055
10850POPC   C4A67038  27.556  39.275   7.355
10850POPC   C1B67039  27.316  39.205   6.455
10850POPC   C2B67040  27.352  39.159   6.755
10850POPC   C3B67041  27.320  39.218   7.055
10850POPC   C4B67042  27.317  39.130   7.355
10851POPC   NC367043   4.309  33.803   5.555
10851POPC   PO467044   4.305  33.840   5.855
10851POPC   GL167045   4.343  33.844   6.155
10851POPC   GL267046   4.379  33.668   6.155
10851POPC   C1A67047   4.342  33.820   6.455
10851POPC   D2A67048   4.289  33.801   6.755
10851POPC   C3A67049   4.281  33.777   7.055
10851POPC   C4A67050   4.311  33.799   7.355
10851POPC   C1B67051   4.532  33.580   6.455
10851POPC   C2B67052   4.476  33.598   6.755
10851POPC   C3B67053   4.503  33.655   7.055
10851POPC   C4B67054   4.534  33.662   7.355
10852POPC   NC367055  19.044  33.056   5.555
10852POPC   PO467056  19.054  33.012   5.855
10852POPC   GL167057  19.019  33.051   6.155
10852POPC   GL267058  19.021  32.878   6.155
10852POPC   C1A67059  19.087  33.007   6.455
10852POPC   D2A67060  19.039  32.996   6.755
10852POPC   C3A67061  19.094  33.021   7.055
10852POPC   C4A67062  19.065  33.006   7.355
10852POPC   C1B67063  19.124  32.744   6.455
10852POPC   C2B67064  19.067  32.813   6.755
10852POPC   C3B67065  19.059  32.733   7.055
10852POPC   C4B67066  19.126  32.757   7.355
10853POPC   NC367067  25.294  32.297   5.555
10853POPC   PO467068  25.229  32.296   5.855
10853POPC   GL167069  25.300  32.292   6.155
10853POPC   GL267070  25.198  32.145   6.155
10853POPC   C1A67071  25.250  32.240   6.455
10853POPC   D2A67072  25.222  32.210   6.755
10853POPC   C3A67073  25.276  32.219   7.055
10853POPC   C4A67074  25.246  32.285   7.355
10853POPC   C1B67075  25.030  32.136   6.455
10853POPC   C2B67076  25.015  32.112   6.755
10853POPC   C3B67077  25.077  32.108   7.055
10853POPC   C4B67078  25.065  32.120   7.355
10854POPC   NC367079  33.847   8.162   5.555
10854POPC   PO467080  33.753   8.217   5.855
10854POPC   GL167081  33.810   8.157   6.155
10854POPC   GL267082  33.746   8.036   6.155
10854POPC   C1A67083  33.781   8.232   6.455
10854POPC   D2A67084  33.828   8.240   6.755
10854POPC   C3A67085  33.773   8.180   7.055
10854POPC   C4A67086  33.813   8.225   7.355
10854POPC   C1B67087  33.746   8.003   6.455
10854POPC   C2B67088  33.705   7.945   6.755
10854POPC   C3B67089  33.730   7.927   7.055
10854POPC   C4B67090  33.754   7.925   7.355
10855POPC   NC367091   8.943  38.480   5.555
10855POPC   PO467092   9.001  38.483   5.855
10855POPC   GL167093   8.940  38.430   6.155
10855POPC   GL267094   8.952  38.290   6.155
10855POPC   C1A67095   8.955  38.474   6.455
10855POPC   D2A67096   9.015  38.444   6.755
10855POPC   C3A67097   8.955  38.469   7.055
10855POPC   C4A67098   8.949  38.477   7.355
10855POPC   C1B67099   8.973  38.233   6.455
10855POPC   C2B67100   8.986  38.193   6.755
10855POPC   C3B67101   9.017  38.174   7.055
10855POPC   C4B67102   9.051  38.255   7.355
10856POPC   NC367103   8.968  36.169   5.555
10856POPC   PO467104   8.974  36.135   5.855
10856POPC   GL167105   9.014  36.098   6.155
10856POPC   GL267106   8.817  36.168   6.155
10856POPC   C1A67107   8.971  36.115   6.455
10856POPC   D2A67108   8.996  36.116   6.755
10856POPC   C3A67109   8.950  36.153   7.055
10856POPC   C4A67110   8.925  36.127   7.355
10856POPC   C1B67111   8.686  36.180   6.455
10856POPC   C2B67112   8.728  36.127   6.755
10856POPC   C3B67113   8.768  36.134   7.055
10856POPC   C4B67114   8.726  36.123   7.355
10857POPC   NC367115  31.423  15.210   5.555
10857POPC   PO467116  31.519  15.140   5.855
10857POPC   GL167117  31.431  15.139   6.155
10857POPC   GL267118  31.397  15.240   6.155
10857POPC   C1A67119  31.470  15.192   6.455
10857POPC   D2A67120  31.473  15.164   6.755
10857POPC   C3A67121  31.424  15.185   7.055
10857POPC   C4A67122  31.464  15.133   7.355
10857POPC   C1B67123  31.261  15.291   6.455
10857POPC   C2B67124  31.245  15.265   6.755
10857POPC   C3B67125  31.223  15.245   7.055
10857POPC   C4B67126  31.266  15.317   7.355
10858POPC   NC367127  35.346  12.840   5.555
10858POPC   PO467128  35.375  12.869   5.855
10858POPC   GL167129  35.382  12.889   6.155
10858POPC   GL267130  35.268  12.792   6.155
10858POPC   C1A67131  35.398  12.827   6.455
10858POPC   D2A67132  35.386  12.827   6.755
10858POPC   C3A67133  35.343  12.854   7.055
10858POPC   C4A67134  35.331  12.872   7.355
10858POPC   C1B67135  35.129  12.707   6.455
10858POPC   C2B67136  35.109  12.701   6.755
10858POPC   C3B67137  35.133  12.654   7.055
10858POPC   C4B67138  35.131  12.733   7.355
10859POPC   NC367139  37.703   8.151   5.555
10859POPC   PO467140  37.663   8.223   5.855
10859POPC   GL167141  37.634   8.234   6.155
10859POPC   GL267142  37.577   8.291   6.155
10859POPC   C1A67143  37.646   8.160   6.455
10859POPC   D2A67144  37.667   8.150   6.755
10859POPC   C3A67145  37.636   8.189   7.055
10859POPC   C4A67146  37.699   8.211   7.355
10859POPC   C1B67147  37.558   8.392   6.455
10859POPC   C2B67148  37.559   8.347   6.755
10859POPC   C3B67149  37.469   8.431   7.055
10859POPC   C4B67150  37.559   8.425   7.355
10860POPC   NC367151  21.372  12.882   5.555
10860POPC   PO467152  21.428  12.882   5.855
10860POPC   GL167153  21.399  12.893   6.155
10860POPC   GL267154  21.300  12.920   6.155
10860POPC   C1A67155  21.389  12.811   6.455
10860POPC   D2A67156  21.436  12.849   6.755
10860POPC   C3A67157  21.366  12.822   7.055
10860POPC   C4A67158  21.340  12.880   7.355
10860POPC   C1B67159  21.146  12.969   6.455
10860POPC   C2B67160  21.133  13.018   6.755
10860POPC   C3B67161  21.229  12.965   7.055
10860POPC   C4B67162  21.196  12.997   7.355
10861POPC   NC367163  40.004  38.466   5.555
10861POPC   PO467164  39.992  38.487   5.855
10861POPC   GL167165  40.046  38.477   6.155
10861POPC   GL267166  40.144  38.377   6.155
10861POPC   C1A67167  40.051  38.434   6.455
10861POPC   D2A67168  40.042  38.489   6.755
10861POPC   C3A67169  40.054  38.454   7.055
10861POPC   C4A67170  40.032  38.469   7.355
10861POPC   C1B67171  40.185  38.321   6.455
10861POPC   C2B67172  40.207  38.350   6.755
10861POPC   C3B67173  40.227  38.376   7.055
10861POPC   C4B67174  40.230  38.298   7.355
10862POPC   NC367175   9.761  11.337   5.555
10862POPC   PO467176   9.753  11.320   5.855
10862POPC   GL167177   9.784  11.270   6.155
10862POPC   GL267178   9.668  11.271   6.155
10862POPC   C1A67179   9.732  11.328   6.455
10862POPC   D2A67180   9.713  11.347   6.755
10862POPC   C3A67181   9.700  11.263   7.055
10862POPC   C4A67182   9.755  11.331   7.355
10862POPC   C1B67183   9.506  11.249   6.455
10862POPC   C2B67184   9.539  11.236   6.755
10862POPC   C3B67185   9.496  11.276   7.055
10862POPC   C4B67186   9.539  11.205   7.355
10863POPC   NC367187  32.296  38.500   5.555
10863POPC   PO467188  32.241  38.490   5.855
10863POPC   GL167189  32.279  38.447   6.155
10863POPC   GL267190  32.265  38.287   6.155
10863POPC   C1A67191  32.209  38.462   6.455
10863POPC   D2A67192  32.286  38.430   6.755
10863POPC   C3A67193  32.215  38.484   7.055
10863POPC   C4A67194  32.209  38.497   7.355
10863POPC   C1B67195  32.258  38.236   6.455
10863POPC   C2B67196  32.310  38.184   6.755
10863POPC   C3B67197  32.273  38.243   7.055
10863POPC   C4B67198  32.261  38.184   7.355
10864POPC   NC367199   5.051  40.047   5.555
10864POPC   PO467200   5.077  39.994   5.855
10864POPC   GL167201   5.084  39.984   6.155
10864POPC   GL267202   5.149  39.868   6.155
10864POPC   C1A67203   5.139  40.030   6.455
10864POPC   D2A67204   5.049  39.982   6.755
10864POPC   C3A67205   5.091  39.961   7.055
10864POPC   C4A67206   5.132  40.038   7.355
10864POPC   C1B67207   5.276  39.844   6.455
10864POPC   C2B67208   5.265  39.815   6.755
10864POPC   C3B67209   5.297  39.849   7.055
10864POPC   C4B67210   5.278  39.774   7.355
10865POPC   NC367211  18.277  13.600   5.555
10865POPC   PO467212  18.297  13.595   5.855
10865POPC   GL167213  18.286  13.672   6.155
10865POPC   GL267214  18.324  13.512   6.155
10865POPC   C1A67215  18.315  13.615   6.455
10865POPC   D2A67216  18.322  13.656   6.755
10865POPC   C3A67217  18.267  13.643   7.055
10865POPC   C4A67218  18.274  13.612   7.355
10865POPC   C1B67219  18.413  13.429   6.455
10865POPC   C2B67220  18.419  13.378   6.755
10865POPC   C3B67221  18.374  13.354   7.055
10865POPC   C4B67222  18.396  13.450   7.355
10866POPC   NC367223  11.300   2.779   5.555
10866POPC   PO467224  11.308   2.717   5.855
10866POPC   GL167225  11.251   2.721   6.155
10866POPC   GL267226  11.253   2.844   6.155
10866POPC   C1A67227  11.284   2.814   6.455
10866POPC   D2A67228  11.344   2.771   6.755
10866POPC   C3A67229  11.257   2.729   7.055
10866POPC   C4A67230  11.318   2.807   7.355
10866POPC   C1B67231  11.184   2.910   6.455
10866POPC   C2B67232  11.141   2.968   6.755
10866POPC   C3B67233  11.090   2.929   7.055
10866POPC   C4B67234  11.147   3.001   7.355
10867POPC   NC367235   6.662  18.259   5.555
10867POPC   PO467236   6.650  18.280   5.855
10867POPC   GL167237   6.597  18.245   6.155
10867POPC   GL267238   6.574  18.396   6.155
10867POPC   C1A67239   6.637  18.293   6.455
10867POPC   D2A67240   6.675  18.251   6.755
10867POPC   C3A67241   6.655  18.276   7.055
10867POPC   C4A67242   6.693  18.296   7.355
10867POPC   C1B67243   6.481  18.471   6.455
10867POPC   C2B67244   6.465  18.528   6.755
10867POPC   C3B67245   6.537  18.460   7.055
10867POPC   C4B67246   6.479  18.510   7.355
10868POPC   NC367247  28.374  42.324   5.555
10868POPC   PO467248  28.352  42.288   5.855
10868POPC   GL167249  28.380  42.364   6.155
10868POPC   GL267250  28.377  42.501   6.155
10868POPC   C1A67251  28.384  42.345   6.455
10868POPC   D2A67252  28.387  42.289   6.755
10868POPC   C3A67253  28.323  42.333   7.055
10868POPC   C4A67254  28.406  42.312   7.355
10868POPC   C1B67255  28.360  42.567   6.455
10868POPC   C2B67256  28.327  42.575   6.755
10868POPC   C3B67257  28.303  42.535   7.055
10868POPC   C4B67258  28.364  42.611   7.355
10869POPC   NC367259   9.701  34.617   5.555
10869POPC   PO467260   9.743  34.606   5.855
10869POPC   GL167261   9.704  34.545   6.155
10869POPC   GL267262   9.854  34.565   6.155
10869POPC   C1A67263   9.733  34.620   6.455
10869POPC   D2A67264   9.730  34.583   6.755
10869POPC   C3A67265   9.788  34.581   7.055
10869POPC   C4A67266   9.727  34.586   7.355
10869POPC   C1B67267  10.042  34.567   6.455
10869POPC   C2B67268   9.965  34.548   6.755
10869POPC   C3B67269  10.029  34.600   7.055
10869POPC   C4B67270   9.978  34.515   7.355
10870POPC   NC367271  32.283  35.320   5.555
10870POPC   PO467272  32.207  35.312   5.855
10870POPC   GL167273  32.201  35.338   6.155
10870POPC   GL267274  32.357  35.304   6.155
10870POPC   C1A67275  32.236  35.397   6.455
10870POPC   D2A67276  32.296  35.312   6.755
10870POPC   C3A67277  32.251  35.327   7.055
10870POPC   C4A67278  32.238  35.390   7.355
10870POPC   C1B67279  32.496  35.224   6.455
10870POPC   C2B67280  32.474  35.228   6.755
10870POPC   C3B67281  32.457  35.212   7.055
10870POPC   C4B67282  32.475  35.179   7.355
10871POPC   NC367283   7.466  17.533   5.555
10871POPC   PO467284   7.451  17.511   5.855
10871POPC   GL167285   7.377  17.472   6.155
10871POPC   GL267286   7.264  17.582   6.155
10871POPC   C1A67287   7.375  17.540   6.455
10871POPC   D2A67288   7.395  17.491   6.755
10871POPC   C3A67289   7.392  17.507   7.055
10871POPC   C4A67290   7.389  17.489   7.355
10871POPC   C1B67291   7.213  17.612   6.455
10871POPC   C2B67292   7.159  17.612   6.755
10871POPC   C3B67293   7.232  17.598   7.055
10871POPC   C4B67294   7.206  17.599   7.355
10872POPC   NC367295   8.207   5.069   5.555
10872POPC   PO467296   8.185   5.129   5.855
10872POPC   GL167297   8.185   5.059   6.155
10872POPC   GL267298   8.292   5.154   6.155
10872POPC   C1A67299   8.236   5.047   6.455
10872POPC   D2A67300   8.229   5.076   6.755
10872POPC   C3A67301   8.194   5.094   7.055
10872POPC   C4A67302   8.207   5.131   7.355
10872POPC   C1B67303   8.402   5.305   6.455
10872POPC   C2B67304   8.399   5.248   6.755
10872POPC   C3B67305   8.360   5.248   7.055
10872POPC   C4B67306   8.358   5.314   7.355
10873POPC   NC367307  29.889  43.868   5.555
10873POPC   PO467308  29.893  43.851   5.855
10873POPC   GL167309  29.965  43.853   6.155
10873POPC   GL267310  30.010  44.020   6.155
10873POPC   C1A67311  29.967  43.843   6.455
10873POPC   D2A67312  29.962  43.837   6.755
10873POPC   C3A67313  29.904  43.926   7.055
10873POPC   C4A67314  29.915  43.891   7.355
10873POPC   C1B67315  29.977  44.144   6.455
10873POPC   C2B67316  30.051  44.131   6.755
10873POPC   C3B67317  30.029  44.119   7.055
10873POPC   C4B67318  30.015  44.135   7.355
10874POPC   NC367319  34.598   7.456   5.555
10874POPC   PO467320  34.596   7.463   5.855
10874POPC   GL167321  34.584   7.461   6.155
10874POPC   GL267322  34.656   7.487   6.155
10874POPC   C1A67323  34.571   7.408   6.455
10874POPC   D2A67324  34.584   7.458   6.755
10874POPC   C3A67325  34.548   7.416   7.055
10874POPC   C4A67326  34.571   7.429   7.355
10874POPC   C1B67327  34.761   7.579   6.455
10874POPC   C2B67328  34.709   7.606   6.755
10874POPC   C3B67329  34.782   7.630   7.055
10874POPC   C4B67330  34.712   7.656   7.355
10875POPC   NC367331  19.050  32.277   5.555
10875POPC   PO467332  19.043  32.202   5.855
10875POPC   GL167333  19.063  32.268   6.155
10875POPC   GL267334  18.972  32.105   6.155
10875POPC   C1A67335  19.098  32.240   6.455
10875POPC   D2A67336  19.025  32.262   6.755
10875POPC   C3A67337  19.054  32.200   7.055
10875POPC   C4A67338  19.025  32.221   7.355
10875POPC   C1B67339  18.991  32.033   6.455
10875POPC   C2B67340  18.961  32.023   6.755
10875POPC   C3B67341  18.918  32.032   7.055
10875POPC   C4B67342  18.922  32.029   7.355
10876POPC   NC367343  25.300  43.144   5.555
10876POPC   PO467344  25.314  43.151   5.855
10876POPC   GL167345  25.304  43.111   6.155
10876POPC   GL267346  25.172  43.134   6.155
10876POPC   C1A67347  25.289  43.073   6.455
10876POPC   D2A67348  25.238  43.110   6.755
10876POPC   C3A67349  25.254  43.159   7.055
10876POPC   C4A67350  25.224  43.125   7.355
10876POPC   C1B67351  25.054  43.143   6.455
10876POPC   C2B67352  24.988  43.195   6.755
10876POPC   C3B67353  25.027  43.112   7.055
10876POPC   C4B67354  25.013  43.191   7.355
10877POPC   NC367355   5.080  25.256   5.555
10877POPC   PO467356   5.134  25.293   5.855
10877POPC   GL167357   5.096  25.265   6.155
10877POPC   GL267358   5.107  25.135   6.155
10877POPC   C1A67359   5.141  25.304   6.455
10877POPC   D2A67360   5.121  25.270   6.755
10877POPC   C3A67361   5.102  25.300   7.055
10877POPC   C4A67362   5.132  25.286   7.355
10877POPC   C1B67363   5.177  25.028   6.455
10877POPC   C2B67364   5.156  25.007   6.755
10877POPC   C3B67365   5.133  25.066   7.055
10877POPC   C4B67366   5.170  25.027   7.355
10878POPC   NC367367  29.095  30.708   5.555
10878POPC   PO467368  29.120  30.705   5.855
10878POPC   GL167369  29.144  30.659   6.155
10878POPC   GL267370  29.082  30.567   6.155
10878POPC   C1A67371  29.169  30.695   6.455
10878POPC   D2A67372  29.105  30.677   6.755
10878POPC   C3A67373  29.160  30.694   7.055
10878POPC   C4A67374  29.137  30.661   7.355
10878POPC   C1B67375  28.992  30.543   6.455
10878POPC   C2B67376  28.953  30.572   6.755
10878POPC   C3B67377  28.908  30.538   7.055
10878POPC   C4B67378  28.989  30.486   7.355
10879POPC   NC367379   1.964  15.162   5.555
10879POPC   PO467380   2.027  15.163   5.855
10879POPC   GL167381   1.952  15.197   6.155
10879POPC   GL267382   1.938  15.301   6.155
10879POPC   C1A67383   1.981  15.206   6.455
10879POPC   D2A67384   2.007  15.169   6.755
10879POPC   C3A67385   2.015  15.153   7.055
10879POPC   C4A67386   1.941  15.195   7.355
10879POPC   C1B67387   1.758  15.355   6.455
10879POPC   C2B67388   1.824  15.302   6.755
10879POPC   C3B67389   1.822  15.366   7.055
10879POPC   C4B67390   1.754  15.356   7.355
10880POPC   NC367391   1.255  20.590   5.555
10880POPC   PO467392   1.195  20.568   5.855
10880POPC   GL167393   1.190  20.636   6.155
10880POPC   GL267394   1.226  20.455   6.155
10880POPC   C1A67395   1.210  20.616   6.455
10880POPC   D2A67396   1.234  20.608   6.755
10880POPC   C3A67397   1.217  20.634   7.055
10880POPC   C4A67398   1.258  20.629   7.355
10880POPC   C1B67399   1.152  20.396   6.455
10880POPC   C2B67400   1.220  20.337   6.755
10880POPC   C3B67401   1.164  20.314   7.055
10880POPC   C4B67402   1.177  20.333   7.355
10881POPC   NC367403  41.523   6.684   5.555
10881POPC   PO467404  41.556   6.678   5.855
10881POPC   GL167405  41.606   6.694   6.155
10881POPC   GL267406  41.496   6.522   6.155
10881POPC   C1A67407  41.555   6.633   6.455
10881POPC   D2A67408  41.514   6.692   6.755
10881POPC   C3A67409  41.567   6.680   7.055
10881POPC   C4A67410  41.517   6.638   7.355
10881POPC   C1B67411  41.422   6.404   6.455
10881POPC   C2B67412  41.412   6.454   6.755
10881POPC   C3B67413  41.487   6.449   7.055
10881POPC   C4B67414  41.405   6.460   7.355
10882POPC   NC367415  13.658  16.768   5.555
10882POPC   PO467416  13.643  16.712   5.855
10882POPC   GL167417  13.656  16.715   6.155
10882POPC   GL267418  13.796  16.759   6.155
10882POPC   C1A67419  13.596  16.704   6.455
10882POPC   D2A67420  13.615  16.739   6.755
10882POPC   C3A67421  13.614  16.729   7.055
10882POPC   C4A67422  13.671  16.735   7.355
10882POPC   C1B67423  13.916  16.758   6.455
10882POPC   C2B67424  13.878  16.745   6.755
10882POPC   C3B67425  13.824  16.742   7.055
10882POPC   C4B67426  13.910  16.814   7.355
10883POPC   NC367427   6.625  43.879   5.555
10883POPC   PO467428   6.649  43.904   5.855
10883POPC   GL167429   6.617  43.862   6.155
10883POPC   GL267430   6.588  44.016   6.155
10883POPC   C1A67431   6.659  43.891   6.455
10883POPC   D2A67432   6.652  43.898   6.755
10883POPC   C3A67433   6.603  43.856   7.055
10883POPC   C4A67434   6.598  43.920   7.355
10883POPC   C1B67435   6.613  44.118   6.455
10883POPC   C2B67436   6.556  44.091   6.755
10883POPC   C3B67437   6.567  44.099   7.055
10883POPC   C4B67438   6.584  44.139   7.355
10884POPC   NC367439  39.997   5.909   5.555
10884POPC   PO467440  39.972   5.880   5.855
10884POPC   GL167441  40.024   5.907   6.155
10884POPC   GL267442  39.947   5.817   6.155
10884POPC   C1A67443  40.008   5.841   6.455
10884POPC   D2A67444  40.032   5.862   6.755
10884POPC   C3A67445  39.984   5.825   7.055
10884POPC   C4A67446  40.009   5.872   7.355
10884POPC   C1B67447  39.787   5.680   6.455
10884POPC   C2B67448  39.867   5.673   6.755
10884POPC   C3B67449  39.831   5.745   7.055
10884POPC   C4B67450  39.846   5.666   7.355
10885POPC   NC367451   3.519  11.324   5.555
10885POPC   PO467452   3.538  11.339   5.855
10885POPC   GL167453   3.502  11.269   6.155
10885POPC   GL267454   3.652  11.268   6.155
10885POPC   C1A67455   3.548  11.327   6.455
10885POPC   D2A67456   3.526  11.347   6.755
10885POPC   C3A67457   3.540  11.297   7.055
10885POPC   C4A67458   3.517  11.321   7.355
10885POPC   C1B67459   3.779  11.341   6.455
10885POPC   C2B67460   3.745  11.351   6.755
10885POPC   C3B67461   3.779  11.285   7.055
10885POPC   C4B67462   3.781  11.305   7.355
10886POPC   NC367463  42.327  34.622   5.555
10886POPC   PO467464  42.312  34.579   5.855
10886POPC   GL167465  42.325  34.540   6.155
10886POPC   GL267466  42.434  34.701   6.155
10886POPC   C1A67467  42.353  34.574   6.455
10886POPC   D2A67468  42.325  34.602   6.755
10886POPC   C3A67469  42.293  34.607   7.055
10886POPC   C4A67470  42.329  34.580   7.355
10886POPC   C1B67471  42.522  34.785   6.455
10886POPC   C2B67472  42.569  34.714   6.755
10886POPC   C3B67473  42.543  34.789   7.055
10886POPC   C4B67474  42.521  34.719   7.355
10887POPC   NC367475  27.556  43.935   5.555
10887POPC   PO467476  27.580  43.899   5.855
10887POPC   GL167477  27.623  43.857   6.155
10887POPC   GL267478  27.636  43.718   6.155
10887POPC   C1A67479  27.582  43.866   6.455
10887POPC   D2A67480  27.560  43.934   6.755
10887POPC   C3A67481  27.564  43.915   7.055
10887POPC   C4A67482  27.639  43.894   7.355
10887POPC   C1B67483  27.614  43.598   6.455
10887POPC   C2B67484  27.647  43.606   6.755
10887POPC   C3B67485  27.643  43.653   7.055
10887POPC   C4B67486  27.634  43.672   7.355
10888POPC   NC367487  17.515  30.708   5.555
10888POPC   PO467488  17.556  30.714   5.855
10888POPC   GL167489  17.488  30.738   6.155
10888POPC   GL267490  17.606  30.721   6.155
10888POPC   C1A67491  17.536  30.697   6.455
10888POPC   D2A67492  17.464  30.675   6.755
10888POPC   C3A67493  17.458  30.649   7.055
10888POPC   C4A67494  17.515  30.729   7.355
10888POPC   C1B67495  17.763  30.694   6.455
10888POPC   C2B67496  17.797  30.681   6.755
10888POPC   C3B67497  17.748  30.684   7.055
10888POPC   C4B67498  17.712  30.612   7.355
10889POPC   NC367499  27.595  26.067   5.555
10889POPC   PO467500  27.618  26.066   5.855
10889POPC   GL167501  27.630  26.064   6.155
10889POPC   GL267502  27.576  25.953   6.155
10889POPC   C1A67503  27.592  26.050   6.455
10889POPC   D2A67504  27.548  26.016   6.755
10889POPC   C3A67505  27.580  26.072   7.055
10889POPC   C4A67506  27.607  26.053   7.355
10889POPC   C1B67507  27.470  25.823   6.455
10889POPC   C2B67508  27.514  25.794   6.755
10889POPC   C3B67509  27.528  25.827   7.055
10889POPC   C4B67510  27.489  25.774   7.355
10890POPC   NC367511  11.282   3.515   5.555
10890POPC   PO467512  11.319   3.504   5.855
10890POPC   GL167513  11.324   3.504   6.155
10890POPC   GL267514  11.260   3.667   6.155
10890POPC   C1A67515  11.299   3.507   6.455
10890POPC   D2A67516  11.267   3.506   6.755
10890POPC   C3A67517  11.309   3.510   7.055
10890POPC   C4A67518  11.320   3.553   7.355
10890POPC   C1B67519  11.083   3.691   6.455
10890POPC   C2B67520  11.148   3.756   6.755
10890POPC   C3B67521  11.101   3.765   7.055
10890POPC   C4B67522  11.138   3.703   7.355
10891POPC   NC367523  32.246  39.967   5.555
10891POPC   PO467524  32.288  39.985   5.855
10891POPC   GL167525  32.288  40.041   6.155
10891POPC   GL267526  32.256  39.920   6.155
10891POPC   C1A67527  32.246  40.010   6.455
10891POPC   D2A67528  32.275  39.959   6.755
10891POPC   C3A67529  32.291  39.998   7.055
10891POPC   C4A67530  32.278  40.019   7.355
10891POPC   C1B67531  32.366  39.830   6.455
10891POPC   C2B67532  32.401  39.767   6.755
10891POPC   C3B67533  32.372  39.829   7.055
10891POPC   C4B67534  32.326  39.802   7.355
10892POPC   NC367535   7.445  33.028   5.555
10892POPC   PO467536   7.424  33.037   5.855
10892POPC   GL167537   7.444  33.070   6.155
10892POPC   GL267538   7.400  32.893   6.155
10892POPC   C1A67539   7.433  33.064   6.455
10892POPC   D2A67540   7.397  32.974   6.755
10892POPC   C3A67541   7.408  33.026   7.055
10892POPC   C4A67542   7.401  32.984   7.355
10892POPC   C1B67543   7.423  32.807   6.455
10892POPC   C2B67544   7.498  32.745   6.755
10892POPC   C3B67545   7.482  32.747   7.055
10892POPC   C4B67546   7.419  32.728   7.355
10893POPC   NC367547  15.920   9.000   5.555
10893POPC   PO467548  16.004   8.983   5.855
10893POPC   GL167549  16.003   9.006   6.155
10893POPC   GL267550  15.873   8.982   6.155
10893POPC   C1A67551  15.942   8.961   6.455
10893POPC   D2A67552  15.946   8.937   6.755
10893POPC   C3A67553  15.938   8.936   7.055
10893POPC   C4A67554  15.927   8.928   7.355
10893POPC   C1B67555  15.722   8.991   6.455
10893POPC   C2B67556  15.674   9.011   6.755
10893POPC   C3B67557  15.751   9.004   7.055
10893POPC   C4B67558  15.705   9.017   7.355
10894POPC   NC367559  26.817   8.207   5.555
10894POPC   PO467560  26.825   8.236   5.855
10894POPC   GL167561  26.768   8.186   6.155
10894POPC   GL267562  26.923   8.335   6.155
10894POPC   C1A67563  26.777   8.226   6.455
10894POPC   D2A67564  26.799   8.157   6.755
10894POPC   C3A67565  26.813   8.202   7.055
10894POPC   C4A67566  26.796   8.191   7.355
10894POPC   C1B67567  26.983   8.358   6.455
10894POPC   C2B67568  26.931   8.433   6.755
10894POPC   C3B67569  27.003   8.383   7.055
10894POPC   C4B67570  26.960   8.417   7.355
10895POPC   NC367571  36.130  25.311   5.555
10895POPC   PO467572  36.143  25.229   5.855
10895POPC   GL167573  36.095  25.307   6.155
10895POPC   GL267574  36.027  25.355   6.155
10895POPC   C1A67575  36.171  25.302   6.455
10895POPC   D2A67576  36.093  25.236   6.755
10895POPC   C3A67577  36.112  25.309   7.055
10895POPC   C4A67578  36.121  25.296   7.355
10895POPC   C1B67579  35.926  25.358   6.455
10895POPC   C2B67580  35.917  25.339   6.755
10895POPC   C3B67581  35.915  25.314   7.055
10895POPC   C4B67582  35.862  25.322   7.355
10896POPC   NC367583  12.831  34.549   5.555
10896POPC   PO467584  12.894  34.559   5.855
10896POPC   GL167585  12.805  34.530   6.155
10896POPC   GL267586  12.688  34.576   6.155
10896POPC   C1A67587  12.821  34.560   6.455
10896POPC   D2A67588  12.826  34.622   6.755
10896POPC   C3A67589  12.828  34.554   7.055
10896POPC   C4A67590  12.814  34.587   7.355
10896POPC   C1B67591  12.589  34.542   6.455
10896POPC   C2B67592  12.607  34.499   6.755
10896POPC   C3B67593  12.611  34.493   7.055
10896POPC   C4B67594  12.657  34.512   7.355
10897POPC   NC367595   8.971   1.188   5.555
10897POPC   PO467596   9.013   1.259   5.855
10897POPC   GL167597   9.001   1.239   6.155
10897POPC   GL267598   8.933   1.338   6.155
10897POPC   C1A67599   8.957   1.222   6.455
10897POPC   D2A67600   9.006   1.199   6.755
10897POPC   C3A67601   8.952   1.233   7.055
10897POPC   C4A67602   8.927   1.240   7.355
10897POPC   C1B67603   8.928   1.490   6.455
10897POPC   C2B67604   8.874   1.416   6.755
10897POPC   C3B67605   8.921   1.499   7.055
10897POPC   C4B67606   8.895   1.496   7.355
10898POPC   NC367607  28.390  26.067   5.555
10898POPC   PO467608  28.404  26.074   5.855
10898POPC   GL167609  28.391  26.085   6.155
10898POPC   GL267610  28.262  25.950   6.155
10898POPC   C1A67611  28.324  26.012   6.455
10898POPC   D2A67612  28.328  26.064   6.755
10898POPC   C3A67613  28.361  26.044   7.055
10898POPC   C4A67614  28.373  26.044   7.355
10898POPC   C1B67615  28.175  25.897   6.455
10898POPC   C2B67616  28.186  25.850   6.755
10898POPC   C3B67617  28.193  25.909   7.055
10898POPC   C4B67618  28.198  25.880   7.355
10899POPC   NC367619  33.828  32.263   5.555
10899POPC   PO467620  33.770  32.238   5.855
10899POPC   GL167621  33.834  32.247   6.155
10899POPC   GL267622  33.842  32.380   6.155
10899POPC   C1A67623  33.831  32.273   6.455
10899POPC   D2A67624  33.796  32.244   6.755
10899POPC   C3A67625  33.766  32.275   7.055
10899POPC   C4A67626  33.838  32.224   7.355
10899POPC   C1B67627  33.896  32.438   6.455
10899POPC   C2B67628  33.960  32.450   6.755
10899POPC   C3B67629  33.901  32.435   7.055
10899POPC   C4B67630  33.919  32.473   7.355
10900POPC   NC367631  12.047  36.886   5.555
10900POPC   PO467632  12.114  36.862   5.855
10900POPC   GL167633  12.034  36.858   6.155
10900POPC   GL267634  12.164  36.945   6.155
10900POPC   C1A67635  12.086  36.934   6.455
10900POPC   D2A67636  12.098  36.905   6.755
10900POPC   C3A67637  12.101  36.861   7.055
10900POPC   C4A67638  12.084  36.947   7.355
10900POPC   C1B67639  12.370  36.938   6.455
10900POPC   C2B67640  12.285  36.889   6.755
10900POPC   C3B67641  12.284  36.885   7.055
10900POPC   C4B67642  12.343  36.876   7.355
10901POPC   NC367643  31.496   7.469   5.555
10901POPC   PO467644  31.517   7.379   5.855
10901POPC   GL167645  31.468   7.438   6.155
10901POPC   GL267646  31.611   7.434   6.155
10901POPC   C1A67647  31.473   7.421   6.455
10901POPC   D2A67648  31.446   7.392   6.755
10901POPC   C3A67649  31.498   7.456   7.055
10901POPC   C4A67650  31.475   7.424   7.355
10901POPC   C1B67651  31.760   7.464   6.455
10901POPC   C2B67652  31.759   7.425   6.755
10901POPC   C3B67653  31.725   7.430   7.055
10901POPC   C4B67654  31.740   7.495   7.355
10902POPC   NC367655   6.623  44.634   5.555
10902POPC   PO467656   6.671  44.639   5.855
10902POPC   GL167657   6.665  44.693   6.155
10902POPC   GL267658   6.775  44.744   6.155
10902POPC   C1A67659   6.633  44.677   6.455
10902POPC   D2A67660   6.675  44.702   6.755
10902POPC   C3A67661   6.672  44.668   7.055
10902POPC   C4A67662   6.665  44.691   7.355
10902POPC   C1B67663   6.891  44.728   6.455
10902POPC   C2B67664   6.916  44.745   6.755
10902POPC   C3B67665   6.910  44.735   7.055
10902POPC   C4B67666   6.893  44.767   7.355
10903POPC   NC367667  41.549  24.453   5.555
10903POPC   PO467668  41.532  24.536   5.855
10903POPC   GL167669  41.542  24.531   6.155
10903POPC   GL267670  41.692  24.477   6.155
10903POPC   C1A67671  41.585  24.452   6.455
10903POPC   D2A67672  41.549  24.451   6.755
10903POPC   C3A67673  41.519  24.476   7.055
10903POPC   C4A67674  41.562  24.491   7.355
10903POPC   C1B67675  41.848  24.443   6.455
10903POPC   C2B67676  41.787  24.463   6.755
10903POPC   C3B67677  41.820  24.389   7.055
10903POPC   C4B67678  41.788  24.432   7.355
10904POPC   NC367679  12.105  23.668   5.555
10904POPC   PO467680  12.118  23.674   5.855
10904POPC   GL167681  12.094  23.748   6.155
10904POPC   GL267682  12.129  23.605   6.155
10904POPC   C1A67683  12.034  23.670   6.455
10904POPC   D2A67684  12.086  23.721   6.755
10904POPC   C3A67685  12.110  23.758   7.055
10904POPC   C4A67686  12.099  23.743   7.355
10904POPC   C1B67687  12.052  23.513   6.455
10904POPC   C2B67688  12.107  23.460   6.755
10904POPC   C3B67689  12.146  23.459   7.055
10904POPC   C4B67690  12.136  23.423   7.355
10905POPC   NC367691  26.009  42.315   5.555
10905POPC   PO467692  26.049  42.309   5.855
10905POPC   GL167693  26.086  42.364   6.155
10905POPC   GL267694  25.965  42.195   6.155
10905POPC   C1A67695  26.051  42.287   6.455
10905POPC   D2A67696  26.033  42.313   6.755
10905POPC   C3A67697  26.045  42.365   7.055
10905POPC   C4A67698  26.053  42.383   7.355
10905POPC   C1B67699  25.844  42.158   6.455
10905POPC   C2B67700  25.827  42.188   6.755
10905POPC   C3B67701  25.852  42.198   7.055
10905POPC   C4B67702  25.829  42.190   7.355
10906POPC   NC367703  29.960  30.741   5.555
10906POPC   PO467704  29.942  30.661   5.855
10906POPC   GL167705  29.911  30.713   6.155
10906POPC   GL267706  29.995  30.790   6.155
10906POPC   C1A67707  29.948  30.711   6.455
10906POPC   D2A67708  29.933  30.653   6.755
10906POPC   C3A67709  29.960  30.680   7.055
10906POPC   C4A67710  29.924  30.732   7.355
10906POPC   C1B67711  30.092  30.817   6.455
10906POPC   C2B67712  30.087  30.867   6.755
10906POPC   C3B67713  30.076  30.896   7.055
10906POPC   C4B67714  30.054  30.832   7.355
10907POPC   NC367715  43.067   2.022   5.555
10907POPC   PO467716  43.139   1.982   5.855
10907POPC   GL167717  43.076   1.950   6.155
10907POPC   GL267718  43.213   1.870   6.155
10907POPC   C1A67719  43.088   1.980   6.455
10907POPC   D2A67720  43.110   2.018   6.755
10907POPC   C3A67721  43.123   1.965   7.055
10907POPC   C4A67722  43.069   1.987   7.355
10907POPC   C1B67723  43.266   1.729   6.455
10907POPC   C2B67724  43.267   1.793   6.755
10907POPC   C3B67725  43.265   1.737   7.055
10907POPC   C4B67726  43.199   1.782   7.355
10908POPC   NC367727  15.135   4.271   5.555
10908POPC   PO467728  15.162   4.299   5.855
10908POPC   GL167729  15.169   4.290   6.155
10908POPC   GL267730  15.283   4.340   6.155
10908POPC   C1A67731  15.133   4.320   6.455
10908POPC   D2A67732  15.208   4.283   6.755
10908POPC   C3A67733  15.191   4.284   7.055
10908POPC   C4A67734  15.149   4.305   7.355
10908POPC   C1B67735  15.477   4.310   6.455
10908POPC   C2B67736  15.470   4.308   6.755
10908POPC   C3B67737  15.434   4.328   7.055
10908POPC   C4B67738  15.419   4.277   7.355
10909POPC   NC367739  19.806  39.214   5.555
10909POPC   PO467740  19.824  39.208   5.855
10909POPC   GL167741  19.866  39.211   6.155
10909POPC   GL267742  19.875  39.357   6.155
10909POPC   C1A67743  19.785  39.234   6.455
10909POPC   D2A67744  19.838  39.209   6.755
10909POPC   C3A67745  19.830  39.229   7.055
10909POPC   C4A67746  19.867  39.190   7.355
10909POPC   C1B67747  19.846  39.475   6.455
10909POPC   C2B67748  19.818  39.456   6.755
10909POPC   C3B67749  19.833  39.509   7.055
10909POPC   C4B67750  19.791  39.475   7.355
10910POPC   NC367751  11.275   0.427   5.555
10910POPC   PO467752  11.290   0.449   5.855
10910POPC   GL167753  11.303   0.450   6.155
10910POPC   GL267754  11.452   0.439   6.155
10910POPC   C1A67755  11.321   0.405   6.455
10910POPC   D2A67756  11.254   0.464   6.755
10910POPC   C3A67757  11.303   0.459   7.055
10910POPC   C4A67758  11.251   0.446   7.355
10910POPC   C1B67759  11.512   0.387   6.455
10910POPC   C2B67760  11.532   0.409   6.755
10910POPC   C3B67761  11.504   0.427   7.055
10910POPC   C4B67762  11.587   0.401   7.355
10911POPC   NC367763  17.556  36.899   5.555
10911POPC   PO467764  17.495  36.854   5.855
10911POPC   GL167765  17.517  36.923   6.155
10911POPC   GL267766  17.585  36.789   6.155
10911POPC   C1A67767  17.466  36.862   6.455
10911POPC   D2A67768  17.534  36.932   6.755
10911POPC   C3A67769  17.557  36.913   7.055
10911POPC   C4A67770  17.497  36.932   7.355
10911POPC   C1B67771  17.649  36.743   6.455
10911POPC   C2B67772  17.642  36.764   6.755
10911POPC   C3B67773  17.683  36.733   7.055
10911POPC   C4B67774  17.646  36.768   7.355
10912POPC   NC367775  36.135   8.986   5.555
10912POPC   PO467776  36.141   8.971   5.855
10912POPC   GL167777  36.175   8.965   6.155
10912POPC   GL267778  36.262   9.023   6.155
10912POPC   C1A67779  36.084   9.007   6.455
10912POPC   D2A67780  36.157   8.943   6.755
10912POPC   C3A67781  36.104   8.983   7.055
10912POPC   C4A67782  36.085   8.999   7.355
10912POPC   C1B67783  36.369   8.982   6.455
10912POPC   C2B67784  36.396   8.974   6.755
10912POPC   C3B67785  36.333   9.057   7.055
10912POPC   C4B67786  36.323   9.027   7.355
10913POPC   NC367787  18.325   8.957   5.555
10913POPC   PO467788  18.282   9.020   5.855
10913POPC   GL167789  18.246   8.999   6.155
10913POPC   GL267790  18.449   8.933   6.155
10913POPC   C1A67791  18.278   8.964   6.455
10913POPC   D2A67792  18.245   8.947   6.755
10913POPC   C3A67793  18.322   8.985   7.055
10913POPC   C4A67794  18.283   8.968   7.355
10913POPC   C1B67795  18.547   8.908   6.455
10913POPC   C2B67796  18.513   8.900   6.755
10913POPC   C3B67797  18.482   8.926   7.055
10913POPC   C4B67798  18.571   8.957   7.355
10914POPC   NC367799  22.936  31.498   5.555
10914POPC   PO467800  22.971  31.442   5.855
10914POPC   GL167801  22.933  31.518   6.155
10914POPC   GL267802  22.941  31.360   6.155
10914POPC   C1A67803  22.906  31.464   6.455
10914POPC   D2A67804  22.969  31.491   6.755
10914POPC   C3A67805  22.922  31.433   7.055
10914POPC   C4A67806  22.935  31.504   7.355
10914POPC   C1B67807  22.959  31.238   6.455
10914POPC   C2B67808  22.972  31.252   6.755
10914POPC   C3B67809  22.931  31.247   7.055
10914POPC   C4B67810  22.943  31.231   7.355
10915POPC   NC367811  15.227  16.774   5.555
10915POPC   PO467812  15.219  16.738   5.855
10915POPC   GL167813  15.179  16.692   6.155
10915POPC   GL267814  15.200  16.858   6.155
10915POPC   C1A67815  15.154  16.747   6.455
10915POPC   D2A67816  15.142  16.726   6.755
10915POPC   C3A67817  15.150  16.711   7.055
10915POPC   C4A67818  15.226  16.716   7.355
10915POPC   C1B67819  15.192  17.021   6.455
10915POPC   C2B67820  15.194  16.944   6.755
10915POPC   C3B67821  15.252  16.999   7.055
10915POPC   C4B67822  15.223  16.969   7.355
10916POPC   NC367823  43.925  19.035   5.555
10916POPC   PO467824  43.892  19.102   5.855
10916POPC   GL167825  43.922  19.061   6.155
10916POPC   GL267826  43.833  18.931   6.155
10916POPC   C1A67827  43.916  19.059   6.455
10916POPC   D2A67828  43.863  19.069   6.755
10916POPC   C3A67829  43.840  19.025   7.055
10916POPC   C4A67830  43.934  19.087   7.355
10916POPC   C1B67831  43.725  18.876   6.455
10916POPC   C2B67832  43.786  18.862   6.755
10916POPC   C3B67833  43.709  18.824   7.055
10916POPC   C4B67834  43.744  18.853   7.355
10917POPC   NC367835  15.201  42.368   5.555
10917POPC   PO467836  15.207  42.294   5.855
10917POPC   GL167837  15.177  42.296   6.155
10917POPC   GL267838  15.272  42.357   6.155
10917POPC   C1A67839  15.178  42.328   6.455
10917POPC   D2A67840  15.146  42.310   6.755
10917POPC   C3A67841  15.155  42.380   7.055
10917POPC   C4A67842  15.217  42.356   7.355
10917POPC   C1B67843  15.446  42.394   6.455
10917POPC   C2B67844  15.447  42.383   6.755
10917POPC   C3B67845  15.429  42.352   7.055
10917POPC   C4B67846  15.433  42.431   7.355
10918POPC   NC367847  26.055   5.100   5.555
10918POPC   PO467848  26.032   5.119   5.855
10918POPC   GL167849  26.060   5.102   6.155
10918POPC   GL267850  26.121   5.138   6.155
10918POPC   C1A67851  26.024   5.045   6.455
10918POPC   D2A67852  26.042   5.091   6.755
10918POPC   C3A67853  26.009   5.117   7.055
10918POPC   C4A67854  26.016   5.079   7.355
10918POPC   C1B67855  26.212   5.242   6.455
10918POPC   C2B67856  26.205   5.257   6.755
10918POPC   C3B67857  26.239   5.313   7.055
10918POPC   C4B67858  26.247   5.237   7.355
10919POPC   NC367859  29.967  41.517   5.555
10919POPC   PO467860  29.938  41.597   5.855
10919POPC   GL167861  29.942  41.575   6.155
10919POPC   GL267862  29.934  41.673   6.155
10919POPC   C1A67863  29.940  41.586   6.455
10919POPC   D2A67864  29.892  41.544   6.755
10919POPC   C3A67865  29.914  41.519   7.055
10919POPC   C4A67866  29.906  41.586   7.355
10919POPC   C1B67867  29.958  41.839   6.455
10919POPC   C2B67868  29.991  41.767   6.755
10919POPC   C3B67869  29.925  41.828   7.055
10919POPC   C4B67870  29.906  41.785   7.355
10920POPC   NC367871   1.984  30.681   5.555
10920POPC   PO467872   1.966  30.728   5.855
10920POPC   GL167873   2.030  30.663   6.155
10920POPC   GL267874   2.137  30.745   6.155
10920POPC   C1A67875   2.012  30.744   6.455
10920POPC   D2A67876   1.996  30.745   6.755
10920POPC   C3A67877   2.018  30.718   7.055
10920POPC   C4A67878   2.036  30.696   7.355
10920POPC   C1B67879   2.177  30.762   6.455
10920POPC   C2B67880   2.221  30.772   6.755
10920POPC   C3B67881   2.240  30.781   7.055
10920POPC   C4B67882   2.251  30.841   7.355
10921POPC   NC367883  18.273   7.452   5.555
10921POPC   PO467884  18.251   7.430   5.855
10921POPC   GL167885  18.309   7.452   6.155
10921POPC   GL267886  18.248   7.361   6.155
10921POPC   C1A67887  18.299   7.430   6.455
10921POPC   D2A67888  18.294   7.387   6.755
10921POPC   C3A67889  18.316   7.438   7.055
10921POPC   C4A67890  18.282   7.376   7.355
10921POPC   C1B67891  18.174   7.192   6.455
10921POPC   C2B67892  18.146   7.201   6.755
10921POPC   C3B67893  18.182   7.173   7.055
10921POPC   C4B67894  18.128   7.169   7.355
10922POPC   NC367895  27.585  36.928   5.555
10922POPC   PO467896  27.581  36.880   5.855
10922POPC   GL167897  27.559  36.875   6.155
10922POPC   GL267898  27.671  36.836   6.155
10922POPC   C1A67899  27.578  36.876   6.455
10922POPC   D2A67900  27.642  36.928   6.755
10922POPC   C3A67901  27.544  36.901   7.055
10922POPC   C4A67902  27.592  36.950   7.355
10922POPC   C1B67903  27.728  36.727   6.455
10922POPC   C2B67904  27.754  36.724   6.755
10922POPC   C3B67905  27.681  36.657   7.055
10922POPC   C4B67906  27.725  36.668   7.355
10923POPC   NC367907  35.375  36.129   5.555
10923POPC   PO467908  35.323  36.170   5.855
10923POPC   GL167909  35.320  36.167   6.155
10923POPC   GL267910  35.500  36.189   6.155
10923POPC   C1A67911  35.346  36.148   6.455
10923POPC   D2A67912  35.394  36.151   6.755
10923POPC   C3A67913  35.321  36.097   7.055
10923POPC   C4A67914  35.340  36.086   7.355
10923POPC   C1B67915  35.590  36.243   6.455
10923POPC   C2B67916  35.522  36.216   6.755
10923POPC   C3B67917  35.587  36.243   7.055
10923POPC   C4B67918  35.600  36.229   7.355
10924POPC   NC367919   6.694  41.596   5.555
10924POPC   PO467920   6.618  41.563   5.855
10924POPC   GL167921   6.612  41.511   6.155
10924POPC   GL267922   6.677  41.645   6.155
10924POPC   C1A67923   6.674  41.538   6.455
10924POPC   D2A67924   6.672  41.591   6.755
10924POPC   C3A67925   6.620  41.585   7.055
10924POPC   C4A67926   6.666  41.591   7.355
10924POPC   C1B67927   6.664  41.771   6.455
10924POPC   C2B67928   6.706  41.818   6.755
10924POPC   C3B67929   6.679  41.815   7.055
10924POPC   C4B67930   6.676  41.842   7.355
10925POPC   NC367931  32.240  32.256   5.555
10925POPC   PO467932  32.253  32.289   5.855
10925POPC   GL167933  32.207  32.253   6.155
10925POPC   GL267934  32.114  32.289   6.155
10925POPC   C1A67935  32.239  32.263   6.455
10925POPC   D2A67936  32.292  32.200   6.755
10925POPC   C3A67937  32.249  32.241   7.055
10925POPC   C4A67938  32.242  32.291   7.355
10925POPC   C1B67939  32.040  32.322   6.455
10925POPC   C2B67940  32.013  32.336   6.755
10925POPC   C3B67941  32.052  32.357   7.055
10925POPC   C4B67942  31.987  32.351   7.355
10926POPC   NC367943  18.265  10.495   5.555
10926POPC   PO467944  18.296  10.487   5.855
10926POPC   GL167945  18.281  10.487   6.155
10926POPC   GL267946  18.207  10.449   6.155
10926POPC   C1A67947  18.323  10.480   6.455
10926POPC   D2A67948  18.259  10.555   6.755
10926POPC   C3A67949  18.328  10.522   7.055
10926POPC   C4A67950  18.290  10.508   7.355
10926POPC   C1B67951  18.126  10.346   6.455
10926POPC   C2B67952  18.132  10.308   6.755
10926POPC   C3B67953  18.103  10.312   7.055
10926POPC   C4B67954  18.088  10.329   7.355
10927POPC   NC367955   3.501  44.673   5.555
10927POPC   PO467956   3.546  44.665   5.855
10927POPC   GL167957   3.576  44.633   6.155
10927POPC   GL267958   3.524  44.561   6.155
10927POPC   C1A67959   3.502  44.670   6.455
10927POPC   D2A67960   3.566  44.613   6.755
10927POPC   C3A67961   3.553  44.685   7.055
10927POPC   C4A67962   3.519  44.669   7.355
10927POPC   C1B67963   3.536  44.365   6.455
10927POPC   C2B67964   3.548  44.448   6.755
10927POPC   C3B67965   3.543  44.371   7.055
10927POPC   C4B67966   3.514  44.430   7.355
10928POPC   NC367967  23.714  44.635   5.555
10928POPC   PO467968  23.703  44.651   5.855
10928POPC   GL167969  23.742  44.617   6.155
10928POPC   GL267970  23.716  44.817   6.155
10928POPC   C1A67971  23.755  44.662   6.455
10928POPC   D2A67972  23.687  44.671   6.755
10928POPC   C3A67973  23.746  44.673   7.055
10928POPC   C4A67974  23.762  44.631   7.355
10928POPC   C1B67975  23.744  44.862   6.455
10928POPC   C2B67976  23.735  44.897   6.755
10928POPC   C3B67977  23.716  44.928   7.055
10928POPC   C4B67978  23.745  44.890   7.355
10929POPC   NC367979   1.257   4.336   5.555
10929POPC   PO467980   1.213   4.330   5.855
10929POPC   GL167981   1.239   4.331   6.155
10929POPC   GL267982   1.256   4.458   6.155
10929POPC   C1A67983   1.260   4.315   6.455
10929POPC   D2A67984   1.234   4.352   6.755
10929POPC   C3A67985   1.251   4.304   7.055
10929POPC   C4A67986   1.171   4.348   7.355
10929POPC   C1B67987   1.281   4.560   6.455
10929POPC   C2B67988   1.312   4.553   6.755
10929POPC   C3B67989   1.254   4.555   7.055
10929POPC   C4B67990   1.297   4.572   7.355
10930POPC   NC367991  15.215  36.928   5.555
10930POPC   PO467992  15.193  36.889   5.855
10930POPC   GL167993  15.135  36.936   6.155
10930POPC   GL267994  15.168  37.010   6.155
10930POPC   C1A67995  15.172  36.912   6.455
10930POPC   D2A67996  15.156  36.893   6.755
10930POPC   C3A67997  15.151  36.900   7.055
10930POPC   C4A67998  15.175  36.938   7.355
10930POPC   C1B67999  15.122  37.147   6.455
10930POPC   C2B68000  15.080  37.156   6.755
10930POPC   C3B68001  15.165  37.146   7.055
10930POPC   C4B68002  15.078  37.181   7.355
10931POPC   NC368003  22.208  11.285   5.555
10931POPC   PO468004  22.198  11.296   5.855
10931POPC   GL168005  22.181  11.344   6.155
10931POPC   GL268006  22.193  11.444   6.155
10931POPC   C1A68007  22.205  11.251   6.455
10931POPC   D2A68008  22.186  11.254   6.755
10931POPC   C3A68009  22.146  11.274   7.055
10931POPC   C4A68010  22.196  11.313   7.355
10931POPC   C1B68011  22.158  11.532   6.455
10931POPC   C2B68012  22.126  11.564   6.755
10931POPC   C3B68013  22.172  11.505   7.055
10931POPC   C4B68014  22.147  11.519   7.355
10932POPC   NC368015  42.371  19.844   5.555
10932POPC   PO468016  42.318  19.823   5.855
10932POPC   GL168017  42.368  19.794   6.155
10932POPC   GL268018  42.273  19.985   6.155
10932POPC   C1A68019  42.363  19.859   6.455
10932POPC   D2A68020  42.321  19.860   6.755
10932POPC   C3A68021  42.349  19.824   7.055
10932POPC   C4A68022  42.330  19.841   7.355
10932POPC   C1B68023  42.191  20.024   6.455
10932POPC   C2B68024  42.276  20.092   6.755
10932POPC   C3B68025  42.213  20.079   7.055
10932POPC   C4B68026  42.212  20.066   7.355
10933POPC   NC368027  39.195  29.969   5.555
10933POPC   PO468028  39.259  29.945   5.855
10933POPC   GL168029  39.217  29.908   6.155
10933POPC   GL268030  39.128  29.965   6.155
10933POPC   C1A68031  39.195  29.947   6.455
10933POPC   D2A68032  39.262  29.894   6.755
10933POPC   C3A68033  39.206  29.929   7.055
10933POPC   C4A68034  39.190  29.970   7.355
10933POPC   C1B68035  39.066  30.129   6.455
10933POPC   C2B68036  39.080  30.089   6.755
10933POPC   C3B68037  39.019  30.052   7.055
10933POPC   C4B68038  39.054  30.090   7.355
10934POPC   NC368039  36.154  33.053   5.555
10934POPC   PO468040  36.167  33.036   5.855
10934POPC   GL168041  36.087  33.002   6.155
10934POPC   GL268042  36.219  32.924   6.155
10934POPC   C1A68043  36.158  33.030   6.455
10934POPC   D2A68044  36.162  33.014   6.755
10934POPC   C3A68045  36.101  33.053   7.055
10934POPC   C4A68046  36.172  32.996   7.355
10934POPC   C1B68047  36.212  32.833   6.455
10934POPC   C2B68048  36.281  32.776   6.755
10934POPC   C3B68049  36.218  32.763   7.055
10934POPC   C4B68050  36.201  32.766   7.355
10935POPC   NC368051  33.062  30.663   5.555
10935POPC   PO468052  33.026  30.698   5.855
10935POPC   GL168053  32.987  30.713   6.155
10935POPC   GL268054  33.174  30.597   6.155
10935POPC   C1A68055  32.984  30.720   6.455
10935POPC   D2A68056  32.991  30.708   6.755
10935POPC   C3A68057  33.065  30.720   7.055
10935POPC   C4A68058  33.027  30.664   7.355
10935POPC   C1B68059  33.207  30.560   6.455
10935POPC   C2B68060  33.250  30.588   6.755
10935POPC   C3B68061  33.284  30.538   7.055
10935POPC   C4B68062  33.220  30.546   7.355
10936POPC   NC368063  15.196   5.100   5.555
10936POPC   PO468064  15.185   5.137   5.855
10936POPC   GL168065  15.165   5.088   6.155
10936POPC   GL268066  15.264   5.067   6.155
10936POPC   C1A68067  15.152   5.106   6.455
10936POPC   D2A68068  15.168   5.065   6.755
10936POPC   C3A68069  15.210   5.063   7.055
10936POPC   C4A68070  15.216   5.132   7.355
10936POPC   C1B68071  15.381   5.010   6.455
10936POPC   C2B68072  15.430   4.957   6.755
10936POPC   C3B68073  15.403   5.007   7.055
10936POPC   C4B68074  15.394   4.956   7.355
10937POPC   NC368075  35.342  17.509   5.555
10937POPC   PO468076  35.321  17.522   5.855
10937POPC   GL168077  35.374  17.497   6.155
10937POPC   GL268078  35.302  17.599   6.155
10937POPC   C1A68079  35.352  17.508   6.455
10937POPC   D2A68080  35.358  17.553   6.755
10937POPC   C3A68081  35.329  17.524   7.055
10937POPC   C4A68082  35.306  17.489   7.355
10937POPC   C1B68083  35.309  17.753   6.455
10937POPC   C2B68084  35.351  17.789   6.755
10937POPC   C3B68085  35.345  17.784   7.055
10937POPC   C4B68086  35.308  17.768   7.355
10938POPC   NC368087   1.199  38.501   5.555
10938POPC   PO468088   1.238  38.479   5.855
10938POPC   GL168089   1.257  38.439   6.155
10938POPC   GL268090   1.190  38.551   6.155
10938POPC   C1A68091   1.174  38.427   6.455
10938POPC   D2A68092   1.199  38.490   6.755
10938POPC   C3A68093   1.196  38.479   7.055
10938POPC   C4A68094   1.248  38.461   7.355
10938POPC   C1B68095   1.154  38.714   6.455
10938POPC   C2B68096   1.121  38.698   6.755
10938POPC   C3B68097   1.095  38.657   7.055
10938POPC   C4B68098   1.154  38.659   7.355
10939POPC   NC368099   9.701  16.780   5.555
10939POPC   PO468100   9.717  16.738   5.855
10939POPC   GL168101   9.712  16.751   6.155
10939POPC   GL268102   9.669  16.718   6.155
10939POPC   C1A68103   9.735  16.772   6.455
10939POPC   D2A68104   9.743  16.695   6.755
10939POPC   C3A68105   9.724  16.747   7.055
10939POPC   C4A68106   9.721  16.697   7.355
10939POPC   C1B68107   9.485  16.642   6.455
10939POPC   C2B68108   9.500  16.695   6.755
10939POPC   C3B68109   9.501  16.614   7.055
10939POPC   C4B68110   9.527  16.625   7.355
10940POPC   NC368111  14.372  38.441   5.555
10940POPC   PO468112  14.390  38.501   5.855
10940POPC   GL168113  14.441  38.502   6.155
10940POPC   GL268114  14.473  38.562   6.155
10940POPC   C1A68115  14.380  38.486   6.455
10940POPC   D2A68116  14.412  38.462   6.755
10940POPC   C3A68117  14.369  38.433   7.055
10940POPC   C4A68118  14.378  38.414   7.355
10940POPC   C1B68119  14.631  38.542   6.455
10940POPC   C2B68120  14.596  38.547   6.755
10940POPC   C3B68121  14.577  38.576   7.055
10940POPC   C4B68122  14.623  38.591   7.355
10941POPC   NC368123  32.215  30.722   5.555
10941POPC   PO468124  32.256  30.746   5.855
10941POPC   GL168125  32.246  30.657   6.155
10941POPC   GL268126  32.253  30.584   6.155
10941POPC   C1A68127  32.248  30.716   6.455
10941POPC   D2A68128  32.258  30.660   6.755
10941POPC   C3A68129  32.249  30.671   7.055
10941POPC   C4A68130  32.234  30.655   7.355
10941POPC   C1B68131  32.217  30.481   6.455
10941POPC   C2B68132  32.179  30.424   6.755
10941POPC   C3B68133  32.222  30.498   7.055
10941POPC   C4B68134  32.214  30.421   7.355
10942POPC   NC368135  41.509  44.659   5.555
10942POPC   PO468136  41.577  44.625   5.855
10942POPC   GL168137  41.553  44.678   6.155
10942POPC   GL268138  41.475  44.715   6.155
10942POPC   C1A68139  41.573  44.628   6.455
10942POPC   D2A68140  41.589  44.710   6.755
10942POPC   C3A68141  41.590  44.682   7.055
10942POPC   C4A68142  41.579  44.662   7.355
10942POPC   C1B68143  41.302  44.665   6.455
10942POPC   C2B68144  41.299  44.667   6.755
10942POPC   C3B68145  41.328  44.633   7.055
10942POPC   C4B68146  41.322  44.689   7.355
10943POPC   NC368147  21.430  41.589   5.555
10943POPC   PO468148  21.427  41.594   5.855
10943POPC   GL168149  21.393  41.538   6.155
10943POPC   GL268150  21.303  41.480   6.155
10943POPC   C1A68151  21.357  41.598   6.455
10943POPC   D2A68152  21.353  41.569   6.755
10943POPC   C3A68153  21.371  41.545   7.055
10943POPC   C4A68154  21.364  41.570   7.355
10943POPC   C1B68155  21.201  41.443   6.455
10943POPC   C2B68156  21.203  41.387   6.755
10943POPC   C3B68157  21.160  41.435   7.055
10943POPC   C4B68158  21.163  41.413   7.355
10944POPC   NC368159  14.389  43.148   5.555
10944POPC   PO468160  14.408  43.067   5.855
10944POPC   GL168161  14.364  43.145   6.155
10944POPC   GL268162  14.282  43.090   6.155
10944POPC   C1A68163  14.443  43.114   6.455
10944POPC   D2A68164  14.370  43.090   6.755
10944POPC   C3A68165  14.429  43.153   7.055
10944POPC   C4A68166  14.430  43.064   7.355
10944POPC   C1B68167  14.127  43.174   6.455
10944POPC   C2B68168  14.181  43.158   6.755
10944POPC   C3B68169  14.191  43.169   7.055
10944POPC   C4B68170  14.120  43.131   7.355
10945POPC   NC368171  36.949  26.054   5.555
10945POPC   PO468172  36.862  26.012   5.855
10945POPC   GL168173  36.888  26.071   6.155
10945POPC   GL268174  36.777  26.072   6.155
10945POPC   C1A68175  36.860  26.031   6.455
10945POPC   D2A68176  36.917  26.027   6.755
10945POPC   C3A68177  36.901  26.033   7.055
10945POPC   C4A68178  36.882  26.022   7.355
10945POPC   C1B68179  36.608  26.040   6.455
10945POPC   C2B68180  36.633  26.044   6.755
10945POPC   C3B68181  36.632  26.006   7.055
10945POPC   C4B68182  36.606  26.052   7.355
10946POPC   NC368183  33.761  31.502   5.555
10946POPC   PO468184  33.775  31.480   5.855
10946POPC   GL168185  33.801  31.518   6.155
10946POPC   GL268186  33.884  31.518   6.155
10946POPC   C1A68187  33.789  31.492   6.455
10946POPC   D2A68188  33.850  31.440   6.755
10946POPC   C3A68189  33.836  31.430   7.055
10946POPC   C4A68190  33.841  31.451   7.355
10946POPC   C1B68191  33.982  31.661   6.455
10946POPC   C2B68192  33.965  31.685   6.755
10946POPC   C3B68193  33.956  31.630   7.055
10946POPC   C4B68194  33.927  31.687   7.355
10947POPC   NC368195  12.898  18.329   5.555
10947POPC   PO468196  12.867  18.285   5.855
10947POPC   GL168197  12.844  18.253   6.155
10947POPC   GL268198  12.929  18.356   6.155
10947POPC   C1A68199  12.875  18.275   6.455
10947POPC   D2A68200  12.806  18.309   6.755
10947POPC   C3A68201  12.841  18.269   7.055
10947POPC   C4A68202  12.825  18.320   7.355
10947POPC   C1B68203  13.038  18.390   6.455
10947POPC   C2B68204  13.033  18.388   6.755
10947POPC   C3B68205  13.110  18.377   7.055
10947POPC   C4B68206  13.059  18.402   7.355
10948POPC   NC368207  42.333  17.478   5.555
10948POPC   PO468208  42.328  17.549   5.855
10948POPC   GL168209  42.327  17.520   6.155
10948POPC   GL268210  42.453  17.448   6.155
10948POPC   C1A68211  42.330  17.494   6.455
10948POPC   D2A68212  42.287  17.517   6.755
10948POPC   C3A68213  42.328  17.479   7.055
10948POPC   C4A68214  42.316  17.475   7.355
10948POPC   C1B68215  42.555  17.320   6.455
10948POPC   C2B68216  42.476  17.371   6.755
10948POPC   C3B68217  42.522  17.358   7.055
10948POPC   C4B68218  42.490  17.362   7.355
10949POPC   NC368219  18.270  33.768   5.555
10949POPC   PO468220  18.309  33.758   5.855
10949POPC   GL168221  18.292  33.849   6.155
10949POPC   GL268222  18.332  33.706   6.155
10949POPC   C1A68223  18.315  33.792   6.455
10949POPC   D2A68224  18.293  33.829   6.755
10949POPC   C3A68225  18.316  33.843   7.055
10949POPC   C4A68226  18.276  33.770   7.355
10949POPC   C1B68227  18.430  33.554   6.455
10949POPC   C2B68228  18.348  33.604   6.755
10949POPC   C3B68229  18.395  33.573   7.055
10949POPC   C4B68230  18.387  33.538   7.355
10950POPC   NC368231  37.695  40.754   5.555
10950POPC   PO468232  37.721  40.828   5.855
10950POPC   GL168233  37.721  40.770   6.155
10950POPC   GL268234  37.756  40.877   6.155
10950POPC   C1A68235  37.692  40.806   6.455
10950POPC   D2A68236  37.651  40.820   6.755
10950POPC   C3A68237  37.707  40.776   7.055
10950POPC   C4A68238  37.706  40.795   7.355
10950POPC   C1B68239  37.906  40.865   6.455
10950POPC   C2B68240  37.914  40.853   6.755
10950POPC   C3B68241  37.891  40.886   7.055
10950POPC   C4B68242  37.945  40.916   7.355
10951POPC   NC368243  17.469   0.483   5.555
10951POPC   PO468244  17.516   0.486   5.855
10951POPC   GL168245  17.475   0.462   6.155
10951POPC   GL268246  17.474   0.299   6.155
10951POPC   C1A68247  17.473   0.463   6.455
10951POPC   D2A68248  17.553   0.450   6.755
10951POPC   C3A68249  17.484   0.456   7.055
10951POPC   C4A68250  17.542   0.481   7.355
10951POPC   C1B68251  17.438   0.148   6.455
10951POPC   C2B68252  17.415   0.231   6.755
10951POPC   C3B68253  17.407   0.206   7.055
10951POPC   C4B68254  17.456   0.182   7.355
10952POPC   NC368255   5.073  40.752   5.555
10952POPC   PO468256   5.046  40.826   5.855
10952POPC   GL168257   5.126  40.757   6.155
10952POPC   GL268258   5.116  40.875   6.155
10952POPC   C1A68259   5.129  40.830   6.455
10952POPC   D2A68260   5.056  40.790   6.755
10952POPC   C3A68261   5.053  40.830   7.055
10952POPC   C4A68262   5.138  40.763   7.355
10952POPC   C1B68263   5.157  41.045   6.455
10952POPC   C2B68264   5.150  40.970   6.755
10952POPC   C3B68265   5.227  41.011   7.055
10952POPC   C4B68266   5.187  41.053   7.355
10953POPC   NC368267  19.852   8.968   5.555
10953POPC   PO468268  19.836   8.941   5.855
10953POPC   GL168269  19.868   8.963   6.155
10953POPC   GL268270  19.817   8.865   6.155
10953POPC   C1A68271  19.839   9.001   6.455
10953POPC   D2A68272  19.814   9.020   6.755
10953POPC   C3A68273  19.807   8.977   7.055
10953POPC   C4A68274  19.851   8.925   7.355
10953POPC   C1B68275  19.818   8.760   6.455
10953POPC   C2B68276  19.785   8.680   6.755
10953POPC   C3B68277  19.725   8.701   7.055
10953POPC   C4B68278  19.787   8.761   7.355
10954POPC   NC368279  38.480  41.519   5.555
10954POPC   PO468280  38.497  41.531   5.855
10954POPC   GL168281  38.446  41.557   6.155
10954POPC   GL268282  38.340  41.611   6.155
10954POPC   C1A68283  38.500  41.572   6.455
10954POPC   D2A68284  38.415  41.579   6.755
10954POPC   C3A68285  38.486  41.587   7.055
10954POPC   C4A68286  38.473  41.546   7.355
10954POPC   C1B68287  38.286  41.671   6.455
10954POPC   C2B68288  38.218  41.676   6.755
10954POPC   C3B68289  38.270  41.669   7.055
10954POPC   C4B68290  38.276  41.673   7.355
10955POPC   NC368291  21.426  22.165   5.555
10955POPC   PO468292  21.426  22.189   5.855
10955POPC   GL168293  21.339  22.168   6.155
10955POPC   GL268294  21.426  22.259   6.155
10955POPC   C1A68295  21.369  22.195   6.455
10955POPC   D2A68296  21.359  22.160   6.755
10955POPC   C3A68297  21.377  22.210   7.055
10955POPC   C4A68298  21.395  22.123   7.355
10955POPC   C1B68299  21.559  22.408   6.455
10955POPC   C2B68300  21.526  22.356   6.755
10955POPC   C3B68301  21.515  22.326   7.055
10955POPC   C4B68302  21.506  22.313   7.355
10956POPC   NC368303  29.158  12.070   5.555
10956POPC   PO468304  29.120  12.066   5.855
10956POPC   GL168305  29.168  12.046   6.155
10956POPC   GL268306  29.156  12.150   6.155
10956POPC   C1A68307  29.139  12.049   6.455
10956POPC   D2A68308  29.096  12.103   6.755
10956POPC   C3A68309  29.149  12.096   7.055
10956POPC   C4A68310  29.131  12.116   7.355
10956POPC   C1B68311  29.080  12.285   6.455
10956POPC   C2B68312  29.059  12.351   6.755
10956POPC   C3B68313  29.094  12.313   7.055
10956POPC   C4B68314  29.092  12.322   7.355
10957POPC   NC368315  36.889  22.899   5.555
10957POPC   PO468316  36.934  22.965   5.855
10957POPC   GL168317  36.923  22.973   6.155
10957POPC   GL268318  36.970  22.872   6.155
10957POPC   C1A68319  36.873  22.932   6.455
10957POPC   D2A68320  36.904  22.933   6.755
10957POPC   C3A68321  36.943  22.968   7.055
10957POPC   C4A68322  36.938  22.968   7.355
10957POPC   C1B68323  37.110  22.792   6.455
10957POPC   C2B68324  37.046  22.748   6.755
10957POPC   C3B68325  37.107  22.734   7.055
10957POPC   C4B68326  37.104  22.789   7.355
10958POPC   NC368327  40.746  12.885   5.555
10958POPC   PO468328  40.738  12.899   5.855
10958POPC   GL168329  40.733  12.856   6.155
10958POPC   GL268330  40.863  12.958   6.155
10958POPC   C1A68331  40.768  12.873   6.455
10958POPC   D2A68332  40.819  12.821   6.755
10958POPC   C3A68333  40.802  12.850   7.055
10958POPC   C4A68334  40.785  12.859   7.355
10958POPC   C1B68335  40.973  13.069   6.455
10958POPC   C2B68336  40.997  13.061   6.755
10958POPC   C3B68337  40.944  13.077   7.055
10958POPC   C4B68338  40.981  12.985   7.355
10959POPC   NC368339  18.283  11.278   5.555
10959POPC   PO468340  18.308  11.281   5.855
10959POPC   GL168341  18.250  11.296   6.155
10959POPC   GL268342  18.385  11.159   6.155
10959POPC   C1A68343  18.276  11.316   6.455
10959POPC   D2A68344  18.306  11.284   6.755
10959POPC   C3A68345  18.275  11.273   7.055
10959POPC   C4A68346  18.250  11.270   7.355
10959POPC   C1B68347  18.400  11.105   6.455
10959POPC   C2B68348  18.459  11.062   6.755
10959POPC   C3B68349  18.459  11.157   7.055
10959POPC   C4B68350  18.440  11.111   7.355
10960POPC   NC368351  26.799  41.572   5.555
10960POPC   PO468352  26.793  41.562   5.855
10960POPC   GL168353  26.769  41.556   6.155
10960POPC   GL268354  26.944  41.526   6.155
10960POPC   C1A68355  26.855  41.581   6.455
10960POPC   D2A68356  26.849  41.534   6.755
10960POPC   C3A68357  26.828  41.530   7.055
10960POPC   C4A68358  26.832  41.565   7.355
10960POPC   C1B68359  27.065  41.414   6.455
10960POPC   C2B68360  27.078  41.434   6.755
10960POPC   C3B68361  27.008  41.450   7.055
10960POPC   C4B68362  26.996  41.426   7.355
10961POPC   NC368363  20.636  43.122   5.555
10961POPC   PO468364  20.632  43.142   5.855
10961POPC   GL168365  20.633  43.150   6.155
10961POPC   GL268366  20.778  43.134   6.155
10961POPC   C1A68367  20.594  43.061   6.455
10961POPC   D2A68368  20.582  43.068   6.755
10961POPC   C3A68369  20.653  43.084   7.055
10961POPC   C4A68370  20.658  43.147   7.355
10961POPC   C1B68371  20.876  43.223   6.455
10961POPC   C2B68372  20.824  43.136   6.755
10961POPC   C3B68373  20.825  43.154   7.055
10961POPC   C4B68374  20.813  43.188   7.355
10962POPC   NC368375   2.035  35.384   5.555
10962POPC   PO468376   2.013  35.309   5.855
10962POPC   GL168377   2.019  35.372   6.155
10962POPC   GL268378   2.080  35.331   6.155
10962POPC   C1A68379   2.028  35.364   6.455
10962POPC   D2A68380   1.997  35.335   6.755
10962POPC   C3A68381   1.940  35.367   7.055
10962POPC   C4A68382   1.987  35.363   7.355
10962POPC   C1B68383   2.218  35.317   6.455
10962POPC   C2B68384   2.256  35.313   6.755
10962POPC   C3B68385   2.260  35.293   7.055
10962POPC   C4B68386   2.285  35.349   7.355
10963POPC   NC368387  19.858   5.137   5.555
10963POPC   PO468388  19.868   5.126   5.855
10963POPC   GL168389  19.785   5.063   6.155
10963POPC   GL268390  19.738   5.169   6.155
10963POPC   C1A68391  19.838   5.134   6.455
10963POPC   D2A68392  19.796   5.073   6.755
10963POPC   C3A68393  19.804   5.119   7.055
10963POPC   C4A68394  19.841   5.129   7.355
10963POPC   C1B68395  19.547   5.173   6.455
10963POPC   C2B68396  19.638   5.173   6.755
10963POPC   C3B68397  19.591   5.204   7.055
10963POPC   C4B68398  19.605   5.186   7.355
10964POPC   NC368399  31.448  35.306   5.555
10964POPC   PO468400  31.447  35.368   5.855
10964POPC   GL168401  31.504  35.319   6.155
10964POPC   GL268402  31.605  35.373   6.155
10964POPC   C1A68403  31.518  35.368   6.455
10964POPC   D2A68404  31.522  35.387   6.755
10964POPC   C3A68405  31.496  35.355   7.055
10964POPC   C4A68406  31.508  35.380   7.355
10964POPC   C1B68407  31.737  35.425   6.455
10964POPC   C2B68408  31.681  35.331   6.755
10964POPC   C3B68409  31.720  35.363   7.055
10964POPC   C4B68410  31.766  35.334   7.355
10965POPC   NC368411   4.281  14.406   5.555
10965POPC   PO468412   4.298  14.434   5.855
10965POPC   GL168413   4.309  14.369   6.155
10965POPC   GL268414   4.367  14.529   6.155
10965POPC   C1A68415   4.284  14.358   6.455
10965POPC   D2A68416   4.331  14.369   6.755
10965POPC   C3A68417   4.275  14.414   7.055
10965POPC   C4A68418   4.305  14.370   7.355
10965POPC   C1B68419   4.402  14.657   6.455
10965POPC   C2B68420   4.376  14.672   6.755
10965POPC   C3B68421   4.427  14.678   7.055
10965POPC   C4B68422   4.427  14.660   7.355
10966POPC   NC368423   6.613  36.899   5.555
10966POPC   PO468424   6.694  36.877   5.855
10966POPC   GL168425   6.662  36.896   6.155
10966POPC   GL268426   6.690  36.980   6.155
10966POPC   C1A68427   6.683  36.952   6.455
10966POPC   D2A68428   6.619  36.914   6.755
10966POPC   C3A68429   6.668  36.887   7.055
10966POPC   C4A68430   6.676  36.907   7.355
10966POPC   C1B68431   6.749  37.115   6.455
10966POPC   C2B68432   6.745  37.129   6.755
10966POPC   C3B68433   6.705  37.178   7.055
10966POPC   C4B68434   6.726  37.195   7.355
10967POPC   NC368435  22.129  43.847   5.555
10967POPC   PO468436  22.188  43.856   5.855
10967POPC   GL168437  22.141  43.842   6.155
10967POPC   GL268438  22.158  43.810   6.155
10967POPC   C1A68439  22.152  43.866   6.455
10967POPC   D2A68440  22.165  43.913   6.755
10967POPC   C3A68441  22.183  43.853   7.055
10967POPC   C4A68442  22.152  43.912   7.355
10967POPC   C1B68443  22.223  43.681   6.455
10967POPC   C2B68444  22.189  43.647   6.755
10967POPC   C3B68445  22.234  43.676   7.055
10967POPC   C4B68446  22.257  43.661   7.355
10968POPC   NC368447  22.176   9.739   5.555
10968POPC   PO468448  22.207   9.737   5.855
10968POPC   GL168449  22.193   9.791   6.155
10968POPC   GL268450  22.122   9.639   6.155
10968POPC   C1A68451  22.199   9.718   6.455
10968POPC   D2A68452  22.205   9.792   6.755
10968POPC   C3A68453  22.147   9.757   7.055
10968POPC   C4A68454  22.119   9.701   7.355
10968POPC   C1B68455  22.159   9.537   6.455
10968POPC   C2B68456  22.167   9.463   6.755
10968POPC   C3B68457  22.161   9.502   7.055
10968POPC   C4B68458  22.185   9.520   7.355
10969POPC   NC368459   7.399  15.965   5.555
10969POPC   PO468460   7.404  15.995   5.855
10969POPC   GL168461   7.468  15.970   6.155
10969POPC   GL268462   7.517  16.028   6.155
10969POPC   C1A68463   7.395  15.945   6.455
10969POPC   D2A68464   7.451  15.928   6.755
10969POPC   C3A68465   7.467  15.933   7.055
10969POPC   C4A68466   7.376  15.996   7.355
10969POPC   C1B68467   7.565  16.167   6.455
10969POPC   C2B68468   7.571  16.179   6.755
10969POPC   C3B68469   7.586  16.112   7.055
10969POPC   C4B68470   7.585  16.175   7.355
10970POPC   NC368471  11.282  17.460   5.555
10970POPC   PO468472  11.321  17.466   5.855
10970POPC   GL168473  11.254  17.457   6.155
10970POPC   GL268474  11.140  17.506   6.155
10970POPC   C1A68475  11.250  17.526   6.455
10970POPC   D2A68476  11.346  17.528   6.755
10970POPC   C3A68477  11.262  17.525   7.055
10970POPC   C4A68478  11.317  17.475   7.355
10970POPC   C1B68479  11.077  17.590   6.455
10970POPC   C2B68480  11.054  17.603   6.755
10970POPC   C3B68481  11.048  17.569   7.055
10970POPC   C4B68482  11.087  17.505   7.355
10971POPC   NC368483   9.009   4.365   5.555
10971POPC   PO468484   8.965   4.365   5.855
10971POPC   GL168485   8.940   4.342   6.155
10971POPC   GL268486   8.967   4.200   6.155
10971POPC   C1A68487   9.016   4.289   6.455
10971POPC   D2A68488   8.960   4.325   6.755
10971POPC   C3A68489   8.933   4.280   7.055
10971POPC   C4A68490   9.017   4.340   7.355
10971POPC   C1B68491   9.034   4.055   6.455
10971POPC   C2B68492   9.036   4.102   6.755
10971POPC   C3B68493   9.061   4.078   7.055
10971POPC   C4B68494   9.075   4.084   7.355
10972POPC   NC368495  23.725  29.193   5.555
10972POPC   PO468496  23.679  29.123   5.855
10972POPC   GL168497  23.669  29.144   6.155
10972POPC   GL268498  23.696  29.275   6.155
10972POPC   C1A68499  23.726  29.132   6.455
10972POPC   D2A68500  23.682  29.159   6.755
10972POPC   C3A68501  23.672  29.173   7.055
10972POPC   C4A68502  23.684  29.115   7.355
10972POPC   C1B68503  23.654  29.391   6.455
10972POPC   C2B68504  23.649  29.397   6.755
10972POPC   C3B68505  23.604  29.408   7.055
10972POPC   C4B68506  23.639  29.423   7.355
10973POPC   NC368507  44.652  16.723   5.555
10973POPC   PO468508  44.641  16.697   5.855
10973POPC   GL168509  44.628  16.767   6.155
10973POPC   GL268510  44.790  16.652   6.155
10973POPC   C1A68511  44.709  16.721   6.455
10973POPC   D2A68512  44.648  16.703   6.755
10973POPC   C3A68513  44.693  16.706   7.055
10973POPC   C4A68514  44.649  16.728   7.355
10973POPC   C1B68515  44.864  16.599   6.455
10973POPC   C2B68516  44.844  16.574   6.755
10973POPC   C3B68517  44.830  16.575   7.055
10973POPC   C4B68518  44.823  16.540   7.355
10974POPC   NC368519   2.753  39.259   5.555
10974POPC   PO468520   2.724  39.272   5.855
10974POPC   GL168521   2.716  39.196   6.155
10974POPC   GL268522   2.797  39.143   6.155
10974POPC   C1A68523   2.774  39.187   6.455
10974POPC   D2A68524   2.735  39.182   6.755
10974POPC   C3A68525   2.796  39.256   7.055
10974POPC   C4A68526   2.805  39.266   7.355
10974POPC   C1B68527   2.785  38.941   6.455
10974POPC   C2B68528   2.818  39.036   6.755
10974POPC   C3B68529   2.779  38.939   7.055
10974POPC   C4B68530   2.833  39.032   7.355
10975POPC   NC368531  19.833  22.964   5.555
10975POPC   PO468532  19.821  22.936   5.855
10975POPC   GL168533  19.869  22.912   6.155
10975POPC   GL268534  19.926  22.847   6.155
10975POPC   C1A68535  19.808  22.939   6.455
10975POPC   D2A68536  19.880  22.937   6.755
10975POPC   C3A68537  19.796  22.970   7.055
10975POPC   C4A68538  19.809  22.986   7.355
10975POPC   C1B68539  20.017  22.751   6.455
10975POPC   C2B68540  19.957  22.706   6.755
10975POPC   C3B68541  19.998  22.736   7.055
10975POPC   C4B68542  19.969  22.693   7.355
10976POPC   NC368543  29.915   5.903   5.555
10976POPC   PO468544  29.948   5.878   5.855
10976POPC   GL168545  29.958   5.839   6.155
10976POPC   GL268546  29.841   5.891   6.155
10976POPC   C1A68547  29.873   5.851   6.455
10976POPC   D2A68548  29.888   5.879   6.755
10976POPC   C3A68549  29.965   5.854   7.055
10976POPC   C4A68550  29.967   5.885   7.355
10976POPC   C1B68551  29.700   6.005   6.455
10976POPC   C2B68552  29.740   5.981   6.755
10976POPC   C3B68553  29.660   5.944   7.055
10976POPC   C4B68554  29.742   6.029   7.355
10977POPC   NC368555  35.392  15.216   5.555
10977POPC   PO468556  35.314  15.187   5.855
10977POPC   GL168557  35.394  15.219   6.155
10977POPC   GL268558  35.196  15.152   6.155
10977POPC   C1A68559  35.361  15.176   6.455
10977POPC   D2A68560  35.324  15.160   6.755
10977POPC   C3A68561  35.360  15.211   7.055
10977POPC   C4A68562  35.344  15.137   7.355
10977POPC   C1B68563  35.116  15.106   6.455
10977POPC   C2B68564  35.149  15.044   6.755
10977POPC   C3B68565  35.106  15.054   7.055
10977POPC   C4B68566  35.083  15.060   7.355
10978POPC   NC368567  37.708  25.219   5.555
10978POPC   PO468568  37.649  25.270   5.855
10978POPC   GL168569  37.635  25.216   6.155
10978POPC   GL268570  37.775  25.256   6.155
10978POPC   C1A68571  37.702  25.278   6.455
10978POPC   D2A68572  37.630  25.262   6.755
10978POPC   C3A68573  37.695  25.274   7.055
10978POPC   C4A68574  37.714  25.313   7.355
10978POPC   C1B68575  37.958  25.373   6.455
10978POPC   C2B68576  37.920  25.310   6.755
10978POPC   C3B68577  37.933  25.321   7.055
10978POPC   C4B68578  37.900  25.294   7.355
10979POPC   NC368579  23.730  40.783   5.555
10979POPC   PO468580  23.676  40.824   5.855
10979POPC   GL168581  23.696  40.810   6.155
10979POPC   GL268582  23.639  40.701   6.155
10979POPC   C1A68583  23.675  40.818   6.455
10979POPC   D2A68584  23.678  40.792   6.755
10979POPC   C3A68585  23.739  40.832   7.055
10979POPC   C4A68586  23.726  40.768   7.355
10979POPC   C1B68587  23.549  40.619   6.455
10979POPC   C2B68588  23.519  40.553   6.755
10979POPC   C3B68589  23.542  40.594   7.055
10979POPC   C4B68590  23.504  40.588   7.355
10980POPC   NC368591   7.427  19.087   5.555
10980POPC   PO468592   7.457  19.012   5.855
10980POPC   GL168593   7.410  19.047   6.155
10980POPC   GL268594   7.551  19.137   6.155
10980POPC   C1A68595   7.393  19.059   6.455
10980POPC   D2A68596   7.378  19.025   6.755
10980POPC   C3A68597   7.432  19.038   7.055
10980POPC   C4A68598   7.448  19.011   7.355
10980POPC   C1B68599   7.603  19.298   6.455
10980POPC   C2B68600   7.568  19.230   6.755
10980POPC   C3B68601   7.550  19.293   7.055
10980POPC   C4B68602   7.577  19.232   7.355
10981POPC   NC368603   9.705  40.831   5.555
10981POPC   PO468604   9.699  40.828   5.855
10981POPC   GL168605   9.729  40.739   6.155
10981POPC   GL268606   9.888  40.876   6.155
10981POPC   C1A68607   9.754  40.784   6.455
10981POPC   D2A68608   9.742  40.823   6.755
10981POPC   C3A68609   9.789  40.745   7.055
10981POPC   C4A68610   9.732  40.772   7.355
10981POPC   C1B68611   9.917  40.953   6.455
10981POPC   C2B68612   9.921  40.951   6.755
10981POPC   C3B68613   9.969  40.888   7.055
10981POPC   C4B68614   9.912  40.943   7.355
10982POPC   NC368615  32.977   7.394   5.555
10982POPC   PO468616  33.037   7.385   5.855
10982POPC   GL168617  33.039   7.383   6.155
10982POPC   GL268618  33.105   7.457   6.155
10982POPC   C1A68619  33.002   7.464   6.455
10982POPC   D2A68620  33.051   7.444   6.755
10982POPC   C3A68621  32.983   7.430   7.055
10982POPC   C4A68622  32.978   7.459   7.355
10982POPC   C1B68623  33.303   7.374   6.455
10982POPC   C2B68624  33.320   7.423   6.755
10982POPC   C3B68625  33.254   7.401   7.055
10982POPC   C4B68626  33.244   7.393   7.355
10983POPC   NC368627  33.782  42.364   5.555
10983POPC   PO468628  33.762  42.323   5.855
10983POPC   GL168629  33.794  42.343   6.155
10983POPC   GL268630  33.823  42.164   6.155
10983POPC   C1A68631  33.750  42.365   6.455
10983POPC   D2A68632  33.750  42.311   6.755
10983POPC   C3A68633  33.757  42.358   7.055
10983POPC   C4A68634  33.805  42.310   7.355
10983POPC   C1B68635  33.888  42.107   6.455
10983POPC   C2B68636  33.822  42.044   6.755
10983POPC   C3B68637  33.889  42.112   7.055
10983POPC   C4B68638  33.898  42.069   7.355
10984POPC   NC368639  30.674  42.324   5.555
10984POPC   PO468640  30.720  42.307   5.855
10984POPC   GL168641  30.700  42.372   6.155
10984POPC   GL268642  30.637  42.176   6.155
10984POPC   C1A68643  30.688  42.381   6.455
10984POPC   D2A68644  30.695  42.337   6.755
10984POPC   C3A68645  30.698  42.369   7.055
10984POPC   C4A68646  30.717  42.383   7.355
10984POPC   C1B68647  30.620  42.051   6.455
10984POPC   C2B68648  30.624  42.073   6.755
10984POPC   C3B68649  30.616  42.101   7.055
10984POPC   C4B68650  30.619  42.070   7.355
10985POPC   NC368651  19.839  42.354   5.555
10985POPC   PO468652  19.810  42.362   5.855
10985POPC   GL168653  19.836  42.352   6.155
10985POPC   GL268654  19.751  42.293   6.155
10985POPC   C1A68655  19.794  42.318   6.455
10985POPC   D2A68656  19.788  42.381   6.755
10985POPC   C3A68657  19.855  42.313   7.055
10985POPC   C4A68658  19.812  42.360   7.355
10985POPC   C1B68659  19.685  42.137   6.455
10985POPC   C2B68660  19.655  42.111   6.755
10985POPC   C3B68661  19.689  42.140   7.055
10985POPC   C4B68662  19.652  42.151   7.355
10986POPC   NC368663   9.778  22.188   5.555
10986POPC   PO468664   9.737  22.178   5.855
10986POPC   GL168665   9.729  22.201   6.155
10986POPC   GL268666   9.646  22.302   6.155
10986POPC   C1A68667   9.718  22.149   6.455
10986POPC   D2A68668   9.746  22.119   6.755
10986POPC   C3A68669   9.740  22.202   7.055
10986POPC   C4A68670   9.760  22.117   7.355
10986POPC   C1B68671   9.552  22.389   6.455
10986POPC   C2B68672   9.603  22.395   6.755
10986POPC   C3B68673   9.603  22.323   7.055
10986POPC   C4B68674   9.619  22.353   7.355
10987POPC   NC368675  32.274   3.495   5.555
10987POPC   PO468676  32.238   3.537   5.855
10987POPC   GL168677  32.217   3.579   6.155
10987POPC   GL268678  32.332   3.478   6.155
10987POPC   C1A68679  32.259   3.518   6.455
10987POPC   D2A68680  32.233   3.570   6.755
10987POPC   C3A68681  32.272   3.520   7.055
10987POPC   C4A68682  32.213   3.517   7.355
10987POPC   C1B68683  32.517   3.518   6.455
10987POPC   C2B68684  32.540   3.494   6.755
10987POPC   C3B68685  32.465   3.519   7.055
10987POPC   C4B68686  32.450   3.513   7.355
10988POPC   NC368687  28.327  10.498   5.555
10988POPC   PO468688  28.388  10.547   5.855
10988POPC   GL168689  28.396  10.530   6.155
10988POPC   GL268690  28.378  10.609   6.155
10988POPC   C1A68691  28.354  10.534   6.455
10988POPC   D2A68692  28.336  10.522   6.755
10988POPC   C3A68693  28.366  10.491   7.055
10988POPC   C4A68694  28.345  10.553   7.355
10988POPC   C1B68695  28.454  10.735   6.455
10988POPC   C2B68696  28.382  10.763   6.755
10988POPC   C3B68697  28.455  10.753   7.055
10988POPC   C4B68698  28.416  10.753   7.355
10989POPC   NC368699   0.392  32.990   5.555
10989POPC   PO468700   0.462  32.984   5.855
10989POPC   GL168701   0.438  33.019   6.155
10989POPC   GL268702   0.436  32.927   6.155
10989POPC   C1A68703   0.402  33.038   6.455
10989POPC   D2A68704   0.485  33.014   6.755
10989POPC   C3A68705   0.424  33.054   7.055
10989POPC   C4A68706   0.465  33.030   7.355
10989POPC   C1B68707   0.353  32.768   6.455
10989POPC   C2B68708   0.340  32.802   6.755
10989POPC   C3B68709   0.383  32.777   7.055
10989POPC   C4B68710   0.333  32.779   7.355
10990POPC   NC368711   8.999   3.517   5.555
10990POPC   PO468712   8.986   3.499   5.855
10990POPC   GL168713   9.021   3.564   6.155
10990POPC   GL268714   9.069   3.460   6.155
10990POPC   C1A68715   9.008   3.552   6.455
10990POPC   D2A68716   8.999   3.500   6.755
10990POPC   C3A68717   8.990   3.512   7.055
10990POPC   C4A68718   8.952   3.498   7.355
10990POPC   C1B68719   9.125   3.348   6.455
10990POPC   C2B68720   9.190   3.394   6.755
10990POPC   C3B68721   9.127   3.418   7.055
10990POPC   C4B68722   9.126   3.338   7.355
10991POPC   NC368723  32.247  20.619   5.555
10991POPC   PO468724  32.296  20.632   5.855
10991POPC   GL168725  32.298  20.604   6.155
10991POPC   GL268726  32.148  20.535   6.155
10991POPC   C1A68727  32.243  20.614   6.455
10991POPC   D2A68728  32.283  20.567   6.755
10991POPC   C3A68729  32.264  20.578   7.055
10991POPC   C4A68730  32.249  20.564   7.355
10991POPC   C1B68731  32.092  20.468   6.455
10991POPC   C2B68732  32.076  20.464   6.755
10991POPC   C3B68733  32.074  20.414   7.055
10991POPC   C4B68734  32.046  20.437   7.355
10992POPC   NC368735  29.185  40.044   5.555
10992POPC   PO468736  29.125  39.961   5.855
10992POPC   GL168737  29.105  39.980   6.155
10992POPC   GL268738  29.225  39.877   6.155
10992POPC   C1A68739  29.118  39.970   6.455
10992POPC   D2A68740  29.169  40.031   6.755
10992POPC   C3A68741  29.155  40.037   7.055
10992POPC   C4A68742  29.169  39.993   7.355
10992POPC   C1B68743  29.297  39.822   6.455
10992POPC   C2B68744  29.348  39.808   6.755
10992POPC   C3B68745  29.319  39.799   7.055
10992POPC   C4B68746  29.272  39.780   7.355
10993POPC   NC368747  26.786  43.083   5.555
10993POPC   PO468748  26.844  43.139   5.855
10993POPC   GL168749  26.860  43.139   6.155
10993POPC   GL268750  26.658  43.192   6.155
10993POPC   C1A68751  26.802  43.070   6.455
10993POPC   D2A68752  26.823  43.149   6.755
10993POPC   C3A68753  26.781  43.085   7.055
10993POPC   C4A68754  26.845  43.150   7.355
10993POPC   C1B68755  26.538  43.182   6.455
10993POPC   C2B68756  26.553  43.140   6.755
10993POPC   C3B68757  26.623  43.216   7.055
10993POPC   C4B68758  26.547  43.133   7.355
10994POPC   NC368759  15.979  15.187   5.555
10994POPC   PO468760  15.962  15.138   5.855
10994POPC   GL168761  15.932  15.194   6.155
10994POPC   GL268762  15.972  15.286   6.155
10994POPC   C1A68763  16.000  15.148   6.455
10994POPC   D2A68764  15.994  15.157   6.755
10994POPC   C3A68765  15.951  15.199   7.055
10994POPC   C4A68766  15.979  15.170   7.355
10994POPC   C1B68767  16.021  15.394   6.455
10994POPC   C2B68768  15.969  15.456   6.755
10994POPC   C3B68769  15.999  15.474   7.055
10994POPC   C4B68770  16.021  15.379   7.355
10995POPC   NC368771  26.053  28.394   5.555
10995POPC   PO468772  26.088  28.384   5.855
10995POPC   GL168773  26.087  28.418   6.155
10995POPC   GL268774  25.960  28.501   6.155
10995POPC   C1A68775  26.004  28.371   6.455
10995POPC   D2A68776  26.068  28.408   6.755
10995POPC   C3A68777  26.061  28.382   7.055
10995POPC   C4A68778  26.061  28.374   7.355
10995POPC   C1B68779  25.962  28.576   6.455
10995POPC   C2B68780  25.879  28.614   6.755
10995POPC   C3B68781  25.884  28.602   7.055
10995POPC   C4B68782  25.958  28.589   7.355
10996POPC   NC368783  26.033   9.703   5.555
10996POPC   PO468784  26.089   9.742   5.855
10996POPC   GL168785  26.014   9.704   6.155
10996POPC   GL268786  26.074   9.621   6.155
10996POPC   C1A68787  25.991   9.759   6.455
10996POPC   D2A68788  26.000   9.758   6.755
10996POPC   C3A68789  26.068   9.788   7.055
10996POPC   C4A68790  26.001   9.797   7.355
10996POPC   C1B68791  26.147   9.468   6.455
10996POPC   C2B68792  26.058   9.505   6.755
10996POPC   C3B68793  26.127   9.474   7.055
10996POPC   C4B68794  26.141   9.468   7.355
10997POPC   NC368795  40.035  23.741   5.555
10997POPC   PO468796  39.957  23.719   5.855
10997POPC   GL168797  40.053  23.696   6.155
10997POPC   GL268798  40.079  23.820   6.155
10997POPC   C1A68799  40.036  23.709   6.455
10997POPC   D2A68800  40.054  23.727   6.755
10997POPC   C3A68801  40.055  23.697   7.055
10997POPC   C4A68802  39.972  23.755   7.355
10997POPC   C1B68803  40.205  23.925   6.455
10997POPC   C2B68804  40.169  23.952   6.755
10997POPC   C3B68805  40.185  23.949   7.055
10997POPC   C4B68806  40.122  23.942   7.355
10998POPC   NC368807  40.806  44.671   5.555
10998POPC   PO468808  40.742  44.681   5.855
10998POPC   GL168809  40.776  44.620   6.155
10998POPC   GL268810  40.670  44.512   6.155
10998POPC   C1A68811  40.774  44.709   6.455
10998POPC   D2A68812  40.736  44.701   6.755
10998POPC   C3A68813  40.802  44.684   7.055
10998POPC   C4A68814  40.789  44.682   7.355
10998POPC   C1B68815  40.642  44.500   6.455
10998POPC   C2B68816  40.630  44.502   6.755
10998POPC   C3B68817  40.599  44.442   7.055
10998POPC   C4B68818  40.598  44.415   7.355
10999POPC   NC368819  38.504  39.253   5.555
10999POPC   PO468820  38.460  39.231   5.855
10999POPC   GL168821  38.416  39.204   6.155
10999POPC   GL268822  38.615  39.223   6.155
10999POPC   C1A68823  38.472  39.251   6.455
10999POPC   D2A68824  38.464  39.215   6.755
10999POPC   C3A68825  38.446  39.207   7.055
10999POPC   C4A68826  38.425  39.247   7.355
10999POPC   C1B68827  38.672  39.159   6.455
10999POPC   C2B68828  38.662  39.146   6.755
10999POPC   C3B68829  38.655  39.129   7.055
10999POPC   C4B68830  38.706  39.109   7.355
11000POPC   NC368831  34.586  41.606   5.555
11000POPC   PO468832  34.572  41.569   5.855
11000POPC   GL168833  34.542  41.542   6.155
11000POPC   GL268834  34.534  41.517   6.155
11000POPC   C1A68835  34.526  41.515   6.455
11000POPC   D2A68836  34.564  41.591   6.755
11000POPC   C3A68837  34.609  41.557   7.055
11000POPC   C4A68838  34.546  41.510   7.355
11000POPC   C1B68839  34.399  41.417   6.455
11000POPC   C2B68840  34.431  41.394   6.755
11000POPC   C3B68841  34.369  41.332   7.055
11000POPC   C4B68842  34.368  41.327   7.355
11001POPC   NC368843  27.609   4.361   5.555
11001POPC   PO468844  27.636   4.326   5.855
11001POPC   GL168845  27.624   4.330   6.155
11001POPC   GL268846  27.554   4.235   6.155
11001POPC   C1A68847  27.615   4.359   6.455
11001POPC   D2A68848  27.546   4.329   6.755
11001POPC   C3A68849  27.595   4.284   7.055
11001POPC   C4A68850  27.605   4.315   7.355
11001POPC   C1B68851  27.466   4.122   6.455
11001POPC   C2B68852  27.433   4.082   6.755
11001POPC   C3B68853  27.449   4.160   7.055
11001POPC   C4B68854  27.450   4.154   7.355
11002POPC   NC368855  26.842  30.687   5.555
11002POPC   PO468856  26.796  30.700   5.855
11002POPC   GL168857  26.858  30.675   6.155
11002POPC   GL268858  26.887  30.551   6.155
11002POPC   C1A68859  26.861  30.705   6.455
11002POPC   D2A68860  26.793  30.694   6.755
11002POPC   C3A68861  26.797  30.663   7.055
11002POPC   C4A68862  26.773  30.693   7.355
11002POPC   C1B68863  26.892  30.439   6.455
11002POPC   C2B68864  26.879  30.468   6.755
11002POPC   C3B68865  26.883  30.474   7.055
11002POPC   C4B68866  26.892  30.425   7.355
11003POPC   NC368867  42.289  42.383   5.555
11003POPC   PO468868  42.305  42.300   5.855
11003POPC   GL168869  42.307  42.371   6.155
11003POPC   GL268870  42.160  42.326   6.155
11003POPC   C1A68871  42.357  42.384   6.455
11003POPC   D2A68872  42.308  42.369   6.755
11003POPC   C3A68873  42.298  42.360   7.055
11003POPC   C4A68874  42.370  42.362   7.355
11003POPC   C1B68875  42.041  42.291   6.455
11003POPC   C2B68876  42.038  42.289   6.755
11003POPC   C3B68877  42.057  42.311   7.055
11003POPC   C4B68878  42.036  42.313   7.355
11004POPC   NC368879  33.813  39.195   5.555
11004POPC   PO468880  33.841  39.272   5.855
11004POPC   GL168881  33.814  39.241   6.155
11004POPC   GL268882  33.916  39.331   6.155
11004POPC   C1A68883  33.810  39.258   6.455
11004POPC   D2A68884  33.828  39.187   6.755
11004POPC   C3A68885  33.806  39.206   7.055
11004POPC   C4A68886  33.758  39.279   7.355
11004POPC   C1B68887  33.946  39.369   6.455
11004POPC   C2B68888  33.975  39.350   6.755
11004POPC   C3B68889  34.010  39.383   7.055
11004POPC   C4B68890  34.008  39.347   7.355
11005POPC   NC368891  39.206  13.636   5.555
11005POPC   PO468892  39.215  13.631   5.855
11005POPC   GL168893  39.189  13.660   6.155
11005POPC   GL268894  39.202  13.738   6.155
11005POPC   C1A68895  39.245  13.607   6.455
11005POPC   D2A68896  39.233  13.670   6.755
11005POPC   C3A68897  39.221  13.597   7.055
11005POPC   C4A68898  39.244  13.611   7.355
11005POPC   C1B68899  39.122  13.790   6.455
11005POPC   C2B68900  39.134  13.841   6.755
11005POPC   C3B68901  39.113  13.791   7.055
11005POPC   C4B68902  39.058  13.863   7.355
11006POPC   NC368903  15.139  32.977   5.555
11006POPC   PO468904  15.228  33.007   5.855
11006POPC   GL168905  15.139  33.072   6.155
11006POPC   GL268906  15.283  33.128   6.155
11006POPC   C1A68907  15.143  32.996   6.455
11006POPC   D2A68908  15.210  33.042   6.755
11006POPC   C3A68909  15.154  32.978   7.055
11006POPC   C4A68910  15.147  32.977   7.355
11006POPC   C1B68911  15.378  33.126   6.455
11006POPC   C2B68912  15.344  33.170   6.755
11006POPC   C3B68913  15.364  33.156   7.055
11006POPC   C4B68914  15.350  33.165   7.355
11007POPC   NC368915  34.616  19.844   5.555
11007POPC   PO468916  34.550  19.857   5.855
11007POPC   GL168917  34.583  19.879   6.155
11007POPC   GL268918  34.662  19.878   6.155
11007POPC   C1A68919  34.594  19.856   6.455
11007POPC   D2A68920  34.529  19.793   6.755
11007POPC   C3A68921  34.603  19.872   7.055
11007POPC   C4A68922  34.588  19.830   7.355
11007POPC   C1B68923  34.803  20.021   6.455
11007POPC   C2B68924  34.801  19.975   6.755
11007POPC   C3B68925  34.772  20.020   7.055
11007POPC   C4B68926  34.829  19.991   7.355
11008POPC   NC368927  31.472  16.776   5.555
11008POPC   PO468928  31.448  16.738   5.855
11008POPC   GL168929  31.462  16.720   6.155
11008POPC   GL268930  31.538  16.596   6.155
11008POPC   C1A68931  31.513  16.732   6.455
11008POPC   D2A68932  31.448  16.755   6.755
11008POPC   C3A68933  31.483  16.724   7.055
11008POPC   C4A68934  31.473  16.775   7.355
11008POPC   C1B68935  31.505  16.510   6.455
11008POPC   C2B68936  31.500  16.523   6.755
11008POPC   C3B68937  31.498  16.447   7.055
11008POPC   C4B68938  31.549  16.527   7.355
11009POPC   NC368939  43.105  43.858   5.555
11009POPC   PO468940  43.075  43.924   5.855
11009POPC   GL168941  43.137  43.930   6.155
11009POPC   GL268942  43.058  44.009   6.155
11009POPC   C1A68943  43.156  43.931   6.455
11009POPC   D2A68944  43.149  43.925   6.755
11009POPC   C3A68945  43.147  43.837   7.055
11009POPC   C4A68946  43.111  43.897   7.355
11009POPC   C1B68947  43.000  44.062   6.455
11009POPC   C2B68948  42.942  44.087   6.755
11009POPC   C3B68949  42.965  44.123   7.055
11009POPC   C4B68950  43.014  44.109   7.355
11010POPC   NC368951   5.853  19.104   5.555
11010POPC   PO468952   5.866  19.082   5.855
11010POPC   GL168953   5.839  19.036   6.155
11010POPC   GL268954   5.879  19.136   6.155
11010POPC   C1A68955   5.845  19.010   6.455
11010POPC   D2A68956   5.871  19.015   6.755
11010POPC   C3A68957   5.866  19.085   7.055
11010POPC   C4A68958   5.840  19.072   7.355
11010POPC   C1B68959   5.891  19.352   6.455
11010POPC   C2B68960   5.866  19.276   6.755
11010POPC   C3B68961   5.928  19.262   7.055
11010POPC   C4B68962   5.864  19.284   7.355
11011POPC   NC368963  30.700  22.151   5.555
11011POPC   PO468964  30.705  22.131   5.855
11011POPC   GL168965  30.651  22.123   6.155
11011POPC   GL268966  30.775  22.132   6.155
11011POPC   C1A68967  30.727  22.199   6.455
11011POPC   D2A68968  30.650  22.211   6.755
11011POPC   C3A68969  30.701  22.203   7.055
11011POPC   C4A68970  30.678  22.203   7.355
11011POPC   C1B68971  30.874  22.091   6.455
11011POPC   C2B68972  30.894  22.094   6.755
11011POPC   C3B68973  30.899  22.086   7.055
11011POPC   C4B68974  30.959  22.099   7.355
11012POPC   NC368975  16.002   5.918   5.555
11012POPC   PO468976  16.003   5.862   5.855
11012POPC   GL168977  15.905   5.903   6.155
11012POPC   GL268978  15.894   5.969   6.155
11012POPC   C1A68979  15.930   5.908   6.455
11012POPC   D2A68980  15.930   5.833   6.755
11012POPC   C3A68981  15.936   5.848   7.055
11012POPC   C4A68982  15.912   5.914   7.355
11012POPC   C1B68983  15.764   6.063   6.455
11012POPC   C2B68984  15.746   6.001   6.755
11012POPC   C3B68985  15.747   5.991   7.055
11012POPC   C4B68986  15.786   5.985   7.355
11013POPC   NC368987  29.142  43.836   5.555
11013POPC   PO468988  29.111  43.891   5.855
11013POPC   GL168989  29.130  43.857   6.155
11013POPC   GL268990  29.200  43.728   6.155
11013POPC   C1A68991  29.110  43.870   6.455
11013POPC   D2A68992  29.110  43.915   6.755
11013POPC   C3A68993  29.165  43.888   7.055
11013POPC   C4A68994  29.170  43.874   7.355
11013POPC   C1B68995  29.177  43.675   6.455
11013POPC   C2B68996  29.192  43.593   6.755
11013POPC   C3B68997  29.202  43.678   7.055
11013POPC   C4B68998  29.197  43.605   7.355
11014POPC   NC368999  12.826  20.561   5.555
11014POPC   PO469000  12.812  20.593   5.855
11014POPC   GL169001  12.884  20.563   6.155
11014POPC   GL269002  12.743  20.747   6.155
11014POPC   C1A69003  12.834  20.632   6.455
11014POPC   D2A69004  12.892  20.611   6.755
11014POPC   C3A69005  12.901  20.584   7.055
11014POPC   C4A69006  12.813  20.640   7.355
11014POPC   C1B69007  12.668  20.784   6.455
11014POPC   C2B69008  12.740  20.860   6.755
11014POPC   C3B69009  12.725  20.783   7.055
11014POPC   C4B69010  12.700  20.834   7.355
11015POPC   NC369011  18.250  25.309   5.555
11015POPC   PO469012  18.318  25.251   5.855
11015POPC   GL169013  18.266  25.311   6.155
11015POPC   GL269014  18.312  25.174   6.155
11015POPC   C1A69015  18.271  25.269   6.455
11015POPC   D2A69016  18.286  25.281   6.755
11015POPC   C3A69017  18.235  25.230   7.055
11015POPC   C4A69018  18.310  25.305   7.355
11015POPC   C1B69019  18.312  24.996   6.455
11015POPC   C2B69020  18.247  25.002   6.755
11015POPC   C3B69021  18.252  25.056   7.055
11015POPC   C4B69022  18.248  25.007   7.355
11016POPC   NC369023  28.388   6.693   5.555
11016POPC   PO469024  28.359   6.610   5.855
11016POPC   GL169025  28.347   6.647   6.155
11016POPC   GL269026  28.472   6.773   6.155
11016POPC   C1A69027  28.323   6.677   6.455
11016POPC   D2A69028  28.417   6.633   6.755
11016POPC   C3A69029  28.399   6.606   7.055
11016POPC   C4A69030  28.336   6.689   7.355
11016POPC   C1B69031  28.559   6.830   6.455
11016POPC   C2B69032  28.530   6.848   6.755
11016POPC   C3B69033  28.503   6.803   7.055
11016POPC   C4B69034  28.513   6.844   7.355
11017POPC   NC369035  22.987  38.459   5.555
11017POPC   PO469036  22.962  38.501   5.855
11017POPC   GL169037  22.965  38.501   6.155
11017POPC   GL269038  22.992  38.576   6.155
11017POPC   C1A69039  22.925  38.439   6.455
11017POPC   D2A69040  22.893  38.425   6.755
11017POPC   C3A69041  22.903  38.467   7.055
11017POPC   C4A69042  22.963  38.502   7.355
11017POPC   C1B69043  22.987  38.689   6.455
11017POPC   C2B69044  22.981  38.670   6.755
11017POPC   C3B69045  22.993  38.708   7.055
11017POPC   C4B69046  22.957  38.748   7.355
11018POPC   NC369047  11.256  40.832   5.555
11018POPC   PO469048  11.277  40.747   5.855
11018POPC   GL169049  11.264  40.735   6.155
11018POPC   GL269050  11.429  40.716   6.155
11018POPC   C1A69051  11.308  40.810   6.455
11018POPC   D2A69052  11.260  40.745   6.755
11018POPC   C3A69053  11.270  40.759   7.055
11018POPC   C4A69054  11.329  40.759   7.355
11018POPC   C1B69055  11.515  40.607   6.455
11018POPC   C2B69056  11.515  40.638   6.755
11018POPC   C3B69057  11.425  40.557   7.055
11018POPC   C4B69058  11.508  40.616   7.355
11019POPC   NC369059  43.916  38.499   5.555
11019POPC   PO469060  43.854  38.501   5.855
11019POPC   GL169061  43.872  38.475   6.155
11019POPC   GL269062  43.806  38.401   6.155
11019POPC   C1A69063  43.875  38.499   6.455
11019POPC   D2A69064  43.925  38.477   6.755
11019POPC   C3A69065  43.853  38.408   7.055
11019POPC   C4A69066  43.879  38.435   7.355
11019POPC   C1B69067  43.679  38.262   6.455
11019POPC   C2B69068  43.721  38.293   6.755
11019POPC   C3B69069  43.737  38.307   7.055
11019POPC   C4B69070  43.670  38.280   7.355
11020POPC   NC369071  12.885  25.225   5.555
11020POPC   PO469072  12.825  25.304   5.855
11020POPC   GL169073  12.862  25.255   6.155
11020POPC   GL269074  12.907  25.379   6.155
11020POPC   C1A69075  12.902  25.261   6.455
11020POPC   D2A69076  12.898  25.246   6.755
11020POPC   C3A69077  12.858  25.313   7.055
11020POPC   C4A69078  12.885  25.228   7.355
11020POPC   C1B69079  12.854  25.474   6.455
11020POPC   C2B69080  12.872  25.540   6.755
11020POPC   C3B69081  12.930  25.555   7.055
11020POPC   C4B69082  12.933  25.536   7.355
11021POPC   NC369083  28.391  44.674   5.555
11021POPC   PO469084  28.386  44.665   5.855
11021POPC   GL169085  28.363  44.695   6.155
11021POPC   GL269086  28.280  44.604   6.155
11021POPC   C1A69087  28.342  44.653   6.455
11021POPC   D2A69088  28.375  44.689   6.755
11021POPC   C3A69089  28.386  44.639   7.055
11021POPC   C4A69090  28.366  44.698   7.355
11021POPC   C1B69091  28.229  44.441   6.455
11021POPC   C2B69092  28.174  44.513   6.755
11021POPC   C3B69093  28.195  44.471   7.055
11021POPC   C4B69094  28.168  44.507   7.355
11022POPC   NC369095   3.515  12.054   5.555
11022POPC   PO469096   3.518  12.059   5.855
11022POPC   GL169097   3.510  12.065   6.155
11022POPC   GL269098   3.520  11.994   6.155
11022POPC   C1A69099   3.579  12.108   6.455
11022POPC   D2A69100   3.548  12.065   6.755
11022POPC   C3A69101   3.579  12.030   7.055
11022POPC   C4A69102   3.512  12.065   7.355
11022POPC   C1B69103   3.557  11.801   6.455
11022POPC   C2B69104   3.587  11.805   6.755
11022POPC   C3B69105   3.557  11.872   7.055
11022POPC   C4B69106   3.569  11.842   7.355
11023POPC   NC369107  32.281  13.648   5.555
11023POPC   PO469108  32.282  13.625   5.855
11023POPC   GL169109  32.286  13.592   6.155
11023POPC   GL269110  32.144  13.547   6.155
11023POPC   C1A69111  32.271  13.603   6.455
11023POPC   D2A69112  32.286  13.668   6.755
11023POPC   C3A69113  32.257  13.666   7.055
11023POPC   C4A69114  32.219  13.596   7.355
11023POPC   C1B69115  32.124  13.397   6.455
11023POPC   C2B69116  32.071  13.415   6.755
11023POPC   C3B69117  32.097  13.431   7.055
11023POPC   C4B69118  32.047  13.480   7.355
11024POPC   NC369119  15.922  36.095   5.555
11024POPC   PO469120  15.966  36.144   5.855
11024POPC   GL169121  15.957  36.157   6.155
11024POPC   GL269122  15.814  36.013   6.155
11024POPC   C1A69123  15.968  36.125   6.455
11024POPC   D2A69124  16.004  36.108   6.755
11024POPC   C3A69125  15.999  36.080   7.055
11024POPC   C4A69126  15.938  36.107   7.355
11024POPC   C1B69127  15.738  35.973   6.455
11024POPC   C2B69128  15.813  35.930   6.755
11024POPC   C3B69129  15.805  35.935   7.055
11024POPC   C4B69130  15.809  35.939   7.355
11025POPC   NC369131  15.215  37.676   5.555
11025POPC   PO469132  15.141  37.644   5.855
11025POPC   GL169133  15.166  37.683   6.155
11025POPC   GL269134  15.205  37.514   6.155
11025POPC   C1A69135  15.202  37.714   6.455
11025POPC   D2A69136  15.132  37.633   6.755
11025POPC   C3A69137  15.213  37.712   7.055
11025POPC   C4A69138  15.133  37.633   7.355
11025POPC   C1B69139  15.266  37.406   6.455
11025POPC   C2B69140  15.246  37.418   6.755
11025POPC   C3B69141  15.222  37.463   7.055
11025POPC   C4B69142  15.288  37.476   7.355
11026POPC   NC369143  15.927  43.083   5.555
11026POPC   PO469144  15.989  43.110   5.855
11026POPC   GL169145  15.959  43.123   6.155
11026POPC   GL269146  15.873  43.074   6.155
11026POPC   C1A69147  15.931  43.115   6.455
11026POPC   D2A69148  15.978  43.072   6.755
11026POPC   C3A69149  15.954  43.127   7.055
11026POPC   C4A69150  15.982  43.098   7.355
11026POPC   C1B69151  15.702  43.089   6.455
11026POPC   C2B69152  15.699  43.124   6.755
11026POPC   C3B69153  15.735  43.085   7.055
11026POPC   C4B69154  15.745  43.123   7.355
11027POPC   NC369155  11.256  34.586   5.555
11027POPC   PO469156  11.313  34.595   5.855
11027POPC   GL169157  11.287  34.528   6.155
11027POPC   GL269158  11.201  34.574   6.155
11027POPC   C1A69159  11.347  34.543   6.455
11027POPC   D2A69160  11.262  34.532   6.755
11027POPC   C3A69161  11.324  34.605   7.055
11027POPC   C4A69162  11.292  34.595   7.355
11027POPC   C1B69163  11.084  34.575   6.455
11027POPC   C2B69164  11.049  34.564   6.755
11027POPC   C3B69165  11.072  34.556   7.055
11027POPC   C4B69166  11.037  34.566   7.355
11028POPC   NC369167  39.206  40.745   5.555
11028POPC   PO469168  39.192  40.737   5.855
11028POPC   GL169169  39.217  40.787   6.155
11028POPC   GL269170  39.284  40.884   6.155
11028POPC   C1A69171  39.224  40.822   6.455
11028POPC   D2A69172  39.221  40.757   6.755
11028POPC   C3A69173  39.201  40.788   7.055
11028POPC   C4A69174  39.212  40.785   7.355
11028POPC   C1B69175  39.323  40.962   6.455
11028POPC   C2B69176  39.350  41.028   6.755
11028POPC   C3B69177  39.315  40.974   7.055
11028POPC   C4B69178  39.311  40.957   7.355
11029POPC   NC369179   2.013  33.788   5.555
11029POPC   PO469180   2.017  33.845   5.855
11029POPC   GL169181   1.965  33.765   6.155
11029POPC   GL269182   1.839  33.768   6.155
11029POPC   C1A69183   2.033  33.845   6.455
11029POPC   D2A69184   2.012  33.828   6.755
11029POPC   C3A69185   1.974  33.771   7.055
11029POPC   C4A69186   1.983  33.814   7.355
11029POPC   C1B69187   1.789  33.786   6.455
11029POPC   C2B69188   1.762  33.843   6.755
11029POPC   C3B69189   1.706  33.855   7.055
11029POPC   C4B69190   1.789  33.773   7.355
11030POPC   NC369191  29.119  42.328   5.555
11030POPC   PO469192  29.097  42.372   5.855
11030POPC   GL169193  29.113  42.328   6.155
11030POPC   GL269194  29.088  42.239   6.155
11030POPC   C1A69195  29.146  42.311   6.455
11030POPC   D2A69196  29.190  42.350   6.755
11030POPC   C3A69197  29.124  42.313   7.055
11030POPC   C4A69198  29.165  42.317   7.355
11030POPC   C1B69199  29.024  42.177   6.455
11030POPC   C2B69200  28.940  42.126   6.755
11030POPC   C3B69201  28.942  42.179   7.055
11030POPC   C4B69202  28.992  42.173   7.355
11031POPC   NC369203   6.628   1.983   5.555
11031POPC   PO469204   6.686   2.013   5.855
11031POPC   GL169205   6.621   2.032   6.155
11031POPC   GL269206   6.526   1.935   6.155
11031POPC   C1A69207   6.686   1.949   6.455
11031POPC   D2A69208   6.640   1.981   6.755
11031POPC   C3A69209   6.670   2.019   7.055
11031POPC   C4A69210   6.694   1.989   7.355
11031POPC   C1B69211   6.387   1.864   6.455
11031POPC   C2B69212   6.387   1.889   6.755
11031POPC   C3B69213   6.419   1.896   7.055
11031POPC   C4B69214   6.420   1.874   7.355
11032POPC   NC369215  15.978  20.587   5.555
11032POPC   PO469216  15.960  20.568   5.855
11032POPC   GL169217  15.973  20.568   6.155
11032POPC   GL269218  16.086  20.587   6.155
11032POPC   C1A69219  15.966  20.581   6.455
11032POPC   D2A69220  15.926  20.612   6.755
11032POPC   C3A69221  15.930  20.579   7.055
11032POPC   C4A69222  16.005  20.591   7.355
11032POPC   C1B69223  16.192  20.479   6.455
11032POPC   C2B69224  16.169  20.524   6.755
11032POPC   C3B69225  16.214  20.469   7.055
11032POPC   C4B69226  16.129  20.517   7.355
11033POPC   NC369227  15.959  35.310   5.555
11033POPC   PO469228  15.999  35.319   5.855
11033POPC   GL169229  15.939  35.335   6.155
11033POPC   GL269230  15.934  35.270   6.155
11033POPC   C1A69231  15.989  35.373   6.455
11033POPC   D2A69232  15.971  35.353   6.755
11033POPC   C3A69233  15.936  35.321   7.055
11033POPC   C4A69234  15.988  35.368   7.355
11033POPC   C1B69235  15.935  35.109   6.455
11033POPC   C2B69236  15.944  35.074   6.755
11033POPC   C3B69237  15.981  35.112   7.055
11033POPC   C4B69238  16.025  35.128   7.355
11034POPC   NC369239  32.976  44.657   5.555
11034POPC   PO469240  33.031  44.657   5.855
11034POPC   GL169241  33.016  44.646   6.155
11034POPC   GL269242  33.116  44.709   6.155
11034POPC   C1A69243  32.995  44.689   6.455
11034POPC   D2A69244  33.032  44.670   6.755
11034POPC   C3A69245  33.019  44.677   7.055
11034POPC   C4A69246  33.041  44.616   7.355
11034POPC   C1B69247  33.280  44.783   6.455
11034POPC   C2B69248  33.246  44.814   6.755
11034POPC   C3B69249  33.208  44.803   7.055
11034POPC   C4B69250  33.275  44.757   7.355
11035POPC   NC369251  16.690   0.432   5.555
11035POPC   PO469252  16.747   0.414   5.855
11035POPC   GL169253  16.717   0.435   6.155
11035POPC   GL269254  16.664   0.448   6.155
11035POPC   C1A69255  16.690   0.472   6.455
11035POPC   D2A69256  16.724   0.412   6.755
11035POPC   C3A69257  16.761   0.425   7.055
11035POPC   C4A69258  16.763   0.388   7.355
11035POPC   C1B69259  16.481   0.560   6.455
11035POPC   C2B69260  16.475   0.519   6.755
11035POPC   C3B69261  16.546   0.577   7.055
11035POPC   C4B69262  16.511   0.603   7.355
11036POPC   NC369263  39.237  35.350   5.555
11036POPC   PO469264  39.214  35.334   5.855
11036POPC   GL169265  39.190  35.401   6.155
11036POPC   GL269266  39.200  35.403   6.155
11036POPC   C1A69267  39.268  35.330   6.455
11036POPC   D2A69268  39.211  35.367   6.755
11036POPC   C3A69269  39.242  35.353   7.055
11036POPC   C4A69270  39.198  35.339   7.355
11036POPC   C1B69271  39.087  35.586   6.455
11036POPC   C2B69272  39.057  35.518   6.755
11036POPC   C3B69273  39.078  35.533   7.055
11036POPC   C4B69274  39.047  35.558   7.355
11037POPC   NC369275  11.270  16.727   5.555
11037POPC   PO469276  11.264  16.757   5.855
11037POPC   GL169277  11.326  16.681   6.155
11037POPC   GL269278  11.297  16.816   6.155
11037POPC   C1A69279  11.306  16.683   6.455
11037POPC   D2A69280  11.286  16.711   6.755
11037POPC   C3A69281  11.276  16.729   7.055
11037POPC   C4A69282  11.259  16.720   7.355
11037POPC   C1B69283  11.267  17.019   6.455
11037POPC   C2B69284  11.259  16.960   6.755
11037POPC   C3B69285  11.269  16.982   7.055
11037POPC   C4B69286  11.301  16.967   7.355
11038POPC   NC369287  29.126  29.915   5.555
11038POPC   PO469288  29.174  29.909   5.855
11038POPC   GL169289  29.194  29.945   6.155
11038POPC   GL269290  29.245  29.841   6.155
11038POPC   C1A69291  29.184  29.966   6.455
11038POPC   D2A69292  29.115  29.891   6.755
11038POPC   C3A69293  29.186  29.899   7.055
11038POPC   C4A69294  29.163  29.897   7.355
11038POPC   C1B69295  29.360  29.857   6.455
11038POPC   C2B69296  29.383  29.865   6.755
11038POPC   C3B69297  29.380  29.807   7.055
11038POPC   C4B69298  29.347  29.835   7.355
11039POPC   NC369299  28.389  12.852   5.555
11039POPC   PO469300  28.336  12.846   5.855
11039POPC   GL169301  28.336  12.848   6.155
11039POPC   GL269302  28.334  12.979   6.155
11039POPC   C1A69303  28.363  12.870   6.455
11039POPC   D2A69304  28.411  12.873   6.755
11039POPC   C3A69305  28.371  12.827   7.055
11039POPC   C4A69306  28.409  12.895   7.355
11039POPC   C1B69307  28.271  13.050   6.455
11039POPC   C2B69308  28.244  13.055   6.755
11039POPC   C3B69309  28.259  13.098   7.055
11039POPC   C4B69310  28.286  13.088   7.355
11040POPC   NC369311  16.703  26.029   5.555
11040POPC   PO469312  16.752  26.079   5.855
11040POPC   GL169313  16.728  26.034   6.155
11040POPC   GL269314  16.615  26.013   6.155
11040POPC   C1A69315  16.745  26.091   6.455
11040POPC   D2A69316  16.774  26.001   6.755
11040POPC   C3A69317  16.740  26.056   7.055
11040POPC   C4A69318  16.736  26.015   7.355
11040POPC   C1B69319  16.552  25.982   6.455
11040POPC   C2B69320  16.513  25.907   6.755
11040POPC   C3B69321  16.465  25.907   7.055
11040POPC   C4B69322  16.461  25.900   7.355
11041POPC   NC369323  36.908  37.683   5.555
11041POPC   PO469324  36.942  37.724   5.855
11041POPC   GL169325  36.938  37.688   6.155
11041POPC   GL269326  36.990  37.596   6.155
11041POPC   C1A69327  36.878  37.644   6.455
11041POPC   D2A69328  36.895  37.651   6.755
11041POPC   C3A69329  36.892  37.719   7.055
11041POPC   C4A69330  36.931  37.703   7.355
11041POPC   C1B69331  37.047  37.479   6.455
11041POPC   C2B69332  37.057  37.456   6.755
11041POPC   C3B69333  37.029  37.453   7.055
11041POPC   C4B69334  37.031  37.408   7.355
11042POPC   NC369335  29.158   5.078   5.555
11042POPC   PO469336  29.184   5.057   5.855
11042POPC   GL169337  29.188   5.141   6.155
11042POPC   GL269338  29.059   5.207   6.155
11042POPC   C1A69339  29.185   5.105   6.455
11042POPC   D2A69340  29.124   5.064   6.755
11042POPC   C3A69341  29.126   5.123   7.055
11042POPC   C4A69342  29.145   5.059   7.355
11042POPC   C1B69343  28.888   5.190   6.455
11042POPC   C2B69344  28.884   5.216   6.755
11042POPC   C3B69345  28.915   5.203   7.055
11042POPC   C4B69346  28.979   5.217   7.355
11043POPC   NC369347  13.609  42.320   5.555
11043POPC   PO469348  13.664  42.292   5.855
11043POPC   GL169349  13.585  42.368   6.155
11043POPC   GL269350  13.542  42.237   6.155
11043POPC   C1A69351  13.584  42.322   6.455
11043POPC   D2A69352  13.582  42.341   6.755
11043POPC   C3A69353  13.645  42.331   7.055
11043POPC   C4A69354  13.606  42.326   7.355
11043POPC   C1B69355  13.458  42.166   6.455
11043POPC   C2B69356  13.514  42.122   6.755
11043POPC   C3B69357  13.547  42.090   7.055
11043POPC   C4B69358  13.530  42.115   7.355
11044POPC   NC369359  22.928  27.571   5.555
11044POPC   PO469360  22.980  27.619   5.855
11044POPC   GL169361  22.907  27.595   6.155
11044POPC   GL269362  22.930  27.523   6.155
11044POPC   C1A69363  22.983  27.546   6.455
11044POPC   D2A69364  22.944  27.572   6.755
11044POPC   C3A69365  22.912  27.588   7.055
11044POPC   C4A69366  22.942  27.615   7.355
11044POPC   C1B69367  22.813  27.358   6.455
11044POPC   C2B69368  22.876  27.357   6.755
11044POPC   C3B69369  22.807  27.322   7.055
11044POPC   C4B69370  22.860  27.370   7.355
11045POPC   NC369371   7.402  35.325   5.555
11045POPC   PO469372   7.435  35.396   5.855
11045POPC   GL169373   7.452  35.302   6.155
11045POPC   GL269374   7.490  35.320   6.155
11045POPC   C1A69375   7.378  35.318   6.455
11045POPC   D2A69376   7.377  35.361   6.755
11045POPC   C3A69377   7.438  35.361   7.055
11045POPC   C4A69378   7.465  35.324   7.355
11045POPC   C1B69379   7.683  35.229   6.455
11045POPC   C2B69380   7.693  35.316   6.755
11045POPC   C3B69381   7.620  35.279   7.055
11045POPC   C4B69382   7.622  35.282   7.355
11046POPC   NC369383  28.332  11.271   5.555
11046POPC   PO469384  28.417  11.254   5.855
11046POPC   GL169385  28.345  11.304   6.155
11046POPC   GL269386  28.398  11.407   6.155
11046POPC   C1A69387  28.397  11.333   6.455
11046POPC   D2A69388  28.337  11.270   6.755
11046POPC   C3A69389  28.341  11.332   7.055
11046POPC   C4A69390  28.374  11.323   7.355
11046POPC   C1B69391  28.329  11.520   6.455
11046POPC   C2B69392  28.339  11.533   6.755
11046POPC   C3B69393  28.350  11.519   7.055
11046POPC   C4B69394  28.366  11.540   7.355
11047POPC   NC369395  19.792  39.990   5.555
11047POPC   PO469396  19.843  40.036   5.855
11047POPC   GL169397  19.807  40.003   6.155
11047POPC   GL269398  19.830  39.890   6.155
11047POPC   C1A69399  19.838  40.001   6.455
11047POPC   D2A69400  19.862  40.024   6.755
11047POPC   C3A69401  19.833  39.973   7.055
11047POPC   C4A69402  19.813  40.010   7.355
11047POPC   C1B69403  19.692  39.826   6.455
11047POPC   C2B69404  19.734  39.739   6.755
11047POPC   C3B69405  19.768  39.803   7.055
11047POPC   C4B69406  19.753  39.766   7.355
11048POPC   NC369407  39.212  37.672   5.555
11048POPC   PO469408  39.242  37.719   5.855
11048POPC   GL169409  39.189  37.714   6.155
11048POPC   GL269410  39.344  37.587   6.155
11048POPC   C1A69411  39.272  37.677   6.455
11048POPC   D2A69412  39.204  37.727   6.755
11048POPC   C3A69413  39.248  37.685   7.055
11048POPC   C4A69414  39.229  37.632   7.355
11048POPC   C1B69415  39.403  37.442   6.455
11048POPC   C2B69416  39.392  37.503   6.755
11048POPC   C3B69417  39.420  37.477   7.055
11048POPC   C4B69418  39.333  37.444   7.355
11049POPC   NC369419   3.537  13.590   5.555
11049POPC   PO469420   3.528  13.635   5.855
11049POPC   GL169421   3.554  13.619   6.155
11049POPC   GL269422   3.433  13.672   6.155
11049POPC   C1A69423   3.539  13.638   6.455
11049POPC   D2A69424   3.537  13.673   6.755
11049POPC   C3A69425   3.505  13.597   7.055
11049POPC   C4A69426   3.507  13.615   7.355
11049POPC   C1B69427   3.355  13.801   6.455
11049POPC   C2B69428   3.328  13.819   6.755
11049POPC   C3B69429   3.371  13.791   7.055
11049POPC   C4B69430   3.321  13.782   7.355
11050POPC   NC369431  22.210  42.344   5.555
11050POPC   PO469432  22.119  42.329   5.855
11050POPC   GL169433  22.172  42.291   6.155
11050POPC   GL269434  22.025  42.370   6.155
11050POPC   C1A69435  22.174  42.363   6.455
11050POPC   D2A69436  22.180  42.366   6.755
11050POPC   C3A69437  22.157  42.320   7.055
11050POPC   C4A69438  22.169  42.375   7.355
11050POPC   C1B69439  21.925  42.315   6.455
11050POPC   C2B69440  21.872  42.339   6.755
11050POPC   C3B69441  21.865  42.362   7.055
11050POPC   C4B69442  21.909  42.319   7.355
11051POPC   NC369443  20.615  13.669   5.555
11051POPC   PO469444  20.582  13.673   5.855
11051POPC   GL169445  20.596  13.664   6.155
11051POPC   GL269446  20.703  13.693   6.155
11051POPC   C1A69447  20.600  13.579   6.455
11051POPC   D2A69448  20.614  13.612   6.755
11051POPC   C3A69449  20.590  13.672   7.055
11051POPC   C4A69450  20.603  13.640   7.355
11051POPC   C1B69451  20.819  13.746   6.455
11051POPC   C2B69452  20.888  13.693   6.755
11051POPC   C3B69453  20.821  13.749   7.055
11051POPC   C4B69454  20.829  13.702   7.355
11052POPC   NC369455  26.056  40.007   5.555
11052POPC   PO469456  26.052  40.016   5.855
11052POPC   GL169457  26.060  40.022   6.155
11052POPC   GL269458  26.126  40.012   6.155
11052POPC   C1A69459  26.010  40.041   6.455
11052POPC   D2A69460  26.043  39.984   6.755
11052POPC   C3A69461  26.005  40.025   7.055
11052POPC   C4A69462  26.047  39.998   7.355
11052POPC   C1B69463  26.296  39.945   6.455
11052POPC   C2B69464  26.308  39.969   6.755
11052POPC   C3B69465  26.244  40.004   7.055
11052POPC   C4B69466  26.266  40.005   7.355
11053POPC   NC369467  36.910  14.357   5.555
11053POPC   PO469468  36.914  14.386   5.855
11053POPC   GL169469  36.904  14.406   6.155
11053POPC   GL269470  36.743  14.428   6.155
11053POPC   C1A69471  36.900  14.379   6.455
11053POPC   D2A69472  36.936  14.367   6.755
11053POPC   C3A69473  36.881  14.433   7.055
11053POPC   C4A69474  36.863  14.370   7.355
11053POPC   C1B69475  36.618  14.417   6.455
11053POPC   C2B69476  36.705  14.463   6.755
11053POPC   C3B69477  36.689  14.460   7.055
11053POPC   C4B69478  36.694  14.477   7.355
11054POPC   NC369479  10.546  10.488   5.555
11054POPC   PO469480  10.474  10.571   5.855
11054POPC   GL169481  10.525  10.493   6.155
11054POPC   GL269482  10.580  10.474   6.155
11054POPC   C1A69483  10.523  10.546   6.455
11054POPC   D2A69484  10.553  10.514   6.755
11054POPC   C3A69485  10.481  10.484   7.055
11054POPC   C4A69486  10.524  10.502   7.355
11054POPC   C1B69487  10.693  10.344   6.455
11054POPC   C2B69488  10.753  10.389   6.755
11054POPC   C3B69489  10.768  10.364   7.055
11054POPC   C4B69490  10.694  10.402   7.355
11055POPC   NC369491  27.562  22.205   5.555
11055POPC   PO469492  27.557  22.194   5.855
11055POPC   GL169493  27.598  22.135   6.155
11055POPC   GL269494  27.446  22.095   6.155
11055POPC   C1A69495  27.626  22.138   6.455
11055POPC   D2A69496  27.604  22.187   6.755
11055POPC   C3A69497  27.630  22.173   7.055
11055POPC   C4A69498  27.620  22.137   7.355
11055POPC   C1B69499  27.379  22.155   6.455
11055POPC   C2B69500  27.354  22.150   6.755
11055POPC   C3B69501  27.377  22.080   7.055
11055POPC   C4B69502  27.339  22.113   7.355
11056POPC   NC369503   8.211  14.405   5.555
11056POPC   PO469504   8.201  14.440   5.855
11056POPC   GL169505   8.215  14.435   6.155
11056POPC   GL269506   8.159  14.490   6.155
11056POPC   C1A69507   8.225  14.434   6.455
11056POPC   D2A69508   8.186  14.382   6.755
11056POPC   C3A69509   8.194  14.395   7.055
11056POPC   C4A69510   8.235  14.377   7.355
11056POPC   C1B69511   8.164  14.657   6.455
11056POPC   C2B69512   8.233  14.671   6.755
11056POPC   C3B69513   8.236  14.624   7.055
11056POPC   C4B69514   8.201  14.697   7.355
11057POPC   NC369515  37.689   7.466   5.555
11057POPC   PO469516  37.694   7.431   5.855
11057POPC   GL169517  37.691   7.446   6.155
11057POPC   GL269518  37.838   7.379   6.155
11057POPC   C1A69519  37.688   7.465   6.455
11057POPC   D2A69520  37.652   7.421   6.755
11057POPC   C3A69521  37.698   7.411   7.055
11057POPC   C4A69522  37.699   7.389   7.355
11057POPC   C1B69523  37.878   7.338   6.455
11057POPC   C2B69524  37.934   7.280   6.755
11057POPC   C3B69525  37.943   7.348   7.055
11057POPC   C4B69526  37.866   7.364   7.355
11058POPC   NC369527   4.317  17.459   5.555
11058POPC   PO469528   4.318  17.535   5.855
11058POPC   GL169529   4.326  17.488   6.155
11058POPC   GL269530   4.223  17.441   6.155
11058POPC   C1A69531   4.295  17.524   6.455
11058POPC   D2A69532   4.367  17.554   6.755
11058POPC   C3A69533   4.342  17.542   7.055
11058POPC   C4A69534   4.293  17.501   7.355
11058POPC   C1B69535   4.130  17.300   6.455
11058POPC   C2B69536   4.166  17.308   6.755
11058POPC   C3B69537   4.131  17.350   7.055
11058POPC   C4B69538   4.155  17.313   7.355
11059POPC   NC369539  15.176  34.582   5.555
11059POPC   PO469540  15.189  34.543   5.855
11059POPC   GL169541  15.217  34.602   6.155
11059POPC   GL269542  15.067  34.543   6.155
11059POPC   C1A69543  15.213  34.621   6.455
11059POPC   D2A69544  15.164  34.591   6.755
11059POPC   C3A69545  15.194  34.597   7.055
11059POPC   C4A69546  15.226  34.581   7.355
11059POPC   C1B69547  14.982  34.448   6.455
11059POPC   C2B69548  14.946  34.401   6.755
11059POPC   C3B69549  14.944  34.475   7.055
11059POPC   C4B69550  14.979  34.403   7.355
11060POPC   NC369551   4.334  40.029   5.555
11060POPC   PO469552   4.290  40.040   5.855
11060POPC   GL169553   4.271  40.020   6.155
11060POPC   GL269554   4.152  39.986   6.155
11060POPC   C1A69555   4.292  40.035   6.455
11060POPC   D2A69556   4.299  39.974   6.755
11060POPC   C3A69557   4.353  40.049   7.055
11060POPC   C4A69558   4.278  39.981   7.355
11060POPC   C1B69559   4.077  40.003   6.455
11060POPC   C2B69560   4.098  40.037   6.755
11060POPC   C3B69561   4.089  39.994   7.055
11060POPC   C4B69562   4.038  39.984   7.355
11061POPC   NC369563  43.111  39.232   5.555
11061POPC   PO469564  43.113  39.195   5.855
11061POPC   GL169565  43.148  39.196   6.155
11061POPC   GL269566  43.236  39.346   6.155
11061POPC   C1A69567  43.141  39.222   6.455
11061POPC   D2A69568  43.096  39.217   6.755
11061POPC   C3A69569  43.071  39.254   7.055
11061POPC   C4A69570  43.105  39.182   7.355
11061POPC   C1B69571  43.224  39.428   6.455
11061POPC   C2B69572  43.242  39.397   6.755
11061POPC   C3B69573  43.257  39.457   7.055
11061POPC   C4B69574  43.311  39.393   7.355
11062POPC   NC369575  31.516   1.987   5.555
11062POPC   PO469576  31.439   1.975   5.855
11062POPC   GL169577  31.491   1.994   6.155
11062POPC   GL269578  31.625   1.953   6.155
11062POPC   C1A69579  31.519   2.002   6.455
11062POPC   D2A69580  31.433   1.992   6.755
11062POPC   C3A69581  31.468   1.987   7.055
11062POPC   C4A69582  31.478   2.019   7.355
11062POPC   C1B69583  31.691   1.955   6.455
11062POPC   C2B69584  31.671   1.896   6.755
11062POPC   C3B69585  31.672   1.928   7.055
11062POPC   C4B69586  31.759   1.961   7.355
11063POPC   NC369587  13.611  29.949   5.555
11063POPC   PO469588  13.665  29.933   5.855
11063POPC   GL169589  13.654  29.931   6.155
11063POPC   GL269590  13.484  29.960   6.155
11063POPC   C1A69591  13.600  29.871   6.455
11063POPC   D2A69592  13.665  29.884   6.755
11063POPC   C3A69593  13.623  29.951   7.055
11063POPC   C4A69594  13.614  29.917   7.355
11063POPC   C1B69595  13.438  30.061   6.455
11063POPC   C2B69596  13.429  30.029   6.755
11063POPC   C3B69597  13.445  30.006   7.055
11063POPC   C4B69598  13.401  30.017   7.355
11064POPC   NC369599  41.563  32.206   5.555
11064POPC   PO469600  41.564  32.228   5.855
11064POPC   GL169601  41.580  32.221   6.155
11064POPC   GL269602  41.672  32.211   6.155
11064POPC   C1A69603  41.573  32.239   6.455
11064POPC   D2A69604  41.583  32.259   6.755
11064POPC   C3A69605  41.511  32.245   7.055
11064POPC   C4A69606  41.517  32.239   7.355
11064POPC   C1B69607  41.770  32.158   6.455
11064POPC   C2B69608  41.753  32.206   6.755
11064POPC   C3B69609  41.814  32.201   7.055
11064POPC   C4B69610  41.767  32.190   7.355
11065POPC   NC369611  19.875  36.898   5.555
11065POPC   PO469612  19.800  36.926   5.855
11065POPC   GL169613  19.819  36.905   6.155
11065POPC   GL269614  19.740  36.822   6.155
11065POPC   C1A69615  19.823  36.865   6.455
11065POPC   D2A69616  19.838  36.890   6.755
11065POPC   C3A69617  19.861  36.913   7.055
11065POPC   C4A69618  19.847  36.876   7.355
11065POPC   C1B69619  19.619  36.878   6.455
11065POPC   C2B69620  19.606  36.844   6.755
11065POPC   C3B69621  19.603  36.876   7.055
11065POPC   C4B69622  19.575  36.816   7.355
11066POPC   NC369623   9.791   3.549   5.555
11066POPC   PO469624   9.780   3.543   5.855
11066POPC   GL169625   9.784   3.576   6.155
11066POPC   GL269626   9.779   3.659   6.155
11066POPC   C1A69627   9.730   3.550   6.455
11066POPC   D2A69628   9.737   3.532   6.755
11066POPC   C3A69629   9.704   3.583   7.055
11066POPC   C4A69630   9.699   3.538   7.355
11066POPC   C1B69631   9.841   3.728   6.455
11066POPC   C2B69632   9.861   3.747   6.755
11066POPC   C3B69633   9.846   3.765   7.055
11066POPC   C4B69634   9.857   3.792   7.355
11067POPC   NC369635  37.632  14.397   5.555
11067POPC   PO469636  37.677  14.378   5.855
11067POPC   GL169637  37.699  14.439   6.155
11067POPC   GL269638  37.718  14.515   6.155
11067POPC   C1A69639  37.657  14.375   6.455
11067POPC   D2A69640  37.670  14.367   6.755
11067POPC   C3A69641  37.710  14.359   7.055
11067POPC   C4A69642  37.713  14.383   7.355
11067POPC   C1B69643  37.863  14.560   6.455
11067POPC   C2B69644  37.839  14.635   6.755
11067POPC   C3B69645  37.811  14.555   7.055
11067POPC   C4B69646  37.833  14.598   7.355
11068POPC   NC369647  33.782  44.654   5.555
11068POPC   PO469648  33.835  44.685   5.855
11068POPC   GL169649  33.776  44.629   6.155
11068POPC   GL269650  33.896  44.516   6.155
11068POPC   C1A69651  33.804  44.614   6.455
11068POPC   D2A69652  33.762  44.681   6.755
11068POPC   C3A69653  33.839  44.708   7.055
11068POPC   C4A69654  33.786  44.625   7.355
11068POPC   C1B69655  33.977  44.454   6.455
11068POPC   C2B69656  33.920  44.447   6.755
11068POPC   C3B69657  33.971  44.494   7.055
11068POPC   C4B69658  33.976  44.460   7.355
11069POPC   NC369659  42.326  43.087   5.555
11069POPC   PO469660  42.372  43.102   5.855
11069POPC   GL169661  42.343  43.126   6.155
11069POPC   GL269662  42.241  43.046   6.155
11069POPC   C1A69663  42.347  43.116   6.455
11069POPC   D2A69664  42.310  43.078   6.755
11069POPC   C3A69665  42.357  43.072   7.055
11069POPC   C4A69666  42.330  43.063   7.355
11069POPC   C1B69667  42.135  42.967   6.455
11069POPC   C2B69668  42.161  42.949   6.755
11069POPC   C3B69669  42.133  42.963   7.055
11069POPC   C4B69670  42.165  42.974   7.355
11070POPC   NC369671  22.197  39.190   5.555
11070POPC   PO469672  22.114  39.275   5.855
11070POPC   GL169673  22.174  39.185   6.155
11070POPC   GL269674  22.039  39.177   6.155
11070POPC   C1A69675  22.114  39.263   6.455
11070POPC   D2A69676  22.141  39.273   6.755
11070POPC   C3A69677  22.144  39.247   7.055
11070POPC   C4A69678  22.197  39.260   7.355
11070POPC   C1B69679  22.037  39.046   6.455
11070POPC   C2B69680  21.965  39.015   6.755
11070POPC   C3B69681  22.031  39.060   7.055
11070POPC   C4B69682  21.966  39.084   7.355
11071POPC   NC369683  22.178   8.961   5.555
11071POPC   PO469684  22.141   8.955   5.855
11071POPC   GL169685  22.162   9.021   6.155
11071POPC   GL269686  22.263   9.043   6.155
11071POPC   C1A69687  22.192   9.013   6.455
11071POPC   D2A69688  22.184   8.961   6.755
11071POPC   C3A69689  22.119   8.928   7.055
11071POPC   C4A69690  22.137   8.974   7.355
11071POPC   C1B69691  22.297   9.219   6.455
11071POPC   C2B69692  22.251   9.191   6.755
11071POPC   C3B69693  22.285   9.160   7.055
11071POPC   C4B69694  22.255   9.234   7.355
11072POPC   NC369695   2.021  36.085   5.555
11072POPC   PO469696   2.014  36.124   5.855
11072POPC   GL169697   2.031  36.104   6.155
11072POPC   GL269698   1.916  36.040   6.155
11072POPC   C1A69699   1.947  36.105   6.455
11072POPC   D2A69700   2.015  36.110   6.755
11072POPC   C3A69701   1.943  36.111   7.055
11072POPC   C4A69702   1.971  36.158   7.355
11072POPC   C1B69703   1.813  35.953   6.455
11072POPC   C2B69704   1.780  35.922   6.755
11072POPC   C3B69705   1.828  35.950   7.055
11072POPC   C4B69706   1.774  35.960   7.355
11073POPC   NC369707  32.238  19.080   5.555
11073POPC   PO469708  32.201  19.080   5.855
11073POPC   GL169709  32.240  19.065   6.155
11073POPC   GL269710  32.358  19.130   6.155
11073POPC   C1A69711  32.234  19.031   6.455
11073POPC   D2A69712  32.240  19.051   6.755
11073POPC   C3A69713  32.199  19.102   7.055
11073POPC   C4A69714  32.249  19.083   7.355
11073POPC   C1B69715  32.358  19.291   6.455
11073POPC   C2B69716  32.342  19.315   6.755
11073POPC   C3B69717  32.357  19.243   7.055
11073POPC   C4B69718  32.377  19.256   7.355
11074POPC   NC369719  13.612  40.767   5.555
11074POPC   PO469720  13.647  40.800   5.855
11074POPC   GL169721  13.585  40.780   6.155
11074POPC   GL269722  13.578  40.906   6.155
11074POPC   C1A69723  13.592  40.734   6.455
11074POPC   D2A69724  13.640  40.814   6.755
11074POPC   C3A69725  13.597  40.826   7.055
11074POPC   C4A69726  13.629  40.740   7.355
11074POPC   C1B69727  13.415  40.915   6.455
11074POPC   C2B69728  13.431  40.949   6.755
11074POPC   C3B69729  13.435  40.974   7.055
11074POPC   C4B69730  13.398  40.948   7.355
11075POPC   NC369731  42.383  25.226   5.555
11075POPC   PO469732  42.301  25.309   5.855
11075POPC   GL169733  42.326  25.286   6.155
11075POPC   GL269734  42.492  25.250   6.155
11075POPC   C1A69735  42.384  25.225   6.455
11075POPC   D2A69736  42.295  25.257   6.755
11075POPC   C3A69737  42.307  25.307   7.055
11075POPC   C4A69738  42.354  25.304   7.355
11075POPC   C1B69739  42.537  25.303   6.455
11075POPC   C2B69740  42.550  25.215   6.755
11075POPC   C3B69741  42.551  25.219   7.055
11075POPC   C4B69742  42.615  25.225   7.355
11076POPC   NC369743  29.901  15.135   5.555
11076POPC   PO469744  29.909  15.155   5.855
11076POPC   GL169745  29.964  15.157   6.155
11076POPC   GL269746  29.879  15.025   6.155
11076POPC   C1A69747  29.927  15.210   6.455
11076POPC   D2A69748  29.898  15.225   6.755
11076POPC   C3A69749  29.907  15.173   7.055
11076POPC   C4A69750  29.963  15.189   7.355
11076POPC   C1B69751  29.863  14.974   6.455
11076POPC   C2B69752  29.883  14.952   6.755
11076POPC   C3B69753  29.840  14.915   7.055
11076POPC   C4B69754  29.872  14.951   7.355
11077POPC   NC369755   5.867  34.612   5.555
11077POPC   PO469756   5.884  34.554   5.855
11077POPC   GL169757   5.821  34.624   6.155
11077POPC   GL269758   5.966  34.612   6.155
11077POPC   C1A69759   5.854  34.579   6.455
11077POPC   D2A69760   5.837  34.527   6.755
11077POPC   C3A69761   5.870  34.574   7.055
11077POPC   C4A69762   5.847  34.549   7.355
11077POPC   C1B69763   6.135  34.629   6.455
11077POPC   C2B69764   6.069  34.630   6.755
11077POPC   C3B69765   6.138  34.620   7.055
11077POPC   C4B69766   6.087  34.605   7.355
11078POPC   NC369767  26.776  39.271   5.555
11078POPC   PO469768  26.768  39.199   5.855
11078POPC   GL169769  26.791  39.251   6.155
11078POPC   GL269770  26.689  39.136   6.155
11078POPC   C1A69771  26.847  39.183   6.455
11078POPC   D2A69772  26.773  39.203   6.755
11078POPC   C3A69773  26.768  39.256   7.055
11078POPC   C4A69774  26.821  39.238   7.355
11078POPC   C1B69775  26.638  39.061   6.455
11078POPC   C2B69776  26.577  39.122   6.755
11078POPC   C3B69777  26.577  39.093   7.055
11078POPC   C4B69778  26.665  39.107   7.355
11079POPC   NC369779  15.195   9.722   5.555
11079POPC   PO469780  15.149   9.705   5.855
11079POPC   GL169781  15.182   9.704   6.155
11079POPC   GL269782  15.333   9.844   6.155
11079POPC   C1A69783  15.218   9.711   6.455
11079POPC   D2A69784  15.214   9.778   6.755
11079POPC   C3A69785  15.155   9.737   7.055
11079POPC   C4A69786  15.190   9.731   7.355
11079POPC   C1B69787  15.378   9.862   6.455
11079POPC   C2B69788  15.344   9.898   6.755
11079POPC   C3B69789  15.344   9.838   7.055
11079POPC   C4B69790  15.398   9.883   7.355
11080POPC   NC369791   4.328   9.759   5.555
11080POPC   PO469792   4.310   9.724   5.855
11080POPC   GL169793   4.334   9.747   6.155
11080POPC   GL269794   4.191   9.768   6.155
11080POPC   C1A69795   4.323   9.791   6.455
11080POPC   D2A69796   4.346   9.745   6.755
11080POPC   C3A69797   4.338   9.747   7.055
11080POPC   C4A69798   4.307   9.781   7.355
11080POPC   C1B69799   4.110   9.887   6.455
11080POPC   C2B69800   4.043   9.870   6.755
11080POPC   C3B69801   4.102   9.859   7.055
11080POPC   C4B69802   4.108   9.815   7.355
11081POPC   NC369803   2.016   1.963   5.555
11081POPC   PO469804   2.039   2.018   5.855
11081POPC   GL169805   1.943   1.974   6.155
11081POPC   GL269806   2.131   1.940   6.155
11081POPC   C1A69807   2.022   2.021   6.455
11081POPC   D2A69808   1.991   2.005   6.755
11081POPC   C3A69809   1.992   1.949   7.055
11081POPC   C4A69810   2.038   1.994   7.355
11081POPC   C1B69811   2.224   1.871   6.455
11081POPC   C2B69812   2.272   1.888   6.755
11081POPC   C3B69813   2.248   1.872   7.055
11081POPC   C4B69814   2.248   1.938   7.355
11082POPC   NC369815  29.938  43.078   5.555
11082POPC   PO469816  29.924  43.092   5.855
11082POPC   GL169817  29.924  43.134   6.155
11082POPC   GL269818  29.942  43.006   6.155
11082POPC   C1A69819  29.961  43.082   6.455
11082POPC   D2A69820  29.881  43.094   6.755
11082POPC   C3A69821  29.872  43.159   7.055
11082POPC   C4A69822  29.910  43.119   7.355
11082POPC   C1B69823  30.004  42.835   6.455
11082POPC   C2B69824  30.036  42.877   6.755
11082POPC   C3B69825  30.056  42.831   7.055
11082POPC   C4B69826  30.025  42.915   7.355
11083POPC   NC369827  10.491  32.205   5.555
11083POPC   PO469828  10.478  32.293   5.855
11083POPC   GL169829  10.501  32.227   6.155
11083POPC   GL269830  10.389  32.341   6.155
11083POPC   C1A69831  10.509  32.241   6.455
11083POPC   D2A69832  10.544  32.291   6.755
11083POPC   C3A69833  10.488  32.230   7.055
11083POPC   C4A69834  10.491  32.216   7.355
11083POPC   C1B69835  10.340  32.402   6.455
11083POPC   C2B69836  10.348  32.390   6.755
11083POPC   C3B69837  10.324  32.442   7.055
11083POPC   C4B69838  10.367  32.412   7.355
11084POPC   NC369839  36.142  13.647   5.555
11084POPC   PO469840  36.141  13.600   5.855
11084POPC   GL169841  36.120  13.583   6.155
11084POPC   GL269842  36.104  13.733   6.155
11084POPC   C1A69843  36.165  13.653   6.455
11084POPC   D2A69844  36.112  13.635   6.755
11084POPC   C3A69845  36.115  13.637   7.055
11084POPC   C4A69846  36.079  13.596   7.355
11084POPC   C1B69847  36.030  13.852   6.455
11084POPC   C2B69848  36.048  13.833   6.755
11084POPC   C3B69849  36.074  13.855   7.055
11084POPC   C4B69850  35.995  13.909   7.355
11085POPC   NC369851  19.033  35.400   5.555
11085POPC   PO469852  19.096  35.305   5.855
11085POPC   GL169853  19.072  35.320   6.155
11085POPC   GL269854  18.893  35.364   6.155
11085POPC   C1A69855  19.097  35.310   6.455
11085POPC   D2A69856  19.086  35.310   6.755
11085POPC   C3A69857  19.031  35.353   7.055
11085POPC   C4A69858  19.054  35.327   7.355
11085POPC   C1B69859  18.791  35.334   6.455
11085POPC   C2B69860  18.851  35.282   6.755
11085POPC   C3B69861  18.843  35.310   7.055
11085POPC   C4B69862  18.843  35.331   7.355
11086POPC   NC369863  20.606  12.891   5.555
11086POPC   PO469864  20.639  12.803   5.855
11086POPC   GL169865  20.655  12.868   6.155
11086POPC   GL269866  20.767  12.852   6.155
11086POPC   C1A69867  20.632  12.900   6.455
11086POPC   D2A69868  20.657  12.898   6.755
11086POPC   C3A69869  20.579  12.899   7.055
11086POPC   C4A69870  20.613  12.830   7.355
11086POPC   C1B69871  20.834  12.826   6.455
11086POPC   C2B69872  20.862  12.813   6.755
11086POPC   C3B69873  20.899  12.760   7.055
11086POPC   C4B69874  20.824  12.828   7.355
11087POPC   NC369875  25.257  27.580   5.555
11087POPC   PO469876  25.287  27.587   5.855
11087POPC   GL169877  25.296  27.586   6.155
11087POPC   GL269878  25.227  27.718   6.155
11087POPC   C1A69879  25.303  27.559   6.455
11087POPC   D2A69880  25.312  27.581   6.755
11087POPC   C3A69881  25.280  27.567   7.055
11087POPC   C4A69882  25.240  27.579   7.355
11087POPC   C1B69883  25.205  27.826   6.455
11087POPC   C2B69884  25.242  27.834   6.755
11087POPC   C3B69885  25.181  27.842   7.055
11087POPC   C4B69886  25.200  27.797   7.355
11088POPC   NC369887  11.268  33.011   5.555
11088POPC   PO469888  11.345  33.025   5.855
11088POPC   GL169889  11.270  33.031   6.155
11088POPC   GL269890  11.414  33.167   6.155
11088POPC   C1A69891  11.296  33.034   6.455
11088POPC   D2A69892  11.272  32.986   6.755
11088POPC   C3A69893  11.343  32.991   7.055
11088POPC   C4A69894  11.316  32.993   7.355
11088POPC   C1B69895  11.405  33.181   6.455
11088POPC   C2B69896  11.423  33.192   6.755
11088POPC   C3B69897  11.436  33.179   7.055
11088POPC   C4B69898  11.410  33.255   7.355
11089POPC   NC369899  32.255  33.035   5.555
11089POPC   PO469900  32.282  32.990   5.855
11089POPC   GL169901  32.269  32.976   6.155
11089POPC   GL269902  32.315  33.178   6.155
11089POPC   C1A69903  32.279  32.996   6.455
11089POPC   D2A69904  32.290  33.024   6.755
11089POPC   C3A69905  32.267  33.029   7.055
11089POPC   C4A69906  32.212  33.018   7.355
11089POPC   C1B69907  32.273  33.231   6.455
11089POPC   C2B69908  32.244  33.266   6.755
11089POPC   C3B69909  32.304  33.309   7.055
11089POPC   C4B69910  32.244  33.241   7.355
11090POPC   NC369911  31.493  43.080   5.555
11090POPC   PO469912  31.469  43.153   5.855
11090POPC   GL169913  31.476  43.079   6.155
11090POPC   GL269914  31.476  42.974   6.155
11090POPC   C1A69915  31.425  43.108   6.455
11090POPC   D2A69916  31.498  43.118   6.755
11090POPC   C3A69917  31.460  43.109   7.055
11090POPC   C4A69918  31.487  43.141   7.355
11090POPC   C1B69919  31.493  42.905   6.455
11090POPC   C2B69920  31.465  42.904   6.755
11090POPC   C3B69921  31.440  42.887   7.055
11090POPC   C4B69922  31.512  42.874   7.355
11091POPC   NC369923  22.896  11.292   5.555
11091POPC   PO469924  22.889  11.285   5.855
11091POPC   GL169925  22.984  11.324   6.155
11091POPC   GL269926  23.044  11.328   6.155
11091POPC   C1A69927  22.907  11.331   6.455
11091POPC   D2A69928  22.935  11.270   6.755
11091POPC   C3A69929  22.925  11.260   7.055
11091POPC   C4A69930  22.981  11.291   7.355
11091POPC   C1B69931  23.152  11.405   6.455
11091POPC   C2B69932  23.121  11.373   6.755
11091POPC   C3B69933  23.127  11.384   7.055
11091POPC   C4B69934  23.199  11.376   7.355
11092POPC   NC369935  22.155  23.730   5.555
11092POPC   PO469936  22.187  23.724   5.855
11092POPC   GL169937  22.137  23.675   6.155
11092POPC   GL269938  22.088  23.852   6.155
11092POPC   C1A69939  22.144  23.714   6.455
11092POPC   D2A69940  22.132  23.759   6.755
11092POPC   C3A69941  22.196  23.734   7.055
11092POPC   C4A69942  22.144  23.728   7.355
11092POPC   C1B69943  22.080  23.995   6.455
11092POPC   C2B69944  22.093  23.960   6.755
11092POPC   C3B69945  22.069  23.935   7.055
11092POPC   C4B69946  22.097  23.985   7.355
11093POPC   NC369947  26.858  32.236   5.555
11093POPC   PO469948  26.773  32.235   5.855
11093POPC   GL169949  26.850  32.203   6.155
11093POPC   GL269950  26.798  32.137   6.155
11093POPC   C1A69951  26.818  32.258   6.455
11093POPC   D2A69952  26.778  32.212   6.755
11093POPC   C3A69953  26.850  32.272   7.055
11093POPC   C4A69954  26.770  32.250   7.355
11093POPC   C1B69955  26.763  32.011   6.455
11093POPC   C2B69956  26.753  31.967   6.755
11093POPC   C3B69957  26.785  32.014   7.055
11093POPC   C4B69958  26.726  32.024   7.355
11094POPC   NC369959  12.825  33.803   5.555
11094POPC   PO469960  12.813  33.789   5.855
11094POPC   GL169961  12.841  33.819   6.155
11094POPC   GL269962  12.753  33.712   6.155
11094POPC   C1A69963  12.875  33.798   6.455
11094POPC   D2A69964  12.838  33.841   6.755
11094POPC   C3A69965  12.830  33.849   7.055
11094POPC   C4A69966  12.809  33.762   7.355
11094POPC   C1B69967  12.630  33.724   6.455
11094POPC   C2B69968  12.610  33.673   6.755
11094POPC   C3B69969  12.667  33.628   7.055
11094POPC   C4B69970  12.585  33.713   7.355
11095POPC   NC369971   5.897   2.742   5.555
11095POPC   PO469972   5.830   2.770   5.855
11095POPC   GL169973   5.861   2.775   6.155
11095POPC   GL269974   5.899   2.874   6.155
11095POPC   C1A69975   5.838   2.726   6.455
11095POPC   D2A69976   5.829   2.812   6.755
11095POPC   C3A69977   5.879   2.758   7.055
11095POPC   C4A69978   5.887   2.811   7.355
11095POPC   C1B69979   5.940   3.012   6.455
11095POPC   C2B69980   5.988   2.967   6.755
11095POPC   C3B69981   5.922   2.971   7.055
11095POPC   C4B69982   5.987   2.983   7.355
11096POPC   NC369983  26.793  44.696   5.555
11096POPC   PO469984  26.794  44.703   5.855
11096POPC   GL169985  26.813  44.679   6.155
11096POPC   GL269986  26.976  44.741   6.155
11096POPC   C1A69987  26.867  44.649   6.455
11096POPC   D2A69988  26.770  44.629   6.755
11096POPC   C3A69989  26.823  44.675   7.055
11096POPC   C4A69990  26.820  44.637   7.355
11096POPC   C1B69991  27.043  44.787   6.455
11096POPC   C2B69992  27.035  44.766   6.755
11096POPC   C3B69993  27.074  44.774   7.055
11096POPC   C4B69994  27.046  44.728   7.355
11097POPC   NC369995   1.241  40.768   5.555
11097POPC   PO469996   1.181  40.781   5.855
11097POPC   GL169997   1.260  40.753   6.155
11097POPC   GL269998   1.290  40.867   6.155
11097POPC   C1A69999   1.257  40.786   6.455
11097POPC   D2A70000   1.252  40.795   6.755
11097POPC   C3A70001   1.254  40.737   7.055
11097POPC   C4A70002   1.237  40.825   7.355
11097POPC   C1B70003   1.313  40.960   6.455
11097POPC   C2B70004   1.303  40.954   6.755
11097POPC   C3B70005   1.355  41.024   7.055
11097POPC   C4B70006   1.388  41.041   7.355
11098POPC   NC370007   4.327  25.282   5.555
11098POPC   PO470008   4.268  25.264   5.855
11098POPC   GL170009   4.362  25.284   6.155
11098POPC   GL270010   4.405  25.400   6.155
11098POPC   C1A70011   4.361  25.285   6.455
11098POPC   D2A70012   4.302  25.221   6.755
11098POPC   C3A70013   4.357  25.263   7.055
11098POPC   C4A70014   4.354  25.246   7.355
11098POPC   C1B70015   4.478  25.441   6.455
11098POPC   C2B70016   4.405  25.452   6.755
11098POPC   C3B70017   4.460  25.516   7.055
11098POPC   C4B70018   4.471  25.467   7.355
11099POPC   NC370019  27.607  44.644   5.555
11099POPC   PO470020  27.571  44.640   5.855
11099POPC   GL170021  27.612  44.629   6.155
11099POPC   GL270022  27.622  44.762   6.155
11099POPC   C1A70023  27.612  44.663   6.455
11099POPC   D2A70024  27.588  44.702   6.755
11099POPC   C3A70025  27.567  44.683   7.055
11099POPC   C4A70026  27.627  44.648   7.355
11099POPC   C1B70027  27.742  44.843   6.455
11099POPC   C2B70028  27.666  44.847   6.755
11099POPC   C3B70029  27.715  44.866   7.055
11099POPC   C4B70030  27.737  44.839   7.355
11100POPC   NC370031   3.547   8.232   5.555
11100POPC   PO470032   3.587   8.222   5.855
11100POPC   GL170033   3.562   8.239   6.155
11100POPC   GL270034   3.417   8.257   6.155
11100POPC   C1A70035   3.573   8.193   6.455
11100POPC   D2A70036   3.535   8.193   6.755
11100POPC   C3A70037   3.584   8.236   7.055
11100POPC   C4A70038   3.501   8.163   7.355
11100POPC   C1B70039   3.297   8.216   6.455
11100POPC   C2B70040   3.262   8.181   6.755
11100POPC   C3B70041   3.301   8.264   7.055
11100POPC   C4B70042   3.313   8.246   7.355
11101POPC   NC370043  29.934  21.337   5.555
11101POPC   PO470044  29.955  21.344   5.855
11101POPC   GL170045  29.962  21.434   6.155
11101POPC   GL270046  29.828  21.249   6.155
11101POPC   C1A70047  29.957  21.340   6.455
11101POPC   D2A70048  29.971  21.427   6.755
11101POPC   C3A70049  29.963  21.411   7.055
11101POPC   C4A70050  29.948  21.417   7.355
11101POPC   C1B70051  29.757  21.212   6.455
11101POPC   C2B70052  29.728  21.221   6.755
11101POPC   C3B70053  29.729  21.158   7.055
11101POPC   C4B70054  29.758  21.228   7.355
11102POPC   NC370055  33.772   3.585   5.555
11102POPC   PO470056  33.757   3.518   5.855
11102POPC   GL170057  33.843   3.588   6.155
11102POPC   GL270058  33.936   3.594   6.155
11102POPC   C1A70059  33.846   3.531   6.455
11102POPC   D2A70060  33.793   3.522   6.755
11102POPC   C3A70061  33.761   3.503   7.055
11102POPC   C4A70062  33.761   3.511   7.355
11102POPC   C1B70063  34.083   3.637   6.455
11102POPC   C2B70064  34.001   3.659   6.755
11102POPC   C3B70065  34.037   3.657   7.055
11102POPC   C4B70066  34.041   3.649   7.355
11103POPC   NC370067  13.661  12.828   5.555
11103POPC   PO470068  13.663  12.809   5.855
11103POPC   GL170069  13.597  12.820   6.155
11103POPC   GL270070  13.690  12.763   6.155
11103POPC   C1A70071  13.653  12.859   6.455
11103POPC   D2A70072  13.634  12.803   6.755
11103POPC   C3A70073  13.581  12.873   7.055
11103POPC   C4A70074  13.625  12.874   7.355
11103POPC   C1B70075  13.730  12.622   6.455
11103POPC   C2B70076  13.713  12.594   6.755
11103POPC   C3B70077  13.744  12.611   7.055
11103POPC   C4B70078  13.712  12.589   7.355
11104POPC   NC370079  39.208  30.721   5.555
11104POPC   PO470080  39.239  30.648   5.855
11104POPC   GL170081  39.229  30.651   6.155
11104POPC   GL270082  39.400  30.780   6.155
11104POPC   C1A70083  39.231  30.674   6.455
11104POPC   D2A70084  39.213  30.660   6.755
11104POPC   C3A70085  39.231  30.740   7.055
11104POPC   C4A70086  39.188  30.733   7.355
11104POPC   C1B70087  39.494  30.813   6.455
11104POPC   C2B70088  39.491  30.780   6.755
11104POPC   C3B70089  39.481  30.724   7.055
11104POPC   C4B70090  39.448  30.808   7.355
11105POPC   NC370091  40.802  24.523   5.555
11105POPC   PO470092  40.784  24.501   5.855
11105POPC   GL170093  40.767  24.446   6.155
11105POPC   GL270094  40.892  24.495   6.155
11105POPC   C1A70095  40.815  24.441   6.455
11105POPC   D2A70096  40.806  24.491   6.755
11105POPC   C3A70097  40.802  24.510   7.055
11105POPC   C4A70098  40.745  24.531   7.355
11105POPC   C1B70099  41.002  24.462   6.455
11105POPC   C2B70100  41.055  24.420   6.755
11105POPC   C3B70101  40.987  24.391   7.055
11105POPC   C4B70102  40.973  24.462   7.355
11106POPC   NC370103   6.635  39.993   5.555
11106POPC   PO470104   6.600  40.039   5.855
11106POPC   GL170105   6.608  40.040   6.155
11106POPC   GL270106   6.775  40.076   6.155
11106POPC   C1A70107   6.674  39.968   6.455
11106POPC   D2A70108   6.679  40.025   6.755
11106POPC   C3A70109   6.640  40.056   7.055
11106POPC   C4A70110   6.611  40.029   7.355
11106POPC   C1B70111   6.820  40.185   6.455
11106POPC   C2B70112   6.855  40.127   6.755
11106POPC   C3B70113   6.836  40.162   7.055
11106POPC   C4B70114   6.874  40.163   7.355
11107POPC   NC370115  17.538  26.025   5.555
11107POPC   PO470116  17.529  26.056   5.855
11107POPC   GL170117  17.462  26.084   6.155
11107POPC   GL270118  17.637  25.917   6.155
11107POPC   C1A70119  17.518  26.007   6.455
11107POPC   D2A70120  17.519  26.041   6.755
11107POPC   C3A70121  17.534  26.091   7.055
11107POPC   C4A70122  17.522  26.075   7.355
11107POPC   C1B70123  17.646  25.869   6.455
11107POPC   C2B70124  17.728  25.880   6.755
11107POPC   C3B70125  17.673  25.873   7.055
11107POPC   C4B70126  17.681  25.854   7.355
11108POPC   NC370127  22.939  28.342   5.555
11108POPC   PO470128  22.932  28.320   5.855
11108POPC   GL170129  22.974  28.365   6.155
11108POPC   GL270130  22.926  28.477   6.155
11108POPC   C1A70131  22.891  28.350   6.455
11108POPC   D2A70132  22.894  28.354   6.755
11108POPC   C3A70133  22.913  28.379   7.055
11108POPC   C4A70134  22.897  28.418   7.355
11108POPC   C1B70135  22.897  28.619   6.455
11108POPC   C2B70136  22.916  28.666   6.755
11108POPC   C3B70137  22.920  28.617   7.055
11108POPC   C4B70138  22.927  28.667   7.355
11109POPC   NC370139  15.191  39.968   5.555
11109POPC   PO470140  15.153  40.048   5.855
11109POPC   GL170141  15.173  40.036   6.155
11109POPC   GL270142  15.284  39.963   6.155
11109POPC   C1A70143  15.177  40.000   6.455
11109POPC   D2A70144  15.141  39.969   6.755
11109POPC   C3A70145  15.224  40.030   7.055
11109POPC   C4A70146  15.222  39.962   7.355
11109POPC   C1B70147  15.383  39.977   6.455
11109POPC   C2B70148  15.454  39.948   6.755
11109POPC   C3B70149  15.458  39.997   7.055
11109POPC   C4B70150  15.394  39.945   7.355
11110POPC   NC370151  26.075   0.433   5.555
11110POPC   PO470152  26.067   0.485   5.855
11110POPC   GL170153  26.059   0.408   6.155
11110POPC   GL270154  25.938   0.362   6.155
11110POPC   C1A70155  25.992   0.482   6.455
11110POPC   D2A70156  26.047   0.474   6.755
11110POPC   C3A70157  26.015   0.476   7.055
11110POPC   C4A70158  26.027   0.399   7.355
11110POPC   C1B70159  25.895   0.264   6.455
11110POPC   C2B70160  25.838   0.225   6.755
11110POPC   C3B70161  25.884   0.288   7.055
11110POPC   C4B70162  25.846   0.298   7.355
11111POPC   NC370163   0.481  15.972   5.555
11111POPC   PO470164   0.454  15.986   5.855
11111POPC   GL170165   0.462  15.953   6.155
11111POPC   GL270166   0.421  15.786   6.155
11111POPC   C1A70167   0.446  15.971   6.455
11111POPC   D2A70168   0.487  15.975   6.755
11111POPC   C3A70169   0.435  15.976   7.055
11111POPC   C4A70170   0.432  15.938   7.355
11111POPC   C1B70171   0.458  15.657   6.455
11111POPC   C2B70172   0.489  15.662   6.755
11111POPC   C3B70173   0.420  15.724   7.055
11111POPC   C4B70174   0.428  15.680   7.355
11112POPC   NC370175   8.175  36.906   5.555
11112POPC   PO470176   8.154  36.938   5.855
11112POPC   GL170177   8.238  36.915   6.155
11112POPC   GL270178   8.195  36.801   6.155
11112POPC   C1A70179   8.206  36.923   6.455
11112POPC   D2A70180   8.175  36.868   6.755
11112POPC   C3A70181   8.164  36.892   7.055
11112POPC   C4A70182   8.218  36.907   7.355
11112POPC   C1B70183   8.248  36.629   6.455
11112POPC   C2B70184   8.221  36.675   6.755
11112POPC   C3B70185   8.200  36.606   7.055
11112POPC   C4B70186   8.158  36.661   7.355
11113POPC   NC370187   2.753   6.624   5.555
11113POPC   PO470188   2.720   6.682   5.855
11113POPC   GL170189   2.740   6.664   6.155
11113POPC   GL270190   2.927   6.623   6.155
11113POPC   C1A70191   2.720   6.610   6.455
11113POPC   D2A70192   2.772   6.668   6.755
11113POPC   C3A70193   2.764   6.658   7.055
11113POPC   C4A70194   2.778   6.618   7.355
11113POPC   C1B70195   3.060   6.593   6.455
11113POPC   C2B70196   3.011   6.636   6.755
11113POPC   C3B70197   2.991   6.633   7.055
11113POPC   C4B70198   2.994   6.661   7.355
11114POPC   NC370199  40.764  20.589   5.555
11114POPC   PO470200  40.776  20.565   5.855
11114POPC   GL170201  40.771  20.587   6.155
11114POPC   GL270202  40.860  20.450   6.155
11114POPC   C1A70203  40.768  20.649   6.455
11114POPC   D2A70204  40.821  20.604   6.755
11114POPC   C3A70205  40.756  20.623   7.055
11114POPC   C4A70206  40.779  20.641   7.355
11114POPC   C1B70207  40.887  20.423   6.455
11114POPC   C2B70208  40.845  20.346   6.755
11114POPC   C3B70209  40.868  20.410   7.055
11114POPC   C4B70210  40.884  20.427   7.355
11115POPC   NC370211   1.979   5.839   5.555
11115POPC   PO470212   1.970   5.905   5.855
11115POPC   GL170213   2.032   5.887   6.155
11115POPC   GL270214   2.129   5.893   6.155
11115POPC   C1A70215   1.984   5.917   6.455
11115POPC   D2A70216   1.976   5.827   6.755
11115POPC   C3A70217   2.031   5.876   7.055
11115POPC   C4A70218   1.953   5.908   7.355
11115POPC   C1B70219   2.282   5.843   6.455
11115POPC   C2B70220   2.230   5.821   6.755
11115POPC   C3B70221   2.272   5.841   7.055
11115POPC   C4B70222   2.287   5.861   7.355
11116POPC   NC370223  31.437   1.195   5.555
11116POPC   PO470224  31.425   1.187   5.855
11116POPC   GL170225  31.491   1.236   6.155
11116POPC   GL270226  31.602   1.150   6.155
11116POPC   C1A70227  31.453   1.229   6.455
11116POPC   D2A70228  31.500   1.240   6.755
11116POPC   C3A70229  31.499   1.169   7.055
11116POPC   C4A70230  31.512   1.259   7.355
11116POPC   C1B70231  31.669   1.209   6.455
11116POPC   C2B70232  31.683   1.189   6.755
11116POPC   C3B70233  31.667   1.137   7.055
11116POPC   C4B70234  31.740   1.208   7.355
11117POPC   NC370235   9.783  44.681   5.555
11117POPC   PO470236   9.755  44.698   5.855
11117POPC   GL170237   9.715  44.621   6.155
11117POPC   GL270238   9.669  44.550   6.155
11117POPC   C1A70239   9.795  44.665   6.455
11117POPC   D2A70240   9.734  44.709   6.755
11117POPC   C3A70241   9.716  44.684   7.055
11117POPC   C4A70242   9.772  44.639   7.355
11117POPC   C1B70243   9.665  44.472   6.455
11117POPC   C2B70244   9.677  44.405   6.755
11117POPC   C3B70245   9.668  44.421   7.055
11117POPC   C4B70246   9.642  44.421   7.355
11118POPC   NC370247  18.237  39.968   5.555
11118POPC   PO470248  18.255  40.003   5.855
11118POPC   GL170249  18.244  39.979   6.155
11118POPC   GL270250  18.303  39.866   6.155
11118POPC   C1A70251  18.237  40.022   6.455
11118POPC   D2A70252  18.264  40.023   6.755
11118POPC   C3A70253  18.303  39.997   7.055
11118POPC   C4A70254  18.297  39.982   7.355
11118POPC   C1B70255  18.287  39.749   6.455
11118POPC   C2B70256  18.323  39.717   6.755
11118POPC   C3B70257  18.285  39.794   7.055
11118POPC   C4B70258  18.302  39.766   7.355
11119POPC   NC370259   5.838  21.360   5.555
11119POPC   PO470260   5.917  21.419   5.855
11119POPC   GL170261   5.876  21.407   6.155
11119POPC   GL270262   5.864  21.272   6.155
11119POPC   C1A70263   5.878  21.394   6.455
11119POPC   D2A70264   5.888  21.344   6.755
11119POPC   C3A70265   5.851  21.401   7.055
11119POPC   C4A70266   5.879  21.382   7.355
11119POPC   C1B70267   5.849  21.104   6.455
11119POPC   C2B70268   5.825  21.115   6.755
11119POPC   C3B70269   5.816  21.140   7.055
11119POPC   C4B70270   5.823  21.175   7.355
11120POPC   NC370271  18.312  36.177   5.555
11120POPC   PO470272  18.306  36.120   5.855
11120POPC   GL170273  18.287  36.171   6.155
11120POPC   GL270274  18.375  36.233   6.155
11120POPC   C1A70275  18.249  36.172   6.455
11120POPC   D2A70276  18.257  36.145   6.755
11120POPC   C3A70277  18.250  36.113   7.055
11120POPC   C4A70278  18.278  36.146   7.355
11120POPC   C1B70279  18.384  36.339   6.455
11120POPC   C2B70280  18.445  36.304   6.755
11120POPC   C3B70281  18.417  36.383   7.055
11120POPC   C4B70282  18.414  36.324   7.355
11121POPC   NC370283   3.508  14.362   5.555
11121POPC   PO470284   3.579  14.405   5.855
11121POPC   GL170285   3.526  14.382   6.155
11121POPC   GL270286   3.587  14.250   6.155
11121POPC   C1A70287   3.574  14.383   6.455
11121POPC   D2A70288   3.590  14.436   6.755
11121POPC   C3A70289   3.570  14.439   7.055
11121POPC   C4A70290   3.500  14.438   7.355
11121POPC   C1B70291   3.543  14.110   6.455
11121POPC   C2B70292   3.554  14.176   6.755
11121POPC   C3B70293   3.555  14.188   7.055
11121POPC   C4B70294   3.523  14.119   7.355
11122POPC   NC370295  10.492  43.935   5.555
11122POPC   PO470296  10.570  43.844   5.855
11122POPC   GL170297  10.493  43.913   6.155
11122POPC   GL270298  10.432  43.789   6.155
11122POPC   C1A70299  10.546  43.935   6.455
11122POPC   D2A70300  10.516  43.917   6.755
11122POPC   C3A70301  10.495  43.882   7.055
11122POPC   C4A70302  10.487  43.882   7.355
11122POPC   C1B70303  10.382  43.679   6.455
11122POPC   C2B70304  10.407  43.652   6.755
11122POPC   C3B70305  10.406  43.640   7.055
11122POPC   C4B70306  10.380  43.643   7.355
11123POPC   NC370307  19.872  14.431   5.555
11123POPC   PO470308  19.798  14.392   5.855
11123POPC   GL170309  19.855  14.379   6.155
11123POPC   GL270310  19.764  14.569   6.155
11123POPC   C1A70311  19.869  14.408   6.455
11123POPC   D2A70312  19.855  14.436   6.755
11123POPC   C3A70313  19.856  14.383   7.055
11123POPC   C4A70314  19.796  14.433   7.355
11123POPC   C1B70315  19.793  14.681   6.455
11123POPC   C2B70316  19.800  14.625   6.755
11123POPC   C3B70317  19.812  14.624   7.055
11123POPC   C4B70318  19.759  14.615   7.355
11124POPC   NC370319  27.555   8.930   5.555
11124POPC   PO470320  27.633   8.952   5.855
11124POPC   GL170321  27.573   9.016   6.155
11124POPC   GL270322  27.651   8.848   6.155
11124POPC   C1A70323  27.603   8.932   6.455
11124POPC   D2A70324  27.562   8.947   6.755
11124POPC   C3A70325  27.617   8.986   7.055
11124POPC   C4A70326  27.611   9.006   7.355
11124POPC   C1B70327  27.745   8.732   6.455
11124POPC   C2B70328  27.726   8.745   6.755
11124POPC   C3B70329  27.773   8.802   7.055
11124POPC   C4B70330  27.719   8.816   7.355
11125POPC   NC370331  32.979  34.563   5.555
11125POPC   PO470332  33.026  34.571   5.855
11125POPC   GL170333  32.994  34.601   6.155
11125POPC   GL270334  33.048  34.414   6.155
11125POPC   C1A70335  33.043  34.558   6.455
11125POPC   D2A70336  33.073  34.556   6.755
11125POPC   C3A70337  33.021  34.617   7.055
11125POPC   C4A70338  33.068  34.600   7.355
11125POPC   C1B70339  33.087  34.315   6.455
11125POPC   C2B70340  33.112  34.366   6.755
11125POPC   C3B70341  33.145  34.355   7.055
11125POPC   C4B70342  33.147  34.320   7.355
11126POPC   NC370343  19.031   2.810   5.555
11126POPC   PO470344  19.045   2.751   5.855
11126POPC   GL170345  19.074   2.747   6.155
11126POPC   GL270346  18.954   2.735   6.155
11126POPC   C1A70347  19.090   2.771   6.455
11126POPC   D2A70348  19.053   2.773   6.755
11126POPC   C3A70349  19.098   2.813   7.055
11126POPC   C4A70350  19.037   2.801   7.355
11126POPC   C1B70351  18.858   2.758   6.455
11126POPC   C2B70352  18.783   2.712   6.755
11126POPC   C3B70353  18.772   2.742   7.055
11126POPC   C4B70354  18.784   2.756   7.355
11127POPC   NC370355  24.495  29.133   5.555
11127POPC   PO470356  24.485  29.171   5.855
11127POPC   GL170357  24.511  29.116   6.155
11127POPC   GL270358  24.544  29.049   6.155
11127POPC   C1A70359  24.512  29.117   6.455
11127POPC   D2A70360  24.515  29.115   6.755
11127POPC   C3A70361  24.508  29.151   7.055
11127POPC   C4A70362  24.451  29.122   7.355
11127POPC   C1B70363  24.618  28.923   6.455
11127POPC   C2B70364  24.686  28.919   6.755
11127POPC   C3B70365  24.615  28.913   7.055
11127POPC   C4B70366  24.656  28.902   7.355
11128POPC   NC370367  10.527  40.007   5.555
11128POPC   PO470368  10.566  39.976   5.855
11128POPC   GL170369  10.525  40.037   6.155
11128POPC   GL270370  10.489  39.836   6.155
11128POPC   C1A70371  10.511  40.009   6.455
11128POPC   D2A70372  10.475  39.957   6.755
11128POPC   C3A70373  10.480  40.050   7.055
11128POPC   C4A70374  10.529  39.970   7.355
11128POPC   C1B70375  10.510  39.802   6.455
11128POPC   C2B70376  10.521  39.787   6.755
11128POPC   C3B70377  10.470  39.716   7.055
11128POPC   C4B70378  10.539  39.754   7.355
11129POPC   NC370379  29.872  36.898   5.555
11129POPC   PO470380  29.926  36.943   5.855
11129POPC   GL170381  29.925  36.926   6.155
11129POPC   GL270382  29.786  36.961   6.155
11129POPC   C1A70383  29.901  36.898   6.455
11129POPC   D2A70384  29.920  36.886   6.755
11129POPC   C3A70385  29.886  36.912   7.055
11129POPC   C4A70386  29.879  36.865   7.355
11129POPC   C1B70387  29.742  37.040   6.455
11129POPC   C2B70388  29.728  37.022   6.755
11129POPC   C3B70389  29.660  37.068   7.055
11129POPC   C4B70390  29.699  37.009   7.355
11130POPC   NC370391  36.867  24.534   5.555
11130POPC   PO470392  36.901  24.537   5.855
11130POPC   GL170393  36.950  24.533   6.155
11130POPC   GL270394  37.022  24.589   6.155
11130POPC   C1A70395  36.927  24.478   6.455
11130POPC   D2A70396  36.887  24.530   6.755
11130POPC   C3A70397  36.890  24.499   7.055
11130POPC   C4A70398  36.915  24.523   7.355
11130POPC   C1B70399  37.109  24.625   6.455
11130POPC   C2B70400  37.080  24.641   6.755
11130POPC   C3B70401  37.106  24.609   7.055
11130POPC   C4B70402  37.138  24.688   7.355
11131POPC   NC370403  14.390  20.618   5.555
11131POPC   PO470404  14.416  20.657   5.855
11131POPC   GL170405  14.385  20.587   6.155
11131POPC   GL270406  14.450  20.772   6.155
11131POPC   C1A70407  14.442  20.624   6.455
11131POPC   D2A70408  14.450  20.616   6.755
11131POPC   C3A70409  14.355  20.588   7.055
11131POPC   C4A70410  14.409  20.631   7.355
11131POPC   C1B70411  14.463  20.820   6.455
11131POPC   C2B70412  14.481  20.879   6.755
11131POPC   C3B70413  14.471  20.836   7.055
11131POPC   C4B70414  14.490  20.839   7.355
11132POPC   NC370415  15.165  12.050   5.555
11132POPC   PO470416  15.160  12.041   5.855
11132POPC   GL170417  15.201  12.048   6.155
11132POPC   GL270418  15.222  12.168   6.155
11132POPC   C1A70419  15.173  12.062   6.455
11132POPC   D2A70420  15.150  12.056   6.755
11132POPC   C3A70421  15.153  12.121   7.055
11132POPC   C4A70422  15.163  12.041   7.355
11132POPC   C1B70423  15.306  12.238   6.455
11132POPC   C2B70424  15.378  12.292   6.755
11132POPC   C3B70425  15.387  12.299   7.055
11132POPC   C4B70426  15.321  12.276   7.355
11133POPC   NC370427  33.029  43.930   5.555
11133POPC   PO470428  33.049  43.846   5.855
11133POPC   GL170429  33.035  43.936   6.155
11133POPC   GL270430  33.164  43.843   6.155
11133POPC   C1A70431  33.028  43.864   6.455
11133POPC   D2A70432  32.975  43.872   6.755
11133POPC   C3A70433  33.000  43.913   7.055
11133POPC   C4A70434  33.014  43.927   7.355
11133POPC   C1B70435  33.224  43.718   6.455
11133POPC   C2B70436  33.273  43.790   6.755
11133POPC   C3B70437  33.285  43.760   7.055
11133POPC   C4B70438  33.234  43.781   7.355
11134POPC   NC370439  44.693   1.258   5.555
11134POPC   PO470440  44.637   1.219   5.855
11134POPC   GL170441  44.677   1.230   6.155
11134POPC   GL270442  44.681   1.318   6.155
11134POPC   C1A70443  44.613   1.224   6.455
11134POPC   D2A70444  44.620   1.185   6.755
11134POPC   C3A70445  44.675   1.177   7.055
11134POPC   C4A70446  44.692   1.197   7.355
11134POPC   C1B70447  44.698   1.454   6.455
11134POPC   C2B70448  44.724   1.449   6.755
11134POPC   C3B70449  44.762   1.463   7.055
11134POPC   C4B70450  44.774   1.492   7.355
11135POPC   NC370451  40.002  40.803   5.555
11135POPC   PO470452  40.033  40.796   5.855
11135POPC   GL170453  40.031  40.795   6.155
11135POPC   GL270454  39.970  40.878   6.155
11135POPC   C1A70455  40.042  40.760   6.455
11135POPC   D2A70456  40.025  40.789   6.755
11135POPC   C3A70457  39.971  40.818   7.055
11135POPC   C4A70458  40.033  40.792   7.355
11135POPC   C1B70459  40.026  41.041   6.455
11135POPC   C2B70460  39.952  41.029   6.755
11135POPC   C3B70461  39.988  40.999   7.055
11135POPC   C4B70462  39.978  40.983   7.355
11136POPC   NC370463  34.533  18.304   5.555
11136POPC   PO470464  34.560  18.308   5.855
11136POPC   GL170465  34.546  18.251   6.155
11136POPC   GL270466  34.722  18.209   6.155
11136POPC   C1A70467  34.596  18.294   6.455
11136POPC   D2A70468  34.614  18.286   6.755
11136POPC   C3A70469  34.601  18.282   7.055
11136POPC   C4A70470  34.620  18.246   7.355
11136POPC   C1B70471  34.796  18.170   6.455
11136POPC   C2B70472  34.789  18.114   6.755
11136POPC   C3B70473  34.785  18.161   7.055
11136POPC   C4B70474  34.833  18.145   7.355
11137POPC   NC370475  12.101  12.056   5.555
11137POPC   PO470476  12.123  12.034   5.855
11137POPC   GL170477  12.029  12.069   6.155
11137POPC   GL270478  12.034  12.207   6.155
11137POPC   C1A70479  12.116  12.119   6.455
11137POPC   D2A70480  12.076  12.055   6.755
11137POPC   C3A70481  12.113  12.038   7.055
11137POPC   C4A70482  12.026  12.092   7.355
11137POPC   C1B70483  12.026  12.356   6.455
11137POPC   C2B70484  12.028  12.268   6.755
11137POPC   C3B70485  11.986  12.294   7.055
11137POPC   C4B70486  11.998  12.309   7.355
11138POPC   NC370487  32.271   5.048   5.555
11138POPC   PO470488  32.214   5.084   5.855
11138POPC   GL170489  32.267   5.084   6.155
11138POPC   GL270490  32.224   5.017   6.155
11138POPC   C1A70491  32.251   5.116   6.455
11138POPC   D2A70492  32.205   5.096   6.755
11138POPC   C3A70493  32.230   5.052   7.055
11138POPC   C4A70494  32.285   5.076   7.355
11138POPC   C1B70495  32.207   4.871   6.455
11138POPC   C2B70496  32.250   4.829   6.755
11138POPC   C3B70497  32.299   4.859   7.055
11138POPC   C4B70498  32.222   4.797   7.355
11139POPC   NC370499  20.660  10.486   5.555
11139POPC   PO470500  20.574  10.533   5.855
11139POPC   GL170501  20.631  10.482   6.155
11139POPC   GL270502  20.691  10.415   6.155
11139POPC   C1A70503  20.590  10.535   6.455
11139POPC   D2A70504  20.612  10.558   6.755
11139POPC   C3A70505  20.598  10.531   7.055
11139POPC   C4A70506  20.653  10.477   7.355
11139POPC   C1B70507  20.695  10.325   6.455
11139POPC   C2B70508  20.778  10.315   6.755
11139POPC   C3B70509  20.746  10.314   7.055
11139POPC   C4B70510  20.716  10.327   7.355
11140POPC   NC370511  12.837  30.647   5.555
11140POPC   PO470512  12.868  30.652   5.855
11140POPC   GL170513  12.869  30.731   6.155
11140POPC   GL270514  12.964  30.775   6.155
11140POPC   C1A70515  12.835  30.746   6.455
11140POPC   D2A70516  12.837  30.737   6.755
11140POPC   C3A70517  12.820  30.678   7.055
11140POPC   C4A70518  12.836  30.659   7.355
11140POPC   C1B70519  13.137  30.805   6.455
11140POPC   C2B70520  13.064  30.718   6.755
11140POPC   C3B70521  13.106  30.791   7.055
11140POPC   C4B70522  13.131  30.718   7.355
11141POPC   NC370523   2.038   6.644   5.555
11141POPC   PO470524   2.017   6.680   5.855
11141POPC   GL170525   2.004   6.634   6.155
11141POPC   GL270526   2.151   6.630   6.155
11141POPC   C1A70527   1.956   6.652   6.455
11141POPC   D2A70528   1.991   6.662   6.755
11141POPC   C3A70529   1.986   6.618   7.055
11141POPC   C4A70530   1.998   6.686   7.355
11141POPC   C1B70531   2.200   6.527   6.455
11141POPC   C2B70532   2.232   6.554   6.755
11141POPC   C3B70533   2.271   6.607   7.055
11141POPC   C4B70534   2.190   6.535   7.355
11142POPC   NC370535   8.206  15.930   5.555
11142POPC   PO470536   8.207  15.936   5.855
11142POPC   GL170537   8.228  15.936   6.155
11142POPC   GL270538   8.044  15.968   6.155
11142POPC   C1A70539   8.177  15.927   6.455
11142POPC   D2A70540   8.168  15.912   6.755
11142POPC   C3A70541   8.213  15.984   7.055
11142POPC   C4A70542   8.202  16.001   7.355
11142POPC   C1B70543   8.020  16.101   6.455
11142POPC   C2B70544   8.010  16.095   6.755
11142POPC   C3B70545   7.959  16.105   7.055
11142POPC   C4B70546   7.958  16.043   7.355
11143POPC   NC370547  14.436  33.780   5.555
11143POPC   PO470548  14.449  33.806   5.855
11143POPC   GL170549  14.426  33.842   6.155
11143POPC   GL270550  14.396  33.878   6.155
11143POPC   C1A70551  14.405  33.787   6.455
11143POPC   D2A70552  14.451  33.780   6.755
11143POPC   C3A70553  14.431  33.814   7.055
11143POPC   C4A70554  14.361  33.775   7.355
11143POPC   C1B70555  14.478  34.006   6.455
11143POPC   C2B70556  14.423  34.063   6.755
11143POPC   C3B70557  14.487  34.000   7.055
11143POPC   C4B70558  14.437  34.062   7.355
11144POPC   NC370559   6.672  21.347   5.555
11144POPC   PO470560   6.683  21.399   5.855
11144POPC   GL170561   6.656  21.420   6.155
11144POPC   GL270562   6.591  21.315   6.155
11144POPC   C1A70563   6.646  21.340   6.455
11144POPC   D2A70564   6.668  21.343   6.755
11144POPC   C3A70565   6.613  21.403   7.055
11144POPC   C4A70566   6.660  21.430   7.355
11144POPC   C1B70567   6.585  21.152   6.455
11144POPC   C2B70568   6.602  21.130   6.755
11144POPC   C3B70569   6.527  21.110   7.055
11144POPC   C4B70570   6.520  21.184   7.355
11145POPC   NC370571  31.482  13.672   5.555
11145POPC   PO470572  31.484  13.651   5.855
11145POPC   GL170573  31.454  13.656   6.155
11145POPC   GL270574  31.458  13.729   6.155
11145POPC   C1A70575  31.485  13.617   6.455
11145POPC   D2A70576  31.479  13.595   6.755
11145POPC   C3A70577  31.489  13.609   7.055
11145POPC   C4A70578  31.490  13.587   7.355
11145POPC   C1B70579  31.382  13.837   6.455
11145POPC   C2B70580  31.365  13.860   6.755
11145POPC   C3B70581  31.379  13.846   7.055
11145POPC   C4B70582  31.402  13.847   7.355
11146POPC   NC370583  12.804  23.764   5.555
11146POPC   PO470584  12.854  23.705   5.855
11146POPC   GL170585  12.852  23.668   6.155
11146POPC   GL270586  12.862  23.574   6.155
11146POPC   C1A70587  12.820  23.717   6.455
11146POPC   D2A70588  12.812  23.699   6.755
11146POPC   C3A70589  12.828  23.758   7.055
11146POPC   C4A70590  12.896  23.730   7.355
11146POPC   C1B70591  12.915  23.435   6.455
11146POPC   C2B70592  12.923  23.452   6.755
11146POPC   C3B70593  12.984  23.523   7.055
11146POPC   C4B70594  12.992  23.521   7.355
11147POPC   NC370595  31.434  36.861   5.555
11147POPC   PO470596  31.481  36.922   5.855
11147POPC   GL170597  31.445  36.864   6.155
11147POPC   GL270598  31.538  36.959   6.155
11147POPC   C1A70599  31.458  36.916   6.455
11147POPC   D2A70600  31.492  36.890   6.755
11147POPC   C3A70601  31.468  36.919   7.055
11147POPC   C4A70602  31.488  36.946   7.355
11147POPC   C1B70603  31.724  37.031   6.455
11147POPC   C2B70604  31.677  37.046   6.755
11147POPC   C3B70605  31.702  37.037   7.055
11147POPC   C4B70606  31.675  37.031   7.355
11148POPC   NC370607  29.145  17.465   5.555
11148POPC   PO470608  29.140  17.554   5.855
11148POPC   GL170609  29.182  17.504   6.155
11148POPC   GL270610  29.050  17.509   6.155
11148POPC   C1A70611  29.183  17.481   6.455
11148POPC   D2A70612  29.174  17.462   6.755
11148POPC   C3A70613  29.143  17.546   7.055
11148POPC   C4A70614  29.133  17.478   7.355
11148POPC   C1B70615  28.872  17.510   6.455
11148POPC   C2B70616  28.881  17.447   6.755
11148POPC   C3B70617  28.873  17.459   7.055
11148POPC   C4B70618  28.941  17.457   7.355
11149POPC   NC370619   8.147  33.009   5.555
11149POPC   PO470620   8.239  33.004   5.855
11149POPC   GL170621   8.216  33.073   6.155
11149POPC   GL270622   8.073  33.047   6.155
11149POPC   C1A70623   8.202  33.009   6.455
11149POPC   D2A70624   8.241  33.024   6.755
11149POPC   C3A70625   8.216  33.039   7.055
11149POPC   C4A70626   8.213  33.005   7.355
11149POPC   C1B70627   7.986  33.042   6.455
11149POPC   C2B70628   7.988  33.000   6.755
11149POPC   C3B70629   7.944  32.967   7.055
11149POPC   C4B70630   7.922  33.016   7.355
11150POPC   NC370631  40.803  30.658   5.555
11150POPC   PO470632  40.760  30.700   5.855
11150POPC   GL170633  40.741  30.727   6.155
11150POPC   GL270634  40.827  30.598   6.155
11150POPC   C1A70635  40.769  30.665   6.455
11150POPC   D2A70636  40.743  30.664   6.755
11150POPC   C3A70637  40.820  30.743   7.055
11150POPC   C4A70638  40.789  30.721   7.355
11150POPC   C1B70639  40.796  30.404   6.455
11150POPC   C2B70640  40.805  30.428   6.755
11150POPC   C3B70641  40.788  30.416   7.055
11150POPC   C4B70642  40.776  30.434   7.355
11151POPC   NC370643  21.361   1.995   5.555
11151POPC   PO470644  21.395   1.961   5.855
11151POPC   GL170645  21.391   2.024   6.155
11151POPC   GL270646  21.379   2.145   6.155
11151POPC   C1A70647  21.410   1.966   6.455
11151POPC   D2A70648  21.358   1.996   6.755
11151POPC   C3A70649  21.368   1.961   7.055
11151POPC   C4A70650  21.417   2.024   7.355
11151POPC   C1B70651  21.314   2.251   6.455
11151POPC   C2B70652  21.272   2.241   6.755
11151POPC   C3B70653  21.323   2.205   7.055
11151POPC   C4B70654  21.280   2.193   7.355
11152POPC   NC370655  14.420   9.763   5.555
11152POPC   PO470656  14.415   9.768   5.855
11152POPC   GL170657  14.388   9.794   6.155
11152POPC   GL270658  14.334   9.733   6.155
11152POPC   C1A70659  14.421   9.740   6.455
11152POPC   D2A70660  14.435   9.791   6.755
11152POPC   C3A70661  14.451   9.746   7.055
11152POPC   C4A70662  14.396   9.708   7.355
11152POPC   C1B70663  14.167   9.620   6.455
11152POPC   C2B70664  14.188   9.671   6.755
11152POPC   C3B70665  14.135   9.662   7.055
11152POPC   C4B70666  14.164   9.673   7.355
11153POPC   NC370667  12.884  43.133   5.555
11153POPC   PO470668  12.842  43.062   5.855
11153POPC   GL170669  12.876  43.159   6.155
11153POPC   GL270670  12.916  43.142   6.155
11153POPC   C1A70671  12.819  43.103   6.455
11153POPC   D2A70672  12.828  43.093   6.755
11153POPC   C3A70673  12.825  43.083   7.055
11153POPC   C4A70674  12.851  43.082   7.355
11153POPC   C1B70675  13.022  43.218   6.455
11153POPC   C2B70676  13.089  43.246   6.755
11153POPC   C3B70677  13.057  43.243   7.055
11153POPC   C4B70678  13.017  43.211   7.355
11154POPC   NC370679  40.045  19.059   5.555
11154POPC   PO470680  40.018  19.032   5.855
11154POPC   GL170681  39.983  19.047   6.155
11154POPC   GL270682  39.879  19.019   6.155
11154POPC   C1A70683  40.048  19.071   6.455
11154POPC   D2A70684  40.046  19.016   6.755
11154POPC   C3A70685  40.008  19.023   7.055
11154POPC   C4A70686  40.014  19.073   7.355
11154POPC   C1B70687  39.762  19.043   6.455
11154POPC   C2B70688  39.786  19.042   6.755
11154POPC   C3B70689  39.764  19.023   7.055
11154POPC   C4B70690  39.760  19.032   7.355
11155W        W70691  18.643  26.480  14.764
11156W        W70692   0.782  42.979   1.850
11157W        W70693  32.598  40.442   0.826
11158W        W70694   6.197  13.814   3.664
11159W        W70695  43.774  21.117   4.141
11160W        W70696   4.792  15.095  14.485
11161W        W70697  27.551  29.133   2.257
11162W        W70698  12.790  44.488   1.364
11163W        W70699  32.063  37.859   1.348
11164W        W70700  40.945   7.695   1.737
11165W        W70701  42.822  21.603   3.693
11166W        W70702  15.809   4.323   0.450
11167W        W70703   5.384  19.646   3.159
11168W        W70704  10.662  12.211   2.667
11169W        W70705  12.304  33.623   2.205
11170W        W70706  27.120  30.110  14.853
11171W        W70707  38.846  17.779  14.406
11172W        W70708  30.988   1.343   3.154
11173W        W70709  40.840  11.736  10.036
11174W        W70710  12.248   4.808  13.517
11175W        W70711   2.957  34.504   2.363
11176W        W70712  30.532  10.205   1.731
11177W        W70713  17.663  39.453   0.473
11178W        W70714  33.073  36.866   2.711
11179W        W70715  34.476  17.114   0.336
11180W        W70716  10.255  19.703  14.865
11181W        W70717  40.339  13.766  12.577
11182W        W70718  11.787  13.613   4.661
11183W        W70719  34.510   1.347  14.970
11184W        W70720  25.476  30.981   2.271
11185W        W70721  12.323  12.822  11.378
11186W        W70722   4.781  17.155  13.371
11187W        W70723  21.243  29.149   2.299
11188W        W70724   8.768   3.825  11.029
11189W        W70725   3.240  26.141  12.579
11190W        W70726  10.697  15.727   9.994
11191W        W70727  13.138   6.822   0.367
11192W        W70728  16.133  36.012   3.670
11193W        W70729  16.601  27.087  12.884
11194W        W70730  21.040  39.371   3.739
11195W        W70731  29.649  13.283  12.517
11196W        W70732  25.630  12.179  13.424
11197W        W70733  29.659  30.586   3.681
11198W        W70734  27.665  43.316   1.825
11199W        W70735   3.863  30.963  11.094
11200W        W70736  26.018   5.309   2.304
11201W        W70737  13.718  32.910   1.844
11202W        W70738  28.436  39.910  11.941
11203W        W70739  12.762  42.293  14.410
11204W        W70740  36.389   3.884  13.334
11205W        W70741   1.265  25.682   4.260
11206W        W70742  38.944   2.384  14.839
11207W        W70743   5.349   2.228  12.902
11208W        W70744  10.838  19.543   1.804
11209W        W70745  34.004  24.007   3.361
11210W        W70746  25.160  31.987   0.769
11211W        W70747   6.204  10.822   0.763
11212W        W70748  34.910  40.514  14.377
11213W        W70749  19.190  29.058  14.008
11214W        W70750  18.140   9.791  10.994
11215W        W70751   2.753  41.502   0.427
11216W        W70752   4.911  29.094  14.857
11217W        W70753  30.062  39.451   2.874
11218W        W70754  43.471  28.483  11.558
11219W        W70755  31.904  38.964   1.280
11220W        W70756  37.956   5.930   3.256
11221W        W70757  35.974  23.671   0.898
11222W        W70758  27.642  41.968   2.859
11223W        W70759   6.823  20.242  14.312
11224W        W70760  25.666  23.098  11.054
11225W        W70761   4.256  33.593  13.000
11226W        W70762  25.028  27.568  10.910
11227W        W70763  34.958  21.523  12.409
11228W        W70764  26.058  28.541   0.355
11229W        W70765  30.068   6.777   1.434
11230W        W70766  25.697  27.190   0.435
11231W        W70767  17.233  11.683  11.046
11232W        W70768   6.780  40.043  10.963
11233W        W70769  41.953   9.856  10.505
11234W        W70770  12.206  32.454  11.955
11235W        W70771  18.789  13.129   0.272
11236W        W70772  32.021   1.291   2.367
11237W        W70773  42.915  42.820  14.409
11238W        W70774   5.926  25.162   4.710
11239W        W70775   1.288  30.427   4.727
11240W        W70776  23.190  27.501   0.419
11241W        W70777  34.483  38.426  11.420
11242W        W70778   6.819  25.660   4.729
11243W        W70779   8.827  17.144  10.461
11244W        W70780   5.722  23.505  11.373
11245W        W70781  37.903  19.566   4.770
11246W        W70782  39.427  19.541   4.318
11247W        W70783  44.936   9.240   1.250
11248W        W70784  34.517  42.900   4.647
11249W        W70785  39.967  25.020   4.224
11250W        W70786  20.614  38.425  14.287
11251W        W70787   3.336   7.243   3.276
11252W        W70788  43.500  19.622  11.388
11253W        W70789  17.604  25.542  11.896
11254W        W70790  24.175   9.677  10.946
11255W        W70791  11.189  37.080  12.967
11256W        W70792  25.492  27.121  11.384
11257W        W70793  35.889  23.723   3.656
11258W        W70794  13.817  19.740   1.279
11259W        W70795  31.922  37.524   1.409
11260W        W70796  37.044   1.757   0.294
11261W        W70797  10.363  25.162  12.468
11262W        W70798  40.471  42.430  13.538
11263W        W70799  17.678  26.521  10.891
11264W        W70800  31.119  16.247  12.004
11265W        W70801  34.094   1.306  14.868
11266W        W70802  37.056  28.486  11.612
11267W        W70803   2.406   1.881   9.947
11268W        W70804  24.011   8.864   2.764
11269W        W70805  28.976  23.019  13.969
11270W        W70806  30.123  15.658   1.789
11271W        W70807  18.111  18.213   2.666
11272W        W70808  25.581  44.415  11.997
11273W        W70809  30.053  31.983   1.334
11274W        W70810  31.606   6.685   0.943
11275W        W70811  22.080  33.431  13.974
11276W        W70812  23.599   1.778  13.351
11277W        W70813  24.688  41.402  14.491
11278W        W70814   8.762  10.838  11.129
11279W        W70815   3.385   2.379   3.650
11280W        W70816  43.344  24.227  12.483
11281W        W70817  19.632   6.277   0.800
11282W        W70818   8.284  41.442  11.024
11283W        W70819  14.103   2.434  10.411
11284W        W70820  42.028  42.870  12.495
11285W        W70821  24.508  29.985  13.515
11286W        W70822  10.867  39.855  10.908
11287W        W70823  13.828  32.501   1.708
11288W        W70824  11.648   9.849   1.406
11289W        W70825  38.848   8.283   1.259
11290W        W70826  32.418  41.470  12.096
11291W        W70827   9.718   6.731   5.667
11292W        W70828  37.875  33.023  13.905
11293W        W70829  35.888  30.596   0.254
11294W        W70830  24.090  23.689   2.760
11295W        W70831  31.444  15.730  14.477
11296W        W70832   6.836  39.405  10.559
11297W        W70833  15.657  34.998  10.462
11298W        W70834  38.341  15.282  14.778
11299W        W70835  37.377  19.556  10.548
11300W        W70836   4.937  11.726  13.382
11301W        W70837  34.923  43.816   2.714
11302W        W70838  31.121  20.060  11.931
11303W        W70839  18.159  21.564   4.336
11304W        W70840   0.856  15.295   2.686
11305W        W70841  24.023  43.843   3.647
11306W        W70842  10.693  12.159  11.378
11307W        W70843  11.360  41.373   2.337
11308W        W70844  38.413  27.041   0.463
11309W        W70845  33.512  11.831  13.427
11310W        W70846  40.484  41.893   1.431
11311W        W70847  17.078  13.160   3.173
11312W        W70848   0.431  31.046  11.119
11313W        W70849  17.589   5.710  12.350
11314W        W70850  26.961  40.960  11.576
11315W        W70851   7.258  30.010   3.180
11316W        W70852  15.153  30.022   1.226
11317W        W70853  12.669  21.164  13.060
11318W        W70854   0.825  30.103   2.821
11319W        W70855  16.202   2.768  11.987
11320W        W70856  31.468  40.342   2.310
11321W        W70857   7.413   7.270   3.641
11322W        W70858  21.631  43.280   2.365
11323W        W70859   4.274  35.382  11.856
11324W        W70860  26.192  11.210  12.544
11325W        W70861  21.615  26.163   4.823
11326W        W70862   2.854  29.660   4.722
11327W        W70863  43.500  13.609  12.501
11328W        W70864  40.984  40.907  12.900
11329W        W70865  35.446  31.531  13.388
11330W        W70866  44.847  22.061  10.991
11331W        W70867  41.447  39.065  11.052
11332W        W70868  30.456  27.653  13.060
11333W        W70869  41.359  35.454  12.953
11334W        W70870  15.585  26.686   1.220
11335W        W70871  37.459  28.000   1.339
11336W        W70872  28.020  14.795  14.398
11337W        W70873  28.116  24.595  12.577
11338W        W70874  39.881  27.498   3.717
11339W        W70875  42.492   3.337  12.560
11340W        W70876  30.937   9.214   0.875
11341W        W70877  29.662   3.735  14.984
11342W        W70878   1.436   9.261  14.835
11343W        W70879  27.063   0.347  10.429
11344W        W70880  12.358  10.275   1.265
11345W        W70881  40.910   4.848  14.342
11346W        W70882  36.872  20.265  14.471
11347W        W70883  42.006  32.441  14.395
11348W        W70884  25.713  16.745   2.895
11349W        W70885   3.867  34.420  13.818
11350W        W70886  19.649  14.824   1.372
11351W        W70887  10.748  14.640   4.339
11352W        W70888  21.698  33.935  14.857
11353W        W70889  29.053   5.759   1.703
11354W        W70890  17.691  13.699  10.634
11355W        W70891  23.615  17.569  14.416
11356W        W70892  18.733  13.685  12.013
11357W        W70893  43.776  44.413   4.833
11358W        W70894  20.658  32.071  12.064
11359W        W70895  30.614  20.271  11.388
11360W        W70896  11.372  12.701   0.774
11361W        W70897  16.744   0.289  14.833
11362W        W70898  38.894  10.299   1.836
11363W        W70899  41.499  10.349  10.977
11364W        W70900  13.293   4.928   0.258
11365W        W70901  26.993  44.901  14.863
11366W        W70902  39.513  43.792   2.823
11367W        W70903  28.670  21.072  11.890
11368W        W70904   1.752  14.131  14.471
11369W        W70905  11.761   9.351   1.336
11370W        W70906   1.936  25.570   0.472
11371W        W70907  40.505   6.195   1.816
11372W        W70908  12.186  41.302   3.799
11373W        W70909  27.962   3.404  14.850
11374W        W70910   2.895  12.641  11.577
11375W        W70911  20.634   7.742  12.484
11376W        W70912  11.775  38.936  14.957
11377W        W70913   1.434   2.438  12.359
11378W        W70914   4.780  14.717   1.785
11379W        W70915   9.659  44.441   2.364
11380W        W70916  42.971  39.826  14.286
11381W        W70917  31.475  34.431  14.505
11382W        W70918  11.233  38.844  11.073
11383W        W70919  18.225  21.160   1.779
11384W        W70920  42.479  27.152  11.049
11385W        W70921   7.873  12.680   2.803
11386W        W70922  22.132  33.558  13.017
11387W        W70923  36.410  42.874  14.377
11388W        W70924  41.866  15.105  10.618
11389W        W70925   6.340   0.287   4.251
11390W        W70926  23.076  40.967  11.468
11391W        W70927  10.189  30.509   9.613
11392W        W70928  40.013  10.298   3.299
11393W        W70929  23.035  21.751   4.809
11394W        W70930  27.648   5.230  12.846
11395W        W70931  13.704  27.495  14.316
11396W        W70932  32.885   3.280  14.855
11397W        W70933  32.466  27.193   1.896
11398W        W70934  42.401  22.142   3.148
11399W        W70935  34.401  20.591   4.739
11400W        W70936  12.765  26.634   0.301
11401W        W70937  33.895  38.396   0.432
11402W        W70938   9.737   4.393  14.800
11403W        W70939   5.863  30.917  14.887
11404W        W70940  19.756  10.801   1.242
11405W        W70941   4.718   0.882   3.151
11406W        W70942  26.038  22.566   0.418
11407W        W70943  32.141  19.733  14.969
11408W        W70944  16.710  19.107   1.762
11409W        W70945  24.611  29.539   1.931
11410W        W70946  17.791  44.323   3.655
11411W        W70947   2.253   7.823   2.311
11412W        W70948   4.777  37.542  14.778
11413W        W70949  39.385  21.730  14.494
11414W        W70950  25.666  15.151  11.867
11415W        W70951   0.940  12.631  10.643
11416W        W70952  29.645   3.805   1.729
11417W        W70953  12.240  27.116   1.840
11418W        W70954  14.286  29.559   1.813
11419W        W70955  44.469  31.972  13.512
11420W        W70956  23.490  34.035  14.006
11421W        W70957  25.701  13.257  12.984
11422W        W70958   8.837  40.031  11.092
11423W        W70959  29.628  25.115  14.419
11424W        W70960  36.999  29.436  11.537
11425W        W70961  15.308  43.830   1.807
11426W        W70962   5.294  33.899   4.657
11427W        W70963  30.933   9.863   2.192
11428W        W70964  19.537  31.476   4.708
11429W        W70965  36.006  10.209  14.989
11430W        W70966  15.716  33.390  11.014
11431W        W70967  26.016   1.911  12.980
11432W        W70968   2.339   7.306  10.426
11433W        W70969  18.632  14.279   4.164
11434W        W70970  36.956   6.308   1.254
11435W        W70971  11.704  29.065   1.898
11436W        W70972  34.930  30.090  12.952
11437W        W70973  29.176  37.476  14.016
11438W        W70974  38.827  13.159  10.637
11439W        W70975  14.774   9.739   0.878
11440W        W70976  12.134  14.716  13.533
11441W        W70977   2.890  33.544  11.417
11442W        W70978  25.035  39.870   3.839
11443W        W70979   0.891  23.087   0.826
11444W        W70980  44.361  10.691   4.838
11445W        W70981   9.741   5.754  11.969
11446W        W70982  20.652  14.111   4.132
11447W        W70983  34.999  19.069   2.232
11448W        W70984  19.043  40.876   3.832
11449W        W70985   6.764  19.622   3.185
11450W        W70986   5.437   4.423   3.177
11451W        W70987  32.466  14.655   0.249
11452W        W70988  18.658  18.596   1.406
11453W        W70989  10.871  23.195   3.699
11454W        W70990  14.260  43.379  14.426
11455W        W70991  34.928  26.456   9.624
11456W        W70992  42.893  15.777   1.736
11457W        W70993  28.640   8.264  11.909
11458W        W70994  36.978   8.794   3.238
11459W        W70995  12.792  42.484   2.817
11460W        W70996  34.968  40.467   5.317
11461W        W70997  25.186  17.134   0.754
11462W        W70998  19.224  12.176   0.814
11463W        W70999  12.733   3.443   1.894
11464W        W71000  44.377  44.008  11.565
11465W        W71001   8.838  29.613  11.035
11466W        W71002  33.882   9.781  10.497
11467W        W71003  12.646  24.705  11.940
11468W        W71004   6.789  40.505   0.828
11469W        W71005   7.248  44.927   3.857
11470W        W71006   4.938  14.636   4.206
11471W        W71007  33.420  13.746  11.609
11472W        W71008  27.022   7.292  11.068
11473W        W71009  34.410  31.520   1.730
11474W        W71010   5.858   6.343   0.823
11475W        W71011  23.081  36.061  13.892
11476W        W71012  31.633  21.690  11.983
11477W        W71013  12.837  31.938  12.000
11478W        W71014   4.329   8.889  11.481
11479W        W71015  17.271  26.633  12.875
11480W        W71016  25.083  22.512   2.721
11481W        W71017   3.748  42.806  14.936
11482W        W71018  23.174  10.716  13.445
11483W        W71019  15.308  20.565  12.938
11484W        W71020   1.836  39.814   3.696
11485W        W71021  27.657  10.301   3.738
11486W        W71022  28.127  40.354   3.265
11487W        W71023  33.420   8.205   1.777
11488W        W71024  35.475  34.575  12.574
11489W        W71025  11.818  42.352   2.242
11490W        W71026  17.226   7.719  10.915
11491W        W71027  34.429  12.737  10.932
11492W        W71028  33.078  42.509  14.411
11493W        W71029  21.194  36.995   2.385
11494W        W71030  26.031   0.454   3.693
11495W        W71031  43.003   6.251   2.246
11496W        W71032  16.274  10.210   1.709
11497W        W71033   8.258  32.563   1.272
11498W        W71034  11.826  35.387  13.442
11499W        W71035   0.297  23.058   3.822
11500W        W71036  28.517  35.583  13.869
11501W        W71037  20.759  22.720  11.022
11502W        W71038  20.590  29.542  11.566
11503W        W71039  18.295  38.476  14.857
11504W        W71040  40.801  22.665  13.948
11505W        W71041   1.964  23.581  14.872
11506W        W71042  21.523  22.686  14.335
11507W        W71043  25.196  28.525  14.333
11508W        W71044  34.378  13.735  14.810
11509W        W71045  30.413   0.436  12.493
11510W        W71046  21.227  32.074  10.425
11511W        W71047  38.069  44.419   3.720
11512W        W71048   0.865  31.477  11.053
11513W        W71049   8.326  42.297  12.846
11514W        W71050  24.143   1.480   2.263
11515W        W71051  29.479   6.701  10.502
11516W        W71052  30.596  26.600   2.822
11517W        W71053  33.568   6.857   4.711
11518W        W71054  36.948  24.675   2.706
11519W        W71055  20.147  13.706  12.562
11520W        W71056  21.194  13.179   3.831
11521W        W71057  19.071   8.353   2.831
11522W        W71058  13.799  35.894   0.363
11523W        W71059  36.446  31.470  10.545
11524W        W71060  16.784  11.664  11.866
11525W        W71061   8.244  14.107  13.860
11526W        W71062  33.597  32.613   2.348
11527W        W71063  40.921   6.913  11.938
11528W        W71064  29.487  10.792  13.923
11529W        W71065  44.993  14.300  13.431
11530W        W71066  15.329  15.784  10.591
11531W        W71067  12.816  26.953   2.413
11532W        W71068  42.364  36.542  14.457
11533W        W71069   4.944  24.557  12.982
11534W        W71070  38.494  22.732   3.320
11535W        W71071  44.391  28.957  12.886
11536W        W71072  36.514  23.003   1.285
11537W        W71073  44.367  24.194  13.373
11538W        W71074  16.744   3.821  13.477
11539W        W71075   5.875  42.350   1.398
11540W        W71076  40.971  25.662  14.410
11541W        W71077   3.924  20.571   0.436
11542W        W71078   1.477   7.864  11.510
11543W        W71079  13.272  26.974  14.982
11544W        W71080  35.923  43.815   3.666
11545W        W71081  11.850  12.249   0.748
11546W        W71082  16.713   0.471  12.921
11547W        W71083  19.144  33.400  11.982
11548W        W71084  11.851  34.505   3.250
11549W        W71085  32.054  39.847   4.193
11550W        W71086  27.086  43.456   1.242
11551W        W71087  22.205  11.314  14.818
11552W        W71088  42.933  24.524   2.781
11553W        W71089  40.470  16.206  12.406
11554W        W71090  28.534  26.650   1.294
11555W        W71091   2.283  27.086  12.953
11556W        W71092  15.142  33.417   0.840
11557W        W71093  39.886  39.962   3.767
11558W        W71094   4.945  24.043   0.768
11559W        W71095  18.082   7.222   0.824
11560W        W71096   4.358  13.625   1.288
11561W        W71097  16.711  35.892  11.004
11562W        W71098  18.217  41.885   3.773
11563W        W71099  37.048  36.076   1.433
11564W        W71100  35.915  11.868   3.798
11565W        W71101  27.007  13.697   0.329
11566W        W71102   1.871  17.268   4.116
11567W        W71103  23.226  24.513   3.298
11568W        W71104  20.696  19.242  10.935
11569W        W71105  43.855  19.279  12.978
11570W        W71106  36.946  13.221   2.338
11571W        W71107   7.822  28.553   0.400
11572W        W71108  17.167  29.140  13.943
11573W        W71109  26.567  31.438   1.785
11574W        W71110  44.299  20.118   0.451
11575W        W71111   0.777  19.742  11.861
11576W        W71112  42.945  32.466  12.547
11577W        W71113  33.611  30.080   5.118
11578W        W71114  19.634  17.247  10.998
11579W        W71115  39.930  30.631  12.958
11580W        W71116  22.112  30.105   4.720
11581W        W71117  26.689  23.530  13.464
11582W        W71118  40.357  43.799  14.912
11583W        W71119  43.888  30.436   2.695
11584W        W71120  22.180  21.721  10.905
11585W        W71121  43.397  42.491  10.938
11586W        W71122  34.369  15.258   1.410
11587W        W71123  41.028   2.737   9.923
11588W        W71124  21.757   0.753   4.343
11589W        W71125  44.919  20.255   0.274
11590W        W71126  36.021  14.252   4.311
11591W        W71127  25.506  28.046  12.000
11592W        W71128   3.403  28.119   0.389
11593W        W71129  27.012  28.121   4.340
11594W        W71130  41.836  44.327   1.342
11595W        W71131  30.002  23.224   0.250
11596W        W71132  26.509  34.065   1.759
11597W        W71133   2.792   9.284   2.856
11598W        W71134  11.678   1.852  12.376
11599W        W71135  14.663  10.374  14.306
11600W        W71136   1.325  39.444  14.951
11601W        W71137   6.716  28.509  14.372
11602W        W71138  32.563  33.084  14.403
11603W        W71139  36.357   2.277   1.836
11604W        W71140  18.692  28.086   1.715
11605W        W71141  30.120   4.387  11.901
11606W        W71142  19.649  11.792  12.488
11607W        W71143  30.463  28.026   0.328
11608W        W71144  13.119   5.860   1.436
11609W        W71145   7.869  14.273  11.932
11610W        W71146  41.988  14.130  13.499
11611W        W71147  26.998   1.827  10.536
11612W        W71148  32.955  11.359  10.920
11613W        W71149  29.099  34.118   4.254
11614W        W71150  20.750   0.340   3.252
11615W        W71151  43.872  44.410  12.070
11616W        W71152   9.206  33.563  10.645
11617W        W71153  37.968   7.855  13.546
11618W        W71154  28.095  38.366   0.466
11619W        W71155  31.502  43.359  11.007
11620W        W71156   9.709  37.508   3.210
11621W        W71157  39.003  11.245  13.864
11622W        W71158   1.853  36.952   4.250
11623W        W71159  37.968  18.649   2.894
11624W        W71160  27.447   0.351  12.084
11625W        W71161  16.717  18.596  13.863
11626W        W71162  17.725  11.727  13.936
11627W        W71163  15.216   0.793  13.329
11628W        W71164  42.789   4.822   4.215
11629W        W71165  17.217  24.112  14.415
11630W        W71166  29.587  20.029  13.979
11631W        W71167  23.624  26.042  13.968
11632W        W71168  38.511  24.531  11.462
11633W        W71169   4.819  23.147  14.873
11634W        W71170  13.244  11.312  13.447
11635W        W71171  43.340  18.722   2.387
11636W        W71172  42.962   9.847  11.513
11637W        W71173  34.977  17.120   1.308
11638W        W71174   1.244  31.462   0.823
11639W        W71175  40.981  25.995   1.725
11640W        W71176   8.170   4.927  11.875
11641W        W71177   6.331  39.854  14.811
11642W        W71178  10.154   2.729   4.168
11643W        W71179  12.838  18.727  13.896
11644W        W71180  43.415  34.537   2.393
11645W        W71181  32.904  32.514   2.376
11646W        W71182  28.077  44.943   0.900
11647W        W71183  30.434  21.034  11.593
11648W        W71184  23.689  33.475   2.680
11649W        W71185  14.135  22.630  14.455
11650W        W71186  41.494  38.383   0.339
11651W        W71187  21.037  24.140  12.944
11652W        W71188   2.736  17.619  10.491
11653W        W71189  34.018   0.476  11.103
11654W        W71190  26.563  42.398  14.995
11655W        W71191   1.805   5.323   4.157
11656W        W71192  21.644   2.887  12.993
11657W        W71193  26.196  17.129  10.105
11658W        W71194   6.349  43.398   3.326
11659W        W71195  37.459  38.819   0.260
11660W        W71196   3.872  33.416  12.964
11661W        W71197   6.868   6.793   1.900
11662W        W71198  18.623  34.888   1.303
11663W        W71199   2.288  35.106  14.469
11664W        W71200  28.607  35.533   2.840
11665W        W71201  41.374  41.934  13.892
11666W        W71202   5.244  13.156  11.968
11667W        W71203   6.802  39.520   3.703
11668W        W71204  21.250  36.021  13.487
11669W        W71205  27.986  28.066   1.865
11670W        W71206   2.303   3.376   4.771
11671W        W71207  33.619  18.075  12.423
11672W        W71208  37.869   6.809   3.183
11673W        W71209  38.828  20.185  11.106
11674W        W71210   1.341  42.396  12.880
11675W        W71211  15.686  20.692  12.928
11676W        W71212  26.485  38.337  11.129
11677W        W71213  13.736  14.833  13.917
11678W        W71214  40.462  18.647  12.910
11679W        W71215  42.998  13.735   0.901
11680W        W71216  10.348  13.143  12.954
11681W        W71217   4.838   9.319  11.008
11682W        W71218  21.110  16.270  11.874
11683W        W71219   6.792   0.863   2.310
11684W        W71220  38.939  19.091  13.384
11685W        W71221  30.554  34.051   0.748
11686W        W71222  21.023  42.865   0.832
11687W        W71223  38.047  31.972   3.328
11688W        W71224  21.680  28.573   0.794
11689W        W71225  42.911  12.730  14.450
11690W        W71226  21.516  17.245   2.684
11691W        W71227   9.326  12.715   2.414
11692W        W71228  28.956  11.262   2.801
11693W        W71229  34.530  28.653  13.040
11694W        W71230  43.976   8.246  11.596
11695W        W71231   8.842  23.164   4.763
11696W        W71232  34.908  39.901   4.769
11697W        W71233  11.861  44.982  10.947
11698W        W71234   5.793  35.442   2.403
11699W        W71235  28.095  14.820   1.801
11700W        W71236   9.777  44.861  13.884
11701W        W71237  34.405   6.720   1.254
11702W        W71238  33.920  31.115   0.773
11703W        W71239   5.271   6.380  12.507
11704W        W71240  31.967   4.238  14.836
11705W        W71241  27.999  14.240   4.733
11706W        W71242  27.110  41.856   4.198
11707W        W71243  10.766  32.138  11.098
11708W        W71244   4.233  22.648   1.245
11709W        W71245  10.380  22.644  13.418
11710W        W71246  28.571  31.444  10.902
11711W        W71247  13.135   2.851  10.499
11712W        W71248  34.476  13.211  14.834
11713W        W71249  25.019   9.354   3.753
11714W        W71250  42.391   4.824   3.809
11715W        W71251  32.558  19.178   1.738
11716W        W71252  36.975   3.333  10.536
11717W        W71253   1.879  36.901  13.009
11718W        W71254  13.769  16.299   1.304
11719W        W71255  44.000  39.549  14.781
11720W        W71256  17.731  38.359   1.785
11721W        W71257  41.021   2.440   5.186
11722W        W71258  32.547   5.819   4.699
11723W        W71259  35.494   9.673  10.484
11724W        W71260  37.533  31.029  13.437
11725W        W71261  43.375  25.163   0.431
11726W        W71262  44.842  16.150   2.821
11727W        W71263  22.564  37.852   4.717
11728W        W71264  43.873  35.404   2.412
11729W        W71265  24.013  14.096   0.326
11730W        W71266  13.163  17.207  14.858
11731W        W71267  31.105  14.631   3.711
11732W        W71268  22.514  36.432   0.956
11733W        W71269  40.323  33.994   4.796
11734W        W71270  44.997  15.254   2.229
11735W        W71271  29.150  37.449  12.097
11736W        W71272  11.246  18.775   3.828
11737W        W71273   4.822  35.543  13.525
11738W        W71274   8.364  44.009   1.241
11739W        W71275  23.642  31.442   1.286
11740W        W71276   0.385  44.408   4.142
11741W        W71277   2.468  35.540   0.738
11742W        W71278   1.800  15.185   0.941
11743W        W71279   4.432  28.999  12.466
11744W        W71280  15.792  28.105   4.145
11745W        W71281   6.394   5.861  14.011
11746W        W71282  41.859  34.088   4.793
11747W        W71283  32.414  25.190   4.204
11748W        W71284  33.010  42.947  12.347
11749W        W71285  26.576   8.204   2.871
11750W        W71286  44.426  14.731  13.912
11751W        W71287  40.822  25.648   3.211
11752W        W71288  37.476  16.245  13.799
11753W        W71289  42.914  24.174  14.332
11754W        W71290   2.323  10.267   0.467
11755W        W71291  17.558   6.761   0.826
11756W        W71292  21.718  13.768   1.289
11757W        W71293  40.010  44.489  12.950
11758W        W71294  40.431  40.394  14.462
11759W        W71295  23.525   1.405  13.502
11760W        W71296  37.417   7.749  10.496
11761W        W71297   2.906  42.476  13.333
11762W        W71298   0.328  24.539   3.148
11763W        W71299   2.468   6.380  12.923
11764W        W71300  43.454  37.853   0.814
11765W        W71301  22.663   8.681  13.367
11766W        W71302   0.403   8.772   1.416
11767W        W71303  31.408   2.939  11.858
11768W        W71304   0.295   2.864  10.467
11769W        W71305  32.976  27.593  11.906
11770W        W71306  29.130  26.987   0.755
11771W        W71307  14.245  40.999   4.259
11772W        W71308   2.233   9.831   4.319
11773W        W71309  37.874   5.842   0.425
11774W        W71310   0.470  38.552   2.191
11775W        W71311  33.498  36.901  12.503
11776W        W71312  30.154  13.259   3.715
11777W        W71313   6.303  36.467  13.420
11778W        W71314  43.390   0.951   0.729
11779W        W71315  18.602  32.926  11.984
11780W        W71316  35.461  14.648   2.321
11781W        W71317  27.535  22.580   2.302
11782W        W71318  12.288   8.684   0.789
11783W        W71319   4.815  10.771   3.287
11784W        W71320  33.890  35.976  10.973
11785W        W71321   9.778   0.469   0.754
11786W        W71322  37.576  15.086   3.798
11787W        W71323   9.723  29.995  11.395
11788W        W71324  25.619  32.044  11.887
11789W        W71325  17.200   3.888   4.685
11790W        W71326  11.848  16.113  10.448
11791W        W71327  37.929   4.256   5.281
11792W        W71328  14.144  42.944   5.206
11793W        W71329  27.980   0.289  14.439
11794W        W71330  14.640  20.632   3.667
11795W        W71331  18.708  22.036  14.409
11796W        W71332  39.370  38.986   2.886
11797W        W71333  26.483  31.082  13.900
11798W        W71334  38.350  15.266   0.448
11799W        W71335  32.621   1.977   2.252
11800W        W71336  23.042  15.297   4.242
11801W        W71337  32.112   0.453   3.186
11802W        W71338  41.876  35.557  14.348
11803W        W71339  42.423   4.286   2.696
11804W        W71340  10.229  18.568  14.346
11805W        W71341  15.251  43.819  11.489
11806W        W71342  12.767  40.529   0.837
11807W        W71343  12.778   9.704   2.793
11808W        W71344  37.509  17.641  10.412
11809W        W71345  40.467  11.656   4.340
11810W        W71346  33.582  37.021   2.869
11811W        W71347  15.144  42.457  14.780
11812W        W71348  39.344   6.283  10.461
11813W        W71349   8.245   6.887  14.816
11814W        W71350   8.745   0.784   1.842
11815W        W71351  20.749  13.117   3.259
11816W        W71352  22.091  11.819  13.500
11817W        W71353  41.536  13.338  11.956
11818W        W71354   5.338   2.405  14.980
11819W        W71355   9.758  35.604   3.164
11820W        W71356  44.497  31.105  13.375
11821W        W71357  32.535  16.801   2.863
11822W        W71358   8.218  34.116   4.723
11823W        W71359  20.140  10.666  12.465
11824W        W71360  30.420   0.938  10.535
11825W        W71361  22.587  13.349   2.228
11826W        W71362  10.226  33.099   1.784
11827W        W71363  14.224  10.243   1.233
11828W        W71364  29.086  44.840   0.348
11829W        W71365  30.500   7.858   3.239
11830W        W71366  39.519  36.841  11.118
11831W        W71367  25.607   0.426  13.496
11832W        W71368  42.845  40.511  12.536
11833W        W71369  44.416  34.008  12.464
11834W        W71370  18.721   3.391  10.528
11835W        W71371  33.985  29.175  12.413
11836W        W71372   4.233  12.286   0.831
11837W        W71373  21.620  43.424   3.224
11838W        W71374  28.938  34.468   4.355
11839W        W71375   2.245   9.684   2.818
11840W        W71376  42.303   9.395  13.317
11841W        W71377  12.712  10.783   0.400
11842W        W71378  37.382  13.654  12.411
11843W        W71379  22.077  11.362  12.466
11844W        W71380   5.750  31.075   1.400
11845W        W71381  16.755  11.350  12.401
11846W        W71382  13.206  39.486  12.925
11847W        W71383  27.622   1.255  10.985
11848W        W71384  31.113  32.095   2.357
11849W        W71385  37.435  43.434  10.524
11850W        W71386  38.828  28.074   3.328
11851W        W71387  23.520  34.605  11.520
11852W        W71388  37.040   3.878  14.865
11853W        W71389   3.362   9.190   1.356
11854W        W71390   4.795  40.532  10.577
11855W        W71391   1.386  22.627  13.011
11856W        W71392   3.369  30.551  12.504
11857W        W71393  10.301   0.984   3.367
11858W        W71394  37.004  10.681   1.339
11859W        W71395  40.410  36.907  14.979
11860W        W71396  27.682  33.564  14.472
11861W        W71397  19.172   1.798  14.377
11862W        W71398  28.183   4.706  11.055
11863W        W71399  42.490  27.999  11.571
11864W        W71400  35.988  12.164   0.320
11865W        W71401  42.835  31.634   2.893
11866W        W71402  15.279   9.706   3.755
11867W        W71403  22.551   8.811   3.690
11868W        W71404  16.615   9.766   2.209
11869W        W71405  37.552   1.250   2.836
11870W        W71406  27.549   6.750   0.478
11871W        W71407   8.761  15.629   2.806
11872W        W71408  20.675  31.974   4.145
11873W        W71409  28.076  28.509  13.048
11874W        W71410  22.073   7.713  13.509
11875W        W71411  13.330  10.183   0.461
11876W        W71412  44.888  26.204   1.913
11877W        W71413  30.480  25.666   0.945
11878W        W71414  15.169  29.994  11.937
11879W        W71415  38.902  15.091  12.841
11880W        W71416  38.460  27.662  14.778
11881W        W71417  14.239   4.320  10.533
11882W        W71418  15.690  12.684   3.280
11883W        W71419  18.589  14.340   0.770
11884W        W71420   4.790  26.657   2.804
11885W        W71421  39.873  25.555  14.378
11886W        W71422  38.948  14.174   3.786
11887W        W71423   4.897  35.363  14.910
11888W        W71424  43.892  34.396   0.313
11889W        W71425  26.195  31.444  14.372
11890W        W71426  17.306  32.940  10.944
11891W        W71427  23.049  41.347   4.687
11892W        W71428   4.298   5.916   0.835
11893W        W71429  31.010   3.332  12.561
11894W        W71430  44.945  17.249   4.200
11895W        W71431   5.757  14.273  13.347
11896W        W71432  40.008  28.006   4.694
11897W        W71433   2.441  27.095  12.494
11898W        W71434  29.135  42.341   2.181
11899W        W71435  18.256   2.375   0.838
11900W        W71436   1.974   2.805  13.371
11901W        W71437   6.861  11.310   4.167
11902W        W71438  21.543  26.150  14.779
11903W        W71439  41.348  34.070   2.819
11904W        W71440  28.002  22.209  14.320
11905W        W71441  11.138  36.463   3.819
11906W        W71442   9.866  14.809  11.437
11907W        W71443   7.320  26.141  11.060
11908W        W71444  21.686  42.428   3.766
11909W        W71445  19.249  12.183   1.843
11910W        W71446  37.549  26.023  11.016
11911W        W71447  15.237  32.987  13.395
11912W        W71448  41.786  13.245   4.321
11913W        W71449  18.289  37.905   2.187
11914W        W71450  25.201  32.437  12.475
11915W        W71451  12.200  34.435  10.553
11916W        W71452  22.554  10.335  14.493
11917W        W71453  11.346   1.402  11.956
11918W        W71454  13.804  27.143   0.355
11919W        W71455  14.101  21.559   3.644
11920W        W71456   4.444  20.583   0.374
11921W        W71457   5.840  15.308  11.480
11922W        W71458  17.235  35.005  13.872
11923W        W71459   3.438  39.022  11.516
11924W        W71460   7.183  37.845   0.934
11925W        W71461   3.274  17.641   1.724
11926W        W71462   1.951   8.197  13.992
11927W        W71463  43.467   4.847  14.970
11928W        W71464  34.437  14.588   4.192
11929W        W71465   0.784  12.626  13.043
11930W        W71466  16.750  29.578  12.047
11931W        W71467  22.050  41.041   1.796
11932W        W71468  38.437  37.025  13.509
11933W        W71469  20.618  28.987   3.811
11934W        W71470   9.729  16.675  11.526
11935W        W71471  38.890  13.619   4.226
11936W        W71472  13.639   3.325   3.277
11937W        W71473  23.531  31.419   0.848
11938W        W71474  16.193  33.489  14.027
11939W        W71475  21.758  34.096  13.012
11940W        W71476  42.324   6.422  13.498
11941W        W71477   0.389  12.117  14.349
11942W        W71478  31.419  19.775  10.436
11943W        W71479  16.633  25.055  11.457
11944W        W71480   4.839  19.052  14.916
11945W        W71481   0.466  22.157  11.452
11946W        W71482  44.871   7.878   4.167
11947W        W71483  37.914  19.277   0.428
11948W        W71484  22.574   8.705  10.435
11949W        W71485   4.413  35.089  14.411
11950W        W71486   0.349  24.026  14.888
11951W        W71487  43.501  41.043  13.956
11952W        W71488  17.170  33.386   0.289
11953W        W71489  30.974  27.652   1.241
11954W        W71490   3.455  22.622  14.361
11955W        W71491   6.286  36.988   2.739
11956W        W71492  29.438   9.242  14.935
11957W        W71493  19.759  30.632  13.033
11958W        W71494  41.032  19.234  10.447
11959W        W71495  37.530   0.981   0.896
11960W        W71496  39.406  39.973   2.298
11961W        W71497  17.089  11.216   1.336
11962W        W71498  29.497  26.528   2.723
11963W        W71499  24.148   9.663   1.740
11964W        W71500  29.436  34.016   2.203
11965W        W71501   6.847  18.776  13.389
11966W        W71502  12.211   7.413  12.530
11967W        W71503  31.963  23.228   4.773
11968W        W71504  29.981  38.855  12.079
11969W        W71505  14.754   2.830   1.307
11970W        W71506  39.448   7.867  14.501
11971W        W71507   0.314  19.670   0.311
11972W        W71508  30.010  43.871   2.410
11973W        W71509  42.301   8.898   3.181
11974W        W71510  38.436  35.597   2.890
11975W        W71511  14.646  39.834   1.447
11976W        W71512   5.886  21.554  14.379
11977W        W71513  27.566   5.902   2.214
11978W        W71514  32.946   9.386   0.287
11979W        W71515  39.982  35.060   1.241
11980W        W71516   7.780  16.090   2.774
11981W        W71517  12.180   5.320   1.756
11982W        W71518  12.273   8.304   3.356
11983W        W71519  18.283  24.150   1.725
11984W        W71520   0.793  12.715  14.838
11985W        W71521  44.757  26.629  11.059
11986W        W71522  40.487  20.710  11.915
11987W        W71523  41.376  43.849  11.966
11988W        W71524  30.130  27.594   3.807
11989W        W71525  10.202  27.026   2.400
11990W        W71526  39.903  20.683   3.654
11991W        W71527  27.564   5.338   3.753
11992W        W71528  24.082  14.637   2.851
11993W        W71529  44.898  13.308  13.311
11994W        W71530  16.664  14.315   2.387
11995W        W71531  42.405  18.715  11.935
11996W        W71532  30.156  28.529   3.366
11997W        W71533  35.545  31.122  10.892
11998W        W71534  44.358   3.423  12.366
11999W        W71535  11.657  14.274   0.378
12000W        W71536  19.641  31.419   1.235
12001W        W71537  19.632  32.433  14.365
12002W        W71538  44.420   5.870   5.205
12003W        W71539  41.919  12.189  13.920
12004W        W71540   8.673  36.454  10.922
12005W        W71541  35.596  32.121  14.841
12006W        W71542  34.466  10.250   1.252
12007W        W71543  42.425  20.207  12.954
12008W        W71544  36.455  16.657   2.857
12009W        W71545  21.247  17.201   2.333
12010W        W71546   3.788  23.650  14.860
12011W        W71547  30.635  29.105  10.538
12012W        W71548  43.373  22.033  14.859
12013W        W71549  33.596   4.835  12.835
12014W        W71550  41.907  33.054   2.391
12015W        W71551  19.557  15.760  14.420
12016W        W71552   4.317  19.214   2.229
12017W        W71553  14.641  37.520  14.811
12018W        W71554   3.952  15.683   0.868
12019W        W71555  41.028  38.839   4.730
12020W        W71556   4.294  29.173  10.626
12021W        W71557  27.945  13.762  11.092
12022W        W71558  34.967  13.603  12.415
12023W        W71559  12.178   4.810   2.794
12024W        W71560   7.874  16.136  10.957
12025W        W71561  38.546   4.817  11.036
12026W        W71562   5.776  42.865  12.982
12027W        W71563  35.907  37.933   4.186
12028W        W71564  26.554  10.322  13.019
12029W        W71565  32.543  38.396   4.650
12030W        W71566  34.066   3.359   9.656
12031W        W71567  42.005   3.918   1.246
12032W        W71568   6.888  19.219   1.753
12033W        W71569  36.098  23.213  11.499
12034W        W71570  13.696  33.019   4.713
12035W        W71571  42.297  44.505   0.801
12036W        W71572   2.830  26.176   2.213
12037W        W71573  40.050  40.900  10.613
12038W        W71574  22.501   3.219  12.488
12039W        W71575  23.597   7.178  11.470
12040W        W71576   0.862  12.723  11.958
12041W        W71577  39.395  39.416  11.563
12042W        W71578   3.311  24.991   0.415
12043W        W71579  34.864  21.732   1.320
12044W        W71580  34.024  14.202  12.914
12045W        W71581   1.385  36.510   4.663
12046W        W71582  22.072   2.756  13.984
12047W        W71583  17.780  18.560   3.217
12048W        W71584  26.059  15.200   4.145
12049W        W71585  32.029  11.343  10.937
12050W        W71586  42.507  28.186  11.936
12051W        W71587  31.081  34.892   2.775
12052W        W71588  26.113   1.411  12.410
12053W        W71589  37.364  39.325  14.911
12054W        W71590   3.310   6.364  12.504
12055W        W71591  13.244  22.598   2.710
12056W        W71592   2.958  27.028   0.909
12057W        W71593  28.642   1.778   0.250
12058W        W71594  39.486   1.849  11.544
12059W        W71595  15.586  25.578  10.000
12060W        W71596   1.367   7.810  13.828
12061W        W71597  37.477  14.208   3.820
12062W        W71598  26.463  29.994  12.573
12063W        W71599  34.466  13.810  10.517
12064W        W71600  24.984   0.876  12.404
12065W        W71601  11.659  12.668   2.399
12066W        W71602   7.251   9.872   1.704
12067W        W71603  42.306  40.047   4.224
12068W        W71604  30.970  40.919   1.272
12069W        W71605   0.379  12.763   5.106
12070W        W71606  10.707  39.489  10.573
12071W        W71607  11.715  25.606  14.958
12072W        W71608  20.742  34.497  14.444
12073W        W71609  37.412  31.142  11.587
12074W        W71610   5.799  14.110  12.349
12075W        W71611  44.825  38.388   2.720
12076W        W71612  11.765  41.997  11.488
12077W        W71613  34.981  31.083   3.714
12078W        W71614  16.778  28.053  11.936
12079W        W71615  26.545  40.447  12.564
12080W        W71616  20.653  20.642  11.379
12081W        W71617  16.283  35.534   2.352
12082W        W71618  23.137  33.467  11.391
12083W        W71619  18.199  37.942   4.351
12084W        W71620  30.596  38.515   2.178
12085W        W71621  27.171  21.236  13.427
12086W        W71622  10.790   5.881  13.507
12087W        W71623  33.031   3.893  11.099
12088W        W71624  27.516  26.551  13.866
12089W        W71625  24.997   9.159  14.760
12090W        W71626  28.541   6.423   3.154
12091W        W71627   4.283  22.105   0.345
12092W        W71628  28.958  27.458  14.815
12093W        W71629  33.974  33.882   0.958
12094W        W71630  37.520  16.766   0.392
12095W        W71631  39.361  19.582  11.383
12096W        W71632  34.002  34.026  11.387
12097W        W71633  12.736   8.799   4.309
12098W        W71634  26.501  14.655  12.963
12099W        W71635   9.890   1.866  13.909
12100W        W71636  21.210  37.473   3.217
12101W        W71637  10.248  33.545  14.795
12102W        W71638  20.146  19.251   4.207
12103W        W71639  15.306  38.957   2.781
12104W        W71640   2.859  25.119   0.757
12105W        W71641  26.514  42.855   4.608
12106W        W71642  36.412  43.903   2.676
12107W        W71643  44.441  25.485   5.275
12108W        W71644  31.409  31.023  11.871
12109W        W71645  19.128  23.240  10.978
12110W        W71646  14.266  15.678   2.261
12111W        W71647   4.348  44.450  14.836
12112W        W71648  16.573  32.576   2.857
12113W        W71649  17.216  19.162  13.844
12114W        W71650  37.542   4.848  11.446
12115W        W71651  38.972  24.579   3.673
12116W        W71652  11.859  12.197   4.755
12117W        W71653  36.067  25.637   0.792
12118W        W71654  17.181   9.742   1.252
12119W        W71655  14.277  36.450   4.290
12120W        W71656  25.648  21.599  11.066
12121W        W71657  18.605  26.044   3.267
12122W        W71658   7.717  33.384  10.952
12123W        W71659  12.265  18.231   3.838
12124W        W71660   7.877  25.173   3.639
12125W        W71661   9.280   7.241  12.025
12126W        W71662  41.851  22.083   4.308
12127W        W71663  11.273  16.704  12.060
12128W        W71664   9.305   5.223  14.823
12129W        W71665  37.443  32.558   3.749
12130W        W71666  36.563  38.979  13.442
12131W        W71667   7.307  14.285   3.377
12132W        W71668  30.542  40.901   1.238
12133W        W71669   9.836  15.318   3.696
12134W        W71670  11.268  21.686   2.674
12135W        W71671   9.169  38.872   1.870
12136W        W71672  36.551  30.068   1.886
12137W        W71673  15.126   2.362   4.662
12138W        W71674  18.554   0.954   2.388
12139W        W71675  40.851  40.481   1.272
12140W        W71676  38.945   3.251  14.307
12141W        W71677   5.927  43.850  11.112
12142W        W71678  35.975  38.417   3.317
12143W        W71679   0.773   8.364   3.289
12144W        W71680   9.309  35.967  10.560
12145W        W71681  13.131  11.142   0.365
12146W        W71682  32.049  25.106  14.029
12147W        W71683  42.928  31.563   1.873
12148W        W71684  41.809  42.996   4.749
12149W        W71685  33.977   1.843   2.222
12150W        W71686   0.769  27.550  12.925
12151W        W71687  42.497  41.323  12.833
12152W        W71688   1.475  36.434  11.390
12153W        W71689  43.775  36.928  12.847
12154W        W71690  33.099   6.183  11.605
12155W        W71691  21.089  11.247  12.396
12156W        W71692  15.220  13.831  11.065
12157W        W71693  25.583  24.053  13.813
12158W        W71694  20.031  13.761  12.077
12159W        W71695  26.959   4.734   4.829
12160W        W71696  44.483  38.554   0.807
12161W        W71697  32.613  18.715   1.406
12162W        W71698  22.524  28.132   5.159
12163W        W71699   1.314  34.595  13.837
12164W        W71700  36.492  38.878  14.795
12165W        W71701  41.877   9.798  10.954
12166W        W71702  15.723  39.933   2.771
12167W        W71703  20.650   8.181   0.316
12168W        W71704  10.755  14.657   0.261
12169W        W71705  10.196  20.637   4.685
12170W        W71706  21.188  27.940   3.219
12171W        W71707  38.403  43.364   1.702
12172W        W71708  36.860  19.664   2.702
12173W        W71709  40.445  38.503   2.211
12174W        W71710   0.463  34.584  11.393
12175W        W71711  20.525   0.348  14.862
12176W        W71712  21.529  28.978   2.237
12177W        W71713  28.994   2.884  13.939
12178W        W71714  37.970  12.768  11.611
12179W        W71715  17.611  38.427   2.897
12180W        W71716  31.129  34.925  11.011
12181W        W71717  34.410   2.291   4.832
12182W        W71718  16.699  26.642  14.369
12183W        W71719  30.929  10.250   4.752
12184W        W71720  42.311  21.517  12.907
12185W        W71721  26.179   8.322  10.514
12186W        W71722  21.701  19.165  11.422
12187W        W71723  36.972  18.598   3.729
12188W        W71724  10.875  15.608  12.874
12189W        W71725  19.555  12.208   2.721
12190W        W71726  18.223  28.480  11.113
12191W        W71727  33.126  27.627  14.855
12192W        W71728  35.036  44.494   2.342
12193W        W71729  32.899  28.481  11.057
12194W        W71730  24.667   3.290  11.980
12195W        W71731  34.398  20.215  14.497
12196W        W71732  17.258  25.019   4.643
12197W        W71733  29.460  32.044  11.908
12198W        W71734  43.000  14.812  14.026
12199W        W71735   3.232  15.593  13.470
12200W        W71736  42.488  42.003   4.343
12201W        W71737  43.378  31.469   2.729
12202W        W71738  33.529  44.345   2.809
12203W        W71739   4.333  37.501   1.216
12204W        W71740   5.236  28.975  12.947
12205W        W71741  32.939  33.055  14.424
12206W        W71742  10.317  17.229  12.521
12207W        W71743  19.633  32.054  14.857
12208W        W71744  27.044  17.215   4.767
12209W        W71745   0.882  43.348  13.049
12210W        W71746  34.595  42.474  12.958
12211W        W71747  17.567  24.637   2.759
12212W        W71748  36.088  18.084   4.271
12213W        W71749  44.271  13.234  12.882
12214W        W71750  26.115  27.470   0.858
12215W        W71751  18.723   2.332   2.865
12216W        W71752  26.970   1.467  13.856
12217W        W71753  17.064  24.103  13.983
12218W        W71754  35.028  35.970  10.894
12219W        W71755  30.928   9.293  10.916
12220W        W71756  25.975   7.314  14.912
12221W        W71757  26.469  20.724  12.390
12222W        W71758  40.844  27.137  13.503
12223W        W71759  40.047  36.010  12.074
12224W        W71760   3.799  27.575   3.343
12225W        W71761  15.764   6.736  13.489
12226W        W71762  26.097  14.654  13.817
12227W        W71763   3.459   1.900   4.287
12228W        W71764  21.149  27.145   4.318
12229W        W71765  43.999  10.149  12.433
12230W        W71766  19.215  16.244  13.031
12231W        W71767  16.247   7.824   2.371
12232W        W71768   8.891  30.007   3.711
12233W        W71769  14.143  17.129   3.825
12234W        W71770  28.047  28.079  14.809
12235W        W71771  40.499   7.350   3.764
12236W        W71772   5.712  39.380   3.737
12237W        W71773  24.174  10.655  11.498
12238W        W71774   7.701   5.747  14.779
12239W        W71775  26.007  22.563   2.805
12240W        W71776  12.260  17.170  11.416
12241W        W71777   1.393  27.660  13.950
12242W        W71778  28.128  17.162  12.480
12243W        W71779   6.257  16.184  11.047
12244W        W71780  16.567  28.657  14.820
12245W        W71781  15.238  37.853  14.404
12246W        W71782  10.770  31.020   1.332
12247W        W71783  26.042  39.914   2.349
12248W        W71784   9.326  34.426   3.227
12249W        W71785  10.715  26.624   1.705
12250W        W71786  26.672  35.041  11.127
12251W        W71787  32.096  26.980   1.436
12252W        W71788   1.822  41.475  11.901
12253W        W71789  28.074  13.810   3.865
12254W        W71790   2.814  38.996  14.495
12255W        W71791  40.319  14.637   4.188
12256W        W71792  15.192  33.041  11.084
12257W        W71793  34.976  23.642   1.729
12258W        W71794   4.385  42.809  11.405
12259W        W71795  22.678  10.723  13.855
12260W        W71796  28.174  26.594   0.879
12261W        W71797   6.839   8.703   3.870
12262W        W71798  16.615   8.724   0.852
12263W        W71799  40.397  20.680   1.838
12264W        W71800   2.289  29.643   1.867
12265W        W71801   5.406   4.922  10.459
12266W        W71802   5.212  37.853   3.337
12267W        W71803  44.941  20.638   1.414
12268W        W71804   5.784  22.092  13.471
12269W        W71805  13.803  10.140   0.294
12270W        W71806  38.034  36.379   2.193
12271W        W71807  13.185  24.064  13.534
12272W        W71808   5.360   3.343  10.475
12273W        W71809   5.387   7.684  11.920
12274W        W71810  15.802   8.309   1.898
12275W        W71811  27.064   5.703   4.640
12276W        W71812  28.135   3.373   1.406
12277W        W71813  44.450  22.094  11.405
12278W        W71814  41.343  37.858  13.913
12279W        W71815  34.877  26.975   2.700
12280W        W71816  24.520  12.151   0.748
12281W        W71817  24.190  15.149   0.316
12282W        W71818   1.904  30.418  14.990
12283W        W71819  37.391  13.328   3.731
12284W        W71820  41.974   7.343  12.370
12285W        W71821  16.738  22.505  14.766
12286W        W71822  17.110  23.236   0.926
12287W        W71823  26.700  38.070  10.639
12288W        W71824  39.950  30.908  11.002
12289W        W71825  40.040  30.935   4.700
12290W        W71826  29.983  43.515  14.000
12291W        W71827  10.362  37.462   9.930
12292W        W71828  17.687  34.011  12.580
12293W        W71829  40.375  26.043   0.314
12294W        W71830   6.216  42.391  11.532
12295W        W71831   2.360  37.538   4.791
12296W        W71832  41.493  34.438   0.387
12297W        W71833  44.280  24.209   1.810
12298W        W71834  26.476  22.606  13.517
12299W        W71835  19.770  19.757   4.263
12300W        W71836   6.343  14.628   3.740
12301W        W71837  38.858  11.162  11.091
12302W        W71838  30.983  14.254  13.357
12303W        W71839   3.216  17.712  10.988
12304W        W71840  18.669  17.099   3.753
12305W        W71841   9.858  25.697   0.276
12306W        W71842   1.845  29.114  11.875
12307W        W71843  38.963  40.051   4.745
12308W        W71844   1.907  37.540   2.740
12309W        W71845  25.093  11.650   2.243
12310W        W71846   8.258  24.671   5.797
12311W        W71847  29.608  25.478  10.509
12312W        W71848  37.464   6.874  10.528
12313W        W71849  24.539  21.652   2.672
12314W        W71850  18.073  26.141   1.821
12315W        W71851  16.161  41.885  11.023
12316W        W71852  19.624   7.280   4.320
12317W        W71853  12.706   3.356  10.528
12318W        W71854  44.501  43.297  14.871
12319W        W71855  15.797  29.499  11.088
12320W        W71856  18.612   9.771   1.897
12321W        W71857  10.795  44.413  11.455
12322W        W71858  18.081  26.978  12.823
12323W        W71859   3.283   5.893   4.788
12324W        W71860  26.206  21.724  10.040
12325W        W71861   4.267  30.146  13.505
12326W        W71862  44.305  23.136  12.503
12327W        W71863  22.680  12.810  14.409
12328W        W71864  41.380  42.006  12.341
12329W        W71865  30.652  44.337   5.157
12330W        W71866  36.370  31.458   0.435
12331W        W71867   3.408  24.636  13.001
12332W        W71868  23.717  26.186  11.540
12333W        W71869  27.549  13.239  10.640
12334W        W71870  21.638  31.040  13.919
12335W        W71871   2.782  22.164   0.325
12336W        W71872  26.534  27.016  11.372
12337W        W71873   2.947  11.288  11.037
12338W        W71874  15.582   6.780  14.014
12339W        W71875   5.284  36.869   0.298
12340W        W71876   8.699  36.016  12.518
12341W        W71877  15.731  36.375  11.023
12342W        W71878   2.256  14.103   4.808
12343W        W71879  13.305  14.256   0.333
12344W        W71880  32.982   3.313   3.314
12345W        W71881  17.117  41.979  10.965
12346W        W71882  28.027  37.041   4.285
12347W        W71883  20.665  43.416  14.846
12348W        W71884  41.311   3.797   5.138
12349W        W71885   6.339  30.093  14.852
12350W        W71886   7.683  37.535  11.902
12351W        W71887   3.422  33.030   3.236
12352W        W71888  29.661  22.117   2.363
12353W        W71889   0.756  34.551  10.597
12354W        W71890  16.789   4.815   4.839
12355W        W71891  14.137   9.816  14.818
12356W        W71892  12.723  16.655   3.763
12357W        W71893  14.733  10.851   5.087
12358W        W71894   9.772  16.720  10.624
12359W        W71895   2.320  41.853   2.364
12360W        W71896  41.821  19.187   4.143
12361W        W71897  32.636   9.880   4.273
12362W        W71898  14.186  33.460  14.278
12363W        W71899   3.247  39.063   9.932
12364W        W71900   5.688  22.007   1.906
12365W        W71901  20.558  23.228   5.311
12366W        W71902  30.025  14.633   4.192
12367W        W71903  24.020  25.610   3.180
12368W        W71904  24.164   6.870  11.971
12369W        W71905  18.701  27.946  10.937
12370W        W71906  31.995  19.695  14.490
12371W        W71907  29.166  33.959  12.495
12372W        W71908   6.342  26.037  14.304
12373W        W71909  21.129   5.722   3.150
12374W        W71910  25.107  25.211   4.133
12375W        W71911  14.687   0.820   4.211
12376W        W71912  16.717   1.829   0.940
12377W        W71913  12.710  39.315  12.543
12378W        W71914  13.341  36.459   0.737
12379W        W71915   8.355   5.704  11.474
12380W        W71916  32.568  21.044  10.461
12381W        W71917  44.794  13.614  14.282
12382W        W71918   3.285  18.605   0.352
12383W        W71919  33.525  38.378   3.177
12384W        W71920   2.245  39.003  10.489
12385W        W71921  23.984   7.722  14.308
12386W        W71922   7.348  25.517   4.762
12387W        W71923  17.111  28.554  10.504
12388W        W71924  26.097  32.456  11.859
12389W        W71925  23.651  24.690   1.434
12390W        W71926  43.901  37.901  12.029
12391W        W71927  34.092  37.580  11.503
12392W        W71928  15.628  11.823   1.287
12393W        W71929   2.314   5.926   1.839
12394W        W71930  44.960  42.015  11.441
12395W        W71931  40.530   5.866  12.014
12396W        W71932  43.995   5.412   1.838
12397W        W71933  16.693  37.476   4.231
12398W        W71934   4.303  44.432  14.338
12399W        W71935  35.455  18.221  11.558
12400W        W71936  12.259  33.991   2.803
12401W        W71937   9.150   2.775  14.288
12402W        W71938   5.205   0.896  11.921
12403W        W71939  42.862  38.503   2.691
12404W        W71940  41.929  24.139  14.469
12405W        W71941  26.007  19.623   5.136
12406W        W71942  24.197  24.985   3.854
12407W        W71943   9.791  32.985  13.860
12408W        W71944  19.646  12.271  14.006
12409W        W71945  44.356  12.328  10.568
12410W        W71946  35.890  13.815  10.989
12411W        W71947   0.847  23.049   3.362
12412W        W71948  25.121   5.256  11.520
12413W        W71949  20.616  43.377  11.990
12414W        W71950  15.250  16.781  13.042
12415W        W71951  15.637   0.475   3.239
12416W        W71952   1.352  35.488   0.962
12417W        W71953  33.029  19.572  13.340
12418W        W71954   2.948  18.564  14.359
12419W        W71955  28.170  28.095  11.063
12420W        W71956  41.302  35.002  14.283
12421W        W71957  39.400   4.350   5.094
12422W        W71958   0.781  42.429  13.387
12423W        W71959   1.428   5.926  10.543
12424W        W71960   2.232  11.827  11.413
12425W        W71961  40.895   0.471  11.010
12426W        W71962  16.575  24.684   0.296
12427W        W71963  30.472  31.492   0.333
12428W        W71964  43.352  25.602   3.771
12429W        W71965  25.565  38.854   3.342
12430W        W71966  31.568  44.758  13.416
12431W        W71967   7.181  26.034   4.201
12432W        W71968   5.792   6.764   0.423
12433W        W71969  36.523  11.811  12.345
12434W        W71970   5.791   9.366  13.432
12435W        W71971  39.520   9.743   1.305
12436W        W71972  39.815  15.753   0.753
12437W        W71973   7.291  16.770   2.777
12438W        W71974  32.960  32.615  13.402
12439W        W71975  35.025  35.459  14.917
12440W        W71976  24.202  16.711  11.979
12441W        W71977  14.100  35.484   0.319
12442W        W71978  28.125  12.353   1.296
12443W        W71979  17.795  44.772   2.663
12444W        W71980   8.235  19.603   3.341
12445W        W71981   5.909  11.363   1.833
12446W        W71982  15.744   0.887   3.272
12447W        W71983  28.572  39.385   4.294
12448W        W71984   2.878  31.476  11.471
12449W        W71985  42.283  28.675   0.876
12450W        W71986  37.033   4.281   2.675
12451W        W71987  29.113   1.827   2.401
12452W        W71988  35.908  27.068  13.350
12453W        W71989  16.623   8.235  13.433
12454W        W71990  43.826  24.096   3.201
12455W        W71991   2.825   6.687   0.427
12456W        W71992  42.381  25.469  12.451
12457W        W71993  25.994   4.273  13.954
12458W        W71994  17.651   5.257   1.362
12459W        W71995   5.807  44.435   3.280
12460W        W71996  14.097  12.139  12.371
12461W        W71997   5.846   2.399   4.700
12462W        W71998  22.218  21.728  12.008
12463W        W71999   8.384  11.774   4.602
12464W        W72000   1.352  24.674  13.465
12465W        W72001   5.286  16.734  11.104
12466W        W72002   4.803  33.440  11.501
12467W        W72003  33.047  26.672  14.380
12468W        W72004  25.549   6.816  11.985
12469W        W72005   3.882  31.446  11.422
12470W        W72006   3.258  28.941  13.319
12471W        W72007  19.113  41.895   2.666
12472W        W72008  11.148  25.598   0.802
12473W        W72009  18.545  32.128   4.133
12474W        W72010   3.279  10.651  12.573
12475W        W72011  40.516  37.436  13.369
12476W        W72012   6.395   2.774   1.826
12477W        W72013  23.160  10.693  10.459
12478W        W72014  35.388  41.499   2.710
12479W        W72015  28.024  34.513   0.892
12480W        W72016  22.121  33.430  13.499
12481W        W72017  10.237  16.619  14.376
12482W        W72018  14.624   3.867   1.918
12483W        W72019  32.433  41.812   3.631
12484W        W72020  32.517  29.568   0.755
12485W        W72021  30.009  13.727   2.178
12486W        W72022  44.795   2.407  12.339
12487W        W72023  16.566  17.092   0.901
12488W        W72024   9.321  10.769   3.344
12489W        W72025  33.896  30.057   0.913
12490W        W72026  43.884  38.932  10.451
12491W        W72027  23.519  36.381   3.840
12492W        W72028  18.207  21.557   5.322
12493W        W72029   3.734  17.634  12.376
12494W        W72030  20.689  14.258   0.458
12495W        W72031  12.338  42.507  10.953
12496W        W72032  19.146  42.924  14.974
12497W        W72033  29.668   8.334   0.901
12498W        W72034  12.819  14.643   3.323
12499W        W72035  30.575   3.430  14.377
12500W        W72036  10.384  15.744   4.686
12501W        W72037   8.768  20.566  12.421
12502W        W72038  31.527  36.878   3.675
12503W        W72039  13.661  29.513  14.298
12504W        W72040  39.926  18.215   0.328
12505W        W72041   3.768  12.167   4.820
12506W        W72042  29.151  27.073  12.084
12507W        W72043  32.045   6.862  14.465
12508W        W72044   0.467  35.505   1.763
12509W        W72045  30.487  17.753   3.311
12510W        W72046  18.273  21.032   1.229
12511W        W72047  44.768  43.906  14.407
12512W        W72048  31.636  43.799   1.800
12513W        W72049  29.947  25.973   1.726
12514W        W72050  11.187  34.518   4.660
12515W        W72051  30.437   1.958  10.903
12516W        W72052   6.349   6.830  13.819
12517W        W72053  33.499   3.343   5.289
12518W        W72054   0.840  16.566   4.668
12519W        W72055  41.381  30.599   1.710
12520W        W72056   7.853  37.524  10.957
12521W        W72057   6.275  31.939  13.022
12522W        W72058  44.329   7.821  13.308
12523W        W72059  26.509   8.797   5.131
12524W        W72060   4.266  37.897   2.389
12525W        W72061  16.769  18.297   4.261
12526W        W72062   5.282  10.216   1.866
12527W        W72063  24.213   6.394  14.978
12528W        W72064  25.531  18.690   0.441
12529W        W72065  21.746  38.552  10.991
12530W        W72066  18.571  37.944  12.354
12531W        W72067  27.612  13.321  12.451
12532W        W72068  10.739  35.496  12.481
12533W        W72069  13.661  22.589   4.675
12534W        W72070  40.338  44.334  14.434
12535W        W72071  38.343  22.208  13.023
12536W        W72072  35.447  28.969   0.908
12537W        W72073  38.909  42.436   3.342
12538W        W72074  40.858  22.561   0.798
12539W        W72075   1.845  24.650  13.347
12540W        W72076  42.445  35.952  13.931
12541W        W72077  38.829  42.285   1.737
12542W        W72078  36.011   1.346   1.822
12543W        W72079  42.311  13.600   1.835
12544W        W72080  22.246  18.191   4.806
12545W        W72081   2.921   9.788  11.460
12546W        W72082   5.724   5.899   3.200
12547W        W72083  16.737   3.874  11.015
12548W        W72084  18.566  37.551   3.375
12549W        W72085   4.813  11.337  12.541
12550W        W72086   1.304  14.156   4.256
12551W        W72087  20.086  21.564   4.778
12552W        W72088  32.099   1.456   3.179
12553W        W72089   6.922  35.856   3.688
12554W        W72090  18.118  21.140   2.319
12555W        W72091  25.985  35.559  14.435
12556W        W72092  42.504   5.349   4.792
12557W        W72093  19.045   3.274   2.746
12558W        W72094  12.703  24.605  12.578
12559W        W72095  31.141  18.677   0.462
12560W        W72096  36.375  10.380  12.869
12561W        W72097  19.046  19.268   3.228
12562W        W72098  39.000  43.364  13.479
12563W        W72099  34.415  37.862   4.732
12564W        W72100  44.975  13.654   3.247
12565W        W72101  35.506  24.038  14.287
12566W        W72102  12.346  11.204  11.436
12567W        W72103   7.840   0.345  14.828
12568W        W72104  35.092   0.286   4.772
12569W        W72105  27.029  23.732   3.194
12570W        W72106  21.261  13.305   4.803
12571W        W72107   5.201  34.580  13.903
12572W        W72108  44.451  13.238   3.366
12573W        W72109  40.454  31.408  13.028
12574W        W72110  24.531  13.105   1.777
12575W        W72111   7.705   9.165   0.851
12576W        W72112  34.466   6.914   3.827
12577W        W72113  26.170  14.733   1.705
12578W        W72114   6.411   7.832   2.255
12579W        W72115  24.103  18.686  12.487
12580W        W72116  19.636  38.955   5.239
12581W        W72117  42.018   6.842  11.450
12582W        W72118  40.478   8.389   4.606
12583W        W72119  40.548  21.176  11.088
12584W        W72120  26.565  27.485   1.720
12585W        W72121  21.579  16.248   4.825
12586W        W72122   2.311  21.150   1.437
12587W        W72123   0.854  14.704  12.951
12588W        W72124  26.975  32.086  11.460
12589W        W72125  16.289   0.803   1.733
12590W        W72126  39.934  44.407  14.870
12591W        W72127   9.175  28.608   1.212
12592W        W72128  33.888  36.507   4.794
12593W        W72129  33.023  14.277   3.674
12594W        W72130   8.664  36.875  10.603
12595W        W72131  38.844  31.054   4.131
12596W        W72132  30.545  31.088   2.383
12597W        W72133  18.241  18.743  10.420
12598W        W72134  18.609  13.815   0.478
12599W        W72135  39.420  38.025  14.907
12600W        W72136   5.740  17.302   3.156
12601W        W72137  29.946  43.462   4.625
12602W        W72138   4.843  18.234  10.637
12603W        W72139  22.522  40.011  10.587
12604W        W72140   0.744  15.806   1.356
12605W        W72141  28.467  14.200  14.320
12606W        W72142  24.673  16.191   1.346
12607W        W72143  43.324  44.329   4.771
12608W        W72144  10.718  14.201  11.964
12609W        W72145   2.865  20.078  14.351
12610W        W72146  21.024  22.747   0.757
12611W        W72147  40.370  15.606  14.369
12612W        W72148   8.803   7.681  11.915
12613W        W72149  16.780  15.258   3.271
12614W        W72150  43.327  28.048  14.857
12615W        W72151  39.903   3.262   0.936
12616W        W72152  30.063  18.224   2.705
12617W        W72153  37.537  26.539   1.757
12618W        W72154  18.165  18.081  10.115
12619W        W72155  40.469  13.119  12.896
12620W        W72156  27.676  35.577  12.898
12621W        W72157   5.898  20.591   0.835
12622W        W72158  15.193   3.819  10.522
12623W        W72159  18.616  40.864   3.832
12624W        W72160  27.519  29.018   4.715
12625W        W72161  42.907  38.447  14.862
12626W        W72162  29.968  19.239   0.857
12627W        W72163   4.335  40.021   1.773
12628W        W72164  31.120  43.415   3.158
12629W        W72165  12.309   2.817  13.356
12630W        W72166   5.843   1.331  12.580
12631W        W72167  28.018  18.746  14.430
12632W        W72168  31.573   3.254  11.939
12633W        W72169  25.014  17.645   9.514
12634W        W72170  37.833  35.925  14.830
12635W        W72171  35.566  23.144  10.434
12636W        W72172   9.806  31.920  12.027
12637W        W72173  22.698  40.368  14.369
12638W        W72174  21.258  28.084  14.399
12639W        W72175   0.872   2.863  10.629
12640W        W72176  25.562   2.786   2.270
12641W        W72177  44.408   7.315   2.249
12642W        W72178  12.725  44.791  10.441
12643W        W72179  38.393  38.540  12.885
12644W        W72180  20.232  33.876  11.480
12645W        W72181  32.034  35.453  13.045
12646W        W72182   5.895  38.061  10.614
12647W        W72183  40.514   1.372  13.027
12648W        W72184  20.065  14.686   0.411
12649W        W72185   3.885  34.004   3.792
12650W        W72186  10.680   8.790   0.730
12651W        W72187   6.906  26.097  12.340
12652W        W72188  22.506  14.638  13.004
12653W        W72189  40.966  14.648  11.985
12654W        W72190  21.700  30.539  12.956
12655W        W72191  20.576  28.603  14.996
12656W        W72192   8.754  10.869  14.901
12657W        W72193  22.624  37.392   1.894
12658W        W72194  22.102  43.505   1.399
12659W        W72195  28.528   2.825   4.198
12660W        W72196  10.332   2.319   4.263
12661W        W72197  33.979  13.767   3.789
12662W        W72198   9.838  28.645  11.553
12663W        W72199  20.106   5.827  14.306
12664W        W72200  42.851  20.752   4.835
12665W        W72201  30.156  38.900   0.344
12666W        W72202  33.423  37.457   1.218
12667W        W72203  16.583  21.130  12.404
12668W        W72204  23.501  35.958   1.397
12669W        W72205   3.911  43.288  14.321
12670W        W72206  34.443  22.238  13.812
12671W        W72207  23.987  25.117  12.526
12672W        W72208  22.632   9.372  13.016
12673W        W72209   9.839  31.015  12.519
12674W        W72210  11.824  34.391   4.603
12675W        W72211   6.800   3.339  13.838
12676W        W72212  42.031  33.017   4.664
12677W        W72213   0.768  15.242   4.279
12678W        W72214  27.943  36.019   4.659
12679W        W72215  41.418  37.407   1.275
12680W        W72216   3.373  42.896  13.929
12681W        W72217   0.892   8.754   1.290
12682W        W72218   6.713  33.431   2.355
12683W        W72219  36.868   0.913  14.013
12684W        W72220  34.911   3.308  12.507
12685W        W72221  11.663  31.644   2.213
12686W        W72222  14.828  28.478   4.191
12687W        W72223   2.784  29.057   5.221
12688W        W72224  24.658  42.500  14.303
12689W        W72225  41.429   6.194   0.767
12690W        W72226  30.946  41.017   4.647
12691W        W72227  30.619  26.583  10.636
12692W        W72228  44.321  29.533   4.832
12693W        W72229  27.076  35.927  10.930
12694W        W72230  40.987  34.456   4.690
12695W        W72231  17.712   4.836   4.201
12696W        W72232  11.349  16.812   4.239
12697W        W72233  26.653   0.933  13.336
12698W        W72234  19.773  11.188   9.947
12699W        W72235   9.653  30.935  13.925
12700W        W72236  12.178  15.289  10.445
12701W        W72237  31.636  10.653  14.843
12702W        W72238  19.067  43.362   1.377
12703W        W72239  34.572  43.429  13.957
12704W        W72240   1.895  29.102  11.430
12705W        W72241  18.615  18.158   1.341
12706W        W72242   1.315  29.429   1.352
12707W        W72243  20.550  11.144  12.945
12708W        W72244  19.074   8.258   4.315
12709W        W72245  18.679   0.430   3.730
12710W        W72246  18.577  40.308   5.304
12711W        W72247  23.153  25.070   2.757
12712W        W72248  33.543  24.551  12.345
12713W        W72249  42.365  41.339  11.507
12714W        W72250  31.590  19.125   0.878
12715W        W72251  31.926  40.901  14.821
12716W        W72252  14.779  31.438   0.931
12717W        W72253  11.210  30.988  11.604
12718W        W72254  10.314   3.232   4.140
12719W        W72255   0.970  40.356   5.187
12720W        W72256  37.384  41.882   4.122
12721W        W72257  32.609   0.910  12.411
12722W        W72258  37.468   5.840   4.681
12723W        W72259  22.189  20.051   4.201
12724W        W72260   7.247  20.560   2.752
12725W        W72261   2.294  44.997  12.964
12726W        W72262  17.727  26.142   3.688
12727W        W72263  26.651  18.183  13.897
12728W        W72264   2.236   9.302   3.677
12729W        W72265  21.516  31.489   0.390
12730W        W72266  25.122  17.233  13.439
12731W        W72267  28.140  40.498   3.668
12732W        W72268  10.728  27.653   2.739
12733W        W72269   1.293  12.300   1.760
12734W        W72270  31.546  37.994   3.736
12735W        W72271  12.283  31.600  12.057
12736W        W72272  31.977  31.445   2.668
12737W        W72273  40.541  32.892  14.446
12738W        W72274  39.416  39.358   0.413
12739W        W72275  39.031  31.503  14.454
12740W        W72276  36.859  19.656  12.846
12741W        W72277  36.929   0.757   3.833
12742W        W72278  15.323  40.428   2.715
12743W        W72279  26.696  22.034  11.953
12744W        W72280  16.593  44.934  12.539
12745W        W72281  31.572  36.465   4.826
12746W        W72282   8.203  26.990   2.253
12747W        W72283   6.368  41.379   5.298
12748W        W72284  22.669  39.938  14.345
12749W        W72285  22.664   6.823   3.732
12750W        W72286  25.605  42.984   4.597
12751W        W72287  36.059  34.955  11.064
12752W        W72288  18.615   5.757   3.791
12753W        W72289  10.647   5.423  13.878
12754W        W72290   5.848  19.554   0.318
12755W        W72291  42.933  35.590   3.849
12756W        W72292  44.878   9.228   2.853
12757W        W72293  38.358  27.089  11.957
12758W        W72294  11.715  27.979  12.417
12759W        W72295   6.744  35.583  11.555
12760W        W72296  27.452  20.628  13.534
12761W        W72297  25.184   8.244  11.891
12762W        W72298  21.613  41.422  13.993
12763W        W72299  13.698  39.814  14.975
12764W        W72300  13.337  23.026  14.815
12765W        W72301  25.011  31.501  13.023
12766W        W72302  42.875  27.658  10.125
12767W        W72303  39.828  33.432   2.844
12768W        W72304  37.846  19.160  14.787
12769W        W72305  19.283  18.166  12.039
12770W        W72306  20.083   0.856  13.375
12771W        W72307  37.919  10.714  14.345
12772W        W72308  16.225   7.240   4.202
12773W        W72309  14.340   7.287   1.780
12774W        W72310   5.837  34.055  11.997
12775W        W72311  24.645  20.097  14.302
12776W        W72312  23.595  35.945  14.789
12777W        W72313  32.429  24.006   3.763
12778W        W72314  36.894  36.368  14.927
12779W        W72315  18.170  37.491   3.289
12780W        W72316  20.195  23.567  14.769
12781W        W72317  35.859  15.824  11.880
12782W        W72318  40.863  14.175  13.021
12783W        W72319  28.632   0.908  10.895
12784W        W72320  33.570  12.833  11.916
12785W        W72321  16.080  15.788   3.746
12786W        W72322  20.044  24.587   0.882
12787W        W72323   4.247   4.269   0.336
12788W        W72324   6.839  37.401   0.742
12789W        W72325   3.831  30.416  10.429
12790W        W72326  24.130  27.953   2.732
12791W        W72327  40.392  10.681   0.839
12792W        W72328  40.814  36.404  11.456
12793W        W72329  27.030  38.329  11.956
12794W        W72330   8.840  34.595  14.469
12795W        W72331   3.327  31.553   3.861
12796W        W72332  32.584   7.315   4.693
12797W        W72333  17.701  33.469   2.222
12798W        W72334   8.334  21.212  11.861
12799W        W72335   6.376   3.891  12.877
12800W        W72336  27.093  33.022   0.481
12801W        W72337  29.425  15.317   3.234
12802W        W72338  20.162   2.828  14.985
12803W        W72339   1.376  15.231   4.660
12804W        W72340  16.745  31.044  12.027
12805W        W72341  35.435  29.580   3.805
12806W        W72342   3.752  38.345   0.893
12807W        W72343   9.345  22.176  11.110
12808W        W72344  27.445   4.768  12.477
12809W        W72345  37.866   8.386   4.626
12810W        W72346   4.380  43.786  14.933
12811W        W72347  25.212  33.528  13.859
12812W        W72348  22.736  22.573   3.633
12813W        W72349  12.631  30.147   4.133
12814W        W72350  18.591  11.819   1.728
12815W        W72351  17.795  27.488   0.954
12816W        W72352   9.770   9.362   2.237
12817W        W72353  33.553  25.016  12.362
12818W        W72354  41.034   8.822  14.317
12819W        W72355  24.179  39.511  13.853
12820W        W72356  36.027  32.457  10.586
12821W        W72357  35.866  34.985   3.311
12822W        W72358   7.862  36.923  13.020
12823W        W72359   9.382  35.451   3.364
12824W        W72360  33.435   0.302   2.890
12825W        W72361  28.487  40.997  11.980
12826W        W72362  12.217  14.308  14.817
12827W        W72363  42.002  24.018   2.320
12828W        W72364   7.200  32.431  12.419
12829W        W72365  19.131   1.253   1.378
12830W        W72366   6.691   7.873   4.323
12831W        W72367  14.589   3.322  11.561
12832W        W72368  39.064   6.704   4.256
12833W        W72369  43.492  13.839  11.529
12834W        W72370  23.713  31.072  11.602
12835W        W72371  29.106  18.728   4.349
12836W        W72372  31.989  44.494  13.430
12837W        W72373  28.548   0.744   1.854
12838W        W72374  20.262  34.456   0.361
12839W        W72375  31.035  41.981  12.002
12840W        W72376  25.213   4.340  11.949
12841W        W72377  26.099   7.338  11.962
12842W        W72378  12.150  11.197  10.641
12843W        W72379  16.081  41.415  11.384
12844W        W72380  34.604   6.882  11.392
12845W        W72381  17.715  44.452   0.869
12846W        W72382  21.749   6.833  14.815
12847W        W72383  43.449  43.374  13.820
12848W        W72384  18.208  36.455   1.293
12849W        W72385  20.617  41.035   2.220
12850W        W72386  12.288  31.146   1.388
12851W        W72387  42.839  15.289   1.782
12852W        W72388   9.236  36.943  10.532
12853W        W72389  29.113   3.430  11.918
12854W        W72390   3.430  10.212  11.006
12855W        W72391  11.811  10.341  12.556
12856W        W72392   5.812  27.049   3.632
12857W        W72393  44.874   1.974  14.948
12858W        W72394   6.872  18.289  11.013
12859W        W72395  39.957  26.594   0.416
12860W        W72396  35.011  38.029   4.132
12861W        W72397  26.690   3.935  10.473
12862W        W72398  24.500   8.821  11.401
12863W        W72399  44.867   9.794  14.285
12864W        W72400  24.063  41.788   1.916
12865W        W72401  33.473   9.273  14.903
12866W        W72402  19.219  42.840   2.400
12867W        W72403   9.764   2.905  11.874
12868W        W72404  38.949  25.074   1.825
12869W        W72405   5.920   8.390  13.871
12870W        W72406  14.621  20.127   0.330
12871W        W72407  28.529  42.481  13.389
12872W        W72408   4.716  36.391  12.918
12873W        W72409  20.174  13.217   2.831
12874W        W72410  38.432  38.918   0.828
12875W        W72411  19.577  20.765  10.140
12876W        W72412  12.670  25.617  10.531
12877W        W72413  19.545  11.274  14.308
12878W        W72414  26.192  15.685  14.960
12879W        W72415  14.232  30.585  14.011
12880W        W72416  31.415  23.068   2.794
12881W        W72417   7.406   3.231   1.230
12882W        W72418  16.579  39.335   1.343
12883W        W72419  13.309  40.357  11.487
12884W        W72420  23.146  13.613  12.068
12885W        W72421  41.383  10.759   0.769
12886W        W72422  23.653  29.963  12.387
12887W        W72423   7.732   0.972  13.310
12888W        W72424  18.208   6.765  14.312
12889W        W72425  27.965   3.850  14.385
12890W        W72426   5.919   6.724   4.161
12891W        W72427   1.841  10.831   2.807
12892W        W72428   0.852  20.202   3.744
12893W        W72429  31.118   3.894   1.447
12894W        W72430  21.597   4.367  13.314
12895W        W72431  44.964  41.402   4.240
12896W        W72432  37.472  28.575   4.205
12897W        W72433  35.406  24.000  12.496
12898W        W72434   0.475   4.709  13.492
12899W        W72435  12.266   8.782   3.644
12900W        W72436  38.071  21.717   0.386
12901W        W72437  39.002  31.965  12.375
12902W        W72438  16.655  18.694  12.358
12903W        W72439  23.061  19.047  12.374
12904W        W72440  33.018   8.365  12.835
12905W        W72441  34.911   7.746  14.905
12906W        W72442  25.129  10.698   3.211
12907W        W72443   5.236  23.595   0.834
12908W        W72444  16.097   3.851   0.907
12909W        W72445  33.020  42.897   3.798
12910W        W72446   0.363   1.410  10.900
12911W        W72447   7.770  41.885   1.272
12912W        W72448  10.714  27.656   0.403
12913W        W72449  41.527   2.954   0.274
12914W        W72450  42.847  29.462  14.880
12915W        W72451  35.359  19.727   2.767
12916W        W72452  15.647  35.394   2.412
12917W        W72453  28.638  34.558   2.695
12918W        W72454  18.185   1.463  12.414
12919W        W72455  10.226  10.225   4.185
12920W        W72456  36.558  39.842  12.049
12921W        W72457  10.632  31.109   5.567
12922W        W72458   4.884  19.214  14.294
12923W        W72459   6.769  25.647  11.604
12924W        W72460  19.083   1.431   3.343
12925W        W72461  44.891  34.978   4.274
12926W        W72462  13.121   4.277   4.307
12927W        W72463  27.022  25.505   4.117
12928W        W72464   5.338   9.768   2.348
12929W        W72465   5.791  26.095   1.737
12930W        W72466   9.360  14.096  14.836
12931W        W72467   6.266  32.405   3.780
12932W        W72468  44.350  11.784   1.253
12933W        W72469  17.285  26.066  10.953
12934W        W72470  32.478  39.433   1.820
12935W        W72471  26.176  24.514   0.726
12936W        W72472  15.144  36.891   3.197
12937W        W72473   2.269  22.745  10.430
12938W        W72474  14.253  23.622  14.331
12939W        W72475  23.085  20.121  13.430
12940W        W72476  25.125  27.105  13.481
12941W        W72477  20.267   9.705  14.807
12942W        W72478   4.821  39.497   2.820
12943W        W72479  20.110  31.120   3.789
12944W        W72480  10.811  44.287  13.031
12945W        W72481   3.726   4.423  13.824
12946W        W72482  30.946   1.930  10.635
12947W        W72483  44.809   1.902  14.378
12948W        W72484  29.608  26.578  11.980
12949W        W72485   2.358  41.413   4.768
12950W        W72486   7.890  41.459   2.222
12951W        W72487  35.576   7.681   4.163
12952W        W72488  15.159   0.371   4.692
12953W        W72489  22.089   6.760  11.502
12954W        W72490  37.859  22.032   2.704
12955W        W72491   8.325   5.702   9.643
12956W        W72492   2.756   5.433   1.786
12957W        W72493   2.399  36.995  11.931
12958W        W72494  26.617  37.022   1.861
12959W        W72495  13.773  33.062  10.616
12960W        W72496  33.520   5.698   9.941
12961W        W72497   3.308  27.184   3.845
12962W        W72498  41.510  22.709   4.203
12963W        W72499   7.201  27.973   1.913
12964W        W72500  31.101  33.099   4.777
12965W        W72501  41.993  11.627   9.532
12966W        W72502  32.917  10.236  13.922
12967W        W72503  27.565  26.971  14.345
12968W        W72504  13.637  23.029   4.127
12969W        W72505   0.476  21.053   1.390
12970W        W72506  23.200   5.791   0.256
12971W        W72507  31.898  23.139   2.675
12972W        W72508  41.918  16.726   0.463
12973W        W72509  28.098  15.632   0.727
12974W        W72510  22.545  23.052  12.544
12975W        W72511   8.839  24.061   5.129
12976W        W72512   5.716   4.271  10.478
12977W        W72513   7.719  14.306  12.992
12978W        W72514  12.127   3.401  11.073
12979W        W72515  29.643  35.939  13.010
12980W        W72516  25.653   3.859   3.262
12981W        W72517  17.116   0.956  10.944
12982W        W72518   1.302  23.543  11.893
12983W        W72519   1.907  20.681   2.709
12984W        W72520  20.708   3.353  13.331
12985W        W72521  44.918  41.852  14.992
12986W        W72522  20.718  32.620   1.848
12987W        W72523  37.024  21.545   0.273
12988W        W72524   3.429  34.951  11.937
12989W        W72525  19.260  42.928   0.245
12990W        W72526  36.348  26.510  13.970
12991W        W72527  15.293   8.890   3.177
12992W        W72528   6.335   7.878  10.946
12993W        W72529  35.422  16.754  11.539
12994W        W72530  13.841  25.577   0.463
12995W        W72531  19.089  35.448  14.850
12996W        W72532  16.194  21.096  13.895
12997W        W72533  20.086  38.551  14.443
12998W        W72534  32.932  38.963  11.564
12999W        W72535  12.191  10.750   3.780
13000W        W72536  24.646   8.197   2.892
13001W        W72537  13.113  12.309   2.766
13002W        W72538  25.533  15.244   5.248
13003W        W72539  35.579  27.970  10.978
13004W        W72540   9.742  13.309  10.919
13005W        W72541  34.014  34.545  12.034
13006W        W72542  19.651  39.505   1.812
13007W        W72543  12.750  35.397  14.876
13008W        W72544  37.952  36.525  12.914
13009W        W72545   9.265  42.461  12.832
13010W        W72546   4.907   7.722  12.843
13011W        W72547  21.702  43.937  13.002
13012W        W72548  27.983  28.556  13.939
13013W        W72549  12.751  37.452  11.878
13014W        W72550  10.264  25.538  12.353
13015W        W72551   1.818  40.390   1.878
13016W        W72552  34.499  21.122  12.428
13017W        W72553  42.430  35.432   4.199
13018W        W72554  37.951  32.524  13.926
13019W        W72555  31.475  41.391  14.891
13020W        W72556  19.750   2.728  11.948
13021W        W72557  16.750  24.986   3.816
13022W        W72558  34.024  18.122   4.296
13023W        W72559   6.907   9.880  10.542
13024W        W72560  19.753  19.074  11.010
13025W        W72561  36.091   5.235   3.684
13026W        W72562  42.007  30.563   1.694
13027W        W72563  32.428  23.171  13.458
13028W        W72564   8.743  31.603   4.791
13029W        W72565  17.579  22.081   4.193
13030W        W72566  28.558   7.674  11.026
13031W        W72567  23.133  22.138   0.378
13032W        W72568   4.888  14.235   0.318
13033W        W72569  22.008   0.277   0.768
13034W        W72570  17.217   9.770   3.172
13035W        W72571  36.507  24.614   4.230
13036W        W72572   3.364  11.839   2.247
13037W        W72573  44.411   4.763   3.840
13038W        W72574   2.460  33.565  13.398
13039W        W72575   2.464  18.173   0.302
13040W        W72576  11.794  20.639  12.404
13041W        W72577  39.018  29.174   2.697
13042W        W72578   9.682  30.141   1.409
13043W        W72579  41.902  39.378  11.040
13044W        W72580   9.299  25.069  12.386
13045W        W72581  19.574   8.302   1.423
13046W        W72582  13.723  36.051   1.371
13047W        W72583  40.339  19.731  11.111
13048W        W72584  12.658  27.687   0.876
13049W        W72585  24.555  30.966   4.334
13050W        W72586   4.870  23.225   0.439
13051W        W72587  14.196  11.311   2.390
13052W        W72588  39.958  36.008   2.290
13053W        W72589   8.717  13.113   4.659
13054W        W72590  40.994  42.407   0.890
13055W        W72591  14.115  34.006   4.302
13056W        W72592  24.118  23.046   4.292
13057W        W72593  14.711  13.817   1.795
13058W        W72594  30.161  29.521  14.495
13059W        W72595  18.292   0.855  10.466
13060W        W72596   5.369  25.149   4.221
13061W        W72597  44.855  15.314  10.606
13062W        W72598  32.968  34.883  11.456
13063W        W72599  39.004  18.785  11.964
13064W        W72600  19.234  21.090  13.000
13065W        W72601  34.077  16.703  13.018
13066W        W72602  43.973   3.254   1.829
13067W        W72603   3.723  38.977   3.812
13068W        W72604  28.054  19.546  14.283
13069W        W72605  25.179  24.661  13.818
13070W        W72606   9.678  19.698   0.383
13071W        W72607  43.311  29.467  11.384
13072W        W72608  23.144  16.277   2.181
13073W        W72609  11.687  14.618   3.372
13074W        W72610  15.260  12.732   1.330
13075W        W72611  41.943  36.995   3.857
13076W        W72612   0.880  10.330  12.066
13077W        W72613   0.287  18.606  14.005
13078W        W72614   4.273  10.246  12.568
13079W        W72615   9.268  12.653   0.477
13080W        W72616   3.419  22.131  10.510
13081W        W72617  14.274  43.974   3.693
13082W        W72618   7.871   7.767  11.107
13083W        W72619  29.994  14.099  12.476
13084W        W72620   2.767  40.961   2.291
13085W        W72621  23.589   0.463  13.896
13086W        W72622  39.478  27.033   2.343
13087W        W72623   6.193   1.844  12.080
13088W        W72624  30.426   2.826   2.195
13089W        W72625  38.058  21.156   3.768
13090W        W72626  16.645   5.798   3.711
13091W        W72627  20.607  24.666  11.394
13092W        W72628  34.587  33.034   0.280
13093W        W72629  19.201  19.637  13.391
13094W        W72630  32.143  33.419   4.766
13095W        W72631  29.493   3.436   5.218
13096W        W72632   4.316  10.876  12.078
13097W        W72633  41.521  22.555  14.314
13098W        W72634  28.104  15.111  11.442
13099W        W72635   6.190  12.727   2.842
13100W        W72636  30.109  44.348  12.830
13101W        W72637   4.790  25.991  10.073
13102W        W72638  42.930  44.006   4.176
13103W        W72639  39.919   0.858  14.822
13104W        W72640  33.989  15.623   9.939
13105W        W72641  43.874  41.990   1.924
13106W        W72642  40.863  28.128  11.904
13107W        W72643  27.684  35.441   1.435
13108W        W72644  44.848   7.219   5.089
13109W        W72645  33.077  35.871   3.736
13110W        W72646  13.111   8.868  13.006
13111W        W72647  18.784  30.999   4.773
13112W        W72648  36.858  32.962   1.717
13113W        W72649  34.549  31.008  14.767
13114W        W72650   0.434  13.742   3.221
13115W        W72651   5.263  34.009  14.972
13116W        W72652  39.821  22.677  13.910
13117W        W72653   9.705  16.079  13.904
13118W        W72654  14.158  27.593  11.534
13119W        W72655   8.805  37.395   4.800
13120W        W72656  36.972  42.455  14.844
13121W        W72657  24.683   9.675   1.439
13122W        W72658  35.869  20.629  13.798
13123W        W72659   9.746  27.032  13.847
13124W        W72660  21.072  21.139   0.277
13125W        W72661   7.780   5.354   3.216
13126W        W72662  35.916  28.141  14.356
13127W        W72663  28.525  36.079   2.724
13128W        W72664  43.279  26.613  14.321
13129W        W72665  19.050   4.303  10.525
13130W        W72666  30.463   4.440  12.440
13131W        W72667  13.253  41.026  11.923
13132W        W72668  40.886  43.854   0.915
13133W        W72669  40.865  14.284   4.803
13134W        W72670  31.542  33.399   0.414
13135W        W72671  33.979  27.963   1.357
13136W        W72672  21.208  27.485  10.139
13137W        W72673  14.191  10.653   0.742
13138W        W72674  14.698  16.676   3.673
13139W        W72675  24.613  32.047  10.065
13140W        W72676  41.441   5.300  12.862
13141W        W72677   9.377  43.846  14.415
13142W        W72678  33.493  33.905   2.742
13143W        W72679  28.586  37.554  10.991
13144W        W72680  21.176  27.635   0.862
13145W        W72681   5.202   6.862   4.798
13146W        W72682  39.365  27.024  14.961
13147W        W72683  18.673   0.492  10.447
13148W        W72684  27.081   6.853   1.893
13149W        W72685   3.931  28.012  10.938
13150W        W72686  12.339  29.084   4.185
13151W        W72687  41.954  13.734  10.534
13152W        W72688   5.411  13.749   2.324
13153W        W72689  21.169  19.193  11.116
13154W        W72690  32.991  28.048   0.464
13155W        W72691   2.472  13.275   9.939
13156W        W72692  37.984   3.956   3.361
13157W        W72693  12.139  44.797  14.871
13158W        W72694   4.873  19.132  12.481
13159W        W72695  21.570  16.238  11.110
13160W        W72696  23.088  35.935   4.602
13161W        W72697  31.458  24.522  13.518
13162W        W72698  27.153  33.517   4.623
13163W        W72699  32.551  16.789  10.456
13164W        W72700   3.441  37.399  10.514
13165W        W72701  23.672  30.440  11.917
13166W        W72702  35.945   8.317  13.804
13167W        W72703  32.448  16.265   4.233
13168W        W72704  27.645  36.074   1.210
13169W        W72705   4.763  37.003  10.950
13170W        W72706  28.062  32.547   1.333
13171W        W72707  34.083  18.096   3.858
13172W        W72708  30.026  40.458   1.222
13173W        W72709   9.205  12.757  11.008
13174W        W72710  33.964  38.349   1.441
13175W        W72711   5.838  33.463   4.254
13176W        W72712  31.578  24.608  11.040
13177W        W72713  40.337  39.453  10.987
13178W        W72714   2.900  35.037   2.668
13179W        W72715  42.515  25.478  14.834
13180W        W72716  43.456  36.843   1.822
13181W        W72717  32.944  24.712   9.945
13182W        W72718  27.635   4.735  11.531
13183W        W72719   2.966  22.560   3.767
13184W        W72720  17.227  26.591  11.483
13185W        W72721  20.219   8.840   2.336
13186W        W72722  17.738   5.792  14.014
13187W        W72723  32.409  12.817  12.034
13188W        W72724  15.665  32.006  10.454
13189W        W72725  29.020  32.416   1.789
13190W        W72726   8.823  23.582   2.836
13191W        W72727  44.466   7.773  12.956
13192W        W72728   7.196  38.390  12.500
13193W        W72729   9.735  42.790   4.752
13194W        W72730  44.339  44.462   1.697
13195W        W72731  18.579   8.670  14.788
13196W        W72732   1.835  41.015  11.429
13197W        W72733  40.539  14.237  13.342
13198W        W72734   1.352  37.930   2.292
13199W        W72735   4.910  29.168   9.966
13200W        W72736  28.114   7.375   2.705
13201W        W72737  29.611  39.378  12.553
13202W        W72738  10.706  18.139   0.949
13203W        W72739  38.438  11.342  11.091
13204W        W72740   9.812  44.797  11.123
13205W        W72741   8.312  33.394  11.042
13206W        W72742  22.150  13.628  10.611
13207W        W72743  44.896  16.728   3.241
13208W        W72744   5.903  38.852   2.265
13209W        W72745  40.864  35.418  14.023
13210W        W72746  24.132  20.586   4.340
13211W        W72747  41.305  14.227  11.090
13212W        W72748  11.156  40.798  14.374
13213W        W72749  16.193  23.664  10.597
13214W        W72750  23.177   8.318  13.948
13215W        W72751   8.731  39.466   1.813
13216W        W72752   4.721  44.398  10.919
13217W        W72753  37.847  23.681  14.000
13218W        W72754  13.291  26.588   2.224
13219W        W72755   3.410  15.152   4.257
13220W        W72756  21.678  28.118   2.361
13221W        W72757  36.880  17.607   1.297
13222W        W72758   0.400   7.293  14.312
13223W        W72759  14.196  18.615  14.017
13224W        W72760   6.800  26.980  11.024
13225W        W72761  26.680  34.561   1.369
13226W        W72762   6.273  40.360  14.819
13227W        W72763  41.506  28.037  13.451
13228W        W72764  39.430  31.001  11.007
13229W        W72765  16.112  44.774   0.901
13230W        W72766  39.359  30.431   3.224
13231W        W72767  23.592  41.300  13.389
13232W        W72768  28.947  20.202   3.759
13233W        W72769   3.804   1.327  12.045
13234W        W72770  20.651   2.961   1.299
13235W        W72771  21.620   8.277   2.249
13236W        W72772  43.015  35.962  12.834
13237W        W72773   9.832  30.923   3.638
13238W        W72774  19.719  30.459   1.771
13239W        W72775  36.359  40.349  14.856
13240W        W72776  22.519  43.932   4.774
13241W        W72777  22.088  21.606   1.899
13242W        W72778   4.225  25.084  13.927
13243W        W72779  44.335   2.731  13.885
13244W        W72780  20.545  15.665  10.151
13245W        W72781  39.420  12.268  10.489
13246W        W72782  22.719  32.105  14.317
13247W        W72783  21.173  15.592  12.052
13248W        W72784  33.453  15.684   2.737
13249W        W72785   4.267  37.998   0.949
13250W        W72786  40.880   6.294   3.164
13251W        W72787  20.035  10.268  14.299
13252W        W72788  14.118  24.675   0.772
13253W        W72789  20.241  37.832  12.093
13254W        W72790  31.962  33.527   1.221
13255W        W72791  24.001   2.405  14.919
13256W        W72792  31.136   2.804   4.706
13257W        W72793  14.253  13.842  11.963
13258W        W72794  23.513   9.390   9.922
13259W        W72795  24.222  24.585  14.815
13260W        W72796   0.915  41.299  11.897
13261W        W72797  26.168  37.457  10.616
13262W        W72798  24.538  37.467  12.912
13263W        W72799   7.277  29.140  12.520
13264W        W72800  38.498  38.833   2.275
13265W        W72801  38.440  12.313  11.503
13266W        W72802  34.045  22.203  11.875
13267W        W72803  24.012  26.511   5.123
13268W        W72804   5.264   2.320  10.994
13269W        W72805  29.993  25.627  12.892
13270W        W72806  10.278  42.521   2.334
13271W        W72807  32.888  27.573   5.727
13272W        W72808  38.545  22.221   4.178
13273W        W72809  43.844  12.745  12.543
13274W        W72810   4.715  40.465   4.113
13275W        W72811   1.402  14.604   0.966
13276W        W72812  37.878  24.604   0.942
13277W        W72813  23.999   3.741   9.988
13278W        W72814  41.895   5.799   2.268
13279W        W72815  42.405   1.446   1.433
13280W        W72816  29.946  17.158   1.273
13281W        W72817  41.343  12.197  13.542
13282W        W72818  36.924   6.245  14.893
13283W        W72819  37.548  16.569  10.936
13284W        W72820   1.323   2.325   2.727
13285W        W72821   9.682  35.013   2.385
13286W        W72822  27.943   6.771   1.361
13287W        W72823  29.137  39.468   4.670
13288W        W72824  29.970  39.377   3.638
13289W        W72825  10.636  33.914   4.175
13290W        W72826  42.782  23.639  14.318
13291W        W72827  21.106  36.073   2.323
13292W        W72828  32.432  37.996   1.230
13293W        W72829  39.027  32.971  13.544
13294W        W72830  13.180  27.024   1.252
13295W        W72831  16.255  33.546   2.382
13296W        W72832  34.911  11.258  14.823
13297W        W72833   4.407  21.202  11.099
13298W        W72834  32.435  32.970   2.345
13299W        W72835  17.763  21.254   0.417
13300W        W72836  32.034  16.236   3.796
13301W        W72837  24.998  23.616  10.930
13302W        W72838   5.271  15.199  14.323
13303W        W72839  32.913  10.683  10.628
13304W        W72840   2.822  40.931   1.747
13305W        W72841  37.511  12.330   1.743
13306W        W72842  43.972   4.355   3.180
13307W        W72843   5.215  11.685   2.263
13308W        W72844   4.282   2.744   0.807
13309W        W72845  10.770  18.109  14.328
13310W        W72846  38.849  18.748   3.675
13311W        W72847  18.067  15.144  13.956
13312W        W72848  37.867  11.648  10.976
13313W        W72849  11.133  28.058   3.163
13314W        W72850  19.635  44.445  10.440
13315W        W72851  27.597  31.492   1.739
13316W        W72852   3.726  38.921   1.828
13317W        W72853  35.852  22.517  13.337
13318W        W72854   6.228  27.601   4.667
13319W        W72855  43.489  42.840   1.709
13320W        W72856  37.039  20.232  11.456
13321W        W72857  35.969  35.924  10.933
13322W        W72858   8.729   7.196   3.707
13323W        W72859  42.345  13.221   0.787
13324W        W72860  14.211  17.750  12.838
13325W        W72861  28.615  17.230  10.477
13326W        W72862  43.780  39.843   0.907
13327W        W72863   0.830   8.186   2.884
13328W        W72864  25.531  30.425  14.018
13329W        W72865  18.106  28.651   3.867
13330W        W72866  36.368  44.867  11.436
13331W        W72867  33.110  22.017  11.969
13332W        W72868  10.376   1.394  10.498
13333W        W72869  22.626   0.856  14.335
13334W        W72870  39.929   2.369   1.315
13335W        W72871   4.749   0.408   0.882
13336W        W72872  32.066  41.506  10.531
13337W        W72873  37.907  42.457  11.888
13338W        W72874  15.722   4.358  10.000
13339W        W72875  17.600  10.828  14.291
13340W        W72876  42.848  33.543  14.417
13341W        W72877  15.189  10.384  14.006
13342W        W72878  14.152  18.050  10.158
13343W        W72879   7.410   4.429  12.001
13344W        W72880  15.118  28.088   1.738
13345W        W72881  38.884  36.986   3.365
13346W        W72882  19.252  27.607  12.496
13347W        W72883  23.581   8.704   4.600
13348W        W72884  10.352  17.062  11.967
13349W        W72885   5.806  42.865   9.968
13350W        W72886   9.235  15.147  13.010
13351W        W72887  34.557  22.219   4.641
13352W        W72888  38.875  30.621  13.836
13353W        W72889   3.872   5.261   0.940
13354W        W72890  26.061  42.395  11.376
13355W        W72891  43.295  40.492   2.301
13356W        W72892  35.980   2.251  12.047
13357W        W72893  42.896  29.172   1.289
13358W        W72894  21.162  26.491   4.771
13359W        W72895  33.896   7.840   2.414
13360W        W72896  11.366  32.593  14.412
13361W        W72897  41.492  38.540  12.348
13362W        W72898   3.284   5.875   3.207
13363W        W72899   1.921  15.705   1.325
13364W        W72900  39.439   3.343   1.720
13365W        W72901  22.555  30.926  14.821
13366W        W72902   8.817  30.064   1.396
13367W        W72903  27.516   2.834  10.513
13368W        W72904  15.086  37.079  12.095
13369W        W72905  23.632   5.892   3.686
13370W        W72906  17.559  39.503  11.903
13371W        W72907  38.984  40.903  12.347
13372W        W72908  29.482  36.565   1.244
13373W        W72909  44.963   5.321  12.025
13374W        W72910  31.923  30.028   2.352
13375W        W72911  15.088   9.165   3.211
13376W        W72912  18.098   8.174  11.379
13377W        W72913  31.483  21.744   3.360
13378W        W72914  16.109   0.747  14.398
13379W        W72915   0.357  11.780   2.793
13380W        W72916  30.427  28.084  12.043
13381W        W72917  27.994  21.017  14.389
13382W        W72918  17.166  38.010  12.369
13383W        W72919  41.404  12.178  14.807
13384W        W72920  44.352  26.112  14.771
13385W        W72921  13.255   4.276  11.504
13386W        W72922  26.602  37.917   0.422
13387W        W72923  19.135  20.179  12.080
13388W        W72924  33.990  32.030   1.290
13389W        W72925  18.063  41.918  14.310
13390W        W72926   9.839   8.161   1.380
13391W        W72927  15.151  26.492   5.244
13392W        W72928  43.967  15.312  13.918
13393W        W72929  38.343  42.338   1.339
13394W        W72930   3.716   2.410  14.350
13395W        W72931  19.749  26.127  13.357
13396W        W72932  11.270  34.869  10.900
13397W        W72933  16.728  30.948   1.343
13398W        W72934  18.190  18.080   2.392
13399W        W72935  12.670   9.166   3.803
13400W        W72936  18.218  16.293   3.860
13401W        W72937  10.246  42.869  12.089
13402W        W72938  32.433  26.000  14.957
13403W        W72939  43.349  11.301  12.045
13404W        W72940  39.363  23.552  14.434
13405W        W72941  37.905  36.496   2.823
13406W        W72942  31.137  12.174  12.091
13407W        W72943  42.306  34.914   4.201
13408W        W72944  13.704  27.131  13.939
13409W        W72945  30.153   7.314   4.742
13410W        W72946  15.790   1.919  14.913
13411W        W72947  33.623  12.656   3.683
13412W        W72948  42.877   7.668   1.911
13413W        W72949  11.752  18.758  10.894
13414W        W72950  22.695  24.138  13.348
13415W        W72951  21.123  36.914  11.386
13416W        W72952  18.713  11.850  12.851
13417W        W72953  40.944  20.735  11.892
13418W        W72954  30.566  17.748  10.447
13419W        W72955   4.819  42.942   0.926
13420W        W72956  25.681   5.423  14.999
13421W        W72957  38.840   6.338   4.268
13422W        W72958   1.304  16.133  13.060
13423W        W72959  23.115  28.491   4.341
13424W        W72960  19.704  28.613  11.492
13425W        W72961  32.482  13.175  12.523
13426W        W72962  29.431  38.885   2.708
13427W        W72963   6.288  13.180  12.380
13428W        W72964  26.186  12.361   1.820
13429W        W72965  14.189  17.268  11.047
13430W        W72966  43.771  36.060  11.091
13431W        W72967  44.756  11.659  14.396
13432W        W72968  32.019  39.513   2.665
13433W        W72969  10.744  42.352   1.765
13434W        W72970  15.734  29.432  10.550
13435W        W72971  34.923  11.348   2.787
13436W        W72972  15.194  32.940  14.891
13437W        W72973  33.970  40.039  14.023
13438W        W72974  32.428  22.113  10.104
13439W        W72975   8.667  30.549   4.639
13440W        W72976  22.670  11.212  10.957
13441W        W72977  18.569   0.269   2.690
13442W        W72978  41.006  25.101   4.628
13443W        W72979  12.139   5.747   1.881
13444W        W72980  41.370  37.025  14.869
13445W        W72981  35.921  19.112   4.722
13446W        W72982  29.574  43.332  12.558
13447W        W72983  24.125  24.010  13.051
13448W        W72984  40.854   9.683   3.750
13449W        W72985  25.964  18.202   0.751
13450W        W72986  44.807  26.701   2.233
13451W        W72987  34.562  15.135  14.409
13452W        W72988   1.413   0.464  14.446
13453W        W72989  40.984  30.653   2.821
13454W        W72990  17.738   6.910  10.896
13455W        W72991  41.453  37.992  11.404
13456W        W72992  34.992  22.592   2.389
13457W        W72993   7.269  23.001   4.644
13458W        W72994  15.271   7.858   3.291
13459W        W72995  21.044  38.951   3.199
13460W        W72996  44.909  43.343   0.318
13461W        W72997   1.848   5.243  13.906
13462W        W72998  11.248   6.863  12.519
13463W        W72999  12.853  40.529   1.934
13464W        W73000  34.916  12.176   0.727
13465W        W73001  43.000  17.763   0.333
13466W        W73002  27.689   8.310  14.819
13467W        W73003  35.911  43.288   1.341
13468W        W73004   0.482  26.567  10.404
13469W        W73005  20.255  20.084   1.821
13470W        W73006   2.279   2.960   1.867
13471W        W73007  17.230  35.992  10.626
13472W        W73008  30.954  27.476   1.903
13473W        W73009  19.560  40.486  14.772
13474W        W73010  26.957  21.552   0.404
13475W        W73011  27.152  15.739  13.823
13476W        W73012  28.676  20.700  12.905
13477W        W73013  26.988   9.376  11.950
13478W        W73014  11.328  31.991   3.295
13479W        W73015  34.383  34.416  13.478
13480W        W73016  21.531  20.626  10.974
13481W        W73017  13.725  42.908   3.664
13482W        W73018  26.180  21.196  12.045
13483W        W73019  22.121  30.003  10.569
13484W        W73020   4.787  18.281  12.075
13485W        W73021  24.613   5.378   3.181
13486W        W73022  31.046  29.995   0.811
13487W        W73023  39.883  29.150   3.344
13488W        W73024  36.940  11.798   0.729
13489W        W73025   3.755  29.173   4.346
13490W        W73026  24.482  31.059  13.321
13491W        W73027  42.452  11.740  14.441
13492W        W73028   5.885  30.015  12.481
13493W        W73029  42.817  28.573  12.566
13494W        W73030   7.703   6.777   0.461
13495W        W73031  38.997   6.292  10.608
13496W        W73032   3.336  31.950  10.902
13497W        W73033  28.504   5.879   4.717
13498W        W73034  22.123  12.727   1.417
13499W        W73035   2.790  13.201   0.824
13500W        W73036  28.128  24.156   2.669
13501W        W73037  37.950   7.315  13.056
13502W        W73038  13.242  42.491   1.832
13503W        W73039  12.663  16.232  11.945
13504W        W73040  18.195  18.575   9.978
13505W        W73041   4.904  17.264  11.502
13506W        W73042  18.616  13.250  11.944
13507W        W73043  12.796  35.466  14.330
13508W        W73044  43.875  32.428  14.879
13509W        W73045  38.395  21.680  12.833
13510W        W73046   7.193  15.145  13.862
13511W        W73047  16.167   3.422  10.496
13512W        W73048  28.477  42.990   3.208
13513W        W73049  16.100  14.163  11.591
13514W        W73050  39.018  42.345   0.867
13515W        W73051  34.546   9.772   3.162
13516W        W73052   4.834  41.841   0.804
13517W        W73053  13.167  39.477  10.614
13518W        W73054  27.449  21.652   3.640
13519W        W73055  11.203  21.179  11.910
13520W        W73056  20.122   9.348   0.811
13521W        W73057   1.390  36.523   4.334
13522W        W73058  39.542  44.347   3.686
13523W        W73059   7.397   8.711   3.786
13524W        W73060   8.274   8.836   4.353
13525W        W73061  30.999   9.391  14.382
13526W        W73062   3.251  23.602   1.897
13527W        W73063  37.467  32.014  12.463
13528W        W73064  17.144  15.278   3.295
13529W        W73065   7.805   3.925  10.453
13530W        W73066  38.542  25.689  12.486
13531W        W73067   1.734  26.185   1.926
13532W        W73068  41.482  18.725   4.132
13533W        W73069  20.055  40.797   0.754
13534W        W73070  13.842  20.124  11.869
13535W        W73071  18.712  15.600   1.863
13536W        W73072   1.935  24.721   4.713
13537W        W73073  22.243   5.834   2.393
13538W        W73074  38.056  16.716  12.434
13539W        W73075  35.039  20.551   2.336
13540W        W73076  42.316   6.305   0.740
13541W        W73077  16.807  23.067   1.933
13542W        W73078  21.572  15.246  11.596
13543W        W73079  23.514  27.485  12.081
13544W        W73080  26.526  16.135  11.962
13545W        W73081  17.761   3.436   4.824
13546W        W73082  38.050  36.489   0.396
13547W        W73083  19.254  20.103   1.805
13548W        W73084  25.181   4.450   3.673
13549W        W73085  21.531  26.003   3.216
13550W        W73086  26.515  16.742  12.090
13551W        W73087  30.530  44.341   3.749
13552W        W73088   5.321  15.797   0.252
13553W        W73089   6.741  40.046  14.932
13554W        W73090  40.918  18.768  13.011
13555W        W73091  32.554  22.143   4.738
13556W        W73092  11.293  42.336   1.706
13557W        W73093  29.016  41.795  14.327
13558W        W73094  17.708  29.982   2.206
13559W        W73095  37.385  41.473  12.015
13560W        W73096  28.093   1.784   4.778
13561W        W73097  23.029  42.943   2.769
13562W        W73098  28.013  30.079   1.742
13563W        W73099   9.879  15.653  10.965
13564W        W73100  29.959  12.359  14.917
13565W        W73101  44.315   5.708   9.970
13566W        W73102  25.633   0.825  14.382
13567W        W73103  23.682  12.162   2.881
13568W        W73104  15.747  22.667  11.431
13569W        W73105  33.569  24.479   5.215
13570W        W73106  14.267  42.508  14.886
13571W        W73107  26.458  24.034  13.315
13572W        W73108  13.776  22.028   2.236
13573W        W73109   6.874  18.259   1.816
13574W        W73110  17.064  10.224  14.910
13575W        W73111  37.496  23.727   2.872
13576W        W73112  11.685  11.130   2.728
13577W        W73113  42.998   9.352   9.920
13578W        W73114  43.344   8.725  11.872
13579W        W73115  37.386  38.994  11.878
13580W        W73116   5.412  38.977  12.051
13581W        W73117   3.263   7.674   4.757
13582W        W73118  32.962  18.100  10.477
13583W        W73119  26.603  33.110  11.566
13584W        W73120  31.607  10.358   1.759
13585W        W73121  28.123  43.345   5.137
13586W        W73122  19.276  44.957  12.828
13587W        W73123  35.593   1.384   2.369
13588W        W73124  26.634  30.022  13.313
13589W        W73125  40.817  23.192   1.272
13590W        W73126  24.628  22.060  13.345
13591W        W73127   7.289   3.796  10.483
13592W        W73128  10.370   6.747  14.359
13593W        W73129  18.620   3.861  10.953
13594W        W73130   0.319  34.905  12.870
13595W        W73131   3.746  32.907   2.711
13596W        W73132  26.509   8.790   3.164
13597W        W73133  12.152   2.359  12.922
13598W        W73134  34.599  25.998   1.248
13599W        W73135   0.814  26.123  13.448
13600W        W73136  42.972  10.771   0.764
13601W        W73137  30.500  44.377   0.910
13602W        W73138  38.876  33.527   2.732
13603W        W73139  31.105  38.368   2.246
13604W        W73140  25.082  15.716  12.571
13605W        W73141  12.773  18.730   4.698
13606W        W73142  26.692   2.923   3.179
13607W        W73143  32.506  31.014  14.864
13608W        W73144   5.244  15.605  10.575
13609W        W73145  23.607  11.658   1.813
13610W        W73146  35.509  10.681   3.734
13611W        W73147  37.060  16.310  13.312
13612W        W73148  36.431  21.650  11.429
13613W        W73149  40.355  36.912  14.360
13614W        W73150  44.279  37.465  10.088
13615W        W73151   3.780  34.975   3.701
13616W        W73152  42.347  31.410  13.447
13617W        W73153  21.604  21.240   1.850
13618W        W73154   7.227  23.651   1.410
13619W        W73155  15.243   7.886   0.471
13620W        W73156  30.006  35.099   4.210
13621W        W73157  21.569  28.969   0.865
13622W        W73158  44.897  43.885   1.847
13623W        W73159  19.572  15.670  11.878
13624W        W73160  28.525  29.980  11.506
13625W        W73161  42.943  44.401  14.890
13626W        W73162  24.645   2.921   2.267
13627W        W73163  26.983  29.523  14.404
13628W        W73164   9.395  14.225   3.322
13629W        W73165   3.266   8.755  10.005
13630W        W73166  35.097  26.700   2.752
13631W        W73167  35.466  16.218   3.861
13632W        W73168   5.924   5.384   2.247
13633W        W73169   9.394  23.237   0.785
13634W        W73170  26.671  10.190   0.382
13635W        W73171  35.035  16.652   1.919
13636W        W73172   3.260   4.788   4.617
13637W        W73173  11.199   2.393   4.661
13638W        W73174  22.230  28.655  14.776
13639W        W73175   2.325  44.488  11.394
13640W        W73176  38.824  29.605  10.412
13641W        W73177  14.108   7.240  14.007
13642W        W73178  18.189   8.366   0.786
13643W        W73179  44.934  32.513   4.598
13644W        W73180  35.083   8.293   4.819
13645W        W73181  34.910   3.925  11.458
13646W        W73182  33.121  34.424   2.259
13647W        W73183   0.859  27.018  11.609
13648W        W73184  34.095  28.458   1.708
13649W        W73185   6.706  40.494  12.468
13650W        W73186  43.410   5.202   2.242
13651W        W73187  18.246  18.073   5.135
13652W        W73188  41.504  22.714   1.748
13653W        W73189  11.825  18.554   0.266
13654W        W73190  28.113  34.385  11.458
13655W        W73191  36.915  40.864   4.286
13656W        W73192  24.989  36.911   9.983
13657W        W73193  33.050  33.420   2.387
13658W        W73194   3.435  23.576   3.867
13659W        W73195  18.667  31.013  13.444
13660W        W73196   6.920  33.448   3.717
13661W        W73197  12.182  11.673   0.423
13662W        W73198  33.552  26.624  13.974
13663W        W73199  34.990  16.600  13.942
13664W        W73200   3.762   7.267   1.294
13665W        W73201   9.297  40.430  13.445
13666W        W73202  26.987   4.311  13.967
13667W        W73203   8.272  21.248  13.003
13668W        W73204  20.265  19.052   3.317
13669W        W73205  13.167  14.334  12.561
13670W        W73206  40.327  13.177  11.466
13671W        W73207  44.003  23.547   4.177
13672W        W73208  44.279  28.942   5.164
13673W        W73209  42.396   2.759   2.798
13674W        W73210  15.752  43.907  12.883
13675W        W73211  11.235  11.673   2.683
13676W        W73212   7.804  11.215  14.400
13677W        W73213  41.305  36.895   4.191
13678W        W73214  17.616  19.121  10.553
13679W        W73215  22.675  24.689  11.915
13680W        W73216  18.175   3.843  13.843
13681W        W73217  29.104   8.671  14.411
13682W        W73218  41.797  29.535  10.948
13683W        W73219  41.382   8.218  13.015
13684W        W73220   4.788   4.932   4.138
13685W        W73221  11.159   4.907   4.206
13686W        W73222  14.602  38.536  12.886
13687W        W73223   5.746   3.267  12.049
13688W        W73224  38.834   1.278   2.302
13689W        W73225  13.669  23.131  10.548
13690W        W73226  18.199  19.128   3.385
13691W        W73227   0.281  12.196  13.345
13692W        W73228  28.092  22.131  12.414
13693W        W73229  35.067  21.238   1.827
13694W        W73230  29.542   3.896   0.826
13695W        W73231   0.455  12.826  12.524
13696W        W73232  29.016  43.342  12.492
13697W        W73233  29.004  18.050  13.539
13698W        W73234  41.939  11.814   3.369
13699W        W73235  31.995  18.764   0.828
13700W        W73236  34.472   0.340  11.494
13701W        W73237  11.684  15.088   1.351
13702W        W73238   3.426   1.799   3.708
13703W        W73239   3.292  30.995   3.734
13704W        W73240  37.993  24.108   2.415
13705W        W73241  28.984  30.922   4.702
13706W        W73242  37.832   7.397  11.407
13707W        W73243  34.990  15.750  14.862
13708W        W73244  44.350   1.912   4.836
13709W        W73245  18.765  19.769   0.416
13710W        W73246  19.283   9.696  13.900
13711W        W73247  18.226  12.774   1.836
13712W        W73248  28.579  40.455   4.607
13713W        W73249   5.813  22.593  14.019
13714W        W73250  20.254  22.066   0.277
13715W        W73251  14.318  25.673   3.169
13716W        W73252  26.583  39.039   0.436
13717W        W73253  14.108  26.205  12.346
13718W        W73254  23.575  30.445   2.829
13719W        W73255  23.042  38.566   3.729
13720W        W73256  28.604  10.840   1.909
13721W        W73257   6.403   4.226   2.816
13722W        W73258   1.791  42.408   3.308
13723W        W73259   5.808  37.581  13.987
13724W        W73260  26.631  11.229   3.685
13725W        W73261  14.607  10.252  10.043
13726W        W73262  39.450  39.025  14.381
13727W        W73263  40.402  12.840   2.334
13728W        W73264  14.767  34.911   2.880
13729W        W73265  19.071  27.633  14.387
13730W        W73266  34.090   3.248  14.286
13731W        W73267  31.469  24.106   9.496
13732W        W73268  26.486  43.890  11.964
13733W        W73269  28.110  43.322   1.409
13734W        W73270  32.551  27.527  11.470
13735W        W73271  38.432   6.683   4.352
13736W        W73272   2.884  10.179   2.416
13737W        W73273  37.491  27.064   2.370
13738W        W73274  35.910  41.479   3.200
13739W        W73275  29.580  16.116   1.743
13740W        W73276   6.844  18.725   2.225
13741W        W73277  10.753  38.471  10.932
13742W        W73278  44.855  34.113   3.777
13743W        W73279   5.303  32.933  14.373
13744W        W73280   2.327  29.947   1.843
13745W        W73281  34.924  34.868   5.274
13746W        W73282   4.902  29.025   0.477
13747W        W73283  38.936  31.529   2.225
13748W        W73284  25.491   4.240  12.481
13749W        W73285  35.999  30.069   0.412
13750W        W73286  19.213   7.177   2.678
13751W        W73287  12.635  37.069   3.309
13752W        W73288  13.826  30.619  13.869
13753W        W73289  28.469  23.158   3.678
13754W        W73290  17.211   7.668  14.908
13755W        W73291   8.198  41.452  11.487
13756W        W73292   5.381   0.442  11.089
13757W        W73293  42.879  43.006   1.916
13758W        W73294  37.849  29.946   4.802
13759W        W73295  14.214  28.681   4.183
13760W        W73296   8.702   5.916  11.973
13761W        W73297  43.503  41.850  14.996
13762W        W73298   5.819  18.069   3.775
13763W        W73299   4.301  27.527   2.183
13764W        W73300  11.207  13.782   3.151
13765W        W73301   0.851  21.156   1.856
13766W        W73302  43.016  18.741   4.792
13767W        W73303   9.801   7.213   0.837
13768W        W73304  28.480   4.706   2.835
13769W        W73305  15.709  15.123  11.867
13770W        W73306  38.476  39.480   3.639
13771W        W73307  23.509   3.786   5.794
13772W        W73308  36.895  37.543   2.290
13773W        W73309  34.935   8.354  14.819
13774W        W73310  25.648   9.860  11.065
13775W        W73311  12.299  17.679   1.268
13776W        W73312  24.480  31.967  10.992
13777W        W73313  40.446  38.404  12.031
13778W        W73314  26.974  31.634   0.830
13779W        W73315  44.481  40.472  13.793
13780W        W73316  20.222  13.246  10.960
13781W        W73317  31.974   2.776  14.937
13782W        W73318   7.885  12.323   3.659
13783W        W73319   3.285  15.171   0.787
13784W        W73320  23.643  28.526   0.375
13785W        W73321  20.160  25.187   2.259
13786W        W73322  41.414  44.948  14.278
13787W        W73323  43.333   3.768   3.232
13788W        W73324  31.059  32.050  12.366
13789W        W73325   5.338   2.313   4.644
13790W        W73326  42.365  15.119  11.533
13791W        W73327   1.787  35.107  11.012
13792W        W73328  22.041  20.559   3.650
13793W        W73329  34.048  40.516   0.788
13794W        W73330  42.968  19.540  14.291
13795W        W73331  22.109  26.470   3.754
13796W        W73332  44.789  37.859   0.940
13797W        W73333   6.905  43.798  14.838
13798W        W73334  44.382  42.886  10.897
13799W        W73335  35.867  14.277  11.407
13800W        W73336  44.800   2.851   4.330
13801W        W73337  24.208  20.663   2.343
13802W        W73338   3.880   0.787   4.130
13803W        W73339   8.361  28.671  12.382
13804W        W73340   4.765  26.638   3.363
13805W        W73341  26.045   9.214   4.296
13806W        W73342   6.734  28.492  12.559
13807W        W73343  18.282   1.916  13.012
13808W        W73344  27.458  41.517   3.724
13809W        W73345  30.131  31.522  13.882
13810W        W73346  44.465   0.382  10.040
13811W        W73347   5.343  26.487   0.267
13812W        W73348   8.689   2.271  11.033
13813W        W73349  23.681  30.480   3.641
13814W        W73350  14.604  38.830   3.340
13815W        W73351  23.567   9.760  12.846
13816W        W73352  38.933  42.304  12.836
13817W        W73353  27.000  40.315   0.873
13818W        W73354   0.824  42.950   0.374
13819W        W73355  14.732  38.479  14.362
13820W        W73356  13.740  26.520  11.401
13821W        W73357  10.349  22.590  14.408
13822W        W73358  18.266  30.948  12.348
13823W        W73359  37.082   0.394   1.383
13824W        W73360  44.414  29.940  13.868
13825W        W73361  41.794   2.741  13.400
13826W        W73362   5.310  25.056  14.835
13827W        W73363   7.857  21.121  12.388
13828W        W73364  31.420  18.746  14.399
13829W        W73365  13.133   4.940   2.825
13830W        W73366  11.682  39.328  10.538
13831W        W73367  15.582  16.614  13.828
13832W        W73368  39.013   4.370   0.462
13833W        W73369  41.505  11.355  12.538
13834W        W73370  36.995  33.516  10.158
13835W        W73371  31.611  22.113  12.953
13836W        W73372   3.312  41.792  13.403
13837W        W73373   2.389   1.808  12.572
13838W        W73374  37.071   0.274   1.777
13839W        W73375  39.466   0.385   1.308
13840W        W73376  38.971   7.869  11.407
13841W        W73377   0.769  22.076  14.955
13842W        W73378  31.914  40.925  11.431
13843W        W73379  18.556  32.041   1.325
13844W        W73380  39.456  39.319   3.147
13845W        W73381  35.471  32.614  12.551
13846W        W73382  11.183   4.742   1.746
13847W        W73383  13.729  13.632   3.860
13848W        W73384  35.081  24.072   4.765
13849W        W73385   8.893  28.677  11.413
13850W        W73386   6.407  16.163   1.844
13851W        W73387  22.240  11.224   0.445
13852W        W73388  38.897  23.734  11.482
13853W        W73389  13.685  42.403   4.247
13854W        W73390  23.212  38.068   4.740
13855W        W73391  39.054  19.741   3.763
13856W        W73392  33.498  14.132   1.370
13857W        W73393   6.838  42.875  14.470
13858W        W73394  33.038  18.123   3.664
13859W        W73395   9.368  31.063   1.831
13860W        W73396  12.762  24.690   1.836
13861W        W73397  41.417   5.283  11.876
13862W        W73398   3.269  39.983  12.383
13863W        W73399  29.049  14.665   3.721
13864W        W73400  35.899  36.385   4.194
13865W        W73401  26.959   1.908  11.993
13866W        W73402  44.402  24.057  13.875
13867W        W73403   9.233  22.661   2.725
13868W        W73404   5.922  35.588   4.318
13869W        W73405  12.764  30.627   1.726
13870W        W73406  13.793  36.097   3.274
13871W        W73407  39.547   0.912   1.277
13872W        W73408  41.955  33.386  10.000
13873W        W73409   8.858  31.127   4.147
13874W        W73410  21.715  22.243  14.849
13875W        W73411  30.128  35.488  11.379
13876W        W73412  30.554  14.327  13.943
13877W        W73413  41.878  33.390  13.432
13878W        W73414   5.415  18.689   1.295
13879W        W73415  16.680  35.498   0.825
13880W        W73416  42.856  17.760  13.308
13881W        W73417   8.263  32.403  14.900
13882W        W73418  15.791  30.477   4.231
13883W        W73419  32.953  33.623   1.402
13884W        W73420  31.961  28.038  13.376
13885W        W73421   7.748   7.343   1.288
13886W        W73422  14.293  12.756   0.316
13887W        W73423   5.289  41.384   0.877
13888W        W73424  35.089  12.157   3.664
13889W        W73425  27.187  41.435   2.766
13890W        W73426  16.785  43.953  11.598
13891W        W73427   4.407  25.198  12.434
13892W        W73428  10.322   8.222   3.155
13893W        W73429  25.016  25.994   3.225
13894W        W73430  39.951  11.760   5.168
13895W        W73431  29.458  26.197   2.773
13896W        W73432  29.053  35.106  12.373
13897W        W73433   1.839   1.775  14.776
13898W        W73434  27.067  15.286   3.367
13899W        W73435  30.603  13.703   4.822
13900W        W73436  10.318  35.035   1.925
13901W        W73437  23.016  30.063   2.363
13902W        W73438  36.871  21.208  11.016
13903W        W73439  10.729  10.173  11.996
13904W        W73440  16.142  35.595  13.933
13905W        W73441  16.579  17.148  12.847
13906W        W73442  44.363  13.607  12.013
13907W        W73443   4.837   3.737   0.756
13908W        W73444  35.072  22.013  12.575
13909W        W73445  15.724  36.850  14.380
13910W        W73446  37.905  37.024  13.801
13911W        W73447  12.744  31.560   0.819
13912W        W73448   2.946  26.003  13.912
13913W        W73449  30.126  36.946   3.841
13914W        W73450   0.918  40.527   3.853
13915W        W73451  39.324  31.558   2.843
13916W        W73452  29.133  20.045  10.564
13917W        W73453  20.534  25.126  12.426
13918W        W73454  38.925   1.319   1.249
13919W        W73455  30.546   6.760  12.870
13920W        W73456  11.353  14.745  11.602
13921W        W73457  14.217   9.247   1.873
13922W        W73458  43.415  20.056  12.420
13923W        W73459   2.828  23.654   4.759
13924W        W73460  13.187   2.330   4.340
13925W        W73461  17.557  28.525  14.905
13926W        W73462  34.998   9.182   2.220
13927W        W73463  25.127   1.434  14.994
13928W        W73464  32.059  35.374  12.060
13929W        W73465  43.009  21.647   5.116
13930W        W73466  31.990   9.215  11.454
13931W        W73467   4.864   7.777  14.863
13932W        W73468  44.278  11.662  10.520
13933W        W73469  38.957  44.868   1.214
13934W        W73470   0.779  23.493   4.132
13935W        W73471  31.936  10.168   0.254
13936W        W73472   0.282  42.352   3.642
13937W        W73473  27.055  29.176   2.700
13938W        W73474   6.820   7.900   2.737
13939W        W73475  21.216  35.437   5.290
13940W        W73476  38.883  19.667   4.654
13941W        W73477  44.878  24.148   4.631
13942W        W73478  15.163  12.312  14.328
13943W        W73479  18.273  40.848  10.435
13944W        W73480  22.529  41.818   5.307
13945W        W73481  11.735   2.855  14.818
13946W        W73482   9.363  43.844   2.711
13947W        W73483  27.961  19.174   0.733
13948W        W73484  22.019  32.614  12.378
13949W        W73485   9.384  37.007  10.965
13950W        W73486  15.774  28.094  12.077
13951W        W73487   7.848  43.329   2.883
13952W        W73488  26.609  41.497   1.787
13953W        W73489  14.259  39.393   2.858
13954W        W73490  37.026  16.106  13.024
13955W        W73491   3.769  38.345  14.300
13956W        W73492   6.843  32.958  11.114
13957W        W73493  33.388  31.919  13.348
13958W        W73494  41.835  38.359   4.800
13959W        W73495  19.563  16.677   3.656
13960W        W73496  15.170  22.122  12.385
13961W        W73497  31.429  39.378   2.752
13962W        W73498  32.517  19.077  14.886
13963W        W73499  24.028   0.951   5.211
13964W        W73500  41.985  25.170  13.840
13965W        W73501  32.020  42.460  12.340
13966W        W73502  28.948  38.436   1.762
13967W        W73503  33.084   4.272   0.764
13968W        W73504  28.617  34.492   1.314
13969W        W73505  18.249   1.880   1.700
13970W        W73506  29.918   0.860   1.324
13971W        W73507  39.519  40.904   3.695
13972W        W73508  12.799   3.875  12.425
13973W        W73509  14.590  13.117   2.820
13974W        W73510   4.727  21.205  13.881
13975W        W73511  24.663  31.079   2.663
13976W        W73512  19.717  23.700  14.283
13977W        W73513   4.884  41.827   2.319
13978W        W73514  19.663   8.202   1.881
13979W        W73515  17.684  11.829  11.113
13980W        W73516  36.886  27.667  13.404
13981W        W73517  11.781  14.828  13.844
13982W        W73518  19.176  25.614  14.832
13983W        W73519  37.977  30.480   5.084
13984W        W73520  37.535  34.591   0.422
13985W        W73521  43.984   3.941   4.684
13986W        W73522  25.164  22.229   0.926
13987W        W73523  32.529  37.420  14.408
13988W        W73524  24.082  29.003   5.205
13989W        W73525  29.515   5.195  12.074
13990W        W73526   3.877  37.515   4.148
13991W        W73527  30.133  17.745   2.730
13992W        W73528   4.412  26.098   2.865
13993W        W73529   4.261  27.075  14.314
13994W        W73530  30.067  34.917   2.696
13995W        W73531  22.649  34.061   0.452
13996W        W73532  32.891  16.664   3.830
13997W        W73533   3.332   5.374   4.168
13998W        W73534  39.534  39.021  11.458
13999W        W73535  21.105  41.003  11.037
14000W        W73536  11.820  35.858  12.912
14001W        W73537  15.186   5.796   0.325
14002W        W73538  39.831  23.048  11.031
14003W        W73539  41.391  37.957   3.253
14004W        W73540  26.082  10.163   1.397
14005W        W73541  21.688  13.711   4.642
14006W        W73542  36.467  44.872   2.237
14007W        W73543  38.993   4.806   1.873
14008W        W73544   0.808  24.682  12.358
14009W        W73545  10.360   4.299  14.803
14010W        W73546  39.467  31.479  11.051
14011W        W73547  19.766  14.307  11.060
14012W        W73548  42.490  37.492   0.908
14013W        W73549   0.967  19.608  13.322
14014W        W73550  39.518  40.489   0.839
14015W        W73551  10.770   5.903   9.476
14016W        W73552  11.364   9.347  13.987
14017W        W73553   0.745  40.918  10.509
14018W        W73554  31.573  23.693  14.458
14019W        W73555  29.044  19.580  10.064
14020W        W73556   6.879  25.662   1.764
14021W        W73557  18.070  18.056  14.347
14022W        W73558  24.061  44.860   1.861
14023W        W73559  23.583  28.611   4.725
14024W        W73560   6.847  44.905  10.511
14025W        W73561  32.599   4.321   2.398
14026W        W73562  24.593  21.671   1.387
14027W        W73563  21.263  11.286  13.513
14028W        W73564  19.245  38.958  12.961
14029W        W73565   0.863  14.727  14.844
14030W        W73566  36.086  20.646   2.183
14031W        W73567  17.090  38.507   1.213
14032W        W73568  25.602  15.590   9.973
14033W        W73569  28.971  40.866  13.448
14034W        W73570   0.458  43.474   0.869
14035W        W73571   1.299  35.521  14.002
14036W        W73572  26.542   4.370   5.783
14037W        W73573   0.856  42.791  12.457
14038W        W73574  22.038  44.836  14.478
14039W        W73575   4.425  30.417  10.499
14040W        W73576  17.662  13.175   3.164
14041W        W73577  18.217   1.808   4.641
14042W        W73578  12.178  15.636   1.739
14043W        W73579  43.385  25.030  12.575
14044W        W73580  19.656   2.244  14.991
14045W        W73581  11.750  21.133  13.527
14046W        W73582  18.182  11.268   3.185
14047W        W73583  37.031   3.755   1.258
14048W        W73584   7.205   9.152  12.984
14049W        W73585  37.879  35.097  12.452
14050W        W73586  43.808  11.310  13.815
14051W        W73587  11.855  34.391  11.556
14052W        W73588  28.443  28.608   2.861
14053W        W73589   3.784  37.051  11.471
14054W        W73590  18.747  14.814   4.696
14055W        W73591  39.879  25.965  12.474
14056W        W73592  26.161  16.198   1.292
14057W        W73593  32.428  16.204  12.914
14058W        W73594   8.786  43.929   3.220
14059W        W73595  21.733  19.077   4.327
14060W        W73596   5.231  44.312   1.445
14061W        W73597   3.823  37.898  11.088
14062W        W73598  40.947   1.284   4.308
14063W        W73599  30.016   2.763  10.583
14064W        W73600  17.654  43.404  10.515
14065W        W73601  19.171  13.715  12.913
14066W        W73602   8.736  17.615   0.324
14067W        W73603  24.592  16.223   1.890
14068W        W73604  24.036  23.222   2.312
14069W        W73605  34.114  21.614  14.283
14070W        W73606  40.940  39.481   4.303
14071W        W73607  43.912  30.979   1.325
14072W        W73608  33.096   9.158  12.378
14073W        W73609   1.870  11.862  12.467
14074W        W73610   1.909  29.448  10.966
14075W        W73611   3.744  19.116  11.558
14076W        W73612  25.988  25.620  13.024
14077W        W73613  32.560  13.761   0.754
14078W        W73614  19.278   8.210   0.855
14079W        W73615   9.220  15.654   4.703
14080W        W73616  34.473   9.877  13.972
14081W        W73617  20.170  13.291  14.877
14082W        W73618  26.545  16.628   2.370
14083W        W73619  31.993  34.998   1.777
14084W        W73620  32.561  26.091   4.114
14085W        W73621  29.146  19.055  13.854
14086W        W73622   3.942  19.603  14.284
14087W        W73623  11.763  31.599   0.788
14088W        W73624  38.488  16.171   1.927
14089W        W73625  21.152  34.455  14.497
14090W        W73626  23.056  41.441   2.244
14091W        W73627  21.244   7.704  15.000
14092W        W73628  31.610  38.038   2.333
14093W        W73629  11.793  27.622   3.682
14094W        W73630   3.757  11.635   3.216
14095W        W73631  22.621  28.082  14.836
14096W        W73632  24.689  44.828  12.857
14097W        W73633  17.164  13.736   0.798
14098W        W73634  32.543  40.455  13.042
14099W        W73635   9.289  42.853  10.524
14100W        W73636  15.806   9.201   3.866
14101W        W73637  44.487  23.526   4.789
14102W        W73638   6.340   4.705  11.048
14103W        W73639   4.400   0.758   2.780
14104W        W73640  19.543  30.932   0.926
14105W        W73641  13.232  35.433  11.592
14106W        W73642  22.559  12.828  13.503
14107W        W73643  18.631  11.204  11.872
14108W        W73644  18.557  13.673  13.939
14109W        W73645  11.234   3.376   3.249
14110W        W73646  34.387  20.169  12.436
14111W        W73647  38.369   7.191   4.259
14112W        W73648  29.620  30.534   4.353
14113W        W73649  15.092  33.513  13.502
14114W        W73650  32.133  33.586  11.867
14115W        W73651  39.966  32.545   3.641
14116W        W73652   4.784  23.195  12.915
14117W        W73653  10.257  18.118  14.359
14118W        W73654  10.139  37.423   4.629
14119W        W73655  15.135  12.805  10.518
14120W        W73656  42.446  37.552  12.345
14121W        W73657  42.322  15.191  10.563
14122W        W73658  20.569  17.739   0.452
14123W        W73659   6.311  36.359   1.353
14124W        W73660  31.000  27.555  14.441
14125W        W73661  24.586  18.268  13.822
14126W        W73662  10.852  25.550  11.505
14127W        W73663  38.442  27.192   0.749
14128W        W73664  17.651   5.697  10.644
14129W        W73665  38.899  28.115   2.673
14130W        W73666  11.294  26.608  14.344
14131W        W73667   5.884  23.063  14.484
14132W        W73668  26.499  11.844   3.828
14133W        W73669  27.089  27.619  13.455
14134W        W73670  17.246  19.624  14.334
14135W        W73671  29.630  15.706   2.739
14136W        W73672   0.390  28.162  11.019
14137W        W73673  23.542  44.978  13.813
14138W        W73674  28.493  25.585   0.444
14139W        W73675  38.446  37.000   3.342
14140W        W73676  35.590  26.467   0.806
14141W        W73677  33.996   2.847   9.661
14142W        W73678  38.009  32.071   2.181
14143W        W73679  20.240  31.896  13.345
14144W        W73680  23.228  27.146   3.655
14145W        W73681  23.563   3.831  10.143
14146W        W73682  16.232  26.062  13.847
14147W        W73683  41.902  14.697  11.451
14148W        W73684  42.367   9.298   3.196
14149W        W73685  33.582   0.382  13.798
14150W        W73686   8.775   3.850   3.692
14151W        W73687  25.609  34.913  12.507
14152W        W73688  34.927  34.092  14.295
14153W        W73689  16.317  17.166  12.840
14154W        W73690  30.013  26.583  14.998
14155W        W73691   9.775   0.863  11.593
14156W        W73692   7.223  40.343   1.326
14157W        W73693  17.192  36.941  11.028
14158W        W73694   9.704  23.226   5.793
14159W        W73695   9.220   2.319   1.385
14160W        W73696   9.854   5.706   0.453
14161W        W73697  34.505  26.515  11.071
14162W        W73698  37.874  37.885   2.370
14163W        W73699  17.218  39.911   2.885
14164W        W73700  40.475   5.350   2.716
14165W        W73701  40.890  10.790  14.441
14166W        W73702   8.387  28.445   2.717
14167W        W73703  29.445  43.375  13.391
14168W        W73704   8.331  34.873   1.790
14169W        W73705   1.374  16.598  14.010
14170W        W73706  24.554   0.947   1.709
14171W        W73707  43.346  34.929  13.433
14172W        W73708  26.096  14.718  10.934
14173W        W73709  39.346  16.582  11.882
14174W        W73710  13.230  15.678   0.368
14175W        W73711  36.851  24.680   1.832
14176W        W73712   1.334  43.906   4.325
14177W        W73713  31.037  10.160  10.612
14178W        W73714  39.398  41.907   4.769
14179W        W73715   8.784  42.841   1.405
14180W        W73716   5.720  37.892   3.680
14181W        W73717   2.781  10.808   2.820
14182W        W73718  31.516   0.399  10.968
14183W        W73719  23.594  10.275  12.427
14184W        W73720  31.497   1.747  14.817
14185W        W73721  39.053  21.566  13.029
14186W        W73722  32.986  32.532  14.869
14187W        W73723  33.564  13.196  10.631
14188W        W73724  41.370  12.733  10.636
14189W        W73725  43.287  27.126  10.601
14190W        W73726  16.204  37.464  14.986
14191W        W73727   7.222  38.974  13.849
14192W        W73728  11.765  33.441   1.366
14193W        W73729  26.523  12.615  11.028
14194W        W73730  39.941  43.357  13.032
14195W        W73731  20.081  22.026  12.056
14196W        W73732  22.702  27.140  14.981
14197W        W73733  17.748  35.582  12.350
14198W        W73734  42.789  42.441   2.842
14199W        W73735  36.550   6.329   5.081
14200W        W73736   2.249  17.772   3.303
14201W        W73737  35.502  42.942  10.946
14202W        W73738  25.091   0.781  12.981
14203W        W73739  41.013  22.996  12.939
14204W        W73740  42.810  37.050  11.083
14205W        W73741  26.513   5.844  10.567
14206W        W73742  17.170  23.192   2.754
14207W        W73743  40.423   8.713  12.551
14208W        W73744  33.586  18.174  14.478
14209W        W73745  28.155  25.191   2.417
14210W        W73746  38.036  19.199   2.810
14211W        W73747  13.819  36.499   4.189
14212W        W73748   7.201  17.296   3.262
14213W        W73749  24.712  18.076  14.399
14214W        W73750  24.541  39.468   9.575
14215W        W73751   6.913   3.800   3.322
14216W        W73752  14.617  38.336  14.794
14217W        W73753  17.178  11.823   1.403
14218W        W73754  32.462  26.611  13.821
14219W        W73755  39.970  14.309  11.497
14220W        W73756  33.941   6.215  14.845
14221W        W73757  20.217  19.155  10.889
14222W        W73758  18.272  33.607  14.024
14223W        W73759   0.892   6.258   1.826
14224W        W73760  31.100   5.797  12.355
14225W        W73761  29.445  21.098  10.481
14226W        W73762  32.627  12.190  13.014
14227W        W73763  31.577  38.945   2.240
14228W        W73764  11.662  23.569  13.337
14229W        W73765   1.962  35.436  10.907
14230W        W73766  14.656  43.392  11.496
14231W        W73767  27.961   9.311   3.830
14232W        W73768  32.419  37.879   2.794
14233W        W73769  11.266  19.104  10.611
14234W        W73770  16.634  39.443   0.814
14235W        W73771  22.072  42.935  14.328
14236W        W73772  12.815  15.708  11.471
14237W        W73773  28.104   0.452  11.110
14238W        W73774  40.994   7.881  11.514
14239W        W73775  26.077   0.852   3.793
14240W        W73776  26.647  33.984  12.887
14241W        W73777  40.404  29.483   2.775
14242W        W73778  20.585  32.927  10.986
14243W        W73779  22.081  15.125   0.964
14244W        W73780  41.421   1.787  11.102
14245W        W73781  27.446   3.835   4.650
14246W        W73782  37.037  43.307  14.932
14247W        W73783  21.697  31.474  10.505
14248W        W73784  39.879   8.757   3.259
14249W        W73785  38.036  36.503  13.849
14250W        W73786   0.379   2.954   1.701
14251W        W73787  10.845  23.523   1.727
14252W        W73788  23.695   1.961   3.179
14253W        W73789  31.961   2.283  10.926
14254W        W73790  15.580  19.247   4.348
14255W        W73791   8.710  39.060  11.533
14256W        W73792  21.092  42.446  11.471
14257W        W73793   6.261  30.647   0.389
14258W        W73794  28.525   4.883   1.397
14259W        W73795  26.101  14.816  14.313
14260W        W73796  32.483  23.507  11.088
14261W        W73797  36.028   1.760   2.662
14262W        W73798  26.612  33.059   2.681
14263W        W73799  36.470   2.444   0.467
14264W        W73800  22.184   5.342   1.790
14265W        W73801  35.363  44.334   0.928
14266W        W73802  25.169  38.038  10.907
14267W        W73803  19.645   4.915  10.590
14268W        W73804   4.233  40.025   4.736
14269W        W73805   8.392  11.339  11.008
14270W        W73806  20.604  12.298  12.455
14271W        W73807  26.071  36.527  11.095
14272W        W73808  33.882  33.481  13.893
14273W        W73809  19.636  24.720   1.226
14274W        W73810  14.694  15.128  13.531
14275W        W73811  19.671  26.150  14.942
14276W        W73812  26.474  39.328   3.359
14277W        W73813  18.670   1.353   3.824
14278W        W73814  15.795   3.459   0.259
14279W        W73815   3.916   2.313  11.431
14280W        W73816  29.598   5.903   4.734
14281W        W73817  28.023  39.017  10.023
14282W        W73818   3.941  39.413   3.151
14283W        W73819  29.603   3.232   3.644
14284W        W73820   6.311   8.364  14.015
14285W        W73821  44.790  42.316   1.714
14286W        W73822  13.269   6.373  10.983
14287W        W73823  41.398   0.766  13.817
14288W        W73824  14.786  12.341  10.546
14289W        W73825  20.576   4.388   3.261
14290W        W73826  37.405  21.234  14.862
14291W        W73827  41.937   1.260  14.304
14292W        W73828  34.588   8.303   2.666
14293W        W73829  21.617   4.925  11.473
14294W        W73830  17.111  34.589   4.130
14295W        W73831  20.556  21.526   0.892
14296W        W73832  32.142  42.355  14.501
14297W        W73833  22.153  12.205   2.726
14298W        W73834  38.038  10.354  10.001
14299W        W73835  44.953  29.599   3.778
14300W        W73836  41.372  26.179   0.273
14301W        W73837   3.260  14.723   0.924
14302W        W73838  24.518  10.221  12.935
14303W        W73839  35.424   6.376   0.427
14304W        W73840   7.193  25.077   0.382
14305W        W73841  40.447   7.754  11.414
14306W        W73842  41.409   0.328  10.912
14307W        W73843  43.919  27.177  12.950
14308W        W73844   2.823  36.845   1.782
14309W        W73845  16.697  27.471   3.870
14310W        W73846  27.998   9.322  10.626
14311W        W73847  28.661   5.325  11.049
14312W        W73848   0.894  28.183  11.057
14313W        W73849  36.414  35.959   0.377
14314W        W73850   8.721  34.477  12.408
14315W        W73851  38.531  33.950  10.452
14316W        W73852  30.599   7.293  12.464
14317W        W73853  20.273  22.602  12.013
14318W        W73854  42.508  37.565   4.255
14319W        W73855   4.898  38.443   0.250
14320W        W73856   4.900  17.575  14.897
14321W        W73857  25.060  21.169   5.137
14322W        W73858   0.469   7.225   0.915
14323W        W73859  23.182   6.904   4.744
14324W        W73860  21.259  27.950   4.334
14325W        W73861  36.470  27.992   1.319
14326W        W73862  38.885  24.594   4.195
14327W        W73863  36.879  10.712  12.580
14328W        W73864  43.503   1.842   5.087
14329W        W73865  34.062  18.130  14.305
14330W        W73866  37.518  33.899  11.391
14331W        W73867   0.840   6.220  13.542
14332W        W73868  34.593  24.141   1.333
14333W        W73869  18.097   3.393   2.736
14334W        W73870  35.437   3.746  11.444
14335W        W73871  19.702  40.375   0.383
14336W        W73872   5.734  27.152   0.827
14337W        W73873  21.547  17.754   5.757
14338W        W73874  21.522  42.009   4.647
14339W        W73875  30.114  22.144  14.790
14340W        W73876  16.566  43.317   1.851
14341W        W73877  33.969  20.759   1.903
14342W        W73878  22.009  14.811   4.348
14343W        W73879  44.444   9.157   4.691
14344W        W73880  18.613  36.352   4.322
14345W        W73881   4.304  15.753   2.857
14346W        W73882   3.328  31.114  14.284
14347W        W73883   8.665  24.702   0.439
14348W        W73884  19.218  25.127  11.030
14349W        W73885  37.002   3.881  11.573
14350W        W73886  42.448   7.316  10.454
14351W        W73887   6.852  31.129   2.849
14352W        W73888  17.306   9.677   2.719
14353W        W73889  19.229  41.023  11.006
14354W        W73890   9.300  39.432   4.679
14355W        W73891  38.035  13.799   2.736
14356W        W73892   0.885  18.738   2.711
14357W        W73893   3.255   6.883   2.284
14358W        W73894  22.604  18.206   4.278
14359W        W73895  30.495   5.862   3.857
14360W        W73896  17.067  23.207  12.897
14361W        W73897  11.278  13.771   1.276
14362W        W73898  11.348  15.653   3.753
14363W        W73899  25.607  44.355  13.535
14364W        W73900  26.962   8.178  13.361
14365W        W73901   0.409  12.839  10.061
14366W        W73902  29.505   4.233   0.297
14367W        W73903   5.333  29.670   2.764
14368W        W73904  21.612   2.807  12.486
14369W        W73905  34.010  16.771  14.346
14370W        W73906  17.760   0.359   2.793
14371W        W73907  23.534  26.156  10.463
14372W        W73908  10.767  30.938  12.487
14373W        W73909  21.167  15.261   3.631
14374W        W73910   2.250  25.588   1.831
14375W        W73911  33.033  29.045   4.706
14376W        W73912  13.202  13.663   0.251
14377W        W73913  37.031  31.954   0.434
14378W        W73914  26.504  11.835   0.766
14379W        W73915   7.740   0.887  13.840
14380W        W73916   5.896  26.075   3.737
14381W        W73917  21.571  33.935   4.226
14382W        W73918  38.867  12.675   4.296
14383W        W73919  12.717  18.579  10.540
14384W        W73920   3.956  20.749   1.341
14385W        W73921  26.670  37.545   0.770
14386W        W73922  34.116  19.252  12.824
14387W        W73923  26.619  20.071   0.364
14388W        W73924   6.923  25.630   2.733
14389W        W73925  34.903  29.601  13.349
14390W        W73926  37.430  29.549   0.825
14391W        W73927  36.005  38.335  13.998
14392W        W73928  19.224   5.899   3.327
14393W        W73929  25.207  16.166   4.342
14394W        W73930  30.104  10.383   1.409
14395W        W73931   4.915  19.203  10.063
14396W        W73932  40.317  14.707   0.871
14397W        W73933  40.911   5.212   4.202
14398W        W73934  24.017  26.562  11.395
14399W        W73935  24.623  27.160   3.703
14400W        W73936   3.335  42.304  14.011
14401W        W73937  25.634  42.347   2.819
14402W        W73938  37.059   0.933   2.318
14403W        W73939  25.019   9.244   1.341
14404W        W73940  14.101   9.258   2.721
14405W        W73941  23.002  12.245  12.524
14406W        W73942  31.622  42.287   3.206
14407W        W73943   3.216  27.539  14.403
14408W        W73944  31.067   2.344   2.663
14409W        W73945  10.235  33.919  14.004
14410W        W73946  15.663  38.485  11.985
14411W        W73947  31.992  26.673  13.019
14412W        W73948   8.348  13.625  11.915
14413W        W73949   6.359  38.403  12.488
14414W        W73950   5.216   6.294  10.077
14415W        W73951   1.933  21.136   2.241
14416W        W73952  16.130  24.067   4.251
14417W        W73953   8.843  38.533  13.010
14418W        W73954  26.996  20.641  12.870
14419W        W73955   0.439  32.089  10.895
14420W        W73956  18.589  17.297   1.812
14421W        W73957  21.046   3.796   5.272
14422W        W73958   7.756  36.897  11.056
14423W        W73959  43.362  27.010   4.674
14424W        W73960   6.710  42.523   3.792
14425W        W73961  40.035  27.970   3.862
14426W        W73962  40.306  34.950  12.015
14427W        W73963   4.391   6.370  14.818
14428W        W73964  12.638   5.350  14.418
14429W        W73965   9.376  36.890   2.201
14430W        W73966  15.314  40.525  14.922
14431W        W73967   5.812  21.112  11.418
14432W        W73968  14.334  43.965   1.425
14433W        W73969  20.224  36.873   3.161
14434W        W73970  11.665  29.624   2.901
14435W        W73971  12.164   5.818  10.460
14436W        W73972  27.014  30.637   1.859
14437W        W73973  29.081   1.798  10.439
14438W        W73974  31.943  43.864   4.170
14439W        W73975  16.185  22.725   0.733
14440W        W73976  20.169  11.289   3.230
14441W        W73977  41.415  43.827  13.485
14442W        W73978  41.366   0.908  10.635
14443W        W73979   0.846   0.267  11.571
14444W        W73980  26.012  14.800  12.963
14445W        W73981   3.883   0.980   3.237
14446W        W73982  40.468  44.454  12.538
14447W        W73983  42.516  27.568  13.529
14448W        W73984  16.730  13.762   1.766
14449W        W73985  20.574   1.925   3.230
14450W        W73986  16.240   3.334   4.143
14451W        W73987  22.528  30.626  13.442
14452W        W73988  18.187   7.845  11.543
14453W        W73989  28.090  10.165  10.562
14454W        W73990   6.833  19.589  11.524
14455W        W73991  29.053  39.316  10.503
14456W        W73992   5.238  34.451  10.627
14457W        W73993  32.602   8.196   0.829
14458W        W73994  44.430  37.030   2.703
14459W        W73995  25.696  33.409  13.501
14460W        W73996  13.171  26.675  14.435
14461W        W73997  18.636  11.789  14.007
14462W        W73998  31.633   0.286  12.996
14463W        W73999  31.490  34.972   2.834
14464W        W74000  10.807  33.450  13.022
14465W        W74001  25.474  28.464   2.321
14466W        W74002  32.024  34.611   1.913
14467W        W74003   6.722  18.721  12.375
14468W        W74004  40.422  25.996  14.457
14469W        W74005  28.456  42.989   1.894
14470W        W74006  27.094  36.927  12.891
14471W        W74007   7.830  33.965  11.376
14472W        W74008   1.330   6.377  12.939
14473W        W74009  26.062  11.652  13.898
14474W        W74010  14.755  40.025  10.073
14475W        W74011  35.972  13.305   1.745
14476W        W74012  21.150  25.620  13.405
14477W        W74013  33.525  26.521  14.935
14478W        W74014   5.387  15.317   0.406
14479W        W74015  26.631  19.049   3.312
14480W        W74016  32.410  42.924   5.232
14481W        W74017  14.200  42.436   0.332
14482W        W74018  24.642  34.923   2.708
14483W        W74019   4.295  31.575  13.335
14484W        W74020  32.093  28.092  14.281
14485W        W74021  31.485   6.842   0.444
14486W        W74022  43.352  19.205  14.861
14487W        W74023  35.855   7.702  12.437
14488W        W74024  21.606  27.037  11.525
14489W        W74025  30.635  33.107   0.902
14490W        W74026  42.998  36.428  12.010
14491W        W74027  40.492   2.930   3.316
14492W        W74028  18.573   1.795   3.632
14493W        W74029  15.645  39.355   4.796
14494W        W74030  38.039  44.435   0.950
14495W        W74031  30.642  40.377   2.774
14496W        W74032  32.943  35.862  14.303
14497W        W74033  24.640  13.788  14.330
14498W        W74034   2.387  41.381   1.218
14499W        W74035  13.281  23.129  10.934
14500W        W74036   4.861  15.786  13.017
14501W        W74037  22.651  19.242   1.808
14502W        W74038   2.874  10.243   1.732
14503W        W74039   5.767   1.293  10.987
14504W        W74040  25.560  16.619   1.832
14505W        W74041  22.105  11.858   1.713
14506W        W74042  35.065  29.964  12.551
14507W        W74043   8.686  35.461  12.492
14508W        W74044  24.017  11.704   1.797
14509W        W74045   9.650  29.076   0.936
14510W        W74046  40.914  38.395   3.709
14511W        W74047   0.807   5.753  13.920
14512W        W74048  37.019  16.105   2.789
14513W        W74049  22.121  12.843  11.938
14514W        W74050  44.426   8.299   4.153
14515W        W74051   7.197  30.535   2.775
14516W        W74052   8.749  20.166   1.386
14517W        W74053  31.004  18.102   3.644
14518W        W74054  41.513  17.639   1.801
14519W        W74055  16.242  32.566  10.641
14520W        W74056  23.655  13.319   1.307
14521W        W74057  34.467  32.434  14.321
14522W        W74058  41.339  30.156  10.579
14523W        W74059   4.864   2.361   3.189
14524W        W74060  35.032   6.681  14.860
14525W        W74061  31.457  37.416   5.155
14526W        W74062  22.506  16.169  10.574
14527W        W74063  25.596  34.879  14.316
14528W        W74064  25.180   3.887   3.826
14529W        W74065   2.886  42.482  13.953
14530W        W74066   6.300   0.394   0.351
14531W        W74067  41.394   2.457   2.329
14532W        W74068  20.564   0.813   2.739
14533W        W74069  31.545  27.948  14.302
14534W        W74070  11.653  18.750   4.614
14535W        W74071   2.929   3.931  10.487
14536W        W74072  13.199   0.387   0.357
14537W        W74073  25.684  26.678  12.497
14538W        W74074  38.343  31.545  12.480
14539W        W74075  34.399  37.844  13.394
14540W        W74076  13.728  13.280  11.393
14541W        W74077  10.832  28.489  11.930
14542W        W74078  40.538  25.698   4.793
14543W        W74079   2.295  16.580   2.714
14544W        W74080  44.475  25.082  13.838
14545W        W74081  20.666  15.083  14.922
14546W        W74082  14.685  29.920   1.762
14547W        W74083   2.275  37.880  11.858
14548W        W74084  40.878   1.949  13.534
14549W        W74085  24.699  12.778   3.719
14550W        W74086  36.847  35.991   2.235
14551W        W74087  17.074  14.226   5.207
14552W        W74088   9.834   2.261  11.908
14553W        W74089  41.804  44.987  11.387
14554W        W74090  35.061  19.045   0.932
14555W        W74091  16.278   7.878   4.837
14556W        W74092  39.332   7.264  14.505
14557W        W74093  31.957   8.330  11.523
14558W        W74094  21.021  11.823  11.521
14559W        W74095   6.270  37.017   0.949
14560W        W74096  20.077   3.869   0.947
14561W        W74097  33.426  42.396  13.953
14562W        W74098   5.807   7.891   4.191
14563W        W74099  20.125  42.958   2.385
14564W        W74100  33.060  43.017   2.801
14565W        W74101  16.186   1.831   1.701
14566W        W74102   7.774  29.561   4.283
14567W        W74103  17.764   3.325  12.550
14568W        W74104  29.518  11.238   0.276
14569W        W74105  43.491  34.384  10.915
14570W        W74106   0.860   9.322   4.191
14571W        W74107   4.807   5.329   3.775
14572W        W74108  24.102  43.779   4.269
14573W        W74109   1.351  33.581  14.999
14574W        W74110   1.263  42.485   0.440
14575W        W74111  43.991  34.513  12.374
14576W        W74112  42.410   7.182  12.948
14577W        W74113  18.127  13.764  12.501
14578W        W74114  34.370  37.403   2.802
14579W        W74115  12.704  33.538  14.333
14580W        W74116  15.140  29.126  13.991
14581W        W74117  33.382  25.098   1.855
14582W        W74118  27.014   8.687  13.438
14583W        W74119   3.331  23.042   3.740
14584W        W74120   9.206  24.643   2.296
14585W        W74121  31.987  17.771  12.038
14586W        W74122   9.285   7.743  14.819
14587W        W74123  34.091   9.298   0.313
14588W        W74124  21.668  23.575   4.626
14589W        W74125  44.880  30.163  10.939
14590W        W74126  21.573  32.932  11.903
14591W        W74127  24.172  20.219  10.906
14592W        W74128  44.322  27.632   3.279
14593W        W74129  18.108  27.458   4.315
14594W        W74130  41.015  17.125  14.822
14595W        W74131  12.670  42.963  10.142
14596W        W74132  36.495   0.877   2.683
14597W        W74133   2.931   9.772  10.607
14598W        W74134  16.078  29.933   3.749
14599W        W74135  19.273   6.787  13.994
14600W        W74136  39.045  14.123  12.556
14601W        W74137  30.613  13.817   3.844
14602W        W74138  39.428   1.856   2.356
14603W        W74139   3.906   8.762  11.488
14604W        W74140  18.263  29.583   4.256
14605W        W74141  40.827  22.231   1.302
14606W        W74142  26.498  40.884  14.297
14607W        W74143  13.719  25.555  12.824
14608W        W74144  10.378  37.963   4.622
14609W        W74145  38.961  37.405  13.332
14610W        W74146  29.969  15.813   4.240
14611W        W74147  40.388   5.236  14.429
14612W        W74148  31.053  15.278  10.977
14613W        W74149  23.997  41.428   5.172
14614W        W74150  14.315  11.797  12.004
14615W        W74151  29.665   0.979  14.324
14616W        W74152  41.882  44.465  13.326
14617W        W74153  32.059  15.184  13.316
14618W        W74154  35.947  26.482   3.629
14619W        W74155  43.992  23.677   0.831
14620W        W74156   2.777  30.562  13.367
14621W        W74157  29.140  20.524   2.791
14622W        W74158   1.449  38.520   1.807
14623W        W74159   4.369  12.121  13.866
14624W        W74160  26.609   7.744   1.820
14625W        W74161  42.820  28.143  10.520
14626W        W74162  29.464  36.912   0.864
14627W        W74163  19.731   4.209   0.280
14628W        W74164  24.996  42.412   4.719
14629W        W74165   6.811  32.973  11.468
14630W        W74166  43.451  36.985   4.761
14631W        W74167  21.754  27.652  13.886
14632W        W74168  24.208  15.327  14.945
14633W        W74169  30.146  39.906  11.387
14634W        W74170  31.403  17.082  11.066
14635W        W74171  27.118  18.775  13.446
14636W        W74172  13.824  39.043  13.793
14637W        W74173  37.512  42.968   0.952
14638W        W74174  30.422  31.916  11.898
14639W        W74175   6.222  29.566  14.390
14640W        W74176  25.650  42.439  11.430
14641W        W74177   8.285   4.918  11.047
14642W        W74178  32.027  37.030   1.933
14643W        W74179  13.208  27.995   4.274
14644W        W74180  16.202   1.738  11.392
14645W        W74181   5.295  44.008   2.873
14646W        W74182  44.867  33.048   1.894
14647W        W74183  13.334   3.222   2.903
14648W        W74184  19.768   6.211   3.340
14649W        W74185  35.944  42.984  13.831
14650W        W74186  12.691  23.072  13.354
14651W        W74187  12.644   9.799   1.222
14652W        W74188  15.116  21.141  13.834
14653W        W74189   9.316  38.570   2.671
14654W        W74190  28.583  14.251  13.799
14655W        W74191  14.200  23.158  10.992
14656W        W74192  37.931   3.419   5.636
14657W        W74193   6.694  19.538  10.423
14658W        W74194  20.722   7.885  11.451
14659W        W74195   8.178  28.033   2.220
14660W        W74196  13.619   4.437  14.374
14661W        W74197  13.655  29.459  11.961
14662W        W74198  26.041  10.793   2.393
14663W        W74199  33.558   0.854  13.826
14664W        W74200  30.604  42.454  10.468
14665W        W74201  24.637  17.137   5.759
14666W        W74202  36.387  39.947  11.004
14667W        W74203  35.075  29.540  12.996
14668W        W74204  29.578  38.529   4.322
14669W        W74205  15.633   3.791  13.333
14670W        W74206   7.299   1.237   0.372
14671W        W74207  30.455  43.438   4.116
14672W        W74208  29.575  11.275  13.983
14673W        W74209  25.970  36.013   2.705
14674W        W74210  36.438   7.770   4.287
14675W        W74211  32.887  24.635   2.800
14676W        W74212  36.422  18.661  10.945
14677W        W74213  10.657  27.976   3.300
14678W        W74214  22.554  27.447   2.316
14679W        W74215  31.599   5.750  14.349
14680W        W74216   2.772  33.026  14.875
14681W        W74217  13.211  33.069   3.187
14682W        W74218  37.474  22.008  10.088
14683W        W74219   6.916  42.832   3.190
14684W        W74220  24.722  27.581   0.864
14685W        W74221  21.587  45.000  14.800
14686W        W74222  40.540  17.091   0.824
14687W        W74223   2.849   0.981   3.760
14688W        W74224  17.657  15.652   2.877
14689W        W74225  34.390  43.955   0.330
14690W        W74226  19.596   3.764   2.385
14691W        W74227  31.636   2.414   3.714
14692W        W74228  17.139  28.671   1.844
14693W        W74229   2.284  34.385  11.012
14694W        W74230  15.752  18.658   3.374
14695W        W74231  39.887   2.288  11.437
14696W        W74232  22.726   9.806   0.431
14697W        W74233  36.000  37.352   0.741
14698W        W74234  24.019  19.730   4.787
14699W        W74235  34.439  22.136  12.447
14700W        W74236  27.966  26.600  10.512
14701W        W74237  36.573  17.764  13.819
14702W        W74238  15.796  33.012   3.756
14703W        W74239  27.545  22.145   2.818
14704W        W74240  15.766   8.771   2.312
14705W        W74241  29.001  14.636  13.041
14706W        W74242  26.584  35.572  11.464
14707W        W74243  23.127  14.097  11.436
14708W        W74244  36.916  34.077  12.547
14709W        W74245  16.272  27.608  14.316
14710W        W74246  35.976  28.141  13.356
14711W        W74247  34.577  37.073   4.787
14712W        W74248  27.622   3.376   2.740
14713W        W74249  35.483  35.593  10.502
14714W        W74250  31.006  33.922   2.739
14715W        W74251   6.743   4.295   4.829
14716W        W74252  12.149  18.762  12.537
14717W        W74253  33.991  35.529   0.745
14718W        W74254  30.111  18.262  13.368
14719W        W74255   0.964  19.719  11.449
14720W        W74256  35.408   5.807   4.615
14721W        W74257  22.140  31.919   0.250
14722W        W74258  44.873  29.123  14.513
14723W        W74259  14.671  29.119  11.582
14724W        W74260  18.223  34.939  11.604
14725W        W74261  14.323  18.208   1.853
14726W        W74262   5.857  23.727   1.793
14727W        W74263  30.454  13.664   1.826
14728W        W74264  40.444   7.244   1.262
14729W        W74265  13.176   9.761   1.411
14730W        W74266   5.252  17.093  14.459
14731W        W74267  32.475  25.995   3.649
14732W        W74268   5.314  39.905   3.310
14733W        W74269   8.395  20.238  10.589
14734W        W74270  16.174  34.390  14.837
14735W        W74271  31.143  27.503  11.862
14736W        W74272  31.475  10.807   3.690
14737W        W74273  14.614   9.224  13.404
14738W        W74274  14.321  10.640   0.383
14739W        W74275  38.832  18.573   0.726
14740W        W74276  28.003   0.368   3.163
14741W        W74277   5.911  11.732   3.349
14742W        W74278   1.852   2.458   4.784
14743W        W74279  21.200   8.789  12.992
14744W        W74280   1.412   6.338  10.939
14745W        W74281  26.182  20.677   1.426
14746W        W74282  36.356   2.325   3.327
14747W        W74283  32.126  14.702  13.050
14748W        W74284  39.408  42.844   3.383
14749W        W74285  36.962  27.095   3.843
14750W        W74286  40.832  18.603   0.751
14751W        W74287   1.401   1.792   2.383
14752W        W74288   5.299  12.661   1.925
14753W        W74289  14.723  29.609   1.790
14754W        W74290  35.358  26.047  10.034
14755W        W74291  23.181   4.445  12.433
14756W        W74292  40.842  14.189   3.328
14757W        W74293  44.773  30.523   5.208
14758W        W74294  27.987  38.526   0.934
14759W        W74295  22.561  34.441   9.669
14760W        W74296  23.183  42.403   3.226
14761W        W74297  19.280  15.323  14.982
14762W        W74298  25.569  34.890  11.555
14763W        W74299  18.773  21.192  13.545
14764W        W74300  24.723  22.568  11.944
14765W        W74301  19.770   0.433  14.991
14766W        W74302  36.485  19.674   2.676
14767W        W74303  42.033  40.934   1.758
14768W        W74304  17.173  43.400  11.036
14769W        W74305  37.423  29.962   4.781
14770W        W74306  14.301   7.805   5.289
14771W        W74307  21.526  16.272   0.923
14772W        W74308   5.835  17.611  14.476
14773W        W74309  20.213   3.435   1.867
14774W        W74310  31.456  33.102   2.743
14775W        W74311  35.950   8.859   4.243
14776W        W74312  21.567   5.363  11.444
14777W        W74313  35.586  39.871  12.048
14778W        W74314  22.187  37.421   2.268
14779W        W74315  22.693  33.994   5.612
14780W        W74316  20.258   3.945  11.444
14781W        W74317  36.035  26.078   1.421
14782W        W74318  39.331   4.232   0.790
14783W        W74319  20.640  35.857   1.240
14784W        W74320  41.502  30.014  12.532
14785W        W74321  18.273  27.136   1.899
14786W        W74322  20.596  12.792   4.303
14787W        W74323   9.706  44.819   0.772
14788W        W74324  32.558  27.614   2.741
14789W        W74325  13.117   2.354  13.314
14790W        W74326   7.734  25.002  12.449
14791W        W74327  11.280  18.155  12.998
14792W        W74328  32.889   0.297   4.761
14793W        W74329   8.840   5.933  13.792
14794W        W74330   3.398  11.353  12.998
14795W        W74331  32.539  32.552  14.350
14796W        W74332  12.635  32.062   0.853
14797W        W74333  20.587  29.613   4.274
14798W        W74334  33.565  38.957   3.778
14799W        W74335   0.957  35.027  12.386
14800W        W74336   8.744  25.004   5.159
14801W        W74337  29.034  24.202  13.464
14802W        W74338   7.761  22.166   2.799
14803W        W74339  38.430   5.262   4.203
14804W        W74340   0.263  44.261  12.551
14805W        W74341  11.195  14.829   4.638
14806W        W74342  39.831  31.612  10.502
14807W        W74343  39.018  13.153   4.740
14808W        W74344  39.063  26.207   0.809
14809W        W74345   6.358  14.276  13.897
14810W        W74346   9.821   2.944   3.687
14811W        W74347   6.224  44.480  10.408
14812W        W74348  31.521  37.070  13.044
14813W        W74349  27.648  29.509   2.865
14814W        W74350  24.000  14.738   3.756
14815W        W74351   9.200  34.598   0.748
14816W        W74352  22.084  41.533   2.419
14817W        W74353  29.042  11.840  14.300
14818W        W74354  34.058  16.720   2.182
14819W        W74355   3.362  21.124  13.855
14820W        W74356  34.975  10.730   0.889
14821W        W74357  31.940  28.655   4.814
14822W        W74358  21.718  40.449  13.823
14823W        W74359  10.142  13.234   0.919
14824W        W74360  20.050  16.702  14.019
14825W        W74361  32.572  10.665   1.307
14826W        W74362  12.303  17.291   2.411
14827W        W74363  13.621  19.060  10.442
14828W        W74364  29.941  24.579   0.855
14829W        W74365  15.259  28.597   1.340
14830W        W74366  11.865  43.868   0.754
14831W        W74367  28.445  16.072  12.364
14832W        W74368   5.737  38.071  13.353
14833W        W74369  36.583  37.507   0.337
14834W        W74370   6.743  37.078  13.308
14835W        W74371  37.872  10.244  12.844
14836W        W74372   9.287  14.677  14.496
14837W        W74373  27.656  22.638   0.265
14838W        W74374  42.849  34.592  10.576
14839W        W74375  30.941  39.425   0.872
14840W        W74376  24.661  44.760  13.941
14841W        W74377  37.399  25.704   5.199
14842W        W74378   9.657  28.158   3.758
14843W        W74379  35.027  18.698  13.377
14844W        W74380  24.587  42.476  12.507
14845W        W74381   4.370   8.198   2.305
14846W        W74382  23.090  30.541  11.447
14847W        W74383  20.637  10.182  13.534
14848W        W74384  42.992   9.265   0.451
14849W        W74385  23.111   2.459   0.312
14850W        W74386  22.039   7.695   1.751
14851W        W74387  11.331  30.582  11.091
14852W        W74388   3.800   4.935   2.820
14853W        W74389  40.874  33.997   4.208
14854W        W74390  23.514  35.981  13.040
14855W        W74391  30.472  16.080   1.776
14856W        W74392  40.011  26.545   5.121
14857W        W74393  34.490  34.899  14.337
14858W        W74394  36.507  42.514  14.336
14859W        W74395  17.130  27.662   1.268
14860W        W74396  18.724   8.221   3.733
14861W        W74397  39.892  21.634   3.250
14862W        W74398  38.950  37.386   0.291
14863W        W74399  16.274  10.695   0.732
14864W        W74400  13.788  38.019   4.160
14865W        W74401  44.271   0.488   4.188
14866W        W74402   7.211  37.978   4.136
14867W        W74403   3.308  33.095  12.892
14868W        W74404  15.701  17.219  14.410
14869W        W74405  12.276  23.677  12.360
14870W        W74406  13.217  29.941   2.365
14871W        W74407  30.990  29.523  10.048
14872W        W74408  18.272  43.279   0.286
14873W        W74409  35.375  20.708   1.705
14874W        W74410  43.504  17.252   2.878
14875W        W74411   0.395  30.060   1.341
14876W        W74412  30.009  26.060   0.747
14877W        W74413  36.050  11.750  11.947
14878W        W74414  15.249  22.665  13.902
14879W        W74415  39.921  30.986   4.181
14880W        W74416   2.759  30.165   2.695
14881W        W74417  29.648  36.962  12.969
14882W        W74418  22.610  36.393  14.824
14883W        W74419  25.569   2.344   4.352
14884W        W74420  28.977  36.438  12.047
14885W        W74421  17.279  22.575   4.168
14886W        W74422  37.884  40.821   4.152
14887W        W74423  41.833  11.277  14.963
14888W        W74424  19.711  25.065   0.382
14889W        W74425  35.471  41.432   1.389
14890W        W74426  24.550   8.383   1.916
14891W        W74427  11.312   2.334   1.251
14892W        W74428  44.369  33.494   3.756
14893W        W74429  43.949  43.895   3.640
14894W        W74430   8.399   7.862   2.384
14895W        W74431  12.302   4.313   0.380
14896W        W74432  41.882  25.024   1.932
14897W        W74433   9.294  34.024  13.941
14898W        W74434  21.069  38.496   1.912
14899W        W74435  38.858   7.803   4.804
14900W        W74436  19.667   5.835  14.990
14901W        W74437  42.887  43.950   0.960
14902W        W74438  25.614   0.390  14.985
14903W        W74439  18.168   1.479   2.739
14904W        W74440  42.394   7.305  14.965
14905W        W74441  14.148  42.449  13.032
14906W        W74442  36.842  24.011   2.394
14907W        W74443  14.824  11.252  13.021
14908W        W74444  42.012  21.151  10.079
14909W        W74445  12.773  18.691   0.307
14910W        W74446  16.812  16.653  13.444
14911W        W74447  23.715  34.994  10.070
14912W        W74448  28.487  17.797   1.864
14913W        W74449  17.128  41.977  14.414
14914W        W74450  20.568  16.775   0.834
14915W        W74451  24.993  22.544  12.071
14916W        W74452  36.461   8.736   3.288
14917W        W74453  17.750  31.141   2.838
14918W        W74454  11.167  18.580  14.347
14919W        W74455  39.903  39.542   4.183
14920W        W74456  16.741   0.812  12.828
14921W        W74457   9.334   9.389   1.721
14922W        W74458  23.642  31.487  13.419
14923W        W74459   2.389  29.503  12.046
14924W        W74460  18.155  18.607  11.488
14925W        W74461  24.193  30.083  13.379
14926W        W74462  44.851  21.076  11.912
14927W        W74463  26.986   6.244   3.853
14928W        W74464   2.286   3.849  13.330
14929W        W74465  29.929  11.321   4.271
14930W        W74466  10.704  36.010   3.642
14931W        W74467   9.182  25.036   2.881
14932W        W74468  22.045  27.660   4.655
14933W        W74469  10.301  43.865  12.354
14934W        W74470  13.349  40.446  14.393
14935W        W74471  41.828  10.835   4.157
14936W        W74472  16.170  28.638   0.892
14937W        W74473  31.606  40.418  14.940
14938W        W74474   5.268  17.675  11.506
14939W        W74475   8.825  36.518   3.742
14940W        W74476  27.954  41.926  12.003
14941W        W74477  35.468  12.826  14.027
14942W        W74478  17.115   6.199   3.726
14943W        W74479  13.736  43.277  12.092
14944W        W74480  26.027  26.039  14.968
14945W        W74481  10.700  13.304   4.785
14946W        W74482  41.370  43.397  12.397
14947W        W74483  24.135  24.163   0.897
14948W        W74484   5.695   8.396   0.894
14949W        W74485   4.279   7.722   4.659
14950W        W74486  10.171  21.745  11.572
14951W        W74487  37.422  11.312  13.338
14952W        W74488   5.817  36.928  14.878
14953W        W74489   9.823  30.923   0.260
14954W        W74490  36.005  19.093  14.885
14955W        W74491  31.435   3.303  11.011
14956W        W74492  39.844   8.310   0.370
14957W        W74493  26.653  21.116  12.514
14958W        W74494  18.188   3.787   1.757
14959W        W74495  10.679  22.739  10.907
14960W        W74496  25.987   5.201  11.579
14961W        W74497  22.141  18.608   0.756
14962W        W74498  39.842  20.271  14.442
14963W        W74499   8.840   0.333  11.906
14964W        W74500  20.752  15.136  12.899
14965W        W74501  12.632   6.365   9.653
14966W        W74502  10.209   4.840   1.264
14967W        W74503  15.600  11.175   9.925
14968W        W74504  12.347  20.129  13.401
14969W        W74505  27.066  22.200   0.267
14970W        W74506  38.933  23.136  11.091
14971W        W74507  17.067  35.545   4.614
14972W        W74508  27.446   7.850   3.663
14973W        W74509  14.137   6.397   3.376
14974W        W74510  28.950  16.734   4.667
14975W        W74511  21.162  27.452   1.452
14976W        W74512  42.955  23.490   0.908
14977W        W74513  14.143  11.784  12.366
14978W        W74514   4.764  16.787   0.301
14979W        W74515  25.553  30.473   3.343
14980W        W74516   6.754  30.589  11.968
14981W        W74517  29.532   3.236  13.406
14982W        W74518   2.764  27.532   4.659
14983W        W74519  16.090  19.221  12.881
14984W        W74520   7.248  41.815  11.122
14985W        W74521  20.188  16.671   3.734
14986W        W74522  29.668  35.987  13.991
14987W        W74523  27.664  44.431   2.412
14988W        W74524   2.952  12.163  11.042
14989W        W74525  27.015   5.695   3.646
14990W        W74526  20.756   4.228  12.010
14991W        W74527  25.522  41.040  14.957
14992W        W74528  37.444  42.360  13.442
14993W        W74529  17.227  12.342  12.893
14994W        W74530  15.239  25.529   4.290
14995W        W74531  14.214  20.733   0.770
14996W        W74532  31.896  40.477   1.710
14997W        W74533  16.222  36.842  10.639
14998W        W74534  28.637  36.580   3.655
14999W        W74535  26.089  24.486  12.034
15000W        W74536  40.038  31.430  11.007
15001W        W74537  27.945  10.799   1.823
15002W        W74538  29.138  38.075   1.872
15003W        W74539   9.763  33.087  10.428
15004W        W74540   0.873  13.297   2.409
15005W        W74541  24.978   5.201   9.606
15006W        W74542   0.788  33.389  12.388
15007W        W74543   1.435  42.280  13.507
15008W        W74544   9.881  42.027   1.288
15009W        W74545  33.598  25.137   0.265
15010W        W74546  11.840   9.773   0.748
15011W        W74547  18.614  27.571   0.434
15012W        W74548  36.009  22.599  11.129
15013W        W74549  34.097  14.113  14.278
15014W        W74550  41.483  25.046   2.714
15015W        W74551  16.150  17.168   4.136
15016W        W74552  15.255  11.664   0.870
15017W        W74553  18.070  35.951  12.548
15018W        W74554  22.096   5.876  12.413
15019W        W74555  12.263  32.040   3.221
15020W        W74556  32.930  20.248   4.631
15021W        W74557   8.806  25.140  11.507
15022W        W74558  27.129   7.841   3.674
15023W        W74559   6.802   0.379   3.373
15024W        W74560  44.846  44.500   0.469
15025W        W74561  30.656   6.839   0.786
15026W        W74562  43.391  14.102   0.947
15027W        W74563   6.683  27.972  14.785
15028W        W74564  23.218  40.384  10.940
15029W        W74565  16.754   3.256  13.997
15030W        W74566  16.643  42.888   3.219
15031W        W74567   5.401  19.645  11.939
15032W        W74568   4.427  32.503   2.337
15033W        W74569  40.866  12.769   4.825
15034W        W74570  19.677  20.667  14.919
15035W        W74571  25.695  21.131  14.513
15036W        W74572  36.375  42.314   3.712
15037W        W74573  33.117  38.381  12.457
15038W        W74574  12.833  23.540   2.720
15039W        W74575  12.750  36.008  14.495
15040W        W74576  12.698   2.882   1.710
15041W        W74577  32.950   0.305   1.845
15042W        W74578  13.116   0.397   1.236
15043W        W74579  25.184  28.065  13.536
15044W        W74580  42.868  35.043  13.541
15045W        W74581  27.574  22.718   3.269
15046W        W74582  10.870  32.538   1.889
15047W        W74583  21.258  10.262   1.316
15048W        W74584   8.257   0.305  11.104
15049W        W74585   4.905  29.154   2.726
15050W        W74586  31.932  32.908   0.297
15051W        W74587   1.289  35.024  14.935
15052W        W74588  34.466  18.127  12.579
15053W        W74589   0.825  29.525   3.676
15054W        W74590  19.125  42.017   0.264
15055W        W74591   0.811   6.760   2.360
15056W        W74592  15.745  30.032  12.528
15057W        W74593  38.454  32.953   2.870
15058W        W74594  24.061  11.810  12.461
15059W        W74595  38.833   5.708   4.602
15060W        W74596   9.200  43.986  10.574
15061W        W74597  23.735  37.336   2.216
15062W        W74598  10.194  14.702  10.472
15063W        W74599  43.427   8.866   4.765
15064W        W74600  20.634   4.217   2.813
15065W        W74601   3.362  14.105  14.836
15066W        W74602  15.601  23.505   4.776
15067W        W74603  37.970  29.603   3.148
15068W        W74604  32.886  16.287   2.356
15069W        W74605   3.924  38.551  14.005
15070W        W74606  35.562  32.089  11.114
15071W        W74607  39.419  18.086  10.434
15072W        W74608  34.067  24.133   3.797
15073W        W74609  42.379   6.222   1.717
15074W        W74610  30.040  13.320  14.494
15075W        W74611  42.310   0.297  13.911
15076W        W74612   0.392  42.807   1.339
15077W        W74613  35.396  40.937  10.933
15078W        W74614   6.300  19.089  13.309
15079W        W74615   3.740  34.509  11.456
15080W        W74616  36.869  23.049   0.904
15081W        W74617  42.480   0.768  12.025
15082W        W74618  41.987  29.170   4.802
15083W        W74619  31.004  38.019   2.358
15084W        W74620  10.158  33.917   1.340
15085W        W74621  31.407  31.582  14.453
15086W        W74622   8.665   6.882  10.024
15087W        W74623  17.688  15.691   0.827
15088W        W74624  38.987  17.281   1.310
15089W        W74625  36.901  12.680   1.354
15090W        W74626  38.554  43.471   2.899
15091W        W74627  31.985  19.569  11.425
15092W        W74628  18.593  26.180   2.678
15093W        W74629  19.043  30.987  13.063
15094W        W74630  24.976  27.121  13.877
15095W        W74631  32.617  42.936  12.520
15096W        W74632   0.304  14.315  10.527
15097W        W74633  35.927  37.864   1.389
15098W        W74634  37.470  32.093  10.892
15099W        W74635  24.675   3.824   4.705
15100W        W74636   9.158  41.520  10.995
15101W        W74637  33.055  10.202   2.383
15102W        W74638  33.415  15.103   0.803
15103W        W74639  44.980   7.255  13.461
15104W        W74640   7.183  40.963  12.356
15105W        W74641  44.767  22.646  12.055
15106W        W74642  29.059   0.866   3.725
15107W        W74643  34.427  39.476   0.909
15108W        W74644  25.045   9.717  10.640
15109W        W74645  42.326   8.298   3.151
15110W        W74646  35.546  35.388   1.387
15111W        W74647  17.118  37.917  12.840
15112W        W74648   8.353  26.483   2.870
15113W        W74649  21.602  24.102   3.296
15114W        W74650  14.716  18.245   4.327
15115W        W74651  18.711  23.108   4.743
15116W        W74652  24.118  12.359   1.907
15117W        W74653  35.970  15.238   2.793
15118W        W74654  43.954  15.256  12.358
15119W        W74655   5.726   1.360  10.464
15120W        W74656  35.387   8.287   1.286
15121W        W74657  38.509   8.822   1.811
15122W        W74658   3.778  12.328   0.840
15123W        W74659  37.053  35.869  12.344
15124W        W74660  23.687  13.292  11.907
15125W        W74661  27.127  26.569  11.046
15126W        W74662  44.293  40.998  14.291
15127W        W74663  18.738  23.611  10.414
15128W        W74664  28.572  44.946   3.306
15129W        W74665  39.921  24.053   1.433
15130W        W74666   2.750  13.255   4.670
15131W        W74667  34.612  21.710  14.929
15132W        W74668  20.089  35.547   1.398
15133W        W74669  24.607  13.116   2.243
15134W        W74670  44.008  43.933   3.198
15135W        W74671  26.017  41.964  14.880
15136W        W74672  44.287  27.053  14.399
15137W        W74673  11.857  13.345   3.186
15138W        W74674  40.488  31.633  11.606
15139W        W74675  15.173  39.556   1.259
15140W        W74676   1.968  30.973   0.952
15141W        W74677  17.751  39.008   0.833
15142W        W74678  42.375  21.710   4.339
15143W        W74679   8.342   0.339   1.776
15144W        W74680  28.151  41.004   4.785
15145W        W74681   4.293  41.398  12.999
15146W        W74682  39.834   6.241   2.780
15147W        W74683  38.516  38.405   1.892
15148W        W74684  13.172  15.811   1.716
15149W        W74685  41.476   2.857   3.292
15150W        W74686  22.129   3.785   2.794
15151W        W74687  13.738  39.366   4.683
15152W        W74688  36.967  35.059   0.936
15153W        W74689  11.301   8.746  14.851
15154W        W74690   9.273  43.016   3.768
15155W        W74691  44.864  29.471  13.526
15156W        W74692  29.156   7.738  10.475
15157W        W74693  38.918   5.918   3.662
15158W        W74694  16.162  37.476   4.150
15159W        W74695  22.238  24.054   4.247
15160W        W74696  31.512  39.844  10.907
15161W        W74697   3.944  37.913   0.361
15162W        W74698  44.001  21.681  10.509
15163W        W74699   3.728   3.929   0.850
15164W        W74700  15.622  25.711   2.222
15165W        W74701  37.058   5.330  11.541
15166W        W74702  18.633   4.825  10.114
15167W        W74703  17.581  38.348  10.449
15168W        W74704  37.399   9.792  11.545
15169W        W74705  11.247  36.014  11.860
15170W        W74706  18.099  43.966   0.415
15171W        W74707  14.191  23.688   2.338
15172W        W74708  28.127  29.138  11.588
15173W        W74709  33.386  39.394  11.934
15174W        W74710  25.596   5.805   0.821
15175W        W74711  22.996  40.426  14.506
15176W        W74712  36.942  29.653   2.197
15177W        W74713   0.441  30.923  12.356
15178W        W74714   6.203  43.362   4.810
15179W        W74715  30.657   0.923   4.646
15180W        W74716   4.765   8.252  11.993
15181W        W74717  30.560  42.480  11.982
15182W        W74718  24.591   9.830  14.976
15183W        W74719  26.551   3.445  12.860
15184W        W74720  10.250  27.954   0.892
15185W        W74721   5.920  34.603  13.923
15186W        W74722  25.216  15.696  14.481
15187W        W74723  35.033  17.241   4.825
15188W        W74724  31.069  35.567  12.011
15189W        W74725  16.291  11.243   1.770
15190W        W74726  34.009  36.849  13.466
15191W        W74727   4.367  18.107  14.345
15192W        W74728  41.379   5.298   0.786
15193W        W74729  32.612  28.183   3.163
15194W        W74730  18.724   6.724   1.433
15195W        W74731   7.353  10.167  12.492
15196W        W74732  39.543  38.415  13.344
15197W        W74733  23.570   6.886   4.741
15198W        W74734  40.845  11.259  12.003
15199W        W74735  39.428  13.795   3.634
15200W        W74736  44.789  15.696  14.912
15201W        W74737  36.504  12.783   1.326
15202W        W74738  32.633  35.070   0.859
15203W        W74739  38.895  21.066  10.565
15204W        W74740   9.196  26.636  14.347
15205W        W74741  15.091   6.389   0.400
15206W        W74742  32.077  25.157  12.875
15207W        W74743  31.585   0.920  12.390
15208W        W74744  25.105   2.804  13.922
15209W        W74745   8.727  22.565   2.682
15210W        W74746  22.549  15.692  14.859
15211W        W74747  10.150  28.146  14.004
15212W        W74748   6.762  16.135   1.768
15213W        W74749  35.037  38.421   0.750
15214W        W74750   6.419  31.138   1.829
15215W        W74751  22.582  16.696  12.920
15216W        W74752  43.770  39.866  12.370
15217W        W74753  35.485  42.423   4.252
15218W        W74754  35.998  15.089  14.796
15219W        W74755  32.925  30.655  12.579
15220W        W74756  32.448  24.523  10.098
15221W        W74757  13.752  28.655  11.503
15222W        W74758  33.881  25.987  12.896
15223W        W74759  27.025  44.876   2.686
15224W        W74760  13.689  13.775  11.944
15225W        W74761  42.443  40.859  13.006
15226W        W74762  35.515  39.865  14.925
15227W        W74763  43.342  41.000   0.431
15228W        W74764  35.515  13.764   2.288
15229W        W74765  21.101  14.111   2.197
15230W        W74766  11.821  34.565  14.980
15231W        W74767   0.469  14.254  12.875
15232W        W74768  33.504  20.244   2.277
15233W        W74769  19.117  12.216  10.978
15234W        W74770  18.657  27.163   4.621
15235W        W74771  34.518  33.958   4.697
15236W        W74772  14.619  33.055   3.698
15237W        W74773  13.271  21.227   4.806
15238W        W74774  36.876  16.743   0.819
15239W        W74775   3.242  27.457  11.554
15240W        W74776   9.732   3.227   0.477
15241W        W74777  21.592  20.239   5.179
15242W        W74778  12.682  34.894  12.026
15243W        W74779  35.869  13.213  10.637
15244W        W74780   8.764  16.790  13.793
15245W        W74781  25.511  13.753   0.273
15246W        W74782  25.165   3.737  13.865
15247W        W74783  19.200  32.932  14.473
15248W        W74784  16.671  11.191   3.248
15249W        W74785  19.544  28.553  14.978
15250W        W74786  17.613   9.337  14.001
15251W        W74787   9.646  16.159   0.279
15252W        W74788   8.229  21.685  10.459
15253W        W74789  16.670   5.922  14.014
15254W        W74790  13.146   4.231  12.892
15255W        W74791   4.432  37.969   3.783
15256W        W74792  25.043  20.725   1.864
15257W        W74793  36.368  36.352  13.839
15258W        W74794   4.277  28.059  13.547
15259W        W74795  38.888  17.565   3.697
15260W        W74796  37.061  35.043  11.425
15261W        W74797  24.031  29.941  14.866
15262W        W74798  12.748  16.122   4.650
15263W        W74799  40.819  39.849  10.581
15264W        W74800  10.246  26.585  12.932
15265W        W74801  31.112   3.373  11.558
15266W        W74802  21.194   5.277  14.930
15267W        W74803  14.141   0.437   3.310
15268W        W74804  11.674  32.044  14.470
15269W        W74805   1.477  13.794   0.938
15270W        W74806  25.497  11.738   1.800
15271W        W74807   4.317  41.847  12.565
15272W        W74808  29.534   6.757  12.891
15273W        W74809  10.745  23.510  13.859
15274W        W74810  33.512  32.420  11.496
15275W        W74811  29.149  23.207  10.513
15276W        W74812  12.638  34.570   0.816
15277W        W74813   2.821   7.367   2.790
15278W        W74814  18.189  18.287  13.441
15279W        W74815  37.432  22.240  12.010
15280W        W74816  20.257  14.211   0.955
15281W        W74817   6.226   7.854  12.018
15282W        W74818   1.399  27.077  14.836
15283W        W74819  31.998  16.237   4.617
15284W        W74820  19.087   7.252  12.356
15285W        W74821  10.220   8.737   1.766
15286W        W74822  17.632  38.055  14.293
15287W        W74823  43.414  35.092  12.071
15288W        W74824   6.911  31.636  11.493
15289W        W74825  44.973  39.862  10.556
15290W        W74826   3.941  18.630  10.894
15291W        W74827  15.279  20.111  10.004
15292W        W74828  17.765  22.735   2.682
15293W        W74829  11.856  12.296  12.551
15294W        W74830  36.569   9.818  14.990
15295W        W74831   7.184  41.940   0.808
15296W        W74832  22.119  42.874  12.460
15297W        W74833  27.161   6.417  12.565
15298W        W74834  18.641   4.248   4.617
15299W        W74835  36.870  33.045   2.355
15300W        W74836   4.403  15.587  14.390
15301W        W74837  24.626  39.987  13.924
15302W        W74838  13.803   3.878   1.783
15303W        W74839  30.436   9.836  10.628
15304W        W74840  34.423  19.094  11.881
15305W        W74841  40.978  12.210   1.779
15306W        W74842  34.960   7.247  10.131
15307W        W74843  43.772   9.652  10.135
15308W        W74844   3.736  44.474  11.517
15309W        W74845   2.366  27.690  13.530
15310W        W74846   3.908  20.065  11.051
15311W        W74847  22.129   2.799   1.395
15312W        W74848  16.117  35.546  11.078
15313W        W74849  11.699  13.629   1.725
15314W        W74850   4.277  34.047  11.551
15315W        W74851  39.968  33.124   0.880
15316W        W74852   9.235   7.341   2.738
15317W        W74853  20.552  25.695   4.114
15318W        W74854  28.638  25.630  14.300
15319W        W74855  23.054   5.778   5.791
15320W        W74856   6.325  31.496  14.310
15321W        W74857  39.493  38.839  13.498
15322W        W74858  35.565  13.140  13.512
15323W        W74859  15.654  21.091   5.192
15324W        W74860  20.117  28.660  11.458
15325W        W74861  28.022  14.305  11.499
15326W        W74862  24.645  16.582   1.753
15327W        W74863  24.155  42.978   3.718
15328W        W74864  38.070  28.096   1.917
15329W        W74865   9.327  10.634  13.322
15330W        W74866  10.246   1.368   4.154
15331W        W74867  41.434  35.426   0.332
15332W        W74868  40.864  33.097   2.305
15333W        W74869   9.238  29.581   3.755
15334W        W74870  24.055  28.166   1.734
15335W        W74871  27.628   9.824  13.047
15336W        W74872  42.415  26.108  12.029
15337W        W74873  26.594  12.214   0.808
15338W        W74874  34.478  37.923  13.002
15339W        W74875  26.531  39.524  12.517
15340W        W74876  25.218  19.151  12.462
15341W        W74877  36.981  23.203  11.524
15342W        W74878  17.718   3.897   1.232
15343W        W74879   9.864   8.381   2.825
15344W        W74880  38.984  43.922  10.946
15345W        W74881  32.421  23.582   4.654
15346W        W74882  12.226   2.234   1.743
15347W        W74883  15.711  42.370  14.977
15348W        W74884  34.882   5.832   9.953
15349W        W74885   9.814  28.075   0.261
15350W        W74886   2.428  28.146  11.503
15351W        W74887  13.190  21.532   3.768
15352W        W74888  44.900  13.324  14.514
15353W        W74889  41.031  42.930  14.920
15354W        W74890  39.512   5.201   3.146
15355W        W74891   7.243   7.820   3.664
15356W        W74892  34.375  15.255  11.464
15357W        W74893  30.082  16.614  11.508
15358W        W74894  20.632  26.589   2.209
15359W        W74895  16.123  24.693   2.354
15360W        W74896  37.047   2.867   2.689
15361W        W74897  36.089  23.040  12.427
15362W        W74898   7.316  27.497  14.327
15363W        W74899  12.752  21.169  14.461
15364W        W74900  38.470  16.752   0.843
15365W        W74901   7.395   4.357   3.192
15366W        W74902  18.780  17.627   1.784
15367W        W74903  33.588  12.675   1.282
15368W        W74904  27.453   3.334   3.665
15369W        W74905  15.144   9.846   0.803
15370W        W74906  41.430  31.518  12.524
15371W        W74907  38.373  23.725  14.851
15372W        W74908  30.114  36.079   0.286
15373W        W74909  25.980  19.123   9.639
15374W        W74910  22.066  31.606   0.418
15375W        W74911  24.974  39.936   2.390
15376W        W74912  11.191  22.562  13.953
15377W        W74913  43.805  33.499   2.415
15378W        W74914  24.544  40.954  10.431
15379W        W74915  38.928  11.224   3.310
15380W        W74916  14.156  43.354  14.880
15381W        W74917  42.295  22.653  14.445
15382W        W74918  41.535  35.880   2.854
15383W        W74919  34.078  37.443   2.293
15384W        W74920  23.579   9.218   1.418
15385W        W74921  26.012  15.721  13.390
15386W        W74922  38.863   5.223   0.857
15387W        W74923  31.554  31.140  13.798
15388W        W74924  15.618  30.046  14.969
15389W        W74925  37.558   0.263   4.116
15390W        W74926  27.947  11.298   0.761
15391W        W74927  15.154  36.031  14.795
15392W        W74928  42.820  38.483  14.444
15393W        W74929   7.680  12.174   4.774
15394W        W74930  35.973  38.509   2.260
15395W        W74931  44.844   5.295   0.765
15396W        W74932  21.079  29.542  14.344
15397W        W74933  23.127  17.735  14.891
15398W        W74934  33.510  33.435   2.328
15399W        W74935  10.361  41.001  13.895
15400W        W74936  14.783  37.078   0.934
15401W        W74937  30.918  38.981   1.784
15402W        W74938   3.451  14.169  14.278
15403W        W74939   9.680   6.762  11.940
15404W        W74940  11.155   8.663  14.399
15405W        W74941  41.358  38.385  14.429
15406W        W74942  32.617   1.740  11.105
15407W        W74943  33.967   7.268  13.481
15408W        W74944   3.750  14.635   1.866
15409W        W74945  40.856  42.821  10.966
15410W        W74946  23.498   6.677   1.858
15411W        W74947  31.913  11.834   1.701
15412W        W74948  25.106  16.116  13.447
15413W        W74949  24.138  21.598  11.976
15414W        W74950  32.906  11.721   1.315
15415W        W74951  28.453  11.815   4.626
15416W        W74952  30.987  19.612  13.842
15417W        W74953  36.001  18.717  14.485
15418W        W74954   8.662  17.776  12.850
15419W        W74955  42.487  12.849   1.335
15420W        W74956  21.542  39.892  14.439
15421W        W74957  26.584  14.233   1.893
15422W        W74958  21.615  44.495   3.357
15423W        W74959  37.540  24.992  13.834
15424W        W74960  19.769  28.105   0.753
15425W        W74961  38.934  23.561   3.289
15426W        W74962   5.763  44.495   4.323
15427W        W74963   4.396   4.926  12.470
15428W        W74964  19.760  35.554  11.422
15429W        W74965   3.376  38.026   1.239
15430W        W74966  12.245  22.609  12.037
15431W        W74967  28.468  29.943   4.189
15432W        W74968  28.042  39.461  10.425
15433W        W74969  37.865  34.583  13.930
15434W        W74970  29.503  11.648  12.841
15435W        W74971  24.541  34.076  13.852
15436W        W74972  21.245  21.688  10.520
15437W        W74973  16.116  26.990  11.088
15438W        W74974  27.605  30.495  12.929
15439W        W74975  40.537  34.490  12.878
15440W        W74976  13.284  20.246   1.324
15441W        W74977  10.374  28.055  14.876
15442W        W74978  36.003   3.461  13.535
15443W        W74979  44.494  10.847  13.933
15444W        W74980  20.125   4.445  14.988
15445W        W74981  33.921  22.597  11.452
15446W        W74982  21.725  12.688  10.443
15447W        W74983  15.220   2.761  10.455
15448W        W74984  31.128  19.718   3.291
15449W        W74985  21.080  21.540  13.535
15450W        W74986   8.672  15.148  12.881
15451W        W74987  41.319   1.790  10.635
15452W        W74988  15.122  26.682   1.407
15453W        W74989   4.874  17.126   5.230
15454W        W74990  31.089  29.054  10.978
15455W        W74991   7.713   1.325  13.542
15456W        W74992  39.037  17.626  13.883
15457W        W74993  24.539   2.802  14.951
15458W        W74994   4.442  12.824   1.780
15459W        W74995  29.640  42.817   3.270
15460W        W74996  39.430  13.771   4.220
15461W        W74997   0.929  29.468   0.882
15462W        W74998  41.900  39.359   0.467
15463W        W74999  29.157  30.924  12.575
15464W        W75000  30.048  22.233  12.954
15465W        W75001  12.150  12.611   3.155
15466W        W75002  25.218  24.225   3.175
15467W        W75003   9.275  13.258   3.186
15468W        W75004  16.679  40.485   1.221
15469W        W75005  42.830   8.677  12.876
15470W        W75006  23.016  41.502   2.769
15471W        W75007  32.414   6.809  10.921
15472W        W75008  21.221  37.565   1.336
15473W        W75009   2.405  35.916  13.312
15474W        W75010  28.162  44.896  11.991
15475W        W75011  15.317  38.425   2.268
15476W        W75012   3.947  41.323  10.621
15477W        W75013  15.103  22.670   4.616
15478W        W75014  38.542  12.840  10.514
15479W        W75015  34.556   7.887   2.900
15480W        W75016  24.678  16.162  10.571
15481W        W75017   3.738  34.969   2.305
15482W        W75018  35.561  21.089  13.919
15483W        W75019  16.673  10.359  14.369
15484W        W75020  17.713   1.443   0.933
15485W        W75021  38.540  13.185   3.238
15486W        W75022   0.837  27.562  10.986
15487W        W75023  14.227  10.196  11.502
15488W        W75024  12.656  24.541   2.376
15489W        W75025  37.388   7.893  13.917
15490W        W75026  35.926  23.113  12.868
15491W        W75027  23.513   5.783  12.436
15492W        W75028  39.851  43.365  14.422
15493W        W75029  22.658  24.677  10.497
15494W        W75030  25.577  10.767  11.524
15495W        W75031  42.960   3.215  11.954
15496W        W75032  36.994   1.263   1.229
15497W        W75033  42.964  18.219  12.568
15498W        W75034  34.571  18.189   4.750
15499W        W75035  17.628   5.928  13.443
15500W        W75036  35.878  28.651   2.371
15501W        W75037  43.439   5.722   2.805
15502W        W75038  21.153   6.770   4.126
15503W        W75039  36.010  27.563  12.433
15504W        W75040  29.468  35.501   0.332
15505W        W75041  37.392  34.934  14.297
15506W        W75042  33.511  41.472  10.150
15507W        W75043  20.528   2.232   0.260
15508W        W75044  17.646   7.204  11.478
15509W        W75045  30.440  15.793  14.348
15510W        W75046  34.604  33.101  13.402
15511W        W75047  34.079  44.269  12.994
15512W        W75048  31.008  38.883  12.879
15513W        W75049  23.632  10.665   0.796
15514W        W75050  25.580  20.168   2.718
15515W        W75051   5.903  43.414  11.041
15516W        W75052  30.088   9.710  13.456
15517W        W75053  38.072   6.207  13.506
15518W        W75054  27.080   4.819   5.261
15519W        W75055  25.585  20.123  12.936
15520W        W75056  41.994  24.104  12.901
15521W        W75057  36.856  17.724   0.865
15522W        W75058  25.041   5.222   2.781
15523W        W75059  28.495  14.703   0.883
15524W        W75060   0.871  21.026   9.947
15525W        W75061   4.921  22.590  13.895
15526W        W75062  22.717   0.759   3.753
15527W        W75063  32.067   6.190  11.579
15528W        W75064  27.120  15.799  10.142
15529W        W75065   4.385  17.790  13.522
15530W        W75066  14.590  30.959  11.918
15531W        W75067   0.443   8.220   1.230
15532W        W75068  34.936  38.355  11.516
15533W        W75069  13.332   0.364   2.885
15534W        W75070   5.890   6.736  12.949
15535W        W75071  33.987   5.376  12.092
15536W        W75072   6.680  26.068   4.150
15537W        W75073   9.858  24.020  11.433
15538W        W75074   2.752  27.133   3.638
15539W        W75075  25.540   3.776  14.359
15540W        W75076  16.740  31.431  13.046
15541W        W75077  29.479  19.710  10.125
15542W        W75078  25.579  28.158  12.866
15543W        W75079  35.959  26.084   4.114
15544W        W75080  37.576  41.843   1.802
15545W        W75081  35.512  36.940   3.679
15546W        W75082  41.937  24.148  11.006
15547W        W75083  41.387  11.278   2.329
15548W        W75084  13.770  31.026  13.017
15549W        W75085   4.260  16.703   1.418
15550W        W75086  29.593   7.414   3.647
15551W        W75087   2.841   5.888  14.440
15552W        W75088  42.330  24.165   0.853
15553W        W75089  14.211  12.140   2.691
15554W        W75090  38.839   8.822  11.514
15555W        W75091  17.170  23.055  13.985
15556W        W75092   9.285   2.898   1.376
15557W        W75093   8.247   7.193  12.048
15558W        W75094   3.271  14.830   1.331
15559W        W75095  25.182  39.432   3.316
15560W        W75096  23.640  41.910   3.375
15561W        W75097   5.722  10.830   3.383
15562W        W75098  44.286  22.217  13.470
15563W        W75099   7.294   9.742   4.120
15564W        W75100  12.789  26.584  12.351
15565W        W75101  11.803  29.921   4.837
15566W        W75102  33.514  18.763  14.312
15567W        W75103  20.564  38.866  10.455
15568W        W75104  34.968  34.441  14.801
15569W        W75105  44.275   4.783  11.383
15570W        W75106  14.717  36.350  14.458
15571W        W75107  29.022  26.003   1.371
15572W        W75108  22.723  13.792   1.442
15573W        W75109   9.255  12.245   1.395
15574W        W75110  13.151  40.497   2.186
15575W        W75111  28.967  24.095   0.243
15576W        W75112  37.003  26.633   1.389
15577W        W75113  23.993  36.933   3.328
15578W        W75114  36.903   3.877   2.190
15579W        W75115  38.895  42.290   2.860
15580W        W75116  34.458  16.648  13.492
15581W        W75117   7.855  12.675  14.844
15582W        W75118  30.090  35.567   2.222
15583W        W75119  29.164  35.430  14.342
15584W        W75120  10.369  15.316   4.248
15585W        W75121  11.170  31.530   4.312
15586W        W75122  23.128  13.722  10.406
15587W        W75123   7.360  38.442  11.026
15588W        W75124  29.485  28.640   1.350
15589W        W75125  16.275  27.977   0.755
15590W        W75126  24.005   7.211  12.061
15591W        W75127  22.607   6.235   2.314
15592W        W75128  19.561  17.735  14.946
15593W        W75129  17.771   2.372  14.427
15594W        W75130  28.071   4.745  13.946
15595W        W75131  39.459  31.937   0.406
15596W        W75132   7.786  10.686   2.870
15597W        W75133  21.130  23.545   4.644
15598W        W75134  23.131  28.173   0.314
15599W        W75135  11.714  26.083  13.967
15600W        W75136   3.872  19.635   0.368
15601W        W75137  15.290  38.517  10.547
15602W        W75138   2.876  38.501  11.919
15603W        W75139  11.859   1.420  13.892
15604W        W75140  11.640  30.445   1.404
15605W        W75141  43.339  13.687  11.999
15606W        W75142  10.857  19.206  14.412
15607W        W75143   8.848  11.132   0.279
15608W        W75144  42.862  26.016  14.871
15609W        W75145   8.293   0.391  11.581
15610W        W75146  41.004  25.152  12.008
15611W        W75147  25.705  37.947   1.844
15612W        W75148   3.235   1.888  13.352
15613W        W75149  27.591  22.094  13.820
15614W        W75150  12.737  43.474   2.211
15615W        W75151  19.056   4.898  13.977
15616W        W75152  37.900  21.743  13.807
15617W        W75153   0.829  33.530   2.369
15618W        W75154  14.775  36.352  10.416
15619W        W75155  33.610   3.418   3.208
15620W        W75156  13.191   0.346  11.546
15621W        W75157  16.228  35.041  12.480
15622W        W75158   4.791  24.483  12.339
15623W        W75159  13.606  11.255   3.719
15624W        W75160  30.918   7.845   1.418
15625W        W75161  10.797   3.225   3.331
15626W        W75162  39.396  12.351   1.421
15627W        W75163  10.222  23.104  10.897
15628W        W75164  38.864  21.659  10.915
15629W        W75165  41.384  14.333   9.516
15630W        W75166  43.942  10.837   4.603
15631W        W75167  23.566  13.701   4.685
15632W        W75168  41.372  33.041  12.524
15633W        W75169  24.673  15.170   1.875
15634W        W75170  20.237  11.333  11.031
15635W        W75171  20.531  27.097   3.268
15636W        W75172  20.681  39.327   3.181
15637W        W75173  27.508   0.758   2.372
15638W        W75174  20.711  11.282   2.722
15639W        W75175  13.792  44.440  10.997
15640W        W75176   3.263  13.290   5.310
15641W        W75177   2.410  14.727   0.270
15642W        W75178  39.905  40.913  11.552
15643W        W75179  20.693  27.148  12.421
15644W        W75180  39.315  37.063   4.199
15645W        W75181  37.884  28.082   0.296
15646W        W75182  40.511   5.840  13.416
15647W        W75183  34.522  40.968   2.664
15648W        W75184  20.548  39.845  10.535
15649W        W75185  24.600  24.690   0.339
15650W        W75186   3.327   2.779  13.887
15651W        W75187  22.539  25.667  10.957
15652W        W75188  39.380  44.482  12.545
15653W        W75189  21.699   2.454  14.834
15654W        W75190  31.575  24.583   5.282
15655W        W75191  14.623  30.553   1.901
15656W        W75192   1.394  23.510  12.960
15657W        W75193   2.332   2.296  11.891
15658W        W75194  17.742   2.373  12.931
15659W        W75195  28.463  43.966  14.348
15660W        W75196  30.517  38.036   1.416
15661W        W75197  23.088  28.967  14.895
15662W        W75198  18.609  13.302  10.917
15663W        W75199  29.141  14.626  14.777
15664W        W75200  43.344  26.991   3.154
15665W        W75201  15.144  12.644  11.410
15666W        W75202  14.212  17.684   0.403
15667W        W75203  17.668   6.308   0.456
15668W        W75204   3.432  37.021   1.840
15669W        W75205  12.238  11.166   4.165
15670W        W75206   4.841  21.692   2.283
15671W        W75207  17.069  35.077  12.469
15672W        W75208   1.473   1.467   4.306
15673W        W75209   6.356  25.127  12.430
15674W        W75210  22.146  38.505  10.982
15675W        W75211  41.516   5.390   2.740
15676W        W75212  39.505  21.180   3.802
15677W        W75213  16.153  30.127  12.391
15678W        W75214   7.387   8.752   1.356
15679W        W75215  33.442  18.188   0.275
15680W        W75216  23.011  20.752  11.594
15681W        W75217   9.724   5.732   1.845
15682W        W75218   9.802  37.570   2.686
15683W        W75219  20.748   6.279  11.857
15684W        W75220  14.618   7.176  12.473
15685W        W75221  44.455   0.402  12.372
15686W        W75222  32.627  20.205   0.861
15687W        W75223  27.120  22.170   3.722
15688W        W75224  15.734  26.556  10.476
15689W        W75225  12.120   5.251   2.284
15690W        W75226  35.572   8.388  14.932
15691W        W75227  18.667   1.238  14.442
15692W        W75228  29.032   4.760  11.372
15693W        W75229  12.806  35.088  13.373
15694W        W75230  19.713  16.673  11.382
15695W        W75231  43.991   9.241   3.219
15696W        W75232  26.139  22.174   9.559
15697W        W75233   3.789  11.331  13.534
15698W        W75234  27.140   3.300  12.013
15699W        W75235  39.319  23.023  12.538
15700W        W75236  40.053  35.409  13.962
15701W        W75237   7.389  22.124   4.698
15702W        W75238  31.600  21.606   2.295
15703W        W75239   3.379   3.320  11.058
15704W        W75240  35.525  14.767  14.844
15705W        W75241  19.578  10.201   0.757
15706W        W75242  21.610  38.964   0.839
15707W        W75243  10.670  22.068   0.309
15708W        W75244   0.374  25.546   3.348
15709W        W75245  12.634  21.097   3.663
15710W        W75246  18.748   7.181   5.230
15711W        W75247  40.879  29.626   3.809
15712W        W75248   9.665  37.487  11.098
15713W        W75249   1.972  36.085   4.815
15714W        W75250  28.598  28.502   4.128
15715W        W75251  14.601  42.824  13.343
15716W        W75252  21.188  38.504   0.343
15717W        W75253   9.868  44.497   0.369
15718W        W75254  34.036  30.549   4.734
15719W        W75255  15.274  18.775   4.345
15720W        W75256  23.206  34.010  11.538
15721W        W75257  25.550  41.450   0.387
15722W        W75258  15.098  14.725  14.344
15723W        W75259  38.908  18.233   4.245
15724W        W75260  22.556   0.801  13.965
15725W        W75261  37.408  31.966   0.449
15726W        W75262  12.198  44.787  13.434
15727W        W75263  43.782  34.446   2.834
15728W        W75264   7.339  17.281  14.987
15729W        W75265  28.552  35.994  13.014
15730W        W75266  15.672  39.833   1.903
15731W        W75267  39.354  37.844   3.213
15732W        W75268  28.170   9.336   0.806
15733W        W75269  26.636  36.859  11.114
15734W        W75270  35.974  24.565   3.763
15735W        W75271  40.394   3.937   2.319
15736W        W75272  31.941  43.765  13.839
15737W        W75273   1.852  42.941   0.810
15738W        W75274   6.282  41.367  10.043
15739W        W75275  39.983  21.200   3.204
15740W        W75276  30.052  16.187   4.162
15741W        W75277  40.524  31.131  14.896
15742W        W75278  22.519  42.446   1.366
15743W        W75279  33.545   2.834   1.449
15744W        W75280   3.798  31.109   4.823
15745W        W75281  29.960   6.422  12.826
15746W        W75282  34.016  19.674   0.333
15747W        W75283  41.880  19.247   1.816
15748W        W75284  41.300  38.842  11.874
15749W        W75285   4.266  22.602  12.460
15750W        W75286  24.089  36.017   1.808
15751W        W75287  34.050  34.415  14.777
15752W        W75288  12.176  11.652  13.016
15753W        W75289  16.705  38.417  13.478
15754W        W75290  42.433  33.103   3.312
15755W        W75291  42.918  19.161   2.689
15756W        W75292  10.244  15.662   3.204
15757W        W75293  44.936   9.335  14.017
15758W        W75294  43.916   2.249  10.623
15759W        W75295  39.541   7.812   3.802
15760W        W75296  19.131   5.421   3.764
15761W        W75297  17.188  12.749  11.409
15762W        W75298  38.530  43.471   2.207
15763W        W75299  11.829  22.561   3.278
15764W        W75300   5.927  21.686   0.745
15765W        W75301  11.213  31.028  12.860
15766W        W75302  34.479  23.233   4.828
15767W        W75303   0.920   6.350  11.023
15768W        W75304   5.301  15.231  11.400
15769W        W75305  36.398  36.485   2.349
15770W        W75306  26.702   6.245  10.947
15771W        W75307  13.714  26.149   3.288
15772W        W75308   8.341   8.710   0.852
15773W        W75309  36.922  38.335  13.008
15774W        W75310   8.301  41.904   1.836
15775W        W75311  16.759  15.683   4.737
15776W        W75312  38.539  28.536   1.882
15777W        W75313  16.267  29.121  13.461
15778W        W75314   7.757  20.033  11.966
15779W        W75315  40.030  26.693  11.917
15780W        W75316  32.022  14.293   0.473
15781W        W75317  43.462  43.917  14.883
15782W        W75318  22.519  44.967  13.541
15783W        W75319  23.100  28.576   3.285
15784W        W75320  25.557  33.407   0.483
15785W        W75321  20.092   5.392   1.933
15786W        W75322  10.745  20.551  12.074
15787W        W75323  15.753  39.894  12.578
15788W        W75324  15.590  31.463  13.468
15789W        W75325  37.496   5.321   2.224
15790W        W75326  13.747  28.050   0.424
15791W        W75327  21.080  15.639  14.395
15792W        W75328  17.592  13.110  11.607
15793W        W75329  25.210   0.433  13.958
15794W        W75330  38.372  23.231   3.379
15795W        W75331  36.362   5.195   2.829
15796W        W75332  40.545  27.632  10.977
15797W        W75333  44.363  33.029  13.401
15798W        W75334  31.490  20.713   1.832
15799W        W75335  40.964   8.674  13.344
15800W        W75336  39.818  43.477   3.752
15801W        W75337  26.177  12.693  10.506
15802W        W75338  18.279  25.682   4.176
15803W        W75339  34.982  13.323  14.381
15804W        W75340   5.305  23.503   1.746
15805W        W75341  44.380  19.133   3.251
15806W        W75342  33.521  42.299  12.383
15807W        W75343  17.224  16.191  12.946
15808W        W75344  27.619  39.034   1.240
15809W        W75345  17.151  20.118   2.365
15810W        W75346  10.207  20.768  12.066
15811W        W75347  42.523  18.077  12.342
15812W        W75348  18.763  31.416   2.781
15813W        W75349  43.891  40.901   0.375
15814W        W75350   4.206  22.503   2.881
15815W        W75351   2.227  13.203  13.994
15816W        W75352  34.575  33.961   3.200
15817W        W75353   8.835  13.131   4.175
15818W        W75354  31.939  20.738   0.348
15819W        W75355  35.004  31.536  14.767
15820W        W75356  20.745  19.719  12.556
15821W        W75357   5.214  35.932  13.815
15822W        W75358  34.003  33.617  10.527
15823W        W75359  43.015   7.893   4.769
15824W        W75360  38.932  39.045  13.348
15825W        W75361   4.898  12.749  12.343
15826W        W75362  25.009  27.078   3.777
15827W        W75363  38.988  11.793   0.400
15828W        W75364  40.427  19.262   3.714
15829W        W75365  25.095  21.216  14.903
15830W        W75366  37.847  35.040   0.373
15831W        W75367  36.534  12.735  12.528
15832W        W75368  44.404  44.328   1.382
15833W        W75369  38.927   2.325  10.917
15834W        W75370  37.864   1.410  12.362
15835W        W75371  31.035  43.814  11.603
15836W        W75372  20.708  26.049   3.850
15837W        W75373  32.042   3.437  14.438
15838W        W75374  35.543  38.986  11.434
15839W        W75375  22.038  11.246  13.881
15840W        W75376  30.505  38.477   1.431
15841W        W75377  30.559  19.633   4.707
15842W        W75378  41.812  30.958  13.364
15843W        W75379   9.738  44.998   3.176
15844W        W75380  40.000  18.134   1.881
15845W        W75381  12.812  19.569  14.413
15846W        W75382  14.299  13.719  14.944
15847W        W75383  34.078   1.434  12.826
15848W        W75384   5.333  24.066  10.155
15849W        W75385  18.660  25.023  14.514
15850W        W75386  10.818  28.929  11.030
15851W        W75387  23.503  35.380   3.154
15852W        W75388  10.148  36.945  12.932
15853W        W75389  12.320   0.770   1.373
15854W        W75390  28.445   8.266   4.245
15855W        W75391  15.795  26.634   1.722
15856W        W75392  40.941   2.409   2.333
15857W        W75393  31.634  19.626   0.409
15858W        W75394  36.384  24.623  12.863
15859W        W75395  19.600   8.315   4.124
15860W        W75396   2.445  44.903   1.338
15861W        W75397   1.453  12.322   1.392
15862W        W75398  27.544  21.095   1.357
15863W        W75399  17.177  42.990  12.355
15864W        W75400  35.438  36.484  10.894
15865W        W75401  15.808  22.529  14.985
15866W        W75402  40.847   7.712   1.295
15867W        W75403  29.473   6.340  12.347
15868W        W75404   5.698   9.391  10.981
15869W        W75405  41.026   2.814  13.475
15870W        W75406  10.708   3.423   0.778
15871W        W75407   4.320  38.841  14.440
15872W        W75408  30.952  15.666   5.134
15873W        W75409  24.040  13.603   4.299
15874W        W75410   0.489  33.962   3.307
15875W        W75411  17.232  10.714  13.018
15876W        W75412  39.418   5.868  12.419
15877W        W75413  38.405  29.612  14.978
15878W        W75414  15.710  14.783   0.763
15879W        W75415  21.157  43.300   0.785
15880W        W75416  35.058  43.353  10.420
15881W        W75417   9.167  24.565   0.813
15882W        W75418  20.173  37.468  11.452
15883W        W75419  34.083   0.912   3.843
15884W        W75420   9.192  16.765   3.762
15885W        W75421  38.880  18.207   4.631
15886W        W75422  37.897  17.118   9.989
15887W        W75423  25.147  30.505   4.287
15888W        W75424  25.692  18.775   1.283
15889W        W75425  26.029  40.963  10.559
15890W        W75426  26.567   5.876  13.457
15891W        W75427  19.675  18.788  13.849
15892W        W75428  40.955  15.319   1.831
15893W        W75429  22.597  16.636  12.519
15894W        W75430   4.789  34.077  14.909
15895W        W75431  37.419  24.519  11.551
15896W        W75432  37.966   4.410   3.817
15897W        W75433  15.624  38.957   3.219
15898W        W75434  32.116  38.411   1.217
15899W        W75435  35.099   0.265  12.869
15900W        W75436  21.228  22.590   2.272
15901W        W75437  11.759  36.547   2.858
15902W        W75438  21.049  22.094   9.439
15903W        W75439  34.996  12.167  13.392
15904W        W75440   2.362   3.384  11.409
15905W        W75441  43.502   1.408   4.301
15906W        W75442   8.681   2.777   3.755
15907W        W75443  29.589  41.845  14.467
15908W        W75444  24.000  41.430   4.711
15909W        W75445   0.400   7.763  11.049
15910W        W75446   3.758  37.549  12.887
15911W        W75447   7.878  36.399  14.454
15912W        W75448  35.064   7.883  10.523
15913W        W75449   0.958   4.917  14.297
15914W        W75450   3.301   3.908   1.704
15915W        W75451  44.287  41.529   4.247
15916W        W75452  44.008   1.297   0.325
15917W        W75453   7.892  36.913   2.339
15918W        W75454  14.187  44.361  11.933
15919W        W75455  25.187  41.857  11.395
15920W        W75456   5.868   0.918   3.313
15921W        W75457  13.802   2.732   0.324
15922W        W75458  16.695  30.955   4.763
15923W        W75459  29.926  12.226   3.753
15924W        W75460   4.407   7.768   1.249
15925W        W75461  11.819  13.600  10.511
15926W        W75462  38.451  22.158  13.491
15927W        W75463  15.655  16.081  13.006
15928W        W75464   0.948   2.345   2.750
15929W        W75465   0.855   9.292   2.769
15930W        W75466  25.520  34.433   0.804
15931W        W75467   3.740  35.468   1.700
15932W        W75468  35.454  16.636   0.915
15933W        W75469  11.282  15.157   1.793
15934W        W75470  12.249  25.479  14.819
15935W        W75471  15.725  42.435  11.498
15936W        W75472   2.723  10.873   4.214
15937W        W75473   2.729  34.519   3.366
15938W        W75474   7.353  13.200   1.389
15939W        W75475  44.392   7.667  11.982
15940W        W75476   4.234  25.187   1.235
15941W        W75477  10.745   8.843  14.467
15942W        W75478   8.796  20.260  13.391
15943W        W75479  37.897  42.281  14.814
15944W        W75480  25.565   6.201  12.351
15945W        W75481  17.204   6.692  13.918
15946W        W75482  44.922  13.714   3.670
15947W        W75483  11.671  31.439  14.987
15948W        W75484  32.578   2.349   2.858
15949W        W75485   7.380  26.693  14.373
15950W        W75486  11.364   6.744   1.236
15951W        W75487  10.818  37.976   4.689
15952W        W75488   5.735   9.832   3.666
15953W        W75489   4.768  33.582   2.286
15954W        W75490  36.404  33.380   2.881
15955W        W75491  24.552  22.724  12.870
15956W        W75492  41.953  16.200  14.938
15957W        W75493  42.447  13.227  14.353
15958W        W75494  24.059  36.938  13.827
15959W        W75495  36.499  30.035  13.347
15960W        W75496  36.044  39.824  13.440
15961W        W75497  16.212  43.469  11.990
15962W        W75498  38.487   1.805   0.949
15963W        W75499   9.797  12.674   2.267
15964W        W75500   4.259   3.400  11.106
15965W        W75501  14.307  37.013   3.252
15966W        W75502   4.939  38.372   3.737
15967W        W75503  20.038  14.671  13.913
15968W        W75504  15.148  14.129   4.221
15969W        W75505  37.391   8.254   4.288
15970W        W75506   1.414   2.472  13.897
15971W        W75507  23.499   1.841   2.358
15972W        W75508  11.264  35.854  13.416
15973W        W75509  30.054  39.918  14.398
15974W        W75510  41.972  32.965  14.481
15975W        W75511  21.109  13.728  11.072
15976W        W75512  37.549  38.914   3.687
15977W        W75513   1.756  20.732   0.865
15978W        W75514  34.510  39.394  11.464
15979W        W75515  33.522   4.874  13.485
15980W        W75516  16.286  36.366  13.472
15981W        W75517  13.613  43.336  11.570
15982W        W75518   1.345  31.461  14.492
15983W        W75519  11.842  35.927   3.281
15984W        W75520  20.724   6.189  12.888
15985W        W75521  25.114   3.902  13.399
15986W        W75522   3.358  20.221  14.984
15987W        W75523  29.079  16.702   3.279
15988W        W75524  31.470  29.987   0.300
15989W        W75525  28.034  11.352  13.340
15990W        W75526  26.667  19.231  14.782
15991W        W75527  25.119  15.596   0.910
15992W        W75528  32.445   4.398  12.865
15993W        W75529  43.412  19.056  12.072
15994W        W75530  12.611  36.991   0.751
15995W        W75531  17.710   4.754  11.085
15996W        W75532  22.538  30.018   3.765
15997W        W75533  39.940  40.014  11.072
15998W        W75534  16.201  29.426   2.408
15999W        W75535  19.123  27.484  13.977
16000W        W75536  10.279  42.846   1.412
16001W        W75537   1.835  30.078   3.306
16002W        W75538   9.665  30.642   4.736
16003W        W75539  22.229  18.744  14.029
16004W        W75540  41.525   5.398  11.119
16005W        W75541  42.993  27.102  11.547
16006W        W75542  27.042  10.370  12.928
16007W        W75543  32.891  12.280   0.298
16008W        W75544  28.558  20.118  13.492
16009W        W75545  13.343  11.207  13.836
16010W        W75546  28.434  18.201   3.264
16011W        W75547  17.573  38.069  14.984
16012W        W75548  19.629   7.324  12.414
16013W        W75549  39.533  22.029   0.263
16014W        W75550  20.124  24.662   1.834
16015W        W75551  37.360  21.517  11.451
16016W        W75552  31.565  35.371   4.785
16017W        W75553  10.773   5.829  14.841
16018W        W75554  20.179  17.079   0.244
16019W        W75555  21.185  43.350   2.320
16020W        W75556  28.046  30.936   2.395
16021W        W75557  44.773  21.218  11.395
16022W        W75558  10.154  34.928   1.418
16023W        W75559  28.576  23.590   0.933
16024W        W75560  36.393  36.013   5.213
16025W        W75561  25.565   4.378   4.209
16026W        W75562   8.253  18.098   1.722
16027W        W75563  12.129   6.809  12.868
16028W        W75564   7.886  38.032   1.721
16029W        W75565  31.906  15.186  14.393
16030W        W75566   8.812  18.155   4.216
16031W        W75567  25.213  35.479   5.695
16032W        W75568  32.113  34.522   0.747
16033W        W75569  12.747   4.350   2.242
16034W        W75570   7.757  15.808  13.383
16035W        W75571   0.827  33.425  11.043
16036W        W75572  40.801  14.327   4.319
16037W        W75573  17.187   5.294  12.555
16038W        W75574  40.454  28.469   4.740
16039W        W75575   6.800  17.276   0.952
16040W        W75576   8.320  38.843  13.496
16041W        W75577   4.210   5.763   3.786
16042W        W75578   9.194  24.139   0.243
16043W        W75579   7.727  26.991  14.430
16044W        W75580  19.143  13.730  12.097
16045W        W75581  33.463  10.199  14.840
16046W        W75582  38.938  44.498  12.882
16047W        W75583  19.284   2.961   0.752
16048W        W75584  14.298  31.488   0.848
16049W        W75585  30.138  30.158   0.808
16050W        W75586  39.555   4.910   0.342
16051W        W75587  17.118  44.930   0.763
16052W        W75588  30.473  10.680   2.794
16053W        W75589  33.447  12.249  14.999
16054W        W75590   7.700  29.920   9.935
16055W        W75591  44.930  33.387   3.768
16056W        W75592  23.600  33.486   4.728
16057W        W75593  11.715  21.743  14.026
16058W        W75594  34.057   8.726  13.061
16059W        W75595   7.214  44.992  13.444
16060W        W75596  12.665  24.188  11.502
16061W        W75597  37.862  33.086   4.664
16062W        W75598  44.422  27.574   2.308
16063W        W75599  42.326  36.529  11.410
16064W        W75600  36.576   7.682  10.964
16065W        W75601  41.327   9.782  14.897
16066W        W75602  31.557  21.154  14.781
16067W        W75603  25.511  29.063  13.911
16068W        W75604  35.465  21.607  12.445
16069W        W75605  28.118  23.146   2.684
16070W        W75606  12.800  29.979  10.477
16071W        W75607  43.945  27.505   0.377
16072W        W75608  41.510  27.151   4.116
16073W        W75609  29.616  40.481   2.662
16074W        W75610  24.157  37.508   2.663
16075W        W75611  12.279  34.007  10.623
16076W        W75612  36.035  27.191  11.997
16077W        W75613  15.228  40.444  10.470
16078W        W75614  22.097  44.914  12.506
16079W        W75615  11.868  15.281  10.942
16080W        W75616  20.078  44.977   2.705
16081W        W75617  36.385  35.990  13.063
16082W        W75618   1.398  15.631   2.328
16083W        W75619  17.177  38.040   1.394
16084W        W75620  23.671   2.825  12.568
16085W        W75621  20.113   4.409  10.888
16086W        W75622  42.288  28.064  14.761
16087W        W75623  21.513  16.279  14.368
16088W        W75624  19.589  36.388  14.505
16089W        W75625  26.663  43.960  14.348
16090W        W75626   1.248  32.102   2.204
16091W        W75627  12.302  21.603   4.702
16092W        W75628   5.264  31.629   3.352
16093W        W75629  29.432  38.438   2.693
16094W        W75630  10.708  34.390  13.946
16095W        W75631  26.064  35.530  12.997
16096W        W75632  18.686  29.126  12.964
16097W        W75633  42.337  41.013   1.704
16098W        W75634   8.228   6.348   4.235
16099W        W75635  36.866  34.422  11.578
16100W        W75636  41.821   4.238  11.070
16101W        W75637   3.367   4.395  10.631
16102W        W75638  31.614  38.541   0.921
16103W        W75639   6.305  19.067  13.886
16104W        W75640  26.470   7.904   4.819
16105W        W75641   4.777  42.984  14.376
16106W        W75642  39.459  33.608   3.748
16107W        W75643   3.294  43.974  14.333
16108W        W75644  22.516  32.899  11.409
16109W        W75645  24.560  25.541  12.996
16110W        W75646  14.316  44.907   4.207
16111W        W75647  10.225   3.421   2.761
16112W        W75648  33.500   2.391   2.819
16113W        W75649  17.617   7.263  12.537
16114W        W75650  16.709  28.973  11.414
16115W        W75651  35.064  18.564   4.835
16116W        W75652  33.617  15.208   1.823
16117W        W75653  25.612   6.894  11.453
16118W        W75654   2.365  38.015   4.626
16119W        W75655  30.466  20.071  14.905
16120W        W75656  22.505  32.566  13.498
16121W        W75657   7.226  14.786  11.446
16122W        W75658  18.653  22.561  13.469
16123W        W75659  38.924  27.505  14.785
16124W        W75660  13.200  24.635   0.930
16125W        W75661  42.400   7.192   3.323
16126W        W75662   1.338  20.542  10.486
16127W        W75663  26.170   1.912  14.489
16128W        W75664   6.898  20.565  14.395
16129W        W75665  43.899   3.842   1.713
16130W        W75666  43.344  36.440  13.423
16131W        W75667  20.656  30.577   0.881
16132W        W75668  32.533  10.800   0.479
16133W        W75669  10.670  32.057  11.901
16134W        W75670  25.003  13.254   3.202
16135W        W75671   4.864  35.387   0.951
16136W        W75672   6.782  40.484   0.311
16137W        W75673   4.265   8.736   2.227
16138W        W75674  22.536  10.375  10.552
16139W        W75675  44.472   9.303  11.465
16140W        W75676  40.039   5.692  12.899
16141W        W75677  22.525  42.467  12.501
16142W        W75678  19.256  21.216   3.204
16143W        W75679  31.990  36.884  10.562
16144W        W75680  11.336   5.300   5.218
16145W        W75681  17.258  43.305  14.431
16146W        W75682   2.872   7.200  11.455
16147W        W75683  14.229  43.828   2.373
16148W        W75684  31.097   5.317  10.633
16149W        W75685  29.442  15.177   2.283
16150W        W75686   2.761  28.662   1.838
16151W        W75687   3.331  27.508   2.265
16152W        W75688  10.335  35.553   4.605
16153W        W75689  26.978  19.238  10.063
16154W        W75690  34.909   0.776   5.685
16155W        W75691  14.604  18.690   3.256
16156W        W75692  42.854  38.888  12.958
16157W        W75693   9.727  40.508   4.622
16158W        W75694  29.150  31.628   4.712
16159W        W75695   8.354  27.950   0.322
16160W        W75696  18.597  35.496   2.746
16161W        W75697  31.619   9.747  14.334
16162W        W75698  28.565  28.438   2.356
16163W        W75699  13.617  44.499  11.930
16164W        W75700   5.246  38.962  12.539
16165W        W75701  29.166  39.487   2.257
16166W        W75702  24.513  22.735   1.760
16167W        W75703  38.988  15.271   1.884
16168W        W75704  19.219  28.024  11.901
16169W        W75705  25.122  42.320   2.791
16170W        W75706  15.172  35.377   2.373
16171W        W75707  20.618  14.680  14.851
16172W        W75708   0.327  29.949   1.766
16173W        W75709  10.237   6.354   3.704
16174W        W75710  16.316  20.654   2.700
16175W        W75711  28.542  21.600  11.417
16176W        W75712  17.672  30.143  14.430
16177W        W75713  33.933   4.376   3.331
16178W        W75714  22.661  39.878  13.511
16179W        W75715  44.364  38.373   0.470
16180W        W75716   8.758  40.843   0.884
16181W        W75717  30.104  39.554   0.281
16182W        W75718   3.333  27.643   4.149
16183W        W75719  20.538  29.444   2.221
16184W        W75720  15.760   4.446   0.744
16185W        W75721  13.236  43.767   0.308
16186W        W75722   5.913  40.843   3.708
16187W        W75723  21.736  36.085  14.766
16188W        W75724  37.478   2.264  11.388
16189W        W75725  32.574  30.458  13.349
16190W        W75726   0.421   3.930  14.774
16191W        W75727  24.724  38.840  14.409
16192W        W75728  23.520  19.102  12.895
16193W        W75729  11.643  27.480  12.420
16194W        W75730  11.211  27.614  14.361
16195W        W75731  23.057  11.772   1.780
16196W        W75732  30.502  18.067   2.807
16197W        W75733  29.522  39.558  14.835
16198W        W75734  30.423  20.031  12.437
16199W        W75735  40.400  28.952  11.073
16200W        W75736  22.630  27.170   4.160
16201W        W75737  23.111   5.371   0.792
16202W        W75738  18.056  23.560   4.766
16203W        W75739  22.123  33.486   3.354
16204W        W75740  34.027   1.349   1.302
16205W        W75741  26.546  24.040  12.422
16206W        W75742  27.679  37.423  13.815
16207W        W75743  17.302  41.984  11.984
16208W        W75744  21.583  26.169  12.058
16209W        W75745  34.439  11.641   3.255
16210W        W75746  32.523  20.735   0.941
16211W        W75747  17.788  35.480  11.120
16212W        W75748   7.279  21.222  12.912
16213W        W75749  43.318   1.774  11.123
16214W        W75750  29.964  16.800   1.309
16215W        W75751   1.779  34.384  14.791
16216W        W75752   0.754  17.659  10.969
16217W        W75753  27.558   2.438   3.781
16218W        W75754  34.490  36.461  11.563
16219W        W75755   1.794  32.936  11.549
16220W        W75756  20.143  22.997  12.975
16221W        W75757   1.252  19.685   0.848
16222W        W75758  27.014  12.624   0.750
16223W        W75759  25.082  37.042   0.302
16224W        W75760  35.413  22.191   0.476
16225W        W75761   6.902   7.716   0.295
16226W        W75762  16.578  35.873  13.341
16227W        W75763  22.025  44.464  10.999
16228W        W75764  23.181  43.316   4.598
16229W        W75765  31.935  27.534   9.953
16230W        W75766   8.196   4.918  14.472
16231W        W75767   4.925  10.672   1.243
16232W        W75768  14.186   5.412   4.769
16233W        W75769  21.227  33.003   2.229
16234W        W75770  24.595  35.906   2.797
16235W        W75771  23.229   4.871  14.770
16236W        W75772   6.254  29.505  10.567
16237W        W75773  21.059   5.922  11.056
16238W        W75774  44.755  22.728   1.256
16239W        W75775  23.028  16.813  12.932
16240W        W75776  39.049  16.222  14.984
16241W        W75777  30.925  22.692   3.709
16242W        W75778  36.980  42.486  13.421
16243W        W75779  40.521  18.062   2.685
16244W        W75780  22.564   1.282  14.803
16245W        W75781   1.240  41.933  13.525
16246W        W75782  34.091  41.351  13.516
16247W        W75783  42.350  13.297   3.365
16248W        W75784   4.397  41.913   3.733
16249W        W75785  35.969  33.119  13.026
16250W        W75786   2.443  40.027   9.980
16251W        W75787   1.914   6.239  12.390
16252W        W75788  18.597  30.417  11.970
16253W        W75789   4.871  28.930   2.199
16254W        W75790   0.322  32.543   4.651
16255W        W75791  29.121   5.738   0.952
16256W        W75792  34.946   3.839   3.330
16257W        W75793  32.911  41.381  13.977
16258W        W75794  40.888  32.573  13.814
16259W        W75795  28.564  35.452   4.793
16260W        W75796  41.840  11.631  13.815
16261W        W75797  11.671  38.443  14.008
16262W        W75798  27.197  35.402   4.209
16263W        W75799  13.124  44.467   4.193
16264W        W75800   6.256   5.333   3.259
16265W        W75801  32.534   9.154  13.541
16266W        W75802  34.023  24.658   2.806
16267W        W75803  43.779   7.796   0.260
16268W        W75804  24.106  14.228   3.751
16269W        W75805  11.136  20.067   1.358
16270W        W75806  31.638   8.841   5.266
16271W        W75807  40.030  37.569   1.817
16272W        W75808  19.096   6.864   4.267
16273W        W75809  33.920  19.105  11.603
16274W        W75810  17.222  27.121  10.584
16275W        W75811  35.994  23.680  12.081
16276W        W75812  39.558  21.589  13.519
16277W        W75813  22.103  25.595   0.942
16278W        W75814  41.349  33.525  13.019
16279W        W75815  26.655  34.931   1.831
16280W        W75816  43.830  17.567   1.700
16281W        W75817  25.004   7.808   3.795
16282W        W75818  29.465   2.422   2.355
16283W        W75819   6.841   4.363   0.412
16284W        W75820  20.090  25.530   2.397
16285W        W75821  44.958  34.537   1.853
16286W        W75822  26.987   0.366  12.830
16287W        W75823  21.124   9.166   1.706
16288W        W75824  10.635  38.001   1.245
16289W        W75825   2.364  38.974   0.804
16290W        W75826   1.786   7.240   2.863
16291W        W75827  30.123   8.682   1.864
16292W        W75828  11.860  33.022  14.779
16293W        W75829  14.110  37.939   3.217
16294W        W75830  14.339  30.005   4.810
16295W        W75831  37.357  32.058  13.384
16296W        W75832   1.748  13.242   1.807
16297W        W75833  43.354  35.873  13.413
16298W        W75834  18.256  29.532   0.290
16299W        W75835  25.092  30.654  13.430
16300W        W75836  27.162  40.834   4.240
16301W        W75837   6.203  36.094  14.866
16302W        W75838  25.006  37.381  13.393
16303W        W75839  21.049   2.819   1.791
16304W        W75840  16.787   0.837  14.781
16305W        W75841  15.662  23.510  11.582
16306W        W75842  22.007  15.176   1.696
16307W        W75843  11.673   5.275   5.316
16308W        W75844  44.786  19.145   3.784
16309W        W75845  31.597   6.262  10.555
16310W        W75846  33.442   0.977  12.068
16311W        W75847  29.655   0.435  14.436
16312W        W75848  31.055   6.756   3.319
16313W        W75849   0.962   1.742   5.188
16314W        W75850  35.002  27.506   4.724
16315W        W75851  15.733  21.234  11.581
16316W        W75852  14.768  36.855  10.478
16317W        W75853  23.155  29.975   2.713
16318W        W75854   8.752  33.537   2.275
16319W        W75855  40.856  21.131  13.997
16320W        W75856  34.574  34.582  13.064
16321W        W75857   5.433  31.437   2.879
16322W        W75858   2.307  24.227  14.934
16323W        W75859  11.194  12.715   0.269
16324W        W75860  29.661  42.390   1.872
16325W        W75861   4.855  27.134   3.791
16326W        W75862  24.608  25.152  12.571
16327W        W75863  27.577   9.197  14.865
16328W        W75864   0.835   8.655  14.314
16329W        W75865  25.082   9.646  14.453
16330W        W75866   6.690  19.039   3.277
16331W        W75867  26.174  28.561   3.637
16332W        W75868  39.365  44.861   1.708
16333W        W75869  21.091  43.357   4.265
16334W        W75870  15.674   5.212  10.929
16335W        W75871   9.258  33.040  14.387
16336W        W75872  42.512  33.090   4.290
16337W        W75873   3.745  43.815  12.510
16338W        W75874   1.840  40.304   3.335
16339W        W75875  32.947  10.165  14.321
16340W        W75876  38.434  39.859   0.860
16341W        W75877  42.985  43.441   5.226
16342W        W75878  36.039  32.976  12.076
16343W        W75879   1.338  23.553  11.060
16344W        W75880   9.799  38.988  11.945
16345W        W75881  15.602  35.378  14.328
16346W        W75882  44.849   4.364   0.727
16347W        W75883   8.247   3.789   4.171
16348W        W75884  17.698  37.422  12.416
16349W        W75885  25.536  23.008   3.304
16350W        W75886  28.476  32.589   2.211
16351W        W75887  42.417  23.698  11.888
16352W        W75888  24.664  11.844   4.229
16353W        W75889  22.612  41.959   2.345
16354W        W75890  19.138  24.120  11.481
16355W        W75891   6.696  38.049   2.734
16356W        W75892   3.328  26.040   0.861
16357W        W75893   7.359  37.982   4.709
16358W        W75894  18.233   9.158  13.847
16359W        W75895  10.775  18.555  14.923
16360W        W75896  39.056  24.627  13.491
16361W        W75897  11.705  22.169   0.799
16362W        W75898  39.810  15.135   3.293
16363W        W75899  31.963  39.449  14.014
16364W        W75900  22.636  38.449  13.946
16365W        W75901  35.472  10.794   0.884
16366W        W75902   8.698  11.206  10.632
16367W        W75903  23.050  13.333  11.501
16368W        W75904  40.386  17.708   1.275
16369W        W75905  24.101  14.303   3.313
16370W        W75906  21.543  24.105  10.888
16371W        W75907  19.590   0.397   0.425
16372W        W75908  15.099  34.407  14.992
16373W        W75909  37.871  36.416  10.982
16374W        W75910  38.377  33.983  11.439
16375W        W75911   3.826  10.349   1.344
16376W        W75912  16.218  40.039   5.196
16377W        W75913  42.441  29.945   4.290
16378W        W75914   1.901   5.353   3.252
16379W        W75915  10.355  28.490  11.435
16380W        W75916   8.772  26.020  12.498
16381W        W75917  43.879  44.381   0.432
16382W        W75918  21.119   3.931   4.272
16383W        W75919  39.499  40.053  12.951
16384W        W75920  35.914  32.036  13.798
16385W        W75921  41.982   8.730   4.686
16386W        W75922   1.472  22.168  14.337
16387W        W75923  26.662  37.495  13.358
16388W        W75924  36.888  18.208  13.491
16389W        W75925  43.973  14.666   1.359
16390W        W75926  36.460  17.774  14.987
16391W        W75927  11.818   6.744  13.937
16392W        W75928  27.043  18.186   0.876
16393W        W75929  13.807  18.607   0.311
16394W        W75930  31.076  40.886   3.332
16395W        W75931  36.010  41.308   0.377
16396W        W75932  27.030  14.647   0.889
16397W        W75933  20.116  37.931  11.451
16398W        W75934  43.435  14.832  10.957
16399W        W75935  39.440   8.251  12.386
16400W        W75936  24.029  25.623  13.308
16401W        W75937  20.184   7.192   3.306
16402W        W75938  27.510  29.467   4.605
16403W        W75939  15.214   4.917   3.685
16404W        W75940   1.823   4.813   0.402
16405W        W75941  12.127  13.825   0.407
16406W        W75942  39.398  23.003  13.489
16407W        W75943  33.089  17.703  10.930
16408W        W75944  28.658  24.690   3.666
16409W        W75945   0.428   6.686   3.718
16410W        W75946  17.157  21.182  14.871
16411W        W75947   8.809   8.715   2.204
16412W        W75948  38.405   8.264   2.872
16413W        W75949  31.576  39.504   3.242
16414W        W75950   3.803  12.326   1.732
16415W        W75951   9.174  34.027   4.173
16416W        W75952  36.419  36.464   3.231
16417W        W75953  12.278   5.425  10.925
16418W        W75954   4.290   3.350   0.421
16419W        W75955  10.785  27.497   9.583
16420W        W75956  31.945  11.679  14.426
16421W        W75957  10.233  11.278  10.139
16422W        W75958  35.520  13.741  14.391
16423W        W75959  16.256  38.049  12.842
16424W        W75960   8.856  28.021  14.772
16425W        W75961  11.347  13.740  14.403
16426W        W75962   3.828  42.792   5.146
16427W        W75963  42.814  16.605  14.882
16428W        W75964  22.737  10.727   4.647
16429W        W75965   2.243  40.813  14.809
16430W        W75966  36.846  19.587   0.432
16431W        W75967   3.259  22.682   2.692
16432W        W75968   2.923  39.914  12.433
16433W        W75969  15.719  18.700   5.151
16434W        W75970  20.684   5.288   1.888
16435W        W75971  44.293  30.072  13.308
16436W        W75972   7.870  30.054  11.381
16437W        W75973  32.940  35.431   0.794
16438W        W75974   8.751  40.424  10.480
16439W        W75975  15.728  18.771   1.265
16440W        W75976  31.958   3.731   1.775
16441W        W75977   8.888  21.673  11.072
16442W        W75978  19.041  35.925   3.708
16443W        W75979  22.602  36.971   9.951
16444W        W75980  36.442  35.868   3.214
16445W        W75981  22.069  36.000  12.416
16446W        W75982   7.728  13.221  12.870
16447W        W75983  40.463  11.328  11.868
16448W        W75984  22.074  43.500   2.203
16449W        W75985  10.852  37.083  12.509
16450W        W75986  40.025   5.221  13.473
16451W        W75987  36.509  37.037  12.392
16452W        W75988   1.257  12.305   3.641
16453W        W75989  24.659  39.817   3.326
16454W        W75990  44.806   6.328  10.477
16455W        W75991  30.536   3.819   1.426
16456W        W75992  22.722  12.206   4.163
16457W        W75993  34.882  20.705   3.208
16458W        W75994   8.379  26.033  12.408
16459W        W75995  38.952  27.117   1.797
16460W        W75996  23.138   5.823   3.277
16461W        W75997   6.849  31.546   3.677
16462W        W75998  22.169  32.498  11.949
16463W        W75999  10.644   7.707  14.284
16464W        W76000   8.774  30.981   4.614
16465W        W76001  38.556  22.689  13.936
16466W        W76002  29.027  22.568  12.965
16467W        W76003   8.212   0.410  14.869
16468W        W76004  22.159  28.489   0.316
16469W        W76005  16.221  40.806  14.377
16470W        W76006   8.335  12.130   1.927
16471W        W76007  22.553  38.337  11.097
16472W        W76008  41.367  21.059   2.667
16473W        W76009  25.522   4.256   1.749
16474W        W76010  38.336  36.968   2.807
16475W        W76011  21.255  13.807   1.395
16476W        W76012  29.142  28.029   1.934
16477W        W76013   7.358  32.409  10.460
16478W        W76014  10.250  31.493   4.736
16479W        W76015  40.053  19.236  12.823
16480W        W76016  23.027  26.123  11.860
16481W        W76017  33.514  21.151   1.713
16482W        W76018   2.424  24.036  12.500
16483W        W76019  34.022  36.454   1.746
16484W        W76020  34.559   5.312  13.997
16485W        W76021  13.720  36.011   2.326
16486W        W76022  26.701   3.782  10.891
16487W        W76023  12.840  18.566   5.096
16488W        W76024  14.771  20.080  10.514
16489W        W76025   6.224  19.282  12.518
16490W        W76026  30.096  21.620  11.068
16491W        W76027  38.923  44.782   0.385
16492W        W76028  13.646  12.318   3.703
16493W        W76029  20.720   6.678  12.485
16494W        W76030  24.154  43.767   0.246
16495W        W76031  12.357  28.121   3.672
16496W        W76032  32.477   3.916  11.101
16497W        W76033  39.940  42.391  12.045
16498W        W76034  32.923  15.669   1.404
16499W        W76035  14.674  15.292   0.385
16500W        W76036  25.700  38.500   1.445
16501W        W76037  29.580  11.839   2.407
16502W        W76038  42.508  40.517   3.653
16503W        W76039  25.146   4.798  13.038
16504W        W76040  22.176  27.081   2.345
16505W        W76041  16.654  34.034  13.330
16506W        W76042   7.182  21.185  10.433
16507W        W76043  31.969  43.387  11.422
16508W        W76044  32.461  43.461   2.313
16509W        W76045   9.854  43.900   4.693
16510W        W76046   1.462   7.880   3.729
16511W        W76047   7.765  41.434  10.058
16512W        W76048  32.558  24.175  12.379
16513W        W76049   4.322  41.844   4.790
16514W        W76050  12.638  27.650   9.639
16515W        W76051   9.294  40.952   1.833
16516W        W76052   3.864  24.990  13.811
16517W        W76053  26.155  18.692  11.935
16518W        W76054  34.093  39.006  11.563
16519W        W76055  27.029  30.621   1.435
16520W        W76056  16.290  32.011   1.747
16521W        W76057  26.072  25.561  13.472
16522W        W76058   6.303  30.129  10.891
16523W        W76059  27.057   2.248  13.519
16524W        W76060  28.952  39.490   2.890
16525W        W76061   4.300   6.903  14.492
16526W        W76062  36.850  12.667   0.258
16527W        W76063  14.829  23.146  13.899
16528W        W76064  32.034   3.804   0.850
16529W        W76065   5.369  14.295  14.873
16530W        W76066  44.842   5.365  14.835
16531W        W76067  14.235  26.005   2.182
16532W        W76068  34.899  15.811  13.812
16533W        W76069  28.107  19.220  13.875
16534W        W76070  23.656   1.926   1.274
16535W        W76071  31.630  12.316   0.444
16536W        W76072  23.531   9.286  13.459
16537W        W76073  43.806  42.520   4.187
16538W        W76074  36.860  18.060   1.322
16539W        W76075  25.688  42.481  10.626
16540W        W76076  31.911  24.999  10.517
16541W        W76077   3.413  39.412   3.747
16542W        W76078  26.642  15.727   2.694
16543W        W76079  41.833  32.093   1.232
16544W        W76080  26.503   7.378   4.211
16545W        W76081  28.546  18.657   2.746
16546W        W76082  30.494  16.586  11.959
16547W        W76083   1.274  24.122  11.455
16548W        W76084  20.177  11.802   0.450
16549W        W76085  36.035  40.941   4.271
16550W        W76086   5.227  11.363   3.855
16551W        W76087  28.611  32.119  10.418
16552W        W76088  40.501  36.530   0.778
16553W        W76089  23.670  22.745   0.888
16554W        W76090  17.101   9.795   4.219
16555W        W76091  43.509   9.272   0.364
16556W        W76092  44.297   9.882   1.347
16557W        W76093  10.802  23.690  13.005
16558W        W76094  40.877  38.455  10.598
16559W        W76095  26.675  24.592   2.234
16560W        W76096  27.631  24.205   2.799
16561W        W76097  30.111  40.957   4.210
16562W        W76098  29.041  26.083  10.566
16563W        W76099   0.490  12.641   5.594
16564W        W76100   0.819  12.313   1.743
16565W        W76101  37.944  35.894  12.363
16566W        W76102  40.941  17.275  12.528
16567W        W76103  23.543   8.353  13.832
16568W        W76104   5.820  44.798   3.814
16569W        W76105  33.411   3.293  14.414
16570W        W76106  32.535  40.827  10.997
16571W        W76107   1.325   8.758  14.290
16572W        W76108  21.667   8.797   4.762
16573W        W76109  23.546  29.482   1.801
16574W        W76110  19.570  32.437  13.547
16575W        W76111   1.302  44.364   3.195
16576W        W76112  39.408  19.693   5.087
16577W        W76113  12.242  18.215   3.209
16578W        W76114   0.915  15.097   1.295
16579W        W76115  24.506  32.461  11.996
16580W        W76116  20.733  36.059   0.849
16581W        W76117  17.718  14.249   3.766
16582W        W76118  31.986  38.391  14.485
16583W        W76119  37.431  41.897  11.563
16584W        W76120  42.344   5.273   0.782
16585W        W76121  38.931  43.902   1.700
16586W        W76122  31.577  25.095   1.383
16587W        W76123   4.905  10.708  12.421
16588W        W76124  13.123  25.676  14.924
16589W        W76125  28.587   1.449   3.833
16590W        W76126  30.509  21.518   3.668
16591W        W76127  19.116  29.029  10.921
16592W        W76128  13.669  22.084   4.261
16593W        W76129  30.061  24.677  11.572
16594W        W76130   7.284  23.722  13.486
16595W        W76131  37.354  40.053   3.147
16596W        W76132  37.045  38.896  12.426
16597W        W76133  39.388  40.946  13.347
16598W        W76134  16.190  12.222  14.897
16599W        W76135  30.564  40.429  10.490
16600W        W76136  22.168  41.325  12.839
16601W        W76137  35.891  35.853  12.063
16602W        W76138  44.491  27.124   1.700
16603W        W76139  37.376  22.069   1.224
16604W        W76140  35.385  23.169  13.822
16605W        W76141  37.042  39.842  13.453
16606W        W76142  14.339  36.492  10.905
16607W        W76143  20.567  42.346  11.931
16608W        W76144  42.492   3.429   0.763
16609W        W76145   7.256  42.491  12.517
16610W        W76146  30.980  28.621   1.713
16611W        W76147  24.577  27.621   0.251
16612W        W76148  28.491  32.916  14.889
16613W        W76149  25.218  39.815  13.818
16614W        W76150   9.308   6.705   9.628
16615W        W76151  15.653  24.067   2.360
16616W        W76152   3.294  34.592  12.996
16617W        W76153  10.369   8.847   2.379
16618W        W76154  23.553  19.577  13.005
16619W        W76155   7.190  39.326  12.432
16620W        W76156  38.484  33.540  12.561
16621W        W76157   8.837  40.503   4.703
16622W        W76158  32.402  19.111  11.941
16623W        W76159  42.369  40.014  12.487
16624W        W76160  31.484  41.837   3.773
16625W        W76161   0.777  33.471   3.759
16626W        W76162  22.604   2.835   2.830
16627W        W76163   9.162  12.236  14.304
16628W        W76164  31.936  40.886  12.089
16629W        W76165   2.252  44.959  12.051
16630W        W76166  15.760  39.006  11.108
16631W        W76167   5.276   7.387  13.809
16632W        W76168  39.854   3.245   1.236
16633W        W76169  34.369  33.920  14.367
16634W        W76170  24.057  30.585   4.309
16635W        W76171  42.427  42.906  11.500
16636W        W76172  28.435  16.638   2.312
16637W        W76173  37.341  22.623  14.789
16638W        W76174   0.414  33.882   1.303
16639W        W76175  34.402  11.856  10.413
16640W        W76176  17.608   9.859   2.383
16641W        W76177  44.365  42.977  14.440
16642W        W76178   8.322  40.963  13.985
16643W        W76179  32.898   0.906   1.448
16644W        W76180   0.887  26.488   1.309
16645W        W76181  30.136  35.504  14.444
16646W        W76182   8.668  22.700   0.751
16647W        W76183  28.943  41.318   2.218
16648W        W76184  43.806   2.309   0.945
16649W        W76185   7.801   7.839   3.289
16650W        W76186   0.760  32.890   2.263
16651W        W76187  40.047  44.373  10.930
16652W        W76188  29.116   3.955  13.926
16653W        W76189  11.370  19.248   2.722
16654W        W76190  33.109  29.932   9.585
16655W        W76191  29.452  35.358   2.749
16656W        W76192  16.072  19.125   5.662
16657W        W76193  42.439  19.168  13.050
16658W        W76194   8.209  11.352  14.961
16659W        W76195  14.197  42.785  12.891
16660W        W76196  17.268  24.027  12.415
16661W        W76197  26.020  36.884  14.408
16662W        W76198  27.977  29.648   5.245
16663W        W76199  39.020  15.769  12.433
16664W        W76200  14.105  38.445  12.018
16665W        W76201  36.954  38.820   4.649
16666W        W76202  24.112  16.086  13.315
16667W        W76203  17.778  28.164   0.912
16668W        W76204  17.239  30.162   2.665
16669W        W76205  28.538   8.218  13.940
16670W        W76206  43.279  36.545  12.518
16671W        W76207   7.246  39.507   4.645
16672W        W76208  16.182  40.385  10.915
16673W        W76209  34.118  40.894   2.739
16674W        W76210   6.707  37.956  10.441
16675W        W76211  19.181   9.236   2.839
16676W        W76212  39.359   8.831  12.031
16677W        W76213  28.007  17.710   3.859
16678W        W76214  40.961  17.196   0.440
16679W        W76215  19.562  10.812  11.459
16680W        W76216  19.561  44.302  13.877
16681W        W76217  18.764   8.763  13.048
16682W        W76218  10.147  37.909  13.012
16683W        W76219  28.619   7.376   1.700
16684W        W76220  34.542  43.341  12.572
16685W        W76221  35.576  23.241   0.850
16686W        W76222   6.417  23.025   1.708
16687W        W76223  36.026   5.727  13.326
16688W        W76224  40.942  33.622  13.920
16689W        W76225  27.047   5.227  12.574
16690W        W76226  42.430  27.014   0.842
16691W        W76227  39.962  38.340  13.910
16692W        W76228  42.350  44.954   0.480
16693W        W76229  23.696  10.246  11.417
16694W        W76230  20.728  17.236   2.298
16695W        W76231  23.032  30.659   3.866
16696W        W76232  44.902  42.018   3.293
16697W        W76233  43.007  14.759   1.855
16698W        W76234  16.743   9.643  14.848
16699W        W76235   9.684  19.238  10.604
16700W        W76236  30.440   7.394  11.903
16701W        W76237   4.393  41.382   2.675
16702W        W76238   4.870  18.205   4.676
16703W        W76239  26.605  37.031   9.583
16704W        W76240  22.578  30.928   4.676
16705W        W76241  40.879  16.592  10.916
16706W        W76242   8.748  40.465   0.242
16707W        W76243  39.516   8.774  11.400
16708W        W76244  10.764  33.596   3.848
16709W        W76245   8.892  21.080  12.453
16710W        W76246  33.613  13.790   4.278
16711W        W76247   1.772  14.692   4.721
16712W        W76248  11.188  16.797   2.704
16713W        W76249   8.251   4.876   3.362
16714W        W76250   5.933  40.885   0.375
16715W        W76251   0.806  42.395   3.700
16716W        W76252  44.820   2.454  13.314
16717W        W76253  34.434  28.943   0.880
16718W        W76254   0.278  23.131  13.866
16719W        W76255  13.686  33.613  13.056
16720W        W76256  30.589  32.623  14.290
16721W        W76257  33.430  35.107   2.264
16722W        W76258  15.682  15.142   3.244
16723W        W76259  26.019  42.388   1.276
16724W        W76260  32.566   7.669   2.817
16725W        W76261   0.796   0.762   4.800
16726W        W76262  26.998   8.741  13.803
16727W        W76263  29.142  37.854   1.252
16728W        W76264  42.363  36.084   4.144
16729W        W76265  44.280  10.752   1.339
16730W        W76266  25.172  23.523   3.353
16731W        W76267   6.680   0.308  13.993
16732W        W76268   7.779  38.867  12.849
16733W        W76269   2.316  29.110  12.465
16734W        W76270  36.911  28.977  10.438
16735W        W76271  20.048  23.183   1.250
16736W        W76272  25.988   9.186  13.467
16737W        W76273  30.111  20.106  14.487
16738W        W76274  21.566  44.845   1.297
16739W        W76275  26.957   6.237  11.454
16740W        W76276  33.468  23.119   4.818
16741W        W76277  35.002  12.736  12.929
16742W        W76278  27.652  17.228   2.319
16743W        W76279  29.949  40.847  14.867
16744W        W76280  27.127  37.022   5.658
16745W        W76281  16.596  31.105   3.167
16746W        W76282  28.548   3.837  12.015
16747W        W76283  18.622  10.230  14.505
16748W        W76284  27.047  20.172   2.203
16749W        W76285   3.951  30.415   3.373
16750W        W76286   7.676  43.850  13.026
16751W        W76287  26.030   4.237  10.923
16752W        W76288  16.639  26.519  10.910
16753W        W76289  42.429  36.360   3.851
16754W        W76290  32.548  44.437  13.464
16755W        W76291  37.491  43.310  13.055
16756W        W76292  32.424  44.445  12.356
16757W        W76293  35.864  31.923  12.056
16758W        W76294  38.071  21.069   4.797
16759W        W76295   5.303  21.021  11.024
16760W        W76296  38.071  43.375  12.063
16761W        W76297  43.828  27.445  14.846
16762W        W76298   9.874  17.619  11.865
16763W        W76299  13.324  37.952  11.421
16764W        W76300  36.443  35.405  10.473
16765W        W76301  17.113  32.565   3.802
16766W        W76302  27.153  12.351  14.460
16767W        W76303   8.725   0.837   1.389
16768W        W76304  16.671  14.299   3.371
16769W        W76305  41.511   3.278   1.439
16770W        W76306  27.625  20.547  11.870
16771W        W76307  28.661  30.645   3.251
16772W        W76308   4.259  28.115   4.785
16773W        W76309   8.244  20.042   3.369
16774W        W76310  33.947  26.524  10.944
16775W        W76311  35.503   8.806  13.354
16776W        W76312  17.261  11.854  12.980
16777W        W76313  11.327   2.892  12.449
16778W        W76314  43.357  35.888  11.439
16779W        W76315  19.202  17.668   0.362
16780W        W76316  27.004  32.405  12.524
16781W        W76317   0.378  15.729   5.107
16782W        W76318  13.138  37.517   3.668
16783W        W76319  38.438  14.252   1.918
16784W        W76320  21.555  31.073  14.392
16785W        W76321  24.087  19.755  12.474
16786W        W76322  16.699   5.321  13.441
16787W        W76323   0.957   4.747   1.253
16788W        W76324  25.532  39.482  11.100
16789W        W76325  15.618  41.359   2.819
16790W        W76326  40.462   6.907  11.966
16791W        W76327  40.421   0.973  10.526
16792W        W76328  18.728  23.682   3.826
16793W        W76329  37.431  28.565   0.419
16794W        W76330  22.221  35.516  11.996
16795W        W76331  14.661   7.343   4.701
16796W        W76332  26.463  19.259  11.000
16797W        W76333  35.876  27.102   2.273
16798W        W76334  40.916   3.353   4.186
16799W        W76335   2.345  43.364  13.008
16800W        W76336  34.611  15.628   1.321
16801W        W76337  10.294  32.484   3.163
16802W        W76338  33.893  44.389   4.818
16803W        W76339  38.401  20.261  12.450
16804W        W76340  12.815   7.888  11.391
16805W        W76341  40.825  15.092  14.471
16806W        W76342  34.423  29.004  14.892
16807W        W76343  20.670  36.574  14.770
16808W        W76344  23.600   1.811  10.161
16809W        W76345  43.334   7.671   3.386
16810W        W76346  16.091  30.002   1.348
16811W        W76347  29.135  36.562  14.881
16812W        W76348  21.722  24.179  11.395
16813W        W76349  25.968  20.641   1.860
16814W        W76350  38.876  39.362   4.302
16815W        W76351  24.125  39.521  11.504
16816W        W76352  12.341  42.847   0.916
16817W        W76353   6.854  22.232  10.590
16818W        W76354  15.636  37.839   1.427
16819W        W76355   1.944  26.457   4.694
16820W        W76356   6.189  13.804   1.278
16821W        W76357   8.755  40.418  11.533
16822W        W76358  13.113   4.789  11.491
16823W        W76359  41.877  26.681   4.221
16824W        W76360  38.005  32.985   4.187
16825W        W76361  31.002  17.558  14.851
16826W        W76362   1.783  11.294   0.387
16827W        W76363  38.987   4.212   3.833
16828W        W76364  23.648  26.681   0.261
16829W        W76365  35.407  26.099   0.447
16830W        W76366  41.449  11.690   1.364
16831W        W76367  43.927  40.529   3.696
16832W        W76368  36.015   5.302  10.914
16833W        W76369  39.986  19.605  14.910
16834W        W76370  17.298  14.200   4.234
16835W        W76371   7.759   8.294  13.423
16836W        W76372  37.835  16.234  12.402
16837W        W76373  13.174  26.516  11.911
16838W        W76374  22.215  12.246   1.247
16839W        W76375   7.849  41.443   3.844
16840W        W76376  25.574  28.002   4.114
16841W        W76377   8.286  14.197  12.571
16842W        W76378   7.331  44.458  12.848
16843W        W76379  40.931   2.262   9.455
16844W        W76380  15.732  26.563  11.903
16845W        W76381  23.015  14.243   1.740
16846W        W76382  39.867   9.339   3.708
16847W        W76383   7.190  43.397   2.312
16848W        W76384  40.039  35.380  14.860
16849W        W76385  23.069   0.765   3.298
16850W        W76386  41.795   1.302  12.960
16851W        W76387   1.753   4.281  10.586
16852W        W76388  43.462  27.027  13.874
16853W        W76389  42.295  23.241  13.041
16854W        W76390  21.042  23.153   0.930
16855W        W76391  24.479  33.433  11.014
16856W        W76392   0.753  22.714   2.856
16857W        W76393  33.954   5.791  12.555
16858W        W76394  24.499  14.228   1.719
16859W        W76395   8.188  11.674   3.365
16860W        W76396  13.609   0.489   3.668
16861W        W76397  16.765  21.754   3.182
16862W        W76398   4.215  17.662   1.772
16863W        W76399  34.492   6.804  11.107
16864W        W76400  29.434  22.141   0.434
16865W        W76401  16.117   1.784  13.405
16866W        W76402  23.505   0.982   0.433
16867W        W76403  37.059   5.917  11.930
16868W        W76404  17.737  28.448   1.727
16869W        W76405  12.300   7.858  11.421
16870W        W76406  15.690  13.600  13.543
16871W        W76407  12.192  24.582  12.425
16872W        W76408  15.776  24.707   2.693
16873W        W76409  32.526  34.556  10.982
16874W        W76410  12.622  37.952   0.375
16875W        W76411  12.798   9.889   2.179
16876W        W76412  19.071  37.937   0.374
16877W        W76413   6.252   2.330   0.953
16878W        W76414  43.506  42.366   3.716
16879W        W76415  16.652  40.355   4.253
16880W        W76416  12.216  27.041  10.157
16881W        W76417  26.972  43.481   2.287
16882W        W76418   5.872  23.034  10.607
16883W        W76419  38.344  26.024  14.769
16884W        W76420   6.311   3.398   0.962
16885W        W76421   0.407  32.911   3.369
16886W        W76422  16.166  26.466  13.342
16887W        W76423  12.636  36.511   1.820
16888W        W76424   3.778   9.751   4.693
16889W        W76425  30.034  18.270  13.930
16890W        W76426   0.747  32.514   4.229
16891W        W76427   3.791  40.386   4.271
16892W        W76428  12.762  35.580   3.760
16893W        W76429   9.366  33.998   0.925
16894W        W76430  40.868   5.365   0.413
16895W        W76431  29.634   8.810  12.824
16896W        W76432   8.861  31.044   3.218
16897W        W76433  29.125   4.808   1.899
16898W        W76434   7.672  12.264  10.488
16899W        W76435  31.942   7.374   1.787
16900W        W76436  29.454  34.906   3.643
16901W        W76437  18.757  12.169   2.339
16902W        W76438  19.668  30.448   4.243
16903W        W76439  11.845   9.188   5.126
16904W        W76440   5.923  15.200   0.481
16905W        W76441  43.913   8.732   2.200
16906W        W76442   4.391  26.181   5.243
16907W        W76443  34.904  40.798  14.775
16908W        W76444   8.763  33.048   0.956
16909W        W76445  29.935  26.189  13.511
16910W        W76446  17.197   6.821  11.094
16911W        W76447  36.844   5.895   2.848
16912W        W76448  35.413   7.700   3.210
16913W        W76449  32.512  40.020  11.045
16914W        W76450  43.325  38.404   4.341
16915W        W76451  33.111  42.483   3.245
16916W        W76452  32.922  35.024  14.830
16917W        W76453   3.430  11.156  13.888
16918W        W76454  34.952  38.931  12.959
16919W        W76455  40.921  22.527  13.353
16920W        W76456   7.303   0.304  10.989
16921W        W76457  43.390  20.141   3.824
16922W        W76458  44.340  16.151  11.374
16923W        W76459  44.772   2.318   0.829
16924W        W76460  36.894  28.617  14.369
16925W        W76461  44.413  36.042   2.373
16926W        W76462  24.062   6.893   3.321
16927W        W76463   0.344  32.485  14.497
16928W        W76464  20.747   1.939   1.341
16929W        W76465  36.071  21.731  11.103
16930W        W76466  14.151  39.048   2.372
16931W        W76467  21.679   4.830  13.050
16932W        W76468  15.764   1.257  11.441
16933W        W76469  40.361  19.244  14.428
16934W        W76470   7.679  20.581  10.615
16935W        W76471   9.185  33.527   1.837
16936W        W76472  23.574  15.806   3.671
16937W        W76473  28.184  38.894   4.672
16938W        W76474  19.268  40.372  14.374
16939W        W76475  11.211  13.183  11.037
16940W        W76476   1.772   7.834  12.423
16941W        W76477  27.555  34.591   1.218
16942W        W76478  30.551  31.513   1.919
16943W        W76479  44.339  30.658  13.378
16944W        W76480  25.069  30.999  10.546
16945W        W76481  20.265  42.347  12.868
16946W        W76482  12.169  40.396  10.451
16947W        W76483   9.784   8.755   2.408
16948W        W76484  18.683   7.203  13.843
16949W        W76485  14.833  23.998  14.943
16950W        W76486  33.463  34.465  12.962
16951W        W76487   9.760  31.571  12.054
16952W        W76488  35.560  13.346  14.382
16953W        W76489  27.682  30.654  14.885
16954W        W76490  26.951  41.896   4.624
16955W        W76491  27.958  13.338  10.957
16956W        W76492  28.642   8.234   2.415
16957W        W76493  42.860  38.382   3.287
16958W        W76494   6.692   3.906   0.244
16959W        W76495   6.203  16.788  12.891
16960W        W76496  28.584  41.396   0.874
16961W        W76497  35.980  22.078  14.885
16962W        W76498   3.876  19.188   0.431
16963W        W76499  42.788   6.381  12.867
16964W        W76500  39.448  28.943   0.258
16965W        W76501  24.103  14.128  11.460
16966W        W76502   4.440   9.888   3.693
16967W        W76503   4.237  42.373   4.260
16968W        W76504   9.377   7.213   3.333
16969W        W76505  23.108  35.566   3.348
16970W        W76506  22.139  11.726   2.310
16971W        W76507  34.914  28.146   3.229
16972W        W76508   9.159   3.439   0.731
16973W        W76509  18.748   8.889  13.894
16974W        W76510   8.166  37.460   3.777
16975W        W76511  10.798  43.355  13.365
16976W        W76512  10.735   6.263   2.286
16977W        W76513  17.152  24.686  11.558
16978W        W76514  36.539  42.936   1.869
16979W        W76515  14.823  27.961  10.558
16980W        W76516  37.061  24.074  13.006
16981W        W76517  11.801  29.590  12.984
16982W        W76518  21.076  32.931  12.879
16983W        W76519   3.428   8.316  10.448
16984W        W76520  42.856   8.187   2.277
16985W        W76521  14.810  15.272   1.267
16986W        W76522  10.208   5.701  14.383
16987W        W76523  11.688  12.704   3.181
16988W        W76524  32.973   0.856   0.373
16989W        W76525  16.076  42.023   1.697
16990W        W76526  41.978   3.298  10.115
16991W        W76527  17.747  36.958  12.459
16992W        W76528  42.394   3.939   4.177
16993W        W76529   8.658  28.445  12.079
16994W        W76530   4.358   4.919  11.591
16995W        W76531   1.948  12.619  14.296
16996W        W76532   6.807  38.569   0.871
16997W        W76533  30.014  21.537  14.499
16998W        W76534  20.121  28.465   4.608
16999W        W76535  21.550   5.925   0.305
17000W        W76536   7.364  26.147  11.453
17001W        W76537  24.226  20.547   3.690
17002W        W76538  19.139  24.710  12.422
17003W        W76539  14.621   1.957   0.926
17004W        W76540  39.997   2.259  13.318
17005W        W76541   3.433   7.753   1.343
17006W        W76542  44.852  30.599  10.595
17007W        W76543   6.873  28.075  11.032
17008W        W76544  16.642  25.181  10.489
17009W        W76545   9.252  22.663  13.477
17010W        W76546  27.062  34.563   2.383
17011W        W76547  44.350  25.628   4.805
17012W        W76548   9.797  17.247  10.616
17013W        W76549  14.788  26.030  13.932
17014W        W76550   4.209  29.980   0.928
17015W        W76551  13.696  38.005  11.573
17016W        W76552   1.821  38.494   4.748
17017W        W76553   6.894  19.194   2.726
17018W        W76554  14.256   2.452  11.394
17019W        W76555  13.652   0.972   2.225
17020W        W76556  38.904  15.181  12.417
17021W        W76557  15.285   6.681   1.448
17022W        W76558  14.741  27.087   1.445
17023W        W76559  34.086  21.111  14.461
17024W        W76560  20.228  38.381   3.644
17025W        W76561  29.988  30.433   0.372
17026W        W76562  18.725  20.704  13.924
17027W        W76563   5.222  28.947  13.937
17028W        W76564  17.248  15.817  10.090
17029W        W76565   8.674  41.383  14.338
17030W        W76566  43.292  24.531  12.512
17031W        W76567  37.357  35.862  11.037
17032W        W76568   6.913  41.498   3.855
17033W        W76569  37.511  33.041   2.784
17034W        W76570  28.084  23.644   3.230
17035W        W76571  38.434   7.270   4.824
17036W        W76572  44.964  11.135   2.419
17037W        W76573  12.727  16.125   1.748
17038W        W76574   1.381  41.911   0.469
17039W        W76575  23.006  10.725   2.806
17040W        W76576   1.345  12.272   0.471
17041W        W76577  27.181  24.655  11.544
17042W        W76578  30.130   3.881   0.407
17043W        W76579  41.801  28.085   0.251
17044W        W76580  12.720   6.271   0.380
17045W        W76581   9.712  25.644  13.528
17046W        W76582  20.074   5.821   0.789
17047W        W76583  22.044  34.992  13.317
17048W        W76584  10.307  40.539   0.948
17049W        W76585   8.213  22.557  11.106
17050W        W76586  37.436  20.192   3.302
17051W        W76587   3.307  34.913   4.130
17052W        W76588  18.558  13.194  14.010
17053W        W76589  42.926  26.499  11.582
17054W        W76590  34.891  32.965   1.902
17055W        W76591  33.531   1.876   4.669
17056W        W76592  28.613   2.409  11.922
17057W        W76593  14.650  18.744   0.932
17058W        W76594  17.766  20.546  10.994
17059W        W76595   8.869  41.802   0.755
17060W        W76596   3.316  38.369  14.026
17061W        W76597  31.562  30.101   0.859
17062W        W76598  39.013  11.799   0.943
17063W        W76599  40.881  35.466   0.273
17064W        W76600  36.902   4.939   4.607
17065W        W76601   0.494  30.995   0.372
17066W        W76602  38.021  18.631   1.375
17067W        W76603  16.185  16.781  12.078
17068W        W76604  34.083  35.554  12.374
17069W        W76605  26.500  28.102   1.263
17070W        W76606   0.858   8.403  13.919
17071W        W76607  18.198  22.182  12.434
17072W        W76608  13.114   4.747   1.931
17073W        W76609  21.517  21.250  14.998
17074W        W76610  17.076  42.890  10.148
17075W        W76611  28.155   1.740   3.635
17076W        W76612  35.586  30.437  10.406
17077W        W76613  44.343  10.312   2.819
17078W        W76614  32.976   6.185   0.464
17079W        W76615   0.436  30.492   4.660
17080W        W76616  15.106   1.424   0.890
17081W        W76617  14.246   1.349   2.868
17082W        W76618  28.558  21.143   1.756
17083W        W76619  23.590  24.162  10.434
17084W        W76620  14.170  31.970   0.773
17085W        W76621  15.133  34.463  12.855
17086W        W76622  38.911  33.513   0.406
17087W        W76623  28.528  41.447  13.402
17088W        W76624  38.993  26.976   2.263
17089W        W76625  37.945  40.367  14.375
17090W        W76626  14.707  41.786  10.490
17091W        W76627  20.063  36.487  12.995
17092W        W76628  27.470   2.786   4.834
17093W        W76629  31.933   8.656  12.528
17094W        W76630  32.133  40.035  10.996
17095W        W76631  14.293  17.557  10.451
17096W        W76632  23.107  10.240  13.862
17097W        W76633  36.454  26.672   3.359
17098W        W76634  41.967  28.012  14.891
17099W        W76635  21.644   1.477  10.617
17100W        W76636   0.285   4.363  14.375
17101W        W76637  38.360  35.430  12.968
17102W        W76638  21.694  20.056  12.017
17103W        W76639  34.916  42.781   0.838
17104W        W76640   4.835  32.613   3.160
17105W        W76641  20.163   4.725   1.852
17106W        W76642   6.402  33.057   1.933
17107W        W76643  20.273   3.270  14.456
17108W        W76644  42.340  14.215   5.803
17109W        W76645  15.246  41.965   3.260
17110W        W76646  43.785  28.075   3.863
17111W        W76647  20.612   9.215  11.579
17112W        W76648  12.316  41.297   2.846
17113W        W76649  13.202  16.616   4.153
17114W        W76650  13.844  36.501   1.713
17115W        W76651  42.896  42.351  12.026
17116W        W76652  11.306  34.388   1.839
17117W        W76653   0.795  38.403  10.565
17118W        W76654  32.489  39.888  14.367
17119W        W76655  26.699  37.068  11.492
17120W        W76656  25.979  39.519  11.550
17121W        W76657  31.647  26.595   1.788
17122W        W76658  33.506  19.618  14.392
17123W        W76659  32.982  19.538  10.490
17124W        W76660  15.261   8.230   5.679
17125W        W76661   4.315  44.364   1.742
17126W        W76662  15.255  12.801  14.819
17127W        W76663   8.667  24.076   3.719
17128W        W76664  16.310  43.496  13.013
17129W        W76665  22.646  18.062   2.777
17130W        W76666   7.256  28.465  12.025
17131W        W76667  38.571   7.399  11.032
17132W        W76668  43.378  21.640   2.865
17133W        W76669   9.765   6.305   3.185
17134W        W76670  14.759  29.134   0.362
17135W        W76671  36.975  39.991   2.187
17136W        W76672  35.527  26.966  11.515
17137W        W76673  31.479  17.559  12.424
17138W        W76674   2.286  41.371  13.811
17139W        W76675  18.268   0.256  13.426
17140W        W76676   0.394  18.755  12.015
17141W        W76677  32.555   6.802  14.347
17142W        W76678  16.261  16.738  13.003
17143W        W76679  41.492  11.715  14.788
17144W        W76680  34.522  17.725  14.452
17145W        W76681  10.240  21.604   3.293
17146W        W76682  41.878   8.833   2.808
17147W        W76683  35.105  30.120   3.794
17148W        W76684  34.403  35.060   0.255
17149W        W76685   2.295  10.281  12.506
17150W        W76686  13.607  19.040  12.849
17151W        W76687  19.051  24.624  14.925
17152W        W76688  34.923  28.649   0.363
17153W        W76689  31.505  16.196   3.314
17154W        W76690   5.871  39.321   3.343
17155W        W76691  22.608  37.477  11.093
17156W        W76692   6.916   1.909  13.446
17157W        W76693   3.301  30.011  11.952
17158W        W76694   8.884   2.739  14.502
17159W        W76695  28.472  26.686  11.559
17160W        W76696  41.331  37.934  12.035
17161W        W76697  22.658   0.743  11.866
17162W        W76698  35.070   3.362  10.538
17163W        W76699   8.841   8.659  14.275
17164W        W76700  44.947   9.670   1.449
17165W        W76701  26.095   8.835  11.869
17166W        W76702  32.490  39.428  13.052
17167W        W76703   7.910  38.498   4.148
17168W        W76704  21.154  15.307   1.917
17169W        W76705  11.667   5.696   0.313
17170W        W76706  37.014  21.576  11.463
17171W        W76707  34.568  18.294  13.443
17172W        W76708  37.356  40.488   0.448
17173W        W76709   1.423  16.650  12.859
17174W        W76710   6.268  43.320   2.762
17175W        W76711  42.502  29.522  13.326
17176W        W76712  31.647  29.436  10.929
17177W        W76713  18.150  17.080   4.615
17178W        W76714  22.099  17.155   3.788
17179W        W76715  24.645  14.732  12.575
17180W        W76716  44.835  21.713   3.813
17181W        W76717  31.581  32.138   2.205
17182W        W76718  38.962  40.449   2.879
17183W        W76719  38.869  12.626   0.864
17184W        W76720   2.236  42.446   1.443
17185W        W76721  32.587   4.285  13.862
17186W        W76722  18.602  26.536   0.375
17187W        W76723  23.547  38.828  13.318
17188W        W76724  32.114  34.373  11.031
17189W        W76725  19.737  39.061  11.551
17190W        W76726  35.471  34.919  14.435
17191W        W76727  33.570  39.504  14.344
17192W        W76728  34.897  33.518  12.866
17193W        W76729  33.974  22.629   0.771
17194W        W76730   3.932  41.320   3.251
17195W        W76731   5.700   6.303   1.388
17196W        W76732  32.976  39.847   3.222
17197W        W76733  42.390  37.999  13.323
17198W        W76734  36.915  22.511  10.985
17199W        W76735  29.092  42.951  14.429
17200W        W76736  26.586  11.707  11.895
17201W        W76737   4.930  43.406   4.688
17202W        W76738  18.624  16.692   3.287
17203W        W76739  27.150  16.635  14.276
17204W        W76740  11.815  34.024  11.863
17205W        W76741  11.683   6.316   3.335
17206W        W76742  41.953  39.034   1.810
17207W        W76743  27.635  24.522  10.955
17208W        W76744   6.296  42.328  14.885
17209W        W76745  25.020  36.935   3.316
17210W        W76746  30.515  22.182   0.319
17211W        W76747  15.764  13.128  13.516
17212W        W76748   5.285  34.972  14.003
17213W        W76749   1.321   0.254   0.762
17214W        W76750  30.425  40.541  11.126
17215W        W76751  20.139   5.348   0.285
17216W        W76752  37.385  38.029   3.794
17217W        W76753   8.684   9.365  11.428
17218W        W76754  26.695  15.118   4.308
17219W        W76755   2.416  34.484  12.972
17220W        W76756  43.933  22.113   0.759
17221W        W76757  42.889   8.827  11.887
17222W        W76758  35.943  23.228   1.843
17223W        W76759  12.121   6.277   0.325
17224W        W76760  19.728   3.354   3.854
17225W        W76761  14.773  13.728  12.036
17226W        W76762  22.735  30.142   0.287
17227W        W76763   8.169  36.476   3.787
17228W        W76764  28.445   9.282  11.119
17229W        W76765  20.756  44.369   3.726
17230W        W76766  44.441  26.192  13.932
17231W        W76767  40.907  18.790  11.574
17232W        W76768  31.426  39.009   2.800
17233W        W76769  27.652  29.096  12.352
17234W        W76770  41.365  26.628   2.314
17235W        W76771  27.642  29.001  10.909
17236W        W76772  25.618  38.424  11.589
17237W        W76773   4.337  29.429  10.593
17238W        W76774  26.105  15.154  13.836
17239W        W76775  27.498   9.669   3.696
17240W        W76776  16.794  42.990   2.680
17241W        W76777   4.373   2.371   1.392
17242W        W76778  20.650   7.692  13.043
17243W        W76779  35.956  41.921   3.810
17244W        W76780  12.286  42.846  13.343
17245W        W76781  44.353  16.568   0.442
17246W        W76782  20.182  23.180   2.376
17247W        W76783  42.288  19.687   4.242
17248W        W76784  44.865  27.113  13.346
17249W        W76785  39.514  14.150  11.053
17250W        W76786  38.568  16.719  13.818
17251W        W76787  13.700   1.752   4.758
17252W        W76788   8.351  15.138   1.232
17253W        W76789  40.407  25.517   3.744
17254W        W76790  39.997  14.206  12.894
17255W        W76791  28.446   0.488   4.788
17256W        W76792  10.716  38.947   1.323
17257W        W76793  37.880   3.221  10.104
17258W        W76794  10.259  44.948   2.860
17259W        W76795  38.839  31.930   5.253
17260W        W76796  43.468  32.414   4.135
17261W        W76797   2.463  16.746   4.691
17262W        W76798  42.416  27.663  14.939
17263W        W76799   3.876  25.203   3.758
17264W        W76800  42.433  30.514   3.370
17265W        W76801  37.442   9.345   5.122
17266W        W76802  40.472  34.536  11.434
17267W        W76803   6.196  19.102  10.529
17268W        W76804  13.187  31.633   0.315
17269W        W76805  41.308  33.418  12.547
17270W        W76806  14.766  37.883   3.838
17271W        W76807  39.556  30.437  12.485
17272W        W76808  28.125  34.510   3.347
17273W        W76809  11.174  38.350   4.713
17274W        W76810  17.282   3.280  11.935
17275W        W76811  28.982  19.642   5.267
17276W        W76812  34.910   6.336   3.302
17277W        W76813  24.576  23.007   1.357
17278W        W76814   6.757   1.817  13.795
17279W        W76815  10.686  14.810   3.384
17280W        W76816  23.113  39.928   3.859
17281W        W76817  31.518   9.699  14.826
17282W        W76818  39.391  23.492   4.737
17283W        W76819  15.622  42.521   0.468
17284W        W76820  43.403  17.174  12.537
17285W        W76821  13.308  28.583   9.985
17286W        W76822  27.044  21.239   2.883
17287W        W76823   9.736   5.312   0.373
17288W        W76824  24.072  29.003  13.801
17289W        W76825  38.944   7.263  13.963
17290W        W76826   8.181  36.084   0.733
17291W        W76827  16.772  38.016  12.929
17292W        W76828   1.875  12.802  11.060
17293W        W76829  17.306  30.530  14.907
17294W        W76830  28.965  30.997  14.277
17295W        W76831  15.813   4.767   4.229
17296W        W76832  39.551   5.374  11.581
17297W        W76833  21.569  12.815  13.031
17298W        W76834  20.628  12.729   2.340
17299W        W76835  23.221   1.475  11.097
17300W        W76836  42.845  12.354   0.428
17301W        W76837  12.704  40.481  11.861
17302W        W76838  13.114   5.761   2.319
17303W        W76839  34.472  15.673  14.846
17304W        W76840   6.370  12.299   3.337
17305W        W76841  40.015  11.231   5.205
17306W        W76842  27.096  25.023  14.398
17307W        W76843   1.792  13.636   0.909
17308W        W76844  42.493  27.117  12.854
17309W        W76845  25.992  28.615   3.328
17310W        W76846  33.961  36.362  14.960
17311W        W76847  14.244   8.838   3.149
17312W        W76848  33.057   3.279  13.949
17313W        W76849  14.300  31.987  12.024
17314W        W76850  20.662  18.745  11.921
17315W        W76851  34.023   0.766  10.496
17316W        W76852  35.025   1.251  14.028
17317W        W76853  11.859   7.889  12.947
17318W        W76854  15.768  11.711   2.744
17319W        W76855   1.741  23.010  14.015
17320W        W76856   2.735   1.398  11.053
17321W        W76857   9.282  14.645   4.183
17322W        W76858  37.514  10.247   2.848
17323W        W76859  35.393  37.537  13.059
17324W        W76860  27.678  43.948   4.238
17325W        W76861  21.756  32.491   3.177
17326W        W76862  15.219   1.309  13.013
17327W        W76863   9.360  39.425   3.705
17328W        W76864  36.404   1.947   1.926
17329W        W76865  34.553  26.625  14.301
17330W        W76866   8.388  14.701  12.941
17331W        W76867   9.311   0.256  14.279
17332W        W76868  12.212  14.132   4.758
17333W        W76869  22.010  38.939  12.925
17334W        W76870  17.657  18.760   1.259
17335W        W76871  29.540  33.092  14.897
17336W        W76872   6.749  26.672   5.266
17337W        W76873  42.478  24.142  13.913
17338W        W76874  22.528  23.189  11.063
17339W        W76875  11.809  21.718   2.671
17340W        W76876  41.300   9.186   3.702
17341W        W76877  26.478   4.778  11.564
17342W        W76878  16.728  16.243  11.968
17343W        W76879  31.081  35.498  12.340
17344W        W76880  32.069  14.307   2.799
17345W        W76881  15.635   8.214  11.102
17346W        W76882  18.770  33.509  12.074
17347W        W76883  11.243   9.647  12.399
17348W        W76884  11.752  21.667   1.900
17349W        W76885  27.015  15.114  14.499
17350W        W76886  40.332  38.035  11.611
17351W        W76887  11.206  41.497  14.781
17352W        W76888  42.433  22.006  13.985
17353W        W76889  10.259  26.203   2.661
17354W        W76890  27.452  11.166   1.439
17355W        W76891   6.744  10.829  12.840
17356W        W76892  32.977  37.404   1.926
17357W        W76893   1.754  40.327  13.347
17358W        W76894   7.333  14.200   1.258
17359W        W76895  24.659   2.368  11.989
17360W        W76896   0.310  20.103  12.512
17361W        W76897  44.305   9.680  14.009
17362W        W76898   8.341   9.158  13.881
17363W        W76899  18.251  29.522  11.056
17364W        W76900   4.401  24.636  14.894
17365W        W76901  39.043  34.052   2.240
17366W        W76902  29.930  24.045  12.897
17367W        W76903  16.194  23.569  13.060
17368W        W76904  30.584  23.986   3.729
17369W        W76905   1.346  24.074   1.227
17370W        W76906  37.554   1.382  10.599
17371W        W76907  13.654  25.100   3.843
17372W        W76908  10.160   1.977  10.059
17373W        W76909  29.493  17.152   3.296
17374W        W76910  35.011  18.606  12.451
17375W        W76911   1.799  29.509   3.158
17376W        W76912  34.863   6.920   1.807
17377W        W76913  26.178   5.431   1.836
17378W        W76914  38.388  32.137   0.735
17379W        W76915  32.100  30.138  14.907
17380W        W76916  21.083  14.311   1.842
17381W        W76917  11.343  42.030   1.430
17382W        W76918  15.183  13.664  12.362
17383W        W76919  40.403  11.332   2.892
17384W        W76920  21.181   8.351   2.207
17385W        W76921  38.345  25.652  12.853
17386W        W76922  27.062  44.320  13.810
17387W        W76923  10.740  14.701  12.373
17388W        W76924   9.155  25.661  11.529
17389W        W76925  21.233  37.381   0.740
17390W        W76926  23.181  42.945   4.317
17391W        W76927   9.806  28.493   3.214
17392W        W76928  15.760  19.577   4.141
17393W        W76929  15.312   9.761   2.281
17394W        W76930  24.092   3.339  13.506
17395W        W76931   5.341  43.360  12.421
17396W        W76932  44.902  44.849  11.578
17397W        W76933  15.220  11.169   4.243
17398W        W76934   2.262  13.740   2.897
17399W        W76935   1.454  22.624  14.813
17400W        W76936   7.847  32.029   0.380
17401W        W76937  42.505  34.066   2.239
17402W        W76938  32.904  36.918  14.764
17403W        W76939  41.039  27.060  10.434
17404W        W76940  41.826  17.654  12.832
17405W        W76941  44.324  12.195  14.997
17406W        W76942   2.794  13.644   1.737
17407W        W76943  10.306   0.938  12.062
17408W        W76944  11.631  13.790   3.229
17409W        W76945  13.659  30.491  11.860
17410W        W76946  19.095  33.491   1.241
17411W        W76947   6.198  41.335  13.996
17412W        W76948   0.953   1.806  10.941
17413W        W76949   1.734  43.934  13.015
17414W        W76950   2.427   6.726  13.884
17415W        W76951  26.580  14.763  14.776
17416W        W76952  38.863   8.661  12.389
17417W        W76953  20.765  14.648  10.455
17418W        W76954  24.199  23.670  13.024
17419W        W76955  29.597  38.352  12.096
17420W        W76956  37.084  41.321   2.809
17421W        W76957  29.119  37.022   0.338
17422W        W76958  41.311   5.734   0.917
17423W        W76959  22.173  37.975  11.601
17424W        W76960  25.122  23.029   2.335
17425W        W76961  42.807   7.387  11.937
17426W        W76962  32.400  24.200   1.814
17427W        W76963  17.154  10.818   9.923
17428W        W76964  17.227  37.395  12.360
17429W        W76965  20.209  35.966  13.463
17430W        W76966  42.479  10.656  11.900
17431W        W76967  12.789   2.438   4.703
17432W        W76968  26.480   8.195  14.013
17433W        W76969   1.943  36.884  10.519
17434W        W76970  39.430  24.136  11.015
17435W        W76971  43.814   8.667  14.781
17436W        W76972  33.622  34.886   1.277
17437W        W76973  22.540  34.040   0.884
17438W        W76974  38.561  33.495  14.028
17439W        W76975   7.402  32.561   2.382
17440W        W76976   2.956  37.848   2.761
17441W        W76977  16.577   9.805   1.714
17442W        W76978  31.456  43.507   3.283
17443W        W76979  26.994  40.395   2.355
17444W        W76980  23.990  35.085  12.427
17445W        W76981  42.369  40.331  13.896
17446W        W76982   9.786   4.825  13.448
17447W        W76983  19.647  27.578  11.396
17448W        W76984  16.568  32.057   1.895
17449W        W76985  11.637   7.213   3.772
17450W        W76986  23.530  10.751  12.933
17451W        W76987  26.139  32.940   1.914
17452W        W76988  35.443  19.740   4.607
17453W        W76989  32.552  32.487   4.767
17454W        W76990  23.606  36.585  11.548
17455W        W76991  10.662  39.364  14.908
17456W        W76992  21.739  11.328   3.870
17457W        W76993  42.404  29.995  14.917
17458W        W76994   0.252  40.421  13.405
17459W        W76995  40.484  32.452   2.193
17460W        W76996  26.988   9.666   4.117
17461W        W76997  42.368  33.981   4.318
17462W        W76998  10.234  35.597   0.366
17463W        W76999  17.660  42.014  12.541
17464W        W77000   7.211   7.285   4.775
17465W        W77001  41.996   5.737   3.715
17466W        W77002  10.351  25.482  12.012
17467W        W77003  23.175  11.195   3.843
17468W        W77004  37.971  37.072   2.293
17469W        W77005  31.143  11.665   5.209
17470W        W77006  25.680   1.823   1.405
17471W        W77007  41.511  37.518   4.182
17472W        W77008   2.388  17.623  11.973
17473W        W77009   3.857  11.189   3.245
17474W        W77010   5.826  15.261   4.610
17475W        W77011  34.864  32.084  11.482
17476W        W77012  40.540  19.186  13.826
17477W        W77013  26.089  37.933   1.778
17478W        W77014   5.753   2.240   3.797
17479W        W77015  14.322  37.430   3.725
17480W        W77016  38.451  34.080  12.354
17481W        W77017   6.863  15.778  13.891
17482W        W77018  10.351   6.887  14.974
17483W        W77019  30.594  24.108  14.936
17484W        W77020  16.701   7.678   0.319
17485W        W77021  22.131  40.005  14.918
17486W        W77022  43.418  30.499  12.836
17487W        W77023   6.280  20.137   1.387
17488W        W77024  19.591  33.579  12.345
17489W        W77025  25.610  26.156   2.386
17490W        W77026  33.522  10.224  10.924
17491W        W77027   2.421   3.729  10.498
17492W        W77028   0.441  18.558  13.483
17493W        W77029  13.818   4.433   4.746
17494W        W77030   4.807   5.303   2.258
17495W        W77031  20.685  20.579  10.638
17496W        W77032   3.759  43.281  11.076
17497W        W77033  19.641  15.112  11.907
17498W        W77034  21.118  15.781  10.485
17499W        W77035  30.158  26.591   3.225
17500W        W77036  32.483   0.313  11.509
17501W        W77037   6.283  25.131   4.247
17502W        W77038  41.871   3.331  10.623
17503W        W77039  26.103   8.247   9.981
17504W        W77040  38.512   8.722   2.365
17505W        W77041   3.850  17.609   0.262
17506W        W77042  17.258  36.016   1.761
17507W        W77043   8.900  10.813   3.712
17508W        W77044  12.339  20.181   0.353
17509W        W77045  24.578  32.919   1.875
17510W        W77046   6.294  29.995  13.818
17511W        W77047   4.353  28.564  12.824
17512W        W77048  36.861   8.672  13.966
17513W        W77049  25.674  14.654   3.381
17514W        W77050  17.615  40.020  13.018
17515W        W77051  26.671  32.936  13.445
17516W        W77052  11.186  26.653   0.342
17517W        W77053  20.525  28.546   2.401
17518W        W77054  12.791  38.355  14.759
17519W        W77055  41.504  18.740  10.961
17520W        W77056  42.906  25.622   1.814
17521W        W77057  18.731  12.715   0.479
17522W        W77058   7.795  28.171   1.303
17523W        W77059  35.457  42.918  12.575
17524W        W77060  33.415   2.952  10.581
17525W        W77061  42.954  18.671   3.163
17526W        W77062  18.563   1.932   2.285
17527W        W77063  42.894  31.077   1.263
17528W        W77064   6.820  11.281   3.338
17529W        W77065  29.648  35.085   2.674
17530W        W77066  16.756  30.132   1.918
17531W        W77067  26.165  30.467   4.670
17532W        W77068   4.759  23.688   1.443
17533W        W77069  10.816  41.908  10.964
17534W        W77070  26.545  29.976   0.850
17535W        W77071  17.115  25.610  12.553
17536W        W77072  40.354  33.991   1.847
17537W        W77073   7.362  25.501   1.875
17538W        W77074  26.071  21.698  12.345
17539W        W77075  38.828  14.182   2.289
17540W        W77076  40.451  34.413   0.735
17541W        W77077  22.719  18.145   3.201
17542W        W77078   5.221  22.015  11.120
17543W        W77079  11.688   9.798   2.738
17544W        W77080  37.951  16.785   3.703
17545W        W77081  42.490  39.402  13.981
17546W        W77082   1.844  36.927   2.860
17547W        W77083  28.575  25.033  13.853
17548W        W77084   6.862  36.041  13.386
17549W        W77085  34.891  18.551  13.998
17550W        W77086  27.468   4.425   4.829
17551W        W77087  13.146  14.675   0.913
17552W        W77088  38.982   9.680  12.438
17553W        W77089  10.657  34.373   2.394
17554W        W77090  34.535  22.582  13.047
17555W        W77091   5.778  25.628   1.715
17556W        W77092  25.022  25.061   2.305
17557W        W77093  43.821  38.960  11.044
17558W        W77094  31.482  43.271  10.439
17559W        W77095   8.363   5.404   4.176
17560W        W77096   2.435  30.963   1.433
17561W        W77097  41.429   5.205   1.405
17562W        W77098   2.784  11.333   3.232
17563W        W77099  40.432  11.685   0.333
17564W        W77100  34.373  37.968  10.998
17565W        W77101  26.967  39.350  10.614
17566W        W77102  44.365   4.941  14.361
17567W        W77103   4.798   1.741   1.730
17568W        W77104   7.415  17.743   0.895
17569W        W77105  34.607  31.586   0.807
17570W        W77106  38.074  26.094   1.779
17571W        W77107   4.824  27.616   0.931
17572W        W77108  33.984  10.720  13.897
17573W        W77109   7.750  16.719   4.803
17574W        W77110  41.894  23.687  12.574
17575W        W77111  42.968  11.717   2.757
17576W        W77112  25.153  34.599   3.689
17577W        W77113  24.605  33.916   0.369
17578W        W77114  19.079  41.518  13.935
17579W        W77115  24.714  44.819   2.392
17580W        W77116   4.213  29.552   3.282
17581W        W77117   3.861   3.950   0.440
17582W        W77118   1.274  20.253  12.835
17583W        W77119   2.440  44.342  10.111
17584W        W77120   4.943  36.974   1.901
17585W        W77121  38.992  30.959   0.777
17586W        W77122  10.729  14.101   1.910
17587W        W77123  13.208  40.499   2.723
17588W        W77124  44.389  36.552   0.357
17589W        W77125  27.952  16.244   1.329
17590W        W77126  30.967  21.584  10.514
17591W        W77127   0.858  37.496   2.819
17592W        W77128  21.125  36.500  12.480
17593W        W77129  19.572   1.739  14.777
17594W        W77130   3.219   9.343  13.313
17595W        W77131  34.971  16.190   4.694
17596W        W77132  39.890  18.755  11.111
17597W        W77133  40.409  43.966   2.312
17598W        W77134  32.951  42.965  11.478
17599W        W77135  13.747  37.060  13.433
17600W        W77136   1.939  43.925  11.389
17601W        W77137  23.679  17.144   4.281
17602W        W77138  32.583   0.978  10.556
17603W        W77139  40.922  20.527  12.921
17604W        W77140  34.038  27.005   4.275
17605W        W77141   2.946  36.565   2.228
17606W        W77142   7.892  20.561  11.997
17607W        W77143  32.915   7.872   1.791
17608W        W77144  13.140   9.149   2.192
17609W        W77145   1.298  16.280  13.384
17610W        W77146   6.862  39.521  13.996
17611W        W77147  11.814  18.290  11.942
17612W        W77148  37.972  30.110   2.896
17613W        W77149  35.443  44.325   2.793
17614W        W77150  27.994   2.867   3.813
17615W        W77151   6.748  22.503   0.731
17616W        W77152   5.736  40.434   4.191
17617W        W77153  25.050   8.265   2.712
17618W        W77154  24.643   1.288   0.785
17619W        W77155  34.452  17.631   4.289
17620W        W77156   3.729  31.488  10.548
17621W        W77157   1.733  38.345   1.300
17622W        W77158  29.011  29.135  14.982
17623W        W77159  18.742  10.778   4.830
17624W        W77160  11.817  28.007  10.451
17625W        W77161  41.425  44.387   4.351
17626W        W77162  22.710  12.706  14.814
17627W        W77163  35.909  42.444  14.490
17628W        W77164  33.086  28.157   5.200
17629W        W77165  38.378  35.016  11.048
17630W        W77166  11.849  27.460   2.254
17631W        W77167  22.184  23.005  13.489
17632W        W77168   6.205  42.292  12.880
17633W        W77169  29.646  39.041   2.217
17634W        W77170  33.882  22.523   4.342
17635W        W77171  27.475  20.163  12.361
17636W        W77172  11.245  36.361   2.875
17637W        W77173  22.585   6.412   0.759
17638W        W77174   5.306  30.436   1.369
17639W        W77175  41.802   7.751  13.398
17640W        W77176  18.296   4.719  11.442
17641W        W77177  35.395  33.046  14.759
17642W        W77178  41.507  10.637   2.285
17643W        W77179  20.173  19.534   2.791
17644W        W77180  24.023  32.135  11.563
17645W        W77181   7.353  42.785  14.856
17646W        W77182  22.098   3.842  11.058
17647W        W77183  41.800  16.120   3.689
17648W        W77184  42.512  34.467   2.290
17649W        W77185  12.211  37.846  12.501
17650W        W77186  12.842  41.446  11.964
17651W        W77187  27.497   8.743   3.639
17652W        W77188  31.577  28.597  11.460
17653W        W77189  14.228  40.441   2.671
17654W        W77190  17.153  24.626  12.834
17655W        W77191  35.008  22.061   4.691
17656W        W77192  36.942  18.125  14.319
17657W        W77193  22.685  41.382   4.144
17658W        W77194  23.000  38.946  10.973
17659W        W77195  37.080  22.059   0.786
17660W        W77196  12.317  39.042   3.380
17661W        W77197   6.388  31.515  13.794
17662W        W77198  38.073   6.281   2.292
17663W        W77199  17.665  38.386  12.550
17664W        W77200  22.128  39.378  13.812
17665W        W77201   5.328   1.871   3.329
17666W        W77202  41.796  31.531  11.612
17667W        W77203  25.135  18.721   1.390
17668W        W77204  37.020   9.329  14.505
17669W        W77205  31.118   9.148   1.815
17670W        W77206  34.089  16.197   2.890
17671W        W77207  24.144  38.497  11.929
17672W        W77208   6.767  44.863  13.450
17673W        W77209   0.961  25.607  14.341
17674W        W77210  18.089  27.670   1.407
17675W        W77211  16.178  31.919  10.573
17676W        W77212  31.917   2.833   4.714
17677W        W77213  18.082  26.555   1.879
17678W        W77214  37.076  38.900  13.494
17679W        W77215   8.213   3.810  10.458
17680W        W77216  13.166   0.914  12.825
17681W        W77217  37.966   4.375  14.372
17682W        W77218   9.831  16.112  10.990
17683W        W77219   6.774   1.891   3.630
17684W        W77220   3.779  21.742  11.554
17685W        W77221   0.751   7.713  14.926
17686W        W77222  23.201  24.598  11.913
17687W        W77223  16.594  36.560   4.652
17688W        W77224   8.396  37.423  13.822
17689W        W77225  29.584  24.484   0.345
17690W        W77226   8.181  37.835  13.339
17691W        W77227  32.542   4.852   2.787
17692W        W77228  40.480   4.310  13.037
17693W        W77229  28.175   7.869  11.414
17694W        W77230  43.916  24.981   1.400
17695W        W77231  19.218  10.213   4.778
17696W        W77232  20.701  35.057  14.821
17697W        W77233   5.215   0.955   4.304
17698W        W77234  22.518   8.362  12.834
17699W        W77235  27.031  33.968  13.874
17700W        W77236  30.653  18.635   0.806
17701W        W77237   3.905  35.899  14.820
17702W        W77238  31.588  19.224  14.282
17703W        W77239  41.933  44.755  11.885
17704W        W77240   7.887  30.075   2.225
17705W        W77241  16.747  30.529   0.358
17706W        W77242  31.430  25.181  12.348
17707W        W77243  33.528  44.315   4.801
17708W        W77244   2.937  43.283   2.873
17709W        W77245   0.856  24.021  11.431
17710W        W77246  44.774  22.648  10.598
17711W        W77247  28.617   2.295  12.580
17712W        W77248  29.967   3.359   1.425
17713W        W77249  44.857  25.022  10.547
17714W        W77250  41.991  35.416  13.307
17715W        W77251   3.940   8.876  11.876
17716W        W77252  37.070  36.098  13.456
17717W        W77253  25.091  26.567   4.833
17718W        W77254  28.441  12.233  13.941
17719W        W77255   5.295  32.094   0.727
17720W        W77256  37.037  34.865  14.953
17721W        W77257  17.641  14.317  10.487
17722W        W77258   1.869   2.749  10.596
17723W        W77259  13.195  12.249  12.006
17724W        W77260  17.217  44.982  12.040
17725W        W77261   6.203  39.823  12.554
17726W        W77262  38.421   3.734   3.702
17727W        W77263  40.818  44.308  11.939
17728W        W77264  37.409   3.330  11.932
17729W        W77265   9.370  29.143   3.371
17730W        W77266  30.980  15.705  12.848
17731W        W77267  38.335   2.345  12.843
17732W        W77268  37.053   7.255   3.331
17733W        W77269  26.620  19.048  10.054
17734W        W77270  37.575  13.669  14.490
17735W        W77271  15.114  10.758  11.890
17736W        W77272  13.725   3.850  14.411
17737W        W77273   7.868  18.576  10.438
17738W        W77274   8.384   7.297  14.515
17739W        W77275  18.107  10.798   3.644
17740W        W77276  16.223  12.292  14.480
17741W        W77277  37.505  14.656   2.771
17742W        W77278  13.809   2.798   4.207
17743W        W77279   5.844  32.939  12.838
17744W        W77280  31.900  14.621  11.566
17745W        W77281  42.464  13.655   2.187
17746W        W77282  18.579  20.753  11.529
17747W        W77283  39.355  16.626  13.381
17748W        W77284  17.564  42.960   2.707
17749W        W77285  36.581  29.536   2.277
17750W        W77286   1.789  35.585  14.472
17751W        W77287  38.326  40.510   3.237
17752W        W77288  13.145  21.231   5.091
17753W        W77289  41.494   0.336   3.673
17754W        W77290  42.402  11.127   2.881
17755W        W77291   3.902  29.936   4.804
17756W        W77292   3.811  11.261  10.926
17757W        W77293  25.980  31.950  11.486
17758W        W77294   2.244  31.418  10.931
17759W        W77295  22.205  15.084   3.262
17760W        W77296  24.591  32.141  14.942
17761W        W77297  15.814  19.614  10.003
17762W        W77298  14.272  32.008   2.894
17763W        W77299   7.866   1.388   2.837
17764W        W77300  34.418  12.658  13.420
17765W        W77301   2.793  19.057  12.933
17766W        W77302  36.042   6.184  12.384
17767W        W77303  13.656  35.000   0.926
17768W        W77304  41.982   8.861  11.407
17769W        W77305  16.773  43.493  11.560
17770W        W77306   0.769   5.902  14.479
17771W        W77307  40.325   2.910  11.103
17772W        W77308  15.655  34.516   1.750
17773W        W77309  14.779  12.357  11.013
17774W        W77310  32.581  37.087  13.969
17775W        W77311  31.467  40.442  12.486
17776W        W77312  25.001  26.208  11.944
17777W        W77313  12.701  13.312   0.813
17778W        W77314  10.635   1.363   0.803
17779W        W77315  39.364  32.082  13.033
17780W        W77316  20.261  15.643  10.457
17781W        W77317  41.911   1.976  14.330
17782W        W77318  24.523  10.271   2.671
17783W        W77319   0.426  23.100  10.621
17784W        W77320  30.929  35.940  12.492
17785W        W77321   4.761   1.740   0.359
17786W        W77322  39.314  25.600   1.773
17787W        W77323   9.773   9.721  14.940
17788W        W77324  39.061  15.144   1.258
17789W        W77325   5.880  20.164  14.480
17790W        W77326  20.072  42.332   3.715
17791W        W77327  15.244  16.277   1.374
17792W        W77328  33.071  30.513  13.861
17793W        W77329   2.945  18.209   0.363
17794W        W77330  15.681  25.979  11.544
17795W        W77331   6.889  19.721  14.932
17796W        W77332  38.419   3.256  11.426
17797W        W77333  23.170  29.027  14.514
17798W        W77334  16.287  18.671   3.666
17799W        W77335  11.212   5.925  13.343
17800W        W77336  34.564   0.809   9.503
17801W        W77337   4.728  28.676   1.425
17802W        W77338  16.699  36.972   2.189
17803W        W77339   0.263   7.713  14.816
17804W        W77340   6.256   4.925   0.769
17805W        W77341  25.051  11.266  12.908
17806W        W77342   2.331  24.138   3.272
17807W        W77343  41.413  39.534   2.803
17808W        W77344   0.861  23.657   3.267
17809W        W77345  15.796  19.661   5.765
17810W        W77346  21.163  42.883   4.637
17811W        W77347  38.052   6.727   4.635
17812W        W77348  39.934  13.268   4.152
17813W        W77349   2.724  39.022  14.990
17814W        W77350  37.374  42.818   2.382
17815W        W77351  33.618   3.418   9.962
17816W        W77352  32.009  22.715   3.352
17817W        W77353  36.396  22.629  10.474
17818W        W77354  30.040  39.942  13.517
17819W        W77355  36.589  15.653   4.294
17820W        W77356  19.098  42.380   2.403
17821W        W77357  33.875  27.021   2.853
17822W        W77358  20.687  31.413   2.419
17823W        W77359  23.003  18.219   0.364
17824W        W77360  11.334  43.383  13.895
17825W        W77361   5.692  30.020  14.816
17826W        W77362  41.376  21.136   0.322
17827W        W77363  10.721  33.387   4.136
17828W        W77364  11.155  35.992   0.248
17829W        W77365   4.352  11.250   1.925
17830W        W77366  24.210  44.002   1.719
17831W        W77367  22.173   8.758  12.490
17832W        W77368  22.023  43.764   0.289
17833W        W77369   9.834  27.954  13.009
17834W        W77370  36.872  29.497   3.769
17835W        W77371  10.156  33.478   0.956
17836W        W77372  41.825  12.642   0.439
17837W        W77373  11.725  37.393  13.388
17838W        W77374  11.838  35.432  10.407
17839W        W77375  10.737  39.525  12.352
17840W        W77376  37.039  16.635  13.359
17841W        W77377  19.715   3.231  12.909
17842W        W77378  18.699  24.158  13.800
17843W        W77379  26.017  12.252   3.359
17844W        W77380   8.237   3.224   4.320
17845W        W77381  16.097  19.685  11.409
17846W        W77382  44.479  21.717   1.820
17847W        W77383  44.882  37.398  12.860
17848W        W77384   7.694  33.465  13.892
17849W        W77385  20.593  37.947  14.312
17850W        W77386  12.778  44.816   3.277
17851W        W77387   3.232  14.730  10.560
17852W        W77388  38.457   2.446  14.445
17853W        W77389   8.301  14.794   1.732
17854W        W77390  41.483   2.820   1.761
17855W        W77391  37.466  42.930  11.584
17856W        W77392   2.753  31.574  14.941
17857W        W77393   0.892  44.405   0.758
17858W        W77394  14.131   9.364  10.987
17859W        W77395  24.706  11.731   0.807
17860W        W77396  44.913   0.477   1.413
17861W        W77397  24.215  21.197   3.365
17862W        W77398   8.328  15.299  11.906
17863W        W77399  36.579  41.852   4.747
17864W        W77400  10.643  20.592   2.381
17865W        W77401  22.222   3.749  12.456
17866W        W77402  32.983  42.523  13.809
17867W        W77403  14.305   9.825  14.353
17868W        W77404  23.607  11.681  11.050
17869W        W77405  20.645  35.064  11.557
17870W        W77406  10.336   5.699  13.812
17871W        W77407  40.374  30.104   1.712
17872W        W77408  20.164   9.742  11.988
17873W        W77409  38.382  26.699  12.071
17874W        W77410  43.363  37.375   1.887
17875W        W77411  28.466  29.131   5.237
17876W        W77412  17.710  14.324   2.328
17877W        W77413  28.063  24.544   1.782
17878W        W77414   3.330  31.987  13.444
17879W        W77415  38.073   5.855  14.479
17880W        W77416  39.497  35.102   4.322
17881W        W77417  18.680   5.235   4.711
17882W        W77418  30.652  34.468  13.387
17883W        W77419  38.824  12.212   4.272
17884W        W77420  30.989  22.566  14.987
17885W        W77421   2.271   0.920   3.175
17886W        W77422   4.887  30.542  10.969
17887W        W77423   8.203   8.226   4.286
17888W        W77424  15.146  26.607  13.407
17889W        W77425  35.879  44.756  12.505
17890W        W77426  15.735  36.091   3.666
17891W        W77427  14.741  20.593  14.350
17892W        W77428  17.142  21.684  12.069
17893W        W77429  41.352  35.564   1.900
17894W        W77430  12.169  29.022  11.523
17895W        W77431   1.926  16.123  11.876
17896W        W77432  24.545  35.048   4.152
17897W        W77433  32.631  18.239   1.912
17898W        W77434  38.010  14.667  13.851
17899W        W77435  12.808   0.750   2.830
17900W        W77436   4.249   3.228   4.198
17901W        W77437  37.042  11.364   2.764
17902W        W77438   5.693  21.081   3.235
17903W        W77439  11.853   4.314  11.942
17904W        W77440  24.040  11.269  11.856
17905W        W77441  24.514  15.231   1.259
17906W        W77442  39.002  10.247   3.824
17907W        W77443  29.567   4.221   3.744
17908W        W77444   6.228  44.360   5.163
17909W        W77445  28.594  31.447  13.046
17910W        W77446  38.876  22.586  12.933
17911W        W77447   9.266   9.818  14.317
17912W        W77448   5.861  32.458   1.290
17913W        W77449   0.323  32.021  12.955
17914W        W77450  41.848  24.149   3.830
17915W        W77451  25.686  32.443   4.658
17916W        W77452  26.116   1.887   1.762
17917W        W77453  44.809  29.445   2.229
17918W        W77454  13.617  36.527   2.729
17919W        W77455  37.982  24.713  11.939
17920W        W77456  29.110  31.615   0.291
17921W        W77457  36.434  12.305  13.320
17922W        W77458  39.933   2.346   4.204
17923W        W77459  34.115  43.772   0.727
17924W        W77460   9.762  16.699   0.885
17925W        W77461  17.603  25.132   1.440
17926W        W77462  29.628  21.118  10.960
17927W        W77463   5.424  19.757  12.823
17928W        W77464  21.244  41.336  11.074
17929W        W77465  32.024  12.816   3.748
17930W        W77466  21.222  43.457  10.982
17931W        W77467  15.169  27.957  10.416
17932W        W77468  19.043  27.964  14.491
17933W        W77469  16.577  43.303   3.830
17934W        W77470  34.582  14.685  11.005
17935W        W77471  30.548  10.871  11.473
17936W        W77472  14.803  19.217   5.235
17937W        W77473   0.253  40.938  12.394
17938W        W77474   1.889  17.743  12.389
17939W        W77475  41.520  19.107  11.505
17940W        W77476  26.025  28.526   4.598
17941W        W77477  25.673  13.333   3.757
17942W        W77478  31.979   5.283   2.304
17943W        W77479   6.710  13.310  12.481
17944W        W77480  15.298  28.177   4.807
17945W        W77481  30.014   3.285  14.497
17946W        W77482  11.862   4.253   2.371
17947W        W77483   6.184  33.474   2.347
17948W        W77484  39.818  37.485  10.411
17949W        W77485  26.020  38.902  13.897
17950W        W77486  12.282  12.357   1.251
17951W        W77487  27.583   0.897  13.964
17952W        W77488  21.519   6.721  12.054
17953W        W77489  39.497  25.044  14.353
17954W        W77490  38.030   2.240  12.959
17955W        W77491  43.945   1.360  13.860
17956W        W77492  14.268  13.122   3.737
17957W        W77493  12.340  19.120  11.458
17958W        W77494  43.781  22.040   2.860
17959W        W77495  43.467  16.574   4.835
17960W        W77496  43.003  25.655   4.832
17961W        W77497  19.238   7.755  14.380
17962W        W77498  42.521  33.517  10.475
17963W        W77499  35.091  43.961   2.249
17964W        W77500  38.403  24.638   0.427
17965W        W77501   1.873   9.334   1.932
17966W        W77502   8.661   1.349  14.462
17967W        W77503  23.091  42.945  13.950
17968W        W77504  10.733  42.028  11.953
17969W        W77505  32.994  39.908  11.516
17970W        W77506  20.616   8.265  13.022
17971W        W77507  23.536  21.205   2.816
17972W        W77508  20.104  33.396   2.214
17973W        W77509  28.185  17.152  10.604
17974W        W77510  43.506  12.732   2.841
17975W        W77511  10.712  42.011  11.495
17976W        W77512  32.494  12.632  13.835
17977W        W77513  15.314  17.243  11.403
17978W        W77514  40.931  35.938  13.511
17979W        W77515  15.665   9.881  13.338
17980W        W77516  12.214  42.002   1.884
17981W        W77517  31.991   6.746   4.802
17982W        W77518  29.483   7.905  11.936
17983W        W77519  16.076  35.601  11.509
17984W        W77520  23.575  14.313   0.327
17985W        W77521   2.418  28.071   3.757
17986W        W77522   0.392  29.504  14.760
17987W        W77523  32.133  11.204   3.267
17988W        W77524   7.389  11.366   0.949
17989W        W77525  22.589  31.522  14.303
17990W        W77526  37.051  13.340  13.009
17991W        W77527  15.578   5.380   4.122
17992W        W77528  10.658  29.017   3.856
17993W        W77529  25.215  33.105  12.353
17994W        W77530   1.452  18.650  12.865
17995W        W77531  19.198  28.063   3.330
17996W        W77532  20.596  37.370  13.944
17997W        W77533  11.839  33.553   0.334
17998W        W77534  20.721   4.900   2.692
17999W        W77535  18.741  22.571  12.413
18000W        W77536  17.085  12.154  11.902
18001W        W77537  15.605  44.447   3.715
18002W        W77538   9.289  36.540   3.161
18003W        W77539  25.026  20.060   9.583
18004W        W77540  34.448   4.768  10.895
18005W        W77541  37.396  22.634   1.735
18006W        W77542  42.911  22.175   4.204
18007W        W77543  28.581  39.833  11.602
18008W        W77544  35.989  25.606  14.910
18009W        W77545   4.862  22.209  11.403
18010W        W77546  39.832  20.572  13.319
18011W        W77547  34.923  30.988   2.407
18012W        W77548  41.387  24.685   0.873
18013W        W77549  13.165  37.073   4.224
18014W        W77550   9.836  41.390   1.861
18015W        W77551  36.061  27.964   1.266
18016W        W77552  10.789  15.102  14.943
18017W        W77553  22.104   1.284   0.868
18018W        W77554  32.119  28.102   2.198
18019W        W77555  21.742  20.589  11.927
18020W        W77556  24.484  37.024  10.426
18021W        W77557  16.784  16.741  11.035
18022W        W77558   6.296   8.663  11.597
18023W        W77559  16.090   5.286  11.009
18024W        W77560  19.672  13.817  13.453
18025W        W77561  10.778  43.832   4.287
18026W        W77562  33.072   1.443  10.929
18027W        W77563  18.208  33.055   2.391
18028W        W77564  38.498   2.348   0.254
18029W        W77565   1.806  34.092   1.855
18030W        W77566   0.329   6.261  11.117
18031W        W77567  22.682  36.406   1.212
18032W        W77568  21.139  42.344   0.776
18033W        W77569  21.625  31.151   2.188
18034W        W77570  35.980  31.593   3.870
18035W        W77571  39.971  38.852   4.150
18036W        W77572  25.119  40.894  10.902
18037W        W77573  17.791  36.396   2.677
18038W        W77574  44.270  22.177  10.531
18039W        W77575   8.215  23.719  14.461
18040W        W77576  29.112  20.056   1.432
18041W        W77577  24.661  41.889  12.552
18042W        W77578  23.045  21.627  11.062
18043W        W77579  39.416  27.976   1.694
18044W        W77580   1.764  24.494   4.317
18045W        W77581  18.646  12.278  14.310
18046W        W77582  16.760  10.726   1.220
18047W        W77583   5.266   4.720  12.397
18048W        W77584  25.215  31.033  12.533
18049W        W77585  29.040  36.482   1.909
18050W        W77586  36.350  29.482  12.854
18051W        W77587   4.271  36.925   2.686
18052W        W77588  15.167  41.871   0.822
18053W        W77589  24.145  28.173   4.598
18054W        W77590  12.755   7.417  14.770
18055W        W77591   3.719  13.802  13.405
18056W        W77592  20.221  34.957   0.296
18057W        W77593  11.325  36.877   3.679
18058W        W77594   1.375  15.083  10.442
18059W        W77595  14.772   7.359   3.661
18060W        W77596  15.165  33.603  11.439
18061W        W77597  13.221  23.621   3.179
18062W        W77598  23.612  23.496   3.724
18063W        W77599  32.048  13.158   1.701
18064W        W77600  28.561  25.499   2.200
18065W        W77601  42.325  30.965  14.021
18066W        W77602  12.359  16.739   3.154
18067W        W77603  25.159  39.901  13.360
18068W        W77604  30.151  24.179   4.155
18069W        W77605  17.222  21.118   2.848
18070W        W77606  14.323  41.531   4.353
18071W        W77607   8.723  12.356  11.601
18072W        W77608  22.105   7.173  11.936
18073W        W77609  14.115  10.644   4.673
18074W        W77610   3.834  44.830   3.772
18075W        W77611  39.953  41.956  10.434
18076W        W77612  38.536  25.556   3.374
18077W        W77613  37.990  24.603  13.420
18078W        W77614  41.947  19.070   1.381
18079W        W77615  13.201  24.593   1.712
18080W        W77616  37.874  29.014  11.044
18081W        W77617  16.573   5.323   3.175
18082W        W77618  26.168  26.077   1.313
18083W        W77619  13.204  44.809  12.426
18084W        W77620  37.464  13.830  11.024
18085W        W77621  12.273  11.626   4.631
18086W        W77622  36.900  36.418  14.488
18087W        W77623  39.857  37.976  11.016
18088W        W77624  41.426  31.950   0.944
18089W        W77625  16.170  34.976  14.335
18090W        W77626  20.180   6.721   2.280
18091W        W77627  10.382  19.675  10.963
18092W        W77628  27.472  31.064  11.878
18093W        W77629  18.578  21.137   2.673
18094W        W77630  42.472  29.007  11.065
18095W        W77631  38.896  43.497  14.339
18096W        W77632  31.998  43.901  14.385
18097W        W77633  19.627  19.742   3.200
18098W        W77634  24.182  34.121   4.756
18099W        W77635  31.152   8.782  12.347
18100W        W77636   9.847  28.178   2.713
18101W        W77637   7.237   3.869  12.368
18102W        W77638  32.454  18.260  14.502
18103W        W77639  23.584  31.538  14.478
18104W        W77640  35.043  22.114   2.359
18105W        W77641  44.996  42.460  12.863
18106W        W77642  34.402  22.013  11.124
18107W        W77643  24.976  26.060   1.776
18108W        W77644   6.253  12.822   1.220
18109W        W77645  34.426  40.332  13.840
18110W        W77646  16.313  34.422   5.273
18111W        W77647  40.987  28.507   0.340
18112W        W77648  27.058  16.798   3.795
18113W        W77649  32.007   1.757   2.813
18114W        W77650  44.992  40.456   2.383
18115W        W77651  32.892   7.842   1.405
18116W        W77652  23.497   1.762   1.884
18117W        W77653  35.919  19.054   1.450
18118W        W77654  12.748  11.231  14.377
18119W        W77655  14.600  17.247   4.180
18120W        W77656  44.913  34.588   0.366
18121W        W77657  17.764  31.559  14.434
18122W        W77658  13.174  12.750   4.769
18123W        W77659  21.619   7.195  13.063
18124W        W77660   6.413  42.939   1.858
18125W        W77661  27.689  25.189   1.907
18126W        W77662  25.063  14.697   1.247
18127W        W77663   0.876   0.261  12.486
18128W        W77664  27.985  35.588  14.856
18129W        W77665  39.549  28.026  10.563
18130W        W77666  19.719  29.575   0.795
18131W        W77667  21.198   4.296  14.333
18132W        W77668   9.371  24.037  13.426
18133W        W77669  26.016   7.229   0.457
18134W        W77670   2.252   1.393   1.799
18135W        W77671  42.438  14.697   3.358
18136W        W77672   4.769  14.783  10.977
18137W        W77673  30.058  22.624   2.200
18138W        W77674  44.308  43.785   5.295
18139W        W77675  24.594   0.987  12.988
18140W        W77676  23.490   9.249  11.433
18141W        W77677  34.612  34.995   0.931
18142W        W77678  20.667   6.343   2.807
18143W        W77679  28.128  14.225   0.925
18144W        W77680  34.035  17.697   0.440
18145W        W77681  30.526  22.232   1.349
18146W        W77682  35.508  24.041   0.399
18147W        W77683  16.085  13.821  14.281
18148W        W77684  32.092  13.319   3.840
18149W        W77685  36.483  27.945  12.399
18150W        W77686  29.141   2.313   3.210
18151W        W77687  23.496  27.565   2.177
18152W        W77688  24.639  33.886   1.933
18153W        W77689  35.386   6.805   1.888
18154W        W77690  28.062   7.899   3.859
18155W        W77691  27.678  11.363  14.903
18156W        W77692   2.301   1.471  14.356
18157W        W77693  41.839  41.536   2.339
18158W        W77694  22.559  25.534   1.281
18159W        W77695  33.513  30.945   2.761
18160W        W77696   5.348  37.459   0.727
18161W        W77697  28.448  30.075   1.279
18162W        W77698  29.485  20.180  11.490
18163W        W77699  40.816  41.824   4.174
18164W        W77700  41.388   4.222  11.039
18165W        W77701  38.407  30.442   3.292
18166W        W77702  39.895  25.102   2.811
18167W        W77703   9.254  16.782   3.343
18168W        W77704   4.248   7.289  13.947
18169W        W77705  18.777  18.678  11.100
18170W        W77706  29.978  23.521  14.357
18171W        W77707  24.559  32.526   0.440
18172W        W77708   2.290   0.893  14.885
18173W        W77709   0.813   1.949   0.306
18174W        W77710  36.056  26.951  12.477
18175W        W77711  14.146  20.193   0.422
18176W        W77712  35.506  24.091   1.334
18177W        W77713  20.210  34.387   2.834
18178W        W77714   8.175   3.792  12.412
18179W        W77715  28.437   8.880   2.287
18180W        W77716  37.468  33.119   2.292
18181W        W77717   8.883  10.202   4.352
18182W        W77718  30.494  11.855   1.239
18183W        W77719  27.486  18.111   0.793
18184W        W77720  41.442  20.031  14.426
18185W        W77721   5.333   5.390  11.384
18186W        W77722  24.699  33.410   0.855
18187W        W77723   9.330  11.368   1.800
18188W        W77724   6.783  18.649   4.770
18189W        W77725  31.984   9.257  11.070
18190W        W77726  42.005  32.510   4.653
18191W        W77727  22.598  17.746  13.813
18192W        W77728   4.423  28.938   2.248
18193W        W77729  18.190  12.164  13.900
18194W        W77730  10.845  18.080   2.893
18195W        W77731   1.735   7.872  13.948
18196W        W77732   7.854  28.033   4.661
18197W        W77733  41.992  41.028   4.692
18198W        W77734  16.695   7.240  12.540
18199W        W77735  39.064  36.359  12.940
18200W        W77736   7.751  18.150  14.883
18201W        W77737  25.186  34.371  11.007
18202W        W77738  13.196  33.562   0.928
18203W        W77739  22.119  41.368   0.867
18204W        W77740  30.565  42.322   0.280
18205W        W77741  28.115   8.230   4.263
18206W        W77742  28.122   2.268   1.882
18207W        W77743  10.299  29.637  13.337
18208W        W77744   5.891  23.500  12.428
18209W        W77745  41.895  43.513  11.415
18210W        W77746  43.429  13.147   2.898
18211W        W77747  23.027  20.233   3.146
18212W        W77748   1.866  30.013  11.926
18213W        W77749  32.503  30.928   2.702
18214W        W77750  13.788   5.364  12.870
18215W        W77751  39.326   6.210   2.418
18216W        W77752   1.383  39.391   3.756
18217W        W77753  22.646  23.733  12.475
18218W        W77754   0.270  40.867   4.326
18219W        W77755  13.705  42.362   3.193
18220W        W77756  11.662  36.842  14.832
18221W        W77757  37.874  10.781   1.820
18222W        W77758  36.509  17.098  10.125
18223W        W77759  10.263  32.564   0.358
18224W        W77760  25.472  29.989  13.922
18225W        W77761  20.700  37.531   3.822
18226W        W77762  27.476  10.173  13.423
18227W        W77763   0.918  43.941  12.533
18228W        W77764  34.585  12.241   1.805
18229W        W77765  38.974  32.502   1.826
18230W        W77766  33.894  12.792  10.976
18231W        W77767  35.415  35.411  14.486
18232W        W77768  34.492  31.002  10.412
18233W        W77769   7.814   6.398  10.035
18234W        W77770  32.595  34.552   4.184
18235W        W77771  12.315  14.115  13.844
18236W        W77772  41.968   6.849  15.000
18237W        W77773  13.183  13.123   0.298
18238W        W77774   0.431  28.624  12.431
18239W        W77775   3.334  29.636   4.320
18240W        W77776  27.162  33.125  11.531
18241W        W77777  42.835  37.427   4.264
18242W        W77778  34.024   8.893  12.364
18243W        W77779  20.173  12.663   4.788
18244W        W77780  42.440  34.545  11.567
18245W        W77781  31.533  22.138  11.012
18246W        W77782  17.707   1.900  14.772
18247W        W77783  34.506  10.249  14.428
18248W        W77784  32.089  41.935   4.236
18249W        W77785   7.218  13.256  10.439
18250W        W77786  22.615   2.274  11.394
18251W        W77787  13.157  29.928   1.247
18252W        W77788   0.783   5.793   1.290
18253W        W77789   6.353  21.519   2.211
18254W        W77790  32.546  11.830   0.885
18255W        W77791   1.774  33.943   4.699
18256W        W77792  12.208  37.932   3.699
18257W        W77793   4.375   0.969  12.518
18258W        W77794  32.409  12.322  12.001
18259W        W77795  38.398  18.186   0.276
18260W        W77796  12.642  24.198   3.359
18261W        W77797  34.893  19.582  12.007
18262W        W77798  20.049  25.084  11.908
18263W        W77799  34.963  24.706  10.992
18264W        W77800   0.494  31.552  14.030
18265W        W77801  44.911  34.933   1.248
18266W        W77802  25.560  30.471   0.299
18267W        W77803  33.925   2.239  14.018
18268W        W77804  29.453  32.405  12.552
18269W        W77805  12.688  27.574   0.311
18270W        W77806  26.106   4.926  10.036
18271W        W77807  36.590  27.482  10.543
18272W        W77808   6.785   6.202   0.319
18273W        W77809  29.477   3.384   4.763
18274W        W77810  43.848  10.674   1.935
18275W        W77811  27.058  43.941   2.723
18276W        W77812  30.567  42.468   4.653
18277W        W77813  30.116  14.748   3.709
18278W        W77814  31.911  41.863   2.220
18279W        W77815  32.911   6.681  13.307
18280W        W77816  30.959  41.411   2.826
18281W        W77817  39.878  25.016  13.025
18282W        W77818  31.561  20.697   0.746
18283W        W77819  26.552  10.680   0.817
18284W        W77820  10.276  20.215   2.715
18285W        W77821  35.902   5.327  13.815
18286W        W77822  19.755  29.668  14.834
18287W        W77823  41.904  19.146  12.533
18288W        W77824  26.108  44.457   2.714
18289W        W77825  13.674  37.368  11.531
18290W        W77826  41.889  10.788   2.326
18291W        W77827  29.582   7.280   1.898
18292W        W77828  27.620   0.364   4.821
18293W        W77829  14.786  21.706   3.301
18294W        W77830   9.866  33.936   2.404
18295W        W77831  12.740  43.767  13.047
18296W        W77832   0.840  16.795   0.483
18297W        W77833  34.951  41.975   4.297
18298W        W77834  18.575  29.549   4.815
18299W        W77835  16.176  33.943   2.803
18300W        W77836  28.651  39.954  14.020
18301W        W77837  32.108   7.402   0.903
18302W        W77838   4.902   9.151   0.266
18303W        W77839  20.197  14.143   1.902
18304W        W77840   6.401   7.702  14.900
18305W        W77841  44.954  42.814  14.497
18306W        W77842  38.427  26.173  13.842
18307W        W77843  16.262  17.250  14.876
18308W        W77844  10.698  16.675  12.879
18309W        W77845  30.949  23.515   1.254
18310W        W77846   6.706  17.168  14.809
18311W        W77847   3.447  44.491   2.783
18312W        W77848   6.390  32.459  13.034
18313W        W77849  33.608   1.374   2.773
18314W        W77850  16.094  35.013  11.916
18315W        W77851  33.624   0.932   3.238
18316W        W77852   9.210  36.845   2.804
18317W        W77853  11.741  19.187  10.508
18318W        W77854  10.177  31.571  11.965
18319W        W77855  26.030   3.308  11.509
18320W        W77856  42.953  23.554   0.460
18321W        W77857  16.230  21.680   0.249
18322W        W77858  35.472  25.589  12.016
18323W        W77859  21.656  18.102  12.977
18324W        W77860  32.496  17.072   0.917
18325W        W77861  29.924  38.071  12.563
18326W        W77862  32.955  42.962  14.432
18327W        W77863  12.155  40.955   2.723
18328W        W77864  20.714   1.846   4.722
18329W        W77865  14.733  22.087   1.927
18330W        W77866  40.409  26.478  14.340
18331W        W77867  12.300  24.072  14.822
18332W        W77868  38.961  13.327  13.310
18333W        W77869   4.214   7.753  12.376
18334W        W77870  10.634  25.052  12.414
18335W        W77871   3.892   0.313  13.848
18336W        W77872  13.823  28.028  13.855
18337W        W77873  26.689  37.010   0.901
18338W        W77874  31.623   6.404  12.080
18339W        W77875  35.389  16.154  11.916
18340W        W77876  40.867  30.934  11.917
18341W        W77877  42.382  32.003  11.107
18342W        W77878  37.394  38.929  10.922
18343W        W77879  12.344  37.847  11.093
18344W        W77880  25.042  22.226  13.876
18345W        W77881  38.936   1.895   2.350
18346W        W77882   3.305  36.018   3.668
18347W        W77883  19.263  18.554   0.471
18348W        W77884   5.750  14.653  11.078
18349W        W77885   4.236  40.333  11.036
18350W        W77886   3.351  35.572  14.341
18351W        W77887  43.440  32.034   4.253
18352W        W77888  20.601  12.611   4.626
18353W        W77889  30.087  44.420  13.884
18354W        W77890  36.590  31.500   2.258
18355W        W77891  26.164  33.909  12.875
18356W        W77892  15.115   4.388  13.051
18357W        W77893  37.916  28.974   1.414
18358W        W77894  38.987  29.465   1.783
18359W        W77895  21.551  40.931   3.379
18360W        W77896  19.096   2.949   3.308
18361W        W77897  18.647   0.974  12.898
18362W        W77898  34.069  34.382   4.167
18363W        W77899   7.831  23.687  14.936
18364W        W77900  17.586  42.406  14.006
18365W        W77901  44.356  32.081   2.746
18366W        W77902  19.592  12.733   3.158
18367W        W77903  40.455  37.922  13.048
18368W        W77904  24.527  16.118   5.205
18369W        W77905  20.262  41.441  10.138
18370W        W77906  15.290  30.050  13.890
18371W        W77907  40.884  37.030  14.899
18372W        W77908  42.796  36.096   3.201
18373W        W77909  23.692  13.709   3.272
18374W        W77910  34.430  30.513  11.598
18375W        W77911  41.996  39.837   1.284
18376W        W77912  16.119  31.523  13.063
18377W        W77913  35.454   1.891   9.938
18378W        W77914  43.367   3.228  13.482
18379W        W77915  31.594  39.831   3.280
18380W        W77916  36.859  37.044  13.947
18381W        W77917  13.800  42.370   3.850
18382W        W77918  17.149  25.124   5.166
18383W        W77919  27.493  35.110  11.444
18384W        W77920  18.571  28.502   3.659
18385W        W77921  23.173  39.350  14.791
18386W        W77922  17.751   9.339  11.599
18387W        W77923   4.702  21.146   1.854
18388W        W77924  11.748  34.108   4.652
18389W        W77925   5.794  23.504  14.296
18390W        W77926  10.272  35.893  12.996
18391W        W77927   0.384  17.128  14.768
18392W        W77928  10.226  40.984  14.818
18393W        W77929  32.566  16.279  11.532
18394W        W77930  12.733  14.823  12.405
18395W        W77931  25.647  34.514  10.988
18396W        W77932  20.203  25.155   5.256
18397W        W77933  30.427   4.771  10.518
18398W        W77934   2.895   3.448   2.687
18399W        W77935   6.852   9.675   0.340
18400W        W77936  25.012  40.861   3.806
18401W        W77937  23.176   4.229   2.819
18402W        W77938  13.161  14.292  14.974
18403W        W77939  36.039   8.181   0.257
18404W        W77940  29.932  19.549   3.783
18405W        W77941   0.828  28.664   1.330
18406W        W77942  20.574   1.975   2.861
18407W        W77943  44.767  18.160   4.213
18408W        W77944  19.704   1.396  13.839
18409W        W77945  41.924   8.218   2.709
18410W        W77946  42.497  13.134  11.386
18411W        W77947  22.217  26.634  11.604
18412W        W77948  43.884   3.294   2.878
18413W        W77949  11.192  28.675   1.451
18414W        W77950  32.939  19.544  11.904
18415W        W77951  21.563   8.898   0.401
18416W        W77952  33.913  24.033  11.045
18417W        W77953   2.880  29.585   5.702
18418W        W77954  33.073   4.854  12.068
18419W        W77955  25.594  16.680   5.222
18420W        W77956  14.769  31.074  11.521
18421W        W77957  41.502   1.940  12.948
18422W        W77958  43.292   7.247  12.904
18423W        W77959  27.503  21.213   1.773
18424W        W77960   8.825  11.165  11.001
18425W        W77961   3.787  40.808   3.260
18426W        W77962   5.923  36.576   1.934
18427W        W77963  17.738  10.213  14.930
18428W        W77964  34.385  25.054   4.724
18429W        W77965  28.513  44.381   1.440
18430W        W77966   3.220  27.084   0.374
18431W        W77967  13.766  26.543   3.641
18432W        W77968  32.623  20.754   4.790
18433W        W77969  42.814  17.232   4.692
18434W        W77970  28.104  35.578   3.264
18435W        W77971   2.941  16.686  10.587
18436W        W77972  15.601  44.846   2.184
18437W        W77973  25.090  33.495  14.948
18438W        W77974  24.117  20.258  13.455
18439W        W77975  42.297   5.849   4.835
18440W        W77976   3.314  28.545   2.260
18441W        W77977   3.395   0.253   3.724
18442W        W77978  24.040  23.995   4.351
18443W        W77979  35.899  38.559  11.957
18444W        W77980  25.495  13.221   2.894
18445W        W77981  37.941  10.835  13.414
18446W        W77982  27.516  32.403  13.894
18447W        W77983  41.375  36.404  14.461
18448W        W77984  34.017   4.928   2.891
18449W        W77985  36.896   5.390  10.523
18450W        W77986  20.191  34.109  12.890
18451W        W77987  16.588   9.338   2.256
18452W        W77988   5.818  44.855   0.371
18453W        W77989   2.832   7.833   2.219
18454W        W77990  44.987  28.939  11.927
18455W        W77991   8.843   5.785  11.549
18456W        W77992  18.553  24.151   1.250
18457W        W77993  11.744  26.519  12.877
18458W        W77994  28.511   1.857  13.887
18459W        W77995   9.227   3.315   4.810
18460W        W77996  38.384  24.042  12.887
18461W        W77997  20.726  31.492  13.472
18462W        W77998  41.413  41.384  13.308
18463W        W77999  16.599  15.090   1.775
18464W        W78000  36.030  44.945  10.010
18465W        W78001  28.027  22.689   3.304
18466W        W78002  17.224  22.736  10.040
18467W        W78003  17.106  36.563   1.744
18468W        W78004  31.921  30.144   4.210
18469W        W78005  33.560  29.032   1.909
18470W        W78006   4.750  30.509   4.662
18471W        W78007  38.841   8.335  10.411
18472W        W78008  22.696  44.497   1.410
18473W        W78009  34.094  28.445   3.841
18474W        W78010  19.102  13.775   0.851
18475W        W78011  23.138  22.554  13.929
18476W        W78012  33.615  30.968   3.644
18477W        W78013  44.896   6.205  12.359
18478W        W78014  38.426  28.501  14.368
18479W        W78015  29.454  14.115   3.313
18480W        W78016  40.801   6.297  11.914
18481W        W78017  18.125  22.513  14.515
18482W        W78018   3.280  17.182   4.800
18483W        W78019   0.374   8.248  13.965
18484W        W78020  12.676  38.027   4.803
18485W        W78021   7.858  23.999  13.315
18486W        W78022  26.605  10.635  14.347
18487W        W78023   9.184  36.468   1.794
18488W        W78024   3.358  20.706   2.720
18489W        W78025  39.923  41.867   2.209
18490W        W78026  33.561  36.044   4.690
18491W        W78027   4.236  27.988  12.563
18492W        W78028  26.070  14.238   0.423
18493W        W78029  17.120  24.019   1.256
18494W        W78030  14.260  31.600  12.502
18495W        W78031  12.700  28.672  12.033
18496W        W78032  26.504  43.779  10.987
18497W        W78033  30.945  27.509  13.847
18498W        W78034  39.467  16.115   2.824
18499W        W78035  35.897  33.402  14.933
18500W        W78036  41.846  34.904  14.511
18501W        W78037  21.666  26.049  13.803
18502W        W78038   5.295  42.487  13.973
18503W        W78039   4.269  24.506  14.509
18504W        W78040   0.866  31.412   0.910
18505W        W78041  14.764   4.351   2.704
18506W        W78042  24.198  25.692  12.533
18507W        W78043   9.369  25.470  12.542
18508W        W78044  38.848  32.507   3.221
18509W        W78045   0.854   8.764   0.944
18510W        W78046  10.169  29.626  11.522
18511W        W78047  15.107  28.159   0.864
18512W        W78048   0.817  37.514  11.528
18513W        W78049  11.719   3.397   0.750
18514W        W78050  44.010  16.594  13.983
18515W        W78051  18.153  20.241  10.614
18516W        W78052  15.125  15.277   2.212
18517W        W78053   2.348  12.834   9.673
18518W        W78054  31.072  26.120   3.183
18519W        W78055   6.365  11.772   0.927
18520W        W78056  28.109  31.968   3.232
18521W        W78057   6.685  11.851   2.366
18522W        W78058  37.379  31.621   4.725
18523W        W78059   2.279   9.221  12.461
18524W        W78060  41.953   3.932   4.329
18525W        W78061  37.424   8.659  14.933
18526W        W78062   2.309  32.952   4.729
18527W        W78063   6.219  41.394   0.939
18528W        W78064   2.470  37.992   1.425
18529W        W78065  37.999   3.867  14.826
18530W        W78066  32.984   5.739   4.282
18531W        W78067   5.340  27.022  10.972
18532W        W78068  38.940  42.281   0.318
18533W        W78069  34.085  44.830   1.805
18534W        W78070  11.315  29.921  13.879
18535W        W78071   2.291  19.592  10.449
18536W        W78072  27.059  42.297   4.817
18537W        W78073  22.658  36.457   2.290
18538W        W78074  15.674  12.261  11.577
18539W        W78075  44.343  21.107  14.031
18540W        W78076  17.188  40.854  11.058
18541W        W78077  32.425  42.441  12.081
18542W        W78078  35.039   5.247  12.999
18543W        W78079  23.599  40.865  10.415
18544W        W78080  10.172  11.205   4.735
18545W        W78081   2.867   8.390  12.025
18546W        W78082  10.736  31.481  13.917
18547W        W78083   3.238  19.543   4.294
18548W        W78084  42.520   7.821  11.508
18549W        W78085  21.199  25.081  10.553
18550W        W78086  18.174  16.658  10.453
18551W        W78087  10.661   3.771  14.443
18552W        W78088   2.842   5.718  11.079
18553W        W78089   7.248  31.493  12.484
18554W        W78090  29.976  38.425   0.886
18555W        W78091   0.309  10.214  11.565
18556W        W78092   7.379  12.780  11.527
18557W        W78093  13.306  23.526  14.848
18558W        W78094  18.254  23.502  11.006
18559W        W78095  38.493  11.216   0.891
18560W        W78096  15.643  18.085   1.721
18561W        W78097  42.992  11.347   5.699
18562W        W78098   7.788  33.443   4.715
18563W        W78099  33.541   5.705   2.863
18564W        W78100   9.874  30.912   0.903
18565W        W78101   2.735  36.399   2.778
18566W        W78102  22.233  31.003  12.510
18567W        W78103  13.646  36.983  14.494
18568W        W78104  14.308  26.021   0.954
18569W        W78105  19.058   7.371  12.865
18570W        W78106  24.150  35.911   2.201
18571W        W78107  38.963  37.961   1.915
18572W        W78108  13.677   5.848   0.957
18573W        W78109   3.302   3.934   3.161
18574W        W78110  41.312  33.110  14.337
18575W        W78111  23.034   3.925   9.623
18576W        W78112  43.405  25.117  13.820
18577W        W78113  25.197   8.868  12.059
18578W        W78114  18.718  12.208  11.418
18579W        W78115   3.301  19.767   2.711
18580W        W78116  29.956  37.554   1.381
18581W        W78117  23.631  24.061   4.616
18582W        W78118  20.150  43.339  11.554
18583W        W78119  27.685  38.338  14.476
18584W        W78120  23.227  16.288  11.470
18585W        W78121  16.097  10.327   2.411
18586W        W78122  29.617  15.714   3.274
18587W        W78123  28.121  27.011  13.310
18588W        W78124  18.082  11.669  14.929
18589W        W78125  38.384   5.407  12.573
18590W        W78126   5.710  19.116  11.904
18591W        W78127  10.252  37.892  13.972
18592W        W78128  16.233   9.710  12.399
18593W        W78129   4.380  16.693  14.798
18594W        W78130   4.313  28.077  11.991
18595W        W78131  21.211  41.520  10.419
18596W        W78132   2.862  38.011   0.802
18597W        W78133  24.163  37.521  12.354
18598W        W78134  16.779  10.296   4.615
18599W        W78135   2.739  15.577   3.825
18600W        W78136  17.745  40.340   4.160
18601W        W78137  28.474   9.247   0.418
18602W        W78138   3.761  38.435   2.262
18603W        W78139  16.596  31.510  10.604
18604W        W78140  44.350  37.900   0.936
18605W        W78141  13.163  33.423   1.301
18606W        W78142  35.870  18.092  13.853
18607W        W78143  26.183  44.775  14.479
18608W        W78144  28.472  29.946   3.364
18609W        W78145  29.641   6.875   0.936
18610W        W78146  37.378  21.033  11.940
18611W        W78147   8.189  42.826  12.570
18612W        W78148   8.801   7.743   0.745
18613W        W78149  19.658   7.333  13.311
18614W        W78150  43.335   3.872  14.396
18615W        W78151  37.876  32.905  10.617
18616W        W78152  37.011   9.344  11.106
18617W        W78153   4.893  15.324   1.930
18618W        W78154  42.334  23.123   0.385
18619W        W78155  39.964  37.353  11.085
18620W        W78156  41.383  21.248  13.485
18621W        W78157  31.416  12.772  13.820
18622W        W78158  25.668  14.639   0.252
18623W        W78159  25.131   5.920   0.910
18624W        W78160  10.141  15.229   2.293
18625W        W78161  28.559   5.848   2.722
18626W        W78162   4.407   4.871  14.286
18627W        W78163  17.228   3.747  14.451
18628W        W78164   7.230  14.147   2.313
18629W        W78165   4.373  10.335   1.249
18630W        W78166  23.054  11.687   4.294
18631W        W78167  27.098   0.466  13.799
18632W        W78168  36.373  12.837  13.007
18633W        W78169  20.755  31.419  13.912
18634W        W78170   5.733   2.913  14.929
18635W        W78171  19.245   4.937  11.524
18636W        W78172   8.755  36.480   2.272
18637W        W78173  30.505  27.447  11.563
18638W        W78174  17.091  24.549   1.435
18639W        W78175  36.051  44.918   1.369
18640W        W78176  44.978  17.571  12.387
18641W        W78177  17.686  24.973   2.678
18642W        W78178   5.277  42.857  11.081
18643W        W78179  39.476  29.635  11.383
18644W        W78180  17.617  25.148   0.956
18645W        W78181  43.990   8.703  11.907
18646W        W78182   4.438  11.212  10.615
18647W        W78183  13.710  37.957  12.398
18648W        W78184   9.342  32.583  12.841
18649W        W78185  38.902  22.602  10.900
18650W        W78186  30.413  32.435  10.561
18651W        W78187  35.422   1.910  14.396
18652W        W78188  37.885  14.815   2.719
18653W        W78189   8.338   9.309  14.945
18654W        W78190  42.011  27.036   4.765
18655W        W78191   4.888  10.772  13.324
18656W        W78192  21.524  38.460   4.351
18657W        W78193   8.829  33.025   1.242
18658W        W78194  21.048  18.081  12.420
18659W        W78195   3.787  42.316   1.390
18660W        W78196  37.547  39.879   4.246
18661W        W78197  16.290   8.189   4.265
18662W        W78198  18.762   3.306  10.903
18663W        W78199  17.679  39.044  11.405
18664W        W78200  37.832  44.940   0.249
18665W        W78201   8.219  32.401  14.292
18666W        W78202  30.934   0.308   0.401
18667W        W78203   5.424  26.567   1.833
18668W        W78204  20.580  15.646   4.353
18669W        W78205  42.407  42.337   0.759
18670W        W78206  31.015  34.477   3.800
18671W        W78207  39.483  13.239  11.401
18672W        W78208  12.275  33.935  11.491
18673W        W78209  31.454  39.545  11.869
18674W        W78210   8.743  44.433  11.545
18675W        W78211   3.890  12.279   3.763
18676W        W78212  23.023  24.021  12.402
18677W        W78213  32.437  11.208  12.084
18678W        W78214   6.873  17.207  11.504
18679W        W78215  25.506  31.082  11.537
18680W        W78216  36.416  21.157  10.092
18681W        W78217  29.539  34.030  14.406
18682W        W78218  17.722  40.039  14.027
18683W        W78219  37.582  37.581  11.467
18684W        W78220  17.207  15.165   2.410
18685W        W78221  37.403  14.714  10.483
18686W        W78222   6.327  44.809   4.234
18687W        W78223  13.189  44.891   4.313
18688W        W78224  27.462  23.222  13.856
18689W        W78225  27.531  27.481  11.404
18690W        W78226  22.026  38.984  10.960
18691W        W78227  37.413  24.687  13.901
18692W        W78228  30.460  19.278   0.335
18693W        W78229   1.884  39.501  12.000
18694W        W78230  34.080  16.796   3.160
18695W        W78231  28.491  39.849   4.667
18696W        W78232  20.643  17.084  12.468
18697W        W78233  24.168  26.575   0.341
18698W        W78234  43.511  39.868  11.912
18699W        W78235  26.119  37.849  12.464
18700W        W78236  32.971  33.935  13.507
18701W        W78237  38.396  37.478  11.496
18702W        W78238  40.034  34.063  14.942
18703W        W78239  30.164  44.302   1.717
18704W        W78240  31.423  23.719   4.132
18705W        W78241   3.225  13.717  13.386
18706W        W78242  20.659  30.122  12.996
18707W        W78243  39.046  38.014  12.459
18708W        W78244  21.744   3.400  14.869
18709W        W78245  40.953  37.421   4.682
18710W        W78246  39.520  31.624  12.886
18711W        W78247  10.213   2.423  11.428
18712W        W78248   7.790   2.965   3.357
18713W        W78249  12.335  28.999  12.576
18714W        W78250  12.728   6.354   2.764
18715W        W78251  32.496   3.307   1.883
18716W        W78252  25.205  24.667  13.054
18717W        W78253  21.154   0.442  11.547
18718W        W78254  33.079  43.286  10.965
18719W        W78255  18.131  34.999  11.992
18720W        W78256  29.004   5.708   0.262
18721W        W78257  27.674  40.363   0.317
18722W        W78258   3.400  31.644  12.892
18723W        W78259  36.866  24.640  14.382
18724W        W78260  24.170  20.745   0.958
18725W        W78261  29.666   8.168  14.945
18726W        W78262  11.818  17.148  10.935
18727W        W78263  17.619   3.738  13.985
18728W        W78264  27.658   9.349  13.341
18729W        W78265  15.229  29.601   4.742
18730W        W78266   4.884  44.488  11.459
18731W        W78267  18.718   6.350  11.041
18732W        W78268  36.050   1.441  12.871
18733W        W78269  23.596   2.338   0.834
18734W        W78270  27.542   9.281   3.791
18735W        W78271  37.473  24.036  11.609
18736W        W78272  36.531  13.669   1.286
18737W        W78273  11.768  28.003  12.870
18738W        W78274  33.457  39.884   0.762
18739W        W78275  44.865   6.785   1.436
18740W        W78276  25.578  36.950   4.245
18741W        W78277   9.645  43.507   3.784
18742W        W78278   5.758  23.119  13.840
18743W        W78279  31.959  28.929  14.883
18744W        W78280  13.784  20.644   3.639
18745W        W78281   9.701  25.192  12.864
18746W        W78282  42.460  24.181  11.101
18747W        W78283   9.859  11.205   2.218
18748W        W78284  18.257  44.334  14.975
18749W        W78285  30.998   3.729   1.731
18750W        W78286  38.892   2.955  13.852
18751W        W78287  41.807  22.173  13.010
18752W        W78288   3.382  44.417  13.421
18753W        W78289   2.269   3.849   3.300
18754W        W78290  38.352  25.633   0.365
18755W        W78291  13.610  10.261  14.950
18756W        W78292  28.177  10.793   3.640
18757W        W78293  21.614  42.883   0.878
18758W        W78294  40.924  17.571  13.307
18759W        W78295   3.763  34.982  12.435
18760W        W78296  21.594  19.174  11.927
18761W        W78297  30.477   8.365   4.673
18762W        W78298  43.405  27.001  12.063
18763W        W78299  32.142  16.076   3.318
18764W        W78300  15.195  33.096   1.385
18765W        W78301  15.766  15.221  12.452
18766W        W78302   2.904  37.548   0.313
18767W        W78303   9.704  43.400   4.817
18768W        W78304  38.496  12.669   0.431
18769W        W78305  33.046   3.344   4.283
18770W        W78306  28.567  41.848   4.168
18771W        W78307  28.521  21.221   0.830
18772W        W78308  19.238   0.962  11.603
18773W        W78309  42.388   8.180  12.047
18774W        W78310  25.165  42.383  13.059
18775W        W78311  36.445   2.829  13.031
18776W        W78312   3.368  39.479  11.032
18777W        W78313  40.503  35.855   5.223
18778W        W78314   8.818  33.436  11.031
18779W        W78315   6.886  29.137   4.186
18780W        W78316  31.517  26.468   2.830
18781W        W78317  15.316  32.137   3.162
18782W        W78318  20.698   3.732  10.422
18783W        W78319   1.894  27.125   3.200
18784W        W78320  37.433  13.644   2.705
18785W        W78321  19.757  23.055  11.102
18786W        W78322  30.092  44.880  13.325
18787W        W78323   7.825  12.220  12.471
18788W        W78324  37.018  25.541  10.606
18789W        W78325  12.183   1.933  11.083
18790W        W78326   7.839  25.602   4.637
18791W        W78327  43.291   3.732  12.357
18792W        W78328  38.069   4.725   5.141
18793W        W78329  26.049   4.874   0.900
18794W        W78330  36.392  25.492   0.323
18795W        W78331  22.029  32.629  14.828
18796W        W78332  13.275  32.405   0.876
18797W        W78333  13.742  33.090  12.905
18798W        W78334  20.231   9.755   4.139
18799W        W78335  21.158  10.734  10.595
18800W        W78336  11.758   4.373  14.787
18801W        W78337  40.897  28.625   1.856
18802W        W78338  13.116  36.885  11.425
18803W        W78339  20.087  25.637   4.285
18804W        W78340  22.228  35.546  13.818
18805W        W78341  27.998  35.033   5.305
18806W        W78342   7.841  36.449  13.426
18807W        W78343  41.324  16.228   0.315
18808W        W78344  43.955  26.186  11.487
18809W        W78345  32.086  12.337   1.879
18810W        W78346  36.410  13.283  11.094
18811W        W78347  18.636   6.277   0.328
18812W        W78348  15.115  25.126  12.472
18813W        W78349  20.714   1.387   0.306
18814W        W78350  32.958  24.196   0.762
18815W        W78351  18.556  36.593  10.595
18816W        W78352  43.963  24.631  11.059
18817W        W78353  11.840   6.414   0.790
18818W        W78354  35.592  15.101  13.398
18819W        W78355  29.545  24.494   1.910
18820W        W78356  28.160   7.270  11.373
18821W        W78357   1.428  10.764   3.187
18822W        W78358  23.027   3.939   4.197
18823W        W78359   6.218  21.217   0.361
18824W        W78360  10.862  33.432   0.890
18825W        W78361  17.770  31.133  12.470
18826W        W78362  14.628   6.197   1.352
18827W        W78363  29.947  28.948  12.469
18828W        W78364  26.582   4.369   4.332
18829W        W78365  18.775  22.204   3.204
18830W        W78366   0.800  27.665   3.756
18831W        W78367  25.168  43.324  11.903
18832W        W78368  23.519   7.270   2.288
18833W        W78369  23.003  27.059  13.461
18834W        W78370   6.287   0.876   2.738
18835W        W78371  22.119  21.626   3.731
18836W        W78372  41.992  41.402   9.964
18837W        W78373   7.277  32.529   1.263
18838W        W78374  34.590   6.272  14.991
18839W        W78375  16.093  11.646  14.875
18840W        W78376  17.600   6.281  14.301
18841W        W78377  24.600  11.654   3.148
18842W        W78378   2.851  27.622   1.236
18843W        W78379  28.180  11.664   3.788
18844W        W78380  28.008  13.780   1.801
18845W        W78381  15.213   5.777  10.455
18846W        W78382   9.315  30.151   1.414
18847W        W78383  36.873   9.189   3.192
18848W        W78384  21.661  14.189  12.510
18849W        W78385   2.762   9.372   2.310
18850W        W78386  27.555  16.127  10.931
18851W        W78387  44.830   1.427  13.503
18852W        W78388  33.941  10.218  10.081
18853W        W78389  21.025  36.937   0.960
18854W        W78390  11.837   3.295   4.807
18855W        W78391  37.077  18.224   4.317
18856W        W78392  11.763  12.136  10.505
18857W        W78393  17.774   2.452  13.877
18858W        W78394   6.794  13.830  12.987
18859W        W78395  22.570  43.346   2.709
18860W        W78396  44.965  17.703   0.368
18861W        W78397  38.998  37.559  14.939
18862W        W78398  34.993  23.502   4.626
18863W        W78399  42.024  10.140   1.383
18864W        W78400  42.839  29.507   3.817
18865W        W78401   1.360  27.492   2.306
18866W        W78402   1.804   3.342   4.677
18867W        W78403  42.513  11.166   2.282
18868W        W78404  24.988   3.810   4.247
18869W        W78405  19.203  32.628   0.454
18870W        W78406   0.942   0.392  14.409
18871W        W78407  20.577  25.665  12.351
18872W        W78408  21.130   4.731   3.323
18873W        W78409   4.339  28.086  14.842
18874W        W78410  36.898  27.945  11.005
18875W        W78411  11.809  35.018  13.370
18876W        W78412  32.616  36.881   0.879
18877W        W78413  16.100   7.873  13.012
18878W        W78414   3.356  39.451   0.830
18879W        W78415  36.977  17.697   4.675
18880W        W78416  30.027  24.191  14.015
18881W        W78417  38.436  44.946  10.936
18882W        W78418  11.334  38.955  12.828
18883W        W78419  37.936  10.180  11.868
18884W        W78420  22.645  24.979  14.493
18885W        W78421   5.201   2.350  14.392
18886W        W78422  15.192  34.531   3.790
18887W        W78423   2.376  17.284  12.059
18888W        W78424   9.827  17.710  14.314
18889W        W78425  28.509  13.290   0.257
18890W        W78426  42.869   2.748   2.867
18891W        W78427   2.255   8.869   1.725
18892W        W78428   1.826   7.212  12.464
18893W        W78429  36.980   2.889  10.600
18894W        W78430  36.516  22.561  13.895
18895W        W78431  10.152  37.567  10.633
18896W        W78432   2.896  29.642   2.794
18897W        W78433  39.387   1.379   2.343
18898W        W78434  42.893  31.129   2.862
18899W        W78435  26.689  17.693   4.801
18900W        W78436   9.650  43.516   0.469
18901W        W78437  29.539  40.508  14.501
18902W        W78438  12.337  34.483   1.832
18903W        W78439  25.711   6.257   0.335
18904W        W78440  34.522  36.898  10.926
18905W        W78441  28.938   5.790   1.344
18906W        W78442  43.020  34.436   2.902
18907W        W78443   0.281  13.179  14.415
18908W        W78444  14.141  17.791  11.391
18909W        W78445  44.916   3.340  10.091
18910W        W78446  31.042  38.508  14.491
18911W        W78447  29.577  19.649  11.088
18912W        W78448  18.090  19.735   3.663
18913W        W78449  22.096   8.195  10.991
18914W        W78450  18.780  30.964   0.431
18915W        W78451  33.966  28.557   0.272
18916W        W78452  40.537  43.372  11.051
18917W        W78453  36.910  29.536  12.080
18918W        W78454  17.131  16.786  10.430
18919W        W78455  22.206  12.141   4.157
18920W        W78456  30.624  31.907  14.332
18921W        W78457  12.203  16.613  11.391
18922W        W78458  38.366   6.754   0.765
18923W        W78459  29.477  11.141  14.940
18924W        W78460   2.455  32.919  11.997
18925W        W78461  20.190  11.786  14.344
18926W        W78462  36.589  31.414   1.360
18927W        W78463  13.316   3.910   4.272
18928W        W78464  30.965  24.174   0.793
18929W        W78465   4.712  10.257  13.019
18930W        W78466  34.516  32.403  13.453
18931W        W78467  32.062  32.908  14.958
18932W        W78468  37.568  37.420   0.897
18933W        W78469  20.557  41.017   3.304
18934W        W78470  35.580  25.172  13.492
18935W        W78471   1.840  12.234  11.112
18936W        W78472  17.623  33.459  12.947
18937W        W78473  25.518   3.808  11.456
18938W        W78474   2.923   3.833  14.967
18939W        W78475  31.468  28.041  13.526
18940W        W78476   1.852  42.892   1.222
18941W        W78477  38.837   7.798   3.370
18942W        W78478  42.006  19.039   2.860
18943W        W78479  28.508  20.077   1.240
18944W        W78480  15.106  26.183  12.986
18945W        W78481  38.503  11.233   1.739
18946W        W78482   4.883   5.793  11.557
18947W        W78483  39.537  18.194  14.985
18948W        W78484  14.114  32.496   2.400
18949W        W78485  27.467  21.616  13.851
18950W        W78486  37.866   7.843  11.484
18951W        W78487  20.165   9.179  10.510
18952W        W78488  44.495  39.868   9.953
18953W        W78489  21.103  21.527  11.503
18954W        W78490  22.673  14.739  14.473
18955W        W78491  13.600  26.191   3.641
18956W        W78492  23.572  40.852   3.185
18957W        W78493  42.913  30.500  12.072
18958W        W78494  43.273   8.321  12.084
18959W        W78495  17.782  17.705  10.953
18960W        W78496   6.382  21.750   1.243
18961W        W78497   5.213  41.411  10.566
18962W        W78498  31.034  13.119   4.687
18963W        W78499   9.790   9.709   3.831
18964W        W78500  34.461  13.768   2.364
18965W        W78501  11.782  28.455   3.809
18966W        W78502  13.205   6.677  14.965
18967W        W78503  13.348  25.548   3.223
18968W        W78504  12.166  14.298   1.451
18969W        W78505  15.782  17.718   1.357
18970W        W78506   8.378  13.669   3.342
18971W        W78507  19.040   5.765  10.407
18972W        W78508  35.371  16.093  12.834
18973W        W78509   7.782  41.407  13.541
18974W        W78510  43.975   5.794   1.307
18975W        W78511  34.043   9.761   0.250
18976W        W78512  33.048  24.180   3.188
18977W        W78513  31.992  42.348  14.933
18978W        W78514  26.951  44.459  13.402
18979W        W78515  27.486  26.953  10.469
18980W        W78516  16.801  31.974   1.305
18981W        W78517  35.944  36.036   2.356
18982W        W78518  19.600  44.989   1.212
18983W        W78519  41.410  25.048   1.430
18984W        W78520  41.535  44.384   0.381
18985W        W78521  42.295  41.951  11.473
18986W        W78522   7.680   5.856   3.181
18987W        W78523  29.139  39.007   2.727
18988W        W78524  30.618  12.744   4.266
18989W        W78525  39.813  29.153  13.449
18990W        W78526   8.760  27.080  12.544
18991W        W78527   6.320  15.789   2.182
18992W        W78528  35.908  33.880   2.356
18993W        W78529  24.123  25.566   0.292
18994W        W78530  18.640  17.261  11.460
18995W        W78531  32.528  11.719  11.024
18996W        W78532  20.721   4.770   0.433
18997W        W78533   5.328  30.579   0.292
18998W        W78534   9.779  35.565   4.119
18999W        W78535  13.313  39.409  14.439
19000W        W78536  15.096  33.489  13.994
19001W        W78537  33.117  36.407  12.903
19002W        W78538  14.121  35.911  14.880
19003W        W78539  22.055  41.449   2.879
19004W        W78540  22.723   9.151   3.223
19005W        W78541  20.681   4.302  13.831
19006W        W78542   8.313  19.701  10.559
19007W        W78543  20.650  39.359   2.363
19008W        W78544  18.547  40.904  10.916
19009W        W78545   5.802  15.644   3.145
19010W        W78546  19.722   5.291  11.612
19011W        W78547  32.077  22.736   2.377
19012W        W78548  18.709  24.523   4.822
19013W        W78549   1.830  25.114   0.364
19014W        W78550  33.555   3.255  13.450
19015W        W78551  29.983   9.686   1.926
19016W        W78552  15.773  27.132  12.874
19017W        W78553  37.454  10.288   4.804
19018W        W78554  13.221   6.742   0.764
19019W        W78555  16.242  40.798  14.825
19020W        W78556  36.076  24.507   4.237
19021W        W78557  21.670  37.342   4.329
19022W        W78558   9.650  43.842   0.373
19023W        W78559  42.417   0.824  12.410
19024W        W78560  25.617  44.424  15.000
19025W        W78561  24.521  22.516  14.387
19026W        W78562   3.916   1.873  14.017
19027W        W78563  10.800  38.068  13.471
19028W        W78564  22.009  34.986  14.368
19029W        W78565  43.940  13.615  13.420
19030W        W78566   1.844   4.312   0.282
19031W        W78567  38.997  17.108  13.883
19032W        W78568   1.807  23.210   0.887
19033W        W78569  34.084  22.243   2.710
19034W        W78570  21.208   5.415  12.577
19035W        W78571  30.556   7.367  10.900
19036W        W78572  30.603  33.559   1.272
19037W        W78573  39.342   4.272   1.317
19038W        W78574  11.263  43.805   2.718
19039W        W78575  27.551   5.740   0.384
19040W        W78576  20.161  27.963  12.517
19041W        W78577  20.125  33.957  13.973
19042W        W78578  19.093  44.838   3.349
19043W        W78579  43.978   2.440   4.302
19044W        W78580  34.013  29.059   4.311
19045W        W78581  36.867  21.221  12.512
19046W        W78582  19.613  17.147  14.478
19047W        W78583  33.068  41.409   1.214
19048W        W78584   2.244  35.083  13.804
19049W        W78585  27.624  10.202   1.294
19050W        W78586  15.111  29.468  13.447
19051W        W78587  11.247  15.206  14.394
19052W        W78588   5.689  27.062  11.448
19053W        W78589  19.691  39.829  11.581
19054W        W78590  32.545  25.128  12.884
19055W        W78591  11.816  33.578  10.526
19056W        W78592  35.454  18.684   0.751
19057W        W78593   4.223  36.390   1.434
19058W        W78594  15.642  27.690  14.963
19059W        W78595  12.741  21.240   4.720
19060W        W78596  25.015  37.574  10.913
19061W        W78597  25.500  10.284  12.863
19062W        W78598  26.128  29.482   1.867
19063W        W78599  40.374  28.137  13.919
19064W        W78600  26.202  29.060  13.860
19065W        W78601   4.753  13.189  12.976
19066W        W78602  28.084  40.936   2.683
19067W        W78603  26.982  34.405   1.840
19068W        W78604  34.511   7.225  13.308
19069W        W78605   0.411  33.454   2.347
19070W        W78606   2.257  22.590  14.862
19071W        W78607  24.135  38.370   0.410
19072W        W78608  18.718  28.148   2.406
19073W        W78609  41.943  12.308   0.472
19074W        W78610  33.425  22.593   3.237
19075W        W78611  31.905  14.639   3.711
19076W        W78612  37.004   3.317  11.111
19077W        W78613  43.300  28.005   4.604
19078W        W78614   3.806  27.574  11.600
19079W        W78615  36.385  33.445   2.253
19080W        W78616  36.854  25.663   1.377
19081W        W78617   4.775  21.173  11.031
19082W        W78618   9.300  14.210   1.229
19083W        W78619  35.471   3.794   4.295
19084W        W78620  10.664  25.028   4.748
19085W        W78621  42.977  31.975  13.921
19086W        W78622  13.305  18.079  11.587
19087W        W78623  17.139   0.953  12.411
19088W        W78624  40.900  26.641   4.236
19089W        W78625  24.541  34.979  13.986
19090W        W78626  22.166  42.900   2.404
19091W        W78627  26.701  26.574  11.522
19092W        W78628  22.729  19.146  13.383
19093W        W78629   4.736  21.213   2.709
19094W        W78630  15.226  16.237  11.883
19095W        W78631  42.420  30.498  14.467
19096W        W78632   1.976  24.560  12.096
19097W        W78633  12.674  31.447   0.481
19098W        W78634  38.962   7.223  11.983
19099W        W78635  17.650  14.181   4.669
19100W        W78636  37.547   0.859  14.772
19101W        W78637  10.292  27.028   0.751
19102W        W78638  12.833   5.701  14.385
19103W        W78639   3.242  25.584   2.407
19104W        W78640  31.941  40.519   5.107
19105W        W78641   3.314   6.922  10.985
19106W        W78642   2.796  23.621   0.352
19107W        W78643  37.926  37.420   4.346
19108W        W78644  29.666  40.542   1.261
19109W        W78645  20.625   0.882  12.509
19110W        W78646  26.521  36.055  13.798
19111W        W78647  31.453  44.857  13.805
19112W        W78648   7.202  33.913  14.476
19113W        W78649   9.685  34.922   2.859
19114W        W78650  32.566  26.549   0.306
19115W        W78651  44.962  15.745   1.392
19116W        W78652  10.339  22.659  13.880
19117W        W78653  40.869  16.156   1.372
19118W        W78654  36.979  37.475  11.910
19119W        W78655  44.796  27.066   3.646
19120W        W78656  16.204  36.880  10.893
19121W        W78657  40.979   9.341  14.822
19122W        W78658  44.389  12.751   1.859
19123W        W78659  24.203  44.495  14.364
19124W        W78660  24.612  27.535   2.412
19125W        W78661  40.434  24.155  12.084
19126W        W78662  31.471  34.403   4.634
19127W        W78663  34.903   1.915   2.203
19128W        W78664   1.893  38.861  12.346
19129W        W78665  28.611   2.835  11.566
19130W        W78666  38.907  35.388  14.793
19131W        W78667  22.546  23.670   3.849
19132W        W78668  39.321  13.107   1.313
19133W        W78669  36.989  19.280   3.333
19134W        W78670  12.760  35.409  11.121
19135W        W78671  42.871   0.333  13.378
19136W        W78672  44.777   0.839  10.464
19137W        W78673  14.139   9.367   0.415
19138W        W78674  37.545  30.623   0.310
19139W        W78675   1.759  44.398   0.416
19140W        W78676  29.967   2.785   2.281
19141W        W78677  14.177  38.866   4.673
19142W        W78678  29.645  25.588   3.383
19143W        W78679  26.545  21.196   3.720
19144W        W78680  22.135  10.800   0.747
19145W        W78681  40.895  40.516  13.975
19146W        W78682  29.630  27.192  11.404
19147W        W78683  15.824  25.600  14.462
19148W        W78684  39.818  16.152  12.389
19149W        W78685  20.716   8.381  14.863
19150W        W78686   6.833  35.417   2.799
19151W        W78687  31.585  15.232   1.219
19152W        W78688  25.619  10.778   4.677
19153W        W78689   2.909   7.359   0.465
19154W        W78690  35.530  20.220  11.965
19155W        W78691  11.815  34.116   0.878
19156W        W78692  40.523  16.722  14.766
19157W        W78693  23.701   4.767   2.385
19158W        W78694  39.420  39.325   3.656
19159W        W78695   8.753   8.881   4.215
19160W        W78696   1.935   0.904  10.987
19161W        W78697  10.140  42.861  12.494
19162W        W78698  43.885   0.394  13.357
19163W        W78699  11.365  13.292  12.063
19164W        W78700  32.068   7.839  13.054
19165W        W78701  11.162  20.596   1.709
19166W        W78702   8.750  21.081   2.672
19167W        W78703  36.056  14.317   4.820
19168W        W78704  25.664  16.318  10.459
19169W        W78705  42.473  14.724  11.415
19170W        W78706  28.153  19.553  11.469
19171W        W78707  27.113  35.889  12.954
19172W        W78708   6.792  11.305  14.797
19173W        W78709  38.905  16.687   1.416
19174W        W78710  42.030  34.423  12.960
19175W        W78711  10.874  44.320   3.346
19176W        W78712  40.033   0.904  12.852
19177W        W78713  39.417  37.046  14.929
19178W        W78714  28.470  41.026   4.711
19179W        W78715  27.019  23.720   1.212
19180W        W78716  30.098  43.021  14.464
19181W        W78717  39.950  11.214  10.902
19182W        W78718  23.541   3.788  10.956
19183W        W78719  25.193  38.010   0.926
19184W        W78720  11.357  44.829  12.351
19185W        W78721  12.730  25.194   0.884
19186W        W78722   5.211  17.168   0.883
19187W        W78723  25.646  42.951   2.695
19188W        W78724   5.795  29.563  11.991
19189W        W78725  44.824  30.929  11.513
19190W        W78726  38.074  32.393  10.615
19191W        W78727  18.266  41.309   2.206
19192W        W78728   8.806  10.781   0.944
19193W        W78729   5.745  42.931  12.416
19194W        W78730  40.390  16.074   1.248
19195W        W78731   0.370  28.565   0.361
19196W        W78732  29.982  34.027   0.926
19197W        W78733  21.613  27.149  13.325
19198W        W78734   3.841   7.866   0.790
19199W        W78735  19.682  29.636  13.346
19200W        W78736  13.310  30.419  14.862
19201W        W78737  39.038   7.759  13.000
19202W        W78738  36.942   5.755   0.892
19203W        W78739  12.204  44.338   1.399
19204W        W78740  28.098  10.230   4.330
19205W        W78741  36.470  19.584   5.190
19206W        W78742  21.123  34.565  11.391
19207W        W78743   1.356  18.730   1.223
19208W        W78744   5.299   0.253   3.270
19209W        W78745  27.474   4.231   2.401
19210W        W78746  35.943  19.573   3.835
19211W        W78747  14.157   9.863  13.942
19212W        W78748  44.942   1.821  12.021
19213W        W78749  15.297  38.853   3.850
19214W        W78750  31.046   9.704   3.199
19215W        W78751  24.665  27.504   4.652
19216W        W78752  44.921  15.761   0.453
19217W        W78753  25.154   1.260   4.184
19218W        W78754  20.215  30.131  10.934
19219W        W78755  28.162  33.996  14.496
19220W        W78756   3.819  19.198   4.683
19221W        W78757  24.217  36.077   3.349
19222W        W78758   7.237  15.235  10.549
19223W        W78759  33.444  24.565   1.257
19224W        W78760  25.691  20.646   4.176
19225W        W78761  21.528  22.624  14.807
19226W        W78762  17.618  43.862  11.402
19227W        W78763   4.210   7.875   4.124
19228W        W78764  27.691   3.346   4.204
19229W        W78765  22.108   1.960   1.334
19230W        W78766  15.658  41.886  14.760
19231W        W78767   7.220  22.630   3.315
19232W        W78768   8.656   7.294   0.824
19233W        W78769  37.900  25.510  14.420
19234W        W78770  26.625  36.359   2.827
19235W        W78771  28.121  36.578  14.985
19236W        W78772  21.213  26.034  10.040
19237W        W78773  17.561  29.452  12.415
19238W        W78774  18.595  25.096  11.049
19239W        W78775  33.548  24.588   3.669
19240W        W78776  35.974   1.848   5.567
19241W        W78777   6.205  29.057  10.102
19242W        W78778  22.032  29.472   1.772
19243W        W78779  18.116  19.735   2.219
19244W        W78780   9.236  19.645  12.848
19245W        W78781  30.582  36.520   1.445
19246W        W78782  14.610   1.273  13.955
19247W        W78783  15.797  29.622   4.344
19248W        W78784  31.117  12.271  12.498
19249W        W78785  42.869   8.222  12.036
19250W        W78786  14.275  15.292  14.772
19251W        W78787  33.400  17.667  12.833
19252W        W78788  38.990  33.006  14.777
19253W        W78789  12.784  11.354  12.443
19254W        W78790  35.521  26.658   5.308
19255W        W78791  34.917  39.390   4.652
19256W        W78792  12.669   0.957   2.342
19257W        W78793   4.783  12.682  13.836
19258W        W78794  18.589  24.551   0.932
19259W        W78795  19.189   0.945  12.406
19260W        W78796  25.656  29.013   4.700
19261W        W78797  34.378   2.788   5.585
19262W        W78798  40.865   3.776  13.354
19263W        W78799  41.786   8.754  11.885
19264W        W78800  27.006  26.162  11.014
19265W        W78801  28.078   4.766   0.745
19266W        W78802  15.631   2.239  12.057
19267W        W78803  25.652   3.451  13.792
19268W        W78804  32.941  12.709   2.392
19269W        W78805  38.524  10.329   3.149
19270W        W78806  39.546  42.973  14.386
19271W        W78807   9.340  21.554  12.477
19272W        W78808  23.167  20.547  10.910
19273W        W78809  21.069  29.549  13.998
19274W        W78810  39.454  35.010  12.409
19275W        W78811  16.793  42.852  12.473
19276W        W78812   2.895   0.269  10.928
19277W        W78813  30.993   1.923   1.420
19278W        W78814  15.756  18.578  11.028
19279W        W78815  20.680  11.206  14.765
19280W        W78816  22.239  12.748   3.796
19281W        W78817  24.127  33.123  14.294
19282W        W78818   9.271  12.854  14.431
19283W        W78819  35.521  22.714  11.869
19284W        W78820   1.820  42.346   4.122
19285W        W78821  13.285  14.268  13.933
19286W        W78822  30.441  36.020   4.346
19287W        W78823  39.557  14.659  14.907
19288W        W78824   7.855  29.005  13.353
19289W        W78825  39.443   0.422  11.020
19290W        W78826  42.998   5.803   1.888
19291W        W78827  24.517   9.747  11.954
19292W        W78828   9.808  12.674   0.244
19293W        W78829  26.136  30.137   3.770
19294W        W78830  30.613  39.322   0.280
19295W        W78831  23.531  40.476  12.356
19296W        W78832  44.345  29.531  12.433
19297W        W78833  16.161   2.823  13.535
19298W        W78834  41.440  37.380   0.886
19299W        W78835   4.906  43.290  10.479
19300W        W78836  27.470  26.608   2.284
19301W        W78837  29.079   9.691  11.601
19302W        W78838  10.848  37.455   3.330
19303W        W78839  13.623   8.655   4.815
19304W        W78840  11.834  39.318  12.356
19305W        W78841  34.865  30.147  13.816
19306W        W78842  16.243  16.266  14.914
19307W        W78843  22.700  37.899  13.481
19308W        W78844  10.729  12.355  13.392
19309W        W78845  35.897  33.891   1.880
19310W        W78846  36.044  16.634   1.896
19311W        W78847  29.918   8.831  13.362
19312W        W78848   8.243  38.549  14.904
19313W        W78849  12.127  39.466  11.431
19314W        W78850  21.700  42.005   3.188
19315W        W78851   1.250  26.514  14.483
19316W        W78852  34.604   9.356   1.908
19317W        W78853  34.976  21.158  10.121
19318W        W78854  25.517  23.577  12.907
19319W        W78855  19.262  31.969   4.183
19320W        W78856  37.023  27.127   1.774
19321W        W78857  21.232  40.395   2.257
19322W        W78858  27.624  18.181  14.278
19323W        W78859   2.259  14.186  13.059
19324W        W78860  41.928   4.897  10.973
19325W        W78861  12.321  13.635   2.303
19326W        W78862  44.997  32.529   0.267
19327W        W78863  37.490  14.786  14.509
19328W        W78864   5.847  30.046   3.697
19329W        W78865   0.856  20.182  14.304
19330W        W78866   3.830  14.125  11.078
19331W        W78867  25.098  34.569   0.939
19332W        W78868   7.311   0.921   1.363
19333W        W78869  27.965  13.733   2.894
19334W        W78870   3.802  41.976  11.006
19335W        W78871  13.339  18.239   5.309
19336W        W78872   9.820   0.769   2.800
19337W        W78873   4.295  14.157  14.436
19338W        W78874  21.215  29.521  12.895
19339W        W78875  23.595  43.418  12.416
19340W        W78876  41.292  43.960  10.631
19341W        W78877  38.968   4.868  12.571
19342W        W78878  28.080  27.080  11.599
19343W        W78879   5.896   0.925  10.537
19344W        W78880   5.340  28.600  14.467
19345W        W78881  41.800  44.768  12.430
19346W        W78882  16.662  14.824   0.836
19347W        W78883  34.389  20.570  13.503
19348W        W78884  15.723  28.449   2.702
19349W        W78885   1.842  24.130  12.580
19350W        W78886  35.099  40.361  13.446
19351W        W78887  37.493   4.232  12.386
19352W        W78888  22.611  35.018  13.527
19353W        W78889   2.332  32.113   4.788
19354W        W78890   3.358  33.478   4.627
19355W        W78891  35.387  27.048  12.828
19356W        W78892  11.182  10.714  14.480
19357W        W78893   0.252  23.512   4.144
19358W        W78894  41.938   7.771  11.030
19359W        W78895  10.718  43.968   1.308
19360W        W78896  18.558  35.890  11.943
19361W        W78897  27.499   3.727   4.266
19362W        W78898  44.365  42.032  13.485
19363W        W78899  42.948  12.277  12.377
19364W        W78900   5.931  22.741   4.803
19365W        W78901  14.279  17.278  10.509
19366W        W78902   6.413  11.166   2.418
19367W        W78903  14.271  21.576  13.801
19368W        W78904   0.849  30.979  13.517
19369W        W78905   4.208  17.133  14.816
19370W        W78906  14.833  16.717   2.184
19371W        W78907  27.987   9.751  12.852
19372W        W78908  18.546  12.120  13.485
19373W        W78909  28.174   6.281   2.291
19374W        W78910   5.836  11.132  13.885
19375W        W78911   5.918   0.779  14.485
19376W        W78912  17.773  22.578   1.446
19377W        W78913   9.228   0.447   0.378
19378W        W78914  30.413   4.412  10.448
19379W        W78915  43.884   2.950   4.733
19380W        W78916   0.265  32.489  13.867
19381W        W78917   5.699  24.113   1.810
19382W        W78918  21.676  29.150  14.364
19383W        W78919  26.520  27.032  14.795
19384W        W78920  16.087  29.554  14.450
19385W        W78921  18.279  43.483  13.312
19386W        W78922  26.968   3.405  10.426
19387W        W78923  29.952   8.727   4.784
19388W        W78924  18.144  39.396   4.665
19389W        W78925  29.168  34.392  12.084
19390W        W78926  38.964  43.002   0.799
19391W        W78927  17.567  25.698  12.970
19392W        W78928   0.749  23.076  13.006
19393W        W78929   9.784  27.041   0.248
19394W        W78930   7.733  39.843  10.975
19395W        W78931  37.867  40.305   1.711
19396W        W78932  22.068   5.770  12.833
19397W        W78933  30.965  42.005   4.212
19398W        W78934   6.841  14.777   3.755
19399W        W78935   9.661   2.370  10.626
19400W        W78936  26.100  33.129  12.003
19401W        W78937  41.381  40.977  11.534
19402W        W78938  12.137  34.937  10.578
19403W        W78939  11.171  22.060  13.038
19404W        W78940   8.347  35.505  10.896
19405W        W78941   9.819  38.462   3.277
19406W        W78942  17.249  43.305   1.873
19407W        W78943   1.851  28.966  14.398
19408W        W78944  19.182   3.767  14.496
19409W        W78945  16.197  15.287  14.024
19410W        W78946  41.922  38.329   2.901
19411W        W78947  40.001  13.234   3.337
19412W        W78948  35.004   8.714  14.288
19413W        W78949  19.771  24.669  14.416
19414W        W78950  31.536  15.326   0.844
19415W        W78951  44.385  44.291   0.281
19416W        W78952   6.429  21.631  12.442
19417W        W78953   1.450  34.006  12.005
19418W        W78954  31.065   8.220  14.817
19419W        W78955  42.486   9.816  13.898
19420W        W78956  23.523  27.551   4.760
19421W        W78957  21.059  31.545   0.959
19422W        W78958  40.399  26.539   1.737
19423W        W78959   9.654  37.967   1.825
19424W        W78960   1.973  21.232  14.463
19425W        W78961  40.399  25.130   0.249
19426W        W78962  10.251   5.880   0.738
19427W        W78963  20.067  27.567   2.799
19428W        W78964   0.414  11.200   9.967
19429W        W78965  13.154   1.842   2.866
19430W        W78966  20.234  34.443  12.039
19431W        W78967  43.783   8.672   1.838
19432W        W78968  16.213   0.363  13.928
19433W        W78969  25.058  23.185   3.728
19434W        W78970  11.775  32.614  10.504
19435W        W78971   6.683  19.160  10.943
19436W        W78972  10.355  34.083   3.776
19437W        W78973  22.202   5.388   2.350
19438W        W78974  24.709  12.733   1.887
19439W        W78975   0.404  39.526  13.471
19440W        W78976  14.119  27.091   0.337
19441W        W78977  25.128  28.533   3.371
19442W        W78978  24.542   8.817   4.244
19443W        W78979  37.073  35.589   2.242
19444W        W78980  23.676  10.255   2.696
19445W        W78981  19.056   1.386   4.658
19446W        W78982  33.445  27.605  10.447
19447W        W78983  36.556   5.792   3.313
19448W        W78984  21.660  43.400   0.783
19449W        W78985  20.648  42.395  13.484
19450W        W78986  18.762   1.376  12.423
19451W        W78987  17.713  42.956  14.947
19452W        W78988  35.974  42.476  14.993
19453W        W78989  18.764  36.527  12.483
19454W        W78990   2.838   6.788   1.760
19455W        W78991   1.478   2.772  11.088
19456W        W78992   0.938  43.366   0.251
19457W        W78993  43.514  18.180  12.827
19458W        W78994  14.267  19.770  12.963
19459W        W78995  17.106  36.011   3.147
19460W        W78996  31.941  32.955   1.419
19461W        W78997  16.598  19.170   1.406
19462W        W78998  38.022  31.058   3.381
19463W        W78999   9.273  13.774   4.623
19464W        W79000  20.706  16.692   4.251
19465W        W79001  37.389  30.645   3.832
19466W        W79002  31.590  29.127  13.004
19467W        W79003  26.585  43.946  11.605
19468W        W79004  12.125   9.354  12.848
19469W        W79005  22.539  23.011   4.128
19470W        W79006   6.818  38.346   3.355
19471W        W79007  33.000  22.055  12.948
19472W        W79008  14.617  19.681  10.110
19473W        W79009  17.181  40.864   0.460
19474W        W79010   4.882  23.054   1.834
19475W        W79011  34.072   2.468   1.212
19476W        W79012   5.757  40.890  12.850
19477W        W79013  13.253  43.386  13.454
19478W        W79014  10.257  28.479   4.342
19479W        W79015  14.600  41.875  11.875
19480W        W79016  40.798  37.062   1.757
19481W        W79017  19.270  10.777  14.030
19482W        W79018   9.384  13.845  13.497
19483W        W79019  44.337   6.736   2.254
19484W        W79020  37.850  30.132   1.438
19485W        W79021  17.737  16.736  13.517
19486W        W79022  15.651  21.035   0.460
19487W        W79023  14.236  34.896  14.500
19488W        W79024   6.262  44.755  13.791
19489W        W79025  31.933  18.586  13.365
19490W        W79026  44.446  36.007   4.145
19491W        W79027  14.781  42.322  10.946
19492W        W79028  30.161  14.787  14.504
19493W        W79029   7.713  21.629   1.373
19494W        W79030  23.666  22.081  10.590
19495W        W79031  35.909  43.482   2.776
19496W        W79032  37.510  10.168   2.266
19497W        W79033  35.098  25.683   2.728
19498W        W79034  39.494  32.510  11.462
19499W        W79035  11.178  17.680  12.348
19500W        W79036  38.390  29.538   4.267
19501W        W79037  31.408  43.927  13.322
19502W        W79038   7.817  33.963   2.209
19503W        W79039   1.827  16.280   1.883
19504W        W79040  10.868  21.606  14.351
19505W        W79041  29.608  11.304  11.438
19506W        W79042   5.714  25.526   3.665
19507W        W79043  10.269   4.748  13.853
19508W        W79044  30.466  15.224   2.701
19509W        W79045  12.328  37.545   2.724
19510W        W79046   5.205  34.112   2.341
19511W        W79047  26.057  43.780   0.933
19512W        W79048   5.226  40.324   2.849
19513W        W79049   1.313  35.483   1.890
19514W        W79050  26.501  10.179   4.177
19515W        W79051  25.490  14.221  14.806
19516W        W79052  42.810   2.764   0.942
19517W        W79053   2.392  39.377  12.028
19518W        W79054  38.989  29.070   1.811
19519W        W79055   4.764   1.425  10.939
19520W        W79056  44.976  43.804  12.352
19521W        W79057  19.668  10.214   4.268
19522W        W79058  18.755  39.325  11.926
19523W        W79059  18.115  34.491  14.301
19524W        W79060  38.374  31.990   1.746
19525W        W79061  29.144   9.853  12.475
19526W        W79062  16.139  24.595  12.959
19527W        W79063  16.108  10.789   2.324
19528W        W79064   9.277  22.206  11.940
19529W        W79065   3.417  25.042   3.178
19530W        W79066  23.165  12.153   4.782
19531W        W79067   4.447  42.455  12.948
19532W        W79068   2.864  39.470  13.454
19533W        W79069   4.780  12.690   0.324
19534W        W79070  29.939  15.269   4.324
19535W        W79071  44.811  39.829  12.899
19536W        W79072   6.837   4.235  10.536
19537W        W79073   5.709  41.992   1.245
19538W        W79074  11.268  42.955   4.698
19539W        W79075  32.932  28.531   3.297
19540W        W79076   1.276  37.902   4.716
19541W        W79077  14.777  44.369   4.660
19542W        W79078   6.823   8.317   2.697
19543W        W79079  31.567  41.911  12.020
19544W        W79080   0.984  12.293   0.450
19545W        W79081  26.026  31.588   0.265
19546W        W79082  10.225  26.473  14.759
19547W        W79083  11.332  21.114   4.117
19548W        W79084  33.029  43.990  13.862
19549W        W79085  38.988  15.723  12.845
19550W        W79086   9.690  37.932  13.408
19551W        W79087  37.345  30.025  13.858
19552W        W79088  30.437  36.004   2.735
19553W        W79089  29.461  10.633   1.333
19554W        W79090  22.617  27.192  12.090
19555W        W79091  12.790  25.996   9.927
19556W        W79092  34.552  32.462   0.458
19557W        W79093  25.584   7.681  13.505
19558W        W79094  40.979  16.585   0.753
19559W        W79095  18.291   0.465   2.270
19560W        W79096  35.509  15.768   4.720
19561W        W79097  15.610  19.667  14.465
19562W        W79098  43.794  20.231  10.997
19563W        W79099  16.136   8.772   0.357
19564W        W79100  37.515   0.964  12.456
19565W        W79101   2.401  17.140   2.729
19566W        W79102  24.650  21.253  13.918
19567W        W79103  33.418  37.901  14.015
19568W        W79104   4.781  12.670   4.651
19569W        W79105  33.917  33.067  14.313
19570W        W79106  35.893   5.242  11.377
19571W        W79107  35.895  36.513   4.674
19572W        W79108   8.332  27.967  10.997
19573W        W79109  42.891   4.741   4.603
19574W        W79110  40.314  42.983  12.448
19575W        W79111   5.846   6.769   2.327
19576W        W79112  39.465  10.672   0.905
19577W        W79113  16.613   5.291  14.840
19578W        W79114  19.535  38.878   2.854
19579W        W79115  41.417   1.920  12.011
19580W        W79116   0.846   4.380  14.949
19581W        W79117  22.626  29.981   4.672
19582W        W79118  10.766  30.536   4.255
19583W        W79119  30.993  22.111  11.096
19584W        W79120  33.948  29.946   2.256
19585W        W79121  21.187   9.810  10.488
19586W        W79122  18.259   5.693  11.868
19587W        W79123  34.083   5.737   4.635
19588W        W79124  41.421  29.930  13.415
19589W        W79125   7.354   5.418   3.675
19590W        W79126  35.536  10.143  14.903
19591W        W79127  20.034  22.029   4.236
19592W        W79128  17.771  40.330  11.398
19593W        W79129  36.496  35.463   0.467
19594W        W79130  23.652  29.006   1.377
19595W        W79131  19.081  18.129   2.246
19596W        W79132  17.185  42.404   0.733
19597W        W79133   2.397  27.613   2.752
19598W        W79134  20.723   1.424   1.899
19599W        W79135  43.839  10.161   9.971
19600W        W79136  41.531  13.283   0.404
19601W        W79137  33.381   6.275  12.987
19602W        W79138  36.923   0.452   0.958
19603W        W79139  35.905  43.364  11.471
19604W        W79140  16.607   1.253   2.347
19605W        W79141  19.570   5.344   2.728
19606W        W79142  28.024   1.296  13.893
19607W        W79143  33.401   1.414  14.979
19608W        W79144  11.248  24.702  13.016
19609W        W79145   6.739  31.415  13.010
19610W        W79146  38.393  44.297  14.389
19611W        W79147  32.065  39.818  14.789
19612W        W79148  17.666  22.044  14.782
19613W        W79149  30.020  15.693  11.398
19614W        W79150  13.261  13.814   3.648
19615W        W79151   2.946  26.655   0.912
19616W        W79152  22.041  12.184  12.917
19617W        W79153  23.181  44.375  11.474
19618W        W79154   8.359  40.864  14.999
19619W        W79155  38.500  20.620   4.701
19620W        W79156  44.971  10.312   4.321
19621W        W79157  15.641   1.339  14.786
19622W        W79158  34.954  30.915   2.682
19623W        W79159  30.464  27.948  11.012
19624W        W79160  15.713  10.853   0.902
19625W        W79161   4.892  36.058   2.697
19626W        W79162   0.358  36.509   0.254
19627W        W79163  41.043  35.512  11.006
19628W        W79164  19.186   0.297  12.995
19629W        W79165  26.028  44.856   0.328
19630W        W79166   9.197  21.742  11.464
19631W        W79167  40.454  28.017   1.862
19632W        W79168  20.272   9.845  11.435
19633W        W79169  17.285  39.319  13.852
19634W        W79170  42.005  12.799   3.702
19635W        W79171  42.977   6.894  14.887
19636W        W79172   6.339  12.770  14.778
19637W        W79173  15.693  40.317   1.449
19638W        W79174  13.262  21.627   0.476
19639W        W79175  10.159  23.598   4.311
19640W        W79176   5.891  11.175  11.609
19641W        W79177  10.862  18.577  12.543
19642W        W79178   4.886  20.737   0.463
19643W        W79179  21.628  21.664   4.639
19644W        W79180  36.034   1.954  12.842
19645W        W79181  14.142  30.485  14.310
19646W        W79182  25.703  30.165  12.053
19647W        W79183  20.188  16.090   0.956
19648W        W79184  18.296   9.853   0.369
19649W        W79185  15.281  15.733   0.950
19650W        W79186   3.298  40.394   0.749
19651W        W79187  27.189  34.085   2.408
19652W        W79188  13.118   4.374   1.915
19653W        W79189   0.931  36.900   2.339
19654W        W79190  30.471  19.632   2.331
19655W        W79191  20.563   5.879  11.984
19656W        W79192  24.718  36.550  14.779
19657W        W79193   4.228   5.827   3.179
19658W        W79194  35.903   5.703  14.822
19659W        W79195   4.302  38.539   0.913
19660W        W79196  34.022  20.183  14.415
19661W        W79197  44.830  37.483  11.584
19662W        W79198  41.521  22.644  13.927
19663W        W79199  19.268  23.630   0.951
19664W        W79200  27.674  32.467  13.063
19665W        W79201  40.040  10.680   1.348
19666W        W79202  36.908  17.258  12.509
19667W        W79203  31.964  35.941   4.283
19668W        W79204  16.196   5.293   4.656
19669W        W79205  17.767  29.963  11.400
19670W        W79206  28.533  41.310   1.449
19671W        W79207  11.327  31.151  10.514
19672W        W79208  36.526  38.839   0.939
19673W        W79209  29.638  41.304  12.838
19674W        W79210  40.318  15.737   4.196
19675W        W79211  20.641  29.611   1.256
19676W        W79212  33.516  20.715  12.555
19677W        W79213  41.520  31.027   2.181
19678W        W79214  28.453  22.047  12.503
19679W        W79215   8.296   0.327   3.671
19680W        W79216  21.112  15.700   3.771
19681W        W79217  11.682  41.010  10.896
19682W        W79218   4.780   1.370   4.781
19683W        W79219  26.590  36.089   4.617
19684W        W79220  33.128   0.803   2.769
19685W        W79221   7.855  28.564  10.430
19686W        W79222   6.356  20.194   4.631
19687W        W79223  11.665  15.595   5.201
19688W        W79224  28.481  27.487   1.397
19689W        W79225  28.105   8.223   0.775
19690W        W79226   2.285  15.676   4.121
19691W        W79227  13.753   3.710   2.726
19692W        W79228  21.085   9.156  10.535
19693W        W79229  37.868   4.387  13.425
19694W        W79230  20.108  18.727   4.249
19695W        W79231  40.367  36.547  12.516
19696W        W79232  43.444   2.402   1.868
19697W        W79233  39.055  41.367   3.846
19698W        W79234  35.872   8.854  12.482
19699W        W79235  21.742  44.782   3.332
19700W        W79236   5.785  23.658   3.364
19701W        W79237   6.912  14.678  13.493
19702W        W79238  25.062  40.940   3.337
19703W        W79239  38.869   1.942   5.759
19704W        W79240  21.712   5.280   1.298
19705W        W79241  24.042  41.019   2.228
19706W        W79242  43.905  39.383   2.246
19707W        W79243  17.308  28.642  13.959
19708W        W79244  37.957   4.813   9.984
19709W        W79245  11.655  16.785   4.305
19710W        W79246  40.414   4.758  13.943
19711W        W79247  23.147   3.253  12.389
19712W        W79248  32.140   4.854  13.357
19713W        W79249  28.596  10.154   1.251
19714W        W79250   2.325  17.294  14.819
19715W        W79251   3.435  26.037   1.749
19716W        W79252  22.697  16.768  13.503
19717W        W79253   0.328   7.226  11.028
19718W        W79254  28.455  19.247   4.256
19719W        W79255  14.738  37.937   0.429
19720W        W79256  36.990   6.274  12.948
19721W        W79257  18.296  35.022   4.125
19722W        W79258  18.288  32.591   0.843
19723W        W79259  30.085  33.504   2.222
19724W        W79260   9.811  32.635  14.410
19725W        W79261   1.829  39.888  14.780
19726W        W79262  14.205  11.364   0.861
19727W        W79263  11.136  21.752  12.352
19728W        W79264  10.840  12.148  12.858
19729W        W79265  43.419  42.491  11.486
19730W        W79266  11.174  31.609  14.372
19731W        W79267   7.732  32.427   2.265
19732W        W79268   6.301   4.727   2.380
19733W        W79269  16.302  17.119   2.367
19734W        W79270   4.228  23.600  11.994
19735W        W79271  12.788  12.227  12.340
19736W        W79272  18.244  17.625   4.770
19737W        W79273  44.492  41.454  11.585
19738W        W79274  43.288  17.202   0.449
19739W        W79275  12.828  16.641   1.328
19740W        W79276   8.169   6.272  14.853
19741W        W79277  32.577  21.126   3.654
19742W        W79278  16.178  26.519   2.357
19743W        W79279  17.588  30.948  10.609
19744W        W79280  35.953   5.840   4.208
19745W        W79281  14.128  11.371   3.367
19746W        W79282   2.768  24.061   4.186
19747W        W79283   6.887   2.291   3.377
19748W        W79284  20.216  15.755   2.748
19749W        W79285  36.019  37.949   0.358
19750W        W79286   6.833  35.901  14.008
19751W        W79287   3.940  41.813   1.861
19752W        W79288  33.618  44.787   2.263
19753W        W79289   8.755  17.101   1.915
19754W        W79290  44.837  10.178   3.175
19755W        W79291   7.331  36.398  13.028
19756W        W79292  28.009  15.179  14.962
19757W        W79293  31.078  28.964  12.479
19758W        W79294   6.820  44.411   2.199
19759W        W79295  34.059  25.028  10.406
19760W        W79296  17.663  15.770  14.319
19761W        W79297  23.037  14.789  10.470
19762W        W79298  32.017  44.910   2.793
19763W        W79299  24.654  20.729  11.532
19764W        W79300  26.628  12.851  11.962
19765W        W79301  18.650  17.264  13.924
19766W        W79302   6.685  43.974  10.904
19767W        W79303  16.076  12.843  12.854
19768W        W79304   4.766   4.881   1.367
19769W        W79305  11.161  21.663  13.807
19770W        W79306   3.321  26.982  13.358
19771W        W79307  30.655  26.208   2.860
19772W        W79308   8.798  35.964   0.304
19773W        W79309  26.590  28.005   2.253
19774W        W79310  44.312  17.208   3.728
19775W        W79311  33.444  11.758   0.462
19776W        W79312  27.183  31.120  13.545
19777W        W79313  26.020  43.297  12.497
19778W        W79314   3.299   2.234   2.335
19779W        W79315  16.580  39.422   3.635
19780W        W79316   3.394  42.995   4.835
19781W        W79317  43.280  33.953   1.743
19782W        W79318  21.226  36.352   3.311
19783W        W79319  32.099  39.027  12.930
19784W        W79320  10.757  33.030  10.891
19785W        W79321  44.001  39.486  14.377
19786W        W79322  26.035  24.595   0.473
19787W        W79323  43.424  10.170   3.183
19788W        W79324  39.928  32.024   2.871
19789W        W79325   8.869  29.008  13.447
19790W        W79326  21.621  39.836   0.403
19791W        W79327  25.167  10.705  14.802
19792W        W79328  12.626  10.724  14.433
19793W        W79329  15.115  20.718  14.889
19794W        W79330   8.361   4.226  10.964
19795W        W79331  21.165  41.968   3.772
19796W        W79332   2.462  39.045  11.947
19797W        W79333   7.413  20.635   4.221
19798W        W79334  29.661  26.012  10.423
19799W        W79335  24.218   5.823   3.164
19800W        W79336   1.333  39.878  13.451
19801W        W79337  43.798  38.562   3.211
19802W        W79338  11.762  27.136   3.267
19803W        W79339  32.043  25.025   3.205
19804W        W79340  25.541  29.486  11.374
19805W        W79341  24.606  11.832   1.231
19806W        W79342   0.823  21.086   0.287
19807W        W79343  33.443  29.959  14.951
19808W        W79344  23.626  41.936   4.660
19809W        W79345  11.741  42.904  14.775
19810W        W79346  30.421  43.311  13.459
19811W        W79347   0.376   9.653   3.206
19812W        W79348  36.421  17.728   1.764
19813W        W79349  10.712  19.777   3.743
19814W        W79350  14.638  35.967   4.687
19815W        W79351   3.839  32.031   5.315
19816W        W79352  25.997  34.972  14.779
19817W        W79353  26.957  33.509   4.190
19818W        W79354  10.864   6.831   0.841
19819W        W79355   7.875  21.590  11.054
19820W        W79356  10.835  43.333   1.355
19821W        W79357  20.552   7.862   9.924
19822W        W79358  35.917  35.502   2.891
19823W        W79359  30.430  16.307   2.313
19824W        W79360  10.140  44.957   2.314
19825W        W79361  39.541  32.466   3.342
19826W        W79362  34.870  12.675   4.233
19827W        W79363   1.392  42.436   0.834
19828W        W79364  42.304  30.029   2.769
19829W        W79365  10.326   0.404   4.618
19830W        W79366  12.156  26.545   1.707
19831W        W79367  16.176  13.789   3.151
19832W        W79368   2.249   9.824   3.831
19833W        W79369  12.165  17.561   2.892
19834W        W79370  32.624  15.328  10.425
19835W        W79371  23.146  43.981  14.767
19836W        W79372   3.791  36.844   1.933
19837W        W79373  42.948  17.737  14.777
19838W        W79374   8.719  11.757  11.043
19839W        W79375  40.534  19.664   0.299
19840W        W79376  14.339   1.732  14.427
19841W        W79377  44.273  23.538   4.231
19842W        W79378  27.646  38.878  11.589
19843W        W79379  44.969  32.093  12.444
19844W        W79380  34.019  31.585  13.803
19845W        W79381  23.693  44.766  12.910
19846W        W79382  27.169   9.849  14.793
19847W        W79383  19.101  15.740  14.004
19848W        W79384  11.794   7.822   5.130
19849W        W79385   4.392  14.213   4.185
19850W        W79386  40.014  43.978  11.527
19851W        W79387  21.219  11.281   3.760
19852W        W79388  28.530  30.504   1.345
19853W        W79389   4.311  25.153   0.455
19854W        W79390   4.851  29.429   0.404
19855W        W79391  24.173  15.175  14.277
19856W        W79392  36.993  44.955   5.143
19857W        W79393  26.541  26.611   4.277
19858W        W79394  33.943  44.306  10.056
19859W        W79395   0.879  28.452   1.838
19860W        W79396  17.293  33.126  12.837
19861W        W79397   3.954  36.084   2.889
19862W        W79398  16.644   4.310   0.949
19863W        W79399  15.800  26.145  12.959
19864W        W79400  33.497  31.932  14.805
19865W        W79401  29.565  11.758   4.759
19866W        W79402  43.802  31.923   1.409
19867W        W79403  16.103  11.836  11.482
19868W        W79404   3.388  17.661  12.393
19869W        W79405  36.991  28.096   3.650
19870W        W79406  30.037   5.345  11.526
19871W        W79407  13.276  24.700  14.909
19872W        W79408  34.604  19.551  12.878
19873W        W79409  30.017  10.363  12.943
19874W        W79410  39.941  23.612  12.023
19875W        W79411   3.828  17.193   2.242
19876W        W79412  21.735  21.719   3.815
19877W        W79413   0.866  16.209   1.213
19878W        W79414   2.943   5.412  10.974
19879W        W79415  44.754  18.109  13.544
19880W        W79416  29.092   1.734  13.953
19881W        W79417   2.388  14.622   2.230
19882W        W79418  40.424  21.585  10.569
19883W        W79419  15.631  36.926  11.443
19884W        W79420  40.798  31.448   4.198
19885W        W79421  22.526  29.636   0.823
19886W        W79422  12.359   5.218  14.331
19887W        W79423  32.514  19.630  14.425
19888W        W79424  24.075   1.259  10.060
19889W        W79425  24.997   8.838   1.786
19890W        W79426  21.046  28.516  12.493
19891W        W79427   9.253  18.164  14.970
19892W        W79428  13.693  24.030   4.343
19893W        W79429  22.249  27.957  12.065
19894W        W79430   9.190  35.417  11.018
19895W        W79431  29.049  15.665   1.694
19896W        W79432  27.553  13.182   1.711
19897W        W79433  30.911  19.695  11.432
19898W        W79434  36.961  17.585  11.437
19899W        W79435  38.352  19.166  11.957
19900W        W79436  11.185  42.390   0.946
19901W        W79437  29.572  40.868   1.712
19902W        W79438   3.284  19.546   2.349
19903W        W79439  43.984  19.239   2.787
19904W        W79440  37.491  10.879  12.448
19905W        W79441   2.296   4.896   2.695
19906W        W79442   6.213  23.603   2.391
19907W        W79443   2.310  32.098  12.558
19908W        W79444  31.426  21.118  13.029
19909W        W79445  43.928   1.333  12.508
19910W        W79446  15.730   4.268   3.793
19911W        W79447   8.204  31.607  10.636
19912W        W79448  33.501  38.550   0.414
19913W        W79449  39.053   5.826  11.920
19914W        W79450   2.900  16.757  11.481
19915W        W79451  17.662  17.745   0.257
19916W        W79452  27.527  13.301   3.313
19917W        W79453  21.244  21.259  10.160
19918W        W79454  28.588   7.399  12.062
19919W        W79455  19.136  20.650  12.417
19920W        W79456   6.273  31.582   3.634
19921W        W79457  19.229   3.415  14.965
19922W        W79458  38.981  33.881   0.948
19923W        W79459  36.378  11.656  14.006
19924W        W79460  34.445  13.640   4.233
19925W        W79461  12.350   0.920   4.327
19926W        W79462  36.486  30.075  11.900
19927W        W79463   6.843  12.677  12.023
19928W        W79464  44.272  23.003   4.220
19929W        W79465   3.315  11.233   1.444
19930W        W79466   9.248  12.828  12.865
19931W        W79467  28.574  38.352   3.221
19932W        W79468  40.803  33.997  13.040
19933W        W79469  42.895  25.147   1.893
19934W        W79470  19.135  40.393   3.270
19935W        W79471  24.191  18.668   3.351
19936W        W79472  29.086  25.119  14.431
19937W        W79473  21.169  42.433  13.865
19938W        W79474  42.886   0.976   0.782
19939W        W79475   5.347  41.818  12.990
19940W        W79476   1.758  22.215   0.814
19941W        W79477  11.628   6.827  10.466
19942W        W79478  42.921  38.535   4.146
19943W        W79479  12.823  27.565   3.344
19944W        W79480  34.948   8.299   0.248
19945W        W79481   2.421  31.533  11.611
19946W        W79482   5.363   8.800   0.892
19947W        W79483  22.507   4.402  12.029
19948W        W79484  44.807  20.683   1.732
19949W        W79485  17.205   8.887   4.193
19950W        W79486  36.970  26.032  13.018
19951W        W79487  15.713  43.344   4.250
19952W        W79488   9.881  24.158  13.518
19953W        W79489  39.528  18.693  14.909
19954W        W79490  16.640  19.203   0.425
19955W        W79491  29.560  19.607  12.884
19956W        W79492  36.954  43.342   1.737
19957W        W79493  22.699   5.723  13.863
19958W        W79494  17.665  11.708  12.469
19959W        W79495  28.534   5.791   1.777
19960W        W79496  37.564  20.543  10.611
19961W        W79497  38.359  29.107   4.249
19962W        W79498  35.378  13.235   0.310
19963W        W79499   5.212  28.121  13.041
19964W        W79500  28.954  10.778  14.325
19965W        W79501  27.484  30.549   0.901
19966W        W79502  36.856   8.779  14.346
19967W        W79503   3.831   8.719  13.313
19968W        W79504  43.902  13.644   2.764
19969W        W79505  13.333  29.945   0.959
19970W        W79506  35.976  30.120  13.531
19971W        W79507  14.809  35.035   2.217
19972W        W79508  10.661   0.274  10.449
19973W        W79509  32.610  22.063  10.583
19974W        W79510   4.302  16.091  10.963
19975W        W79511  26.161   3.790  14.459
19976W        W79512  37.074  39.962   3.779
19977W        W79513   8.725   7.238   3.273
19978W        W79514   7.852  24.198  14.766
19979W        W79515  33.912  15.815  13.538
19980W        W79516  32.579  28.041  12.442
19981W        W79517  28.137  17.152   3.305
19982W        W79518  40.534  16.278  10.945
19983W        W79519  19.039  39.398  12.048
19984W        W79520   4.872  30.083  10.011
19985W        W79521  44.483  25.599  13.357
19986W        W79522  24.515  26.567   3.863
19987W        W79523  31.973  42.428   2.353
19988W        W79524  23.545  42.030  12.926
19989W        W79525   0.915  28.175   3.747
19990W        W79526  35.997  33.939   0.790
19991W        W79527  37.927  44.781  14.794
19992W        W79528  15.792  30.957   0.963
19993W        W79529  29.661  10.676   4.189
19994W        W79530   8.827  13.633   4.719
19995W        W79531  10.205   9.822   1.887
19996W        W79532  13.781  30.162   3.684
19997W        W79533  12.843  38.505   4.696
19998W        W79534  38.952   2.401  11.486
19999W        W79535   1.379  17.115  11.011
20000W        W79536  32.601  11.801   4.131
20001W        W79537  18.096   3.275  13.922
20002W        W79538  16.289  36.361   4.336
20003W        W79539  22.016  22.703   3.270
20004W        W79540  34.036  21.194  12.035
20005W        W79541  23.694   8.294   2.830
20006W        W79542  28.670  29.479  13.984
20007W        W79543   0.328  14.831   1.263
20008W        W79544  41.825   8.731  13.965
20009W        W79545  35.370  11.838   0.965
20010W        W79546  32.442  31.411   3.721
20011W        W79547  39.903  16.767  11.390
20012W        W79548  24.509  15.582   1.888
20013W        W79549  24.643  16.132  14.375
20014W        W79550   2.471  30.562   3.353
20015W        W79551  18.676  27.118  11.087
20016W        W79552  18.659  32.132  14.985
20017W        W79553  28.641  41.873  12.897
20018W        W79554  29.015  14.658  13.396
20019W        W79555  40.365  37.858   2.378
20020W        W79556   5.310  38.531   3.299
20021W        W79557  11.790   8.683   1.719
20022W        W79558  37.979  19.727  14.972
20023W        W79559  17.227  24.996   4.169
20024W        W79560  19.146  26.651   2.362
20025W        W79561  31.973  20.536   0.758
20026W        W79562  22.704  42.824  10.413
20027W        W79563   7.786  15.713   0.284
20028W        W79564   6.918  32.535   3.254
20029W        W79565  16.665   4.348   3.845
20030W        W79566  30.092  32.426   0.353
20031W        W79567   7.301  28.177   4.323
20032W        W79568  11.867  10.267   0.246
20033W        W79569   1.432  27.027  11.117
20034W        W79570  26.688  25.023  14.473
20035W        W79571  25.499  10.245   1.708
20036W        W79572  11.745  32.912  10.487
20037W        W79573   3.302  12.242   1.433
20038W        W79574  44.755  23.021  12.909
20039W        W79575  39.854   5.728   3.682
20040W        W79576  30.119  38.550  11.382
20041W        W79577   9.308  34.449  10.531
20042W        W79578  21.656  41.422   0.476
20043W        W79579  35.096  16.301  11.414
20044W        W79580  26.126  40.950   3.265
20045W        W79581   7.774  33.578  11.916
20046W        W79582  43.801   6.699   0.328
20047W        W79583   5.895   6.811  13.826
20048W        W79584  22.503  26.635  12.917
20049W        W79585  43.985  20.198   4.633
20050W        W79586   6.883  44.424  14.488
20051W        W79587  22.201  25.214  14.514
20052W        W79588   2.825  14.340   3.329
20053W        W79589  12.723  15.276   3.766
20054W        W79590  31.623  36.969   3.257
20055W        W79591  18.191  22.209  10.495
20056W        W79592  32.110  28.574  13.484
20057W        W79593  25.504  13.156  11.916
20058W        W79594  16.075   4.442   1.782
20059W        W79595  28.664   3.387   0.732
20060W        W79596   1.849  41.829   1.916
20061W        W79597  44.944  43.418  14.970
20062W        W79598  10.871  38.987  14.922
20063W        W79599   4.831  31.985  13.060
20064W        W79600   3.387   5.195  10.567
20065W        W79601   4.832  41.895   3.338
20066W        W79602  17.725   5.912  12.912
20067W        W79603  12.200  25.192  10.499
20068W        W79604  43.504  41.502  14.492
20069W        W79605  39.465  15.307  14.365
20070W        W79606  40.859  16.603  13.939
20071W        W79607  11.639  12.235   2.301
20072W        W79608   1.954  42.397   0.271
20073W        W79609  16.181  10.282  12.538
20074W        W79610  38.858  29.449   4.725
20075W        W79611  35.021  20.185   2.808
20076W        W79612  27.079  20.041   3.247
20077W        W79613   5.712  35.482   3.262
20078W        W79614   4.897  33.009   0.828
20079W        W79615   9.759  24.164   1.799
20080W        W79616  40.004  38.930  13.381
20081W        W79617  36.350  16.794   3.756
20082W        W79618  20.102   6.282   4.780
20083W        W79619  41.469  39.003   2.317
20084W        W79620  12.266   0.935  14.445
20085W        W79621  34.609   2.390   1.223
20086W        W79622  37.916  43.393   4.766
20087W        W79623   5.348  13.712   4.625
20088W        W79624  31.953  27.482   1.702
20089W        W79625  44.501   9.168   4.240
20090W        W79626  43.352   9.194   0.874
20091W        W79627  44.428  31.977  10.601
20092W        W79628  19.168  27.479  12.913
20093W        W79629  22.162  11.731   0.473
20094W        W79630  16.741  31.490  14.966
20095W        W79631   1.336  11.771  10.032
20096W        W79632   0.478   2.938   2.793
20097W        W79633  27.982   0.875   0.247
20098W        W79634   8.886   1.268   4.314
20099W        W79635  18.068  29.657  10.529
20100W        W79636  18.147   0.809   2.249
20101W        W79637  33.454   8.342  10.977
20102W        W79638  28.462  34.493   0.807
20103W        W79639  12.205   8.711   2.762
20104W        W79640  31.055  35.933  13.921
20105W        W79641  13.254  24.974   5.205
20106W        W79642  25.156   1.355  12.514
20107W        W79643  31.097   1.930  13.524
20108W        W79644  38.474   9.361   4.202
20109W        W79645  25.204   1.896   3.800
20110W        W79646  25.531  34.938   3.653
20111W        W79647  43.485  22.515  11.882
20112W        W79648  12.324   8.779   1.812
20113W        W79649  28.178  26.492  11.976
20114W        W79650   1.482  34.022   1.811
20115W        W79651  19.124  28.520  13.919
20116W        W79652  30.990  18.234  10.005
20117W        W79653   0.469   3.277   0.458
20118W        W79654   6.708  15.309   3.687
20119W        W79655  35.511  26.111  10.592
20120W        W79656  41.796  40.906   3.303
20121W        W79657  21.170   1.483   4.174
20122W        W79658  24.648  25.496  10.986
20123W        W79659  27.038  17.677  11.563
20124W        W79660   7.383  35.039   2.757
20125W        W79661   8.834  23.006  11.925
20126W        W79662  26.054  36.058  14.830
20127W        W79663  18.687  28.656   0.819
20128W        W79664  28.969  30.475  13.908
20129W        W79665  19.257  22.150  11.867
20130W        W79666  36.407  36.070   1.735
20131W        W79667  44.956  23.673   0.284
20132W        W79668  11.158  17.090   4.194
20133W        W79669  29.968  17.712  14.413
20134W        W79670  25.649  19.716   3.165
20135W        W79671  31.937  11.817   0.812
20136W        W79672  33.484  35.029   3.249
20137W        W79673   9.853  23.733   4.172
20138W        W79674  17.623  11.769  12.963
20139W        W79675   0.315   1.352  14.995
20140W        W79676  26.546   7.313   2.332
20141W        W79677  32.932  19.257  11.571
20142W        W79678   4.237  16.144  14.816
20143W        W79679  21.699  17.141   4.643
20144W        W79680  12.772  29.488   1.881
20145W        W79681  42.897   5.223  14.816
20146W        W79682  20.540  40.393  11.076
20147W        W79683  20.691  31.918  13.386
20148W        W79684  11.625  14.600   1.270
20149W        W79685   7.257  19.120  10.612
20150W        W79686  27.966   2.862   4.234
20151W        W79687  22.159  12.676  11.025
20152W        W79688  14.118  17.149   4.785
20153W        W79689  37.048   8.242   2.179
20154W        W79690  12.708  15.170  10.966
20155W        W79691  37.940  32.565  11.508
20156W        W79692  38.838  40.857  14.485
20157W        W79693  32.588   0.460  12.889
20158W        W79694  21.747  13.821  12.496
20159W        W79695  29.084  22.508   2.745
20160W        W79696  17.740  32.620   4.819
20161W        W79697  25.666   9.154   4.838
20162W        W79698  11.643   5.747   0.919
20163W        W79699  24.106  33.587  14.315
20164W        W79700  27.639  42.913  11.451
20165W        W79701   9.860   4.421   0.902
20166W        W79702   8.826  14.283   3.371
20167W        W79703  30.947   4.734  12.929
20168W        W79704  17.245  21.022   3.290
20169W        W79705   2.289  25.695   4.718
20170W        W79706  43.823  23.034  11.988
20171W        W79707  43.296  30.496   2.889
20172W        W79708  31.506  18.175  10.578
20173W        W79709  11.150   5.734   4.163
20174W        W79710  30.616   6.786   2.889
20175W        W79711  35.528  20.710  12.085
20176W        W79712  44.887  13.815  12.036
20177W        W79713   5.852   0.937  11.512
20178W        W79714   0.833   4.918   4.134
20179W        W79715   9.787  37.020   2.396
20180W        W79716  41.882   0.300  14.896
20181W        W79717  24.195  37.987  14.992
20182W        W79718  36.582  33.969  12.357
20183W        W79719  24.152  36.592  13.521
20184W        W79720  24.559   3.883   2.204
20185W        W79721  11.727  36.396   2.411
20186W        W79722  28.013  32.050   1.421
20187W        W79723  43.800  11.369   2.245
20188W        W79724   2.408   4.386  10.484
20189W        W79725  19.216  42.515   1.747
20190W        W79726   8.226  40.038  10.917
20191W        W79727  24.979  10.840   4.332
20192W        W79728  38.856   4.930  13.934
20193W        W79729   2.792  20.043  12.522
20194W        W79730  11.786  17.131   1.911
20195W        W79731  11.751   7.805  13.535
20196W        W79732  29.530  20.251   4.115
20197W        W79733  29.477  19.091  10.545
20198W        W79734  16.243   8.230  14.793
20199W        W79735   0.490  10.197   2.315
20200W        W79736  33.569  19.776   3.691
20201W        W79737  23.620  29.538  11.901
20202W        W79738   6.373   1.801  13.421
20203W        W79739  28.649  42.994  14.817
20204W        W79740   9.347  37.921   4.349
20205W        W79741   3.361  41.954   4.160
20206W        W79742  18.634  23.595  13.398
20207W        W79743  32.099  13.728   1.347
20208W        W79744  35.359  13.281   2.691
20209W        W79745  39.417   0.922  12.554
20210W        W79746  35.889   8.703  13.895
20211W        W79747  15.326  31.974   0.414
20212W        W79748  26.054  30.633  11.924
20213W        W79749  12.349  40.000   3.238
20214W        W79750  23.554  24.510   1.800
20215W        W79751   5.396  25.039   3.743
20216W        W79752   2.298  23.709  13.846
20217W        W79753  41.458   1.274  10.624
20218W        W79754  33.490  24.651   0.440
20219W        W79755   0.448  31.907  11.999
20220W        W79756  23.514   5.699   1.349
20221W        W79757  43.489  10.754  13.998
20222W        W79758   6.214  38.893  12.529
20223W        W79759  15.086   0.939  14.383
20224W        W79760  42.841  25.038  11.917
20225W        W79761  29.988  44.864  13.016
20226W        W79762  44.914  12.319   1.210
20227W        W79763  22.020  30.631   1.731
20228W        W79764  20.107  35.976   2.695
20229W        W79765  26.477   5.820   2.369
20230W        W79766  13.193  29.948  14.418
20231W        W79767  27.524  15.234   3.869
20232W        W79768   0.980  13.177  11.393
20233W        W79769   7.275  44.910   2.828
20234W        W79770  41.955   0.474   0.468
20235W        W79771  21.713  12.362  10.532
20236W        W79772  16.208  18.208  10.908
20237W        W79773  25.468  13.646  14.296
20238W        W79774  37.874  42.404   1.772
20239W        W79775   9.857  34.551  13.422
20240W        W79776  31.557   1.422  11.590
20241W        W79777  43.853  43.946   2.794
20242W        W79778  11.251  44.432  13.466
20243W        W79779  34.475  15.133   2.248
20244W        W79780  27.060  30.432   3.325
20245W        W79781  35.448  15.132   3.752
20246W        W79782   3.825  27.024  10.409
20247W        W79783  28.675  44.881   3.706
20248W        W79784  15.816  32.899  14.348
20249W        W79785  37.058   0.411  12.091
20250W        W79786  25.602  19.727   0.787
20251W        W79787   9.159   7.406   5.246
20252W        W79788  12.683  25.973   4.189
20253W        W79789   6.282  29.944   1.243
20254W        W79790  33.050  27.037   2.819
20255W        W79791   7.850   1.421  12.439
20256W        W79792   3.383  19.209  10.550
20257W        W79793  20.598  16.735  13.919
20258W        W79794  21.633  27.998  11.966
20259W        W79795  31.016  31.063  13.399
20260W        W79796  11.240  41.449   3.387
20261W        W79797  15.122   3.872   1.283
20262W        W79798  15.696  32.473  10.574
20263W        W79799  23.639  40.319   1.432
20264W        W79800  32.013  23.624  14.359
20265W        W79801   3.409  16.605  13.989
20266W        W79802  20.267  36.558  10.413
20267W        W79803  16.689  38.933   1.893
20268W        W79804  39.362  15.646  13.405
20269W        W79805   0.324  25.124   1.731
20270W        W79806  20.243  10.295   1.257
20271W        W79807  23.012   1.378   0.885
20272W        W79808  36.436  13.238  14.377
20273W        W79809  10.199  16.106  14.937
20274W        W79810  20.568   9.390  13.954
20275W        W79811  40.029  34.553   3.678
20276W        W79812   7.213  35.090  10.549
20277W        W79813  11.646  40.838  10.621
20278W        W79814   7.247   8.849  14.780
20279W        W79815  40.451  14.610   2.253
20280W        W79816  19.044  11.718   3.842
20281W        W79817  14.145  22.162   4.222
20282W        W79818  28.012  38.958   1.226
20283W        W79819  31.926  26.996  11.907
20284W        W79820  24.049   5.209  14.773
20285W        W79821  24.004  42.451  11.909
20286W        W79822  17.267  22.682   0.742
20287W        W79823  11.807  38.851  12.545
20288W        W79824  13.346  40.428   1.748
20289W        W79825  41.977  33.021  12.515
20290W        W79826   9.277  17.560  10.491
20291W        W79827   8.373  18.074   3.667
20292W        W79828  11.825   2.289   0.392
20293W        W79829   6.185   6.806   2.193
20294W        W79830  25.682  12.330   1.405
20295W        W79831  32.986  13.215  12.954
20296W        W79832  41.800  25.555  10.582
20297W        W79833  30.434  21.207   4.780
20298W        W79834   5.196  43.317   4.745
20299W        W79835  29.517  24.128  11.587
20300W        W79836  36.584  18.270   2.800
20301W        W79837  13.633   7.826   1.363
20302W        W79838  41.873  36.377  10.640
20303W        W79839  28.062   7.692   0.752
20304W        W79840   7.194  30.582  11.422
20305W        W79841  11.323  22.114  13.393
20306W        W79842   9.862   7.258   2.663
20307W        W79843   7.795  23.006  10.997
20308W        W79844  24.121  44.292   3.653
20309W        W79845  12.681  33.086  13.008
20310W        W79846  32.411  44.919   1.343
20311W        W79847  19.061  28.514  14.867
20312W        W79848  32.032  33.995  13.478
20313W        W79849  18.669  20.545   1.734
20314W        W79850  41.489  15.657  13.382
20315W        W79851  13.783  40.898   0.252
20316W        W79852  42.937   1.259  11.477
20317W        W79853  18.671  17.087   5.233
20318W        W79854  31.538  38.051  11.567
20319W        W79855  23.149  37.346   5.148
20320W        W79856  39.848  30.076  10.440
20321W        W79857  12.744  28.441   1.919
20322W        W79858  11.675  19.658   2.403
20323W        W79859  33.101  22.209   4.707
20324W        W79860  14.620   9.738  11.888
20325W        W79861  27.051   0.805  13.367
20326W        W79862  17.728   3.381   4.308
20327W        W79863  27.020  19.052   5.740
20328W        W79864  44.885  31.427  14.809
20329W        W79865   2.245  11.318  11.398
20330W        W79866  35.504  17.760   4.207
20331W        W79867  10.647  37.505  13.371
20332W        W79868  30.966  10.194   0.837
20333W        W79869   1.863   9.793   4.340
20334W        W79870  43.874  30.917   0.754
20335W        W79871  26.035  13.753  14.451
20336W        W79872  18.691  33.600  12.940
20337W        W79873   5.310  20.225   3.335
20338W        W79874  15.758  10.834  12.013
20339W        W79875  39.037   5.921   2.695
20340W        W79876   4.919   1.756  10.149
20341W        W79877  29.662  30.004  11.435
20342W        W79878   9.738  21.742  13.454
20343W        W79879  15.710  24.540  12.458
20344W        W79880  30.992  33.915  10.519
20345W        W79881  24.044   0.482   2.663
20346W        W79882  38.521   8.244  10.505
20347W        W79883  16.296   9.761   1.251
20348W        W79884  24.999  28.497   4.319
20349W        W79885  43.455   9.729  14.941
20350W        W79886   5.759  38.377  11.457
20351W        W79887  43.987  14.598  14.501
20352W        W79888   5.370   8.719  11.985
20353W        W79889  39.452  14.249   5.270
20354W        W79890  19.230  28.500   2.896
20355W        W79891  25.614  43.778   0.778
20356W        W79892  20.615  28.668   2.846
20357W        W79893  16.669  36.417  14.963
20358W        W79894   8.346  20.126  12.837
20359W        W79895  11.668  21.523  11.988
20360W        W79896  23.202  13.733  14.813
20361W        W79897  38.372  21.591   2.236
20362W        W79898  16.313  21.109  13.363
20363W        W79899  44.435   4.934  13.908
20364W        W79900   3.850   2.231  13.058
20365W        W79901  23.068   4.934   0.412
20366W        W79902  38.940  25.501   4.206
20367W        W79903   7.685  20.690  10.940
20368W        W79904  13.747  19.211   4.256
20369W        W79905   8.345  29.018  11.020
20370W        W79906  37.028   3.713  12.501
20371W        W79907  32.417  37.919  10.622
20372W        W79908  11.637  14.706  10.439
20373W        W79909  35.975  14.588  14.414
20374W        W79910   2.901  24.617  12.915
20375W        W79911  29.149  13.688  11.935
20376W        W79912  39.919   5.242  14.882
20377W        W79913  24.695   2.942   0.296
20378W        W79914  15.095   5.277  13.933
20379W        W79915  42.429  12.349   3.294
20380W        W79916   4.288  24.000  14.442
20381W        W79917  17.651   5.782   1.760
20382W        W79918   6.429  37.075   4.747
20383W        W79919  42.450   0.295   1.230
20384W        W79920  25.133   8.816  13.533
20385W        W79921  39.014  12.727  12.373
20386W        W79922  43.933  21.170  11.558
20387W        W79923  18.164  43.337   1.215
20388W        W79924  10.158   7.692  13.994
20389W        W79925  23.574   6.307  13.434
20390W        W79926  24.155  30.525  14.460
20391W        W79927  26.585   1.322  13.529
20392W        W79928  26.104  43.874  11.506
20393W        W79929  29.646  44.784   0.961
20394W        W79930  10.856   5.808  12.575
20395W        W79931  13.188  18.753  11.559
20396W        W79932  28.032   8.775  14.466
20397W        W79933  24.685   9.686  14.286
20398W        W79934  20.241  44.815  12.559
20399W        W79935  37.847   1.786   2.234
20400W        W79936  35.864  10.774  14.925
20401W        W79937  43.404   5.289  14.496
20402W        W79938  22.519  21.702  13.813
20403W        W79939  18.051  20.197  14.840
20404W        W79940  23.688   5.764   1.819
20405W        W79941  39.512  23.535  13.464
20406W        W79942  33.395  25.578   1.237
20407W        W79943  27.955   6.906  13.467
20408W        W79944  22.503  23.064  14.415
20409W        W79945  39.525   0.839  10.134
20410W        W79946  42.475  18.627  11.045
20411W        W79947   7.737  28.622   4.683
20412W        W79948  21.165  18.102   4.677
20413W        W79949  39.356   2.806  12.536
20414W        W79950  17.143  28.463   3.854
20415W        W79951  16.625  44.476  10.546
20416W        W79952  17.140   2.762   0.451
20417W        W79953   4.845   3.413  13.900
20418W        W79954  21.096  23.586  14.495
20419W        W79955  43.434  44.767  10.546
20420W        W79956   3.269  44.324   0.755
20421W        W79957  41.408  43.908   1.711
20422W        W79958   2.318  14.632  13.836
20423W        W79959  37.999  21.731   4.314
20424W        W79960  25.119  42.874   0.322
20425W        W79961  20.234  29.650  11.915
20426W        W79962  40.815  42.783   3.253
20427W        W79963   9.301  32.099  13.973
20428W        W79964  25.572  25.679  12.447
20429W        W79965  18.605  25.027   3.240
20430W        W79966   0.259  22.158   2.765
20431W        W79967  36.936   2.263   2.893
20432W        W79968  42.339  16.206  14.412
20433W        W79969  16.277  18.153   0.341
20434W        W79970   0.804  18.110   4.612
20435W        W79971  30.915  33.439  10.994
20436W        W79972  22.996   6.254   1.384
20437W        W79973  29.499  19.056   0.323
20438W        W79974  26.112  17.091  12.984
20439W        W79975   4.913  42.518  11.115
20440W        W79976  41.951  13.274  12.848
20441W        W79977  17.146  32.978  10.564
20442W        W79978  19.761  21.132  12.533
20443W        W79979  18.599  42.334  10.462
20444W        W79980  42.803   1.955  12.874
20445W        W79981  15.747  22.090   2.419
20446W        W79982  22.200  20.743   3.292
20447W        W79983  27.519   4.883  11.086
20448W        W79984   2.293  31.005  13.427
20449W        W79985  39.324  22.606  13.344
20450W        W79986  11.721  34.913   3.310
20451W        W79987   2.826  37.831   1.302
20452W        W79988  21.182  16.695   0.244
20453W        W79989  33.112  43.496   3.207
20454W        W79990   7.230  28.511  10.550
20455W        W79991   8.735  40.512  14.856
20456W        W79992  23.987  18.204  12.520
20457W        W79993  37.557  26.151  14.276
20458W        W79994  23.701   4.291   1.354
20459W        W79995  38.904  44.410   2.850
20460W        W79996   8.166  28.045   2.792
20461W        W79997  40.453   9.256  12.920
20462W        W79998  33.963  21.243   0.342
20463W        W79999  12.837  39.368   1.702
20464W        W80000  27.648  10.344   3.307
20465W        W80001   9.845  40.399  12.527
20466W        W80002  44.497  40.021   1.431
20467W        W80003  39.386   1.448  13.882
20468W        W80004   3.231  15.150  14.511
20469W        W80005  29.553  30.520  13.984
20470W        W80006   3.750  30.037   1.356
20471W        W80007  23.096  38.486   2.273
20472W        W80008   7.747  44.972  11.546
20473W        W80009  28.632  44.898   0.872
20474W        W80010  35.868  28.648  13.544
20475W        W80011  10.710  22.025   2.203
20476W        W80012   2.822  16.768   0.733
20477W        W80013  31.418   7.816   4.737
20478W        W80014  15.318  15.213   0.250
20479W        W80015   9.779   2.963   3.158
20480W        W80016  39.830  11.727   4.349
20481W        W80017  18.270  41.393  13.530
20482W        W80018  35.008  22.146   2.794
20483W        W80019  29.928  20.154   4.673
20484W        W80020  17.224  21.259  12.953
20485W        W80021  44.468  15.209  10.593
20486W        W80022  44.421   3.254   5.154
20487W        W80023  17.075  36.577  14.477
20488W        W80024  18.101   0.860   1.834
20489W        W80025  28.047  36.498  11.376
20490W        W80026   0.866  25.612   0.475
20491W        W80027  39.055  44.771   2.401
20492W        W80028   8.842  36.582   2.867
20493W        W80029  24.654  26.146  11.896
20494W        W80030   0.755  17.798   3.330
20495W        W80031   7.777  13.731   4.347
20496W        W80032  16.805  25.706   3.168
20497W        W80033  23.106  38.855   3.209
20498W        W80034  33.510  38.055  14.331
20499W        W80035  11.859  26.034  13.514
20500W        W80036  14.756  28.049  14.760
20501W        W80037  39.985  36.463  14.823
20502W        W80038  33.564  43.937  13.888
20503W        W80039  42.814  26.657  12.928
20504W        W80040  14.257  14.262   0.391
20505W        W80041  23.049  36.499  11.873
20506W        W80042  31.401  18.753  11.406
20507W        W80043   8.383  13.752   4.644
20508W        W80044  24.033  36.973   1.431
20509W        W80045  10.814  33.420   4.688
20510W        W80046  29.932  35.036  10.968
20511W        W80047   7.357   0.840  13.417
20512W        W80048   8.405  26.668  12.429
20513W        W80049  17.754  39.544   2.231
20514W        W80050  10.877  33.114  10.577
20515W        W80051  11.651  29.549  14.425
20516W        W80052  21.175  19.044  14.908
20517W        W80053  17.643  20.728   3.205
20518W        W80054  30.983  44.818   3.854
20519W        W80055  35.507  23.714  10.933
20520W        W80056   6.404   4.377   1.908
20521W        W80057  37.346  42.301   4.171
20522W        W80058  18.763  20.113  13.915
20523W        W80059   5.242  20.533  11.983
20524W        W80060  29.165  13.161  11.968
20525W        W80061  37.548  19.153   1.833
20526W        W80062  14.657   7.756  12.346
20527W        W80063   4.853  43.401   3.795
20528W        W80064  19.715  40.927   0.941
20529W        W80065  17.260  15.204  12.519
20530W        W80066  39.021  13.712   3.633
20531W        W80067  30.150  27.540  14.309
20532W        W80068   7.335   4.900  13.511
20533W        W80069   0.865   9.762  12.834
20534W        W80070  14.588   8.813  11.410
20535W        W80071   1.746  17.093   0.777
20536W        W80072  32.534  35.031  13.932
20537W        W80073   7.314  37.348  14.458
20538W        W80074  44.985  18.297  13.908
20539W        W80075  33.070  33.536  14.765
20540W        W80076   2.749  22.662   1.248
20541W        W80077  42.492  13.600   4.293
20542W        W80078  19.751  28.083  11.897
20543W        W80079  40.310  41.465  14.893
20544W        W80080  14.639  36.568   1.243
20545W        W80081   7.402  17.097  10.634
20546W        W80082  14.312  30.914   1.741
20547W        W80083  15.322  36.537   2.295
20548W        W80084  32.613  39.029  10.046
20549W        W80085  36.376  20.681  14.003
20550W        W80086  18.123  26.109   3.845
20551W        W80087  36.040  35.537  12.567
20552W        W80088  42.463  32.111  13.503
20553W        W80089  22.644  18.700  13.495
20554W        W80090  22.728  41.306  10.148
20555W        W80091   8.239  37.848   0.835
20556W        W80092  10.372  44.985  14.881
20557W        W80093   8.231  35.506   2.783
20558W        W80094  34.541  30.125   0.733
20559W        W80095   6.398   5.755   2.762
20560W        W80096  15.272  25.127   4.223
20561W        W80097  24.230  41.836   3.813
20562W        W80098   9.727   6.414   4.310
20563W        W80099   0.823  29.669  13.344
20564W        W80100   5.229  30.522  11.374
20565W        W80101  21.043  38.835   4.310
20566W        W80102  20.151   8.839  12.386
20567W        W80103  25.632  36.010   0.414
20568W        W80104  28.936  17.152  14.484
20569W        W80105  32.989   8.210  10.460
20570W        W80106  21.670  31.962  11.062
20571W        W80107  35.869  20.069   0.891
20572W        W80108  31.930  29.660  12.828
20573W        W80109   2.946  28.005   5.602
20574W        W80110  39.543  17.716   1.418
20575W        W80111  10.839  25.068   1.221
20576W        W80112  30.910  24.221  14.889
20577W        W80113  15.229   6.777   4.249
20578W        W80114  33.468  15.133  14.463
20579W        W80115   3.353  21.209  12.000
20580W        W80116   2.270  25.580  13.858
20581W        W80117  42.994  14.190  13.956
20582W        W80118   3.858  42.353  13.522
20583W        W80119  16.651  38.906   3.217
20584W        W80120  24.715  35.569  12.395
20585W        W80121   9.354   2.937   3.861
20586W        W80122  44.350  13.731  14.385
20587W        W80123   8.196  34.485   0.286
20588W        W80124  34.413  39.863  13.977
20589W        W80125  32.459  42.903   2.204
20590W        W80126   4.310   0.452  12.090
20591W        W80127   2.413  12.702  12.028
20592W        W80128  31.017  42.957  12.492
20593W        W80129  38.334   9.767  13.032
20594W        W80130  32.516  15.262  11.932
20595W        W80131  25.538  30.641  11.914
20596W        W80132  13.106  19.745  11.925
20597W        W80133  21.229  11.676   4.250
20598W        W80134   2.327  18.720   0.944
20599W        W80135  18.732  18.281  11.881
20600W        W80136  28.123   2.815   1.229
20601W        W80137   8.736   3.950  14.947
20602W        W80138  16.811  40.000   1.302
20603W        W80139  32.494  15.224   0.843
20604W        W80140  22.719   2.408   5.166
20605W        W80141  36.928   5.777   0.344
20606W        W80142   0.449  30.949   4.289
20607W        W80143  16.776  43.878   2.333
20608W        W80144   1.743  39.329  11.471
20609W        W80145   8.167  32.486   4.755
20610W        W80146   9.259  38.885   2.817
20611W        W80147   5.744  20.198   1.407
20612W        W80148   9.382   2.937   2.333
20613W        W80149  26.991  14.277   4.116
20614W        W80150  37.086  38.898  14.309
20615W        W80151  11.373  43.338  12.440
20616W        W80152   5.283  29.066  11.413
20617W        W80153   4.832  33.612   1.354
20618W        W80154  42.302   0.311   2.284
20619W        W80155  21.590  15.666  12.896
20620W        W80156  24.087   4.365   2.263
20621W        W80157   7.795  12.838  12.576
20622W        W80158   8.204   8.792   1.284
20623W        W80159  26.491  38.849  12.829
20624W        W80160   8.175  23.559  12.351
20625W        W80161  24.084   8.173  13.323
20626W        W80162  12.212  17.651   1.855
20627W        W80163  25.528  41.424   2.715
20628W        W80164  14.703  42.457   0.454
20629W        W80165  33.623  33.456   1.713
20630W        W80166  36.870  29.665  14.808
20631W        W80167  40.512  34.569   4.137
20632W        W80168  42.005  44.326   4.756
20633W        W80169  41.530  20.543  12.851
20634W        W80170  16.567  11.771   3.677
20635W        W80171  24.536   9.336  13.415
20636W        W80172  12.160  18.183   2.742
20637W        W80173  10.849   1.871  14.967
20638W        W80174  27.085  44.387   4.155
20639W        W80175  33.001   8.746  14.869
20640W        W80176  23.670  35.026   3.734
20641W        W80177   9.208   0.950  11.448
20642W        W80178  29.054  28.091   3.301
20643W        W80179  30.617  30.980  11.041
20644W        W80180  13.156  31.461  12.521
20645W        W80181  38.383  30.514  11.403
20646W        W80182  11.192   8.765   0.329
20647W        W80183   1.760  15.301  14.863
20648W        W80184  34.933  34.051  13.008
20649W        W80185   6.404  13.192   4.270
20650W        W80186  28.636  11.302   3.173
20651W        W80187  31.491  20.239  12.912
20652W        W80188  38.372  29.980   0.730
20653W        W80189  11.864  37.360   2.815
20654W        W80190  38.519  23.729   4.629
20655W        W80191   9.343   7.783   2.261
20656W        W80192  23.169  44.258   1.746
20657W        W80193  30.497  14.661  11.604
20658W        W80194  38.568  31.425  10.555
20659W        W80195  25.612  13.243  11.565
20660W        W80196   3.437  16.160  11.418
20661W        W80197  21.512  13.620  12.851
20662W        W80198  39.969  37.942  12.978
20663W        W80199  19.766   0.937  13.924
20664W        W80200  12.670  30.922   1.805
20665W        W80201  20.607  32.624  14.994
20666W        W80202  16.088  43.998   3.306
20667W        W80203  25.125  16.113   0.306
20668W        W80204  26.487  32.973   1.818
20669W        W80205  19.090  22.540  11.478
20670W        W80206  27.950  27.951   3.210
20671W        W80207   4.700  24.593   4.779
20672W        W80208  17.617  27.069  10.925
20673W        W80209  10.732   1.762   3.663
20674W        W80210   4.398  37.982  14.513
20675W        W80211  22.535  35.914  13.504
20676W        W80212  14.737  27.015   3.720
20677W        W80213  26.003   9.200   2.879
20678W        W80214  39.851  34.972   2.384
20679W        W80215  30.919  21.735   1.719
20680W        W80216  12.822  36.910   1.263
20681W        W80217  33.054  27.479   2.839
20682W        W80218  19.554  23.525  11.882
20683W        W80219   2.341  20.717  12.986
20684W        W80220  13.332  12.809  10.638
20685W        W80221   3.928  44.324   0.889
20686W        W80222  20.661   5.861   3.238
20687W        W80223  37.835  28.671   0.728
20688W        W80224  35.902   2.312   3.350
20689W        W80225   2.786  30.603   3.327
20690W        W80226  34.060  31.433  12.382
20691W        W80227  11.327  33.132   1.838
20692W        W80228  28.435   4.863  13.991
20693W        W80229   9.286  28.064  11.504
20694W        W80230  23.573   9.870  11.497
20695W        W80231  34.536   8.729  14.829
20696W        W80232  40.524  39.845   5.147
20697W        W80233  12.656  41.326   3.733
20698W        W80234   0.254   0.369   0.835
20699W        W80235  23.026  37.909   2.192
20700W        W80236  26.040  41.388   3.669
20701W        W80237  44.784   9.255   4.200
20702W        W80238  19.611  10.795   4.656
20703W        W80239  28.029  18.077   4.206
20704W        W80240   7.323  28.524   2.829
20705W        W80241  18.132  22.037  11.610
20706W        W80242  30.618  36.044  11.120
20707W        W80243  38.514  26.590  14.924
20708W        W80244  15.325   7.318  10.545
20709W        W80245  32.121  15.703  11.897
20710W        W80246  37.844  13.313  10.968
20711W        W80247  36.496  34.913  11.061
20712W        W80248  14.634  38.856   4.808
20713W        W80249   8.885  17.768   4.334
20714W        W80250   4.294   7.851   2.766
20715W        W80251  35.991  42.341   4.650
20716W        W80252   1.862  20.747   3.714
20717W        W80253  10.739  18.732   4.825
20718W        W80254  43.865  36.897   4.218
20719W        W80255  30.008  10.653  14.829
20720W        W80256  18.168  19.222  10.932
20721W        W80257  18.722  30.006   4.792
20722W        W80258  36.044  11.865  11.432
20723W        W80259  14.322   6.347  12.383
20724W        W80260   2.360  19.759   1.789
20725W        W80261   6.230   3.756  10.627
20726W        W80262  35.877  11.127   4.310
20727W        W80263   0.777  29.473   0.300
20728W        W80264  14.130  39.012  10.946
20729W        W80265  21.588  35.372   4.319
20730W        W80266  26.996   8.192  14.363
20731W        W80267   6.872  35.416  12.009
20732W        W80268  28.092   2.927  13.406
20733W        W80269  36.859  16.701   0.419
20734W        W80270  27.969  36.931  14.809
20735W        W80271  16.075  29.427  12.885
20736W        W80272  21.022   8.688  11.988
20737W        W80273  31.599   1.255   2.855
20738W        W80274  34.955  20.255  10.939
20739W        W80275  11.176  42.854   0.312
20740W        W80276  20.710  28.503  13.825
20741W        W80277  44.908  17.729  14.320
20742W        W80278  22.747   1.474   0.366
20743W        W80279  12.815  28.563  14.391
20744W        W80280   2.346  33.554  11.994
20745W        W80281  24.684   2.454  14.494
20746W        W80282   7.685  30.493   2.348
20747W        W80283  19.576  34.574  10.017
20748W        W80284   4.796  21.646  11.892
20749W        W80285  21.518  23.630   2.310
20750W        W80286  24.975   1.298   3.718
20751W        W80287  17.764  24.191  13.978
20752W        W80288  14.256  15.232  12.561
20753W        W80289  20.638   2.823  11.858
20754W        W80290  30.437  39.336  12.994
20755W        W80291  34.068  27.033   1.391
20756W        W80292   9.209   6.323   4.152
20757W        W80293  28.591  33.982  14.333
20758W        W80294   4.732   6.334  12.435
20759W        W80295   9.388   6.686   3.332
20760W        W80296  18.693  32.539   0.927
20761W        W80297   8.243   8.170  10.416
20762W        W80298  20.137  43.424  12.838
20763W        W80299  33.396   2.472  13.826
20764W        W80300  15.656  13.321  10.591
20765W        W80301  41.432  38.821  10.538
20766W        W80302   0.801  13.197   2.752
20767W        W80303   8.379   2.228   3.200
20768W        W80304   5.880  11.808   1.758
20769W        W80305  41.522   5.415  11.379
20770W        W80306   3.951  43.811   1.430
20771W        W80307   0.327  32.112   0.382
20772W        W80308  28.494  27.594  14.335
20773W        W80309  10.837  15.714  10.531
20774W        W80310  34.905   7.355  14.364
20775W        W80311  23.671   2.367   2.835
20776W        W80312  36.948  24.110  12.003
20777W        W80313  15.318  38.421   0.248
20778W        W80314  41.810   4.393  14.783
20779W        W80315   2.416  27.664   1.363
20780W        W80316   2.409  28.590  14.889
20781W        W80317   2.734  44.864  12.856
20782W        W80318  32.081   6.313  13.389
20783W        W80319  28.030   9.726   1.377
20784W        W80320  10.323  15.089   1.228
20785W        W80321  12.666  39.925   0.848
20786W        W80322  15.089  14.216  12.419
20787W        W80323  11.661  22.067  12.963
20788W        W80324  35.916  40.514   1.292
20789W        W80325  27.552  17.656  13.993
20790W        W80326   1.464  14.789   3.386
20791W        W80327  36.870   0.770  14.418
20792W        W80328  31.648  18.242  14.950
20793W        W80329  28.965  20.737   4.335
20794W        W80330  24.066  43.439   3.750
20795W        W80331   0.921  13.283   1.351
20796W        W80332  14.682  35.528   1.427
20797W        W80333  37.970  12.743   0.830
20798W        W80334  15.326  30.001   2.217
20799W        W80335   4.730  27.606  12.447
20800W        W80336  38.032  15.795   2.247
20801W        W80337  15.217  19.565   9.619
20802W        W80338   0.330  24.033  14.404
20803W        W80339   9.759  19.638   4.217
20804W        W80340  43.383  13.115  11.047
20805W        W80341  38.822  20.703  11.989
20806W        W80342  40.543  40.869   3.217
20807W        W80343  15.733  31.960   0.428
20808W        W80344  37.986  34.403  13.388
20809W        W80345   1.800  38.923   4.235
20810W        W80346  20.534  41.312  14.894
20811W        W80347  29.588  40.535   2.251
20812W        W80348  34.497  39.882   4.605
20813W        W80349  39.982  30.161  14.883
20814W        W80350   1.857   6.185  10.897
20815W        W80351   8.348  13.844  10.938
20816W        W80352   1.898  12.642   1.870
20817W        W80353  43.411  15.208  11.441
20818W        W80354  32.441  36.891   4.186
20819W        W80355  21.207  15.139   4.773
20820W        W80356  35.941  28.167  10.446
20821W        W80357   1.780  41.392  13.798
20822W        W80358  15.739  30.157   3.777
20823W        W80359  36.431  25.527   2.399
20824W        W80360  23.185  39.491  13.480
20825W        W80361   8.833   1.265  11.512
20826W        W80362  39.977  22.521  11.059
20827W        W80363  30.578  18.091  12.377
20828W        W80364   3.360  23.091   1.909
20829W        W80365  15.717  41.455   0.457
20830W        W80366  13.675  41.465   4.624
20831W        W80367  41.315  37.402  11.879
20832W        W80368  20.220   4.272  11.584
20833W        W80369   3.908   3.244  12.870
20834W        W80370  38.380  26.526  14.503
20835W        W80371  25.547  34.966  10.484
20836W        W80372  42.977  13.839  12.470
20837W        W80373  11.804  26.084   0.276
20838W        W80374  22.221   1.354  10.566
20839W        W80375  40.400  27.675   3.759
20840W        W80376   0.416  38.545  13.003
20841W        W80377  38.883  33.968  10.949
20842W        W80378   4.941  28.587  13.001
20843W        W80379   8.700  22.085  14.779
20844W        W80380  40.053  13.623   2.205
20845W        W80381  38.426  40.303  14.468
20846W        W80382  17.724   8.283   4.292
20847W        W80383  35.560  35.913   3.662
20848W        W80384  28.599  14.799  11.568
20849W        W80385  38.067  32.952  10.887
20850W        W80386  15.587   5.291  13.914
20851W        W80387  43.509   3.289   1.827
20852W        W80388   0.441  40.487   2.679
20853W        W80389  38.001  44.864  14.031
20854W        W80390   7.787  40.422  11.090
20855W        W80391  28.624   6.918  10.445
20856W        W80392   8.315  15.218   3.656
20857W        W80393  35.974  31.022  11.429
20858W        W80394  42.424   1.956   4.251
20859W        W80395   5.819  13.679   0.764
20860W        W80396  15.261   8.290  12.911
20861W        W80397  18.171  23.118  12.503
20862W        W80398  29.597   7.707   1.404
20863W        W80399  40.546  38.003  14.279
20864W        W80400  25.092  31.419  13.795
20865W        W80401  28.019  41.424  12.872
20866W        W80402  10.344  39.528  12.927
20867W        W80403  11.791  31.065   4.167
20868W        W80404  32.033  34.393  10.486
20869W        W80405  35.057  37.902   3.381
20870W        W80406  41.895  24.617  10.451
20871W        W80407  44.862  14.829   1.352
20872W        W80408  37.047  40.342  10.437
20873W        W80409   4.850  44.945  11.553
20874W        W80410  34.568  24.157   2.662
20875W        W80411  40.940   1.871  14.498
20876W        W80412  12.218   7.416   2.744
20877W        W80413  35.091   1.834  14.303
20878W        W80414  39.890  22.503   4.690
20879W        W80415  35.584  28.050  12.540
20880W        W80416  36.536  22.102   1.302
20881W        W80417  29.125   4.881   0.454
20882W        W80418  42.876  30.555  12.349
20883W        W80419  28.571  26.136   2.894
20884W        W80420  41.790   0.893  13.538
20885W        W80421  36.905   2.830  12.865
20886W        W80422   2.458   3.402  10.924
20887W        W80423  15.764  41.363  10.889
20888W        W80424   3.787  31.485  12.088
20889W        W80425  32.113  44.287  10.554
20890W        W80426  30.652  34.990   2.331
20891W        W80427  10.202  31.511  10.611
20892W        W80428   7.298  27.630  13.035
20893W        W80429   9.749  41.435  14.484
20894W        W80430  23.022  37.502  12.940
20895W        W80431   4.313  30.123   2.821
20896W        W80432  25.031  26.629   3.201
20897W        W80433  41.338  23.562   1.825
20898W        W80434  28.452   0.938   3.250
20899W        W80435  37.895  28.950   0.388
20900W        W80436  10.855  37.925  13.926
20901W        W80437  27.944  33.021   0.895
20902W        W80438  31.631  30.573   0.253
20903W        W80439  43.003  34.912   4.605
20904W        W80440  36.855  38.535   2.182
20905W        W80441  20.165  22.061  10.581
20906W        W80442  27.471  35.887   1.906
20907W        W80443  26.656  20.565  11.519
20908W        W80444  38.503  24.191  13.336
20909W        W80445   9.377  20.081  11.905
20910W        W80446  41.894  13.150  10.515
20911W        W80447  24.502  26.008   0.858
20912W        W80448  34.968  22.200   1.910
20913W        W80449  26.545   9.685   2.284
20914W        W80450  36.536  28.434  13.899
20915W        W80451  28.561   3.280  14.461
20916W        W80452   5.251  25.647   2.302
20917W        W80453  40.999  16.119   4.261
20918W        W80454  15.816  30.953   3.166
20919W        W80455  29.037  16.752  12.344
20920W        W80456   6.314  38.969   4.134
20921W        W80457  31.958  42.462  13.391
20922W        W80458  15.315  32.605   0.825
20923W        W80459  27.953  26.078  14.952
20924W        W80460  31.009  33.916   4.722
20925W        W80461  25.631  43.510   1.233
20926W        W80462  12.261  20.756  14.762
20927W        W80463  38.419   1.356   0.243
20928W        W80464   0.276  33.964   2.393
20929W        W80465  16.611  29.626  10.918
20930W        W80466  27.551  23.491   1.436
20931W        W80467  35.935  13.286   2.849
20932W        W80468   6.800  24.983  10.555
20933W        W80469  12.631  31.487   3.653
20934W        W80470   7.728   2.801  11.543
20935W        W80471  10.301  32.906   3.745
20936W        W80472  30.478  14.801  14.928
20937W        W80473  32.432   8.848  13.441
20938W        W80474   0.757   6.315  14.429
20939W        W80475  30.105  41.981   3.815
20940W        W80476  11.783  44.981   1.804
20941W        W80477   9.331  20.111  11.607
20942W        W80478  11.784  42.375  12.052
20943W        W80479  18.658   1.973   9.944
20944W        W80480  23.735  43.331   2.718
20945W        W80481  23.036  31.963  10.962
20946W        W80482  31.032  13.160  10.522
20947W        W80483  40.542   2.845  12.854
20948W        W80484  41.459  36.557  11.876
20949W        W80485  16.089  18.654  13.941
20950W        W80486  23.697  43.389  12.096
20951W        W80487  40.495  29.030  13.527
20952W        W80488  14.100  36.462  11.903
20953W        W80489  14.740  14.643   1.866
20954W        W80490   4.831  32.417   1.734
20955W        W80491   4.272  23.548   3.849
20956W        W80492   7.899   4.922   4.700
20957W        W80493  35.475  37.873   4.767
20958W        W80494  32.533   3.415  12.948
20959W        W80495  15.153  21.560   3.643
20960W        W80496  32.584  33.039   1.858
20961W        W80497   2.336  31.049   0.757
20962W        W80498  24.509  19.620  11.993
20963W        W80499  15.584  41.445  10.146
20964W        W80500  21.615  30.919   1.739
20965W        W80501  17.700  16.214   4.302
20966W        W80502  14.173  25.582   1.823
20967W        W80503  11.179   2.385  13.531
20968W        W80504   2.425   8.344   2.405
20969W        W80505  38.524  35.975   2.319
20970W        W80506  18.060  37.080  13.314
20971W        W80507  27.472  25.706   4.674
20972W        W80508  20.124  17.584   1.780
20973W        W80509  28.069  25.185  12.377
20974W        W80510  43.379  42.818  13.937
20975W        W80511  25.645   2.378   3.823
20976W        W80512  13.220  21.017   4.206
20977W        W80513  19.623  16.188   0.943
20978W        W80514   0.477  26.954   1.756
20979W        W80515  30.628  44.829  14.903
20980W        W80516  15.629   3.318   3.331
20981W        W80517  40.498  21.665   4.727
20982W        W80518  14.319   4.746   0.313
20983W        W80519   0.973  23.570  11.468
20984W        W80520  11.337  38.559   0.858
20985W        W80521  34.509   8.880  12.882
20986W        W80522  20.705  34.399   0.812
20987W        W80523  21.680  37.362  13.857
20988W        W80524  40.523  41.328   3.743
20989W        W80525  32.494  38.072  13.968
20990W        W80526  20.100  36.467  14.946
20991W        W80527  36.940  39.513  11.484
20992W        W80528  30.427  29.066   2.808
20993W        W80529  20.240  36.360   1.328
20994W        W80530  18.689  13.634  11.036
20995W        W80531  16.107  44.944   3.812
20996W        W80532   7.383  13.791  10.989
20997W        W80533  10.679  40.306   3.344
20998W        W80534  31.132  19.064  12.043
20999W        W80535  38.040  37.055   1.312
21000W        W80536  39.890   5.298  10.566
21001W        W80537  38.477  39.475  14.018
21002W        W80538  32.887  31.608  12.086
21003W        W80539  10.697  29.989  10.120
21004W        W80540  17.691  16.131  11.002
21005W        W80541  29.091  37.073   4.309
21006W        W80542  26.638  43.358  10.593
21007W        W80543   5.419  28.549   2.856
21008W        W80544  25.552   2.316   0.357
21009W        W80545   2.385  15.287  11.548
21010W        W80546  21.688  28.145   3.637
21011W        W80547  42.814  18.112   2.191
21012W        W80548   1.793   6.888   4.233
21013W        W80549  31.431  38.446   1.365
21014W        W80550  32.398  10.252   2.781
21015W        W80551   7.836   2.233  14.418
21016W        W80552   8.686  17.588  11.925
21017W        W80553  34.080  39.929  12.886
21018W        W80554  23.995  41.902   0.368
21019W        W80555   9.687  30.137  12.433
21020W        W80556  11.625  36.879   4.135
21021W        W80557  17.727  44.272  12.484
21022W        W80558  42.844   1.413   4.333
21023W        W80559  23.539   5.816  13.823
21024W        W80560   2.266  23.138   3.631
21025W        W80561  10.154  34.039  10.563
21026W        W80562  12.204   8.242  14.458
21027W        W80563  14.625   3.894   2.687
21028W        W80564   0.362  11.768  13.970
21029W        W80565   2.798  27.191   1.233
21030W        W80566  33.470  33.431  12.973
21031W        W80567   3.354  34.424   9.922
21032W        W80568  32.958  31.637   0.961
21033W        W80569   0.364  14.317  11.386
21034W        W80570   2.295  41.931  11.039
21035W        W80571  40.944   9.694   0.886
21036W        W80572  35.920  11.360   1.802
21037W        W80573  36.878  30.506   1.835
21038W        W80574   6.687  10.281  14.813
21039W        W80575  42.881  27.030   3.331
21040W        W80576  21.107  34.101  12.431
21041W        W80577  36.940  22.229  13.359
21042W        W80578  17.790  37.511  11.890
21043W        W80579  11.248  14.122  10.906
21044W        W80580  32.096  34.574   2.718
21045W        W80581   7.238  35.553   2.729
21046W        W80582   7.830  36.005  10.581
21047W        W80583  15.801  44.868  14.853
21048W        W80584  27.666  38.421  11.500
21049W        W80585  11.848   4.321   4.286
21050W        W80586  19.721  29.442  14.435
21051W        W80587  41.925  40.416  12.928
21052W        W80588   2.267  35.443   2.709
21053W        W80589  32.575  34.964  10.525
21054W        W80590   5.801  24.980  13.467
21055W        W80591  10.869  23.073  14.279
21056W        W80592   7.894  16.218  14.391
21057W        W80593  28.003  21.025  10.537
21058W        W80594  17.156  18.779  12.900
21059W        W80595  26.169   5.741  11.895
21060W        W80596  22.050  21.107  11.002
21061W        W80597   9.189  20.612   2.331
21062W        W80598  20.767  39.001  10.129
21063W        W80599  22.525  25.043  12.507
21064W        W80600  29.636  20.694   3.828
21065W        W80601   2.295  24.021  11.603
21066W        W80602   1.449   0.761   2.704
21067W        W80603  14.322  33.607   2.280
21068W        W80604  11.179  24.589  11.898
21069W        W80605   0.293  16.139   3.254
21070W        W80606  44.398  33.521  10.063
21071W        W80607   8.857  17.592  11.420
21072W        W80608   3.892   9.763   2.794
21073W        W80609  34.919  11.206  11.994
21074W        W80610  41.439   9.313  11.061
21075W        W80611  28.147   8.303  11.033
21076W        W80612  20.265  40.868   3.680
21077W        W80613  30.567  40.964  14.989
21078W        W80614  28.499  21.599  12.357
21079W        W80615  14.132  35.936   0.944
21080W        W80616  41.460   3.218   4.769
21081W        W80617  31.037   2.307   0.382
21082W        W80618  32.570   1.247   2.385
21083W        W80619   0.748  38.839   2.302
21084W        W80620  11.643  17.695  14.413
21085W        W80621  20.553  37.832  11.883
21086W        W80622  11.344  25.548  13.545
21087W        W80623   2.929  12.756   5.216
21088W        W80624  25.498  43.325  14.400
21089W        W80625  21.129  16.803  13.440
21090W        W80626  25.469   6.320   1.934
21091W        W80627  12.198  44.303  14.440
21092W        W80628  32.506   5.822   0.256
21093W        W80629  16.129  28.472  10.959
21094W        W80630   3.278  29.431  13.341
21095W        W80631  10.860  21.664   0.805
21096W        W80632   9.730  13.695  11.985
21097W        W80633  12.135  26.953  11.899
21098W        W80634  28.661   7.858  12.076
21099W        W80635  34.581  19.181  13.848
21100W        W80636  38.031  32.936   0.963
21101W        W80637  10.658   9.207  11.439
21102W        W80638  39.334  12.245  12.574
21103W        W80639  39.338  28.639  13.456
21104W        W80640  24.113  10.682   2.353
21105W        W80641  15.614  15.597  13.922
21106W        W80642   0.786  15.774  11.532
21107W        W80643  30.592   7.415   3.730
21108W        W80644  43.366  44.970  13.021
21109W        W80645   7.793  26.552   3.357
21110W        W80646   4.279  12.630  13.873
21111W        W80647  25.038   7.355  10.981
21112W        W80648  30.093  17.745  11.544
21113W        W80649  21.220  27.598   4.292
21114W        W80650  37.078  30.039   4.340
21115W        W80651  11.240  42.022   4.228
21116W        W80652  39.042  43.336   5.257
21117W        W80653  41.041  44.403  12.869
21118W        W80654  35.416  11.311  13.369
21119W        W80655  10.281  19.769   3.710
21120W        W80656  21.720  14.620   2.706
21121W        W80657  15.769  14.302   2.822
21122W        W80658  24.634  23.721  11.435
21123W        W80659  22.639  35.400  13.371
21124W        W80660  37.935  29.957  12.965
21125W        W80661  23.093  35.074   4.613
21126W        W80662   1.401   8.278  11.891
21127W        W80663  16.661  42.966  11.122
21128W        W80664  20.645  38.856  12.035
21129W        W80665   5.321   5.220  14.465
21130W        W80666  30.511  12.823  10.642
21131W        W80667  25.666  22.146   2.338
21132W        W80668   2.868  18.616   0.886
21133W        W80669  10.649  34.603  11.915
21134W        W80670  37.474  36.957  10.476
21135W        W80671  29.991  27.059   3.735
21136W        W80672  31.956  26.004  12.445
21137W        W80673  18.775  37.507   3.756
21138W        W80674  11.132  22.676   1.432
21139W        W80675  12.162   9.329   1.440
21140W        W80676  19.689   8.381  11.119
21141W        W80677   4.896  35.932  11.478
21142W        W80678   7.880  20.055   2.384
21143W        W80679  37.434  40.044  11.506
21144W        W80680  25.211  20.232   0.903
21145W        W80681  21.130  11.194  14.490
21146W        W80682  17.689  14.230   5.221
21147W        W80683   5.199  34.037  12.573
21148W        W80684  44.480  18.071  10.628
21149W        W80685  15.231   5.292   4.792
21150W        W80686  43.842  25.969  13.994
21151W        W80687  14.735  36.421   0.756
21152W        W80688  11.630  24.554  14.432
21153W        W80689  10.177  40.352   4.826
21154W        W80690  27.963  32.990  13.465
21155W        W80691  17.725  40.313   3.151
21156W        W80692   2.898  28.676  14.993
21157W        W80693  27.075  10.165   4.776
21158W        W80694   4.400   2.960   1.868
21159W        W80695  25.043  23.202  11.077
21160W        W80696  39.422  41.002  14.453
21161W        W80697  21.232  14.831   2.728
21162W        W80698  12.349   1.942   3.343
21163W        W80699   9.852  28.945  12.058
21164W        W80700   0.761   8.856  12.419
21165W        W80701  15.602  22.693  10.013
21166W        W80702  39.365  44.457  10.933
21167W        W80703  26.474  18.700   3.834
21168W        W80704  44.459  38.970   0.244
21169W        W80705  42.314   8.741   4.661
21170W        W80706  43.323  39.397   1.783
21171W        W80707  23.637   0.851  11.533
21172W        W80708  32.041  20.098  14.317
21173W        W80709  28.091  29.449  13.057
21174W        W80710  19.696  41.341  12.007
21175W        W80711   5.749  38.547   3.737
21176W        W80712  24.142  22.730   4.241
21177W        W80713   9.174  22.133  11.534
21178W        W80714  17.120  32.482  14.447
21179W        W80715  10.651  25.582  10.573
21180W        W80716  15.108  43.413   2.844
21181W        W80717  31.921  24.632  14.298
21182W        W80718   0.370  26.963  11.014
21183W        W80719   7.317  11.772   2.381
21184W        W80720   3.299   5.825   2.857
21185W        W80721  21.042  16.773  10.435
21186W        W80722  14.799  27.626   4.280
21187W        W80723   5.921  38.921   1.825
21188W        W80724  24.209  32.406   4.240
21189W        W80725  40.452  41.460   1.220
21190W        W80726  26.596  20.752   1.387
21191W        W80727  33.875  20.698   4.124
21192W        W80728   9.298  22.690   0.267
21193W        W80729  37.002  31.444   0.928
21194W        W80730  32.126   2.786  13.064
21195W        W80731  18.053  43.799   1.318
21196W        W80732  26.087  37.409   4.710
21197W        W80733   4.769  40.498   2.338
21198W        W80734   2.369  41.041   1.388
21199W        W80735  16.603  44.891   4.126
21200W        W80736  14.725  25.173   1.310
21201W        W80737  23.202  31.522  14.370
21202W        W80738   4.894  27.070  13.535
21203W        W80739   1.898  37.047  13.966
21204W        W80740  26.993   3.292  13.408
21205W        W80741  14.163  42.962  10.083
21206W        W80742  41.339   3.427   3.224
21207W        W80743   1.796   9.816  14.411
21208W        W80744   1.298  28.154  14.821
21209W        W80745  27.449  15.153  10.629
21210W        W80746  14.223  17.274   1.295
21211W        W80747  26.499  40.522  14.500
21212W        W80748   1.266  19.158  12.036
21213W        W80749  37.365   2.385   5.094
21214W        W80750   4.734   2.758   1.869
21215W        W80751  28.959  26.680  14.853
21216W        W80752  41.942  32.394   4.227
21217W        W80753  38.033  43.889  11.544
21218W        W80754  41.472  16.179   2.375
21219W        W80755  31.534  31.610  13.889
21220W        W80756  11.192   0.316   0.483
21221W        W80757  31.980  28.095   4.328
21222W        W80758  11.760   5.706   1.854
21223W        W80759  23.626  18.275   0.293
21224W        W80760  26.670  25.482   3.700
21225W        W80761  19.641  39.354   0.776
21226W        W80762  23.030  30.530  14.365
21227W        W80763  27.689  25.686  12.832
21228W        W80764  29.541  10.642  11.099
21229W        W80765  20.232  21.740  11.983
21230W        W80766   8.368   4.429  12.891
21231W        W80767   9.369  15.120  11.917
21232W        W80768  33.038  13.204  13.861
21233W        W80769  32.024  35.975   3.201
21234W        W80770  31.599  38.384   4.272
21235W        W80771  29.667  12.272  12.967
21236W        W80772   4.253  34.441  10.927
21237W        W80773   1.943   1.753   1.757
21238W        W80774  40.038  28.055  14.397
21239W        W80775   0.295  15.773   2.220
21240W        W80776  18.158  39.030   3.275
21241W        W80777   2.806  22.059   3.151
21242W        W80778  37.942  29.021  12.374
21243W        W80779   6.888  27.162  10.434
21244W        W80780   3.334  32.963   0.826
21245W        W80781  24.087  19.570  13.796
21246W        W80782  38.537   5.716  10.508
21247W        W80783   8.377   1.454  13.928
21248W        W80784  21.721   5.930  11.976
21249W        W80785   2.730  24.199  12.367
21250W        W80786  28.929   8.359  11.429
21251W        W80787  39.006  26.539   5.198
21252W        W80788  14.330  28.966  10.938
21253W        W80789  23.121  43.408  10.976
21254W        W80790  28.151   5.385  10.529
21255W        W80791  39.034  28.968  14.351
21256W        W80792  15.598   0.918  10.925
21257W        W80793  30.488  43.021   2.861
21258W        W80794  39.479   8.218   0.291
21259W        W80795  16.577  33.914  12.565
21260W        W80796  25.089  22.121  10.425
21261W        W80797  44.943  29.157   1.288
21262W        W80798  20.113  28.993   5.166
21263W        W80799  40.023   1.975  12.491
21264W        W80800  18.757  29.961   4.320
21265W        W80801  28.665   2.943  13.837
21266W        W80802  19.152   6.772  11.946
21267W        W80803  43.993  42.410   3.298
21268W        W80804   4.353  23.217   4.148
21269W        W80805  33.090  19.725  11.519
21270W        W80806   6.220  24.018  11.607
21271W        W80807  11.138  12.711  11.065
21272W        W80808   4.895   8.391   1.373
21273W        W80809  42.866  38.487   1.383
21274W        W80810  43.790   9.795   1.708
21275W        W80811  33.440  30.970   4.609
21276W        W80812  31.435  39.446  13.040
21277W        W80813  24.219   9.759   3.365
21278W        W80814  34.062  41.870   1.271
21279W        W80815  15.702   8.256  13.388
21280W        W80816  30.131  13.763   4.726
21281W        W80817  17.219  15.729   3.262
21282W        W80818   4.284  22.218  14.846
21283W        W80819  25.011  26.532  12.378
21284W        W80820  10.746  20.175   1.339
21285W        W80821  37.992  26.638  14.483
21286W        W80822  21.126  35.487  14.768
21287W        W80823  41.483  41.966   1.275
21288W        W80824  18.649  36.468  13.437
21289W        W80825  13.747   5.425  14.339
21290W        W80826  24.039   7.773   4.269
21291W        W80827  16.182  19.264  11.873
21292W        W80828  29.016  25.575   0.830
21293W        W80829  35.063   4.246  12.512
21294W        W80830  40.470  42.875   2.252
21295W        W80831   0.487  23.053  14.447
21296W        W80832  20.763   9.664   0.888
21297W        W80833  35.864  14.680  13.332
21298W        W80834  16.254  34.020   3.251
21299W        W80835  29.478  43.405   4.747
21300W        W80836   2.351  16.803  12.053
21301W        W80837  30.012  28.440  10.063
21302W        W80838   2.890  21.731  14.288
21303W        W80839  21.220   5.423   1.794
21304W        W80840  23.212  22.652  12.551
21305W        W80841  25.044  35.063   3.711
21306W        W80842  26.508  34.557   9.454
21307W        W80843   5.244  44.476   0.477
21308W        W80844  28.656  16.189   3.692
21309W        W80845  19.761  44.465   3.655
21310W        W80846  24.692  19.718   4.800
21311W        W80847  38.408  36.361   3.304
21312W        W80848  13.657  38.846   1.884
21313W        W80849  23.516  35.034   0.939
21314W        W80850   7.722  41.532   4.329
21315W        W80851   0.382   7.209   1.731
21316W        W80852   4.738  34.593   1.704
21317W        W80853  17.299   5.216   2.834
21318W        W80854  29.545  22.101  14.810
21319W        W80855  42.372  14.302   1.724
21320W        W80856  18.647  29.922   1.743
21321W        W80857   0.960  42.384  14.468
21322W        W80858  27.025  13.231  13.332
21323W        W80859   2.362  33.457   1.419
21324W        W80860  37.967  27.551   3.306
21325W        W80861   2.465  43.421   1.281
21326W        W80862  22.075  10.201  10.612
21327W        W80863  15.799  16.677   1.899
21328W        W80864  23.224   1.321   4.150
21329W        W80865  14.832  33.926   3.762
21330W        W80866  10.706  31.525  12.971
21331W        W80867  40.462  29.998  13.491
21332W        W80868  12.313  16.731   2.755
21333W        W80869   8.312  22.543  13.495
21334W        W80870  40.912  20.611   3.695
21335W        W80871  18.211  15.674   3.810
21336W        W80872  41.475  39.952  13.483
21337W        W80873  33.542   4.385   2.686
21338W        W80874  28.023  31.934   5.250
21339W        W80875   4.242   6.334  11.569
21340W        W80876   8.274  34.094  14.888
21341W        W80877  25.145  14.165  13.027
21342W        W80878  14.702  11.127  10.581
21343W        W80879   4.299  40.380  12.869
21344W        W80880  17.627  28.031   0.254
21345W        W80881   0.960  44.919  10.934
21346W        W80882   8.671  37.939  11.463
21347W        W80883  35.503  16.628   3.767
21348W        W80884  42.432  11.266   0.460
21349W        W80885  18.180  16.250  10.571
21350W        W80886  10.857   9.644  12.343
21351W        W80887  36.425   3.898   5.263
21352W        W80888  24.018  30.587  11.441
21353W        W80889  42.317  18.107  11.058
21354W        W80890  36.957  15.588  13.888
21355W        W80891  41.335  42.496   4.670
21356W        W80892  34.053  20.547   4.750
21357W        W80893  42.880  24.592   3.657
21358W        W80894  33.127  22.719  11.457
21359W        W80895  33.022  23.496  11.959
21360W        W80896  44.298   8.736   3.238
21361W        W80897  43.811  36.590   0.957
21362W        W80898  12.741  10.634  14.774
21363W        W80899  34.582  22.103   2.844
21364W        W80900  14.763   2.864   4.837
21365W        W80901  23.639  32.122   2.251
21366W        W80902  23.183  10.186  13.040
21367W        W80903  37.852  33.945  12.074
21368W        W80904  14.789  25.606   2.674
21369W        W80905   7.256  42.499   0.298
21370W        W80906  15.281  17.196  11.926
21371W        W80907  35.905  41.018   3.707
21372W        W80908   8.174  30.923  12.567
21373W        W80909  30.648  33.959   2.746
21374W        W80910  16.175  38.910   4.282
21375W        W80911  41.380   4.340   4.789
21376W        W80912  21.144   8.209  10.625
21377W        W80913  39.530  22.151  13.505
21378W        W80914  42.396  29.029  13.425
21379W        W80915  29.576  25.107   2.316
21380W        W80916  14.664   7.323   2.298
21381W        W80917  25.087  21.688   3.234
21382W        W80918  18.573  19.081   2.194
21383W        W80919  32.572  15.624  13.411
21384W        W80920  43.884  33.101  14.022
21385W        W80921  34.468  41.496  13.478
21386W        W80922  20.159  30.145   1.715
21387W        W80923  24.050   7.271   2.688
21388W        W80924  27.089  26.034  13.982
21389W        W80925  43.485  13.625   2.186
21390W        W80926  36.016  25.644   4.165
21391W        W80927  24.038  39.968   5.116
21392W        W80928  29.656  30.054  12.939
21393W        W80929  22.141  14.273   3.802
21394W        W80930  43.999   1.972   2.195
21395W        W80931  44.940  23.703   0.919
21396W        W80932  43.783  14.338  10.139
21397W        W80933   0.755  30.576  12.539
21398W        W80934  35.550  35.574   4.836
21399W        W80935  23.640  28.162   4.676
21400W        W80936  33.891  39.038  14.449
21401W        W80937   7.389  43.469   4.195
21402W        W80938  27.450  16.100  12.951
21403W        W80939  12.822  30.073  13.922
21404W        W80940  40.464  37.830   0.872
21405W        W80941  12.811  35.415   1.270
21406W        W80942  30.119  21.198  11.885
21407W        W80943   9.177  33.879  13.010
21408W        W80944  28.087  41.854  14.386
21409W        W80945  16.573  23.151   2.681
21410W        W80946   2.802  29.445  13.055
21411W        W80947  36.962  12.692   2.264
21412W        W80948  38.837  32.125   0.354
21413W        W80949  35.039   3.903  10.566
21414W        W80950  37.981  38.556  14.440
21415W        W80951  28.526  35.865  11.915
21416W        W80952  30.070  24.230   3.300
21417W        W80953  23.151   4.778   2.195
21418W        W80954  12.334  10.140   4.162
21419W        W80955  42.490  13.234   4.223
21420W        W80956  38.408  15.766  13.378
21421W        W80957  37.911   0.250   0.946
21422W        W80958   6.707  15.211   1.365
21423W        W80959  35.507  13.329  10.976
21424W        W80960  17.062   1.804   3.712
21425W        W80961  18.161  31.132  11.558
21426W        W80962  12.654  26.610   1.418
21427W        W80963  24.669   2.394   4.761
21428W        W80964  31.935  33.123  12.426
21429W        W80965  40.014   6.421  10.910
21430W        W80966  17.668  11.217   0.856
21431W        W80967  10.804   4.809   2.218
21432W        W80968  25.128  10.635  11.865
21433W        W80969  30.417  38.841   0.907
21434W        W80970  15.584  17.637  14.405
21435W        W80971  31.944  11.725   5.236
21436W        W80972  26.506  20.136  11.958
21437W        W80973  37.397   1.966   4.131
21438W        W80974  23.534  12.809  13.479
21439W        W80975  32.432  30.137  10.584
21440W        W80976  43.413   1.777  13.505
21441W        W80977  26.994  14.806  11.446
21442W        W80978  30.090  43.292   1.825
21443W        W80979  22.006  28.457  14.408
21444W        W80980  43.408   1.802   4.124
21445W        W80981  15.762   6.416  14.894
21446W        W80982  33.960  24.524   5.170
21447W        W80983  36.479  43.360   1.907
21448W        W80984  34.469  38.442   0.934
21449W        W80985  42.401   9.363   0.804
21450W        W80986  23.010  31.497  13.318
21451W        W80987  26.491  27.988  10.528
21452W        W80988   4.772  19.612   0.924
21453W        W80989  20.260   8.801   0.328
21454W        W80990  14.322  38.516   3.195
21455W        W80991  17.175  15.095  10.559
21456W        W80992  12.270  44.431   1.760
21457W        W80993   1.385  21.117  10.064
21458W        W80994  31.095   0.843  11.087
21459W        W80995  42.471  44.797   1.828
21460W        W80996  44.493  41.393  14.277
21461W        W80997  29.008  31.064  10.430
21462W        W80998  40.415  25.580   3.229
21463W        W80999   0.251  18.051   4.287
21464W        W81000  27.611   4.210  12.435
21465W        W81001  34.563  20.031  13.476
21466W        W81002  21.516  10.872   3.756
21467W        W81003  32.039   2.427   0.771
21468W        W81004  27.063  25.622   1.285
21469W        W81005  43.858  38.365   2.880
21470W        W81006  35.090  15.824   1.317
21471W        W81007  29.978  10.365   2.350
21472W        W81008  11.343  20.238  14.502
21473W        W81009  31.620   4.927  12.941
21474W        W81010  33.430  29.608   1.774
21475W        W81011  29.653  17.766   3.866
21476W        W81012  36.051   0.769  14.972
21477W        W81013  13.122  40.967  14.301
21478W        W81014  31.936   9.820   2.383
21479W        W81015   3.460  19.050  14.355
21480W        W81016  37.442  15.170  13.468
21481W        W81017   8.220  21.038  13.334
21482W        W81018   8.798   6.313   2.285
21483W        W81019   9.844   4.233   3.815
21484W        W81020  40.909  14.335  13.496
21485W        W81021  18.732  31.532   1.346
21486W        W81022  43.910  18.708   1.346
21487W        W81023   0.439  28.439   0.882
21488W        W81024  13.698  29.968  11.404
21489W        W81025  17.721  36.548   3.835
21490W        W81026  41.976  29.057  13.311
21491W        W81027  35.515  14.187  13.403
21492W        W81028  36.486  29.471  13.534
21493W        W81029  32.506  37.060  12.414
21494W        W81030  23.018  36.535  11.019
21495W        W81031  29.460  33.505   3.285
21496W        W81032   6.194  23.177  11.485
21497W        W81033  27.604   1.313  11.414
21498W        W81034  34.967   4.812  14.374
21499W        W81035  43.806  43.327  14.020
21500W        W81036   0.262  24.200  12.371
21501W        W81037  20.679  30.106   2.780
21502W        W81038  38.334   1.425   1.269
21503W        W81039  27.671  31.643  13.010
21504W        W81040  15.195   1.426  14.993
21505W        W81041  22.186  28.526  13.309
21506W        W81042  38.502  19.717   1.850
21507W        W81043   1.302  17.715  11.394
21508W        W81044  39.367  30.429  14.921
21509W        W81045  30.422  30.087  10.539
21510W        W81046  12.317  23.022  14.333
21511W        W81047  15.590  30.996   2.788
21512W        W81048   6.344  22.127   3.223
21513W        W81049  30.921  11.790   2.687
21514W        W81050   1.290  41.344   0.359
21515W        W81051  41.039  11.718   2.186
21516W        W81052  41.974  42.839  14.935
21517W        W81053  16.717  24.977   2.241
21518W        W81054  44.805  36.038  11.889
21519W        W81055  11.309  27.493   1.739
21520W        W81056   1.409  40.391   3.735
21521W        W81057  16.769  41.447   2.898
21522W        W81058   7.712  11.628   1.418
21523W        W81059   9.843  12.321  11.122
21524W        W81060  43.398  38.956   1.724
21525W        W81061  37.862  26.571   4.641
21526W        W81062  34.025  43.995  14.989
21527W        W81063   6.747   9.787   4.252
21528W        W81064  31.530  20.663  11.891
21529W        W81065   4.698  32.494  12.433
21530W        W81066  25.549  26.462  10.943
21531W        W81067   3.800  34.892  10.004
21532W        W81068  29.005  14.113   3.771
21533W        W81069  32.619  28.499  13.407
21534W        W81070  22.178  15.666  13.456
21535W        W81071  17.222   2.883   4.816
21536W        W81072  34.534   2.741  11.031
21537W        W81073   6.735  26.969   4.671
21538W        W81074  39.485  12.251  12.032
21539W        W81075  34.376  18.714   2.843
21540W        W81076  39.381  41.479  12.882
21541W        W81077   9.829  43.337   4.318
21542W        W81078   9.654  21.527   3.219
21543W        W81079  43.847  34.402  10.902
21544W        W81080  15.171  35.068   0.436
21545W        W81081  17.296  35.360  12.547
21546W        W81082  29.030  41.342  12.087
21547W        W81083  29.086  41.952  10.985
21548W        W81084  43.953  14.600   2.183
21549W        W81085  12.234  28.618   4.745
21550W        W81086  13.741  41.304  13.801
21551W        W81087   6.841  22.055   3.648
21552W        W81088  20.135  17.092  14.288
21553W        W81089  37.986   6.751  11.925
21554W        W81090  24.550  41.911  11.114
21555W        W81091   1.330  41.043   2.332
21556W        W81092  22.575  26.978   3.286
21557W        W81093  35.972  41.313  12.344
21558W        W81094  25.201  29.620  14.866
21559W        W81095  32.637  18.257  13.389
21560W        W81096  15.288  26.154  10.449
21561W        W81097  32.501  19.552   2.849
21562W        W81098   9.353  41.333  11.373
21563W        W81099  33.468  14.658   0.368
21564W        W81100   8.269   9.218  11.967
21565W        W81101  14.703  43.343   2.864
21566W        W81102   4.862  43.892  13.935
21567W        W81103  40.513  39.496  13.365
21568W        W81104   2.377  36.522  14.331
21569W        W81105   0.764  25.638  11.880
21570W        W81106  36.861  16.203   4.646
21571W        W81107  18.291  20.701   1.906
21572W        W81108  34.973  25.973   4.731
21573W        W81109   5.905  19.060   2.860
21574W        W81110  44.011  30.980  14.462
21575W        W81111  13.700  44.933   4.614
21576W        W81112   2.775  15.590   1.751
21577W        W81113  24.643  42.944   2.287
21578W        W81114  15.813  29.506  14.833
21579W        W81115  39.382  39.942  14.375
21580W        W81116  18.639   5.689   4.132
21581W        W81117  24.487  28.665  13.342
21582W        W81118  14.694  44.920  10.906
21583W        W81119   8.336  15.779  14.990
21584W        W81120  11.222  23.562   1.396
21585W        W81121  22.238  27.603   0.880
21586W        W81122  30.572  23.212  13.546
21587W        W81123  17.768  17.572  14.311
21588W        W81124   7.339  25.670  13.016
21589W        W81125  29.079  22.569  12.456
21590W        W81126  39.460  30.962   2.258
21591W        W81127  25.572  33.570  11.055
21592W        W81128  42.453  31.647  14.337
21593W        W81129  28.477  43.794  13.396
21594W        W81130  39.043  23.646   0.328
21595W        W81131  23.154   2.302   3.863
21596W        W81132  30.594  31.905  13.343
21597W        W81133   5.351  21.719  11.968
21598W        W81134  21.208  39.540  13.455
21599W        W81135  23.143  38.849  14.858
21600W        W81136  23.102   4.883   1.247
21601W        W81137   2.241  10.789   4.327
21602W        W81138   8.706  28.512   0.474
21603W        W81139  21.131  32.546  12.464
21604W        W81140  28.067  21.157   3.816
21605W        W81141  29.643  28.551  10.552
21606W        W81142   1.883  38.869  13.957
21607W        W81143  12.223  25.049   4.627
21608W        W81144  12.306  14.274   2.833
21609W        W81145  27.668  40.465   3.823
21610W        W81146  23.520   7.817   2.896
21611W        W81147   6.384  43.453  12.868
21612W        W81148  31.551  11.844  14.447
21613W        W81149  21.143  10.814  13.922
21614W        W81150   5.933  10.659  11.500
21615W        W81151  11.157  39.928  13.842
21616W        W81152   4.834  36.071  14.975
21617W        W81153   5.707  39.845   0.892
21618W        W81154  21.518   4.905   0.775
21619W        W81155   6.916  13.772   1.766
21620W        W81156   4.400   2.848   4.601
21621W        W81157  14.677  34.507  14.987
21622W        W81158  23.707  30.416  12.346
21623W        W81159  34.419  35.436   0.449
21624W        W81160   8.672  21.254  14.827
21625W        W81161  21.253  11.758  13.896
21626W        W81162  42.952   6.392  11.582
21627W        W81163   1.440  23.227  10.625
21628W        W81164   1.371   8.177  13.949
21629W        W81165   8.872  14.647   3.343
21630W        W81166  26.649  36.584   2.298
21631W        W81167  16.714  14.279  10.541
21632W        W81168  43.981   3.808  14.329
21633W        W81169  27.197  43.391   0.850
21634W        W81170  23.222  31.066   3.210
21635W        W81171  12.634  23.006   3.310
21636W        W81172  33.438   3.332   2.776
21637W        W81173   4.807  36.406  11.048
21638W        W81174  27.990   1.473  10.950
21639W        W81175  20.563   2.243  10.914
21640W        W81176  37.424   9.343  12.475
21641W        W81177  22.505  23.028   0.782
21642W        W81178  26.046  20.746   5.191
21643W        W81179   3.279  36.088  12.973
21644W        W81180  29.484  21.105  10.086
21645W        W81181   1.294  12.303  12.529
21646W        W81182  14.128  18.676  12.393
21647W        W81183  29.657  42.322   1.307
21648W        W81184  22.580  31.634   4.239
21649W        W81185  35.979  11.799   4.674
21650W        W81186  30.473   7.786   4.178
21651W        W81187  35.503  18.560  11.125
21652W        W81188   4.887  28.652  14.002
21653W        W81189  29.545  40.476   0.773
21654W        W81190  17.798  36.093  12.856
21655W        W81191  37.945  43.376  13.855
21656W        W81192  43.297  38.332   1.836
21657W        W81193  44.994  31.565  13.396
21658W        W81194  44.386  21.605   3.655
21659W        W81195  38.432  30.658  14.882
21660W        W81196  43.390  42.952   1.267
21661W        W81197  24.662  16.092   4.204
21662W        W81198  12.846  39.458  11.542
21663W        W81199   1.457  38.435   3.681
21664W        W81200  35.875  17.758  12.364
21665W        W81201  32.966  44.480  13.547
21666W        W81202  11.219   9.752  11.547
21667W        W81203  39.467  26.618   1.358
21668W        W81204   9.277  27.580  14.016
21669W        W81205  35.940  13.710   1.724
21670W        W81206  38.843  26.147  14.818
21671W        W81207  24.126  44.266   5.250
21672W        W81208  42.282   0.857  14.442
21673W        W81209   2.301  20.576   1.883
21674W        W81210  38.483  30.997   2.339
21675W        W81211   3.354  17.294  11.501
21676W        W81212  37.904  23.984   0.875
21677W        W81213  40.335  14.637   0.428
21678W        W81214   5.316   0.344  11.544
21679W        W81215   3.735  28.568   3.309
21680W        W81216  26.199  25.024  12.552
21681W        W81217  40.048  41.517  14.009
21682W        W81218  43.344   6.858   1.894
21683W        W81219  30.656  37.926   3.832
21684W        W81220  26.197  25.544  10.457
21685W        W81221  28.641  33.943  14.872
21686W        W81222  44.860  10.658  12.911
21687W        W81223  41.942  15.748  12.841
21688W        W81224  12.231   6.749   0.879
21689W        W81225   5.429  30.100   1.422
21690W        W81226  27.981  22.596  14.848
21691W        W81227  11.332   9.322  10.920
21692W        W81228  31.944  12.281  14.910
21693W        W81229  21.217  41.386  11.967
21694W        W81230  25.673  37.944   0.473
21695W        W81231  20.175  21.538  11.584
21696W        W81232  43.498  29.956   2.331
21697W        W81233  30.948  36.537  10.575
21698W        W81234  28.605  21.122   2.718
21699W        W81235   3.893  19.190   2.402
21700W        W81236  37.022  15.236  12.525
21701W        W81237  30.075  14.816   0.892
21702W        W81238  27.623  26.011  14.932
21703W        W81239  12.851  33.620  12.461
21704W        W81240   8.844  16.237  11.604
21705W        W81241  21.575  10.663   1.431
21706W        W81242  37.909   6.883  12.343
21707W        W81243  20.754  36.589  12.480
21708W        W81244  27.947  41.327   0.481
21709W        W81245   4.734  37.502   4.200
21710W        W81246  31.925  20.622   3.307
21711W        W81247  43.863  43.414   4.266
21712W        W81248   8.196  37.961  10.574
21713W        W81249  11.129  14.286   3.146
21714W        W81250  40.863  12.220  13.415
21715W        W81251   9.870  15.301  13.936
21716W        W81252  39.551  14.240   4.799
21717W        W81253  14.115  23.549  12.936
21718W        W81254  23.692  24.649  10.903
21719W        W81255   0.769  26.591  10.033
21720W        W81256  26.679   7.716  13.485
21721W        W81257  10.383  41.451   2.341
21722W        W81258  30.427  36.435  12.093
21723W        W81259   9.242  36.558  13.858
21724W        W81260  16.215   4.745   0.732
21725W        W81261  26.137   2.944   1.232
21726W        W81262  26.165  36.405   4.652
21727W        W81263   4.921  11.647   3.299
21728W        W81264   4.777  31.490  13.476
21729W        W81265  10.855  17.134  11.444
21730W        W81266  30.908  21.150   9.952
21731W        W81267  41.475  27.158  12.443
21732W        W81268   6.678  12.224   3.798
21733W        W81269  42.348  41.420  14.893
21734W        W81270  37.888  34.538  11.986
21735W        W81271  33.959  32.550  12.973
21736W        W81272  18.282  23.184  12.001
21737W        W81273  22.082   0.261  13.539
21738W        W81274  19.127  21.572  14.507
21739W        W81275  15.127   1.896  14.331
21740W        W81276   9.750   9.756   2.827
21741W        W81277  10.752  39.047   4.211
21742W        W81278  28.101  31.916  13.545
21743W        W81279  20.172   5.887  11.949
21744W        W81280  16.117  32.631   2.862
21745W        W81281   0.869   5.713   1.844
21746W        W81282  13.776  22.155  13.837
21747W        W81283   5.867  19.255   4.837
21748W        W81284  30.485  31.057  12.467
21749W        W81285  25.535  34.420   1.214
21750W        W81286  17.119  30.987   3.773
21751W        W81287  41.795  37.496  11.007
21752W        W81288   5.865  20.163  12.034
21753W        W81289   0.852  35.852   1.277
21754W        W81290  44.873  39.932  12.366
21755W        W81291  32.948  33.910  11.412
21756W        W81292   7.841  22.710  13.941
21757W        W81293  28.951  16.626   3.733
21758W        W81294  33.454   2.727  12.456
21759W        W81295  30.979  39.313  12.539
21760W        W81296  43.910   9.759   4.725
21761W        W81297  38.979  18.791   0.411
21762W        W81298  33.412  41.865  12.073
21763W        W81299  33.088  42.501   1.346
21764W        W81300  26.015  23.676   0.363
21765W        W81301  30.016  44.259  14.293
21766W        W81302  14.735  26.019   2.679
21767W        W81303  30.562  24.020  12.915
21768W        W81304  26.093  26.689   0.962
21769W        W81305  42.995  14.329  12.425
21770W        W81306  44.887  31.617  13.953
21771W        W81307   2.323   3.360   1.418
21772W        W81308  38.495  27.684  14.367
21773W        W81309  10.826  30.596  13.546
21774W        W81310  22.547  41.408  13.897
21775W        W81311   4.936  37.371  14.360
21776W        W81312  30.474  29.082   3.270
21777W        W81313   4.896  26.480  10.904
21778W        W81314   5.809   5.234   0.432
21779W        W81315  43.851  37.563   1.366
21780W        W81316  20.168   1.352  12.095
21781W        W81317  17.668  30.991   0.823
21782W        W81318  17.213  30.636   1.865
21783W        W81319  11.861  42.815  12.962
21784W        W81320  15.634  16.602  13.412
21785W        W81321  16.295   9.725   4.350
21786W        W81322  15.790   9.876   3.823
21787W        W81323  18.139  36.528   1.847
21788W        W81324   5.401   1.872   4.774
21789W        W81325   5.783  13.192   2.859
21790W        W81326  39.327   3.880  12.938
21791W        W81327   7.858  35.855   1.770
21792W        W81328  42.907  44.389  12.071
21793W        W81329   7.911  36.042  13.807
21794W        W81330  44.885  27.675  10.598
21795W        W81331  11.136  19.626   2.196
21796W        W81332  29.969  14.621  11.032
21797W        W81333  16.206  21.066  14.862
21798W        W81334  42.863  34.538   0.885
21799W        W81335  42.824  44.285   4.149
21800W        W81336  27.181  11.211  11.384
21801W        W81337   2.875  42.031   1.258
21802W        W81338   8.864  20.601   0.395
21803W        W81339   0.899   2.255  10.414
21804W        W81340  30.511  28.502   3.840
21805W        W81341  35.886  24.167   3.856
21806W        W81342  15.710  39.510   2.408
21807W        W81343  20.268  40.982  14.458
21808W        W81344  12.156  23.109   2.841
21809W        W81345  20.064   3.782  10.610
21810W        W81346   3.785  18.153  12.887
21811W        W81347  34.882  26.520   5.225
21812W        W81348  30.571  30.543  10.994
21813W        W81349  21.640  16.126   3.168
21814W        W81350  39.372  27.459  14.398
21815W        W81351  24.133  17.730  13.795
21816W        W81352   6.691   6.275   3.835
21817W        W81353  24.508   6.812  12.537
21818W        W81354  14.203  10.341   2.417
21819W        W81355  29.542  22.024   0.787
21820W        W81356  15.659   1.374  12.030
21821W        W81357  43.907  12.249   0.748
21822W        W81358  25.650   0.818   1.295
21823W        W81359  23.602   7.384   4.161
21824W        W81360  24.122  34.914  12.035
21825W        W81361  22.192  42.466   2.855
21826W        W81362  16.779  20.529   0.951
21827W        W81363  23.700  22.223  12.407
21828W        W81364  36.472  16.234  12.886
21829W        W81365  27.952  32.433   0.338
21830W        W81366  15.098  12.847  13.003
21831W        W81367  25.052   2.867  12.922
21832W        W81368   9.678   5.268  11.998
21833W        W81369  27.084  24.188  10.104
21834W        W81370  15.787  20.238  14.825
21835W        W81371  31.908  21.596  12.506
21836W        W81372  17.691  28.963  11.923
21837W        W81373  43.504  40.934  14.324
21838W        W81374  17.083  11.741   4.144
21839W        W81375   6.188  20.540  12.087
21840W        W81376  26.537  39.999   4.675
21841W        W81377  32.466  22.043  14.007
21842W        W81378  41.338  29.604   4.820
21843W        W81379  17.291  28.054  14.407
21844W        W81380  25.618  35.961   2.393
21845W        W81381  12.359  22.526   3.850
21846W        W81382   0.749  39.024   0.805
21847W        W81383  29.925  26.172   2.249
21848W        W81384  13.616  34.066  12.542
21849W        W81385  14.589  23.622   2.859
21850W        W81386  36.503  27.075  13.309
21851W        W81387  16.264  38.001  11.556
21852W        W81388  13.725  37.336   4.684
21853W        W81389  21.173   1.300  11.600
21854W        W81390  24.036   6.222  14.468
21855W        W81391  44.844  24.565  12.997
21856W        W81392  10.246  11.734  13.050
21857W        W81393  34.004  27.097  12.068
21858W        W81394  39.817  33.047  12.067
21859W        W81395   1.478   9.337  11.869
21860W        W81396   0.420   5.932   2.714
21861W        W81397  37.337  14.811  12.533
21862W        W81398  12.646  41.797   0.363
21863W        W81399  35.603   9.303   2.678
21864W        W81400  18.790  44.008  12.922
21865W        W81401  42.456  29.491   0.862
21866W        W81402  15.277  26.696   4.800
21867W        W81403  22.553   9.342   1.894
21868W        W81404  43.965  20.719  13.465
21869W        W81405  41.936  38.489   0.927
21870W        W81406  18.204   8.846  10.977
21871W        W81407   5.745  31.041  12.859
21872W        W81408  23.175  14.673   0.855
21873W        W81409  41.424  12.715  14.276
21874W        W81410   0.913  25.080  12.468
21875W        W81411  31.075  37.541  14.872
21876W        W81412   3.845  34.596   0.942
21877W        W81413  24.147  39.022   1.895
21878W        W81414  40.387  37.502   3.348
21879W        W81415  42.786  31.001  14.811
21880W        W81416  28.042   0.297  11.475
21881W        W81417  41.865   8.325  12.856
21882W        W81418  28.530  44.784  13.948
21883W        W81419   3.736   8.861  13.961
21884W        W81420  27.077   4.865  14.027
21885W        W81421  39.418  32.507   2.295
21886W        W81422  12.301   7.389   3.782
21887W        W81423  37.952  33.963   1.424
21888W        W81424  16.244  39.887   4.124
21889W        W81425  43.475  37.006   2.748
21890W        W81426   3.710  22.659  12.520
21891W        W81427  27.091  14.283  13.919
21892W        W81428  10.264   1.430   3.175
21893W        W81429  21.228  15.117  11.607
21894W        W81430  11.797   7.221  14.815
21895W        W81431  43.425  23.118  10.981
21896W        W81432   3.899   9.743   3.250
21897W        W81433  30.470   9.333  11.107
21898W        W81434  28.153  36.422   1.225
21899W        W81435  19.678  31.544  11.921
21900W        W81436  41.354  44.797  13.323
21901W        W81437  39.823  42.864   4.258
21902W        W81438  41.864   9.778  12.546
21903W        W81439  12.726  11.351   0.957
21904W        W81440  14.307  41.486   1.355
21905W        W81441  33.495  11.188   0.423
21906W        W81442  20.552  24.518  13.899
21907W        W81443  24.164  20.084   2.194
21908W        W81444  27.601  19.095   4.705
21909W        W81445  25.056  17.302   5.644
21910W        W81446   7.308   0.826   3.193
21911W        W81447  20.113  12.340  14.436
21912W        W81448  21.518  34.516  13.003
21913W        W81449  39.995  38.411  10.462
21914W        W81450  23.072  33.474   1.851
21915W        W81451  27.634  17.098  11.403
21916W        W81452  40.357  28.561   1.920
21917W        W81453  39.040  14.812   3.296
21918W        W81454   2.362  14.304  12.427
21919W        W81455  33.108  37.857  14.323
21920W        W81456  24.715  20.113  12.547
21921W        W81457  43.828  43.483  12.934
21922W        W81458  39.510  28.952   1.244
21923W        W81459  41.351  31.057   3.677
21924W        W81460  10.225  17.099  13.803
21925W        W81461  43.348  13.318   3.178
21926W        W81462  42.777  42.831  12.556
21927W        W81463  28.451  33.102   2.674
21928W        W81464   4.920  43.993   3.317
21929W        W81465  30.629  15.153  10.955
21930W        W81466  43.905  33.563  14.765
21931W        W81467  35.575  26.702   4.348
21932W        W81468  16.208  21.183   3.215
21933W        W81469   7.814   1.430  14.297
21934W        W81470  19.249  22.043  11.450
21935W        W81471  40.051  16.148  14.969
21936W        W81472  26.014  17.263   3.320
21937W        W81473   8.226   3.855  12.985
21938W        W81474  42.312   9.674  14.399
21939W        W81475  13.205   9.239  12.072
21940W        W81476   9.822  43.359   3.295
21941W        W81477  44.836  19.636   2.721
21942W        W81478  40.517  28.450   0.442
21943W        W81479  41.904  15.691   0.876
21944W        W81480  26.457   7.764   4.311
21945W        W81481  43.850  13.176   4.712
21946W        W81482  29.939   3.303   1.710
21947W        W81483   8.396  10.633   3.377
21948W        W81484  39.965  35.588   0.357
21949W        W81485   9.229  39.951  14.477
21950W        W81486  28.536  19.199   1.702
21951W        W81487  32.595  21.071   0.792
21952W        W81488   0.869  10.812   3.837
21953W        W81489  22.209  18.750  12.827
21954W        W81490   2.869  39.372  12.416
21955W        W81491  36.403  38.530  13.938
21956W        W81492  12.780  35.982   3.713
21957W        W81493  10.709  22.554  12.086
21958W        W81494   1.742  16.282  10.461
21959W        W81495  16.088  44.846   4.275
21960W        W81496   8.263   2.387  12.071
21961W        W81497  39.337  23.552   4.283
21962W        W81498  25.991  44.348  13.355
21963W        W81499  16.233  19.720   0.948
21964W        W81500  21.516  43.969   0.391
21965W        W81501  25.632  17.159   5.219
21966W        W81502  37.343   0.814  12.000
21967W        W81503  36.021  23.040   0.468
21968W        W81504  40.445   7.737  13.843
21969W        W81505  19.099  36.943  10.561
21970W        W81506   3.280  40.483   2.313
21971W        W81507  27.491  38.450  10.482
21972W        W81508  37.919  40.477   2.336
21973W        W81509  20.031  18.205  11.448
21974W        W81510   1.885  26.167  13.507
21975W        W81511   4.801  37.558  10.887
21976W        W81512   8.230  44.928   2.891
21977W        W81513  38.955  19.152   1.243
21978W        W81514  25.219  25.038  11.046
21979W        W81515   3.412   0.982   0.320
21980W        W81516   7.791  44.313   1.907
21981W        W81517  44.357  24.139  11.575
21982W        W81518   5.248  14.298  14.464
21983W        W81519  19.770  21.748   1.254
21984W        W81520   5.731  16.664   0.471
21985W        W81521  38.918  24.086   2.814
21986W        W81522  43.444   9.342   2.744
21987W        W81523  14.150  33.559   0.766
21988W        W81524  35.959  22.713   1.809
21989W        W81525  14.256  30.067   3.243
21990W        W81526  41.446  22.671  13.435
21991W        W81527   2.340   9.727   4.699
21992W        W81528  17.080  24.140   2.218
21993W        W81529  25.024  40.992  14.845
21994W        W81530  14.163  22.736   2.900
21995W        W81531   1.793  29.097   4.224
21996W        W81532  36.879   0.303   4.222
21997W        W81533  20.741  31.138  11.509
21998W        W81534  43.851  42.333   2.234
21999W        W81535  44.298  31.152  11.963
22000W        W81536  26.070  37.957  11.896
22001W        W81537  26.508   7.211   0.875
22002W        W81538  14.316  11.302  13.385
22003W        W81539  41.855   3.822  14.862
22004W        W81540   5.741  17.611  11.572
22005W        W81541   6.417  42.346   4.139
22006W        W81542  28.105  17.278  13.369
22007W        W81543  39.340  24.156   3.200
22008W        W81544   4.821  43.512  11.443
22009W        W81545  32.118   9.374   0.954
22010W        W81546  43.273  36.498   3.640
22011W        W81547  26.996  19.700   9.938
22012W        W81548  11.783  39.521   4.225
22013W        W81549   8.775  36.018   3.255
22014W        W81550  37.893  22.093  12.071
22015W        W81551  20.616  44.897   4.228
22016W        W81552  39.945  38.891  12.485
22017W        W81553  40.811  41.413   3.763
22018W        W81554   2.246  12.708  10.075
22019W        W81555  37.920   0.427   2.751
22020W        W81556  38.356  34.593   3.771
22021W        W81557   7.212  10.193   0.729
22022W        W81558  17.619   5.863  14.830
22023W        W81559  11.362   2.884  14.896
22024W        W81560  12.653  15.178  13.980
22025W        W81561   4.720  42.809   3.217
22026W        W81562  14.795   8.776   2.179
22027W        W81563  41.793   2.856   3.222
22028W        W81564  37.875   1.937  14.985
22029W        W81565  29.663  35.519  13.504
22030W        W81566  14.692   2.790  11.528
22031W        W81567   2.748   3.221  10.908
22032W        W81568  27.650  13.844  14.886
22033W        W81569  12.291  27.028  14.821
22034W        W81570  42.402  17.145   4.643
22035W        W81571  36.496  11.822   3.220
22036W        W81572  13.607   5.934   4.253
22037W        W81573   0.859  29.082  11.126
22038W        W81574  34.958   9.764  14.511
22039W        W81575  23.066   4.903  13.913
22040W        W81576  24.577  19.641  14.883
22041W        W81577  21.586   7.840   1.704
22042W        W81578  16.791  41.027  12.400
22043W        W81579  43.476  38.938  14.770
22044W        W81580  35.409   9.163  14.353
22045W        W81581  16.266  24.072   0.390
22046W        W81582  33.984  39.824  11.481
22047W        W81583  44.464  11.776   4.205
22048W        W81584  36.360   6.775  10.579
22049W        W81585  18.130   6.226  13.800
22050W        W81586  33.575  26.015  11.606
22051W        W81587   3.223   1.850  14.281
22052W        W81588  26.082   4.303   3.186
22053W        W81589  36.544  30.049   4.123
22054W        W81590  12.163  37.528  12.362
22055W        W81591  19.744   1.419   2.319
22056W        W81592  15.271   6.832   3.249
22057W        W81593  26.481   1.412  14.415
22058W        W81594  30.519  35.566   3.169
22059W        W81595  22.670   9.692  14.514
22060W        W81596  44.333  31.527  14.468
22061W        W81597  14.596   4.769   9.947
22062W        W81598  14.137  22.539  12.909
22063W        W81599   2.386  13.245  14.935
22064W        W81600  20.614  39.539   2.745
22065W        W81601   7.391   7.392   0.354
22066W        W81602   1.955  14.604  12.042
22067W        W81603   6.287  17.723  12.923
22068W        W81604  19.070  30.649   2.305
22069W        W81605   2.353  26.570   4.681
22070W        W81606  30.502  36.493  13.466
22071W        W81607  22.550   2.783  12.962
22072W        W81608   9.670  21.222  12.555
22073W        W81609   2.771  18.752  12.469
22074W        W81610  32.917  44.490  11.933
22075W        W81611  40.861  25.161   1.811
22076W        W81612  11.827  10.286   1.334
22077W        W81613   2.906  11.326  12.378
22078W        W81614  11.802  13.788  13.044
22079W        W81615   5.700  41.297   4.689
22080W        W81616   7.731  12.654   4.353
22081W        W81617   1.459  26.071  12.377
22082W        W81618   8.823   3.233  11.382
22083W        W81619  12.728  26.599  13.458
22084W        W81620   1.324  34.944   1.931
22085W        W81621  11.211  35.403  11.433
22086W        W81622  14.169  19.740  11.531
22087W        W81623  18.237  24.710  10.889
22088W        W81624  35.072  34.953  14.514
22089W        W81625  41.994  21.055  13.331
22090W        W81626   6.725  25.108  12.377
22091W        W81627  33.048   3.306  11.449
22092W        W81628   0.807  34.399   0.739
22093W        W81629  39.460   8.223   1.807
22094W        W81630   5.751   7.827   1.862
22095W        W81631  21.678  14.691  11.419
22096W        W81632  16.807   2.262   1.726
22097W        W81633  17.157   6.777  11.595
22098W        W81634  22.691  21.110  12.390
22099W        W81635  31.010  22.566   2.767
22100W        W81636  35.466  29.614  11.555
22101W        W81637   7.702  36.479  14.009
22102W        W81638   3.321  41.836  13.873
22103W        W81639  11.247  17.709  12.892
22104W        W81640  34.579  30.964   0.859
22105W        W81641  42.376  33.925   2.706
22106W        W81642  23.126  15.756   4.239
22107W        W81643  11.670  32.975   2.355
22108W        W81644   8.699  25.153  12.376
22109W        W81645  16.684  15.173  12.460
22110W        W81646  38.511  18.760   3.826
22111W        W81647  35.098   6.327  11.452
22112W        W81648  24.656   5.253  14.473
22113W        W81649  29.643  12.256   2.192
22114W        W81650  28.651   5.332   3.823
22115W        W81651  40.390   5.928   3.640
22116W        W81652  15.742  11.128  12.359
22117W        W81653   7.856  27.604   3.751
22118W        W81654  16.095  34.390   1.243
22119W        W81655   3.741  25.003   1.733
22120W        W81656   1.319   5.232   3.288
22121W        W81657  38.398  30.480   2.247
22122W        W81658  35.068  23.630  12.863
22123W        W81659  30.980  30.093  14.922
22124W        W81660  41.303  33.896   3.218
22125W        W81661  37.463   7.829  14.406
22126W        W81662  42.303  41.450  10.560
22127W        W81663   7.172  12.183   1.347
22128W        W81664  30.956   1.360  13.988
22129W        W81665  40.344   9.689  14.325
22130W        W81666  40.841   7.679   0.731
22131W        W81667   3.724  12.274  11.882
22132W        W81668  26.098  39.504   0.927
22133W        W81669  15.669  21.231   2.784
22134W        W81670  25.994   1.453   3.203
22135W        W81671  33.600   3.711  13.473
22136W        W81672  43.508  25.034  13.538
22137W        W81673   6.212  35.929   5.135
22138W        W81674  16.143  39.458  14.285
22139W        W81675   7.698  35.083  12.867
22140W        W81676  32.046   2.895   3.355
22141W        W81677  27.448  29.086   2.737
22142W        W81678  10.641  41.493   2.199
22143W        W81679  21.045  24.557   0.775
22144W        W81680  30.637  22.061  12.548
22145W        W81681  32.139   8.730   4.838
22146W        W81682  28.461  35.980   4.184
22147W        W81683  38.470   7.408  13.487
22148W        W81684  38.032  20.044   3.258
22149W        W81685  20.630  19.679   5.256
22150W        W81686  28.647  43.842  10.904
22151W        W81687  14.109  30.440   2.274
22152W        W81688  31.582  25.166   0.273
22153W        W81689  41.412   1.328  14.921
22154W        W81690  42.981  18.682  14.295
22155W        W81691  43.430  18.179  12.484
22156W        W81692  44.424   1.787   0.959
22157W        W81693  31.505  38.040  12.092
22158W        W81694  14.150  20.213   1.763
22159W        W81695  28.963  25.105  12.501
22160W        W81696  36.470  32.885   0.791
22161W        W81697  38.377  10.782  12.010
22162W        W81698  22.161  18.087  11.900
22163W        W81699  23.073  32.950  12.535
22164W        W81700  38.833   2.300   0.467
22165W        W81701  36.569  38.968  11.555
22166W        W81702  38.541   0.886  14.329
22167W        W81703  42.901  17.085  12.829
22168W        W81704  24.120   0.768   1.310
22169W        W81705   1.418  18.117  13.447
22170W        W81706  34.026  17.778  12.039
22171W        W81707   5.309  17.750  10.945
22172W        W81708  35.072   0.395  11.445
22173W        W81709  24.619  38.909   2.301
22174W        W81710  15.265  38.864   3.213
22175W        W81711  43.330  39.835  12.465
22176W        W81712  25.634  13.138   3.211
22177W        W81713   1.840   8.342  11.558
22178W        W81714  27.188  13.753  11.077
22179W        W81715  29.050  13.110   1.930
22180W        W81716  22.119  18.765  10.589
22181W        W81717   3.288  43.324   3.823
22182W        W81718  21.033  10.215  14.946
22183W        W81719  40.401  43.395   1.238
22184W        W81720  21.599  22.129   3.205
22185W        W81721   4.303  22.586  11.965
22186W        W81722  16.576  20.542   2.851
22187W        W81723   8.826  28.537  14.828
22188W        W81724  15.096  14.094   0.466
22189W        W81725  33.565  10.165   1.338
22190W        W81726  18.052  10.679  12.047
22191W        W81727  30.434  35.425  14.763
22192W        W81728  23.985  33.989  11.480
22193W        W81729  17.270  18.769   4.301
22194W        W81730   8.679  24.980   4.256
22195W        W81731   0.262  39.012   3.271
22196W        W81732   6.404  11.770   3.289
22197W        W81733  12.738  15.291   4.139
22198W        W81734  37.027  42.915  11.553
22199W        W81735   9.386   3.237   5.181
22200W        W81736  24.176  40.940  14.806
22201W        W81737  12.138  21.183  11.400
22202W        W81738  25.634  28.673   4.133
22203W        W81739  26.978  40.041   0.819
22204W        W81740  14.663  36.407   4.219
22205W        W81741  20.197  16.207   3.249
22206W        W81742  33.399  25.038  13.876
22207W        W81743  40.522  23.167  11.910
22208W        W81744  25.984  26.570   1.221
22209W        W81745  33.393  21.224  10.041
22210W        W81746   2.405  23.051  12.381
22211W        W81747  36.540  37.866   2.760
22212W        W81748  40.399  35.988   4.766
22213W        W81749  37.412  21.548  13.000
22214W        W81750  11.744   6.865  12.534
22215W        W81751   5.756  43.378   2.347
22216W        W81752   0.821  38.534  12.428
22217W        W81753  10.261  21.643  12.466
22218W        W81754  19.715  27.940  14.027
22219W        W81755  25.165   4.890   2.189
22220W        W81756  30.631  24.724  14.940
22221W        W81757  43.333   5.397  11.489
22222W        W81758   0.417  29.111   1.897
22223W        W81759   9.340  25.110   1.374
22224W        W81760  18.647   6.344  14.976
22225W        W81761  15.247  11.303  14.892
22226W        W81762   4.718  30.483  12.827
22227W        W81763  35.391  44.395   1.717
22228W        W81764   9.234  21.147  13.942
22229W        W81765  15.211  27.051  13.992
22230W        W81766  19.091  34.047  11.979
22231W        W81767  24.002  34.025   4.197
22232W        W81768   9.644  32.004  11.590
22233W        W81769  31.043   3.832  11.856
22234W        W81770  35.498  15.281  10.952
22235W        W81771  10.670  34.514  10.925
22236W        W81772  23.131  15.205  11.506
22237W        W81773  25.549  29.071   4.344
22238W        W81774   7.205   8.395   1.703
22239W        W81775  28.549  37.495   1.275
22240W        W81776  43.768  38.912   4.830
22241W        W81777  40.881  33.001  13.345
22242W        W81778   3.343  24.167  14.002
22243W        W81779  30.608   5.357   0.483
22244W        W81780  31.948   3.262  14.938
22245W        W81781  41.789  37.074  14.377
22246W        W81782   0.833  29.540  11.071
22247W        W81783   6.821   2.752  14.420
22248W        W81784  37.382  34.958   0.826
22249W        W81785   8.863  21.041   0.252
22250W        W81786   5.703  29.615   2.215
22251W        W81787  22.714  31.090   0.868
22252W        W81788  24.175  16.306   3.178
22253W        W81789  22.565  33.895   1.271
22254W        W81790  15.308   5.726   4.821
22255W        W81791  22.997  37.839  13.822
22256W        W81792  40.490  16.776   3.669
22257W        W81793   2.814  22.048   3.808
22258W        W81794  12.637  18.141   0.357
22259W        W81795   2.251   6.210   1.225
22260W        W81796  43.498  24.531  11.442
22261W        W81797  40.408  32.630   0.441
22262W        W81798   1.952  25.034   3.858
22263W        W81799  33.475  38.485  13.858
22264W        W81800  33.030   0.982  10.024
22265W        W81801  20.544  44.831   3.840
22266W        W81802   8.835  31.142  14.023
22267W        W81803  26.110  11.682   3.795
22268W        W81804  23.515   5.752  11.948
22269W        W81805   5.207  16.741  11.381
22270W        W81806  28.028  40.380   2.202
22271W        W81807  11.850   1.857   4.148
22272W        W81808  11.745  23.558   0.902
22273W        W81809  40.875   7.289  14.365
22274W        W81810  19.639  22.534   0.385
22275W        W81811  35.096  34.917   2.198
22276W        W81812   6.724   9.378   2.226
22277W        W81813  38.472  40.830  10.615
22278W        W81814  34.462  37.419   1.859
22279W        W81815  36.911  32.571  12.897
22280W        W81816  14.794  32.073   4.691
22281W        W81817  35.002  21.071  10.971
22282W        W81818  44.379  38.053   2.195
22283W        W81819  28.056  30.907   0.376
22284W        W81820  20.104  43.796   0.935
22285W        W81821   8.257  30.136   4.264
22286W        W81822  28.440  37.923   4.199
22287W        W81823   0.845  29.972  14.030
22288W        W81824  27.961  36.868   3.720
22289W        W81825  44.493  10.271   3.782
22290W        W81826  18.674   9.694   4.278
22291W        W81827  32.529  39.811   4.734
22292W        W81828  36.855  27.505  12.404
22293W        W81829   6.208  37.523   1.764
22294W        W81830  27.010   9.858   1.425
22295W        W81831   7.741  31.983  11.417
22296W        W81832  43.450  31.550  12.416
22297W        W81833   3.916  13.295   3.859
22298W        W81834  36.945   1.426  11.125
22299W        W81835   4.747  26.456  12.040
22300W        W81836  16.184  27.537  10.548
22301W        W81837  32.058  23.600  11.083
22302W        W81838  40.392  17.269  12.360
22303W        W81839  16.078  33.894  10.478
22304W        W81840  21.038  26.965   4.629
22305W        W81841  23.082  21.671  13.843
22306W        W81842  36.002  33.394   3.340
22307W        W81843  32.400  33.907  11.086
22308W        W81844  39.500   3.256   3.321
22309W        W81845  10.156  16.121   4.605
22310W        W81846  17.669  20.215  14.794
22311W        W81847   6.821  31.423  12.025
22312W        W81848  34.526  21.180   4.644
22313W        W81849  18.773  37.446  12.883
22314W        W81850   6.269   3.854   4.768
22315W        W81851  25.197  20.195   2.895
22316W        W81852  42.524  24.115   2.889
22317W        W81853  40.911  19.604  14.444
22318W        W81854  13.309   9.214   0.864
22319W        W81855  37.513   6.862  13.360
22320W        W81856   5.201  17.224   9.990
22321W        W81857  25.136  22.014  12.444
22322W        W81858  28.643  25.134  14.319
22323W        W81859  44.998  18.643   4.118
22324W        W81860  32.096   9.828   0.904
22325W        W81861  27.148   8.839   3.854
22326W        W81862  38.887  12.269  13.793
22327W        W81863  36.978  43.900  10.563
22328W        W81864  18.729  31.516  12.360
22329W        W81865   7.887  20.224   0.936
22330W        W81866  31.116   4.425  11.562
22331W        W81867  42.948   1.896   0.859
22332W        W81868  22.670  21.017   3.687
22333W        W81869   0.905   0.979   1.719
22334W        W81870  37.909  39.360  14.772
22335W        W81871   6.742   2.758  12.868
22336W        W81872  13.338  22.738  10.965
22337W        W81873  23.590  33.516  14.486
22338W        W81874   6.714  29.606  13.431
22339W        W81875   7.208  23.179  12.556
22340W        W81876  14.661  41.386   1.697
22341W        W81877   2.900  14.339   3.786
22342W        W81878  16.194   4.799  14.932
22343W        W81879  30.631  24.617   2.284
22344W        W81880  20.053  44.897  10.477
22345W        W81881  22.742  38.016  11.964
22346W        W81882   4.206  33.043   3.704
22347W        W81883  38.854  27.690   0.301
22348W        W81884  31.078  11.756   0.782
22349W        W81885  30.159   2.938   1.724
22350W        W81886  15.660  20.726   2.792
22351W        W81887  23.086  19.648   2.345
22352W        W81888   7.195  33.116   4.630
22353W        W81889   7.725  42.841  11.494
22354W        W81890  27.154  40.921  14.458
22355W        W81891   3.340  24.070  14.853
22356W        W81892  24.500  16.591  11.861
22357W        W81893   0.878  42.466   4.224
22358W        W81894  39.416  23.574  13.905
22359W        W81895  37.378  26.497   0.419
22360W        W81896   4.910  10.877   0.244
22361W        W81897  27.583  16.698  10.437
22362W        W81898  15.688  34.087  10.161
22363W        W81899   6.291   1.936  11.080
22364W        W81900  22.045   3.449   1.364
22365W        W81901  28.630  37.528   0.823
22366W        W81902  36.946  44.799   0.941
22367W        W81903  10.840   2.464   3.813
22368W        W81904   8.688   3.771   4.116
22369W        W81905  29.919  44.848  10.543
22370W        W81906  27.188  38.917  13.872
22371W        W81907  29.626  30.059  14.884
22372W        W81908  26.035   5.772   5.576
22373W        W81909  18.146  20.727   3.172
22374W        W81910  42.012   9.155   4.674
22375W        W81911  44.436  20.565   2.760
22376W        W81912  29.522  26.565  11.376
22377W        W81913  14.209  18.293  12.850
22378W        W81914  15.609  21.041   3.655
22379W        W81915  33.955  10.682   2.304
22380W        W81916  21.064   9.360  11.550
22381W        W81917  12.190   8.352   2.697
22382W        W81918  24.141  34.529  10.488
22383W        W81919   4.752  20.111   1.261
22384W        W81920   2.274  38.977  10.900
22385W        W81921  43.511  35.910  14.495
22386W        W81922   2.419  35.599   1.222
22387W        W81923  28.677  41.848   2.884
22388W        W81924  39.462  29.437  13.513
22389W        W81925  29.491   8.815  12.578
22390W        W81926  20.261  39.862   4.714
22391W        W81927   1.320   2.355   0.793
22392W        W81928  14.209   6.845  10.082
22393W        W81929  23.200  31.151   0.390
22394W        W81930  44.972  37.506  10.567
22395W        W81931  26.066  33.490  13.958
22396W        W81932   5.315  34.086  11.864
22397W        W81933  36.996  40.517  13.061
22398W        W81934  31.937  43.973  12.899
22399W        W81935  42.832  37.580  13.474
22400W        W81936  18.184  41.906  12.422
22401W        W81937   3.263  36.006  10.049
22402W        W81938   0.904  40.001  12.359
22403W        W81939  23.507  43.959   3.171
22404W        W81940  44.339  14.801   5.215
22405W        W81941   9.352   2.794   0.915
22406W        W81942   0.336  41.420  11.563
22407W        W81943  41.859  36.889   0.859
22408W        W81944  15.676  12.632   9.942
22409W        W81945  27.176  27.524   2.836
22410W        W81946  13.608  32.890  11.968
22411W        W81947  38.986  27.673  12.380
22412W        W81948   8.312   8.202   4.631
22413W        W81949  15.598  19.236   3.286
22414W        W81950  26.064  38.003  14.864
22415W        W81951   2.801  31.521   1.753
22416W        W81952  34.104   3.307   0.406
22417W        W81953  38.546  26.647   3.297
22418W        W81954  34.058  13.214  11.383
22419W        W81955   6.336  27.969   0.850
22420W        W81956   0.376  25.147  11.889
22421W        W81957  17.586  14.758  12.878
22422W        W81958  13.243  43.393  14.514
22423W        W81959  15.805  21.063  11.071
22424W        W81960  14.655   2.785   0.826
22425W        W81961   5.224  11.833  12.841
22426W        W81962   8.785  31.002   2.186
22427W        W81963  34.110  12.745  14.839
22428W        W81964  11.224  23.691  10.550
22429W        W81965  33.451   5.798   0.772
22430W        W81966  16.694  35.473   2.802
22431W        W81967  10.831  40.826   0.334
22432W        W81968   5.828  12.231  10.478
22433W        W81969  18.157  28.102  13.384
22434W        W81970   6.742   7.679   3.182
22435W        W81971  40.368  40.914  10.999
22436W        W81972   8.219   2.411  11.117
22437W        W81973   5.876  12.700   4.200
22438W        W81974   5.825  29.528   3.705
22439W        W81975  26.670   1.848  13.822
22440W        W81976  18.693  33.384   0.411
22441W        W81977  35.100  23.988   3.293
22442W        W81978   7.246  11.660  13.863
22443W        W81979  22.583  25.678   2.869
22444W        W81980  24.147  39.341  10.639
22445W        W81981   6.858  11.652  14.778
22446W        W81982  16.276  32.094   1.348
22447W        W81983  10.832  19.541   4.601
22448W        W81984   7.402  44.836   4.239
22449W        W81985  36.098  28.092  10.925
22450W        W81986   6.711  24.613  12.942
22451W        W81987  25.043  39.401   1.757
22452W        W81988  16.234  32.967  14.958
22453W        W81989  17.116  41.452  14.949
22454W        W81990  26.555  44.938  12.491
22455W        W81991   2.871   1.791  12.418
22456W        W81992  36.468  36.979  13.389
22457W        W81993  36.955  15.759  12.938
22458W        W81994  15.276  42.808   3.383
22459W        W81995  17.616  43.973   0.946
22460W        W81996   3.271  22.176   1.301
22461W        W81997  30.961  14.206  13.978
22462W        W81998  44.851  38.832   4.628
22463W        W81999  41.292   5.377   4.194
22464W        W82000   9.657   1.908  12.962
22465W        W82001  42.521  31.499   2.763
22466W        W82002   5.207  28.525  11.449
22467W        W82003  15.753  43.775   3.363
22468W        W82004  35.920  16.268   4.613
22469W        W82005  23.655  31.153   2.367
22470W        W82006  44.358   2.283  10.953
22471W        W82007  18.578  27.483   2.717
22472W        W82008  33.523  29.574  10.527
22473W        W82009  20.731  37.410   0.832
22474W        W82010   6.233  37.455  11.076
22475W        W82011  23.150  24.004   1.392
22476W        W82012  35.074  29.434   5.225
22477W        W82013  21.139  32.133   4.232
22478W        W82014  22.740  29.944   4.181
22479W        W82015  29.639  30.452   5.232
22480W        W82016  36.011  30.643   2.309
22481W        W82017   2.800   0.338   2.902
22482W        W82018   0.897  33.434  13.323
22483W        W82019  11.333  44.497  11.521
22484W        W82020   8.306  44.411  11.013
22485W        W82021  15.162  40.931  12.397
22486W        W82022  42.966  25.551  13.022
22487W        W82023  30.932  19.162   3.772
22488W        W82024   1.277  12.227  11.892
22489W        W82025  44.835  15.288  14.795
22490W        W82026  43.368   9.357  14.847
22491W        W82027  40.353  34.095   0.252
22492W        W82028  24.621   5.229   2.322
22493W        W82029  39.011   8.806   1.291
22494W        W82030  44.966   5.300   3.257
22495W        W82031   3.380  33.111  11.909
22496W        W82032  40.506  19.613   9.938
22497W        W82033  21.248  24.120   5.157
22498W        W82034  19.098  28.000   4.805
22499W        W82035  19.218   7.300   4.816
22500W        W82036  17.593  39.056   4.659
22501W        W82037  41.013  39.949   0.739
22502W        W82038   3.867  30.130  12.930
22503W        W82039  10.187  18.192  13.492
22504W        W82040  40.365  14.704  10.945
22505W        W82041  40.051  30.480   1.723
22506W        W82042  41.445  43.997   2.783
22507W        W82043   8.826   1.950  11.901
22508W        W82044  41.976  12.799  11.552
22509W        W82045   4.239  30.031   1.747
22510W        W82046  39.417   3.446   2.338
22511W        W82047   8.835  27.647  14.820
22512W        W82048   9.315  43.364   2.856
22513W        W82049  37.033  12.349  12.836
22514W        W82050   8.850  26.065   1.744
22515W        W82051  34.463  18.728  10.592
22516W        W82052  41.335  22.566  10.493
22517W        W82053  11.751  36.937   4.799
22518W        W82054  42.323  17.136   1.402
22519W        W82055  42.440   6.253  12.542
22520W        W82056  23.603  35.910   0.347
22521W        W82057  35.359  14.244   3.146
22522W        W82058   9.256  28.930   1.699
22523W        W82059  20.153  10.643   4.280
22524W        W82060  11.851  42.846   3.651
22525W        W82061  21.231  24.624   3.658
22526W        W82062   9.299  34.478  14.836
22527W        W82063  23.076  25.666  10.997
22528W        W82064  22.556  37.509  14.813
22529W        W82065  44.998   4.744  11.571
22530W        W82066   8.404  20.729  14.290
22531W        W82067   5.930  44.413   0.245
22532W        W82068  27.999  42.309  12.406
22533W        W82069  25.631   0.977   5.247
22534W        W82070  20.209  32.026   3.671
22535W        W82071  26.129  16.596  11.028
22536W        W82072   2.299   9.841  11.902
22537W        W82073  29.162   8.670  13.409
22538W        W82074  41.026  26.684   4.614
22539W        W82075  30.097  23.503  13.344
22540W        W82076  31.989  25.553   2.876
22541W        W82077  21.680  33.545   2.319
22542W        W82078  10.662  23.736  14.426
22543W        W82079  24.679  27.955  11.008
22544W        W82080  29.950   6.714  13.309
22545W        W82081   5.263  40.858  14.499
22546W        W82082  11.312  29.139  14.469
22547W        W82083   2.354  34.118   4.715
22548W        W82084   7.214   5.818  14.900
22549W        W82085  41.520  29.100  11.504
22550W        W82086  21.103   0.372  11.874
22551W        W82087  10.196  43.809   0.963
22552W        W82088   1.466  13.729  10.527
22553W        W82089  15.786   1.958   4.796
22554W        W82090  16.299  26.118  14.452
22555W        W82091  14.661  24.979  12.983
22556W        W82092   7.798  20.720  13.054
22557W        W82093  33.562  26.055   0.388
22558W        W82094  42.513  21.634  10.527
22559W        W82095  24.133  28.089  11.110
22560W        W82096  43.982  41.378   3.304
22561W        W82097  37.955  19.552   2.354
22562W        W82098  43.834  11.303  10.597
22563W        W82099  12.208   0.330   4.648
22564W        W82100  23.600   6.845  14.501
22565W        W82101  31.956   4.242   3.235
22566W        W82102  15.685  38.853  11.376
22567W        W82103  15.238  42.482   0.409
22568W        W82104  11.703  31.642   1.800
22569W        W82105  26.127  12.818   0.337
22570W        W82106  17.094  10.777   1.412
22571W        W82107  11.715  31.019  12.943
22572W        W82108  43.383  27.615  14.505
22573W        W82109  28.005   6.843   1.782
22574W        W82110  36.883  21.592   4.827
22575W        W82111  43.831  27.045   9.482
22576W        W82112  12.348  26.560   1.425
22577W        W82113   0.781  34.069   1.885
22578W        W82114  36.362   1.780  11.995
22579W        W82115  20.625  43.790   2.223
22580W        W82116  13.326  13.730  14.816
22581W        W82117  18.563  44.441   0.413
22582W        W82118  34.382   9.334   3.347
22583W        W82119  23.540   7.347  14.924
22584W        W82120  16.732  24.649  11.113
22585W        W82121  36.369  14.737  12.369
22586W        W82122   5.327  10.861   2.858
22587W        W82123  36.416  31.022  10.933
22588W        W82124  20.121  37.857  10.495
22589W        W82125  37.564  14.240   2.843
22590W        W82126  15.092   6.700  11.576
22591W        W82127  15.749  29.031   1.246
22592W        W82128  11.308  13.329  12.868
22593W        W82129  30.956  27.008  13.043
22594W        W82130   1.256  21.707  12.951
22595W        W82131  11.347  38.541  13.886
22596W        W82132   3.226  19.062   0.337
22597W        W82133  36.464  26.663   4.797
22598W        W82134  26.522  12.695   0.282
22599W        W82135  16.764  44.872  12.016
22600W        W82136  21.179  43.341   1.930
22601W        W82137  31.921  34.877  13.868
22602W        W82138  43.948   6.756  12.023
22603W        W82139  11.214  43.504   0.253
22604W        W82140  18.772  23.140  11.944
22605W        W82141  23.113  44.951  14.456
22606W        W82142  41.449  36.095   4.255
22607W        W82143  43.471  16.693  11.042
22608W        W82144   9.210  14.122  10.458
22609W        W82145   3.296  40.013   2.377
22610W        W82146  22.059  17.249   1.224
22611W        W82147  22.175  31.423   1.851
22612W        W82148   8.288   3.774   2.201
22613W        W82149  36.534  19.262  10.575
22614W        W82150  29.499   4.810   1.223
22615W        W82151  34.465  32.106  12.424
22616W        W82152  41.420   1.740   3.713
22617W        W82153  23.047  30.499  10.896
22618W        W82154  33.075  11.259  12.543
22619W        W82155  13.139  36.028  11.117
22620W        W82156   7.367   2.776  10.643
22621W        W82157  21.258  18.771  10.158
22622W        W82158  15.142  17.281  10.434
22623W        W82159   2.436   1.777   2.704
22624W        W82160   5.383  19.589  10.976
22625W        W82161  29.075  34.888   1.452
22626W        W82162   9.662  42.962  13.421
22627W        W82163  43.951  38.899  14.390
22628W        W82164  14.610  25.623  10.906
22629W        W82165  14.810  36.939  10.992
22630W        W82166  34.560  13.605   1.919
22631W        W82167  40.436  30.094  10.900
22632W        W82168  19.617  42.887  13.987
22633W        W82169  37.982  11.863   2.855
22634W        W82170  12.623  22.105   4.754
22635W        W82171  13.249  23.700   0.284
22636W        W82172  26.481  43.410   2.283
22637W        W82173  33.535  24.114   0.349
22638W        W82174  14.318  13.818   4.801
22639W        W82175  17.630  26.013  14.283
22640W        W82176  41.974   8.748   3.645
22641W        W82177   8.207  22.091  11.431
22642W        W82178  27.624  37.426   4.127
22643W        W82179  28.184  27.501  10.476
22644W        W82180   6.346  18.728  14.379
22645W        W82181   3.297  12.797   4.747
22646W        W82182   5.412  29.554  10.984
22647W        W82183  29.636  11.333  14.488
22648W        W82184  22.578   6.829   2.861
22649W        W82185  20.591   6.730  13.831
22650W        W82186  14.291  35.568  12.083
22651W        W82187  25.495   6.732   0.934
22652W        W82188  24.715  42.357   1.928
22653W        W82189  29.160  40.027   4.654
22654W        W82190  23.734  37.579  12.489
22655W        W82191  19.281  20.618  11.913
22656W        W82192  25.972  29.492   4.315
22657W        W82193  31.553   3.218   3.741
22658W        W82194  21.109  12.662  10.157
22659W        W82195   2.757   1.748  13.910
22660W        W82196  15.222  37.465   1.929
22661W        W82197   9.370   9.251   4.113
22662W        W82198   3.919   4.861  13.524
22663W        W82199   5.760  33.935  12.439
22664W        W82200  20.111  39.889  14.312
22665W        W82201   7.677  17.637   2.794
22666W        W82202  35.552  39.374   4.147
22667W        W82203  32.398  18.188   5.235
22668W        W82204   9.172  22.685  13.996
22669W        W82205  32.970  26.672   5.784
22670W        W82206  24.045  28.994  14.980
22671W        W82207  33.004  41.324   0.308
22672W        W82208   1.933   7.298   3.768
22673W        W82209  12.629  37.836  13.049
22674W        W82210  25.672  11.851  11.509
22675W        W82211  14.711  41.911   3.737
22676W        W82212  15.641  27.580  10.017
22677W        W82213  39.337  40.803  12.530
22678W        W82214  17.765  34.072  14.516
22679W        W82215  42.308  25.185  12.524
22680W        W82216   8.221  43.476  14.984
22681W        W82217  37.519  18.277   2.821
22682W        W82218   8.312  19.178   2.757
22683W        W82219   3.744  22.735   3.812
22684W        W82220  34.471  31.114   3.223
22685W        W82221  34.957  42.926   3.381
22686W        W82222  14.663  10.756  13.421
22687W        W82223  32.018  40.477  14.807
22688W        W82224  38.558   7.778   3.171
22689W        W82225  22.570  37.552  13.451
22690W        W82226  31.474  38.548   3.206
22691W        W82227   8.168  40.365   0.775
22692W        W82228  12.766  37.368   1.349
22693W        W82229  23.134  31.532   4.789
22694W        W82230  21.733  38.882  12.011
22695W        W82231  24.162  37.860   3.696
22696W        W82232   5.689  14.165   2.728
22697W        W82233   4.858  20.625   1.428
22698W        W82234  20.530   9.245  11.950
22699W        W82235   3.890  28.524  11.974
22700W        W82236   7.380  16.791   1.736
22701W        W82237  21.134   7.178   3.839
22702W        W82238  36.544  22.173   1.716
22703W        W82239  40.317  44.955  13.497
22704W        W82240   9.678   2.433   3.320
22705W        W82241  32.141  41.997  13.393
22706W        W82242  14.699  21.708  11.030
22707W        W82243  20.133  24.520  12.553
22708W        W82244  17.611   7.349   1.236
22709W        W82245  41.924  15.590   3.323
22710W        W82246  44.912   7.725  10.541
22711W        W82247  10.342  38.503  11.530
22712W        W82248  16.787   0.414   0.772
22713W        W82249  35.890  27.950   0.834
22714W        W82250  38.010   8.269   3.343
22715W        W82251  39.355  12.706   3.192
22716W        W82252  23.603  18.246   0.836
22717W        W82253  12.822  24.993  12.444
22718W        W82254   4.761  20.259  10.559
22719W        W82255  39.062   8.884   1.809
22720W        W82256  10.748   7.378  12.056
22721W        W82257  20.626  15.625  13.315
22722W        W82258  13.247  10.843   3.309
22723W        W82259   1.967  33.073   0.478
22724W        W82260  25.474  12.146  12.903
22725W        W82261  20.532   4.338   0.379
22726W        W82262  24.549  11.727  14.412
22727W        W82263  31.027  42.402  11.952
22728W        W82264  19.089  34.510  11.492
22729W        W82265  22.126  23.708   2.249
22730W        W82266   6.680  30.109   4.733
22731W        W82267   3.424  21.185   4.792
22732W        W82268  44.403   3.776  14.918
22733W        W82269  39.547  22.007  12.921
22734W        W82270   5.246   6.890  14.468
22735W        W82271   5.746  43.411  12.911
22736W        W82272  29.942   9.177   0.307
22737W        W82273  18.590  39.953  14.378
22738W        W82274  12.682  33.559  13.869
22739W        W82275   8.317  31.452  14.919
22740W        W82276  31.088  17.190  10.114
22741W        W82277  42.945   2.877   4.673
22742W        W82278  26.564  13.788   2.318
22743W        W82279  30.427  43.793   1.885
22744W        W82280  36.538  31.973  10.974
22745W        W82281  39.429  17.619   1.848
22746W        W82282   3.382  11.855   4.811
22747W        W82283  29.144  16.692  13.391
22748W        W82284  19.537  18.278  14.799
22749W        W82285  33.040  19.172  11.110
22750W        W82286  35.108  33.040   3.718
22751W        W82287  12.317  18.208  13.353
22752W        W82288  13.179  36.364   1.922
22753W        W82289  17.756   5.434   2.826
22754W        W82290  34.968  39.015   4.316
22755W        W82291  27.125  13.205  12.537
22756W        W82292  10.794   5.849   4.272
22757W        W82293  40.529  44.260  10.125
22758W        W82294  24.721   3.856  13.064
22759W        W82295  29.111  21.049   0.411
22760W        W82296  22.091  32.980  14.321
22761W        W82297  25.528  30.978   3.869
22762W        W82298  42.504  30.047  11.881
22763W        W82299  41.956  20.238  11.875
22764W        W82300  43.858  38.968  14.836
22765W        W82301  44.959  12.146   1.774
22766W        W82302   9.371  15.718  10.903
22767W        W82303  17.781  26.032   0.327
22768W        W82304  25.584  32.036   4.784
22769W        W82305  17.247  36.419  13.367
22770W        W82306  38.387  42.912   0.409
22771W        W82307  30.566  40.449  11.548
22772W        W82308  44.919  37.494  13.831
22773W        W82309   0.408   3.420   2.761
22774W        W82310  26.534  21.101   2.233
22775W        W82311  13.635   3.318   1.421
22776W        W82312  24.099   4.353  14.466
22777W        W82313  15.208  43.420   0.408
22778W        W82314  19.072  35.859  13.321
22779W        W82315  41.475  24.978   3.757
22780W        W82316  44.857  15.269   3.268
22781W        W82317  32.636  18.235   2.179
22782W        W82318   3.401  29.525   5.309
22783W        W82319  27.119  43.908   1.865
22784W        W82320  12.680   0.284   4.317
22785W        W82321  44.312  19.591   3.306
22786W        W82322  16.089  18.179  12.943
22787W        W82323  18.755  31.645  14.856
22788W        W82324  16.072  10.150   0.412
22789W        W82325  23.188  14.629  11.978
22790W        W82326   7.708   0.975   1.742
22791W        W82327   7.758  28.576   1.774
22792W        W82328   2.770   7.896  14.285
22793W        W82329  12.361  19.763  12.495
22794W        W82330  12.657  44.289  12.035
22795W        W82331   4.850   5.778  11.978
22796W        W82332   0.483  26.998  14.996
22797W        W82333  43.368  10.266   0.799
22798W        W82334  26.141  11.235   3.334
22799W        W82335   0.982   7.884   2.291
22800W        W82336  40.812   2.419   0.470
22801W        W82337  12.189  12.355  14.457
22802W        W82338  22.063  15.103  14.487
22803W        W82339  18.253  43.459   1.714
22804W        W82340  28.645  13.336   4.727
22805W        W82341  12.693  19.094  10.938
22806W        W82342  32.028  20.715   3.821
22807W        W82343  29.534  27.007   3.716
22808W        W82344  30.019  14.622   1.763
22809W        W82345   7.862  24.581   2.264
22810W        W82346  24.020  17.301  14.348
22811W        W82347   3.853  42.976   0.296
22812W        W82348  30.452  23.089   4.652
22813W        W82349  24.569   6.189  11.969
22814W        W82350  27.046  25.538   4.605
22815W        W82351   0.453  11.158  14.910
22816W        W82352  38.001  11.137   0.772
22817W        W82353  20.103   0.919  12.010
22818W        W82354  40.480  12.798  13.449
22819W        W82355  40.859  29.018  12.976
22820W        W82356  20.554  44.441  13.814
22821W        W82357   9.194  36.980  14.853
22822W        W82358   2.924   6.363  14.830
22823W        W82359  27.473  44.399  13.993
22824W        W82360  41.325  12.784   4.604
22825W        W82361  37.879  37.938   3.818
22826W        W82362   6.772  42.815   4.675
22827W        W82363  26.982  22.541  12.348
22828W        W82364  23.166  31.003   0.887
22829W        W82365  33.049  42.971  13.332
22830W        W82366   2.421  15.710  13.063
22831W        W82367  31.986  28.114   5.685
22832W        W82368   7.255  29.580   2.254
22833W        W82369  43.824  16.612   3.787
22834W        W82370  30.134   8.253   3.717
22835W        W82371  37.989  38.910  12.007
22836W        W82372   7.222   3.818  10.922
22837W        W82373  16.237  29.141  13.984
22838W        W82374   2.309  10.787  13.016
22839W        W82375   1.280  16.702   0.883
22840W        W82376  15.596  44.300   1.356
22841W        W82377   1.374  29.053   0.260
22842W        W82378  29.990   0.980  11.586
22843W        W82379  25.962  20.766   5.671
22844W        W82380  40.833  24.126   2.282
22845W        W82381  29.587  22.012   3.148
22846W        W82382  15.217  10.146  11.541
22847W        W82383  25.014  13.615  14.820
22848W        W82384  44.927  25.196  12.081
22849W        W82385   8.766   4.380  14.276
22850W        W82386  40.847   7.703  14.393
22851W        W82387  44.449  27.532   1.934
22852W        W82388  10.158  12.286  12.475
22853W        W82389  21.613  13.120  12.542
22854W        W82390  19.687  42.790  10.027
22855W        W82391  43.830  10.345   4.600
22856W        W82392   9.852   6.398   1.876
22857W        W82393   0.474  14.098   4.773
22858W        W82394   9.800  16.800  12.507
22859W        W82395   1.351   9.155   2.860
22860W        W82396  18.598  44.414   1.293
22861W        W82397  30.647   2.826  13.907
22862W        W82398  16.293  13.711   3.816
22863W        W82399  21.230   2.286  14.791
22864W        W82400  42.825  24.591  14.877
22865W        W82401  12.681  44.999  14.840
22866W        W82402   8.278  28.656   0.876
22867W        W82403   2.871  26.998  11.917
22868W        W82404  24.565  43.316   0.932
22869W        W82405  36.445  38.833  12.853
22870W        W82406  23.709  42.799  13.844
22871W        W82407  17.721  36.473  13.813
22872W        W82408  20.570  33.097   3.703
22873W        W82409  43.802  44.387  13.923
22874W        W82410  32.951  18.625   1.278
22875W        W82411  21.608  28.954  11.023
22876W        W82412   1.830  30.100   0.418
22877W        W82413  22.055  42.462   2.283
22878W        W82414  35.892  15.263   0.448
22879W        W82415  38.497  40.045  10.408
22880W        W82416  18.573  43.369  10.531
22881W        W82417  11.675  16.674  12.035
22882W        W82418  34.475  14.214  14.502
22883W        W82419  12.761   8.851   2.325
22884W        W82420  21.715  27.066  11.914
22885W        W82421   4.351  26.473   4.682
22886W        W82422  24.219   2.262   0.777
22887W        W82423  28.654  11.274   2.670
22888W        W82424  34.423  10.736   4.731
22889W        W82425  38.066  17.170   3.174
22890W        W82426  32.406  12.670   3.234
22891W        W82427  44.491  28.528   2.367
22892W        W82428  38.484  17.141   2.343
22893W        W82429  20.236  28.175  11.951
22894W        W82430  25.513  44.307   1.759
22895W        W82431  42.411  20.719  14.507
22896W        W82432  25.154   3.316   4.186
22897W        W82433  10.282   9.150  12.526
22898W        W82434  35.905  31.978  10.535
22899W        W82435   9.692   8.212   4.325
22900W        W82436  30.935   1.902   4.329
22901W        W82437   7.906  33.562   3.761
22902W        W82438  12.349   3.416  13.918
22903W        W82439  34.034  32.961  14.973
22904W        W82440  15.140  41.908  12.384
22905W        W82441  15.284  26.658  11.570
22906W        W82442  31.940  12.221  12.036
22907W        W82443  29.965  44.808  10.958
22908W        W82444  32.404  37.897  13.469
22909W        W82445  26.167  22.072  11.866
22910W        W82446  10.341  36.370  12.566
22911W        W82447  20.177  35.882  11.979
22912W        W82448   0.347  25.637  14.032
22913W        W82449  16.689  25.975  12.856
22914W        W82450  23.558  39.927  12.568
22915W        W82451   1.307  29.633   4.698
22916W        W82452  34.914  40.499   4.273
22917W        W82453  39.420  10.177   1.762
22918W        W82454  32.068  24.048  12.032
22919W        W82455  34.510  41.939   3.756
22920W        W82456   5.289   4.269  10.925
22921W        W82457  33.453  37.392   5.139
22922W        W82458  21.182  44.999  10.061
22923W        W82459   0.777  33.981   3.681
22924W        W82460  27.534  15.683   3.380
22925W        W82461  26.113  41.364  12.544
22926W        W82462  13.212  34.019  12.981
22927W        W82463  12.699   7.763  12.444
22928W        W82464  35.030  44.426  12.484
22929W        W82465  37.359  39.398   0.958
22930W        W82466  25.090  35.089  10.901
22931W        W82467  39.955  29.465   3.210
22932W        W82468  16.125  42.843  11.575
22933W        W82469  30.084  14.268   2.375
22934W        W82470  11.856  33.563  13.003
22935W        W82471   6.847  35.881   4.283
22936W        W82472   5.881  21.230   3.731
22937W        W82473  23.667   1.362   5.149
22938W        W82474  28.124   3.857  13.360
22939W        W82475   3.795   7.690   3.640
22940W        W82476  34.492  32.421   2.332
22941W        W82477  42.474  42.287   2.181
22942W        W82478  42.022  35.596  12.513
22943W        W82479   6.725  34.612  12.431
22944W        W82480   6.323  20.666  11.557
22945W        W82481  27.490  16.651  13.044
22946W        W82482  16.801   0.451   1.831
22947W        W82483   3.860  20.527   2.859
22948W        W82484  37.902  25.110   3.194
22949W        W82485   0.270  39.947  11.468
22950W        W82486  21.690  42.341   4.723
22951W        W82487  35.360  41.431   0.285
22952W        W82488  21.256  29.983   0.737
22953W        W82489  23.575   2.227   2.180
22954W        W82490  19.728  17.095   2.690
22955W        W82491  30.111  10.170   3.215
22956W        W82492  12.746  42.297  10.461
22957W        W82493  14.136  21.143  13.917
22958W        W82494  42.780  35.473  13.514
22959W        W82495  14.827  34.055  11.865
22960W        W82496   3.389  18.754   4.773
22961W        W82497   1.904  24.176   9.481
22962W        W82498  44.319  12.763  11.037
22963W        W82499  40.852  32.032   4.198
22964W        W82500  36.549   1.300  13.985
22965W        W82501  40.350  20.618   0.839
22966W        W82502  33.963  20.649   2.684
22967W        W82503  14.106   8.889  13.363
22968W        W82504  18.278  33.049   0.921
22969W        W82505  14.670   1.258   1.730
22970W        W82506   0.807  36.450   2.269
22971W        W82507   6.385  19.595   4.602
22972W        W82508  26.058  35.029   3.704
22973W        W82509  30.561   2.326   3.238
22974W        W82510   5.251  16.748   0.889
22975W        W82511   0.346  37.947   1.376
22976W        W82512  43.819  29.618   0.330
22977W        W82513  38.881  39.055   1.799
22978W        W82514  13.702  12.770   0.848
22979W        W82515  35.505  38.518  13.850
22980W        W82516  43.879  32.997   0.906
22981W        W82517  34.120  14.630  13.950
22982W        W82518  10.183  33.563   3.352
22983W        W82519  10.203  39.974  13.062
22984W        W82520  40.357  27.511   3.158
22985W        W82521  31.967  39.344   0.305
22986W        W82522  13.734   7.746  13.419
22987W        W82523  43.500  37.420   1.314
22988W        W82524  11.330   1.752   1.848
22989W        W82525  41.375  32.431  12.016
22990W        W82526  13.629  20.237   0.807
22991W        W82527  30.619  15.780   3.343
22992W        W82528   2.427  32.988  14.945
22993W        W82529  32.606  17.249   3.327
22994W        W82530  44.358  22.720  11.558
22995W        W82531  42.413  33.460   2.255
22996W        W82532  21.604  40.386  11.058
22997W        W82533  41.801  26.574  14.326
22998W        W82534  27.179  16.280  14.338
22999W        W82535  36.359  43.010   1.275
23000W        W82536   9.282  33.026   3.674
23001W        W82537   3.864  33.563   4.158
23002W        W82538  11.240  24.974  14.776
23003W        W82539   6.196  16.623   4.633
23004W        W82540  26.997  33.418  13.853
23005W        W82541  32.909  39.458   4.192
23006W        W82542  33.882   7.734  14.951
23007W        W82543  42.797  24.996   2.699
23008W        W82544  36.463   0.752   0.763
23009W        W82545  13.157   2.932  13.319
23010W        W82546  11.736  16.744  10.915
23011W        W82547  31.572  19.234  13.423
23012W        W82548  29.632  34.517   3.212
23013W        W82549  25.130  11.273  12.474
23014W        W82550  16.187  37.831   1.249
23015W        W82551  12.794   2.832   3.176
23016W        W82552   7.384   4.812  12.498
23017W        W82553  21.170  16.204   2.304
23018W        W82554  37.062  34.953  12.560
23019W        W82555   3.230  16.241   3.222
23020W        W82556  22.032  23.037   0.836
23021W        W82557   8.793   7.774   4.837
23022W        W82558  37.063  43.920  12.882
23023W        W82559  43.882  20.689   3.165
23024W        W82560  41.891  36.464   0.951
23025W        W82561  36.851   6.825  12.019
23026W        W82562  34.443   7.358   0.438
23027W        W82563  12.321  30.000   5.290
23028W        W82564  34.120  31.910  13.957
23029W        W82565  19.067  33.533   3.194
23030W        W82566  32.432  30.554   2.252
23031W        W82567  29.507  16.772  14.860
23032W        W82568  33.382  29.059   4.171
23033W        W82569  16.214  19.225  11.491
23034W        W82570  26.599  21.595  12.339
23035W        W82571  36.358  13.771  12.828
23036W        W82572  23.130  16.276   1.858
23037W        W82573  18.771   3.338   2.878
23038W        W82574   4.770  19.262  11.953
23039W        W82575  34.873  35.550  11.991
23040W        W82576  10.285  20.268  12.532
23041W        W82577  16.090  22.156  13.840
23042W        W82578   1.743  40.963  13.038
23043W        W82579  11.738  20.155   1.852
23044W        W82580  19.185   1.308   0.771
23045W        W82581  33.420  36.380  13.389
23046W        W82582  19.126  34.873  12.949
23047W        W82583  40.015  28.074   4.334
23048W        W82584  15.156   4.379   0.358
23049W        W82585  16.724  40.319  14.952
23050W        W82586   2.384   8.374   0.267
23051W        W82587  31.975   8.696  11.976
23052W        W82588   4.378  36.066  14.988
23053W        W82589   3.266  26.953  12.857
23054W        W82590   2.937  29.548   9.923
23055W        W82591  14.134  27.124  13.952
23056W        W82592  29.451   0.886   0.892
23057W        W82593  17.214  34.101  12.380
23058W        W82594  29.630  39.944  12.531
23059W        W82595   6.858   1.968   4.279
23060W        W82596  33.392  10.364   2.402
23061W        W82597  19.665  10.673   2.837
23062W        W82598  21.592  42.347   0.286
23063W        W82599   4.307  39.414  11.610
23064W        W82600  21.183  23.082   4.798
23065W        W82601   3.379   2.744  12.964
23066W        W82602  28.161  42.982  11.986
23067W        W82603  21.567  16.599  14.426
23068W        W82604  26.648  42.349   4.247
23069W        W82605  23.097  24.650  12.425
23070W        W82606  17.642   5.748   4.631
23071W        W82607  15.223   2.860  11.127
23072W        W82608  18.250  10.648   1.859
23073W        W82609   1.238  31.059  12.945
23074W        W82610   6.754  30.614  12.859
23075W        W82611  40.314  15.276   4.758
23076W        W82612   9.780  27.158   2.194
23077W        W82613  10.166  17.161   2.883
23078W        W82614  39.553  31.979  11.955
23079W        W82615  22.697  44.849   2.747
23080W        W82616  33.118  10.819  13.930
23081W        W82617  41.301  29.060  13.047
23082W        W82618  23.189  19.650  11.546
23083W        W82619  23.643  32.582  12.895
23084W        W82620  25.669   4.912   3.822
23085W        W82621  28.603  20.039  14.779
23086W        W82622  12.289  35.428  11.101
23087W        W82623   3.385  39.819  14.992
23088W        W82624  42.408  32.025  12.567
23089W        W82625   7.905  11.372   0.441
23090W        W82626  29.521  41.800   1.324
23091W        W82627  31.411  27.675  10.979
23092W        W82628  33.903  13.218   2.732
23093W        W82629  34.038  19.644  13.864
23094W        W82630   1.937   7.665   0.464
23095W        W82631   8.828  31.463   1.862
23096W        W82632   9.302  15.724  14.421
23097W        W82633   9.701  38.869   2.288
23098W        W82634  39.858  20.113  11.940
23099W        W82635   2.471  38.847   2.675
23100W        W82636  33.529  19.260  12.025
23101W        W82637   2.226  19.617   3.275
23102W        W82638  11.809   5.232  13.513
23103W        W82639  43.388  37.053   1.371
23104W        W82640  30.636  30.040   4.324
23105W        W82641  38.502   7.340  12.069
23106W        W82642  10.787   4.771   9.545
23107W        W82643  23.134  24.035  14.791
23108W        W82644  40.511  21.116  11.577
23109W        W82645  22.689  42.491  10.475
23110W        W82646  31.504  42.882  13.040
23111W        W82647  31.907   0.983   1.816
23112W        W82648  11.248  20.038   4.809
23113W        W82649  23.047  15.688  11.015
23114W        W82650  30.490  25.564  11.439
23115W        W82651  21.623   4.840   3.199
23116W        W82652   6.699  24.492  14.379
23117W        W82653  31.989  11.181  10.031
23118W        W82654  38.480  10.317   0.465
23119W        W82655  43.499  30.008  10.565
23120W        W82656  27.527   9.339  13.852
23121W        W82657  13.633  21.169  10.062
23122W        W82658  20.044   4.865  11.545
23123W        W82659  12.757  19.175   2.898
23124W        W82660  10.307  24.585   1.886
23125W        W82661  38.539  18.158   3.790
23126W        W82662  39.384  11.309   1.864
23127W        W82663  13.652  25.183   2.400
23128W        W82664   2.868   3.938  13.463
23129W        W82665  41.868  29.128  14.030
23130W        W82666   9.390  23.612   1.733
23131W        W82667  20.246   7.315  12.416
23132W        W82668  41.341   1.256  13.428
23133W        W82669   0.939  43.936   3.309
23134W        W82670   2.293  33.382   3.631
23135W        W82671   0.401  17.675   1.737
23136W        W82672   7.234  13.661  11.399
23137W        W82673  23.497   2.366   1.411
23138W        W82674   4.806  37.061   1.344
23139W        W82675  24.089  31.968   2.225
23140W        W82676  30.644  44.376  11.564
23141W        W82677  29.608   1.753  14.971
23142W        W82678  44.982  42.450  12.403
23143W        W82679  42.485  33.950   3.667
23144W        W82680   3.384  20.534  12.923
23145W        W82681  32.993  19.132  12.343
23146W        W82682  10.263  14.118  13.023
23147W        W82683  34.417  44.857   0.355
23148W        W82684   9.658  34.064   2.801
23149W        W82685  36.476  44.777  14.847
23150W        W82686  39.890  38.410   4.699
23151W        W82687  42.524   9.724   1.365
23152W        W82688  37.890   5.784  10.500
23153W        W82689  34.412   8.760  14.371
23154W        W82690  32.452   6.390   2.823
23155W        W82691  16.132  19.739   2.392
23156W        W82692  41.372  42.882  14.507
23157W        W82693   3.384  12.781   1.740
23158W        W82694  34.974  37.487   4.353
23159W        W82695  21.593  34.938   3.291
23160W        W82696  31.993   9.267  12.413
23161W        W82697  30.081  33.930   1.426
23162W        W82698   4.242  14.290   1.788
23163W        W82699   9.799   2.904  14.445
23164W        W82700   6.705  40.867   2.900
23165W        W82701  42.834   6.186  11.058
23166W        W82702   2.909  35.576   4.700
23167W        W82703   3.324  34.864   0.753
23168W        W82704   5.902  38.017  12.391
23169W        W82705   4.311  15.746   4.236
23170W        W82706   5.874  26.650  10.480
23171W        W82707  17.078  32.024   0.467
23172W        W82708   0.478  10.681  11.015
23173W        W82709  17.561  15.186  14.830
23174W        W82710  35.542  38.990  14.918
23175W        W82711  37.999  37.868   0.764
23176W        W82712  23.988  19.659  14.802
23177W        W82713  20.607  11.689  14.349
23178W        W82714  19.672  38.004   0.346
23179W        W82715  15.776  14.609   3.333
23180W        W82716  22.645  16.765   3.678
23181W        W82717  24.553  25.198  11.603
23182W        W82718  11.306  38.042  13.033
23183W        W82719  11.845  15.658   0.789
23184W        W82720  29.151  24.997  11.524
23185W        W82721   3.733  21.026   2.404
23186W        W82722  31.512  17.731   3.640
23187W        W82723  44.448  21.026   4.165
23188W        W82724  32.576  40.394   0.399
23189W        W82725  20.539  18.230   0.759
23190W        W82726  29.143  16.566   2.183
23191W        W82727  34.417  21.560   2.229
23192W        W82728  24.672   6.824   0.763
23193W        W82729  21.695   9.681  11.938
23194W        W82730  38.512  33.884   3.742
23195W        W82731  37.489  18.159   4.270
23196W        W82732   6.908  12.620   2.681
23197W        W82733  28.055  20.207  14.503
23198W        W82734   5.835  17.296  12.892
23199W        W82735   5.834  43.422  12.028
23200W        W82736  44.999  38.535  11.096
23201W        W82737  13.133  25.114   0.867
23202W        W82738  31.411  12.239   4.179
23203W        W82739   5.197  13.690   0.947
23204W        W82740  26.180  29.058  11.024
23205W        W82741  28.508  28.971  13.525
23206W        W82742  20.631  14.777  12.934
23207W        W82743   6.906  38.961  12.847
23208W        W82744  37.006   1.338  11.499
23209W        W82745  13.218  15.257   0.307
23210W        W82746  29.020   6.210   0.255
23211W        W82747  37.031  23.212  14.769
23212W        W82748   5.692  24.026  14.799
23213W        W82749  35.088   7.746   4.784
23214W        W82750  36.878  30.014   2.693
23215W        W82751  40.386   9.202   2.882
23216W        W82752   1.924  36.390  12.844
23217W        W82753  26.069  29.099   2.663
23218W        W82754  11.172  29.037   0.467
23219W        W82755   7.291  33.101   3.227
23220W        W82756  15.117  29.570  11.024
23221W        W82757  31.949  31.921   3.339
23222W        W82758  20.689  23.585  13.898
23223W        W82759  17.690  16.194  13.396
23224W        W82760   0.475  22.065   4.197
23225W        W82761   6.190  33.923   1.881
23226W        W82762  34.411   9.199  13.947
23227W        W82763  24.085  17.072   0.381
23228W        W82764  21.158  40.052   4.771
23229W        W82765  25.598  41.924   1.377
23230W        W82766  12.247  36.534  11.885
23231W        W82767  34.482   3.352  10.977
23232W        W82768   3.458   4.924   5.302
23233W        W82769   9.286  36.080   1.292
23234W        W82770   3.231  34.558  11.506
23235W        W82771  13.346  25.210   3.846
23236W        W82772  29.067  29.476   0.813
23237W        W82773  25.486  32.136  13.064
23238W        W82774   2.361  12.717   5.256
23239W        W82775  20.744   8.860   2.321
23240W        W82776  23.014  11.216  14.843
23241W        W82777  20.261  13.641  13.990
23242W        W82778   0.402   5.835   1.321
23243W        W82779  25.214  40.934  14.347
23244W        W82780   1.273  44.822  12.824
23245W        W82781  16.595  38.397  12.946
23246W        W82782   8.248   9.327  14.475
23247W        W82783  11.666  20.202   2.407
23248W        W82784  36.015  10.757   4.621
23249W        W82785  30.015  17.114   3.690
23250W        W82786  14.200  37.897  14.877
23251W        W82787  13.707  43.770   4.829
23252W        W82788  11.313  18.069   1.830
23253W        W82789   6.283  39.897   1.723
23254W        W82790   6.234  32.986   0.254
23255W        W82791  24.544  31.533   2.807
23256W        W82792  17.689  43.516   3.726
23257W        W82793  14.142  20.231  11.494
23258W        W82794  19.253  20.577   1.819
23259W        W82795  14.606  10.651   0.342
23260W        W82796  21.140  24.559   4.320
23261W        W82797   2.911  41.842   0.482
23262W        W82798  35.391   6.702   0.774
23263W        W82799  32.036  14.238  12.960
23264W        W82800   8.261  28.660  13.923
23265W        W82801  34.503  18.750  14.882
23266W        W82802  21.548   7.700   4.341
23267W        W82803  40.465   7.832  14.275
23268W        W82804  35.026  17.099   2.338
23269W        W82805  39.406  37.391  14.278
23270W        W82806  10.224  16.187  12.484
23271W        W82807  41.998  40.491   3.183
23272W        W82808  23.536  43.325  13.030
23273W        W82809  32.919  36.409  11.579
23274W        W82810  33.392  39.316   4.239
23275W        W82811  23.240  35.033   1.788
23276W        W82812  32.626  37.364  13.325
23277W        W82813  35.919  27.569   2.841
23278W        W82814  24.520  16.161  13.396
23279W        W82815  33.095   0.458  10.024
23280W        W82816  41.969   0.370   1.259
23281W        W82817  27.649  13.767  12.943
23282W        W82818  37.040  25.680   2.384
23283W        W82819  23.678   6.722  12.396
23284W        W82820  33.991  42.495   1.448
23285W        W82821  23.233  10.716  13.003
23286W        W82822  21.539   1.908   1.436
23287W        W82823  34.976   6.785  11.375
23288W        W82824  28.503   3.236  12.507
23289W        W82825  29.165  35.442   0.958
23290W        W82826  35.904  30.524   0.828
23291W        W82827  42.964  40.827  14.940
23292W        W82828  27.477   9.840   0.839
23293W        W82829   4.239  32.943   2.348
23294W        W82830  12.237   4.266   1.711
23295W        W82831  30.634  43.984   0.434
23296W        W82832   1.781   0.856  13.929
23297W        W82833  25.667  39.848  12.012
23298W        W82834  18.767  34.042  13.964
23299W        W82835   8.298  18.641   4.644
23300W        W82836   3.877  28.576   1.363
23301W        W82837   3.360  16.128   0.888
23302W        W82838  28.119  10.154  12.425
23303W        W82839   6.689  39.391   2.827
23304W        W82840  20.259  36.488   4.265
23305W        W82841  41.909  31.153  12.881
23306W        W82842  15.107  35.035  12.905
23307W        W82843   4.839  14.799   2.726
23308W        W82844  29.033   3.873  11.568
23309W        W82845  16.212   9.235   4.793
23310W        W82846   8.171   0.938  13.477
23311W        W82847   3.451  43.890   1.406
23312W        W82848  43.479  20.051  11.474
23313W        W82849   8.700  10.161  12.933
23314W        W82850  15.084  12.223  11.075
23315W        W82851  18.194  42.022   0.866
23316W        W82852  26.495  17.232  10.080
23317W        W82853  19.697  28.494   4.786
23318W        W82854  25.006   9.693  12.052
23319W        W82855  16.808  29.170   4.266
23320W        W82856  44.816  16.165   3.760
23321W        W82857  44.386  41.293   2.746
23322W        W82858  10.811  33.058   2.322
23323W        W82859  30.465   5.755   1.290
23324W        W82860  21.018   0.832   4.159
23325W        W82861  37.895  38.541  10.977
23326W        W82862  22.173  33.439   0.285
23327W        W82863  14.267  35.980  11.608
23328W        W82864  29.075   2.855  11.896
23329W        W82865  25.694  41.023   4.755
23330W        W82866  26.543   2.932  14.844
23331W        W82867  26.093   8.850  12.894
23332W        W82868   7.355  10.296   2.346
23333W        W82869  29.098  37.402  11.088
23334W        W82870  22.190  24.009  14.871
23335W        W82871   2.923  18.153   3.706
23336W        W82872  10.861  32.475  11.098
23337W        W82873   4.856  23.647   1.783
23338W        W82874  28.455  12.130  10.923
23339W        W82875   4.235  37.416   3.192
23340W        W82876  23.071  21.108  10.134
23341W        W82877  10.769   9.649  12.062
23342W        W82878  20.210   3.367  11.572
23343W        W82879   9.183  23.544  10.429
23344W        W82880  29.549  34.480   3.822
23345W        W82881  24.164  29.447   2.343
23346W        W82882  32.630  36.025  12.527
23347W        W82883  40.831  43.866  12.369
23348W        W82884  39.926  12.230  13.385
23349W        W82885   9.224  16.239  14.964
23350W        W82886  37.022  39.339  13.021
23351W        W82887  26.105  12.201  14.937
23352W        W82888  21.748  43.958  11.906
23353W        W82889  16.703  14.810   4.160
23354W        W82890   3.849  20.191  14.321
23355W        W82891  28.181  31.037   3.773
23356W        W82892   2.942  18.608  13.928
23357W        W82893  10.372   5.336   3.803
23358W        W82894  23.685  34.866  10.476
23359W        W82895  20.624  33.110   0.746
23360W        W82896  21.681   9.223  13.847
23361W        W82897  11.329  33.988  12.020
23362W        W82898  16.283   5.843   2.242
23363W        W82899   9.710  28.945  10.525
23364W        W82900  29.617  37.849  11.488
23365W        W82901  21.176  28.477  13.015
23366W        W82902   8.223  14.140   0.359
23367W        W82903  41.986  23.217   2.725
23368W        W82904  39.451  13.831   4.727
23369W        W82905  27.991  21.562   0.263
23370W        W82906  13.168  25.984  10.594
23371W        W82907  28.622  12.280   0.360
23372W        W82908  19.095   5.796   3.835
23373W        W82909  34.936  32.507  11.074
23374W        W82910   0.319  39.933   1.909
23375W        W82911  27.588  34.615  14.889
23376W        W82912  18.248   4.229   1.221
23377W        W82913   4.875  40.348   2.788
23378W        W82914   4.421  43.846   3.646
23379W        W82915  35.431  10.700  14.978
23380W        W82916  36.560  26.570  14.948
23381W        W82917  33.534  21.539  12.568
23382W        W82918  37.993  42.438  11.010
23383W        W82919  25.992   9.833  11.395
23384W        W82920  38.061  44.375   4.162
23385W        W82921  26.502  27.154  14.300
23386W        W82922   7.346  44.901  14.764
23387W        W82923   0.395  18.079  13.927
23388W        W82924  14.131  15.821   0.759
23389W        W82925  29.668  24.033   3.332
23390W        W82926  24.167  28.930  11.607
23391W        W82927  33.106  21.636  12.011
23392W        W82928  38.495  10.149   2.694
23393W        W82929  18.706   5.848  12.897
23394W        W82930  27.553  13.805  12.534
23395W        W82931  24.124  37.945  12.994
23396W        W82932  35.993  37.448   4.789
23397W        W82933  10.672  35.897   0.271
23398W        W82934  19.060  39.845  14.899
23399W        W82935  39.338   3.243   9.600
23400W        W82936  37.883  26.616  14.999
23401W        W82937  35.082  24.137  14.795
23402W        W82938  36.030  20.070   3.835
23403W        W82939  42.449  11.694  12.088
23404W        W82940  22.572  42.986   0.869
23405W        W82941  24.088  34.091   2.194
23406W        W82942  15.780  12.768   2.873
23407W        W82943  27.065   2.390   0.437
23408W        W82944  26.171  22.509   2.227
23409W        W82945  31.979  14.170  10.102
23410W        W82946  33.478  39.929   3.694
23411W        W82947  26.189  43.978  14.357
23412W        W82948  26.152  16.668   1.773
23413W        W82949  28.948  44.355   1.242
23414W        W82950  30.488   3.780  14.970
23415W        W82951  43.872  41.846   4.694
23416W        W82952  44.867   3.231  10.577
23417W        W82953  25.682  35.864  13.806
23418W        W82954  21.180  42.472   4.750
23419W        W82955  25.185  24.108  14.991
23420W        W82956  42.888   5.769  10.430
23421W        W82957  29.559  21.732  14.371
23422W        W82958   4.246  19.751  13.500
23423W        W82959   7.316   7.279  12.497
23424W        W82960  33.994  34.517  11.077
23425W        W82961  20.204  34.381   4.237
23426W        W82962  40.449  37.001   4.205
23427W        W82963   2.302  40.494   0.951
23428W        W82964   6.732  10.864   4.197
23429W        W82965  15.117  28.580   2.767
23430W        W82966  29.546   9.336   2.828
23431W        W82967   5.895  23.704   1.275
23432W        W82968   7.668   4.786   3.780
23433W        W82969  32.001   8.385  12.406
23434W        W82970   1.810   9.196  11.481
23435W        W82971  37.477  23.075  13.040
23436W        W82972   0.814   6.762   0.757
23437W        W82973  43.493  20.041   1.329
23438W        W82974   3.711  30.598  13.910
23439W        W82975  36.857   6.914   0.389
23440W        W82976   5.384  44.006  11.934
23441W        W82977  26.954  44.297  10.996
23442W        W82978  38.514  10.714   0.890
23443W        W82979  43.341  32.607  11.975
23444W        W82980  11.748  43.819   4.620
23445W        W82981  18.151  15.781  11.098
23446W        W82982  32.467  17.150  10.134
23447W        W82983  30.425  44.437   3.146
23448W        W82984  10.803  11.858  14.405
23449W        W82985  40.438  27.666  14.855
23450W        W82986  13.770  11.776   2.347
23451W        W82987  42.818  20.086  12.035
23452W        W82988  15.618  25.469   1.369
23453W        W82989  19.160   2.767  13.527
23454W        W82990  41.460   1.741   1.708
23455W        W82991  31.986   8.256  14.307
23456W        W82992  40.469  33.609  10.059
23457W        W82993  14.268   8.743  12.472
23458W        W82994  44.328   4.906  11.998
23459W        W82995  34.538  26.485  10.562
23460W        W82996  43.825  34.925  13.013
23461W        W82997  27.600  43.502  11.986
23462W        W82998   4.244  42.514  13.841
23463W        W82999   9.207   0.850  12.343
23464W        W83000   3.731  44.973   4.736
23465W        W83001  12.773  29.485   2.410
23466W        W83002  13.183  41.353  11.029
23467W        W83003  35.592  15.134  10.574
23468W        W83004  34.421  41.034   1.391
23469W        W83005  41.790  23.524  13.472
23470W        W83006  26.603  23.133   3.760
23471W        W83007  15.214  44.370  12.464
23472W        W83008  18.189  24.703  11.879
23473W        W83009  25.671  27.659  14.879
23474W        W83010  10.290  40.532  10.457
23475W        W83011  26.164   0.886  11.468
23476W        W83012  43.448  27.136  13.484
23477W        W83013  39.443  36.909   0.424
23478W        W83014  28.993  26.492  13.986
23479W        W83015  29.659  27.173   0.429
23480W        W83016   7.238   8.685  12.988
23481W        W83017  25.593  14.339   2.688
23482W        W83018  43.956   3.309   4.204
23483W        W83019  22.252  25.155   0.445
23484W        W83020   0.834   7.191  14.479
23485W        W83021  17.226  27.572  12.340
23486W        W83022  35.976  30.510  10.476
23487W        W83023  39.920  22.690  13.442
23488W        W83024  35.429  11.277  13.845
23489W        W83025  39.025   0.331   4.273
23490W        W83026  11.867  39.487   0.285
23491W        W83027  41.387  18.288  14.353
23492W        W83028  34.473  12.694   4.182
23493W        W83029  29.171  18.651  13.800
23494W        W83030  16.105  36.887  11.496
23495W        W83031  19.259  37.514   4.633
23496W        W83032  30.031  41.312  11.913
23497W        W83033  28.643  35.485   2.215
23498W        W83034  19.054  12.301  12.986
23499W        W83035  43.904  37.922   3.763
23500W        W83036   9.850  16.704  11.128
23501W        W83037  19.739  18.211  13.887
23502W        W83038  32.596  21.132  14.467
23503W        W83039  14.255  28.956   3.310
23504W        W83040  42.928  22.237  13.347
23505W        W83041  10.823   8.261  13.997
23506W        W83042   3.287   0.401  11.959
23507W        W83043  40.391   5.415   4.175
23508W        W83044   7.704  18.739  14.319
23509W        W83045   1.903  37.921   2.818
23510W        W83046  37.914  34.986   4.315
23511W        W83047   5.232  20.043   0.268
23512W        W83048  27.668  29.488  12.419
23513W        W83049   4.421  17.714   3.827
23514W        W83050  24.720  28.077  12.421
23515W        W83051  12.253  13.225   2.747
23516W        W83052  15.291   3.760  12.841
23517W        W83053  41.362  25.539   2.202
23518W        W83054  16.119  15.325   1.895
23519W        W83055  29.964  41.321  14.425
23520W        W83056  11.229   3.346   4.353
23521W        W83057   5.814  42.409   4.780
23522W        W83058  16.567  42.429  12.390
23523W        W83059  27.448   5.840  14.826
23524W        W83060  36.888  41.995  11.888
23525W        W83061  20.567  23.102  14.499
23526W        W83062  10.650  42.849  12.399
23527W        W83063  40.033  42.838   0.425
23528W        W83064  32.032  32.566  13.544
23529W        W83065  34.863   4.313   1.929
23530W        W83066  41.894  35.069  14.944
23531W        W83067  17.595   0.987   2.841
23532W        W83068  35.911   6.820  12.562
23533W        W83069  24.101  17.304  14.791
23534W        W83070  33.389  25.182  14.923
23535W        W83071   3.809  30.546  14.990
23536W        W83072  39.338  11.151  13.363
23537W        W83073   1.388  42.407   2.710
23538W        W83074  12.762  28.673   4.690
23539W        W83075  20.041  39.408   3.218
23540W        W83076  32.572   9.348  13.966
23541W        W83077  36.925  28.098  13.405
23542W        W83078  39.493  44.884  11.964
23543W        W83079  15.208   6.198  12.468
23544W        W83080  17.681  31.403   0.870
23545W        W83081  10.846  11.133   3.337
23546W        W83082   0.308   4.755  13.024
23547W        W83083  30.417  28.585  12.342
23548W        W83084  39.840   1.329  13.813
23549W        W83085  20.711  41.977   1.212
23550W        W83086  42.812  22.146  14.863
23551W        W83087  42.500  31.084  14.288
23552W        W83088  28.502  34.882  10.533
23553W        W83089  16.575  28.934   3.830
23554W        W83090  10.331  20.580   2.671
23555W        W83091   6.307  10.309   0.912
23556W        W83092  32.451  21.638   2.404
23557W        W83093  20.705  32.922   2.744
23558W        W83094  28.664  17.699  10.547
23559W        W83095  33.937  39.501   3.304
23560W        W83096  18.729   4.415  12.571
23561W        W83097  18.281  20.036  13.800
23562W        W83098  22.523  18.102  14.467
23563W        W83099   8.205  15.581  12.342
23564W        W83100  22.223  18.268   4.147
23565W        W83101  29.136  25.580  13.398
23566W        W83102  37.521  36.540   1.762
23567W        W83103  10.261  36.450  10.618
23568W        W83104  26.698  35.023   3.190
23569W        W83105  13.760   9.660  12.381
23570W        W83106   2.335  42.376  13.402
23571W        W83107  10.648  28.622   2.247
23572W        W83108  38.999  32.549   3.711
23573W        W83109  13.196  20.036  11.924
23574W        W83110  42.810  22.039   1.298
23575W        W83111  16.723  17.653   1.785
23576W        W83112  23.232  43.791  11.089
23577W        W83113  41.991   9.750   3.825
23578W        W83114  17.638  36.426  14.922
23579W        W83115   7.177  36.081   2.237
23580W        W83116   9.715  35.456  14.389
23581W        W83117  32.972  26.953  12.472
23582W        W83118  41.850  31.944   3.697
23583W        W83119  12.702  41.444  14.009
23584W        W83120   6.862  29.160   1.275
23585W        W83121  22.069  41.354  11.414
23586W        W83122  35.362  18.561   2.748
23587W        W83123  44.905  24.557   0.320
23588W        W83124  17.761  29.448  12.044
23589W        W83125  19.093   6.335   2.322
23590W        W83126  11.771   8.300   1.237
23591W        W83127   7.343  37.049   1.211
23592W        W83128  33.020   3.356   1.900
23593W        W83129  24.715   1.237  12.565
23594W        W83130  40.467  41.381   2.697
23595W        W83131  10.633  44.978   1.349
23596W        W83132  24.077   3.327  11.550
23597W        W83133   2.722  38.489  12.501
23598W        W83134  37.484  18.248  13.461
23599W        W83135  23.069  43.798  12.372
23600W        W83136  18.641  38.340   1.243
23601W        W83137  20.638  25.980  14.819
23602W        W83138  19.259   5.242  13.428
23603W        W83139  33.488  29.163   5.215
23604W        W83140  42.982  12.656  13.321
23605W        W83141  39.317  24.088   3.635
23606W        W83142  29.496  14.244  14.505
23607W        W83143  20.138  42.835   0.359
23608W        W83144  44.985  41.786   3.643
23609W        W83145  33.496  19.071   0.747
23610W        W83146  11.857  43.773   2.784
23611W        W83147   8.270  25.514  10.518
23612W        W83148  31.546  41.531  11.974
23613W        W83149  39.992  17.193  12.422
23614W        W83150  27.453  39.434  11.912
23615W        W83151  38.356  21.650  11.887
23616W        W83152  39.539  36.387  10.606
23617W        W83153  41.334  15.299   4.180
23618W        W83154  17.777  42.412   2.857
23619W        W83155  39.333  14.183  14.769
23620W        W83156  17.062   7.721  14.441
23621W        W83157  26.964   6.349   2.835
23622W        W83158  12.836  25.666  12.468
23623W        W83159  30.002   1.363   1.911
23624W        W83160  42.490   7.310  13.859
23625W        W83161  16.074   9.858  11.380
23626W        W83162  29.636  18.581   0.758
23627W        W83163  22.030  31.596   2.759
23628W        W83164  29.657  37.447   3.354
23629W        W83165  13.249  43.920  13.819
23630W        W83166   4.340  31.940  12.864
23631W        W83167  15.763  19.140   1.417
23632W        W83168   8.841  15.086  12.375
23633W        W83169  23.989   8.363  11.526
23634W        W83170  15.296  10.312  10.963
23635W        W83171  23.062  36.912   9.952
23636W        W83172  34.508   6.183  11.863
23637W        W83173  20.654   2.344   1.844
23638W        W83174   1.336  31.042  11.500
23639W        W83175   2.964  17.662  12.525
23640W        W83176  39.955  44.314   1.211
23641W        W83177  36.025  21.737   0.347
23642W        W83178  20.579  36.853   2.797
23643W        W83179  32.048  32.090   0.386
23644W        W83180  10.792  44.801   3.302
23645W        W83181  32.029  12.773   1.329
23646W        W83182   0.930  10.379   0.394
23647W        W83183  14.762  40.839  10.461
23648W        W83184  17.676  31.019   0.448
23649W        W83185  36.367  40.028   0.921
23650W        W83186  43.793  18.234   3.854
23651W        W83187  14.831  26.501  12.529
23652W        W83188  15.657  42.383   2.844
23653W        W83189  38.529  17.089   4.181
23654W        W83190  40.378  27.172   0.334
23655W        W83191   3.740  33.619  11.913
23656W        W83192  12.337  20.055  12.405
23657W        W83193  12.331  11.372  14.908
23658W        W83194  37.492  25.213   2.376
23659W        W83195  31.154   8.373   2.823
23660W        W83196  18.587  32.029   0.287
23661W        W83197  27.683  36.503   4.752
23662W        W83198  27.194  10.207  14.981
23663W        W83199  41.533  38.023   0.819
23664W        W83200   8.271   9.270   5.223
23665W        W83201  10.742  30.000   1.289
23666W        W83202  24.592  42.289  13.840
23667W        W83203  22.092   0.932  10.424
23668W        W83204  20.543  34.526   3.214
23669W        W83205   1.956  31.115   2.337
23670W        W83206  39.331  25.624   4.755
23671W        W83207  13.241  44.418   1.799
23672W        W83208   8.840  43.975   0.270
23673W        W83209  20.568  15.102  14.297
23674W        W83210  31.119   4.412  11.057
23675W        W83211   6.889  33.965   4.226
23676W        W83212  13.830  43.417   3.867
23677W        W83213  23.504  17.662   2.717
23678W        W83214  26.525   2.301  11.966
23679W        W83215   8.739  13.164  13.053
23680W        W83216  11.155  29.537   3.278
23681W        W83217  31.482  23.494   4.791
23682W        W83218  43.979   0.409   1.342
23683W        W83219   5.419  12.677  13.460
23684W        W83220  27.554  17.735   4.228
23685W        W83221  41.897  22.676  13.834
23686W        W83222  40.954  12.191   3.166
23687W        W83223  17.257  10.381   2.681
23688W        W83224   8.876   6.375  12.524
23689W        W83225  30.523  19.703   1.823
23690W        W83226  16.638   4.840  11.862
23691W        W83227  16.182  12.809  11.123
23692W        W83228  39.467   2.824  10.440
23693W        W83229  41.851  30.950   2.756
23694W        W83230  35.582  41.473  11.571
23695W        W83231   0.387  17.686   4.189
23696W        W83232  37.919   5.301   5.253
23697W        W83233   2.226  28.096  12.827
23698W        W83234  17.774  23.240   2.367
23699W        W83235   9.364  25.071  13.344
23700W        W83236  28.440  13.744  12.993
23701W        W83237  35.404  13.269  11.523
23702W        W83238   2.326  21.649  12.396
23703W        W83239  27.097   3.770  11.008
23704W        W83240  12.141  28.144  13.987
23705W        W83241  10.652   9.711   2.231
23706W        W83242  33.908   9.879  13.972
23707W        W83243  16.260  19.767   2.896
23708W        W83244   1.270  38.884   3.838
23709W        W83245  40.866  24.059  11.011
23710W        W83246  26.990  36.569  12.988
23711W        W83247   1.831  30.934  11.014
23712W        W83248   0.951  16.655  10.460
23713W        W83249  22.119   2.933   4.349
23714W        W83250  33.979  20.742   3.679
23715W        W83251  20.055  18.612  12.505
23716W        W83252  18.778  40.907   2.314
23717W        W83253  32.076  16.735  11.424
23718W        W83254  20.718  42.029   2.406
23719W        W83255  38.436  12.241   4.756
23720W        W83256  29.008  33.469  11.398
23721W        W83257  31.526   3.275  10.462
23722W        W83258  33.093  33.014   4.695
23723W        W83259   5.226  35.954  14.476
23724W        W83260  27.497  36.980  13.846
23725W        W83261  42.785   1.977  14.406
23726W        W83262  41.026  16.181  13.394
23727W        W83263  33.602  41.859   2.316
23728W        W83264  33.603  39.988  11.874
23729W        W83265  37.403   5.399  13.509
23730W        W83266  19.753  10.784  12.381
23731W        W83267  39.810   0.977  13.977
23732W        W83268  37.863   2.340  12.499
23733W        W83269   2.351   7.877   4.184
23734W        W83270  19.681   2.472  10.958
23735W        W83271  44.325  20.713  11.437
23736W        W83272   0.829   0.451   2.708
23737W        W83273   2.405  26.473  13.485
23738W        W83274  42.294  30.911  13.474
23739W        W83275  22.514  34.024  12.896
23740W        W83276  10.141  13.308  10.418
23741W        W83277  17.563  21.684   9.979
23742W        W83278  26.151  22.061  11.011
23743W        W83279  28.540  13.324  12.936
23744W        W83280  17.236  24.654   2.222
23745W        W83281  33.092  25.491  13.373
23746W        W83282  38.849   6.409   0.761
23747W        W83283  14.289   6.870  12.062
23748W        W83284   9.166  24.223   3.756
23749W        W83285  43.509  18.095  14.308
23750W        W83286  34.394  19.681   1.755
23751W        W83287  20.674  10.347  13.896
23752W        W83288  29.091  11.168  11.530
23753W        W83289  11.734  40.369  13.527
23754W        W83290  21.742   2.331   1.892
23755W        W83291  19.262  10.202  10.903
23756W        W83292  32.908  15.187   3.808
23757W        W83293  10.861  31.535   4.715
23758W        W83294  37.011  10.792   4.290
23759W        W83295  28.552  27.677  13.536
23760W        W83296   6.376  44.329  13.368
23761W        W83297   3.910  30.426  13.410
23762W        W83298  28.437  34.561   4.699
23763W        W83299   3.799  22.701   1.744
23764W        W83300  27.642  43.838   1.432
23765W        W83301  23.183   1.299  11.591
23766W        W83302   1.879  18.281  11.412
23767W        W83303  43.282   7.273  14.992
23768W        W83304   1.922  16.704   3.167
23769W        W83305   5.751  13.128  13.922
23770W        W83306  26.662  44.442  14.377
23771W        W83307  37.857   5.839  13.533
23772W        W83308  43.509  38.839   3.816
23773W        W83309  29.628  30.009   4.713
23774W        W83310  27.541  15.252   1.750
23775W        W83311   4.944  15.241  12.887
23776W        W83312  36.413  35.515  11.106
23777W        W83313   5.367   0.393  13.851
23778W        W83314  19.698   4.391  11.569
23779W        W83315  24.103  18.262  11.991
23780W        W83316  41.309  23.024  10.487
23781W        W83317  18.125  38.445  14.003
23782W        W83318  42.399   5.919   0.919
23783W        W83319   5.796  32.101   3.665
23784W        W83320   5.324  27.453   2.190
23785W        W83321   1.799  43.511   4.757
23786W        W83322   0.946  30.436  10.116
23787W        W83323  33.908  38.867  11.046
23788W        W83324  43.411   7.343   3.839
23789W        W83325  13.752  32.030   3.780
23790W        W83326  44.316   1.482  14.501
23791W        W83327  43.486  14.702  10.482
23792W        W83328  21.690   3.717  14.863
23793W        W83329  21.062   4.931   2.249
23794W        W83330  29.435  39.829   4.259
23795W        W83331   8.357  18.697  12.019
23796W        W83332   0.478   8.767   3.201
23797W        W83333  17.670  38.026   2.392
23798W        W83334  13.804  15.125   2.264
23799W        W83335  23.998  23.566  12.568
23800W        W83336  35.013  31.121  13.950
23801W        W83337  40.911  42.498  13.349
23802W        W83338  31.497  23.136  10.013
23803W        W83339   7.752  18.259  12.981
23804W        W83340  14.181   3.739  13.816
23805W        W83341   6.788   7.758  13.468
23806W        W83342  29.633  41.017  11.981
23807W        W83343  39.461  38.012   3.675
23808W        W83344  21.090  12.835   3.630
23809W        W83345  14.752  15.180  10.566
23810W        W83346  28.541  38.450  10.545
23811W        W83347  18.213  38.454   2.348
23812W        W83348   5.303  13.188  11.560
23813W        W83349  24.529   1.859  11.898
23814W        W83350  44.481  43.276   4.191
23815W        W83351  20.037   7.856  14.785
23816W        W83352   7.733  18.256   1.371
23817W        W83353   4.913  44.364  13.396
23818W        W83354  13.136  17.087  11.414
23819W        W83355   0.350  44.265   1.909
23820W        W83356  40.325  41.819  10.973
23821W        W83357  29.052  18.668   1.212
23822W        W83358  44.262  33.077  12.386
23823W        W83359  20.595  28.480  10.626
23824W        W83360  18.090  30.012  13.320
23825W        W83361  41.368   0.294   2.308
23826W        W83362   5.756   4.869   2.404
23827W        W83363  20.244  12.717  10.109
23828W        W83364   6.281  44.279  13.042
23829W        W83365  19.648  34.610  11.086
23830W        W83366  20.591   1.362  10.576
23831W        W83367  41.320  17.567  13.970
23832W        W83368  19.556   2.850   3.722
23833W        W83369  30.429  32.051  14.873
23834W        W83370   3.259  40.962  11.927
23835W        W83371  36.572  30.490   1.851
23836W        W83372   2.853  17.796  14.849
23837W        W83373  21.023  39.063  14.031
23838W        W83374   7.749  28.946  11.592
23839W        W83375   8.681  12.211  11.946
23840W        W83376  14.285   0.843   5.222
23841W        W83377   1.445  39.372   4.679
23842W        W83378  23.667   7.195   1.844
23843W        W83379  11.313  25.202  13.486
23844W        W83380  14.804   7.247  14.011
23845W        W83381   1.808   3.865   4.191
23846W        W83382  17.264  39.557   0.449
23847W        W83383   1.901   0.282  10.925
23848W        W83384  33.550  30.559   4.623
23849W        W83385  25.190  31.428  11.608
23850W        W83386  15.181  39.537  12.529
23851W        W83387   4.933  23.092  11.878
23852W        W83388  43.854  16.297   9.966
23853W        W83389   9.707   5.196  12.519
23854W        W83390  37.944  19.185  13.797
23855W        W83391   8.163  24.225  13.532
23856W        W83392  12.637  28.557   1.309
23857W        W83393  14.277  19.552   0.753
23858W        W83394   6.677  14.813  12.528
23859W        W83395  40.809  22.223  10.545
23860W        W83396   5.322   3.250  10.075
23861W        W83397  43.498  44.360  12.030
23862W        W83398  43.866  16.705  11.882
23863W        W83399  36.077  16.163   1.695
23864W        W83400   2.233  34.864   0.798
23865W        W83401  25.501  10.675   1.784
23866W        W83402  37.486   1.411   0.822
23867W        W83403   6.771  32.049  12.393
23868W        W83404  26.085  36.911   4.825
23869W        W83405  31.474  25.615  14.857
23870W        W83406  41.834  29.955   4.638
23871W        W83407  33.419  32.600   1.237
23872W        W83408  26.121   0.282   2.294
23873W        W83409  19.206  41.434   4.735
23874W        W83410   8.398   5.847   4.644
23875W        W83411  38.841  28.575  14.427
23876W        W83412  13.665   6.279   2.253
23877W        W83413  39.971   8.313   4.205
23878W        W83414   2.350  17.564   2.222
23879W        W83415  36.449   4.849  10.068
23880W        W83416  23.731  31.058  13.980
23881W        W83417  17.154  16.730   2.755
23882W        W83418  25.604   8.658  13.463
23883W        W83419  30.921  13.718   1.885
23884W        W83420  31.467  19.269   1.230
23885W        W83421   5.867  33.487  10.522
23886W        W83422   9.867  36.435   0.750
23887W        W83423  21.617  40.864  12.875
23888W        W83424  17.212  35.931   2.223
23889W        W83425  35.435  30.964  13.808
23890W        W83426  26.111   4.319   9.658
23891W        W83427  20.146  18.050  14.429
23892W        W83428  39.046   1.765  11.483
23893W        W83429  37.404  22.038  10.512
23894W        W83430   3.405  16.310   2.266
23895W        W83431  42.315  38.546   3.675
23896W        W83432  37.939   4.895  13.519
23897W        W83433  43.926  28.934   1.887
23898W        W83434  39.395  18.231  11.070
23899W        W83435  27.517  15.162  12.406
23900W        W83436  26.626  17.201   2.815
23901W        W83437  16.082  34.919   1.849
23902W        W83438  18.770  29.965  14.891
23903W        W83439  44.447  25.648  13.040
23904W        W83440  28.994   2.257  11.079
23905W        W83441  42.997  21.726   0.771
23906W        W83442   4.430  32.429  12.842
23907W        W83443  43.477  41.481  12.016
23908W        W83444  39.896   6.316   4.785
23909W        W83445  39.491  37.408   1.823
23910W        W83446  31.117  21.163   3.179
23911W        W83447  16.729   6.210  14.341
23912W        W83448  18.185  33.095   1.335
23913W        W83449   4.845   5.418  13.942
23914W        W83450   1.882  24.204   9.926
23915W        W83451   0.265  14.799  13.022
23916W        W83452  26.543  15.137   3.784
23917W        W83453  28.103   2.418   4.821
23918W        W83454  32.995  38.491  13.420
23919W        W83455  31.979   3.800  10.418
23920W        W83456  24.666  12.175   1.245
23921W        W83457   6.230  33.621  13.400
23922W        W83458  19.046  40.305   1.368
23923W        W83459  13.740   1.916  13.452
23924W        W83460  30.455  19.200  10.488
23925W        W83461  33.084   7.221  12.343
23926W        W83462  14.675  20.200  10.968
23927W        W83463  15.686   0.903  11.606
23928W        W83464   2.844  39.535   0.743
23929W        W83465  44.774  41.854  14.486
23930W        W83466  24.649  11.684  14.831
23931W        W83467   8.724  16.237   4.782
23932W        W83468  24.602   1.732  13.807
23933W        W83469  15.627  25.493  13.887
23934W        W83470  23.051  31.456   4.168
23935W        W83471  41.012   7.208  12.029
23936W        W83472  14.707  28.451  14.417
23937W        W83473  19.724  33.499   3.287
23938W        W83474   5.319   5.424   0.438
23939W        W83475  30.624  38.406   0.414
23940W        W83476  33.466  35.888   2.747
23941W        W83477   5.384  15.149   4.332
23942W        W83478  18.123   9.784   4.125
23943W        W83479  37.353  23.096   4.266
23944W        W83480  25.999  39.480   2.356
23945W        W83481  18.763  17.185  11.110
23946W        W83482   7.217  19.247  14.382
23947W        W83483  22.015  10.671   3.665
23948W        W83484  38.935  29.931   3.703
23949W        W83485  28.165  33.011   2.319
23950W        W83486   6.352  31.999   1.883
23951W        W83487  29.039   2.408   4.664
23952W        W83488   7.906   9.787  11.052
23953W        W83489  40.486  28.020   1.238
23954W        W83490  10.638  38.571  12.438
23955W        W83491   2.833  10.163  10.471
23956W        W83492  29.939  31.634   3.256
23957W        W83493  42.518  35.859  13.406
23958W        W83494  32.511  32.513   1.888
23959W        W83495  24.716  34.455   1.412
23960W        W83496  31.533  11.315   4.795
23961W        W83497   9.672  27.984   0.746
23962W        W83498  19.100  33.547  12.913
23963W        W83499  40.479  12.347   0.335
23964W        W83500  37.066  32.517   0.904
23965W        W83501   3.432  42.873   0.244
23966W        W83502   5.856  13.799  13.440
23967W        W83503  23.209  15.252   0.866
23968W        W83504  19.677   4.406   4.712
23969W        W83505  43.955  17.744   4.658
23970W        W83506  22.234  31.905   5.211
23971W        W83507  35.081  29.502  11.123
23972W        W83508  39.901  20.155  11.559
23973W        W83509  18.635   0.858   4.193
23974W        W83510  12.269   2.369  14.400
23975W        W83511  40.914  27.975  14.284
23976W        W83512   2.894  42.356  11.430
23977W        W83513   0.431   9.199   0.937
23978W        W83514  38.966  17.136   2.330
23979W        W83515  40.021  12.355   0.300
23980W        W83516  34.096  35.043   4.774
23981W        W83517   5.319   7.731  13.966
23982W        W83518  31.424  29.052  14.835
23983W        W83519  29.923  22.151  10.939
23984W        W83520  37.499   6.882   2.258
23985W        W83521  26.138  40.422   1.408
23986W        W83522  23.556  32.472   4.820
23987W        W83523  41.862  36.082   3.253
23988W        W83524  30.417  43.505  13.957
23989W        W83525  31.450  29.515   4.600
23990W        W83526  33.038  37.468   5.238
23991W        W83527  31.523  24.142   3.743
23992W        W83528  27.508   5.399   3.167
23993W        W83529   0.936  36.537   1.869
23994W        W83530  37.060  19.162   3.863
23995W        W83531  16.202  33.404  10.443
23996W        W83532  19.086   7.280   0.420
23997W        W83533  20.726  31.931  11.548
23998W        W83534  31.006  15.167   2.756
23999W        W83535   1.343   8.329   3.238
24000W        W83536  35.897  26.028   1.762
24001W        W83537  40.802  32.962   2.728
24002W        W83538  30.026  31.058   2.806
24003W        W83539  41.415  42.408   2.217
24004W        W83540  19.128  38.363   0.249
24005W        W83541  13.719   5.920  14.300
24006W        W83542  43.789  19.651  14.444
24007W        W83543   0.348  18.593  10.515
24008W        W83544  43.337  15.698  10.456
24009W        W83545  11.135  30.602  12.913
24010W        W83546  36.888   6.819   0.789
24011W        W83547  25.621   7.274   1.388
24012W        W83548  44.920   3.448   4.764
24013W        W83549   1.749  36.929  12.550
24014W        W83550   1.249  33.599   3.742
24015W        W83551  13.612  42.406  12.451
24016W        W83552   2.271  40.376  14.432
24017W        W83553  37.970   8.237  13.844
24018W        W83554  13.719  25.610   4.175
24019W        W83555  15.259  15.199   1.844
24020W        W83556   6.688  11.172   2.413
24021W        W83557  29.171  12.758  12.342
24022W        W83558  25.094  24.045  12.981
24023W        W83559   0.845  28.017  14.443
24024W        W83560   2.862  17.668   0.305
24025W        W83561  28.551  34.021  13.007
24026W        W83562  25.575  11.780   2.207
24027W        W83563  17.241  23.079   4.680
24028W        W83564  37.342   0.793  14.396
24029W        W83565  40.950  23.017  14.947
24030W        W83566  44.289   5.375   3.214
24031W        W83567   5.826  31.037   2.821
24032W        W83568  18.230  20.729   2.720
24033W        W83569   7.847   9.754   3.863
24034W        W83570  27.448   3.401   5.219
24035W        W83571  11.212  17.247   1.920
24036W        W83572   2.340  32.613   4.210
24037W        W83573   5.434  27.574   0.862
24038W        W83574  17.263  29.659  10.512
24039W        W83575  32.610  24.215   0.960
24040W        W83576  42.805  29.028  14.782
24041W        W83577   6.914  24.552   4.206
24042W        W83578  40.812  19.564   0.894
24043W        W83579  14.631  40.363  13.307
24044W        W83580  40.857  26.563   1.372
24045W        W83581  13.332  28.011   0.409
24046W        W83582  27.976  27.145   1.917
24047W        W83583  43.993  31.490   1.238
24048W        W83584  15.286   0.869  11.444
24049W        W83585  23.999  35.415  11.910
24050W        W83586  30.030   6.754  11.423
24051W        W83587   0.886  33.445   1.709
24052W        W83588  39.401  16.140  12.842
24053W        W83589  19.768  10.147  12.058
24054W        W83590  26.488  25.620  13.934
24055W        W83591  11.190  16.308  13.422
24056W        W83592  37.043   0.304   2.237
24057W        W83593  27.544   9.701  12.455
24058W        W83594  27.604  39.386  10.501
24059W        W83595  11.194  13.793  13.529
24060W        W83596  11.298  11.240   2.826
24061W        W83597  44.880  23.642  10.935
24062W        W83598   8.869  29.633  13.531
24063W        W83599   4.241  27.082  13.401
24064W        W83600  42.445  30.082  13.833
24065W        W83601  13.236  24.151  10.998
24066W        W83602  24.509  25.163   4.271
24067W        W83603  20.668   5.814  14.299
24068W        W83604  30.079  35.483   4.729
24069W        W83605  43.512  31.518  14.981
24070W        W83606  44.965  33.411  12.425
24071W        W83607  32.041  16.699   0.454
24072W        W83608   5.688   7.671  12.515
24073W        W83609  15.747  39.936   3.153
24074W        W83610  11.797   2.470   4.283
24075W        W83611  18.785  16.278  12.510
24076W        W83612  41.292   1.266  14.023
24077W        W83613  41.865   5.819  12.873
24078W        W83614  31.620  30.476  14.431
24079W        W83615  34.475  30.435  13.059
24080W        W83616  35.517  29.447  13.799
24081W        W83617  22.740  26.664  10.991
24082W        W83618   5.837  13.616  11.379
24083W        W83619  10.269  40.942  10.488
24084W        W83620   7.409  11.241  14.876
24085W        W83621  33.019  36.533  13.803
24086W        W83622  37.022  20.188   4.627
24087W        W83623  28.077  36.567   2.193
24088W        W83624  23.577  28.558  14.925
24089W        W83625   8.803  40.303  11.904
24090W        W83626   9.149  21.704   0.901
24091W        W83627  29.960   7.350  14.489
24092W        W83628  36.012  41.369  10.412
24093W        W83629   2.445  37.526  11.070
24094W        W83630   1.256  18.737   1.707
24095W        W83631  22.110   2.461   0.812
24096W        W83632  41.393  19.561  10.509
24097W        W83633  28.161   0.322   1.331
24098W        W83634   7.712  21.128  11.536
24099W        W83635  34.459  29.564  13.423
24100W        W83636  41.861  13.660   1.819
24101W        W83637  16.266  41.334  12.886
24102W        W83638  22.571   5.829   5.120
24103W        W83639  29.958  36.983  13.537
24104W        W83640  44.765   8.809   9.478
24105W        W83641  15.091  44.879  14.915
24106W        W83642   7.347  35.559   4.801
24107W        W83643   6.355  40.331   0.873
24108W        W83644  10.373  26.589   0.319
24109W        W83645  16.748  26.542   2.230
24110W        W83646   8.858  31.589  14.846
24111W        W83647  24.655  30.485   0.461
24112W        W83648   6.282  35.528   4.718
24113W        W83649  24.717   8.669   1.329
24114W        W83650  24.019  21.164   3.688
24115W        W83651  27.679  34.024  11.371
24116W        W83652  30.098   6.763  11.963
24117W        W83653  13.345  34.528   4.613
24118W        W83654  34.921   6.715   4.828
24119W        W83655   7.300  11.843  13.415
24120W        W83656  29.521  19.598   4.717
24121W        W83657  41.374   8.753  13.541
24122W        W83658  24.699   2.379   1.252
24123W        W83659  34.550  36.357   4.816
24124W        W83660  20.730  36.578  13.470
24125W        W83661  25.627   0.353   0.811
24126W        W83662  30.932  11.646   1.239
24127W        W83663  22.109  30.101  11.530
24128W        W83664  40.880  11.798   2.852
24129W        W83665  26.021  34.984   0.948
24130W        W83666  14.775  14.641   1.279
24131W        W83667  11.718  12.675   3.787
24132W        W83668  29.998   8.209   3.161
24133W        W83669  43.954  30.026   3.372
24134W        W83670  35.954   3.813  13.486
24135W        W83671  30.450  43.972  14.941
24136W        W83672  39.495  32.635   0.889
24137W        W83673  32.443  21.180  12.456
24138W        W83674  18.550   5.221  13.909
24139W        W83675  41.874  17.776   1.704
24140W        W83676   6.917   3.294   0.450
24141W        W83677   6.853   9.389  12.562
24142W        W83678  29.470  27.455  11.404
24143W        W83679   3.872  16.747  14.890
24144W        W83680  31.059  35.570   4.320
24145W        W83681  42.025  29.158   1.394
24146W        W83682  43.949  28.020   0.270
24147W        W83683  42.441  40.054  13.881
24148W        W83684   5.197  29.944   2.741
24149W        W83685  35.426  43.002  11.876
24150W        W83686  33.600  35.980  12.833
24151W        W83687   1.894  31.019  11.592
24152W        W83688   8.777  20.189  14.945
24153W        W83689  30.960  38.053  11.034
24154W        W83690  18.610  10.337   4.649
24155W        W83691  34.514  18.073  10.502
24156W        W83692  38.991  40.524  14.448
24157W        W83693  39.339  22.193   1.825
24158W        W83694   7.824   1.794  12.438
24159W        W83695   0.837  24.130  13.009
24160W        W83696  40.940  34.386   3.772
24161W        W83697   8.385  10.863   4.722
24162W        W83698  33.092  10.720  14.813
24163W        W83699  28.528  18.088   3.631
24164W        W83700  38.342  24.656  14.387
24165W        W83701  23.697   7.252  10.504
24166W        W83702  12.833  37.397  10.452
24167W        W83703  16.702  41.867   0.331
24168W        W83704  29.073  15.735   4.245
24169W        W83705  37.861  40.028  12.836
24170W        W83706   2.372  31.451   4.776
24171W        W83707  37.888  41.348   0.763
24172W        W83708   3.422  22.624  12.916
24173W        W83709  31.065   3.397   1.729
24174W        W83710  36.013  40.838   3.329
24175W        W83711  36.921  44.000   3.814
24176W        W83712  11.825  41.299   5.128
24177W        W83713   2.789  43.443  11.891
24178W        W83714  28.452  44.456   3.387
24179W        W83715  17.301   4.303  12.575
24180W        W83716   8.686  18.074  14.367
24181W        W83717  31.516  22.746   4.193
24182W        W83718   4.785  27.543   1.765
24183W        W83719   6.422   1.853   3.349
24184W        W83720  12.651  42.451   1.749
24185W        W83721  10.763  10.861   1.270
24186W        W83722  23.008  15.198   4.606
24187W        W83723  37.538  26.131   2.363
24188W        W83724  42.842  11.780  14.960
24189W        W83725  15.754  20.668   3.210
24190W        W83726  44.943  22.217   3.726
24191W        W83727  33.118  13.291   2.367
24192W        W83728  43.506  12.327  13.366
24193W        W83729  22.234  25.071  12.448
24194W        W83730  20.051  39.967  14.779
24195W        W83731  21.757  32.612   2.319
24196W        W83732  23.991  18.223  14.434
24197W        W83733  43.822  15.698   3.810
24198W        W83734   6.314  36.383   0.368
24199W        W83735  11.129  39.825   1.262
24200W        W83736  35.062   6.840   4.317
24201W        W83737  24.496  32.489  12.499
24202W        W83738  30.488   6.846  11.961
24203W        W83739  19.617   6.882  12.515
24204W        W83740  11.190  22.553  12.839
24205W        W83741   6.424   2.298   4.241
24206W        W83742  25.669   6.699  14.004
24207W        W83743  20.199  33.037   3.691
24208W        W83744  36.565   0.886   1.740
24209W        W83745   7.847  27.624  11.052
24210W        W83746  28.092  14.273   4.339
24211W        W83747   3.939  32.892   2.389
24212W        W83748  22.524  41.420  10.592
24213W        W83749   4.372  15.259  12.909
24214W        W83750  11.718  16.150   0.827
24215W        W83751   0.981  43.404  13.902
24216W        W83752  22.578   9.755  12.976
24217W        W83753  24.126   8.246  14.284
24218W        W83754  39.314  16.231   1.787
24219W        W83755  19.759   9.716  13.814
24220W        W83756  29.058   7.253   4.663
24221W        W83757   9.311  18.602  13.862
24222W        W83758  33.451   4.841  12.394
24223W        W83759  16.636  18.282  14.471
24224W        W83760  34.929  19.583  14.854
24225W        W83761  20.223  37.539   5.097
24226W        W83762  43.851  22.200  11.872
24227W        W83763  22.685  15.179  11.547
24228W        W83764  25.675  38.017  13.956
24229W        W83765  37.421  31.034  12.393
24230W        W83766  38.484  31.045  11.502
24231W        W83767  22.022   1.957  12.878
24232W        W83768  35.031  35.552   3.764
24233W        W83769  40.321  35.889  12.568
24234W        W83770  14.800  10.308   3.654
24235W        W83771  21.166  22.131   1.732
24236W        W83772  38.478  23.147   3.793
24237W        W83773  44.397  13.700   2.390
24238W        W83774   2.247  16.595  12.362
24239W        W83775  39.962  23.124  12.967
24240W        W83776  22.702  18.631  10.549
24241W        W83777   9.211  22.586  12.083
24242W        W83778   9.194  28.108  11.083
24243W        W83779   3.393   1.361  14.513
24244W        W83780   9.760  32.990  12.403
24245W        W83781  26.561  32.121   4.142
24246W        W83782  24.199  15.175  11.398
24247W        W83783  12.650  16.082   2.712
24248W        W83784  10.178  16.627   2.772
24249W        W83785  25.707  16.228   9.664
24250W        W83786  27.517  20.060   1.443
24251W        W83787  39.872  16.115   0.275
24252W        W83788  15.212  19.154   4.800
24253W        W83789  27.134   6.310   1.786
24254W        W83790  13.338  34.398  11.395
24255W        W83791  12.350  28.940  10.524
24256W        W83792  22.027  33.957   2.367
24257W        W83793   6.392  29.456   0.303
24258W        W83794  37.550  38.351  10.080
24259W        W83795  38.418  21.666   2.727
24260W        W83796  37.921  35.946   3.668
24261W        W83797   6.390  17.690   0.288
24262W        W83798   3.222   0.855  13.974
24263W        W83799  14.258  36.371  13.464
24264W        W83800  24.995   7.765   1.751
24265W        W83801  13.263   7.749  14.330
24266W        W83802  29.126  28.512   0.477
24267W        W83803  13.759  31.977   2.263
24268W        W83804  39.377   8.727  13.912
24269W        W83805  14.793  44.370   9.946
24270W        W83806  40.980  27.468   3.800
24271W        W83807  25.490   6.775   4.800
24272W        W83808  39.462  12.831   4.689
24273W        W83809  37.394  32.136   1.744
24274W        W83810   7.224  34.475  11.956
24275W        W83811  10.729   3.442   1.219
24276W        W83812  24.109  23.131  12.400
24277W        W83813  28.950  14.287   4.733
24278W        W83814  24.612  37.488  12.487
24279W        W83815  42.946  34.445  11.000
24280W        W83816  18.642  41.864   2.678
24281W        W83817  16.237   7.843   1.388
24282W        W83818  34.946   4.323   2.806
24283W        W83819  39.844  42.331  12.890
24284W        W83820  38.890  31.117   1.395
24285W        W83821   7.256  22.694  12.089
24286W        W83822  33.912  15.215   2.687
24287W        W83823  26.472  37.386   4.326
24288W        W83824  36.570  26.481   1.807
24289W        W83825  23.671  41.397  14.979
24290W        W83826  20.273  23.122  11.385
24291W        W83827   8.898   1.752   3.199
24292W        W83828  15.261  40.473   0.802
24293W        W83829  41.848  24.042   5.274
24294W        W83830   9.781  11.710  11.411
24295W        W83831   4.900  19.672  14.909
24296W        W83832  15.778   8.735  12.898
24297W        W83833   2.378   9.160   4.304
24298W        W83834   4.300  32.981  14.994
24299W        W83835  41.482  29.029   0.256
24300W        W83836  23.239  15.290   3.228
24301W        W83837  31.404  42.362  14.818
24302W        W83838  20.702   1.448   2.318
24303W        W83839  14.801  43.828  12.458
24304W        W83840  42.452   2.339  12.392
24305W        W83841  11.791  28.164   2.361
24306W        W83842  18.606  35.013   2.314
24307W        W83843  21.107  12.774   0.468
24308W        W83844  17.081  41.886  13.957
24309W        W83845  35.000  10.141  10.555
24310W        W83846  31.984   9.158  13.856
24311W        W83847  15.315   4.851  13.016
24312W        W83848  14.286  29.511  14.813
24313W        W83849  10.652  23.065   4.258
24314W        W83850  16.316  39.463  10.987
24315W        W83851  31.408  41.409   0.734
24316W        W83852  30.570  41.380  11.014
24317W        W83853  13.763  42.813  11.995
24318W        W83854  24.557  36.383   0.436
24319W        W83855  31.526  23.638   1.726
24320W        W83856  15.134  12.119   0.325
24321W        W83857  39.383  24.116   2.787
24322W        W83858  24.683  22.108   5.174
24323W        W83859   6.355  40.809   1.410
24324W        W83860  25.542  42.796  13.368
24325W        W83861  19.629  26.483  12.378
24326W        W83862  20.079  30.133  12.995
24327W        W83863  10.314   9.773  13.509
24328W        W83864  33.039  44.420   3.267
24329W        W83865  23.509   9.197   5.277
24330W        W83866  14.738  42.025  11.575
24331W        W83867  37.505  32.959   4.684
24332W        W83868  39.034   7.360   5.196
24333W        W83869  32.605   9.226   1.311
24334W        W83870  11.771  44.950   3.693
24335W        W83871  38.893   1.776  13.487
24336W        W83872   7.399  12.742   1.914
24337W        W83873  38.955  14.266  10.973
24338W        W83874  10.327   6.854   1.253
24339W        W83875   9.187  31.076   0.409
24340W        W83876  35.423  27.992   3.314
24341W        W83877  21.166  20.126  13.527
24342W        W83878   3.424   3.782  14.455
24343W        W83879  38.481  41.805  13.946
24344W        W83880  10.246  11.136  14.934
24345W        W83881  31.423  43.792  10.636
24346W        W83882  36.526  39.505  14.498
24347W        W83883  40.911  16.698   0.296
24348W        W83884  41.408  23.104  14.491
24349W        W83885  42.992  42.446  13.963
24350W        W83886  29.940   2.802   3.706
24351W        W83887   5.874  36.569   1.275
24352W        W83888  40.342   8.349   2.419
24353W        W83889   8.854  40.907  14.032
24354W        W83890   1.424  26.507  14.821
24355W        W83891  27.498  41.460  10.451
24356W        W83892  25.667  12.833  11.547
24357W        W83893  25.592  34.395  12.489
24358W        W83894  27.120  16.660  12.509
24359W        W83895  29.437  28.965   3.858
24360W        W83896  33.970  25.102  12.468
24361W        W83897  31.633  33.428   4.184
24362W        W83898  30.943  20.595   1.399
24363W        W83899  36.578  44.867   1.359
24364W        W83900  19.071  39.880  13.405
24365W        W83901   1.976  14.701   2.739
24366W        W83902  11.284   7.846   2.391
24367W        W83903  29.988  23.085  13.822
24368W        W83904  26.644  40.539  11.990
24369W        W83905  17.272  38.978   5.094
24370W        W83906  20.131  25.614  14.868
24371W        W83907  39.527  16.086   3.247
24372W        W83908  38.953  38.017  14.800
24373W        W83909  13.600  29.533   3.643
24374W        W83910  20.680  35.382   0.931
24375W        W83911   4.221  29.557  14.308
24376W        W83912  30.060  21.105  10.010
24377W        W83913   2.795   4.322  10.956
24378W        W83914  31.502  38.982   1.759
24379W        W83915  10.852  13.754  11.491
24380W        W83916  23.159  32.390  11.922
24381W        W83917   2.379  18.058  10.900
24382W        W83918   6.382  39.317  14.492
24383W        W83919   1.764   7.242   1.279
24384W        W83920   6.398  12.290  12.965
24385W        W83921  12.200   2.863   2.375
24386W        W83922  15.209   6.677   5.156
24387W        W83923  38.904  21.649  13.336
24388W        W83924  43.961  12.360  13.905
24389W        W83925   6.817  44.398  13.816
24390W        W83926  28.036  20.169  11.989
24391W        W83927  41.306   5.407   4.651
24392W        W83928   6.319  37.882  11.959
24393W        W83929  11.702  21.717   4.321
24394W        W83930  35.437  15.248   2.230
24395W        W83931  13.347   9.711   4.170
24396W        W83932  23.163   3.408  11.613
24397W        W83933  15.743   2.824  12.044
24398W        W83934   8.222   0.325   0.792
24399W        W83935  32.922  12.339  12.022
24400W        W83936  30.000   7.253  13.949
24401W        W83937  28.579  20.192  12.002
24402W        W83938  13.796  26.963   4.815
24403W        W83939  33.941  23.636  11.594
24404W        W83940  12.290  13.256  13.968
24405W        W83941  16.124  36.912   1.876
24406W        W83942  43.018  31.970  12.400
24407W        W83943  40.848  34.526  10.987
24408W        W83944   9.190  24.688  12.577
24409W        W83945  19.171  28.450  12.089
24410W        W83946  43.304  12.359  13.811
24411W        W83947  28.163  34.443   4.221
24412W        W83948  16.154  26.482   0.431
24413W        W83949  44.303  13.291  10.913
24414W        W83950   1.252  41.957  10.470
24415W        W83951   4.787   1.926  13.370
24416W        W83952  10.768  24.714  11.376
24417W        W83953  33.038  10.144  10.559
24418W        W83954  18.059  16.785   3.670
24419W        W83955  38.409  40.874  11.521
24420W        W83956  30.930  38.834  13.431
24421W        W83957  34.086   2.783   0.910
24422W        W83958   1.373  30.633  13.329
24423W        W83959  15.823  24.030   0.374
24424W        W83960  40.546  29.036   4.184
24425W        W83961  37.950  20.635   3.314
24426W        W83962  26.959  20.692   2.208
24427W        W83963  30.477  40.978  11.022
24428W        W83964  30.001  10.156  14.840
24429W        W83965  11.322  10.675   1.785
24430W        W83966  40.338  25.581  11.387
24431W        W83967  10.752  15.244  13.032
24432W        W83968  37.040  44.291   3.649
24433W        W83969   8.197   1.758   4.167
24434W        W83970  11.752  15.203   2.819
24435W        W83971  24.539   1.375   2.694
24436W        W83972   0.487  30.066  10.560
24437W        W83973  37.554  36.392   3.725
24438W        W83974  16.089  30.504   5.155
24439W        W83975  32.927  24.523  10.495
24440W        W83976  44.414  12.808  13.532
24441W        W83977  34.517   6.207   0.906
24442W        W83978  33.977  23.603  11.969
24443W        W83979  38.426   0.292   1.377
24444W        W83980  11.370   6.394  13.808
24445W        W83981  31.524  24.063  11.867
24446W        W83982   4.851  28.039   4.760
24447W        W83983   2.288  14.174  10.960
24448W        W83984  27.498   7.782   1.215
24449W        W83985  20.144   8.822  11.002
24450W        W83986  34.079  39.466  11.470
24451W        W83987  14.652  29.614   3.363
24452W        W83988  42.460  11.245  14.914
24453W        W83989   4.318   3.894  12.046
24454W        W83990  12.255  18.720  13.484
24455W        W83991  36.409  29.502   1.820
24456W        W83992  43.356   3.426  14.772
24457W        W83993  41.989  31.955   0.752
24458W        W83994  39.545   1.239   0.396
24459W        W83995  36.572  16.718   3.251
24460W        W83996   4.779  37.986   3.821
24461W        W83997  36.459  32.948  13.028
24462W        W83998   0.901  23.091   1.846
24463W        W83999   9.319  21.670   3.342
24464W        W84000  42.333  26.995  11.607
24465W        W84001  17.127  25.106   0.328
24466W        W84002  44.437  40.885  10.980
24467W        W84003   2.411  29.635   4.710
24468W        W84004  39.499  23.061   2.856
24469W        W84005   2.761   8.252   3.211
24470W        W84006   3.858  27.602   1.780
24471W        W84007   7.830   9.709   4.265
24472W        W84008  17.087   2.854   0.733
24473W        W84009   5.359  33.874  10.582
24474W        W84010   6.717  27.608  13.399
24475W        W84011  24.191   8.805   4.338
24476W        W84012  10.262  37.573   2.875
24477W        W84013  20.563  23.516   2.402
24478W        W84014  15.769  22.600  14.284
24479W        W84015  15.325  27.988  11.535
24480W        W84016  29.530  11.711   1.700
24481W        W84017   9.285  16.732  13.477
24482W        W84018  11.336   6.814  13.423
24483W        W84019   5.924  40.311  10.527
24484W        W84020  26.486  29.097  13.465
24485W        W84021   1.470  33.128   1.910
24486W        W84022  30.519   5.747   0.449
24487W        W84023  30.140   4.854   4.759
24488W        W84024  10.747   7.208   2.819
24489W        W84025  32.039  39.963   2.312
24490W        W84026  21.695  39.383   0.407
24491W        W84027   9.697  16.180  13.354
24492W        W84028  19.644  25.969  11.397
24493W        W84029  10.162  14.602   3.751
24494W        W84030  36.992  20.147  13.462
24495W        W84031  14.784  41.817   4.734
24496W        W84032  13.135  39.055   1.434
24497W        W84033   7.729  37.865   2.810
24498W        W84034  36.018  35.397  13.979
24499W        W84035  38.027  44.813  13.473
24500W        W84036  39.420  13.269   1.715
24501W        W84037  38.879   4.884  14.303
24502W        W84038  26.476  27.445  10.962
24503W        W84039   1.750  22.546  14.006
24504W        W84040   1.244  11.828  12.882
24505W        W84041  33.966   6.889   1.273
24506W        W84042  36.036   0.759  13.976
24507W        W84043  20.619  39.392  12.916
24508W        W84044   3.368   0.922  14.813
24509W        W84045   4.205  42.461   0.800
24510W        W84046  21.191   4.299   4.258
24511W        W84047   3.718   0.266  12.970
24512W        W84048  24.550   1.240   0.312
24513W        W84049  19.188  32.404   4.328
24514W        W84050  37.355   0.987  11.395
24515W        W84051  34.026  28.449  12.366
24516W        W84052  12.659  14.649   0.845
24517W        W84053  39.455  20.161  10.484
24518W        W84054  42.494   4.842   1.316
24519W        W84055   4.275  23.679   2.782
24520W        W84056   8.833  32.047   3.313
24521W        W84057  43.919  14.313   3.833
24522W        W84058  14.798  29.019  13.840
24523W        W84059  33.023   9.219   1.354
24524W        W84060  43.465   0.287   1.833
24525W        W84061  28.505   6.822  14.327
24526W        W84062  31.447   4.351  12.999
24527W        W84063   0.441  39.899  12.029
24528W        W84064  36.048  26.668   2.756
24529W        W84065  42.031  18.721  13.831
24530W        W84066   4.700  27.966   9.521
24531W        W84067  29.957  31.045   3.785
24532W        W84068  31.547  28.986   2.667
24533W        W84069   7.723  22.117   4.129
24534W        W84070   0.850  28.447   2.314
24535W        W84071  12.323  26.198   0.248
24536W        W84072   8.172  17.648  12.348
24537W        W84073   2.245  36.071  12.448
24538W        W84074  42.943  41.940   4.304
24539W        W84075  12.840   5.365   4.310
24540W        W84076  38.865   2.309   1.771
24541W        W84077  30.456  28.102   1.724
24542W        W84078   1.970  31.135   4.657
24543W        W84079  34.436  42.355  11.873
24544W        W84080  10.661  30.493   0.813
24545W        W84081  20.758  18.596   2.323
24546W        W84082  44.389   6.883   0.437
24547W        W84083  32.399  39.822   4.122
24548W        W84084  34.107   3.388  14.954
24549W        W84085  23.221   0.778  14.407
24550W        W84086  18.573   8.668   3.852
24551W        W84087  25.523  39.927   1.360
24552W        W84088   5.739  42.008   2.400
24553W        W84089  38.902   5.850   1.237
24554W        W84090  30.420  17.213   2.766
24555W        W84091  20.102   4.791   2.363
24556W        W84092  11.748   6.306  11.895
24557W        W84093  33.593  13.836   0.273
24558W        W84094  23.209  33.016   2.398
24559W        W84095  39.949  32.938  11.552
24560W        W84096  35.517   9.703  13.388
24561W        W84097  13.772  21.092  14.849
24562W        W84098  19.281  43.325  12.949
24563W        W84099  25.962  14.595  12.359
24564W        W84100   2.876  10.188   4.156
24565W        W84101  42.787   6.344  13.323
24566W        W84102  18.053  35.095  11.096
24567W        W84103   8.185   7.314   0.328
24568W        W84104  27.177  16.670   0.880
24569W        W84105  25.156  26.649  13.507
24570W        W84106  26.459   7.329  12.450
24571W        W84107  21.532  10.235   3.358
24572W        W84108  22.140  21.053  11.948
24573W        W84109  23.565  25.210  13.450
24574W        W84110  16.124   8.190  13.958
24575W        W84111  15.206  10.691   1.254
24576W        W84112   2.786  40.933  14.821
24577W        W84113  22.194  43.429  13.376
24578W        W84114   0.825  35.470  14.876
24579W        W84115   7.760  23.997  12.014
24580W        W84116   6.796   7.223  10.639
24581W        W84117   1.335  28.139  11.939
24582W        W84118  24.012   2.287   0.360
24583W        W84119   2.404  29.969  12.549
24584W        W84120  36.980  19.146   2.795
24585W        W84121  37.047  33.565  11.105
24586W        W84122   2.372  31.007   0.315
24587W        W84123   2.231  33.028   4.194
24588W        W84124  17.062  15.145   4.804
24589W        W84125  18.268  15.115   3.669
24590W        W84126  30.162  42.446   4.162
24591W        W84127   5.718  22.700  10.977
24592W        W84128  43.479  12.770   3.279
24593W        W84129  27.495  29.482   4.311
24594W        W84130   8.347  23.620   0.792
24595W        W84131  20.623  15.687  12.363
24596W        W84132   8.705   5.746  14.338
24597W        W84133  28.599   6.904   0.251
24598W        W84134  20.169  28.476   0.938
24599W        W84135  42.349  17.565  13.416
24600W        W84136  41.821  24.566  14.874
24601W        W84137  16.675   6.232   2.314
24602W        W84138  20.104  29.093   0.892
24603W        W84139   5.703  27.115  10.602
24604W        W84140  16.584  28.156   0.263
24605W        W84141  28.993   8.197   1.439
24606W        W84142  16.187  34.415   1.805
24607W        W84143  19.709  27.980  10.565
24608W        W84144  23.707  27.499  13.377
24609W        W84145  23.008  23.572   4.783
24610W        W84146  28.474  24.547   9.578
24611W        W84147  31.610  26.174  13.539
24612W        W84148   6.229  12.275   1.244
24613W        W84149   9.845   0.873  13.868
24614W        W84150  14.709   9.180   2.227
24615W        W84151  20.249  38.410  11.903
24616W        W84152  10.229  35.965   3.768
24617W        W84153  37.952  21.732   3.842
24618W        W84154  14.817   8.264   0.884
24619W        W84155  41.913  15.105  14.761
24620W        W84156  27.661  27.974   1.892
24621W        W84157  25.677  20.686  13.546
24622W        W84158   5.917   9.345   1.874
24623W        W84159  37.471  16.650   4.272
24624W        W84160  14.797  14.788   2.864
24625W        W84161  16.111  30.441   3.227
24626W        W84162  11.786  34.032   9.975
24627W        W84163  43.956  31.545  13.443
24628W        W84164  30.618  10.786  12.047
24629W        W84165  37.503  26.497  13.988
24630W        W84166  33.387  15.164  10.463
24631W        W84167  27.966  20.672  13.447
24632W        W84168  34.937   9.865   2.322
24633W        W84169  19.269  31.153  14.896
24634W        W84170  30.919   2.768   2.351
24635W        W84171   2.927  43.842   4.316
24636W        W84172  12.330  40.392   2.338
24637W        W84173   0.828  37.456   0.326
24638W        W84174  29.536  21.228   0.780
24639W        W84175  37.540  44.275  12.941
24640W        W84176  18.610   9.740  14.402
24641W        W84177  35.506  21.686   1.757
24642W        W84178  13.715  21.170   0.864
24643W        W84179  36.349  33.121   3.762
24644W        W84180  37.863  42.378  11.544
24645W        W84181  39.036  22.247   4.242
24646W        W84182   5.212   8.215   3.659
24647W        W84183  29.520  25.055  11.000
24648W        W84184  40.926  26.619  14.868
24649W        W84185  24.975  38.341  14.319
24650W        W84186   7.776  39.394  13.001
24651W        W84187  39.918  36.854   4.267
24652W        W84188  44.409  41.508   0.445
24653W        W84189  37.351  14.162  14.896
24654W        W84190  21.090  21.597  14.354
24655W        W84191  26.618   3.712   1.867
24656W        W84192  32.080   4.318  14.508
24657W        W84193  26.173  10.743  13.913
24658W        W84194  17.700  22.610   4.616
24659W        W84195  29.539   5.194   1.331
24660W        W84196   8.764   6.253  13.972
24661W        W84197  35.549  34.051   4.231
24662W        W84198  44.839  44.001   4.156
24663W        W84199  44.856  36.990  14.927
24664W        W84200  43.321  37.944   4.287
24665W        W84201  28.142  24.551   5.294
24666W        W84202   6.847  23.120   1.771
24667W        W84203  39.488   2.914  14.773
24668W        W84204  25.053  27.484   2.387
24669W        W84205  42.300   3.385  12.920
24670W        W84206  33.576  33.038   0.356
24671W        W84207   5.758  37.387  13.338
24672W        W84208  36.561  39.361  12.471
24673W        W84209   1.738  37.339   4.256
24674W        W84210  42.914  42.502   1.270
24675W        W84211   5.356  42.369  14.905
24676W        W84212  26.996  33.002  11.959
24677W        W84213  43.397  26.165   3.148
24678W        W84214  10.320  14.212   2.333
24679W        W84215   0.985  36.919  11.949
24680W        W84216  39.553  28.965  14.411
24681W        W84217  32.124  33.471  12.566
24682W        W84218   8.718   9.675  11.060
24683W        W84219   7.372  43.892  14.882
24684W        W84220  17.221   8.235   4.785
24685W        W84221  24.973  33.443  14.381
24686W        W84222   9.322  30.464  13.033
24687W        W84223  15.289  24.987   2.387
24688W        W84224  24.082  17.735  14.341
24689W        W84225  21.564  43.459   2.824
24690W        W84226  28.642  22.654   1.371
24691W        W84227  15.152  23.710   1.401
24692W        W84228  34.429  39.007  12.345
24693W        W84229  36.461  28.516   1.230
24694W        W84230  14.170  10.277  14.956
24695W        W84231  19.091   0.456  11.085
24696W        W84232  19.704  17.179  12.945
24697W        W84233  37.402  26.599   4.724
24698W        W84234  32.458  39.522   4.680
24699W        W84235  35.020  32.451  13.899
24700W        W84236   7.892  27.183  13.461
24701W        W84237   7.332  20.106  11.416
24702W        W84238  11.139  38.042   4.710
24703W        W84239  20.055  23.167  11.903
24704W        W84240  13.296  38.438   2.351
24705W        W84241  12.837  32.576  11.546
24706W        W84242  21.545  19.162  13.035
24707W        W84243   0.905  33.546  14.795
24708W        W84244  15.098  31.473  14.922
24709W        W84245  43.505   2.329  11.880
24710W        W84246  12.823  35.912   4.617
24711W        W84247   9.227  32.611   3.146
24712W        W84248  18.192  39.421  10.577
24713W        W84249  32.476  30.531  11.918
24714W        W84250  43.337  37.916   3.274
24715W        W84251  16.196  28.141  12.086
24716W        W84252   1.841  29.984   3.777
24717W        W84253  16.721  13.316   0.261
24718W        W84254  20.738  17.077  10.606
24719W        W84255  40.018  15.197  11.908
24720W        W84256  14.290  13.640   3.359
24721W        W84257   7.713  37.466   2.245
24722W        W84258  13.602  44.909   2.357
24723W        W84259  40.821   9.282   2.756
24724W        W84260  39.352  40.874  14.025
24725W        W84261   7.338  41.535   1.277
24726W        W84262  34.584  42.409  14.418
24727W        W84263  34.047  26.675  12.525
24728W        W84264   6.220   8.341   0.358
24729W        W84265  27.149  34.521  10.580
24730W        W84266  10.800  18.740  10.618
24731W        W84267  43.773  13.179   3.278
24732W        W84268  36.381   2.862   3.761
24733W        W84269  41.421  39.960  11.453
24734W        W84270   7.292  25.540  13.530
24735W        W84271  33.925  37.906  10.593
24736W        W84272   9.271  40.526   0.293
24737W        W84273  43.990  44.448   2.694
24738W        W84274  35.401  31.116   0.408
24739W        W84275  40.876  19.556  13.348
24740W        W84276  16.598  25.625  12.465
24741W        W84277   1.327  41.846   2.737
24742W        W84278  41.513  34.560   4.212
24743W        W84279  16.207  10.662   4.133
24744W        W84280  38.410  13.216   2.279
24745W        W84281  24.632  42.824  11.011
24746W        W84282   9.359   7.391   0.864
24747W        W84283  40.387   6.812  10.632
24748W        W84284  20.709   5.339  14.463
24749W        W84285  27.478  14.642   2.325
24750W        W84286  39.831  43.891  13.898
24751W        W84287   6.788   1.880  11.975
24752W        W84288   9.259  44.916   2.257
24753W        W84289   6.276  33.527   4.694
24754W        W84290  12.646   0.742  14.845
24755W        W84291  34.045   6.424  10.143
24756W        W84292   9.181  13.650  11.104
24757W        W84293  17.180   6.243  11.956
24758W        W84294  27.670  21.589  10.427
24759W        W84295  32.891   1.957  11.904
24760W        W84296  21.708  36.383   3.338
24761W        W84297  32.401  25.147  13.344
24762W        W84298  44.290  17.276   4.703
24763W        W84299  22.515  43.419   0.299
24764W        W84300   5.701   3.821   0.408
24765W        W84301  17.709  32.614   3.342
24766W        W84302  44.905  39.370  14.497
24767W        W84303   6.389  15.610  14.927
24768W        W84304  27.010  39.410   0.250
24769W        W84305   0.341  23.563   1.368
24770W        W84306  39.983   3.951  13.430
24771W        W84307   6.817  15.310   2.231
24772W        W84308  11.250  10.328  13.799
24773W        W84309  37.449  37.982   3.152
24774W        W84310  39.431  20.079  10.941
24775W        W84311  36.872  24.691  12.452
24776W        W84312   0.888  41.849   4.826
24777W        W84313   5.259  32.906   0.960
24778W        W84314  28.663   5.724  11.980
24779W        W84315   3.326  14.725   3.323
24780W        W84316  13.688  12.224  10.904
24781W        W84317   0.410  16.195  11.911
24782W        W84318  22.232  18.619   3.221
24783W        W84319  31.564  40.895  14.861
24784W        W84320  18.605  44.384   1.873
24785W        W84321   0.922  19.143  11.037
24786W        W84322  13.277  38.901  11.464
24787W        W84323  42.925  40.545   5.270
24788W        W84324   5.796  24.526  13.366
24789W        W84325  30.073   6.821  13.052
24790W        W84326  35.923  14.811   0.831
24791W        W84327  12.664  38.347  12.010
24792W        W84328  10.658  33.931   1.793
24793W        W84329  43.383   6.238   3.679
24794W        W84330  31.446  41.385  12.447
24795W        W84331  23.122   9.800   3.249
24796W        W84332  28.467   4.739   0.902
24797W        W84333  25.189  27.090  10.543
24798W        W84334   7.687  23.564   3.290
24799W        W84335  17.587  16.660   1.307
24800W        W84336  15.592  44.952  13.874
24801W        W84337  26.612  35.551  11.919
24802W        W84338  40.923  41.885   2.213
24803W        W84339   3.388  10.278  13.048
24804W        W84340  28.614  32.047  12.476
24805W        W84341  27.946   8.786   3.842
24806W        W84342  43.789  24.631   3.231
24807W        W84343  19.065  32.990   4.257
24808W        W84344   7.356  29.957  11.429
24809W        W84345   6.369  44.344   2.884
24810W        W84346   8.284  18.141  14.874
24811W        W84347   0.918  23.692   4.734
24812W        W84348  29.919   3.435  11.038
24813W        W84349  17.281   8.739  10.121
24814W        W84350  21.036  18.597   3.748
24815W        W84351  22.644  32.605  11.503
24816W        W84352  28.179  18.737  10.527
24817W        W84353  25.675  40.504   2.413
24818W        W84354  32.437  38.909  13.977
24819W        W84355   1.922  17.609  12.942
24820W        W84356  19.614  32.543   3.641
24821W        W84357  35.568  25.120  10.574
24822W        W84358  23.174  20.274  10.505
24823W        W84359  21.135  31.969   0.373
24824W        W84360  22.121  32.570  11.375
24825W        W84361  36.842  20.583   1.735
24826W        W84362  34.882  30.609  14.805
24827W        W84363  19.170  40.829  13.427
24828W        W84364  40.957  20.732  14.769
24829W        W84365  40.309   0.806   1.695
24830W        W84366  17.590  15.703   4.693
24831W        W84367  39.867  37.435  14.934
24832W        W84368  39.842   2.763   1.934
24833W        W84369  26.136  42.031  13.542
24834W        W84370  38.537   3.286   0.827
24835W        W84371  22.607  15.259   0.371
24836W        W84372   9.657   6.922   1.720
24837W        W84373  15.622   4.435  14.370
24838W        W84374  20.693   9.355   3.196
24839W        W84375   6.766   2.243   0.879
24840W        W84376  35.999  12.717   2.779
24841W        W84377  11.133   5.242   0.318
24842W        W84378  21.625  39.456   3.269
24843W        W84379   5.889  28.437   0.441
24844W        W84380  23.024  24.148   1.722
24845W        W84381  13.677  36.094  14.004
24846W        W84382  11.701   7.172  14.312
24847W        W84383   8.270   3.337  13.961
24848W        W84384  43.965  40.872   2.840
24849W        W84385  16.194  14.201   1.743
24850W        W84386  41.820  42.932   1.757
24851W        W84387   5.338   5.819  13.346
24852W        W84388  34.079  21.748  13.879
24853W        W84389  26.622  32.574   1.733
24854W        W84390   6.700   1.945   0.365
24855W        W84391  19.691  16.583   1.873
24856W        W84392  27.945  25.493   0.898
24857W        W84393  34.985   8.734  12.361
24858W        W84394  15.310  22.041   1.256
24859W        W84395   6.790   0.917   3.702
24860W        W84396  42.282  15.613   0.742
24861W        W84397  29.587   1.306  13.329
24862W        W84398  24.166  13.341   4.818
24863W        W84399  12.789  11.212   3.301
24864W        W84400   3.421  17.565   2.785
24865W        W84401  18.639  29.952   3.223
24866W        W84402  41.016  43.482   4.270
24867W        W84403  22.235  39.857   4.215
24868W        W84404  39.876  38.008   1.314
24869W        W84405   0.488   2.273  10.405
24870W        W84406  20.701  12.190  13.361
24871W        W84407  26.191   3.297  13.479
24872W        W84408  42.795  11.327  14.281
24873W        W84409  13.134  31.580  14.020
24874W        W84410  42.401  14.815   0.301
24875W        W84411   9.819  19.157   4.249
24876W        W84412  29.008   0.952  14.348
24877W        W84413  15.663  24.536  10.906
24878W        W84414   9.297  42.433   4.811
24879W        W84415   6.217  25.178  12.879
24880W        W84416  35.513   0.423   5.172
24881W        W84417  37.371  16.234   0.298
24882W        W84418  39.367  30.949   1.776
24883W        W84419   6.905   0.957  11.049
24884W        W84420  31.601  41.031  14.288
24885W        W84421  37.480   9.226   0.967
24886W        W84422  27.060  10.354   3.223
24887W        W84423   8.252  33.620   3.281
24888W        W84424  23.535  39.538   1.695
24889W        W84425  25.555   2.359   1.306
24890W        W84426  28.160  28.661   1.231
24891W        W84427   3.236  43.854   3.261
24892W        W84428  25.178  24.654  12.351
24893W        W84429  23.698  24.153  12.064
24894W        W84430   9.680  15.694   3.768
24895W        W84431  27.993   3.453   4.326
24896W        W84432   9.791   9.855  11.389
24897W        W84433   7.716  14.270  10.134
24898W        W84434   4.251   8.820  14.287
24899W        W84435  12.697   3.838   4.639
24900W        W84436  13.281  22.500  13.425
24901W        W84437  32.902  24.198  14.914
24902W        W84438  20.084   4.312  13.349
24903W        W84439  16.813  35.429  13.424
24904W        W84440  17.712   0.276  14.973
24905W        W84441  10.181  15.639   5.200
24906W        W84442   4.913  27.498   1.382
24907W        W84443  34.387  19.741  14.771
24908W        W84444  39.980  11.837  10.497
24909W        W84445  44.860   7.392   3.806
24910W        W84446  16.650  43.498  11.034
24911W        W84447  44.468  25.640  12.453
24912W        W84448  29.588  17.697  11.597
24913W        W84449   3.762  29.100   5.270
24914W        W84450  44.820  42.387   4.670
24915W        W84451  20.625  25.207   4.142
24916W        W84452  39.543  16.246   4.192
24917W        W84453  27.184  39.892  10.599
24918W        W84454  30.992  35.923   5.091
24919W        W84455  38.056  15.302  13.977
24920W        W84456  25.004   2.724   0.871
24921W        W84457  43.966  35.868   0.898
24922W        W84458   2.247  34.015  11.106
24923W        W84459  13.150  14.095   1.417
24924W        W84460  37.531  16.092  14.500
24925W        W84461  44.333  19.761   3.648
24926W        W84462  27.495   2.909   4.149
24927W        W84463  38.481  32.101  10.903
24928W        W84464  37.951  25.686  11.916
24929W        W84465  42.955  34.578  11.494
24930W        W84466  20.067  23.515  14.498
24931W        W84467   1.815  11.809   5.271
24932W        W84468   0.872   3.296  11.538
24933W        W84469  38.432  27.043  14.876
24934W        W84470  28.553   8.788   2.829
24935W        W84471  22.629  28.133   1.874
24936W        W84472  30.469   6.765  13.467
24937W        W84473  14.318  23.571   3.179
24938W        W84474  16.226  25.673   2.349
24939W        W84475  18.101  13.176  12.494
24940W        W84476  15.263  13.149  11.466
24941W        W84477   8.297  36.374   3.330
24942W        W84478  22.147  15.131  12.995
24943W        W84479  17.198  28.578  11.556
24944W        W84480  26.457  37.522   2.331
24945W        W84481  39.922  38.046  10.495
24946W        W84482  23.112  13.236  11.112
24947W        W84483  19.246  19.177   5.307
24948W        W84484  19.260  30.001  12.554
24949W        W84485  16.614  17.299  13.799
24950W        W84486  15.198  28.499  11.379
24951W        W84487  20.244  20.545  12.957
24952W        W84488  30.478  38.961  12.403
24953W        W84489  24.077  37.994  13.926
24954W        W84490  25.118  17.208  12.926
24955W        W84491   0.278  38.495   3.755
24956W        W84492  41.513  17.213   0.318
24957W        W84493  13.180  12.639   2.300
24958W        W84494  23.003  33.520  11.120
24959W        W84495  30.580  30.490   1.412
24960W        W84496  25.475  42.026   3.336
24961W        W84497  11.236  17.564  11.459
24962W        W84498   2.240  31.142   1.893
24963W        W84499  29.080  44.409   2.867
24964W        W84500  14.623  20.183  14.441
24965W        W84501  10.259  35.603  12.833
24966W        W84502   3.748  20.657  10.479
24967W        W84503  33.974  29.075  11.417
24968W        W84504  41.304  27.107   0.322
24969W        W84505   6.228   5.208  12.436
24970W        W84506  34.391   5.855  13.509
24971W        W84507   3.806  36.521  12.998
24972W        W84508  15.597   3.263  11.456
24973W        W84509  27.545  28.622   1.747
24974W        W84510   0.776  18.065  11.018
24975W        W84511  23.672  11.332  13.035
24976W        W84512  41.999  10.167  14.001
24977W        W84513   7.756  42.401   3.359
24978W        W84514   6.421   7.337   4.624
24979W        W84515   6.812  38.044   1.923
24980W        W84516  33.111  41.953  11.459
24981W        W84517  36.924  17.612   0.274
24982W        W84518  18.231   9.269  10.923
24983W        W84519   5.784  20.113  11.415
24984W        W84520  17.578  33.036  11.509
24985W        W84521  33.487  15.634  14.993
24986W        W84522  10.286  16.200  10.463
24987W        W84523  32.997  18.729   4.119
24988W        W84524  42.810   2.423   3.824
24989W        W84525   4.316   8.704  13.910
24990W        W84526  29.950  31.060  13.467
24991W        W84527  11.728   2.245  12.011
24992W        W84528  20.716  43.979  14.855
24993W        W84529  27.592  25.058   3.844
24994W        W84530  28.110  24.996   3.670
24995W        W84531  12.263  29.656  11.011
24996W        W84532   5.697  25.479   9.537
24997W        W84533  42.322  40.506   0.729
24998W        W84534  34.464  41.486  10.617
24999W        W84535   2.823  40.345  14.400
25000W        W84536  25.157  22.703   1.219
25001W        W84537   2.842  15.189   3.861
25002W        W84538  13.161  12.300  11.391
25003W        W84539  36.936  10.173   2.335
25004W        W84540  34.544   2.295  11.087
25005W        W84541  14.310  23.994  14.829
25006W        W84542  41.321  12.682   3.812
25007W        W84543  10.272  14.287  11.371
25008W        W84544  25.590  38.975   4.272
25009W        W84545  16.681  15.682  10.002
25010W        W84546   7.754  12.294  13.403
25011W        W84547  38.888  41.888  13.001
25012W        W84548  15.795  36.522  13.358
25013W        W84549  25.587  21.606   0.317
25014W        W84550  23.712  43.913   1.764
25015W        W84551  38.060  30.511  10.898
25016W        W84552  40.429  42.014  11.916
25017W        W84553  24.159   0.317   4.264
25018W        W84554  25.009   2.752   4.317
25019W        W84555   5.412  26.510   4.351
25020W        W84556  22.107  18.661   1.903
25021W        W84557  12.220   3.749  13.371
25022W        W84558   4.818   9.344   4.618
25023W        W84559  30.642  14.613   1.706
25024W        W84560   8.241  44.459  11.873
25025W        W84561  19.766  29.019  10.593
25026W        W84562  43.914  28.171   2.187
25027W        W84563  18.141   9.340   0.372
25028W        W84564  17.727  35.992   1.846
25029W        W84565  43.356  24.558   0.961
25030W        W84566  26.541  36.356  12.467
25031W        W84567  25.555  18.171  14.861
25032W        W84568  16.747  27.581   0.928
25033W        W84569  42.424   8.769   2.893
25034W        W84570  37.959  26.010  11.551
25035W        W84571  32.514  30.552  11.544
25036W        W84572   9.770  37.065   3.238
25037W        W84573  44.763  39.350   1.826
25038W        W84574  19.561  31.947   2.267
25039W        W84575  24.544   3.225   4.329
25040W        W84576  26.681   6.884  10.568
25041W        W84577  29.587   4.702   2.718
25042W        W84578  41.861   4.921   3.642
25043W        W84579  41.315   2.910  10.970
25044W        W84580  11.220  27.026   0.949
25045W        W84581  11.739  41.344  11.883
25046W        W84582  14.767  22.063  14.856
25047W        W84583   2.384  10.204  14.873
25048W        W84584  15.111  24.166   1.317
25049W        W84585  18.156  14.338   0.250
25050W        W84586  38.025   9.875  14.416
25051W        W84587  34.942   0.950   0.873
25052W        W84588  20.178  11.740   2.278
25053W        W84589  21.215  40.358  12.828
25054W        W84590  43.871  24.024   1.447
25055W        W84591   3.940  35.943   4.697
25056W        W84592   2.875  35.936  11.930
25057W        W84593   1.764  19.261  10.550
25058W        W84594  40.920  22.185   2.266
25059W        W84595  33.937  28.467  11.503
25060W        W84596  17.789  25.467   1.242
25061W        W84597  26.583  23.502   0.828
25062W        W84598  15.747  24.013   2.698
25063W        W84599  18.770  26.567   4.166
25064W        W84600  13.145  28.052   2.364
25065W        W84601  26.045  13.609   2.398
25066W        W84602  25.163  42.787  11.420
25067W        W84603   8.166  21.524   1.779
25068W        W84604   5.397  27.127   0.773
25069W        W84605  38.014  13.790   1.694
25070W        W84606  18.075  18.544  13.943
25071W        W84607  14.286   5.291  13.906
25072W        W84608  41.303  20.734   4.184
25073W        W84609  16.156  13.302  11.889
25074W        W84610  32.029  36.493   4.337
25075W        W84611  44.978  25.636  13.418
25076W        W84612  21.565  13.675   2.396
25077W        W84613  37.055  21.644  13.983
25078W        W84614  23.602  31.941  11.089
25079W        W84615  12.654  34.419   1.373
25080W        W84616  33.415  13.144   0.371
25081W        W84617   9.317   3.834  10.476
25082W        W84618  18.548   2.389  14.878
25083W        W84619  23.709  15.780  13.435
25084W        W84620  15.759  23.199  11.968
25085W        W84621   7.208  25.035  13.936
25086W        W84622  27.091  19.202  12.014
25087W        W84623  41.855  37.567  13.432
25088W        W84624  18.227  20.677  14.880
25089W        W84625  12.756  17.750   2.265
25090W        W84626  15.272  20.665  11.026
25091W        W84627  28.947  27.602  14.434
25092W        W84628   9.235  41.405   2.401
25093W        W84629  35.928  20.566   3.641
25094W        W84630  27.050  26.587  11.572
25095W        W84631   3.419  44.762   0.906
25096W        W84632  24.601  39.415  12.508
25097W        W84633  16.745  41.983  12.871
25098W        W84634  32.436   7.244   4.315
25099W        W84635  23.592  39.926   4.656
25100W        W84636  15.787  36.488  13.991
25101W        W84637  44.350  41.800  12.433
25102W        W84638  35.544  27.135  10.057
25103W        W84639  11.627  20.524  13.064
25104W        W84640  32.117  36.002  13.433
25105W        W84641  18.686  37.982  13.542
25106W        W84642  35.519  10.375   1.397
25107W        W84643  30.002  33.118  11.542
25108W        W84644  20.599   2.732   2.855
25109W        W84645   4.860  29.019   1.811
25110W        W84646  44.935   0.402  11.991
25111W        W84647  30.014   3.275   4.122
25112W        W84648  43.303   2.239   2.292
25113W        W84649  21.568  26.668   5.238
25114W        W84650  35.077  19.573   0.950
25115W        W84651  16.282  39.992   0.945
25116W        W84652  16.262  38.412  14.880
25117W        W84653  37.348  30.633  10.462
25118W        W84654  37.547  11.770   0.404
25119W        W84655  34.909  34.099   0.918
25120W        W84656  33.069  38.481  13.028
25121W        W84657  31.133  37.530   1.723
25122W        W84658  22.197  37.488  10.046
25123W        W84659  19.092   2.799  12.924
25124W        W84660   8.694   8.263  11.870
25125W        W84661  14.622  31.939  11.111
25126W        W84662  21.157   3.916  10.534
25127W        W84663   1.308  11.137  14.852
25128W        W84664  39.941  43.824   2.385
25129W        W84665  37.008  33.950   1.811
25130W        W84666  30.428  39.832   2.238
25131W        W84667  26.134  23.027  14.494
25132W        W84668  37.968  24.702   1.782
25133W        W84669  25.606  38.382   3.687
25134W        W84670  20.255  40.884   4.718
25135W        W84671  12.261   2.318   4.755
25136W        W84672   2.822   4.775  14.017
25137W        W84673   7.350  30.625   1.899
25138W        W84674  12.844  17.077   2.893
25139W        W84675  36.461   4.781   3.777
25140W        W84676  42.501  38.036  11.490
25141W        W84677   3.874   9.793   1.254
25142W        W84678  42.524  13.677   3.789
25143W        W84679  43.955   3.918   3.773
25144W        W84680   9.193  38.960  10.642
25145W        W84681  17.643  39.418   4.638
25146W        W84682   4.701   3.389  10.417
25147W        W84683  35.458   5.755  12.920
25148W        W84684  12.175  41.437  14.942
25149W        W84685  29.109   3.314   4.186
25150W        W84686   6.393  12.143  12.549
25151W        W84687   9.805   0.266   4.150
25152W        W84688  41.474  24.201   0.479
25153W        W84689  39.025  37.077  12.347
25154W        W84690  38.539  15.308   1.248
25155W        W84691  14.336  39.941  12.411
25156W        W84692  26.589  24.689   1.292
25157W        W84693  41.040  24.620   1.439
25158W        W84694   0.895  19.545  13.814
25159W        W84695   7.734  35.011  11.011
25160W        W84696  30.079  41.928  10.557
25161W        W84697  44.973  22.115  11.550
25162W        W84698   0.434  44.928   0.758
25163W        W84699  19.241  19.742  14.872
25164W        W84700   2.420  20.191  14.446
25165W        W84701  41.041  41.475   1.835
25166W        W84702  30.576   7.407  13.329
25167W        W84703  42.951   2.855  12.977
25168W        W84704   2.340   6.265   4.113
25169W        W84705  28.442  20.146   1.877
25170W        W84706  41.842  28.624  14.293
25171W        W84707  15.737  14.280  11.116
25172W        W84708  18.599   1.770  12.842
25173W        W84709  10.245  44.931   3.328
25174W        W84710  35.503  17.238  13.936
25175W        W84711  16.759  18.745  14.790
25176W        W84712  15.690  27.120   0.307
25177W        W84713  22.553   9.370  11.510
25178W        W84714  13.755  32.479   4.260
25179W        W84715  40.892  15.301  14.905
25180W        W84716  38.897  23.193   0.850
25181W        W84717  25.128  30.958   2.398
25182W        W84718  43.367  28.493  14.907
25183W        W84719  43.417  25.064   0.832
25184W        W84720  43.839  16.306   2.718
25185W        W84721  31.638   6.827   2.768
25186W        W84722  20.591  22.678  13.337
25187W        W84723  20.202  40.868  10.892
25188W        W84724   5.748  25.522  13.513
25189W        W84725  19.727  15.588  10.471
25190W        W84726  36.346  21.203   1.337
25191W        W84727  10.803   5.359   2.738
25192W        W84728  36.374  23.732  12.343
25193W        W84729  16.147  24.534   0.456
25194W        W84730  16.119  25.188   3.211
25195W        W84731   0.375   0.945   1.730
25196W        W84732  26.558  37.890  11.880
25197W        W84733   3.842  20.713   0.949
25198W        W84734  43.952  44.881  14.356
25199W        W84735   2.369  14.706  13.436
25200W        W84736   4.310  34.966   1.701
25201W        W84737  37.031  39.822  12.531
25202W        W84738  35.950  37.530  13.989
25203W        W84739  40.818   6.352  14.982
25204W        W84740  29.535   8.851  11.997
25205W        W84741  23.139  42.351  12.422
25206W        W84742  27.505  15.666   1.325
25207W        W84743  42.956  24.055   3.323
25208W        W84744  43.838  10.839   5.125
25209W        W84745  44.358   9.648   4.248
25210W        W84746  36.855  21.205   4.776
25211W        W84747   7.758   3.825  10.893
25212W        W84748  19.563  39.936   4.660
25213W        W84749  39.042  10.828  13.457
25214W        W84750  23.219  44.354  10.053
25215W        W84751  21.040  15.790  11.604
25216W        W84752  23.044   6.278  10.904
25217W        W84753  24.710  34.489   2.259
25218W        W84754  19.078  24.989   0.890
25219W        W84755  16.585  19.585  14.294
25220W        W84756  24.052  26.973  14.771
25221W        W84757  29.486  18.145   3.836
25222W        W84758  19.126  23.722  10.992
25223W        W84759  23.100  19.675  14.354
25224W        W84760  31.597  23.025   1.894
25225W        W84761  36.844  26.645  14.443
25226W        W84762  42.306   8.837  13.926
25227W        W84763  42.505   2.428  12.029
25228W        W84764  11.264  24.656   1.386
25229W        W84765   1.850  34.588  13.991
25230W        W84766   9.699   3.823  13.946
25231W        W84767  31.567  31.926  14.429
25232W        W84768  15.717  16.143   2.853
25233W        W84769  13.753  44.858   2.787
25234W        W84770  35.373  32.424   4.678
25235W        W84771  14.196  43.001  12.388
25236W        W84772  32.988  34.979  13.816
25237W        W84773  37.891  38.848   0.819
25238W        W84774   7.251  33.071  12.391
25239W        W84775  19.168  23.686   2.384
25240W        W84776  44.397  11.694  12.927
25241W        W84777  42.415   1.787   3.313
25242W        W84778   7.666  26.159  12.013
25243W        W84779  17.133  35.388   1.715
25244W        W84780  17.709   7.255  13.418
25245W        W84781   3.773  26.019  14.423
25246W        W84782   6.734  15.264   0.365
25247W        W84783  15.653   9.873  11.546
25248W        W84784  27.103  36.933  11.387
25249W        W84785  13.633  23.017   3.335
25250W        W84786   2.922  15.087   2.383
25251W        W84787   3.837  35.977  13.425
25252W        W84788   3.297  32.413   2.379
25253W        W84789  21.621  17.564  12.015
25254W        W84790  19.105  27.174   2.240
25255W        W84791  19.672  36.580  13.809
25256W        W84792  42.944   6.832   0.318
25257W        W84793  33.521   3.255   4.134
25258W        W84794  16.605  25.582   4.354
25259W        W84795  35.996  22.518  13.820
25260W        W84796  44.391  42.783  13.463
25261W        W84797  18.613  11.262  13.010
25262W        W84798  39.001   6.727  10.415
25263W        W84799   8.268  30.477   0.879
25264W        W84800  44.480  39.824  10.434
25265W        W84801  10.384  21.161  11.515
25266W        W84802   4.881   9.738   4.736
25267W        W84803  15.220   2.722   0.967
25268W        W84804  36.904  41.408   0.298
25269W        W84805   7.245  44.966  10.634
25270W        W84806  11.864  13.272   0.475
25271W        W84807   0.801   3.304   5.100
25272W        W84808  14.311  35.586   3.249
25273W        W84809  44.898  38.391   4.757
25274W        W84810  43.960  16.637  12.977
25275W        W84811   9.373   2.257   0.957
25276W        W84812  39.321  27.548  11.095
25277W        W84813  34.966  34.387   4.236
25278W        W84814  43.506  35.515  12.494
25279W        W84815  36.842  43.948  13.982
25280W        W84816  29.090  10.175   2.889
25281W        W84817  11.179  43.455  14.856
25282W        W84818  37.395  11.245  12.912
25283W        W84819   2.322  21.657  11.386
25284W        W84820  44.942  20.190  12.898
25285W        W84821  18.262  22.608   2.220
25286W        W84822  31.610   4.909   3.740
25287W        W84823  26.136  12.129  14.307
25288W        W84824   2.767   9.852  12.554
25289W        W84825   2.731  30.021   5.804
25290W        W84826   7.675  13.709  10.528
25291W        W84827  34.453   0.862  12.349
25292W        W84828  28.140  29.537   0.772
25293W        W84829  31.408   7.860  12.398
25294W        W84830   8.755  16.689  12.009
25295W        W84831  35.867  29.036   0.373
25296W        W84832  19.161  12.802  13.902
25297W        W84833  18.277  35.420  11.966
25298W        W84834   6.910  24.125   0.339
25299W        W84835  24.195   9.310   4.820
25300W        W84836  28.957  25.117  11.082
25301W        W84837  23.520  26.098  14.910
25302W        W84838  24.104  30.520   3.856
25303W        W84839  15.326  20.717   4.617
25304W        W84840  12.142   3.799   5.679
25305W        W84841  23.071  42.362  13.835
25306W        W84842  10.256   5.786  12.925
25307W        W84843   5.823  19.145  10.416
25308W        W84844  27.661  23.100  12.427
25309W        W84845  15.240  41.968  13.921
25310W        W84846   3.713  27.688   0.847
25311W        W84847  27.096  32.997   4.688
25312W        W84848   8.716  35.869  14.281
25313W        W84849  10.705  32.056   4.728
25314W        W84850  22.050  14.788  11.027
25315W        W84851  37.015   7.205   4.670
25316W        W84852  31.534  43.907   0.258
25317W        W84853  31.107  33.478  13.048
25318W        W84854  44.397  37.840  10.555
25319W        W84855  15.764   7.692   1.767
25320W        W84856  27.565   3.448   0.773
25321W        W84857  26.553  24.480  12.354
25322W        W84858  38.893  33.528   2.418
25323W        W84859  36.519  30.045  10.553
25324W        W84860  42.291  24.042   0.420
25325W        W84861  37.976  33.385   4.708
25326W        W84862  24.635  23.490   4.121
25327W        W84863  15.628  37.432  13.423
25328W        W84864  12.733  41.478  10.632
25329W        W84865  38.464  35.981  14.899
25330W        W84866  25.079   0.272  14.482
25331W        W84867  44.821  36.850  13.884
25332W        W84868   1.766  33.563  11.984
25333W        W84869  23.215  40.331   3.842
25334W        W84870  33.064   2.422   2.346
25335W        W84871  26.108  25.648   4.680
25336W        W84872  16.285   4.904  10.019
25337W        W84873  22.602  26.644   2.240
25338W        W84874  44.963   5.285  10.620
25339W        W84875  35.500  27.508   3.267
25340W        W84876  21.610  19.551   4.240
25341W        W84877  41.315  24.141  13.986
25342W        W84878   2.861   6.744   2.330
25343W        W84879  24.074  43.956  13.490
25344W        W84880  34.956  12.266   2.381
25345W        W84881  29.500   9.241  11.511
25346W        W84882  13.270  18.774   2.336
25347W        W84883   8.293  25.533  13.527
25348W        W84884  27.546  37.011  10.959
25349W        W84885  28.070  24.195   3.633
25350W        W84886   1.732  41.408  12.572
25351W        W84887  26.116  26.587  12.075
25352W        W84888  32.119   2.732   1.780
25353W        W84889  14.121  40.024   3.261
25354W        W84890  11.268   4.816  12.837
25355W        W84891   3.791   8.213  11.469
25356W        W84892  12.299   3.853   4.731
25357W        W84893  13.681  31.984  11.505
25358W        W84894   3.933  32.102   2.375
25359W        W84895  17.715  14.279   0.832
25360W        W84896  29.653  36.922  10.538
25361W        W84897  26.462  27.131   4.286
25362W        W84898  34.867  41.381   0.422
25363W        W84899  17.670  35.573   4.787
25364W        W84900  13.686  37.941  13.923
25365W        W84901  15.307  16.295   2.195
25366W        W84902  32.526  13.780   0.471
25367W        W84903   1.388  15.789  12.507
25368W        W84904  18.718  17.258   4.633
25369W        W84905  17.723  36.413  11.407
25370W        W84906  43.864  16.183   4.726
25371W        W84907  24.635  32.979  12.073
25372W        W84908  11.250   1.758  11.379
25373W        W84909  24.631  44.364  14.954
25374W        W84910  20.549  31.575  11.011
25375W        W84911  34.048  23.522  13.338
25376W        W84912  13.282  10.801   4.352
25377W        W84913  19.111  16.767   3.867
25378W        W84914   9.260  40.975  13.801
25379W        W84915   1.877  26.494   3.757
25380W        W84916  23.593  14.710   4.300
25381W        W84917  15.609  35.882   3.387
25382W        W84918   8.398  27.105  12.915
25383W        W84919  44.347  40.045  13.490
25384W        W84920  35.369  32.414   0.878
25385W        W84921  44.378  25.082   0.349
25386W        W84922  14.302   3.723  11.054
25387W        W84923   7.769  28.085  10.920
25388W        W84924  39.901   3.748  11.548
25389W        W84925  24.997  37.483  14.762
25390W        W84926  39.534  29.008  11.094
25391W        W84927   9.667  35.462   4.774
25392W        W84928  28.531  42.328   1.216
25393W        W84929   4.892  30.996   4.263
25394W        W84930   0.340  10.821  10.584
25395W        W84931  18.054  22.729   0.814
25396W        W84932  13.720  17.103   0.887
25397W        W84933  44.423   8.711  11.424
25398W        W84934  43.465  25.622   4.253
25399W        W84935   1.379  21.559   4.180
25400W        W84936   1.923  19.262  14.759
25401W        W84937  29.048   4.441   3.146
25402W        W84938  23.497  22.150  14.785
25403W        W84939  41.933   0.481   4.614
25404W        W84940  13.750  11.829   3.296
25405W        W84941  23.061   0.302   2.799
25406W        W84942   4.839  25.081  13.020
25407W        W84943  18.082   4.260   3.693
25408W        W84944  36.037   0.934  14.330
25409W        W84945  22.104  11.676  12.829
25410W        W84946  32.972  17.265   3.377
25411W        W84947  40.870  20.092   1.439
25412W        W84948  28.984   5.404  12.078
25413W        W84949  23.632  31.988  12.346
25414W        W84950   6.252   1.400   2.823
25415W        W84951   9.752  31.983  14.347
25416W        W84952   5.282  10.772  10.480
25417W        W84953   5.198   8.254  11.028
25418W        W84954  10.854  41.320   2.788
25419W        W84955   4.855  35.438   2.371
25420W        W84956  10.321  17.287   3.273
25421W        W84957   6.781  13.645   3.775
25422W        W84958  39.965  11.642  14.278
25423W        W84959   3.366  33.495  13.470
25424W        W84960   0.912   6.833  10.447
25425W        W84961  24.701   1.261   1.836
25426W        W84962  28.032  30.077  12.378
25427W        W84963  41.834  28.487   1.726
25428W        W84964  31.602  22.544  11.527
25429W        W84965   4.790  24.052  14.357
25430W        W84966   2.757  29.097   3.195
25431W        W84967  42.994   9.310  13.345
25432W        W84968  24.648  13.193   3.782
25433W        W84969   1.243  40.437  14.973
25434W        W84970  23.078  23.491  11.605
25435W        W84971  11.639  15.325  11.419
25436W        W84972  36.467  20.094  13.510
25437W        W84973  41.324  42.957  11.905
25438W        W84974   2.864  41.314   0.843
25439W        W84975  16.103  38.049   1.713
25440W        W84976  40.954  12.179  14.473
25441W        W84977   4.366  30.474  14.882
25442W        W84978  13.770  19.735  11.511
25443W        W84979   7.174  37.865  10.973
25444W        W84980  42.409  26.592  13.038
25445W        W84981   1.845  35.482   2.827
25446W        W84982   3.259  15.197   0.364
25447W        W84983  16.251  29.502   1.843
25448W        W84984  42.375   3.339   4.819
25449W        W84985  32.584  37.922   3.184
25450W        W84986  32.589  10.277  14.396
25451W        W84987  22.590  40.313   4.191
25452W        W84988   8.730  38.948   4.677
25453W        W84989  25.709   2.912  11.392
25454W        W84990  29.580   5.339   1.852
25455W        W84991  23.653  19.225   4.268
25456W        W84992  35.046  44.365  13.911
25457W        W84993   9.331  13.105   3.726
25458W        W84994   8.236  41.833   0.849
25459W        W84995  40.373  22.521  14.861
25460W        W84996  13.224   2.361  12.387
25461W        W84997  24.075  10.323  10.633
25462W        W84998  35.371  17.711  11.963
25463W        W84999  30.586  38.867   1.247
25464W        W85000  23.659   0.289  14.360
25465W        W85001   1.872  28.516  13.327
25466W        W85002  11.758   3.760  13.401
25467W        W85003  29.462   7.908   4.346
25468W        W85004   0.393  28.470   4.324
25469W        W85005  18.092  38.503  11.611
25470W        W85006  10.795  17.705  12.910
25471W        W85007  32.943  22.585  12.347
25472W        W85008  16.211   2.847   3.683
25473W        W85009  22.696  10.190  13.835
25474W        W85010  12.706   1.308   1.363
25475W        W85011  37.836  39.543  10.583
25476W        W85012  32.474  29.587  12.399
25477W        W85013  43.920   7.406   4.650
25478W        W85014  10.801  19.584   0.441
25479W        W85015  19.187  24.523   4.320
25480W        W85016  35.082  38.345   2.248
25481W        W85017  17.798  15.693  12.013
25482W        W85018   5.786  25.177   2.405
25483W        W85019  36.523  27.993  10.099
25484W        W85020   3.765  18.695   1.747
25485W        W85021  12.255  19.115   1.881
25486W        W85022  35.909  38.493  13.376
25487W        W85023  29.569  28.981   4.299
25488W        W85024  33.610  21.062   4.794
25489W        W85025  30.497  28.973   0.834
25490W        W85026  27.130   1.296  12.018
25491W        W85027  25.209  21.593   2.684
25492W        W85028   3.800  38.367  11.507
25493W        W85029  21.177  34.613  14.904
25494W        W85030  25.972  13.131   3.778
25495W        W85031  30.601  26.469   5.303
25496W        W85032   9.667  36.978   0.359
25497W        W85033   1.956  32.507   1.909
25498W        W85034  31.148  28.142   1.367
25499W        W85035  21.206   7.257  10.919
25500W        W85036  24.098  29.530  10.510
25501W        W85037  10.783  39.892  14.827
25502W        W85038   4.928   8.814   0.386
25503W        W85039  31.536  13.259   0.441
25504W        W85040  17.131  36.448   2.667
25505W        W85041   3.877  12.199   0.325
25506W        W85042  21.222  20.688  12.851
25507W        W85043  29.479  18.241  14.382
25508W        W85044  32.465  20.271   1.396
25509W        W85045  10.355   4.850  12.094
25510W        W85046   0.470   3.452   4.698
25511W        W85047  41.870  38.397  13.360
25512W        W85048  32.477   6.678   3.359
25513W        W85049  29.531  25.064   4.700
25514W        W85050   6.252  34.885   1.363
25515W        W85051  10.154  31.125   1.388
25516W        W85052  31.067   6.404   2.331
25517W        W85053  33.905  35.413   3.828
25518W        W85054  13.333  17.786   3.828
25519W        W85055  33.532   7.209   0.440
25520W        W85056  36.890  40.994   0.940
25521W        W85057  30.484  16.115  14.464
25522W        W85058  40.499   1.963   1.698
25523W        W85059  22.165  27.485   3.685
25524W        W85060  35.961  29.665   1.373
25525W        W85061  24.664   0.395  14.327
25526W        W85062  15.223   1.741  12.084
25527W        W85063  25.609  30.517  10.619
25528W        W85064  34.923   4.861  10.427
25529W        W85065  27.531  36.539  12.540
25530W        W85066  34.545  10.281   4.330
25531W        W85067  11.185  25.666   2.814
25532W        W85068  12.735   7.280  14.279
25533W        W85069  29.600  33.405  10.516
25534W        W85070  12.851  37.545  12.980
25535W        W85071  12.203  12.661   1.282
25536W        W85072  10.836  32.598   0.919
25537W        W85073  29.572  19.767   4.218
25538W        W85074   1.803  35.559  13.358
25539W        W85075  19.743  10.879   2.345
25540W        W85076  27.997  31.424  13.411
25541W        W85077  14.094  24.533  10.602
25542W        W85078  32.134  19.711   1.397
25543W        W85079   4.814  44.965   3.651
25544W        W85080  44.867  27.988  13.436
25545W        W85081  27.197   5.758  11.520
25546W        W85082   8.343  11.767   4.351
25547W        W85083  44.976   9.295  11.990
25548W        W85084  44.867  26.060  11.897
25549W        W85085   8.660  34.099  11.038
25550W        W85086  18.100  28.041   0.387
25551W        W85087  33.952  25.174  14.317
25552W        W85088  36.529  26.145  12.827
25553W        W85089  18.650  16.726   4.605
25554W        W85090  43.394   2.311  10.926
25555W        W85091  44.291  12.714   4.635
25556W        W85092   2.936  34.468  14.893
25557W        W85093  18.247  40.501   1.258
25558W        W85094  26.523  42.296   2.319
25559W        W85095   0.889  36.363   4.664
25560W        W85096  15.235  33.982  13.982
25561W        W85097  10.228  30.074  13.885
25562W        W85098  35.485  26.098   9.452
25563W        W85099  18.064  42.987   2.815
25564W        W85100  20.187  14.277  10.092
25565W        W85101  22.140  33.888   1.443
25566W        W85102  41.985  38.884   0.847
25567W        W85103  12.825  40.439   4.295
25568W        W85104   3.826  27.136   3.642
25569W        W85105  33.450  31.412  14.933
25570W        W85106   3.448  19.587   0.747
25571W        W85107  20.719  20.067   2.760
25572W        W85108  13.315  42.458  11.603
25573W        W85109   3.400  35.914  11.974
25574W        W85110  13.271  30.940   1.447
25575W        W85111  11.705  44.009  11.101
25576W        W85112  14.277  34.017  12.516
25577W        W85113  39.990  40.527  13.982
25578W        W85114  30.115  44.434  11.607
25579W        W85115   4.719   4.233   4.629
25580W        W85116  39.918  20.250   3.748
25581W        W85117  31.931  28.994  13.488
25582W        W85118  16.119   0.403   3.363
25583W        W85119  22.703  44.472   1.714
25584W        W85120   9.350   0.976   3.240
25585W        W85121   9.382  43.462   3.181
25586W        W85122  19.701  23.588   3.681
25587W        W85123  16.637  17.766  11.909
25588W        W85124  16.306  30.589  13.436
25589W        W85125  35.578  18.106   3.317
25590W        W85126  22.067   9.691   4.341
25591W        W85127   3.930  21.154   4.721
25592W        W85128  37.010  43.429  12.472
25593W        W85129  39.491  25.120   4.251
25594W        W85130  41.436  33.064  13.429
25595W        W85131  11.835  36.551  12.405
25596W        W85132  24.631  17.693  13.996
25597W        W85133  10.219   8.357   4.801
25598W        W85134  34.101  17.754  10.577
25599W        W85135  24.572  21.141  11.399
25600W        W85136  36.449  13.319   3.175
25601W        W85137  24.597   6.316   0.456
25602W        W85138  13.621   9.253   1.422
25603W        W85139   7.787  17.735  11.608
25604W        W85140  38.917  43.385   2.863
25605W        W85141  26.051   0.288  11.948
25606W        W85142  23.071  35.450   4.314
25607W        W85143  18.772  39.956  10.498
25608W        W85144   6.741   2.767   2.287
25609W        W85145  36.032   9.393  14.838
25610W        W85146  37.353  15.236  13.979
25611W        W85147   2.898  40.374  13.034
25612W        W85148  28.150  17.770   3.148
25613W        W85149   0.911  12.783  11.127
25614W        W85150  28.477  34.541   2.392
25615W        W85151  22.518  44.899   0.396
25616W        W85152  35.028  44.841   1.850
25617W        W85153  38.465   0.375  12.011
25618W        W85154  16.090  37.851  13.861
25619W        W85155  14.257  33.450  10.488
25620W        W85156  39.010  16.267   1.801
25621W        W85157  25.999   0.269   0.801
25622W        W85158  36.089  42.456  11.883
25623W        W85159  25.610  18.545  13.495
25624W        W85160   0.391  40.873   0.428
25625W        W85161  24.713  25.481  13.371
25626W        W85162  14.608  11.144   1.357
25627W        W85163  38.331   2.465  13.342
25628W        W85164  41.396   3.814  14.869
25629W        W85165  40.999  22.688  12.518
25630W        W85166  25.636  35.484  13.979
25631W        W85167  34.450  42.478   3.196
25632W        W85168  40.993  26.163  12.096
25633W        W85169   7.691  20.187  13.401
25634W        W85170  29.965  14.328   4.676
25635W        W85171  39.455  33.449   0.477
25636W        W85172  24.098  25.190   0.311
25637W        W85173  12.336   7.683  11.931
25638W        W85174  27.108  27.586   3.246
25639W        W85175  41.516  37.494  14.781
25640W        W85176  26.550  13.209   1.435
25641W        W85177  37.449  32.534  12.498
25642W        W85178  34.102  44.325  13.473
25643W        W85179   1.823  19.699   2.235
25644W        W85180  42.990  28.940   4.166
25645W        W85181  37.064  34.391   3.863
25646W        W85182  34.060  17.720  11.118
25647W        W85183  19.648  42.880  12.405
25648W        W85184  16.146  22.087   0.855
25649W        W85185   9.797  15.644  13.450
25650W        W85186  30.951  16.707   4.639
25651W        W85187  34.379  21.021   3.681
25652W        W85188  29.124  21.686  14.387
25653W        W85189  15.101  37.402  11.051
25654W        W85190  25.203   8.775  11.573
25655W        W85191  27.940  26.067  11.470
25656W        W85192  30.488  32.625  13.026
25657W        W85193  27.548  23.000  13.010
25658W        W85194  39.943   1.290  11.571
25659W        W85195  20.200  12.744   0.936
25660W        W85196  25.612   6.363   2.228
25661W        W85197  39.824  37.864   2.848
25662W        W85198  39.329   5.719  11.874
25663W        W85199  23.670  17.205   3.746
25664W        W85200   4.810   7.885  12.531
25665W        W85201  21.714  20.538   9.594
25666W        W85202  16.590  39.340   2.182
25667W        W85203   4.904  20.236  13.463
25668W        W85204  36.526  32.107   3.193
25669W        W85205   5.198   5.438  13.506
25670W        W85206  31.613   7.194   1.799
25671W        W85207  29.064  25.207  14.835
25672W        W85208   9.668  38.476  14.328
25673W        W85209   3.746  23.176  14.397
25674W        W85210  33.423  39.557   1.240
25675W        W85211   7.752  14.180  14.317
25676W        W85212  31.945  20.762  12.989
25677W        W85213  38.481  23.200  14.387
25678W        W85214  17.701  40.859  13.959
25679W        W85215  43.387  39.960   1.354
25680W        W85216  14.603   7.698  14.496
25681W        W85217  11.783  26.639   3.301
25682W        W85218  13.612  21.085   1.759
25683W        W85219  29.009  26.012   1.771
25684W        W85220  29.529  14.616   3.701
25685W        W85221  20.030  42.816  14.764
25686W        W85222  34.531  21.088   2.405
25687W        W85223  20.110   1.392  13.544
25688W        W85224  12.302  34.565  14.459
25689W        W85225  43.439  30.585  13.901
25690W        W85226  36.955  18.785   0.266
25691W        W85227   6.220  31.103   3.678
25692W        W85228   6.849  13.740   0.262
25693W        W85229  11.663   5.860  12.934
25694W        W85230  31.603  35.442  10.917
25695W        W85231  14.112  18.561  10.635
25696W        W85232  41.353  42.892   3.251
25697W        W85233  30.112  29.427   3.307
25698W        W85234  37.461   6.908  11.998
25699W        W85235  41.508  13.139  13.975
25700W        W85236  18.705  22.690  14.781
25701W        W85237  41.304  13.345  13.316
25702W        W85238   6.210  37.857  12.950
25703W        W85239  32.128  26.181  11.918
25704W        W85240  18.575  32.929  12.903
25705W        W85241  42.442  21.613  13.417
25706W        W85242   3.921  39.060   0.244
25707W        W85243  16.107  29.657  10.134
25708W        W85244  37.019  26.985  13.985
25709W        W85245   7.410  20.627   1.823
25710W        W85246  25.537   1.750   5.253
25711W        W85247  19.267  23.032   9.921
25712W        W85248  38.330  22.651  10.413
25713W        W85249  39.015  10.279  13.050
25714W        W85250  16.761   6.354   2.728
25715W        W85251  14.101  23.493   4.278
25716W        W85252  15.609  24.196   3.306
25717W        W85253  33.068   0.413  11.524
25718W        W85254  24.154  19.147   2.296
25719W        W85255  21.696  17.704   4.195
25720W        W85256   0.881  27.058   1.223
25721W        W85257  29.539  24.223  14.927
25722W        W85258   4.371  18.207  11.090
25723W        W85259  29.044   8.670   4.340
25724W        W85260  14.784  31.053   4.758
25725W        W85261  26.470   2.282   3.755
25726W        W85262  14.590  35.910  12.375
25727W        W85263  40.912  20.091   2.794
25728W        W85264  12.719  20.052  11.120
25729W        W85265  15.607   0.771   4.791
25730W        W85266  35.898  20.151   5.285
25731W        W85267  11.320  26.072   0.860
25732W        W85268  24.553  20.763  10.454
25733W        W85269   8.335  32.123   3.210
25734W        W85270  15.807  29.103   1.799
25735W        W85271  15.802  42.454  13.909
25736W        W85272  12.283  32.072  11.606
25737W        W85273  16.687  26.973  10.975
25738W        W85274   9.831   5.848   3.726
25739W        W85275  19.163   5.308   2.222
25740W        W85276  41.292  18.644  12.542
25741W        W85277  26.985  21.615   3.719
25742W        W85278  13.242  32.394  13.369
25743W        W85279   5.261   4.213  12.920
25744W        W85280   9.660  33.590  14.891
25745W        W85281  18.697   6.779   0.809
25746W        W85282  41.023  29.002   2.323
25747W        W85283  43.413  21.114   2.413
25748W        W85284  42.307  20.130   1.268
25749W        W85285  41.864   5.819  10.538
25750W        W85286  44.476  10.367   5.232
25751W        W85287  44.916  16.582   4.333
25752W        W85288  24.547  33.496  11.555
25753W        W85289  16.705  28.041  13.345
25754W        W85290  40.392  40.400  12.020
25755W        W85291  27.143   9.353   1.232
25756W        W85292  24.589  19.743  10.483
25757W        W85293  12.144  22.613  13.804
25758W        W85294  44.274   7.298   3.244
25759W        W85295  22.138  21.214  12.516
25760W        W85296  35.946  44.400  10.908
25761W        W85297  40.302  10.687   0.392
25762W        W85298  44.985  21.067   4.180
25763W        W85299  22.229   8.265   3.774
25764W        W85300  20.553   8.819  13.368
25765W        W85301  21.134  33.524  14.501
25766W        W85302  42.504   7.785  14.379
25767W        W85303  39.346  30.973  13.982
25768W        W85304   5.815  21.259  10.456
25769W        W85305  44.927  21.633   0.767
25770W        W85306   3.766   4.780   2.222
25771W        W85307  20.089  23.547   0.862
25772W        W85308  31.065  37.466  13.490
25773W        W85309  41.911   0.393   1.751
25774W        W85310  40.802  42.400   4.241
25775W        W85311  24.084  37.857   3.387
25776W        W85312  21.694   7.688  14.844
25777W        W85313  16.677  30.910  12.513
25778W        W85314   0.417  18.684   3.715
25779W        W85315  19.072  19.685  14.480
25780W        W85316  40.538  15.777   2.304
25781W        W85317  13.267  43.977   1.787
25782W        W85318  25.030  21.110   1.699
25783W        W85319   4.860  26.065   3.723
25784W        W85320  35.602  14.230  12.973
25785W        W85321  35.975  32.604   2.292
25786W        W85322  35.882   9.741  13.974
25787W        W85323  23.733  28.038  13.393
25788W        W85324  33.002  10.247   3.829
25789W        W85325  38.887  32.623  13.525
25790W        W85326  38.507  15.675   0.366
25791W        W85327  19.169  14.302   4.812
25792W        W85328  17.301  13.786  13.461
25793W        W85329   6.867  42.009  10.578
25794W        W85330  32.504  24.484  12.559
25795W        W85331  15.245  30.095  10.447
25796W        W85332  29.549   5.281  14.513
25797W        W85333  35.926  33.487  13.958
25798W        W85334   5.434  35.421   0.884
25799W        W85335   0.250  41.295  10.588
25800W        W85336  41.965  41.815  14.485
25801W        W85337  21.184  24.981   2.321
25802W        W85338  24.104  14.738  12.372
25803W        W85339  36.575  23.726   2.180
25804W        W85340  14.141  27.152   0.952
25805W        W85341  13.822   4.316  12.548
25806W        W85342  27.454  38.366   0.757
25807W        W85343  43.876  12.839   2.742
25808W        W85344  29.984  26.647  10.146
25809W        W85345  17.276  25.595   4.643
25810W        W85346  44.003  10.225   1.375
25811W        W85347  22.740  14.291   2.390
25812W        W85348  40.357  25.157  12.476
25813W        W85349  11.785  29.466   1.772
25814W        W85350  25.478   8.749   1.400
25815W        W85351  13.169  24.186   4.837
25816W        W85352  25.494   3.711   0.794
25817W        W85353  39.350  15.753   4.829
25818W        W85354  22.248   6.304  10.978
25819W        W85355  28.481  26.955   3.637
25820W        W85356   2.774   8.342   0.747
25821W        W85357  22.698  15.738   4.275
25822W        W85358  25.551  17.587   3.643
25823W        W85359  37.481   9.365   4.730
25824W        W85360  14.811  14.336  11.507
25825W        W85361  15.199  36.536   1.314
25826W        W85362  24.694   5.239  12.461
25827W        W85363  13.121  25.976  14.515
25828W        W85364  32.103   4.378  12.387
25829W        W85365  40.428  32.111   1.910
25830W        W85366  42.800  14.253   0.310
25831W        W85367  33.600   5.343   0.481
25832W        W85368  29.573  15.783  13.976
25833W        W85369  10.670  44.334  13.322
25834W        W85370  18.761  33.603   3.716
25835W        W85371  15.215  11.269   3.701
25836W        W85372  35.582  36.442   2.810
25837W        W85373  18.659  34.422   2.829
25838W        W85374  13.780  43.879  12.411
25839W        W85375  21.563  23.647   1.316
25840W        W85376  33.061  39.443  14.788
25841W        W85377   5.221  44.818   3.746
25842W        W85378  23.996  12.729  10.900
25843W        W85379  18.711   3.854   3.346
25844W        W85380  29.472   6.873   1.277
25845W        W85381  42.320  41.393   2.849
25846W        W85382  30.443  41.832   1.452
25847W        W85383  20.733  24.110   3.151
25848W        W85384  29.628  43.992  13.951
25849W        W85385  18.293  20.217   1.370
25850W        W85386  15.732  16.650  14.459
25851W        W85387  43.310  27.659   4.808
25852W        W85388  44.459  17.665  12.520
25853W        W85389  11.643  19.748   0.300
25854W        W85390  12.341  20.624   4.715
25855W        W85391  29.485  42.301  11.959
25856W        W85392  38.473  35.917   1.796
25857W        W85393  41.786  17.683  14.922
25858W        W85394   0.845  10.829  12.895
25859W        W85395  36.065  38.883  13.910
25860W        W85396  34.948   0.907   2.357
25861W        W85397   4.787  14.716   0.842
25862W        W85398   9.381  41.020  13.548
25863W        W85399  17.604  11.249  14.808
25864W        W85400   0.747  13.285  14.975
25865W        W85401  21.516  30.095   4.760
25866W        W85402  36.443  32.420   2.379
25867W        W85403  30.092  16.233  11.083
25868W        W85404   1.408  10.166  10.984
25869W        W85405  29.639   5.214   4.350
25870W        W85406  27.489  41.872  13.353
25871W        W85407  41.373  20.745   1.729
25872W        W85408  16.145  37.492  13.395
25873W        W85409  42.943  44.389  14.287
25874W        W85410  20.106  29.478  12.452
25875W        W85411  37.507  29.971   0.312
25876W        W85412  10.715  44.892  14.877
25877W        W85413   1.248  33.923   2.813
25878W        W85414  40.998  34.461  12.549
25879W        W85415  29.980  11.832  12.990
25880W        W85416   3.721   6.325  14.286
25881W        W85417  15.664  25.981   0.849
25882W        W85418  26.585  25.493   3.362
25883W        W85419  23.587  24.194   1.781
25884W        W85420   3.350  36.524   2.260
25885W        W85421   4.222   6.679  13.395
25886W        W85422  36.943  35.460   0.780
25887W        W85423   7.829   0.374  11.538
25888W        W85424  37.532  31.096  14.460
25889W        W85425  41.319  22.211  11.501
25890W        W85426   0.862   2.298  10.949
25891W        W85427  29.583  31.969   4.137
25892W        W85428  38.074   3.841   1.399
25893W        W85429  29.457  30.618   1.916
25894W        W85430  32.536  44.834  10.438
25895W        W85431  17.712  32.116   4.307
25896W        W85432  14.760  27.123   1.821
25897W        W85433  19.664  11.730  13.315
25898W        W85434  32.925   8.237  12.533
25899W        W85435  29.941  37.547   3.669
25900W        W85436   7.849  39.556   4.213
25901W        W85437  34.108  22.545   3.735
25902W        W85438  38.545  32.418   1.912
25903W        W85439  25.676  24.720  12.462
25904W        W85440  25.529  37.552  10.424
25905W        W85441  17.763  24.187  14.876
25906W        W85442  23.210  33.420   4.656
25907W        W85443  32.999  41.980   0.751
25908W        W85444   3.719  13.184  10.889
25909W        W85445  19.149  18.760  11.964
25910W        W85446   6.896  44.009  11.978
25911W        W85447   8.887  31.604   3.755
25912W        W85448  26.958  38.844  14.883
25913W        W85449  38.411  40.944   1.374
25914W        W85450  11.325  32.491   1.451
25915W        W85451  41.803  28.541   4.179
25916W        W85452   6.822  38.362  10.999
25917W        W85453   7.879  25.035   4.184
25918W        W85454  28.182  13.196   3.164
25919W        W85455   8.824  18.219  13.516
25920W        W85456  19.553  21.126   3.306
25921W        W85457  18.625  30.159   0.382
25922W        W85458  25.130   5.366   0.850
25923W        W85459  16.134  17.737   0.858
25924W        W85460  18.158  30.637  13.814
25925W        W85461  16.744  41.357  10.490
25926W        W85462   2.952  34.556  12.915
25927W        W85463   0.333   0.817  14.508
25928W        W85464  21.240   6.754   4.740
25929W        W85465  20.197  39.964   1.402
25930W        W85466  33.536  13.610  10.959
25931W        W85467  14.640   1.832   2.366
25932W        W85468  24.157  26.627  13.492
25933W        W85469  21.741   0.890   3.191
25934W        W85470   7.682  40.324  12.484
25935W        W85471  18.725  28.435  11.994
25936W        W85472  43.507   3.872   4.337
25937W        W85473  23.030  44.343  10.446
25938W        W85474  37.927  41.812   2.394
25939W        W85475  19.711   1.441  12.892
25940W        W85476   1.775  20.547   3.171
25941W        W85477  42.876  44.388   3.756
25942W        W85478  37.942  22.172  14.802
25943W        W85479   5.714   7.230  10.628
25944W        W85480  14.266  33.053  10.906
25945W        W85481  44.357   8.811  14.812
25946W        W85482  25.130  20.688   3.182
25947W        W85483  33.910  38.431  12.954
25948W        W85484   5.733  10.230  13.909
25949W        W85485   5.259  18.178   1.866
25950W        W85486  31.636  16.803   0.812
25951W        W85487   6.239  30.158   2.892
25952W        W85488  35.590   1.264   1.261
25953W        W85489  40.894  37.968   1.437
25954W        W85490  16.150  27.508   4.175
25955W        W85491   1.884  11.637  13.377
25956W        W85492  22.670  21.523   1.727
25957W        W85493  37.484  39.041  13.831
25958W        W85494  11.727  19.644   0.832
25959W        W85495  21.202  11.153   3.309
25960W        W85496  17.799  13.123  10.620
25961W        W85497  35.517  26.103  14.291
25962W        W85498  18.278   6.760   1.796
25963W        W85499  40.436  29.526  12.463
25964W        W85500   6.288  41.910  14.513
25965W        W85501  25.025   6.690   1.372
25966W        W85502  28.034  15.123   2.290
25967W        W85503  36.030  29.645  13.371
25968W        W85504  19.195  19.771   1.327
25969W        W85505   0.816  21.660   4.831
25970W        W85506  18.641   0.389  14.926
25971W        W85507  25.970  39.360  13.973
25972W        W85508  34.584  36.554  12.464
25973W        W85509  36.843  28.971   3.758
25974W        W85510  40.481  18.126  14.970
25975W        W85511  27.518  15.130  11.539
25976W        W85512  39.357  32.405   1.902
25977W        W85513  20.207  19.274   9.943
25978W        W85514  38.961  35.397   2.787
25979W        W85515   2.471   5.808   4.793
25980W        W85516   3.373  30.945   1.450
25981W        W85517  23.566  25.109   4.681
25982W        W85518  36.862   4.803   2.329
25983W        W85519   8.701   9.887  14.907
25984W        W85520  31.965  44.387  13.035
25985W        W85521  42.991  41.314  11.406
25986W        W85522  43.322  35.572   3.702
25987W        W85523  22.080  11.308   1.260
25988W        W85524  28.053  34.905   3.659
25989W        W85525  29.480  22.223  10.528
25990W        W85526  17.118  36.878   2.364
25991W        W85527  38.326  16.628  14.317
25992W        W85528  39.445  15.789  10.988
25993W        W85529  40.009   8.392  13.840
25994W        W85530  28.669  40.481  14.414
25995W        W85531   3.223  17.211  14.924
25996W        W85532  12.688   8.701   3.641
25997W        W85533  25.125  40.845  12.414
25998W        W85534  22.703   4.751  13.806
25999W        W85535  34.389   3.745   0.289
26000W        W85536   7.354   2.251  11.092
26001W        W85537  12.121   5.867  13.526
26002W        W85538   4.314  36.529   0.901
26003W        W85539   6.307  41.425  10.483
26004W        W85540  40.377  23.509   5.260
26005W        W85541  34.448  40.994  10.911
26006W        W85542  32.582  37.474  14.003
26007W        W85543   2.242   8.862  14.001
26008W        W85544   3.290  20.600   1.849
26009W        W85545  42.445  11.316  13.958
26010W        W85546   4.414  10.203  13.843
26011W        W85547  26.017  24.154  14.963
26012W        W85548  33.622  34.523   1.256
26013W        W85549   0.434   6.297   0.391
26014W        W85550   5.924  42.418   2.662
26015W        W85551  40.458  42.403   1.870
26016W        W85552  39.501  27.040  10.631
26017W        W85553   5.234   5.236   3.631
26018W        W85554  20.032  35.418  14.499
26019W        W85555   8.299  17.297  12.481
26020W        W85556  25.698  27.122  13.936
26021W        W85557  17.741   9.271  12.371
26022W        W85558  42.483  32.072   1.701
26023W        W85559  10.300  35.604   2.880
26024W        W85560   0.898  31.523  14.031
26025W        W85561   7.220  31.588   2.179
26026W        W85562  39.941   9.815   4.341
26027W        W85563   1.336  19.769  14.794
26028W        W85564  37.056  38.351   2.853
26029W        W85565   3.348   1.419   3.756
26030W        W85566  23.050  22.528  11.582
26031W        W85567  19.669  41.522  11.093
26032W        W85568  33.080  19.242   0.282
26033W        W85569  39.347  21.646   3.845
26034W        W85570  34.958  22.547   1.912
26035W        W85571   0.446  20.766  14.774
26036W        W85572   3.420  43.383  11.958
26037W        W85573  42.992   4.327   2.290
26038W        W85574   5.300   6.836   0.456
26039W        W85575   3.260   8.751  13.463
26040W        W85576  39.822  20.655  14.474
26041W        W85577  35.011   3.246   4.812
26042W        W85578  32.390  13.334   2.732
26043W        W85579  16.574  30.628  11.008
26044W        W85580  44.360  38.530  14.945
26045W        W85581   4.871  23.214  14.445
26046W        W85582  24.653  29.426   4.259
26047W        W85583  26.188  27.548   3.223
26048W        W85584  25.018   4.270  13.812
26049W        W85585   9.808  18.284   2.325
26050W        W85586   8.848  37.533  12.508
26051W        W85587   3.291  18.559   1.268
26052W        W85588  23.013  40.988   4.775
26053W        W85589  33.531  36.893  13.501
26054W        W85590  21.052  41.446   4.623
26055W        W85591  24.181  10.331  10.083
26056W        W85592  11.835  26.134   3.737
26057W        W85593  37.487  30.130  11.488
26058W        W85594  40.890   7.796   4.258
26059W        W85595  37.858   1.924   1.895
26060W        W85596  37.449  26.691   0.803
26061W        W85597  38.867   3.256  12.504
26062W        W85598  18.644  25.711   1.406
26063W        W85599  17.787  33.560   3.828
26064W        W85600  26.980  44.391   0.418
26065W        W85601  38.511  23.573   1.268
26066W        W85602  35.068  31.615   3.238
26067W        W85603  13.327  37.892  11.916
26068W        W85604  16.653  40.424   2.695
26069W        W85605   6.853   3.290  11.435
26070W        W85606  19.175  31.009   1.317
26071W        W85607  38.334  21.593   1.445
26072W        W85608  29.618  13.725  11.605
26073W        W85609  28.548   8.296  12.917
26074W        W85610   6.798  17.704   1.887
26075W        W85611  30.545  32.521  11.574
26076W        W85612  34.418   8.355  14.364
26077W        W85613  27.054  28.016  11.966
26078W        W85614  32.906  21.748  13.905
26079W        W85615   1.469   1.278   1.857
26080W        W85616  26.008  21.043  12.464
26081W        W85617  21.112  17.261   3.738
26082W        W85618  37.405  22.637  12.470
26083W        W85619  20.759   0.845   1.247
26084W        W85620  24.722  28.136  11.863
26085W        W85621  10.741  35.467   3.788
26086W        W85622  39.536  17.277  12.043
26087W        W85623  39.041   8.730   4.707
26088W        W85624  31.946  14.619   2.311
26089W        W85625   9.391   1.241   4.248
26090W        W85626  37.394  16.306  10.960
26091W        W85627   8.667  16.095  12.096
26092W        W85628  20.159  29.112  10.901
26093W        W85629  33.461  11.133  11.390
26094W        W85630  30.554  38.071  11.991
26095W        W85631  22.683  20.245  12.565
26096W        W85632   7.258  32.523  11.039
26097W        W85633  32.031  14.307   0.739
26098W        W85634  44.762  38.510  13.529
26099W        W85635  12.642  37.902  10.535
26100W        W85636  29.592   7.353   3.210
26101W        W85637  16.588   4.419   0.456
26102W        W85638  28.174  16.099   1.757
26103W        W85639  34.448  38.445  11.000
26104W        W85640  26.683  34.003  14.853
26105W        W85641  38.566  38.060   2.264
26106W        W85642  32.063   9.252  14.503
26107W        W85643  34.411  13.839   0.421
26108W        W85644  19.706  15.327   1.442
26109W        W85645   7.196  27.950   1.328
26110W        W85646  38.474  16.175   3.359
26111W        W85647  42.031  31.515   0.903
26112W        W85648  12.330  39.500  14.445
26113W        W85649  33.511  14.314   2.326
26114W        W85650  37.017   9.170   1.715
26115W        W85651   1.441  21.580   4.696
26116W        W85652   9.198  36.014   2.772
26117W        W85653  12.768  38.903   3.229
26118W        W85654  11.177  22.550   0.790
26119W        W85655  40.372  31.914   2.383
26120W        W85656   7.312  43.461   4.828
26121W        W85657  26.588  43.426  11.934
26122W        W85658   2.923  12.735   2.707
26123W        W85659   6.770   5.687   0.792
26124W        W85660   0.269  34.462   2.380
26125W        W85661   9.314  12.671  13.850
26126W        W85662  40.006  42.319  10.618
26127W        W85663  24.502  15.742   0.779
26128W        W85664   9.346   4.242   3.789
26129W        W85665  44.356  30.998   0.781
26130W        W85666  37.521  22.565   3.773
26131W        W85667  12.192  20.229   4.800
26132W        W85668   7.346  18.054   0.829
26133W        W85669   9.359   0.292   1.316
26134W        W85670   2.734  41.459   4.830
26135W        W85671   1.800  10.290  11.045
26136W        W85672  35.964  44.930  14.385
26137W        W85673   3.437  14.766   5.240
26138W        W85674  22.615  35.369  14.324
26139W        W85675  23.652   3.366  10.889
26140W        W85676  19.584  16.750  11.014
26141W        W85677  19.223  30.158  10.549
26142W        W85678  20.030  10.749   3.170
26143W        W85679  17.581  28.463   3.189
26144W        W85680  38.945  10.691  10.981
26145W        W85681  20.623  40.852  11.059
26146W        W85682   8.360  14.613  14.422
26147W        W85683  20.060   8.821   5.242
26148W        W85684  30.454   8.213   3.643
26149W        W85685  25.005  38.890   2.189
26150W        W85686  28.175   3.872   4.237
26151W        W85687  11.160  22.037   1.890
26152W        W85688  12.281  23.658  13.878
26153W        W85689   8.847  22.074  10.507
26154W        W85690  37.482  28.056   4.164
26155W        W85691  34.021  21.170  12.876
26156W        W85692  38.004  11.191  14.469
26157W        W85693  17.307  33.462  10.943
26158W        W85694  24.510  16.240   0.759
26159W        W85695  29.576  32.431   0.258
26160W        W85696  21.546  17.752   1.720
26161W        W85697  10.758  17.620  13.983
26162W        W85698  39.047  36.563  14.000
26163W        W85699  42.777  38.848  13.368
26164W        W85700  17.626  32.904   3.361
26165W        W85701  41.874  35.007  13.014
26166W        W85702  14.150  23.101  14.428
26167W        W85703  39.499  37.418   4.760
26168W        W85704   0.749  30.146  11.426
26169W        W85705  27.153   0.274  14.316
26170W        W85706  13.712  27.139   0.878
26171W        W85707  25.525   7.341   0.415
26172W        W85708  20.711  31.430   3.272
26173W        W85709  43.401  20.648  14.847
26174W        W85710  34.503  30.495   2.413
26175W        W85711  16.181   4.334   4.723
26176W        W85712  44.870  18.629  11.894
26177W        W85713  44.406   4.920   4.243
26178W        W85714  14.140  13.333   0.475
26179W        W85715  39.472  30.590  14.324
26180W        W85716  17.734  21.547  14.414
26181W        W85717  23.038  38.993  11.607
26182W        W85718   6.320   5.928  11.036
26183W        W85719  35.957  39.963   1.215
26184W        W85720  33.979  18.690   2.255
26185W        W85721  13.727   3.453   0.793
26186W        W85722  14.653   6.880   3.804
26187W        W85723  34.527   4.325   3.190
26188W        W85724  31.064   2.896   0.480
26189W        W85725  32.530   8.824   4.229
26190W        W85726  40.506   9.182  13.457
26191W        W85727  18.647  10.648   3.705
26192W        W85728  13.143  37.377   4.702
26193W        W85729  13.821  44.926  13.837
26194W        W85730  39.821   0.484  13.508
26195W        W85731  40.330  20.274  12.914
26196W        W85732   4.224  20.541   4.241
26197W        W85733  24.059  31.084   1.782
26198W        W85734  25.029  41.516  12.362
26199W        W85735  33.426   5.849  13.980
26200W        W85736  41.796  10.867  10.508
26201W        W85737  17.238  40.315   4.238
26202W        W85738   4.822  38.453  14.484
26203W        W85739  32.543  38.412  10.490
26204W        W85740  18.707  25.626   0.455
26205W        W85741   1.902  21.620  10.560
26206W        W85742  21.203  32.017   1.292
26207W        W85743  10.302  12.224   1.725
26208W        W85744  14.239   7.863  12.956
26209W        W85745  38.559  27.457  13.505
26210W        W85746  17.567  33.462  11.910
26211W        W85747  16.608   4.846  14.766
26212W        W85748  20.562  21.695  10.627
26213W        W85749   9.836  43.910  12.481
26214W        W85750   7.759  30.956   1.695
26215W        W85751  24.544  12.616   1.364
26216W        W85752  42.855  40.523  11.102
26217W        W85753   9.266  24.057   1.329
26218W        W85754   1.446  42.006   4.293
26219W        W85755  29.081  30.435   3.374
26220W        W85756  10.789  38.030   4.328
26221W        W85757  13.763  25.974   0.837
26222W        W85758  35.543  40.421   1.219
26223W        W85759  32.141  18.551   1.801
26224W        W85760  28.639  10.180  10.426
26225W        W85761   5.254  38.044  13.996
26226W        W85762  24.146  18.142   1.697
26227W        W85763  27.152  23.647   2.343
26228W        W85764  24.127  38.496  11.588
26229W        W85765   2.771  36.459   4.253
26230W        W85766   8.725  37.457   1.409
26231W        W85767  20.084  37.546   4.785
26232W        W85768  40.033  24.102  10.465
26233W        W85769  21.523  30.027  12.888
26234W        W85770   7.336   1.393  12.974
26235W        W85771  42.412  37.361   2.761
26236W        W85772   6.681  14.288  14.511
26237W        W85773  20.616  19.575   2.868
26238W        W85774  39.346   2.249   0.309
26239W        W85775   1.328  21.231  11.092
26240W        W85776  23.157   9.754   1.789
26241W        W85777  43.785  24.643  11.449
26242W        W85778  40.538  20.116  10.520
26243W        W85779  42.484  16.309   1.327
26244W        W85780  42.455  22.726  13.846
26245W        W85781   2.895  39.013   0.944
26246W        W85782  27.648  21.624  12.962
26247W        W85783   4.349  43.285  14.876
26248W        W85784  43.341  38.531  12.403
26249W        W85785   0.435  34.970  10.641
26250W        W85786  10.285  28.041   2.394
26251W        W85787  42.494  32.506  10.597
26252W        W85788  32.117  18.736   5.147
26253W        W85789   9.871  18.757  10.438
26254W        W85790   2.312  25.982   3.265
26255W        W85791  20.191  33.036  13.798
26256W        W85792  34.432   9.238   2.402
26257W        W85793   1.380  33.468  11.989
26258W        W85794  15.620  30.476  14.363
26259W        W85795  35.479  20.679   2.886
26260W        W85796   8.770  27.675   1.700
26261W        W85797  41.358  32.948  10.406
26262W        W85798  18.760  20.523  10.959
26263W        W85799  20.137  23.679   5.135
26264W        W85800  19.584  40.928   3.828
26265W        W85801  23.009  39.991  13.010
26266W        W85802  17.229   4.260  14.492
26267W        W85803  14.216  24.219  12.020
26268W        W85804  23.025  24.594  14.803
26269W        W85805   8.749   2.234   1.287
26270W        W85806   1.424   5.689   1.802
26271W        W85807  16.178   3.920  14.875
26272W        W85808   4.283  13.270   0.861
26273W        W85809  33.919  19.058   2.672
26274W        W85810  23.098   7.753   3.747
26275W        W85811  33.943  43.450  13.947
26276W        W85812  40.808  31.573   0.278
26277W        W85813  38.876  39.893  11.504
26278W        W85814  17.576   2.450   0.939
26279W        W85815  15.665  17.683   0.477
26280W        W85816  20.266  42.941  13.041
26281W        W85817  43.856  42.384   1.326
26282W        W85818  26.655  32.029   1.415
26283W        W85819   0.983  10.350  14.953
26284W        W85820  36.499  12.313   0.944
26285W        W85821   2.909  17.728   1.866
26286W        W85822  25.134  26.509   2.184
26287W        W85823  28.974  31.914   2.852
26288W        W85824  16.567  40.384   3.371
26289W        W85825  16.111  10.837   2.882
26290W        W85826  11.164  40.010   3.851
26291W        W85827   1.378  21.516  10.446
26292W        W85828   5.808  40.411   4.697
26293W        W85829   9.852  11.864   2.193
26294W        W85830  21.557  25.517   3.680
26295W        W85831  30.941  38.412  11.933
26296W        W85832  24.012   7.677   2.871
26297W        W85833   8.672  22.544  12.959
26298W        W85834  31.969  10.164   1.349
26299W        W85835  36.980  13.720  11.943
26300W        W85836   5.915  38.352  13.036
26301W        W85837  31.404  16.136   4.271
26302W        W85838  35.004  42.373   2.803
26303W        W85839  44.432  19.581  11.391
26304W        W85840  22.178   9.853   4.605
26305W        W85841  23.668  15.228   4.243
26306W        W85842   9.249  11.754   1.777
26307W        W85843  26.543  22.009  11.402
26308W        W85844  38.360  28.676  11.396
26309W        W85845   1.377   6.312   4.168
26310W        W85846  31.032   8.347   1.362
26311W        W85847  38.012  35.897  11.598
26312W        W85848   0.449  36.842   3.752
26313W        W85849  12.346  22.192   1.856
26314W        W85850  23.239  19.550  12.857
26315W        W85851  26.618  40.829  12.564
26316W        W85852  40.306  15.272  11.525
26317W        W85853  23.229  35.863   2.850
26318W        W85854  39.345   0.960   3.239
26319W        W85855   5.227  16.147  11.121
26320W        W85856  23.198  23.616   0.389
26321W        W85857  18.545  39.538  11.445
26322W        W85858  25.077   6.900   2.874
26323W        W85859  41.400  23.181  13.507
26324W        W85860  30.516  28.531  13.492
26325W        W85861  18.136  20.596   2.204
26326W        W85862  29.635  23.576  10.482
26327W        W85863  22.009  24.495   4.808
26328W        W85864   9.213  17.066  11.958
26329W        W85865  32.474  12.298   1.922
26330W        W85866  24.064  20.630  13.849
26331W        W85867  26.664  40.018  13.959
26332W        W85868  42.313   1.851  10.453
26333W        W85869   8.842   4.383  14.822
26334W        W85870   2.903  27.973   2.790
26335W        W85871  16.635  16.659   3.731
26336W        W85872  22.674  12.163   2.412
26337W        W85873  17.214  21.018   2.388
26338W        W85874   8.360   0.965   1.335
26339W        W85875  30.429   9.330  12.008
26340W        W85876   3.813  42.981   2.381
26341W        W85877  41.363  21.146  12.557
26342W        W85878   1.368   0.320  13.515
26343W        W85879  32.954  27.975  13.969
26344W        W85880   4.434  44.914  11.024
26345W        W85881  37.388  23.494   2.193
26346W        W85882   1.850  19.779  14.379
26347W        W85883  30.102  24.221   1.763
26348W        W85884  30.509   9.671  12.366
26349W        W85885  15.273  18.567   3.186
26350W        W85886  11.666  14.680   4.729
26351W        W85887  30.923  38.027  14.815
26352W        W85888  26.555  17.688   2.796
26353W        W85889   4.330  28.577   4.720
26354W        W85890   9.811   6.776  10.975
26355W        W85891  11.631   8.723   0.805
26356W        W85892  17.165  10.277   2.342
26357W        W85893  20.621   3.220   3.681
26358W        W85894  43.451   9.232   2.212
26359W        W85895  42.906  23.209  10.586
26360W        W85896  22.070   5.866   0.813
26361W        W85897  35.904  38.955  11.610
26362W        W85898  11.346   7.400   1.872
26363W        W85899  40.472   2.919   1.362
26364W        W85900  28.526  10.296  11.084
26365W        W85901  40.527   1.963  11.010
26366W        W85902  40.876   4.276   1.216
26367W        W85903  44.831  31.533  10.437
26368W        W85904  24.169  14.144   5.269
26369W        W85905   3.918  17.124  10.448
26370W        W85906  25.110   8.826   2.846
26371W        W85907  30.106  33.470   1.783
26372W        W85908  27.621  17.727  11.473
26373W        W85909  11.719  26.959  12.529
26374W        W85910  43.326  11.307  13.346
26375W        W85911  17.070  30.652   0.765
26376W        W85912   1.861  41.889  10.996
26377W        W85913   8.402  40.505  12.562
26378W        W85914   3.381  10.355  10.473
26379W        W85915  36.384  36.394  13.019
26380W        W85916  39.411  41.932  14.356
26381W        W85917  33.897  43.987   4.271
26382W        W85918  18.163   5.390  13.437
26383W        W85919  42.313  33.042   0.453
26384W        W85920  17.222  21.652   4.113
26385W        W85921  10.740   4.933  13.961
26386W        W85922   4.708  21.568   3.315
26387W        W85923  23.153  27.959  11.978
26388W        W85924   7.874  44.833   2.734
26389W        W85925  43.831  30.425  14.953
26390W        W85926  26.030  23.176   1.851
26391W        W85927  32.908  37.468   3.832
26392W        W85928  12.682  25.595   1.316
26393W        W85929  12.233  21.055   2.352
26394W        W85930  21.236  42.934   9.947
26395W        W85931  32.981  37.557  11.480
26396W        W85932   9.644  10.741   3.849
26397W        W85933  10.645   1.318   2.747
26398W        W85934  29.476   5.717  12.467
26399W        W85935   6.759  38.912   4.684
26400W        W85936  24.539  10.874   4.605
26401W        W85937  43.431   6.801   0.763
26402W        W85938  15.322  24.637   2.888
26403W        W85939  36.472   0.420   0.290
26404W        W85940  26.655  17.106   1.835
26405W        W85941   1.416  16.682  13.408
26406W        W85942  14.712  21.229   1.776
26407W        W85943  15.647  32.917  10.609
26408W        W85944  27.973  23.497  13.929
26409W        W85945  36.057  22.155   1.890
26410W        W85946  19.565  12.191   3.314
26411W        W85947  37.578  41.907  13.844
26412W        W85948  15.630  20.270   5.312
26413W        W85949  20.265   2.281   3.249
26414W        W85950   5.909  23.618   2.876
26415W        W85951  22.023  31.000  11.932
26416W        W85952  44.472  34.507   4.743
26417W        W85953   4.699  30.449  11.372
26418W        W85954  43.901  43.412   1.781
26419W        W85955  12.289  27.118  13.437
26420W        W85956  29.638  27.115  12.039
26421W        W85957   2.907  32.503   1.839
26422W        W85958  30.465  14.798   5.314
26423W        W85959  37.971  15.683  14.775
26424W        W85960  20.705  11.773  11.562
26425W        W85961  35.092  36.468   4.252
26426W        W85962  26.095  32.007  10.950
26427W        W85963  36.089   3.351  13.898
26428W        W85964  44.412  28.507  11.863
26429W        W85965  29.930   0.819   3.646
26430W        W85966  13.144  11.695  12.540
26431W        W85967  42.326  43.952  10.587
26432W        W85968  34.864  31.444   2.674
26433W        W85969  16.175  43.455  13.851
26434W        W85970  20.076   9.168   4.612
26435W        W85971  18.612  11.735  11.425
26436W        W85972  39.487  25.985   4.177
26437W        W85973  40.506  17.656   1.741
26438W        W85974   0.784  26.498  14.492
26439W        W85975  36.570  44.442   2.841
26440W        W85976  27.187  24.568  10.936
26441W        W85977   0.962  34.044   4.154
26442W        W85978  23.540   3.279  12.022
26443W        W85979  17.632  40.841   0.906
26444W        W85980  37.533  27.606   4.607
26445W        W85981  11.215  42.814   3.702
26446W        W85982  27.992  37.481  12.472
26447W        W85983  13.757   4.709   2.270
26448W        W85984  21.728  35.871   3.665
26449W        W85985   7.807  36.943   1.424
26450W        W85986  13.145   2.252   3.809
26451W        W85987  16.252  35.420  14.397
26452W        W85988  35.080  29.133   3.183
26453W        W85989   9.849  43.427  12.085
26454W        W85990  17.119   2.806  11.599
26455W        W85991   0.318  34.918   3.764
26456W        W85992  21.048  37.012   4.821
26457W        W85993  25.154  33.392  11.602
26458W        W85994   4.923  13.330  11.403
26459W        W85995  36.590   5.350  11.927
26460W        W85996  18.564  27.075   3.218
26461W        W85997  17.261  19.090   0.735
26462W        W85998  22.555  16.206  12.041
26463W        W85999  29.430   9.880  14.392
26464W        W86000  24.118  31.598   3.354
26465W        W86001  19.765  37.964   9.946
26466W        W86002  14.610  12.358   1.265
26467W        W86003  28.500  29.051  10.601
26468W        W86004  10.716  11.315  14.842
26469W        W86005  31.091   1.893   2.727
26470W        W86006  17.653  21.095   5.090
26471W        W86007   2.435   1.784   1.317
26472W        W86008  34.878  38.852   3.193
26473W        W86009  34.507  27.478   0.776
26474W        W86010   0.844  38.910   1.306
26475W        W86011  38.951  29.500   4.326
26476W        W86012  13.617   8.181   1.778
26477W        W86013  23.707  37.514  14.301
26478W        W86014  30.165  31.458   0.352
26479W        W86015  31.059  25.098  13.932
26480W        W86016   3.842   1.342  14.861
26481W        W86017  13.150  29.545  11.090
26482W        W86018   6.251  27.185   3.334
26483W        W86019   8.732  10.171  12.023
26484W        W86020   9.292   9.668   9.601
26485W        W86021  30.136  10.379   2.719
26486W        W86022  32.614  27.486   1.725
26487W        W86023  15.276   2.328  11.376
26488W        W86024  44.810  41.492  14.926
26489W        W86025  26.091   4.424  14.510
26490W        W86026  25.167   4.224   0.895
26491W        W86027   3.299  35.978   1.831
26492W        W86028  44.356  29.111  13.408
26493W        W86029  11.361  13.654   4.131
26494W        W86030  38.542  37.963   1.305
26495W        W86031  17.704  34.876  10.440
26496W        W86032  39.957  31.971   3.254
26497W        W86033  21.566  27.481   2.381
26498W        W86034  42.013  17.732   1.223
26499W        W86035   2.280   7.271  12.452
26500W        W86036  33.430   4.442  12.398
26501W        W86037   4.305  18.676  14.335
26502W        W86038  31.916  41.465   3.241
26503W        W86039  34.477   6.398  11.471
26504W        W86040   3.321   7.752  11.479
26505W        W86041  37.883  24.647   4.623
26506W        W86042  42.488  11.712   1.905
26507W        W86043  21.115  13.629  13.920
26508W        W86044  36.956   4.724  10.614
26509W        W86045  27.504  34.613   3.719
26510W        W86046  12.125   9.812   5.109
26511W        W86047  33.448   2.339   1.224
26512W        W86048  23.151  34.406  12.471
26513W        W86049  37.387   1.435  14.484
26514W        W86050  25.549  29.670   3.727
26515W        W86051  18.752  11.783   4.180
26516W        W86052   6.836   6.793  12.087
26517W        W86053  43.453   6.321  10.986
26518W        W86054  44.378  42.020   5.180
26519W        W86055  23.533  29.083  13.310
26520W        W86056  20.688  31.470  14.349
26521W        W86057  37.565  32.972  13.898
26522W        W86058   4.233  32.055   4.300
26523W        W86059  34.066  36.477  13.834
26524W        W86060  36.991  44.335   3.208
26525W        W86061  38.537   7.719  13.352
26526W        W86062  29.620  20.191   3.699
26527W        W86063  34.536   3.284   4.352
26528W        W86064  12.823  33.538   1.243
26529W        W86065   3.328  38.035   2.852
26530W        W86066  13.128  28.980   3.238
26531W        W86067  19.278  11.654   2.824
26532W        W86068  18.779  42.829  14.293
26533W        W86069  27.553  35.405   0.759
26534W        W86070  11.686  19.739  12.847
26535W        W86071  37.884  43.425  12.877
26536W        W86072   0.856  34.974  10.515
26537W        W86073  28.139  12.294   2.670
26538W        W86074  40.917  20.717   0.316
26539W        W86075   6.275   7.706  14.288
26540W        W86076  13.646  21.201  11.103
26541W        W86077  41.357  38.053   1.432
26542W        W86078  26.488  37.045   5.739
26543W        W86079  31.564   9.156   3.691
26544W        W86080  38.880  15.754   1.932
26545W        W86081   7.857  44.884   4.648
26546W        W86082  14.641  25.076  10.888
26547W        W86083  25.159   7.330   0.833
26548W        W86084  39.918   8.393  11.598
26549W        W86085  37.949  15.584  12.865
26550W        W86086   4.799  30.068   4.819
26551W        W86087  32.517   5.243   2.220
26552W        W86088   0.472  13.765  12.038
26553W        W86089  18.645  39.054   0.325
26554W        W86090  41.816  36.382  10.930
26555W        W86091  10.745  10.650  14.310
26556W        W86092  44.266   6.311   1.238
26557W        W86093  14.805  23.232   2.305
26558W        W86094   1.955  14.790  12.476
26559W        W86095  39.852  16.133  13.871
26560W        W86096  15.112  23.666  14.409
26561W        W86097  26.959  24.125   0.458
26562W        W86098  43.792  39.019  13.971
26563W        W86099  21.156  11.209   0.837
26564W        W86100  44.389  34.870   4.762
26565W        W86101  19.153  25.210   0.350
26566W        W86102  11.630   6.818  13.038
26567W        W86103  35.394  31.646   4.313
26568W        W86104  15.220  15.584   2.675
26569W        W86105   2.777  23.650  11.010
26570W        W86106  27.131  13.315   1.309
26571W        W86107  36.027  36.047  12.432
26572W        W86108  41.828   8.237  11.984
26573W        W86109   7.796   9.321   4.728
26574W        W86110  37.022  24.603   3.318
26575W        W86111  30.438   5.391   1.928
26576W        W86112  42.823  29.469  13.407
26577W        W86113  24.181  40.416   4.277
26578W        W86114  15.754  13.294  11.394
26579W        W86115  31.993  35.575  13.367
26580W        W86116   2.808  14.314   1.290
26581W        W86117  36.465  25.099   1.215
26582W        W86118  15.277  21.728   5.606
26583W        W86119  19.627  37.391  10.981
26584W        W86120  26.118   0.922   1.824
26585W        W86121  28.017  21.261   4.351
26586W        W86122  40.016  26.482  14.452
26587W        W86123  22.720  14.214   4.716
26588W        W86124  18.277  20.161  10.930
26589W        W86125   2.723  12.855   3.841
26590W        W86126  16.275   2.226  14.998
26591W        W86127  11.202  10.239   0.796
26592W        W86128  11.727  21.622  14.298
26593W        W86129  33.053   4.789  13.835
26594W        W86130   4.439  28.968  14.300
26595W        W86131  16.770  40.474   3.759
26596W        W86132  25.973  44.298  11.891
26597W        W86133   5.806  20.247   2.735
26598W        W86134   2.843  41.900  14.435
26599W        W86135  13.130  18.692   3.802
26600W        W86136  28.624  14.141   2.362
26601W        W86137  43.806  42.472   4.632
26602W        W86138   6.228   7.202   3.198
26603W        W86139   4.715   1.915  12.930
26604W        W86140  33.083  10.729   4.735
26605W        W86141   2.749  32.610   2.790
26606W        W86142   5.313  10.174  14.801
26607W        W86143   7.406  19.581   1.806
26608W        W86144  39.549   7.185   0.954
26609W        W86145  27.509  32.028   0.454
26610W        W86146  15.713  14.662  14.330
26611W        W86147  16.798  34.011   3.664
26612W        W86148  26.197   4.427   2.207
26613W        W86149  24.544  31.492   2.319
26614W        W86150  18.288  38.913   2.897
26615W        W86151   9.754   1.764  10.533
26616W        W86152  15.635  41.982   4.750
26617W        W86153  42.404  21.530   0.369
26618W        W86154  33.910   5.402   0.459
26619W        W86155   1.241  13.762  11.497
26620W        W86156  27.152  20.572  14.951
26621W        W86157  17.777  23.650  12.957
26622W        W86158  35.474  10.810   4.193
26623W        W86159  35.474  22.040   1.730
26624W        W86160  44.263  21.091  12.501
26625W        W86161   1.850  35.441  11.493
26626W        W86162  11.181  17.299  11.872
26627W        W86163  32.887  10.809   2.337
26628W        W86164  19.102  24.520  13.315
26629W        W86165  15.705   1.306   0.887
26630W        W86166  27.954  27.526  13.031
26631W        W86167  38.928   6.284  14.981
26632W        W86168  44.366  38.922   4.327
26633W        W86169  44.876  24.011   0.364
26634W        W86170  12.822  26.006   0.414
26635W        W86171  18.201  16.270  12.024
26636W        W86172   6.427   6.402   0.330
26637W        W86173  42.840  33.602  13.317
26638W        W86174  22.634  38.563  14.851
26639W        W86175  37.079   4.935  11.905
26640W        W86176  23.712   2.331  10.468
26641W        W86177  42.384  26.176   3.247
26642W        W86178  21.149  28.982  12.422
26643W        W86179  32.547  25.633   3.813
26644W        W86180  20.075  30.641  13.920
26645W        W86181  17.241  42.408  11.885
26646W        W86182   5.267   9.313  13.352
26647W        W86183   2.915   6.702   3.714
26648W        W86184  14.220  39.450   4.214
26649W        W86185   4.302  24.699   1.281
26650W        W86186  24.684   4.249  14.892
26651W        W86187   7.410  40.925   3.784
26652W        W86188  17.570  10.660  10.614
26653W        W86189  16.724  39.472  14.993
26654W        W86190  22.229  35.552  12.895
26655W        W86191  11.355  27.084   9.559
26656W        W86192  14.815   6.910   0.756
26657W        W86193   2.931  41.872  14.771
26658W        W86194   6.910   5.802   1.848
26659W        W86195   9.792  15.757  14.435
26660W        W86196  32.506   4.409   3.638
26661W        W86197  33.051  12.707  11.043
26662W        W86198  35.392  14.271  10.434
26663W        W86199  26.666  32.535   2.303
26664W        W86200  14.801   0.349  10.550
26665W        W86201   1.959  19.157  14.473
26666W        W86202  33.388  32.450   0.438
26667W        W86203   9.871  23.145   2.822
26668W        W86204  29.502  24.166  12.824
26669W        W86205   7.807  20.248   4.204
26670W        W86206  24.536   6.233  13.444
26671W        W86207  26.056  26.488   4.789
26672W        W86208  23.129  13.716  14.293
26673W        W86209  18.253  31.452   3.643
26674W        W86210  17.617  41.884   3.860
26675W        W86211   7.693  25.147  11.977
26676W        W86212  42.411  13.347   3.655
26677W        W86213   7.817  16.758   0.426
26678W        W86214   6.739   1.396   2.413
26679W        W86215  19.662  14.183   1.885
26680W        W86216  23.498  13.261  10.588
26681W        W86217  22.648  22.163  14.342
26682W        W86218  43.787  30.605   0.278
26683W        W86219   6.295  42.833  13.541
26684W        W86220  40.536   3.401  11.555
26685W        W86221   3.352  31.558  13.936
26686W        W86222  23.070  29.139  11.902
26687W        W86223  18.759  21.683  14.836
26688W        W86224  31.914  32.097  14.355
26689W        W86225  34.461  15.762   0.466
26690W        W86226  38.536   7.269   3.797
26691W        W86227  15.232  34.925  10.623
26692W        W86228  23.694  36.006   2.752
26693W        W86229  24.675  27.970   3.160
26694W        W86230   2.854  19.207   1.343
26695W        W86231  29.444  35.044  14.019
26696W        W86232  39.539  39.921  11.488
26697W        W86233  12.707  16.075  11.107
26698W        W86234  22.095  13.145  12.978
26699W        W86235  44.963   8.188  13.887
26700W        W86236   3.795  11.656  14.438
26701W        W86237  17.692  33.024   2.344
26702W        W86238  28.668  15.211  10.428
26703W        W86239  10.642  15.695   2.284
26704W        W86240  25.976  19.660   1.441
26705W        W86241   6.232   9.320   1.327
26706W        W86242  40.459   8.746   3.324
26707W        W86243   7.830  20.119  11.461
26708W        W86244   2.781  23.235  12.408
26709W        W86245   0.472  36.063  14.945
26710W        W86246   5.921   7.752   2.819
26711W        W86247  34.893  37.085  10.409
26712W        W86248   1.280  34.895   4.272
26713W        W86249  28.150  35.898  12.353
26714W        W86250   1.461  32.624  14.823
26715W        W86251  27.488  13.199  11.507
26716W        W86252  39.066   6.890  12.938
26717W        W86253  21.037   2.283  12.863
26718W        W86254  23.161  16.783  13.943
26719W        W86255  20.707  15.791   0.319
26720W        W86256   5.379  24.206   4.239
26721W        W86257  28.009  38.958  14.278
26722W        W86258  16.631  25.649  10.988
26723W        W86259  25.147  26.658  11.550
26724W        W86260  38.825   7.228  14.768
26725W        W86261  44.349  16.786   4.602
26726W        W86262   4.342  43.418  13.061
26727W        W86263   9.752  17.686   1.315
26728W        W86264  21.037   4.900  13.842
26729W        W86265  22.715   5.280   2.854
26730W        W86266  43.019  38.553   1.888
26731W        W86267  26.098  31.141  14.866
26732W        W86268  29.004  30.103  14.957
26733W        W86269   6.373  44.848  11.988
26734W        W86270  17.073  26.053   4.291
26735W        W86271  24.115  42.404   3.170
26736W        W86272  10.721   5.789  10.993
26737W        W86273  30.952  40.846  12.493
26738W        W86274  30.417  16.162  11.424
26739W        W86275  35.098  24.110  13.332
26740W        W86276  11.307  18.088   4.238
26741W        W86277   4.780   1.285  14.303
26742W        W86278  34.386  33.005  14.334
26743W        W86279  34.574  18.626  14.471
26744W        W86280  17.182  38.994  13.483
26745W        W86281   4.813  30.413   1.388
26746W        W86282  40.483  28.013  10.501
26747W        W86283   4.431  36.591  10.962
26748W        W86284  31.059  38.904   0.334
26749W        W86285  36.929  19.122  11.027
26750W        W86286   1.803  31.152   3.749
26751W        W86287  10.158  17.144  11.442
26752W        W86288  14.306  42.390   2.759
26753W        W86289  17.636   1.746   4.174
26754W        W86290   2.885  12.359   2.732
26755W        W86291  29.493  25.687   1.737
26756W        W86292  12.334  16.190   3.630
26757W        W86293  20.535  44.327  12.082
26758W        W86294  25.600   0.881  13.459
26759W        W86295  28.114  16.652  13.501
26760W        W86296   7.887   8.369   2.855
26761W        W86297  36.477  22.687   1.822
26762W        W86298  37.535  41.914  13.381
26763W        W86299  32.061  29.051   3.756
26764W        W86300  24.672  32.562   2.764
26765W        W86301   4.725  37.434  13.016
26766W        W86302  16.626  11.635  10.428
26767W        W86303  36.954  26.097   4.352
26768W        W86304  26.546  15.712  14.480
26769W        W86305  34.894  14.715   4.806
26770W        W86306  17.676  41.347   2.403
26771W        W86307  13.158  41.025  12.557
26772W        W86308   5.861  29.493  13.339
26773W        W86309  43.278  41.019   3.679
26774W        W86310  18.087   4.246  11.390
26775W        W86311  21.575  22.522   4.288
26776W        W86312  26.016   3.237   3.364
26777W        W86313  22.569  10.639  13.373
26778W        W86314  16.769  33.047   0.309
26779W        W86315  41.421  14.256   0.885
26780W        W86316  42.014  43.974   1.768
26781W        W86317  12.294  24.695   4.812
26782W        W86318  19.207  35.000  13.837
26783W        W86319  29.427  41.960  11.070
26784W        W86320  20.201  44.889   1.406
26785W        W86321  25.178   4.926  14.764
26786W        W86322  21.107  30.953  13.495
26787W        W86323  12.334  14.664   0.803
26788W        W86324  12.146  10.351  11.540
26789W        W86325  20.119   9.161   3.742
26790W        W86326  34.437  20.680  12.481
26791W        W86327  41.908  37.918   2.405
26792W        W86328  10.678  40.535   1.332
26793W        W86329  35.381  43.443   2.395
26794W        W86330  34.018  36.449  14.414
26795W        W86331  24.494  14.766   4.286
26796W        W86332  29.082   6.328   0.834
26797W        W86333   8.864  41.884  11.613
26798W        W86334  18.094  21.038   4.337
26799W        W86335  14.755  24.539  10.540
26800W        W86336  42.369  32.495   0.442
26801W        W86337   5.870  33.893   0.278
26802W        W86338  39.406  35.422   3.773
26803W        W86339  24.111  42.471   1.906
26804W        W86340  20.559  42.785  12.845
26805W        W86341   7.292  35.974   4.194
26806W        W86342   5.254   7.305  14.995
26807W        W86343  30.135  27.124   1.225
26808W        W86344  35.478  22.613   2.360
26809W        W86345  36.364  27.156  11.438
26810W        W86346   9.154  11.265   1.408
26811W        W86347  22.219  35.103  11.385
26812W        W86348   6.917   2.271  10.984
26813W        W86349   7.223  28.985   1.254
26814W        W86350  35.027  30.452   5.260
26815W        W86351  22.166  25.608   3.778
26816W        W86352  12.759  22.185   0.411
26817W        W86353   8.655  24.015   4.178
26818W        W86354  31.491  13.773   2.261
26819W        W86355  12.358  32.016  10.584
26820W        W86356  18.717  38.938   0.860
26821W        W86357   7.709   6.202  13.028
26822W        W86358  18.064  34.385  11.856
26823W        W86359  37.366  38.331   4.752
26824W        W86360  17.073  37.843  11.484
26825W        W86361  16.077  38.537  10.912
26826W        W86362  38.885  31.969  13.006
26827W        W86363  23.546  25.160  12.945
26828W        W86364  12.726  34.890   0.850
26829W        W86365  40.455  44.817  10.911
26830W        W86366   4.901  14.155   3.671
26831W        W86367  40.800  33.457   2.834
26832W        W86368  23.224   5.841  14.457
26833W        W86369  32.574  16.747   1.934
26834W        W86370  36.855   1.274  12.444
26835W        W86371  22.532  15.718   3.697
26836W        W86372  31.438  33.540  14.333
26837W        W86373  12.343   8.830  11.998
26838W        W86374  17.652  41.310  11.913
26839W        W86375  23.215   3.263   5.732
26840W        W86376  13.130  22.026  12.540
26841W        W86377  16.795  32.077  11.591
26842W        W86378  39.821  37.854   3.260
26843W        W86379  31.528  41.480   3.357
26844W        W86380  39.942   6.717  13.512
26845W        W86381  14.832   1.749   5.084
26846W        W86382  43.273  16.782  12.553
26847W        W86383  28.999  42.426   1.234
26848W        W86384   2.824  30.127   4.206
26849W        W86385  24.141  32.412   1.819
26850W        W86386  43.316  38.861  11.006
26851W        W86387  15.295   9.239   2.678
26852W        W86388  39.912  35.867  10.918
26853W        W86389  43.406  33.878   0.937
26854W        W86390  27.178  33.907   2.798
26855W        W86391  17.653  16.311  10.458
26856W        W86392  34.537  44.408   9.985
26857W        W86393  14.329   0.785   0.873
26858W        W86394   2.450   8.772   4.186
26859W        W86395  29.554  41.394  12.030
26860W        W86396   1.800  28.113   2.233
26861W        W86397  44.299   4.794  10.608
26862W        W86398  28.090  43.919  12.949
26863W        W86399  31.488  44.867   3.275
26864W        W86400   9.167  11.167  11.877
26865W        W86401  25.542  27.512   4.289
26866W        W86402   6.359  19.061   1.809
26867W        W86403  17.266  29.500  13.048
26868W        W86404   4.375  28.075   0.754
26869W        W86405  36.570  42.830   3.861
26870W        W86406  17.272  36.897  12.409
26871W        W86407  44.305  28.502  13.396
26872W        W86408   1.838  41.987  14.429
26873W        W86409  29.516   2.907   3.836
26874W        W86410  25.620  40.452  14.469
26875W        W86411  38.477  21.122   1.896
26876W        W86412  14.227   4.943  13.030
26877W        W86413  43.881  44.918   1.748
26878W        W86414  41.331  13.110  13.023
26879W        W86415  18.177  38.885   4.337
26880W        W86416  40.901  39.455  12.347
26881W        W86417  15.629  31.990  11.033
26882W        W86418   2.760  32.080   5.224
26883W        W86419  23.587  26.478  13.838
26884W        W86420  17.795  25.032   3.663
26885W        W86421  39.339  13.250  14.488
26886W        W86422  35.530  30.591  11.085
26887W        W86423  36.918  26.520   2.381
26888W        W86424   2.802  42.325  10.422
26889W        W86425   9.269  29.998   4.665
26890W        W86426   3.456  30.058   1.934
26891W        W86427  17.136   1.287  11.041
26892W        W86428  22.086  38.978   4.284
26893W        W86429  36.412  11.623   4.601
26894W        W86430  36.506  26.020   4.268
26895W        W86431  22.648   2.751  11.968
26896W        W86432  17.249  16.686  11.520
26897W        W86433  39.376  20.203  14.489
26898W        W86434  39.396  42.492   1.287
26899W        W86435  40.435  22.244   1.340
26900W        W86436  25.703  37.832   1.380
26901W        W86437  32.546  33.093   3.854
26902W        W86438   1.290  41.485   4.254
26903W        W86439  26.636   9.303  11.881
26904W        W86440  22.177  32.985   0.933
26905W        W86441  22.616  28.099   2.722
26906W        W86442   7.328  26.206   0.278
26907W        W86443   2.770  35.514  10.547
26908W        W86444  24.518  27.024   1.880
26909W        W86445  35.094  20.092   0.847
26910W        W86446  26.991   4.345   4.351
26911W        W86447   3.400  27.102   3.238
26912W        W86448  33.554   7.393  10.136
26913W        W86449   9.671  42.400  13.383
26914W        W86450  42.524  17.174  11.995
26915W        W86451  20.177   5.219  11.058
26916W        W86452  10.191  22.213   0.389
26917W        W86453  14.287  14.221  12.373
26918W        W86454  15.621  22.134  14.857
26919W        W86455  10.703  20.609  12.927
26920W        W86456  22.516   1.737  10.432
26921W        W86457  24.649  35.082   3.741
26922W        W86458  31.638  36.090  14.440
26923W        W86459  40.466  32.120   4.659
26924W        W86460  19.715   5.828  12.057
26925W        W86461  16.274  14.711  10.613
26926W        W86462  23.653   3.813  12.955
26927W        W86463   2.319  16.087  12.536
26928W        W86464  19.246  26.116   1.357
26929W        W86465  36.406   7.212  12.041
26930W        W86466  32.408  14.271   1.782
26931W        W86467  32.129  18.053   1.842
26932W        W86468  16.728  33.451   4.660
26933W        W86469  13.151  24.188  12.344
26934W        W86470   3.935  33.603  10.518
26935W        W86471  31.915  10.192   3.242
26936W        W86472  10.229  40.471  13.470
26937W        W86473  18.131  39.414  13.003
26938W        W86474  27.150  14.266  11.471
26939W        W86475  16.753  15.771   3.678
26940W        W86476  32.924  14.773  11.040
26941W        W86477   2.760  11.655   4.329
26942W        W86478  44.851  37.417  10.105
26943W        W86479  27.181  44.491  14.448
26944W        W86480  41.831  31.965  14.293
26945W        W86481   5.297  33.625  14.469
26946W        W86482  13.236  44.326  12.086
26947W        W86483   3.883  27.147   4.210
26948W        W86484  35.085  40.457  14.008
26949W        W86485  20.570   3.883   0.916
26950W        W86486   5.712  28.968   4.703
26951W        W86487  20.645   1.909  10.574
26952W        W86488  39.027  38.065   4.632
26953W        W86489  44.932  15.824  11.117
26954W        W86490   9.311  15.143   1.748
26955W        W86491  26.579  22.028  12.348
26956W        W86492   4.819  38.469   0.841
26957W        W86493  33.464  10.252  13.932
26958W        W86494  25.006   1.731  14.387
26959W        W86495  29.649  28.146  11.068
26960W        W86496  25.618  32.582  10.553
26961W        W86497  43.402  32.056  10.925
26962W        W86498  32.574   3.779   4.306
26963W        W86499  42.352  26.165  11.497
26964W        W86500   8.669  30.444  13.498
26965W        W86501  10.325  25.206   3.319
26966W        W86502  15.089  16.236  14.777
26967W        W86503  12.322  39.322   4.268
26968W        W86504   8.772   5.846   0.266
26969W        W86505  36.855  13.208   4.758
26970W        W86506   3.730  33.879   0.743
26971W        W86507  30.148  32.579  12.500
26972W        W86508  18.716  44.990  12.341
26973W        W86509  29.667  31.012  11.523
26974W        W86510  28.117  35.532   2.197
26975W        W86511  28.643  13.830   0.301
26976W        W86512  28.645  31.417  11.958
26977W        W86513  35.427   7.743   0.359
26978W        W86514  28.077   0.890   1.299
26979W        W86515   1.476  37.010   0.474
26980W        W86516  41.402  25.069   4.779
26981W        W86517  16.106  21.689  13.839
26982W        W86518   6.228   9.749   0.886
26983W        W86519  36.501  38.403  10.643
26984W        W86520  14.711  10.243   4.641
26985W        W86521  18.087   0.843  13.413
26986W        W86522   0.757  17.072   0.421
26987W        W86523   6.738  16.711  13.045
26988W        W86524  28.581   8.230  14.784
26989W        W86525  29.174  19.775   2.246
26990W        W86526  30.534   6.375   3.295
26991W        W86527   0.905  42.348   2.730
26992W        W86528  26.142  42.821  11.944
26993W        W86529   2.767  35.083  11.109
26994W        W86530  29.659  12.625   4.216
26995W        W86531  25.131  18.556   3.332
26996W        W86532  17.726  33.047  14.894
26997W        W86533  21.190   5.860  12.085
26998W        W86534  25.033   9.654   0.316
26999W        W86535  35.509   2.304   3.235
27000W        W86536   2.270  17.728  10.571
27001W        W86537  39.520   0.260  12.882
27002W        W86538   9.837  34.987  13.905
27003W        W86539  41.331  42.498   4.259
27004W        W86540   8.853  13.132  10.957
27005W        W86541   8.723   1.965  11.603
27006W        W86542  30.560  27.976   3.837
27007W        W86543   8.270  33.018  13.929
27008W        W86544  10.757  31.939   0.478
27009W        W86545  21.187  22.686   0.472
27010W        W86546  34.579  17.206  13.901
27011W        W86547   5.835  11.676   0.882
27012W        W86548  43.358  31.506   3.728
27013W        W86549  34.606  14.606  12.472
27014W        W86550  29.536  16.183   4.238
27015W        W86551  28.548  34.971  13.892
27016W        W86552  28.476  18.746  12.961
27017W        W86553   2.766  40.969  13.458
27018W        W86554  29.462   1.903  11.480
27019W        W86555  22.649  11.762  11.444
27020W        W86556   2.788  15.319  13.806
27021W        W86557  18.093  15.149  12.085
27022W        W86558  44.275   0.457   2.838
27023W        W86559  33.052   2.885   2.205
27024W        W86560  26.034  25.642  14.806
27025W        W86561  30.627  28.012  14.890
27026W        W86562  39.425   4.314  12.468
27027W        W86563  27.584  43.807  11.451
27028W        W86564  11.302  35.450  11.116
27029W        W86565  11.152  22.144  11.085
27030W        W86566  36.864  18.751  11.475
27031W        W86567  35.073  38.864  11.943
27032W        W86568  10.646  24.974   2.348
27033W        W86569  33.432  20.075   0.466
27034W        W86570  30.137  14.104   1.911
27035W        W86571   3.722  31.953  14.907
27036W        W86572  26.158  19.731   4.753
27037W        W86573  40.000  19.188  11.981
27038W        W86574  26.026   4.905   4.754
27039W        W86575  30.428   0.402  10.953
27040W        W86576   1.741  30.115  12.881
27041W        W86577  20.053  21.162  12.477
27042W        W86578   1.369  38.041   0.419
27043W        W86579  17.229  39.964   4.138
27044W        W86580  26.090  10.699   0.382
27045W        W86581  31.140  17.285   4.624
27046W        W86582  33.586  28.157  11.934
27047W        W86583  20.251   6.780   0.922
27048W        W86584  29.552  35.884   1.407
27049W        W86585  43.012  27.557  12.452
27050W        W86586  22.598  11.775  13.889
27051W        W86587  21.203  36.925   0.476
27052W        W86588  13.743   8.191  10.590
27053W        W86589  10.147  11.140   2.209
27054W        W86590  42.413  43.505  14.460
27055W        W86591  26.566   9.691   2.790
27056W        W86592  41.341  41.840   0.283
27057W        W86593  12.281  33.122   3.158
27058W        W86594  31.036   3.716   3.675
27059W        W86595  20.631  25.997   0.795
27060W        W86596  27.032  11.135  12.890
27061W        W86597  11.720  29.567  14.856
27062W        W86598   7.909   2.229  14.988
27063W        W86599  33.599   2.376   5.234
27064W        W86600  28.966  17.270   2.777
27065W        W86601  25.656  10.248  13.815
27066W        W86602  29.625   7.306  11.915
27067W        W86603   5.895  41.018   4.298
27068W        W86604  14.111   4.922   1.888
27069W        W86605  20.599  30.921   2.275
27070W        W86606  30.629   9.697  14.481
27071W        W86607  30.578  15.779  11.425
27072W        W86608   5.811  37.406   0.951
27073W        W86609  11.633  10.642  11.388
27074W        W86610  39.359  44.910   2.865
27075W        W86611  28.555  36.885  14.885
27076W        W86612  17.152   8.812  14.862
27077W        W86613  28.944   1.297   0.771
27078W        W86614  20.657  41.947  13.354
27079W        W86615  12.670  29.556  14.909
27080W        W86616  16.752  10.137   2.304
27081W        W86617  44.810  30.417   3.679
27082W        W86618  41.798  19.555  11.541
27083W        W86619   7.250   5.406  12.437
27084W        W86620  44.274  34.507   0.461
27085W        W86621  43.435   5.865   3.685
27086W        W86622   3.941  13.802   3.324
27087W        W86623  19.626  11.755   1.255
27088W        W86624  28.977  28.072   4.129
27089W        W86625   8.182   8.810   5.191
27090W        W86626  36.077  21.029  11.990
27091W        W86627  11.135  11.852   3.782
27092W        W86628   8.384   4.413   3.739
27093W        W86629  12.171  28.097   4.647
27094W        W86630  37.835  12.116  13.998
27095W        W86631  19.702  33.990  13.541
27096W        W86632  14.711  12.677   4.698
27097W        W86633  20.057  41.833   3.645
27098W        W86634   2.365   1.290  12.373
27099W        W86635   7.749  21.714   1.754
27100W        W86636  12.225   0.802  12.053
27101W        W86637  36.079  40.431  11.890
27102W        W86638  22.197  33.063  10.412
27103W        W86639  42.021  30.611   1.306
27104W        W86640   0.452  36.436   0.905
27105W        W86641  19.535  29.640  13.020
27106W        W86642  11.814  18.238   0.757
27107W        W86643  38.558   5.870   3.372
27108W        W86644  40.307  31.063   0.245
27109W        W86645  24.052  21.066  13.892
27110W        W86646   4.338  31.094  12.017
27111W        W86647  33.394  38.440  11.947
27112W        W86648  26.079  30.542  13.433
27113W        W86649  27.950  30.642  11.880
27114W        W86650  27.663  39.321   4.222
27115W        W86651   1.443  41.387   3.151
27116W        W86652  19.770  44.958   0.366
27117W        W86653  41.011  32.565  12.827
27118W        W86654  25.527   0.415  13.883
27119W        W86655  33.039  41.325   4.680
27120W        W86656  34.103   8.402  10.502
27121W        W86657   3.250  42.006   3.357
27122W        W86658  30.958  22.245   2.360
27123W        W86659  10.708  14.145  10.420
27124W        W86660  38.385   4.912  13.468
27125W        W86661   1.766  23.083   2.259
27126W        W86662  24.178  17.699   0.730
27127W        W86663  28.651  32.417   4.760
27128W        W86664  44.768  28.461   3.354
27129W        W86665  36.409  16.255  12.033
27130W        W86666  28.130   1.477   4.117
27131W        W86667  10.643  27.543  14.987
27132W        W86668   7.675  44.399  12.007
27133W        W86669  26.202  31.105   0.754
27134W        W86670  16.606   9.233   3.704
27135W        W86671  11.848   4.416  12.912
27136W        W86672   0.886   3.955   0.287
27137W        W86673  19.043   8.162   0.477
27138W        W86674  21.147   3.246   0.276
27139W        W86675  41.942  35.997   2.314
27140W        W86676  27.455   9.704   0.350
27141W        W86677  38.419  27.482   0.883
27142W        W86678  30.955   9.257   1.436
27143W        W86679  10.830  25.539  13.009
27144W        W86680   2.767  30.501   2.851
27145W        W86681  19.258  35.861   2.357
27146W        W86682  41.441  43.820   4.315
27147W        W86683  39.901   5.760  13.963
27148W        W86684  29.558  26.668  14.288
27149W        W86685  41.351  38.361  11.013
27150W        W86686  32.939  10.723  10.969
27151W        W86687   3.874  29.028  13.016
27152W        W86688  29.088  30.048   0.854
27153W        W86689  30.095  39.028  10.576
27154W        W86690  22.542  23.521  11.116
27155W        W86691  19.587   3.459   0.766
27156W        W86692  41.816  25.016   2.890
27157W        W86693  39.431  10.860  13.995
27158W        W86694  14.590  30.647  11.373
27159W        W86695  44.909   3.777   2.406
27160W        W86696  11.156   1.862   2.720
27161W        W86697   1.410   6.914  11.423
27162W        W86698  42.516  18.602  12.539
27163W        W86699  22.110   1.850   5.750
27164W        W86700  17.241  17.581   4.123
27165W        W86701  26.605  18.167   0.868
27166W        W86702  20.106  13.230  12.395
27167W        W86703   1.263   5.256   4.294
27168W        W86704   3.257   8.842  11.579
27169W        W86705  20.242  17.240   3.740
27170W        W86706   8.374   1.903   2.681
27171W        W86707  16.706  35.362  13.009
27172W        W86708   9.702  44.987  10.478
27173W        W86709  15.144   3.882  12.512
27174W        W86710  33.579  24.073   2.396
27175W        W86711  19.202  21.561  12.898
27176W        W86712  40.926  39.325  10.938
27177W        W86713  25.982   5.265  10.639
27178W        W86714  37.044  24.214  12.498
27179W        W86715  41.928   2.440  13.830
27180W        W86716   1.335  42.444  14.364
27181W        W86717   4.784   2.463   1.866
27182W        W86718  17.114   3.324   3.303
27183W        W86719  40.903  19.553  10.460
27184W        W86720  41.010  33.963  11.395
27185W        W86721  28.566  16.764  13.854
27186W        W86722  31.540  12.254  13.860
27187W        W86723   8.741  16.586  11.577
27188W        W86724  36.414  18.721   3.317
27189W        W86725  25.216  29.948  14.865
27190W        W86726  19.267   1.406   1.721
27191W        W86727  27.992  43.359   2.728
27192W        W86728  12.290  41.015   3.201
27193W        W86729  31.470  16.265  14.334
27194W        W86730  22.217  37.353   1.290
27195W        W86731  11.740  26.636   2.397
27196W        W86732  42.489  21.718   3.657
27197W        W86733  21.625   8.311   9.996
27198W        W86734  11.214  40.375  11.569
27199W        W86735  24.549   9.388  10.539
27200W        W86736  22.177   3.426  11.558
27201W        W86737   9.211   3.892  13.922
27202W        W86738   1.391   6.896   0.859
27203W        W86739  39.046   9.842  12.942
27204W        W86740  33.602  10.878   0.334
27205W        W86741  36.460  43.994  12.405
27206W        W86742  33.398  32.931   2.781
27207W        W86743  42.406  19.246   0.871
27208W        W86744  28.438   1.331   2.185
27209W        W86745  20.108  24.053   1.715
27210W        W86746   4.325   3.897   4.174
27211W        W86747   6.201  33.980   0.877
27212W        W86748   5.413  18.074  11.443
27213W        W86749  41.400  26.605   4.748
27214W        W86750  43.493  22.522   1.704
27215W        W86751  25.657  11.191   1.397
27216W        W86752  24.585  40.010   1.885
27217W        W86753   2.354  41.409  14.361
27218W        W86754   1.365  40.833   1.311
27219W        W86755  39.926  26.467   2.860
27220W        W86756   5.905  17.243   2.264
27221W        W86757  38.001  32.133  11.952
27222W        W86758  14.716  14.811   2.311
27223W        W86759  41.941  16.592   0.867
27224W        W86760  10.803  36.522  11.867
27225W        W86761  24.161  11.703   2.415
27226W        W86762   9.314  36.544   1.228
27227W        W86763  16.192  35.075   3.263
27228W        W86764  35.901  32.066  11.525
27229W        W86765  38.856  30.929   2.270
27230W        W86766  20.719   2.869  12.836
27231W        W86767  39.551  22.038  10.617
27232W        W86768  29.101  19.111   3.797
27233W        W86769  39.911   9.655  10.565
27234W        W86770  27.054  16.095  10.982
27235W        W86771  21.027  22.021   3.282
27236W        W86772  27.477   6.253  12.416
27237W        W86773   5.923  28.960   2.866
27238W        W86774  37.450  12.178   2.761
27239W        W86775  35.995  44.760  11.893
27240W        W86776  10.201  12.181  11.079
27241W        W86777  42.001  12.841   9.980
27242W        W86778  10.701   4.778  11.389
27243W        W86779  34.602   9.318  12.571
27244W        W86780  40.861   1.397  11.492
27245W        W86781  22.109  14.093  12.902
27246W        W86782  43.823   4.711  12.920
27247W        W86783   2.805  11.268   9.649
27248W        W86784  21.662   1.867   0.476
27249W        W86785   2.785   9.159  11.399
27250W        W86786  43.348   0.269   1.259
27251W        W86787  25.505  42.826  13.945
27252W        W86788  43.361  13.116   4.812
27253W        W86789  12.291  33.504   1.797
27254W        W86790  44.439   6.229   0.475
27255W        W86791  36.875  40.413   3.372
27256W        W86792  41.293  44.484   2.251
27257W        W86793  33.597  32.508  12.553
27258W        W86794   5.888  11.142  14.964
27259W        W86795  38.045  12.237   2.823
27260W        W86796   1.371  33.948  10.611
27261W        W86797  11.167  15.243   4.708
27262W        W86798  16.722  11.650  13.384
27263W        W86799  22.094   0.468  14.287
27264W        W86800  22.180  12.263  14.481
27265W        W86801  31.420   0.261  12.573
27266W        W86802  33.480   0.331   0.906
27267W        W86803  28.047  33.607  11.071
27268W        W86804  31.957  12.202  10.448
27269W        W86805  20.127  29.149   4.724
27270W        W86806  43.271  37.344  12.574
27271W        W86807  24.989  37.556   2.685
27272W        W86808  11.286   2.270  11.928
27273W        W86809   7.377  44.373   4.735
27274W        W86810  44.422  21.672  10.418
27275W        W86811  27.032  24.496   3.773
27276W        W86812  13.162   0.342   2.285
27277W        W86813  12.818  18.177   3.825
27278W        W86814  25.612   8.252  12.528
27279W        W86815  21.707  27.001  11.002
27280W        W86816  16.627  13.844  13.514
27281W        W86817  17.629  42.394  14.293
27282W        W86818   7.898  18.691   0.850
27283W        W86819  27.950  24.595   0.392
27284W        W86820  24.603  20.582   3.359
27285W        W86821   5.427  37.943   4.211
27286W        W86822  44.288  39.352  11.880
27287W        W86823  12.158  30.019  12.402
27288W        W86824   8.901  18.580  14.489
27289W        W86825  11.774  33.983   3.302
27290W        W86826  42.321   8.399   0.247
27291W        W86827   6.364  34.588  14.438
27292W        W86828   3.348   3.377   0.249
27293W        W86829  38.873   4.863  10.477
27294W        W86830  15.089  14.277  14.980
27295W        W86831  25.520  19.151   1.366
27296W        W86832  14.302  31.132  12.341
27297W        W86833  22.023  30.453   4.833
27298W        W86834  31.589  31.136  14.811
27299W        W86835  25.652  41.830   1.774
27300W        W86836  19.592  35.602   5.092
27301W        W86837   9.850   0.892  10.441
27302W        W86838  44.811  19.638   4.288
27303W        W86839   0.398  17.742  12.503
27304W        W86840  15.600  35.437  13.951
27305W        W86841   5.694  24.119   3.869
27306W        W86842   0.428   1.951  14.326
27307W        W86843  39.036  30.984   3.159
27308W        W86844  13.148  22.155  13.901
27309W        W86845  26.135  15.292   1.779
27310W        W86846  18.712  30.984   4.257
27311W        W86847  33.467  35.911   0.888
27312W        W86848  24.098  42.781  14.821
27313W        W86849   8.268  33.457   0.297
27314W        W86850  35.587  25.161  11.124
27315W        W86851  11.225  38.934  13.995
27316W        W86852   8.317  17.295   3.738
27317W        W86853  41.502  41.043  13.332
27318W        W86854  33.130  11.774   3.725
27319W        W86855   6.370  17.263  10.908
27320W        W86856  13.111  14.158  12.078
27321W        W86857   7.891  12.643  13.876
27322W        W86858   6.191  10.755  12.865
27323W        W86859  12.625  21.207   4.314
27324W        W86860  12.798  13.719  14.973
27325W        W86861  29.426  11.334   4.784
27326W        W86862  32.121   0.415  11.052
27327W        W86863   4.845  28.596   2.765
27328W        W86864  17.759  14.152  13.907
27329W        W86865  19.257  40.407  12.948
27330W        W86866  37.928  37.344  14.009
27331W        W86867  20.529   3.723  12.055
27332W        W86868  30.092  29.137  14.787
27333W        W86869  31.942  42.804   4.352
27334W        W86870  25.001  15.143   3.864
27335W        W86871   5.767   1.887   2.849
27336W        W86872  12.341  16.278   0.923
27337W        W86873  35.429  29.100   3.817
27338W        W86874   1.270  23.004   3.832
27339W        W86875  14.719  24.097  10.545
27340W        W86876  22.199  10.220   3.362
27341W        W86877  35.437  40.316  13.842
27342W        W86878   4.384  15.580  12.879
27343W        W86879  35.521  12.795   4.205
27344W        W86880  15.193   8.732  12.077
27345W        W86881  33.906  39.513  11.057
27346W        W86882  11.250  34.444  13.839
27347W        W86883  11.857  15.685  14.850
27348W        W86884  32.098  39.431  14.868
27349W        W86885  10.676   0.424  11.047
27350W        W86886   9.833  16.618  12.874
27351W        W86887  29.638   5.910   0.250
27352W        W86888  40.333  24.601   1.237
27353W        W86889   8.254  17.073  12.925
27354W        W86890  33.472  17.707   0.471
27355W        W86891  41.299  17.194   3.795
27356W        W86892  20.202  42.430   2.677
27357W        W86893  10.806  26.697   0.346
27358W        W86894  16.773  35.523   4.268
27359W        W86895  13.184  38.481  12.937
27360W        W86896  22.678  34.062  10.069
27361W        W86897  27.982   3.834  14.011
27362W        W86898  13.746  27.686   3.716
27363W        W86899  43.395  40.464   1.214
27364W        W86900   3.320  27.150   4.311
27365W        W86901  16.303  22.609   2.268
27366W        W86902   8.795  31.634  12.051
27367W        W86903  35.402   4.432  13.359
27368W        W86904  37.473   9.777   1.717
27369W        W86905  41.310  18.251   1.856
27370W        W86906  12.643  16.299   0.289
27371W        W86907  21.208  30.037   0.451
27372W        W86908  39.875  29.050   2.711
27373W        W86909  17.208  40.427   0.278
27374W        W86910   4.751   4.915  12.948
27375W        W86911  13.225  35.362   2.350
27376W        W86912  28.137  39.032   4.338
27377W        W86913  32.090  33.908   4.352
27378W        W86914  23.125  40.864  14.406
27379W        W86915  35.009  34.001  14.015
27380W        W86916  33.942  40.904   0.843
27381W        W86917  25.590  23.508   4.219
27382W        W86918  41.322  19.715   2.878
27383W        W86919   8.784  44.487  12.842
27384W        W86920  20.718  24.175  13.854
27385W        W86921  37.860  34.543  14.414
27386W        W86922  38.380  43.814   9.598
27387W        W86923  29.550  21.621   2.363
27388W        W86924  31.446  22.251   5.247
27389W        W86925  28.491   7.741   2.240
27390W        W86926  21.236  41.836  11.969
27391W        W86927  44.476  22.580   1.434
27392W        W86928  11.147  42.327  12.342
27393W        W86929   8.352  17.766  11.972
27394W        W86930  16.735  21.230   5.250
27395W        W86931  34.503   1.918   1.809
27396W        W86932  11.810  23.575   1.298
27397W        W86933  31.985  15.787   5.187
27398W        W86934  16.788  27.105  11.869
27399W        W86935   7.868  14.212   5.160
27400W        W86936   9.363  17.264   3.257
27401W        W86937  15.800  22.024  14.290
27402W        W86938  26.590  39.481   0.403
27403W        W86939   2.956  15.778  12.966
27404W        W86940   0.936   4.886  11.535
27405W        W86941  30.581  43.516   1.834
27406W        W86942   5.846  35.039  14.814
27407W        W86943  40.425  20.592  10.625
27408W        W86944  32.080  26.038  12.956
27409W        W86945  19.721   1.835  13.060
27410W        W86946  11.330  24.002  13.851
27411W        W86947  33.973   4.282  10.625
27412W        W86948   4.406  29.423   2.187
27413W        W86949  17.091  37.355   2.734
27414W        W86950   0.907  35.417  12.555
27415W        W86951  21.190  35.047   5.250
27416W        W86952  15.627   4.278   3.327
27417W        W86953  22.537  37.420  12.828
27418W        W86954  18.764  44.978  11.498
27419W        W86955  12.131  21.701  11.502
27420W        W86956   2.241  30.057  14.413
27421W        W86957  10.206  26.149   1.870
27422W        W86958  17.740   3.818  14.411
27423W        W86959  29.004  26.697  14.394
27424W        W86960  18.236   6.804   3.213
27425W        W86961  27.001  26.012  12.052
27426W        W86962  42.966  14.135   2.703
27427W        W86963  34.572   3.809  12.978
27428W        W86964   2.937  24.491   2.247
27429W        W86965  26.701  16.241   0.929
27430W        W86966  29.577  30.424   2.790
27431W        W86967  32.134  41.812   4.815
27432W        W86968   8.719  30.015   3.326
27433W        W86969  19.139  26.117   4.667
27434W        W86970  24.530  12.248   0.436
27435W        W86971  22.554  42.428  14.845
27436W        W86972  33.390  20.180   3.727
27437W        W86973   0.810   4.240  11.611
27438W        W86974  18.659  20.734  14.864
27439W        W86975  18.122  15.140   0.472
27440W        W86976  20.074   7.857   2.328
27441W        W86977  15.254  11.355  13.889
27442W        W86978   5.826   7.298   1.267
27443W        W86979  19.738  34.483  13.022
27444W        W86980  25.000  39.909  11.909
27445W        W86981  21.215  36.518   5.609
27446W        W86982  37.831  23.218  11.571
27447W        W86983  39.932  17.233  13.791
27448W        W86984  28.675  29.968  14.941
27449W        W86985   0.363  11.749   0.442
27450W        W86986  14.283  28.960   3.748
27451W        W86987  21.221  24.579   3.311
27452W        W86988  21.140  22.502  14.368
27453W        W86989  15.608  28.983  11.534
27454W        W86990  40.001  24.226   4.827
27455W        W86991  26.702  18.689  13.037
27456W        W86992  36.864  10.677  12.007
27457W        W86993  20.163  19.732   3.207
27458W        W86994  15.707  19.094  11.500
27459W        W86995  24.648  21.547  12.948
27460W        W86996  32.492  12.703  12.960
27461W        W86997  38.421  13.647  12.575
27462W        W86998  33.955  41.926  10.450
27463W        W86999  27.049  33.884   0.861
27464W        W87000  32.469  21.634   2.692
27465W        W87001  20.623  27.129  14.382
27466W        W87002  11.276   7.672   1.234
27467W        W87003  25.546   4.910   2.760
27468W        W87004   2.724  40.320  12.529
27469W        W87005  18.582   9.364  11.041
27470W        W87006  43.887   5.203   4.213
27471W        W87007  26.693  12.337   4.273
27472W        W87008  10.163  30.952  13.804
27473W        W87009  22.119  34.984   3.679
27474W        W87010  13.751  16.076   0.960
27475W        W87011   9.727  23.002   5.167
27476W        W87012  34.614   9.889   0.262
27477W        W87013  28.569  12.695  11.041
27478W        W87014   0.809  13.210  12.901
27479W        W87015  10.691  41.986   3.767
27480W        W87016  36.003  41.470   4.695
27481W        W87017  33.964  25.545  14.397
27482W        W87018   8.753   3.804  11.591
27483W        W87019  23.016  18.577   1.856
27484W        W87020  42.455  12.311   1.394
27485W        W87021   9.376  34.598   4.126
27486W        W87022  32.036  31.510   0.823
27487W        W87023  15.189  42.826  12.978
27488W        W87024  38.426  19.673  14.795
27489W        W87025  32.450  32.891  11.557
27490W        W87026  17.778  23.636   2.741
27491W        W87027  34.467  43.403  13.324
27492W        W87028  11.689   1.919   1.411
27493W        W87029  34.982  12.320  14.022
27494W        W87030  28.524  22.111   0.912
27495W        W87031  29.512   9.770  14.851
27496W        W87032  27.458   8.714  11.974
27497W        W87033  39.528  35.473  11.612
27498W        W87034  43.966   0.369  11.112
27499W        W87035   2.429  40.018  11.441
27500W        W87036  34.487  35.006  12.451
27501W        W87037   5.852  36.534  13.329
27502W        W87038   0.331  24.562   5.194
27503W        W87039  14.114  43.445   2.250
27504W        W87040   7.220  10.168   1.293
27505W        W87041  26.657  25.524  12.512
27506W        W87042  43.008  22.225   2.749
27507W        W87043  18.121   5.208  10.978
27508W        W87044   2.414  22.586   5.264
27509W        W87045  41.830  38.450  12.407
27510W        W87046  34.397  33.945  14.835
27511W        W87047  24.160  11.749   4.308
27512W        W87048   6.307  38.452  11.990
27513W        W87049  33.012   6.885   2.805
27514W        W87050  39.018  31.098  11.973
27515W        W87051   7.227  33.925  12.902
27516W        W87052  16.677  39.048  12.455
27517W        W87053   2.405  18.638   0.257
27518W        W87054  21.624  19.102   4.722
27519W        W87055   9.774  24.221  10.990
27520W        W87056  18.273  37.523   0.450
27521W        W87057   1.846  38.976  14.828
27522W        W87058   8.899  28.090  10.498
27523W        W87059  13.143   1.463  11.994
27524W        W87060  10.209   5.356   0.919
27525W        W87061  21.749  44.453  12.940
27526W        W87062  14.777  17.085  13.850
27527W        W87063  29.968  33.503   2.792
27528W        W87064  24.629  24.000   4.307
27529W        W87065  20.162  15.712  11.427
27530W        W87066  35.485  23.565  11.867
27531W        W87067   7.770  13.819  13.916
27532W        W87068   0.304  12.281  11.040
27533W        W87069   4.301  39.373   0.887
27534W        W87070  36.050   9.177  13.459
27535W        W87071  40.925  17.675   0.463
27536W        W87072  17.624  24.202   2.669
27537W        W87073   1.885  31.154  14.346
27538W        W87074   5.846   0.850   2.233
27539W        W87075  28.952  11.272  14.950
27540W        W87076   3.424   4.244   1.733
27541W        W87077  38.885  27.194  13.427
27542W        W87078  40.459  13.615  13.862
27543W        W87079  11.330   7.257   3.706
27544W        W87080   5.845  27.633  13.391
27545W        W87081  24.487  37.433   3.246
27546W        W87082  21.579  19.574  14.800
27547W        W87083  10.718  28.929  12.093
27548W        W87084  11.251  29.579  12.388
27549W        W87085   0.828  42.399  11.049
27550W        W87086  14.697   8.265   2.370
27551W        W87087  13.742  35.084   4.187
27552W        W87088  22.685  16.110   2.784
27553W        W87089  15.310  34.893   2.292
27554W        W87090  38.018   7.745  11.114
27555W        W87091  16.299   2.305   0.949
27556W        W87092  42.943   2.901   2.305
27557W        W87093  36.362  42.379   0.392
27558W        W87094  39.975  38.010   4.722
27559W        W87095  27.594  15.648   0.769
27560W        W87096   9.176  12.748  13.348
27561W        W87097  28.635  44.359   2.866
27562W        W87098  36.490  21.141   4.724
27563W        W87099  11.167   6.356   4.641
27564W        W87100  43.387  38.880   0.465
27565W        W87101   3.351  23.216  11.576
27566W        W87102   1.971  24.611   9.481
27567W        W87103  14.784  42.879  11.507
27568W        W87104  13.133  43.410   0.399
27569W        W87105  25.616  35.911   3.827
27570W        W87106  29.013  30.950   2.794
27571W        W87107   7.370   5.906   2.775
27572W        W87108  24.091  21.521  11.417
27573W        W87109   0.886  14.648   1.784
27574W        W87110  35.385  41.022  13.934
27575W        W87111  38.568  16.606  12.495
27576W        W87112  33.452  34.076  13.402
27577W        W87113  24.704  22.253  10.897
27578W        W87114  32.943   2.830   1.325
27579W        W87115   7.864   3.259  10.495
27580W        W87116  16.210  42.395   3.197
27581W        W87117   5.281  22.050  13.998
27582W        W87118  22.662   2.750  10.426
27583W        W87119  12.647  15.799  13.533
27584W        W87120  33.021  39.447   3.681
27585W        W87121  43.907  15.204   5.155
27586W        W87122  32.469  20.195  11.478
27587W        W87123  43.368  33.601   0.376
27588W        W87124  18.677  20.631   0.454
27589W        W87125   0.927   4.413  14.287
27590W        W87126  10.811  29.547   4.319
27591W        W87127  18.271   9.223  14.512
27592W        W87128   1.899  24.159  12.088
27593W        W87129   1.841  30.037  13.411
27594W        W87130  33.091  28.630  12.417
27595W        W87131  22.577  42.909   4.695
27596W        W87132  19.090  31.044   4.115
27597W        W87133  39.021  15.151  10.636
27598W        W87134  16.699  32.553  13.855
27599W        W87135   1.284  12.299   9.490
27600W        W87136   4.814  21.031   2.213
27601W        W87137  22.721   0.280   1.725
27602W        W87138  11.300  24.588  14.777
27603W        W87139  24.525  18.727   3.289
27604W        W87140   7.776  25.094   1.296
27605W        W87141  24.049   2.864   3.194
27606W        W87142   9.861  19.574   3.295
27607W        W87143  13.240  39.820   2.688
27608W        W87144  14.820  26.500  12.984
27609W        W87145   7.897  27.610  12.554
27610W        W87146  44.306  20.689   3.240
27611W        W87147  25.485   7.734  13.925
27612W        W87148  32.959  19.201  13.458
27613W        W87149  31.507  27.010  10.480
27614W        W87150  22.099  39.963  13.807
27615W        W87151  15.786  40.991   4.692
27616W        W87152  39.544  36.914   4.628
27617W        W87153  41.913  19.630   1.381
27618W        W87154   2.350  43.911   2.368
27619W        W87155   9.285   1.449   0.442
27620W        W87156  26.500  42.980   0.940
27621W        W87157  26.062  27.174  11.373
27622W        W87158  20.597   0.967  10.609
27623W        W87159  24.078  16.798  13.516
27624W        W87160  39.540  11.271   2.356
27625W        W87161  19.055   9.190   2.273
27626W        W87162   3.337   6.346   0.478
27627W        W87163  32.930  43.457   4.337
27628W        W87164   9.830  18.278   2.669
27629W        W87165  37.978  27.037   3.186
27630W        W87166  36.877   0.267  12.380
27631W        W87167  38.972   1.960   5.091
27632W        W87168  17.563  42.779  10.529
27633W        W87169  25.136  17.227   3.330
27634W        W87170  32.489  16.577   2.238
27635W        W87171  24.024  33.474   5.202
27636W        W87172  39.426  23.706   2.754
27637W        W87173  28.435   1.332   4.612
27638W        W87174  11.733   8.701  11.942
27639W        W87175  15.117  34.592   1.397
27640W        W87176  36.351  31.441  11.109
27641W        W87177  41.926  27.971   0.791
27642W        W87178   0.291  37.924  13.799
27643W        W87179  29.040  28.601   0.937
27644W        W87180  24.713  12.124  11.960
27645W        W87181  31.974  19.217   0.402
27646W        W87182   7.252  21.193   1.407
27647W        W87183  41.857  11.215   4.244
27648W        W87184  21.082   5.378  14.286
27649W        W87185  38.862  11.273   3.734
27650W        W87186  41.468  10.321  13.938
27651W        W87187  41.980  28.507  13.366
27652W        W87188  13.277  28.475   2.345
27653W        W87189  20.063  12.226  14.761
27654W        W87190   7.782  26.994   2.293
27655W        W87191  19.778  40.377  14.448
27656W        W87192  23.624   7.358   1.421
27657W        W87193  24.705  14.267  11.039
27658W        W87194  28.514   8.333   4.658
27659W        W87195   1.264   1.469  12.369
27660W        W87196  18.769  26.953  14.888
27661W        W87197   1.255  25.686   0.403
27662W        W87198  24.169   3.257  14.345
27663W        W87199   7.199  35.982  11.029
27664W        W87200  14.769  28.609   2.880
27665W        W87201  44.342  39.460   3.861
27666W        W87202   8.323  32.975  12.069
27667W        W87203  44.352  24.222  10.556
27668W        W87204  23.085  34.559   4.809
27669W        W87205   8.824  38.522   0.848
27670W        W87206  14.172  36.589   2.214
27671W        W87207  10.669  14.323  13.333
27672W        W87208  15.754  17.271   2.745
27673W        W87209  37.872  28.003   4.178
27674W        W87210  24.032  43.905  12.391
27675W        W87211   5.856  40.302   3.328
27676W        W87212   7.782  10.851  11.490
27677W        W87213  36.455  37.000  14.023
27678W        W87214  23.590  20.571  11.393
27679W        W87215  11.238   2.919   1.316
27680W        W87216  43.385  17.793  11.379
27681W        W87217  18.122  29.455   1.925
27682W        W87218  31.508  14.209  14.905
27683W        W87219  17.623  10.208  10.498
27684W        W87220  39.397   6.859  11.109
27685W        W87221   5.830  20.056   2.358
27686W        W87222  30.559  23.086  12.034
27687W        W87223  30.557  16.798   2.305
27688W        W87224  19.246   6.202  14.032
27689W        W87225  43.863  32.577  14.445
27690W        W87226  31.037  40.455  12.886
27691W        W87227  21.736  20.560   0.405
27692W        W87228  41.010  18.121  12.872
27693W        W87229  16.225  36.509  14.329
27694W        W87230  40.427  30.159   4.118
27695W        W87231  11.249  24.539  10.951
27696W        W87232  38.560  10.162  11.042
27697W        W87233  39.465  13.662  12.346
27698W        W87234   6.361   2.949  10.424
27699W        W87235  11.686   4.734  12.990
27700W        W87236  13.726  12.787   3.719
27701W        W87237  17.118  20.652   0.259
27702W        W87238  42.800  29.054   1.742
27703W        W87239   6.761   0.301   2.809
27704W        W87240  25.152  30.059  14.371
27705W        W87241   2.439  29.531   1.244
27706W        W87242   0.480  12.269   3.726
27707W        W87243  39.985   9.328  12.076
27708W        W87244  44.777  32.617  12.854
27709W        W87245  20.743  12.812  12.405
27710W        W87246  36.385  33.416  10.980
27711W        W87247  37.995  14.716  10.594
27712W        W87248  30.922   2.795  11.600
27713W        W87249  30.919  33.483  12.466
27714W        W87250  26.659  30.955   1.927
27715W        W87251  16.154   5.274  11.968
27716W        W87252  30.522  13.779  13.407
27717W        W87253  26.576  25.114   1.793
27718W        W87254  17.663  38.878  14.953
27719W        W87255  27.541   7.416   1.882
27720W        W87256  32.971   7.867  11.991
27721W        W87257  16.794  22.740   4.225
27722W        W87258  24.533  33.106  11.075
27723W        W87259  42.414  36.980  11.558
27724W        W87260   8.827  31.097   2.893
27725W        W87261  44.006   5.234   2.345
27726W        W87262   5.222  17.752  13.360
27727W        W87263  23.643  44.422  14.847
27728W        W87264   3.355   5.805  13.044
27729W        W87265  15.755   7.721   5.166
27730W        W87266  29.456  25.089   0.745
27731W        W87267  28.948   5.746   3.231
27732W        W87268  21.573  35.442  14.367
27733W        W87269  10.806  11.211  10.978
27734W        W87270   0.394  35.059  11.080
27735W        W87271  12.799  11.310  11.049
27736W        W87272  13.135  11.641   5.173
27737W        W87273  27.995   3.314  11.502
27738W        W87274  43.970  18.288   2.316
27739W        W87275  13.715   8.259  14.375
27740W        W87276   9.753  20.545   3.317
27741W        W87277  38.948  22.625   3.156
27742W        W87278  24.019   4.860  12.535
27743W        W87279  35.523  10.710  12.909
27744W        W87280   6.845  25.110   4.295
27745W        W87281  21.236  30.145   1.368
27746W        W87282   2.348  41.807   0.871
27747W        W87283   8.286   5.810   2.389
27748W        W87284   4.297  11.754   0.786
27749W        W87285  28.011  35.045  14.892
27750W        W87286   7.894  42.324   0.296
27751W        W87287   6.301  34.047  13.849
27752W        W87288  28.520  35.933  12.387
27753W        W87289  43.348  25.644   4.696
27754W        W87290   9.769  23.724   3.718
27755W        W87291  37.358  18.740   2.217
27756W        W87292  17.609  13.655   2.851
27757W        W87293   5.698  10.846   0.484
27758W        W87294  23.991  14.122  14.945
27759W        W87295  26.094  36.971   0.788
27760W        W87296  38.378  35.909   3.302
27761W        W87297  10.166   4.294   9.922
27762W        W87298  33.973  13.342   1.893
27763W        W87299  19.230  16.598  13.511
27764W        W87300  15.793   1.853   0.428
27765W        W87301  13.614   9.795  11.874
27766W        W87302  21.071   8.871  11.609
27767W        W87303  13.799  16.148  11.937
27768W        W87304  36.977  33.119   4.823
27769W        W87305  18.679  28.599  14.505
27770W        W87306   7.352  17.191  11.444
27771W        W87307  18.227  25.998  12.866
27772W        W87308  14.699  12.856  14.792
27773W        W87309  38.977  40.428   1.411
27774W        W87310   8.791   9.762   0.392
27775W        W87311  12.351  20.604  14.423
27776W        W87312  38.364  33.985   0.305
27777W        W87313  24.518  40.385   3.854
27778W        W87314  29.940  23.127  14.965
27779W        W87315   3.894  14.199   5.264
27780W        W87316  16.116   0.424  11.938
27781W        W87317  34.605  40.803  13.494
27782W        W87318  33.074  17.657  11.519
27783W        W87319  33.972   1.791  10.566
27784W        W87320   1.864  32.513  14.952
27785W        W87321  16.292  38.021  12.467
27786W        W87322  38.018  43.769   2.680
27787W        W87323  11.161   1.965  14.278
27788W        W87324   8.286  14.589   4.669
27789W        W87325  33.611   7.400   5.298
27790W        W87326  30.627  29.114   2.399
27791W        W87327  15.621  42.514  11.054
27792W        W87328  19.276  16.683   3.314
27793W        W87329  33.060   1.468  13.398
27794W        W87330  42.288  32.633  12.367
27795W        W87331   7.843  22.160  14.874
27796W        W87332  43.412  27.651   3.200
27797W        W87333  26.637  24.052  12.050
27798W        W87334   9.829  35.931   3.269
27799W        W87335   1.736  31.554   0.860
27800W        W87336  15.625   8.362  10.526
27801W        W87337   1.433  43.490  12.495
27802W        W87338  26.522  39.064  14.438
27803W        W87339  19.773  38.893  11.919
27804W        W87340   3.916  14.825  12.458
27805W        W87341  20.522   5.408  12.404
27806W        W87342   3.726  30.993  11.946
27807W        W87343   5.435   6.717  10.548
27808W        W87344  14.114  33.505  13.805
27809W        W87345   9.757  17.244   0.368
27810W        W87346   9.707  24.546  11.418
27811W        W87347   6.745   2.227   1.249
27812W        W87348  16.654  26.632   1.703
27813W        W87349  22.097   4.806  12.381
27814W        W87350  42.877   1.878   0.369
27815W        W87351   0.251  15.274   9.957
27816W        W87352  42.022  28.054  13.446
27817W        W87353  37.399  32.131   4.600
27818W        W87354  43.915  22.652  12.060
27819W        W87355  40.906  44.261  10.961
27820W        W87356  34.584  38.863   0.351
27821W        W87357  20.708  44.874   3.352
27822W        W87358   2.411  14.794   3.360
27823W        W87359   2.926  32.574   0.734
27824W        W87360  36.359  41.433  10.999
27825W        W87361  21.540  33.938   1.423
27826W        W87362  38.951  36.911  13.795
27827W        W87363   7.668  22.607   2.267
27828W        W87364  15.816  33.914   4.749
27829W        W87365  39.413  22.237   1.399
27830W        W87366  37.416  16.767  14.825
27831W        W87367   9.212  20.145  14.425
27832W        W87368  10.642  22.205  11.976
27833W        W87369  33.585   9.284   4.796
27834W        W87370   6.805  11.702  12.354
27835W        W87371  26.463  39.906  14.850
27836W        W87372  31.535  12.348   4.736
27837W        W87373  28.556  20.179  10.634
27838W        W87374  36.412  31.038   4.807
27839W        W87375   7.843  43.019  14.325
27840W        W87376  42.896   2.440   1.253
27841W        W87377  25.080  12.305  14.784
27842W        W87378   9.333   8.338  13.349
27843W        W87379   0.917  24.085  13.931
27844W        W87380  28.068  30.045  13.511
27845W        W87381  14.610  17.628   1.758
27846W        W87382  37.861  39.376   1.281
27847W        W87383  20.765  33.460  11.858
27848W        W87384  13.611   6.387  14.455
27849W        W87385  12.198  42.410  14.291
27850W        W87386  35.962  30.633   4.702
27851W        W87387  20.169   5.699   4.160
27852W        W87388  27.111  18.168  11.548
27853W        W87389  35.582  35.542   0.867
27854W        W87390  42.322  36.459  12.059
27855W        W87391  26.128  29.096   4.621
27856W        W87392   5.428   8.268   2.781
27857W        W87393  19.080   7.748   3.280
27858W        W87394  28.449  32.430  14.453
27859W        W87395   7.721  36.574   1.886
27860W        W87396  38.001   7.693  14.893
27861W        W87397  44.868  35.876   2.291
27862W        W87398  25.646   2.965  10.442
27863W        W87399  39.896  41.350  14.428
27864W        W87400  34.865   5.412   2.730
27865W        W87401   9.365   3.386   1.847
27866W        W87402  21.057  10.152   5.170
27867W        W87403  42.506  27.034   3.633
27868W        W87404  32.424  25.211   2.296
27869W        W87405  32.966   1.963  12.460
27870W        W87406   9.210   9.314  11.959
27871W        W87407  25.009  25.173   4.613
27872W        W87408  28.083  41.901   0.358
27873W        W87409   1.375   5.384  13.486
27874W        W87410  21.649  44.503  14.976
27875W        W87411  29.058   9.707  11.924
27876W        W87412   4.239  39.876   3.200
27877W        W87413  36.884   2.292  11.579
27878W        W87414  36.456   7.186   2.191
27879W        W87415  43.504  37.880  11.859
27880W        W87416  30.472  37.831  10.627
27881W        W87417   5.229  41.825  14.477
27882W        W87418  30.075   1.270   0.908
27883W        W87419  11.165  23.166   4.204
27884W        W87420  34.461   1.451   5.657
27885W        W87421  27.008  27.598   1.281
27886W        W87422  17.104  18.281  10.577
27887W        W87423  10.298  41.897  10.937
27888W        W87424  20.072  26.177   0.465
27889W        W87425   9.297  39.004  13.525
27890W        W87426  15.691  10.789   2.294
27891W        W87427  42.477  18.109  11.959
27892W        W87428   3.940  43.387   3.655
27893W        W87429  31.562  21.536   4.135
27894W        W87430  32.445   8.354   1.895
27895W        W87431  44.810  14.771  11.086
27896W        W87432   8.406   9.197   4.352
27897W        W87433  23.041   1.828  11.949
27898W        W87434  19.752  27.521   2.791
27899W        W87435   1.376  23.604  14.770
27900W        W87436  18.761   4.865  12.393
27901W        W87437   3.912  43.418  11.514
27902W        W87438  35.526  31.591  11.986
27903W        W87439   1.248  11.226  10.142
27904W        W87440  11.741  14.600   1.853
27905W        W87441  36.931  33.573  10.522
27906W        W87442  30.048  19.698  10.471
27907W        W87443  23.228  18.108  11.375
27908W        W87444  35.583  16.682  11.001
27909W        W87445  26.607  32.609  14.010
27910W        W87446   3.368  16.271  11.050
27911W        W87447   2.831  39.897   0.373
27912W        W87448   1.276  22.564   1.376
27913W        W87449  31.434  29.051  10.422
27914W        W87450  15.607  28.171  13.839
27915W        W87451  40.038   7.372   1.765
27916W        W87452  39.971  32.397   4.147
27917W        W87453  12.785  22.049   3.335
27918W        W87454   6.718  34.606   3.311
27919W        W87455   0.798  14.685   4.127
27920W        W87456  10.791  27.044   3.299
27921W        W87457  40.900  13.202   4.782
27922W        W87458  14.251  39.377   2.368
27923W        W87459   5.383  13.239  13.907
27924W        W87460  15.606  11.769   1.734
27925W        W87461  26.638  13.725  14.943
27926W        W87462  41.845   1.274   4.325
27927W        W87463   7.907  43.960  11.539
27928W        W87464  29.628   1.372  10.603
27929W        W87465  12.294  24.619   0.844
27930W        W87466  36.417  16.092   2.674
27931W        W87467  10.220  17.701  12.521
27932W        W87468  11.798  33.445  13.802
27933W        W87469  36.919  32.961   4.271
27934W        W87470  21.258  39.935  10.080
27935W        W87471  15.702  12.706   0.744
27936W        W87472   9.223  40.409   1.791
27937W        W87473  42.353  41.901  13.014
27938W        W87474  14.214   8.193   2.880
27939W        W87475  10.679   0.260   2.894
27940W        W87476  11.180  26.116  12.847
27941W        W87477  27.021  38.478   9.965
27942W        W87478  29.078  41.023   4.239
27943W        W87479  39.511  31.980  14.786
27944W        W87480   0.346  10.710   0.354
27945W        W87481  15.229  25.574   2.858
27946W        W87482   1.361  17.282  10.471
27947W        W87483  22.618  31.046   2.865
27948W        W87484  37.981  14.179   3.387
27949W        W87485  42.975  35.094   2.686
27950W        W87486  38.028   0.375  13.521
27951W        W87487  30.454  25.489  11.960
27952W        W87488  17.634  13.109   0.868
27953W        W87489  43.306  44.860  12.078
27954W        W87490   4.880  29.543   3.662
27955W        W87491   8.832   2.802   1.398
27956W        W87492  23.591  20.076  10.614
27957W        W87493  32.492  37.026   3.352
27958W        W87494  30.533   5.405   3.362
27959W        W87495  25.157  23.559  11.895
27960W        W87496  31.920  12.730  10.530
27961W        W87497  25.216  39.810   0.431
27962W        W87498   3.327  38.328  11.003
27963W        W87499  30.574  17.656  13.499
27964W        W87500  29.052  32.568   1.259
27965W        W87501  40.900  44.854  10.515
27966W        W87502  23.661  15.083   3.253
27967W        W87503  34.094   3.918   2.882
27968W        W87504  28.555   7.284  10.492
27969W        W87505   6.710  15.611   4.198
27970W        W87506  40.424   8.405   4.238
27971W        W87507  39.449  44.857   0.378
27972W        W87508  17.259  23.113   4.324
27973W        W87509  39.061  44.430   3.800
27974W        W87510  11.635  39.527  14.335
27975W        W87511  23.536   5.432  12.565
27976W        W87512  35.939  26.480   0.816
27977W        W87513  35.956   4.808  10.466
27978W        W87514  12.170  25.162  11.932
27979W        W87515   2.868  32.074   3.361
27980W        W87516  38.008  37.435  12.366
27981W        W87517  26.035   3.909  12.454
27982W        W87518   2.298  41.436  10.497
27983W        W87519   2.428  20.096  13.440
27984W        W87520   1.385  16.653   2.347
27985W        W87521  24.696   3.390   0.408
27986W        W87522  10.351  17.796  13.994
27987W        W87523  12.807  37.551  11.377
27988W        W87524  31.550  24.655   0.946
27989W        W87525  44.475  22.628  12.017
27990W        W87526  38.967  24.605  12.565
27991W        W87527  24.124  20.716   2.837
27992W        W87528  44.827  16.673  11.102
27993W        W87529  10.847   0.944   1.773
27994W        W87530  19.675  10.224  11.022
27995W        W87531  15.138  16.712  12.345
27996W        W87532   7.274  20.153  13.447
27997W        W87533  17.755  38.534  13.865
27998W        W87534  30.552  24.666   1.316
27999W        W87535  16.589  39.325  14.362
28000W        W87536   2.448   3.250  13.426
28001W        W87537  11.731  13.149   3.671
28002W        W87538   2.807  30.958   4.662
28003W        W87539  42.818  40.870  13.032
28004W        W87540   5.711  33.997  11.454
28005W        W87541  16.712  16.106   1.820
28006W        W87542  32.088  10.713  14.828
28007W        W87543   2.356  18.633  10.620
28008W        W87544  35.445  37.554   2.690
28009W        W87545  39.354  11.161   3.291
28010W        W87546   0.790  10.717  14.938
28011W        W87547  31.135  23.133  14.440
28012W        W87548  13.710  40.861  14.411
28013W        W87549   9.315  12.620  11.531
28014W        W87550  36.058  36.375  14.478
28015W        W87551  15.253  44.395   0.438
28016W        W87552  42.327  15.189  13.376
28017W        W87553  40.811  17.572  14.010
28018W        W87554  43.768   1.368  11.024
28019W        W87555   1.318  19.634   4.697
28020W        W87556  41.818  26.463  14.956
28021W        W87557  32.564  43.860  10.913
28022W        W87558  23.126   1.763   2.827
28023W        W87559  33.903  42.912   2.777
28024W        W87560  42.787  33.519   1.913
28025W        W87561  41.881  42.322   2.415
28026W        W87562  34.020  30.104   3.297
28027W        W87563  31.011   7.897  12.093
28028W        W87564  34.473  43.983  13.034
28029W        W87565  28.984   1.436   2.325
28030W        W87566  28.522  37.047  12.566
28031W        W87567  26.565  15.101   0.730
28032W        W87568   5.774  42.962  13.862
28033W        W87569  11.266  36.353  14.492
28034W        W87570  22.020  25.060  13.475
28035W        W87571  18.266  31.518  10.487
28036W        W87572  15.783  34.615  13.500
28037W        W87573   3.918  28.155   3.167
28038W        W87574  35.587  16.173  10.892
28039W        W87575  40.980   3.299  11.446
28040W        W87576   7.385  29.138  11.596
28041W        W87577   8.752  13.128   1.893
28042W        W87578  10.302  18.240  11.923
28043W        W87579  40.945  15.608   1.444
28044W        W87580  11.794   9.353   3.217
28045W        W87581  35.069  11.334   0.378
28046W        W87582   7.828   8.884   1.218
28047W        W87583   0.847  43.789   4.334
28048W        W87584  18.118  31.068   0.385
28049W        W87585  40.839  23.125   0.419
28050W        W87586  21.108  40.024   2.733
28051W        W87587  39.934   8.384   1.879
28052W        W87588  36.070  16.668  10.574
28053W        W87589  22.533  19.580  13.980
28054W        W87590  10.200  14.618  13.440
28055W        W87591  14.665  25.621  12.410
28056W        W87592  40.812   6.849   0.821
28057W        W87593  21.567  31.502  12.957
28058W        W87594  36.567  18.706   9.947
28059W        W87595  11.754  41.505  12.857
28060W        W87596  44.950  31.961   4.762
28061W        W87597  21.653   7.789   2.819
28062W        W87598  21.202  24.100   3.742
28063W        W87599  15.757  18.790  10.051
28064W        W87600  17.726  26.586  11.417
28065W        W87601  35.524  16.287   4.710
28066W        W87602  39.418  17.734   2.305
28067W        W87603   4.406  43.376   0.289
28068W        W87604  38.956  19.708   2.235
28069W        W87605  13.737  15.589  13.805
28070W        W87606   6.819  36.569  10.510
28071W        W87607   6.365  17.672   2.770
28072W        W87608  22.705   4.444  12.391
28073W        W87609   5.811  25.970   1.356
28074W        W87610   4.921   8.290   3.660
28075W        W87611   0.862  43.332  11.552
28076W        W87612  39.471  19.669   4.649
28077W        W87613  37.372  20.085   3.839
28078W        W87614  30.127  29.024  11.427
28079W        W87615  11.646  27.466  10.410
28080W        W87616  30.984   4.421  14.514
28081W        W87617  40.022  41.425  13.388
28082W        W87618  43.879  11.719   1.243
28083W        W87619  20.666  32.139   3.262
28084W        W87620  15.696   2.928  10.580
28085W        W87621  39.557  22.228  14.388
28086W        W87622  33.111  22.543   0.449
28087W        W87623  25.670  30.915  11.867
28088W        W87624  41.865  24.046  11.918
28089W        W87625   5.311  13.773  12.972
28090W        W87626  30.971  29.484  13.914
28091W        W87627  30.011  19.176  12.013
28092W        W87628  14.742  41.487   5.209
28093W        W87629  39.552   6.893   2.200
28094W        W87630  19.247  27.183  11.585
28095W        W87631  32.979  41.810  14.005
28096W        W87632  29.175  24.659   3.245
28097W        W87633  20.123  31.489  10.936
28098W        W87634  37.940  41.955  11.954
28099W        W87635  22.547  13.816   3.746
28100W        W87636  44.816  26.553   1.824
28101W        W87637  33.972  21.104  14.908
28102W        W87638  26.566  30.565  11.486
28103W        W87639  39.450  24.218   1.888
28104W        W87640  33.073  19.714   3.646
28105W        W87641  41.485  20.096  12.056
28106W        W87642  42.377  16.239   1.708
28107W        W87643  31.908  33.538   2.684
28108W        W87644  20.250   6.231   4.256
28109W        W87645  23.082  44.468  14.423
28110W        W87646  34.070  14.686   3.648
28111W        W87647  26.641  36.089  14.326
28112W        W87648   2.411  23.114   0.341
28113W        W87649  34.513  30.006  12.094
28114W        W87650   9.250   8.799   3.370
28115W        W87651  35.081  20.095  13.965
28116W        W87652  27.537  20.733  11.581
28117W        W87653  33.578  28.558   2.410
28118W        W87654   6.264  31.561   0.842
28119W        W87655  35.024   9.758   2.768
28120W        W87656  32.047  32.437  14.980
28121W        W87657   3.393  28.603   0.830
28122W        W87658  15.700  21.661  12.029
28123W        W87659  17.277   5.926   1.704
28124W        W87660  22.646   8.284  13.542
28125W        W87661  11.348  20.191   3.160
28126W        W87662  12.836  40.480   2.235
28127W        W87663  41.018   0.747  11.028
28128W        W87664  44.801   3.227  12.865
28129W        W87665  17.624  28.566   3.813
28130W        W87666   0.365  19.708  11.594
28131W        W87667  30.477  16.731  13.849
28132W        W87668  13.189  19.770   3.279
28133W        W87669   7.284   2.249   4.603
28134W        W87670  13.661  16.623  14.475
28135W        W87671  13.162  27.068  12.415
28136W        W87672   4.438  14.750  12.435
28137W        W87673  28.128  28.096  11.869
28138W        W87674  32.988  23.156   4.775
28139W        W87675   5.875  34.967   2.749
28140W        W87676  42.844  16.312  10.525
28141W        W87677  15.625  28.481   4.709
28142W        W87678   6.400   5.434   2.815
28143W        W87679  35.978  35.977  13.938
28144W        W87680  14.833   4.425   1.695
28145W        W87681  32.919  39.831   4.794
28146W        W87682  13.332  22.087  12.963
28147W        W87683   6.888   3.878  12.840
28148W        W87684   6.776  36.468  11.074
28149W        W87685  25.563  19.768   4.339
28150W        W87686  27.494  19.765   4.801
28151W        W87687  24.149   7.265   3.766
28152W        W87688  41.458  39.940   3.716
28153W        W87689   5.276  30.628  13.048
28154W        W87690   2.725   9.851   2.281
28155W        W87691  36.352  40.821   4.270
28156W        W87692  37.466  25.016   1.361
28157W        W87693  39.366  43.313   0.372
28158W        W87694  35.475  25.710  10.575
28159W        W87695  19.558  35.045  10.514
28160W        W87696  31.421   8.858  10.541
28161W        W87697   9.873  20.549   4.811
28162W        W87698  13.728   8.175   3.377
28163W        W87699  21.035  12.630   4.621
28164W        W87700  17.177   5.329   3.852
28165W        W87701  39.510  40.336   3.180
28166W        W87702  29.464  15.775  14.292
28167W        W87703  26.510   9.351   1.784
28168W        W87704   9.830  34.575  14.463
28169W        W87705  34.988  18.263  14.781
28170W        W87706  42.389  38.443  12.436
28171W        W87707  11.768  20.674  11.890
28172W        W87708  11.284  34.891   1.918
28173W        W87709   0.284  42.519   1.753
28174W        W87710  15.236   9.262   4.171
28175W        W87711  34.541  37.461  14.416
28176W        W87712  16.301  30.021   2.264
28177W        W87713  21.096  43.986   3.676
28178W        W87714   5.720  23.049   2.783
28179W        W87715  25.119  29.637   3.644
28180W        W87716  34.050  16.616  11.607
28181W        W87717  11.347  18.619   1.256
28182W        W87718  16.291  21.065   4.814
28183W        W87719  12.802  21.540  12.430
28184W        W87720  19.773  25.613  14.364
28185W        W87721  40.974  29.602  11.505
28186W        W87722  40.419  22.179  13.461
28187W        W87723  37.359  33.558   3.285
28188W        W87724  36.887  36.515   3.343
28189W        W87725  32.112  20.657  13.345
28190W        W87726  22.182  24.050  10.467
28191W        W87727  39.030   9.745  13.541
28192W        W87728  25.653  16.142   5.707
28193W        W87729  27.156  40.518  12.025
28194W        W87730  20.199  20.111  12.388
28195W        W87731  14.711   0.452   2.356
28196W        W87732   3.740  29.963  13.421
28197W        W87733  41.300  29.523   0.271
28198W        W87734  34.608  10.222   3.698
28199W        W87735  41.909  33.614   1.268
28200W        W87736  35.421   8.364   4.270
28201W        W87737  42.976  39.320   4.338
28202W        W87738  24.628  22.673   5.803
28203W        W87739  13.654  15.595   0.789
28204W        W87740  15.674  18.741   0.746
28205W        W87741  27.526  30.967   3.237
28206W        W87742  44.457  26.500  11.972
28207W        W87743   2.815   5.787  12.054
28208W        W87744  31.117  10.743  11.475
28209W        W87745  18.052  40.849  12.003
28210W        W87746   0.899  44.453  12.380
28211W        W87747   8.236  30.027  10.436
28212W        W87748  31.102   7.861  12.856
28213W        W87749  20.569  44.923   4.609
28214W        W87750  25.043  37.894   1.863
28215W        W87751  16.743  22.070  11.923
28216W        W87752   1.868  32.024   0.356
28217W        W87753  14.813   9.744  14.452
28218W        W87754  17.265  18.627   9.935
28219W        W87755  13.260   4.794  12.998
28220W        W87756   0.869  31.910  13.979
28221W        W87757  35.969  39.548  11.082
28222W        W87758  30.525  32.037  10.505
28223W        W87759   4.408  35.380   1.881
28224W        W87760  36.461  29.109   4.708
28225W        W87761  17.114  23.183  14.428
28226W        W87762  41.831  15.315   4.170
28227W        W87763  27.006  32.621   1.876
28228W        W87764  13.678  41.013   4.194
28229W        W87765   6.322  41.510   2.778
28230W        W87766  33.969  16.079  10.970
28231W        W87767   4.918  31.917   1.699
28232W        W87768  40.835  40.912  13.834
28233W        W87769  21.749  12.332  12.021
28234W        W87770  27.996  24.042  13.474
28235W        W87771   3.368   5.236  13.923
28236W        W87772  43.270  43.418   2.901
28237W        W87773  14.663   9.835   3.305
28238W        W87774  43.303  23.020   3.704
28239W        W87775  21.124  43.375  14.926
28240W        W87776  41.510  42.950  10.615
28241W        W87777  26.067  28.477  11.372
28242W        W87778  14.298   8.892   0.470
28243W        W87779   9.872  41.367   0.460
28244W        W87780  22.150  22.202  12.557
28245W        W87781  18.715  42.882   0.745
28246W        W87782  31.030  43.455  10.980
28247W        W87783  32.040  37.854  14.357
28248W        W87784  22.576   1.468   3.793
28249W        W87785  43.768  31.015   0.392
28250W        W87786  43.414   2.803   1.304
28251W        W87787  11.302  19.068   1.319
28252W        W87788  15.750  28.156  12.479
28253W        W87789  43.356  43.946   0.911
28254W        W87790  34.410  25.147   1.353
28255W        W87791  33.046  21.245  12.952
28256W        W87792  11.631  12.116  11.439
28257W        W87793  21.239   8.385   9.959
28258W        W87794  40.868  11.163  12.947
28259W        W87795  38.402  39.808  13.901
28260W        W87796  12.289  27.037  11.044
28261W        W87797  36.051  44.939  13.837
28262W        W87798  33.431  35.867  13.541
28263W        W87799  13.185  41.856  11.431
28264W        W87800  33.590   6.862  14.030
28265W        W87801  24.042  15.589  14.857
28266W        W87802  26.660  19.262  14.005
28267W        W87803  34.910   9.884   3.286
28268W        W87804  33.605   6.867   3.685
28269W        W87805  34.493  37.080   2.293
28270W        W87806  28.438   1.472  12.012
28271W        W87807   8.332  44.988   3.360
28272W        W87808   5.242  43.316   3.700
28273W        W87809  21.711  12.844  11.012
28274W        W87810  40.892  38.841  10.631
28275W        W87811   1.782  15.695   2.254
28276W        W87812  32.057  20.206   3.168
28277W        W87813  15.774  33.103  12.971
28278W        W87814   6.403  16.161   2.280
28279W        W87815   8.834  44.949   1.318
28280W        W87816  19.570  40.967   3.178
28281W        W87817  14.310  26.997   4.693
28282W        W87818  32.891  38.935  11.920
28283W        W87819   0.259  16.298   4.651
28284W        W87820  25.628  33.899  10.133
28285W        W87821  22.676  13.782  13.498
28286W        W87822  13.327  41.498  10.038
28287W        W87823  37.016   4.304  11.505
28288W        W87824  17.621  23.202  13.064
28289W        W87825  40.321  38.436  12.879
28290W        W87826  27.958  44.308  12.004
28291W        W87827   9.255   1.436   3.175
28292W        W87828  33.889  11.191   1.917
28293W        W87829  12.624  34.479   0.329
28294W        W87830  35.880  34.093  11.468
28295W        W87831   0.489   2.458   1.280
28296W        W87832  14.771  44.272  14.759
28297W        W87833  19.162  31.957   2.345
28298W        W87834  21.242  31.521  12.912
28299W        W87835  31.899   9.218   0.374
28300W        W87836  28.480  14.650  11.985
28301W        W87837   8.679  42.284  12.937
28302W        W87838   8.730  13.693   1.309
28303W        W87839  23.505  40.041   3.295
28304W        W87840  37.928  31.906  10.491
28305W        W87841  38.409  11.694   4.833
28306W        W87842  22.677  17.068   3.243
28307W        W87843  36.570  37.359  13.363
28308W        W87844  18.156  24.100  14.934
28309W        W87845  31.049  10.752  10.947
28310W        W87846  22.673  19.123  12.955
28311W        W87847  28.646  17.228   4.200
28312W        W87848  28.112   2.929  13.953
28313W        W87849  16.737   9.818  13.460
28314W        W87850   7.720  24.619   2.812
28315W        W87851  20.677  23.672   2.674
28316W        W87852   2.313   5.792  12.094
28317W        W87853  43.309   5.287  14.884
28318W        W87854  22.077   7.807   3.845
28319W        W87855  36.438  23.009  12.043
28320W        W87856  28.439   7.221  14.974
28321W        W87857  36.452  39.490   3.379
28322W        W87858  44.980  44.907  11.935
28323W        W87859   1.881   7.397   4.299
28324W        W87860  18.185   0.906   0.814
28325W        W87861   7.257  26.052  14.331
28326W        W87862  40.929  43.443  14.473
28327W        W87863  20.609  33.545   4.790
28328W        W87864  15.684  18.648   4.743
28329W        W87865  10.738  19.103   3.168
28330W        W87866   6.896  14.314   1.327
28331W        W87867   0.414  41.312  11.032
28332W        W87868  15.786  43.391  11.928
28333W        W87869   8.395  27.050   1.321
28334W        W87870  14.148  13.789  10.986
28335W        W87871  42.819  41.531  13.792
28336W        W87872  11.644  41.328   0.868
28337W        W87873  10.856   4.869   0.243
28338W        W87874   1.946  24.552  14.806
28339W        W87875  43.001  44.291  13.844
28340W        W87876  40.379  28.648   1.264
28341W        W87877  18.598  40.972  10.616
28342W        W87878  21.123  38.472   3.185
28343W        W87879  25.983  42.982  11.554
28344W        W87880  23.507   9.378  10.478
28345W        W87881  26.049  25.538   3.190
28346W        W87882  21.143  42.425  14.383
28347W        W87883   2.762  39.341   0.280
28348W        W87884  16.205   1.361  12.852
28349W        W87885  14.143   1.286   0.337
28350W        W87886  11.762   5.851  14.432
28351W        W87887  32.457  25.986   0.784
28352W        W87888  39.957   4.436  14.384
28353W        W87889   6.909  21.039   4.728
28354W        W87890   6.782  40.933   2.384
28355W        W87891  30.557  30.966   2.688
28356W        W87892   1.912   0.795   2.379
28357W        W87893  14.246   6.333  10.461
28358W        W87894   2.392  17.576   4.616
28359W        W87895   2.266  13.235  12.417
28360W        W87896  34.572  25.170   5.648
28361W        W87897  18.589  44.293   9.951
28362W        W87898  13.343  22.223   2.757
28363W        W87899   1.827   0.469  13.997
28364W        W87900  35.464  24.606   5.201
28365W        W87901  22.566  12.241   0.902
28366W        W87902  31.622   8.836   3.257
28367W        W87903  19.547  11.814   0.877
28368W        W87904  29.993  44.469   0.380
28369W        W87905  38.001  21.217  10.519
28370W        W87906  27.015  24.126  10.491
28371W        W87907  25.018   5.849  12.865
28372W        W87908  12.360  38.507  10.615
28373W        W87909  21.212  26.991   2.698
28374W        W87910  17.630   1.920   0.918
28375W        W87911   2.375  41.379   0.766
28376W        W87912  10.145   2.448   0.296
28377W        W87913  21.178  13.697  10.479
28378W        W87914  15.254  41.473  13.841
28379W        W87915   0.412   2.745  12.357
28380W        W87916   2.947  34.416  13.351
28381W        W87917   5.841  15.096  13.927
28382W        W87918  25.708  14.695  11.023
28383W        W87919  38.030  22.181   3.284
28384W        W87920   4.394  29.506  11.105
28385W        W87921  28.015  32.932  13.034
28386W        W87922  39.411  42.387  10.952
28387W        W87923   0.899  10.721  14.367
28388W        W87924  23.605  25.609  10.631
28389W        W87925  23.062   9.305  13.501
28390W        W87926   3.306  37.482  11.490
28391W        W87927  37.342   5.369   0.816
28392W        W87928  21.060  15.588  12.941
28393W        W87929  28.570   6.762   3.664
28394W        W87930  23.014  43.497  12.523
28395W        W87931  27.611  26.059   4.306
28396W        W87932  18.663   0.774   1.263
28397W        W87933  25.122  27.096  11.001
28398W        W87934   5.869   5.350  10.561
28399W        W87935   8.281  11.186  10.575
28400W        W87936  12.814  31.526  11.128
28401W        W87937  28.517  27.499  12.476
28402W        W87938  26.133  34.054  12.555
28403W        W87939  26.486  20.059  10.626
28404W        W87940  27.983  28.968   4.695
28405W        W87941  17.281  23.580   1.355
28406W        W87942  27.078  39.425   1.261
28407W        W87943  31.019  31.614   1.276
28408W        W87944  31.589   0.864   4.124
28409W        W87945  32.511  38.008   1.730
28410W        W87946  31.134   9.248  13.882
28411W        W87947  40.000  31.970  13.350
28412W        W87948   6.682  23.130  14.917
28413W        W87949  35.495  34.874   4.284
28414W        W87950   7.861  27.061  12.559
28415W        W87951  22.656  24.534  11.053
28416W        W87952  40.329  38.355   1.761
28417W        W87953  39.906  35.990   1.433
28418W        W87954  33.065  20.076   0.362
28419W        W87955  32.947  16.626  14.466
28420W        W87956  27.512  37.365   1.301
28421W        W87957  39.501  17.281  14.512
28422W        W87958  38.560  16.176   2.713
28423W        W87959  28.993  24.120   4.251
28424W        W87960  38.962  28.646   3.187
28425W        W87961  35.012   2.921  13.979
28426W        W87962  32.965  27.091  12.997
28427W        W87963  39.057   8.401  14.803
28428W        W87964  44.259  25.042  14.999
28429W        W87965   4.214   7.417  11.871
28430W        W87966  31.092  32.447   0.319
28431W        W87967  20.066  35.894   5.240
28432W        W87968  35.360  26.636  13.842
28433W        W87969   6.755  42.833  10.980
28434W        W87970  14.767  20.724  14.897
28435W        W87971  41.292  29.053   4.333
28436W        W87972  16.209  13.742  11.584
28437W        W87973  15.804  15.241   0.275
28438W        W87974   8.181  44.869  14.484
28439W        W87975  14.314  26.031  10.561
28440W        W87976   7.878  10.255  13.841
28441W        W87977  14.105  43.765  10.126
28442W        W87978  41.017  38.909   1.814
28443W        W87979  18.167  33.997   0.337
28444W        W87980   7.333  22.054   2.194
28445W        W87981  18.171  38.551   3.371
28446W        W87982   4.341  21.732   0.881
28447W        W87983  35.063  14.140   3.374
28448W        W87984  33.529   8.757  12.532
28449W        W87985   7.326   5.836   2.278
28450W        W87986  37.052  39.001   4.217
28451W        W87987  32.514  29.542  10.632
28452W        W87988  41.946   7.728  10.464
28453W        W87989   5.899  23.095  11.076
28454W        W87990  19.235  20.028  12.939
28455W        W87991  25.982  34.998   1.224
28456W        W87992   5.304   1.282   4.253
28457W        W87993   1.859  35.388  11.974
28458W        W87994   9.763  20.611   2.740
28459W        W87995  33.933  43.354   3.718
28460W        W87996  16.139  15.599   4.703
28461W        W87997  11.235  37.937  11.478
28462W        W87998   4.413  37.950  14.030
28463W        W87999  17.609  30.920   3.213
28464W        W88000  18.591  32.391   2.840
28465W        W88001  22.182  14.713  12.038
28466W        W88002  29.432  44.863  13.479
28467W        W88003  36.421  24.982  10.893
28468W        W88004  34.397   6.820  12.434
28469W        W88005   0.841  16.268  12.431
28470W        W88006  25.165  43.923  10.516
28471W        W88007  17.778  13.768   3.771
28472W        W88008  32.033  44.478   2.672
28473W        W88009   5.901  37.949   1.412
28474W        W88010  39.036  39.438  10.918
28475W        W88011  25.669  36.874  13.829
28476W        W88012  31.011  36.011  11.062
28477W        W88013  16.200  27.059   2.250
28478W        W88014  28.033  18.741   3.753
28479W        W88015  43.429  37.840  11.386
28480W        W88016  44.332   9.770  10.965
28481W        W88017  28.067  32.568   2.681
28482W        W88018  28.566   9.746  11.548
28483W        W88019   9.246  15.654   4.198
28484W        W88020   2.890  33.986   1.925
28485W        W88021  31.532  18.644   3.189
28486W        W88022  24.195   0.788  13.969
28487W        W88023  33.614  34.865  13.498
28488W        W88024   2.733  35.537  12.460
28489W        W88025  31.994   4.917   2.316
28490W        W88026   5.848  10.731   4.821
28491W        W88027  14.671  15.119  12.829
28492W        W88028  12.691  28.677  13.335
28493W        W88029  34.542  10.295   2.712
28494W        W88030  33.916  35.022  12.888
28495W        W88031  39.555  35.107   0.412
28496W        W88032  22.998   5.798   1.388
28497W        W88033  40.990  16.171   0.733
28498W        W88034  37.079   3.956  13.974
28499W        W88035  34.973  39.016   4.665
28500W        W88036  12.237  24.087   2.691
28501W        W88037  10.692  30.658   1.232
28502W        W88038  14.172  24.018   3.836
28503W        W88039   3.819  14.316  13.920
28504W        W88040  34.610  28.443   5.309
28505W        W88041  13.618  25.483   2.182
28506W        W88042  17.210  25.216   3.735
28507W        W88043  11.675  34.456  13.793
28508W        W88044  31.055  11.274  11.518
28509W        W88045   9.351   3.919   3.230
28510W        W88046  33.445  44.438  10.450
28511W        W88047  11.303  15.629  10.597
28512W        W88048   5.931  29.554  12.893
28513W        W88049  19.194  33.527   3.868
28514W        W88050  42.477  20.175  10.939
28515W        W88051  32.101  32.893  13.059
28516W        W88052  12.142  31.112   2.670
28517W        W88053  21.162  26.557   0.280
28518W        W88054   9.674  11.673  14.930
28519W        W88055   8.710  33.450  10.555
28520W        W88056  29.075   3.251   1.916
28521W        W88057  17.251  29.046  10.538
28522W        W88058  36.400  18.070   3.290
28523W        W88059   0.260   1.847   0.375
28524W        W88060  24.997   9.242  12.829
28525W        W88061  22.124  37.948  12.000
28526W        W88062  41.475   3.231  11.870
28527W        W88063  14.825   0.323   0.420
28528W        W88064  18.266  14.740  10.983
28529W        W88065  42.849  28.451  11.126
28530W        W88066  39.512  10.823   4.773
28531W        W88067  10.160   0.803   2.263
28532W        W88068  13.171  29.981  12.946
28533W        W88069  16.668  44.486   1.250
28534W        W88070  16.601   4.385  12.869
28535W        W88071  41.886  18.586   1.260
28536W        W88072   0.371   0.362   4.602
28537W        W88073  30.974  20.709   3.661
28538W        W88074  40.400  33.453   1.266
28539W        W88075   1.891   6.862  13.052
28540W        W88076  14.717  32.006   0.789
28541W        W88077  19.066  24.199   4.700
28542W        W88078  16.190  42.825  12.884
28543W        W88079  35.546  17.165   1.395
28544W        W88080  18.649  30.113   3.677
28545W        W88081   5.907  26.559   2.196
28546W        W88082  12.733  10.721   4.197
28547W        W88083  23.218  11.263   4.232
28548W        W88084  39.875   3.952   1.217
28549W        W88085  25.544  24.103  10.054
28550W        W88086   2.407  23.687  13.449
28551W        W88087  11.622  29.080  13.349
28552W        W88088  11.754  12.201  10.919
28553W        W88089  40.410  17.605   0.445
28554W        W88090   2.231   5.822  12.824
28555W        W88091  19.187  20.144   3.686
28556W        W88092   7.340  26.511   3.671
28557W        W88093  12.317  17.674  13.979
28558W        W88094   3.274   8.806   2.388
28559W        W88095  14.283   2.814  13.812
28560W        W88096   2.248  39.353   0.898
28561W        W88097  33.047  15.678  10.061
28562W        W88098  24.022  22.598   5.094
28563W        W88099  30.934   2.803  10.407
28564W        W88100  44.281  36.964  11.396
28565W        W88101   1.307  42.840   3.774
28566W        W88102  23.204  15.123   0.355
28567W        W88103   3.386  21.142   2.243
28568W        W88104  40.863   0.405   4.645
28569W        W88105  44.414  27.486   0.345
28570W        W88106   0.951  12.725   4.716
28571W        W88107  37.902  29.129   3.632
28572W        W88108  44.313  14.722   1.438
28573W        W88109  39.931  13.251  10.476
28574W        W88110  19.661   3.857   3.799
28575W        W88111  41.419  13.699  11.026
28576W        W88112  35.493  29.001  13.855
28577W        W88113   7.901  36.951  14.848
28578W        W88114  44.920  40.913   0.951
28579W        W88115  14.789  29.000   1.326
28580W        W88116  11.839  44.437  12.083
28581W        W88117  28.942  40.514  11.469
28582W        W88118  42.807  28.949  13.983
28583W        W88119   8.401  17.232  14.307
28584W        W88120   6.420  15.279  10.581
28585W        W88121  35.065  39.444  14.766
28586W        W88122   5.236  16.297   4.674
28587W        W88123  39.430  21.073   4.833
28588W        W88124  28.544  32.018   9.966
28589W        W88125  39.980  23.640  14.022
28590W        W88126   0.977  26.031  13.024
28591W        W88127   2.449  22.747   3.344
28592W        W88128   4.926  39.059  13.447
28593W        W88129  28.488  36.403  11.042
28594W        W88130  34.564  31.046  11.413
28595W        W88131   4.204  22.201  13.825
28596W        W88132  39.897  31.093   0.379
28597W        W88133  13.256  13.347  13.826
28598W        W88134  14.774   2.231   3.384
28599W        W88135   1.340  18.250  10.448
28600W        W88136  12.120   7.304   0.323
28601W        W88137  32.118  35.939   2.848
28602W        W88138  23.695  32.106   4.134
28603W        W88139   9.310   7.848  11.373
28604W        W88140  22.176  34.379   0.267
28605W        W88141  27.635  35.999   4.749
28606W        W88142   0.314  10.800   3.201
28607W        W88143   1.455  28.501  14.948
28608W        W88144   0.985   6.333   4.247
28609W        W88145  38.894  30.979  13.911
28610W        W88146  44.003  32.416   3.843
28611W        W88147  38.853   8.661  13.323
28612W        W88148   2.265   1.850   3.353
28613W        W88149   8.822  16.702   1.308
28614W        W88150  14.726   1.312  11.906
28615W        W88151   9.787  18.274  12.875
28616W        W88152  11.328  21.156   3.637
28617W        W88153  12.696  36.873  12.001
28618W        W88154  38.418  12.177   3.226
28619W        W88155   5.796  41.424   3.663
28620W        W88156  12.148  17.745  11.429
28621W        W88157  22.036  37.015  13.329
28622W        W88158   8.392  37.916   1.244
28623W        W88159  40.386  39.056  12.526
28624W        W88160  34.495  15.619   2.366
28625W        W88161   6.770  44.843   4.700
28626W        W88162  17.759  16.160   3.743
28627W        W88163  22.677  40.535  12.426
28628W        W88164  33.005  40.368  11.877
28629W        W88165  22.613   5.875   2.701
28630W        W88166  41.375   3.391  14.858
28631W        W88167  38.399   7.172  12.339
28632W        W88168  43.294  41.961  13.318
28633W        W88169  42.311   9.176   0.363
28634W        W88170  21.652   6.220  12.041
28635W        W88171   4.876  33.472   5.161
28636W        W88172  39.470  43.921   2.409
28637W        W88173  25.522  31.554   2.310
28638W        W88174   8.700  27.683   0.747
28639W        W88175  43.958  10.311   5.797
28640W        W88176  29.066  20.629   3.150
28641W        W88177  24.093  35.558  12.913
28642W        W88178  29.609  10.634  11.443
28643W        W88179  35.999  14.241  13.811
28644W        W88180  44.282   6.863  14.816
28645W        W88181  22.009  24.586   1.428
28646W        W88182  25.501  31.137   2.774
28647W        W88183  32.964  29.009  14.411
28648W        W88184  17.599  28.626   2.279
28649W        W88185  15.238  20.197   1.732
28650W        W88186   9.825  34.451  11.587
28651W        W88187  13.701  17.112  13.047
28652W        W88188  13.779  23.665   1.243
28653W        W88189  14.817  29.516   1.295
28654W        W88190  21.529  11.253   4.706
28655W        W88191  27.983  21.721   5.181
28656W        W88192   1.947  41.924  11.477
28657W        W88193   0.970  11.200  11.589
28658W        W88194  31.126  28.493   3.242
28659W        W88195  14.278   7.693  10.039
28660W        W88196  19.534   9.659  11.427
28661W        W88197  32.508  20.654  10.415
28662W        W88198   1.806  17.641   4.612
28663W        W88199  26.958  30.154   2.815
28664W        W88200  37.954   3.877   1.839
28665W        W88201  38.514  26.000   3.251
28666W        W88202   5.257  28.451   1.864
28667W        W88203  43.290  38.365   0.824
28668W        W88204   8.797  19.541   0.794
28669W        W88205   1.425  14.592   4.252
28670W        W88206  44.812  37.018   1.440
28671W        W88207   1.267  20.108   0.775
28672W        W88208   7.819  31.515  13.531
28673W        W88209  31.572   8.211   3.794
28674W        W88210  43.769  25.983  12.427
28675W        W88211  34.017   9.351   3.713
28676W        W88212  29.639  39.954   0.930
28677W        W88213  35.408  13.331   2.379
28678W        W88214  10.343  33.414  11.409
28679W        W88215   0.791  34.885   1.354
28680W        W88216  28.548  15.116   0.944
28681W        W88217   7.816  10.676   4.603
28682W        W88218  41.523  14.211   2.672
28683W        W88219   3.436  37.517  12.549
28684W        W88220  18.561   0.449   3.374
28685W        W88221  26.627   3.801  12.538
28686W        W88222  21.234  33.926  12.088
28687W        W88223  19.616  16.303   0.373
28688W        W88224  20.603  41.937   1.699
28689W        W88225  43.320   8.780   1.296
28690W        W88226  31.999   2.339  13.960
28691W        W88227  13.287  34.030  12.405
28692W        W88228  16.667   2.832   3.203
28693W        W88229  32.061  34.986   4.732
28694W        W88230  21.565  24.497  13.318
28695W        W88231   2.906  41.502  14.293
28696W        W88232   3.953  38.071  13.335
28697W        W88233  11.825  27.116   2.357
28698W        W88234   0.471  16.602  10.907
28699W        W88235  21.167  17.715  11.542
28700W        W88236  31.112  17.289   0.274
28701W        W88237   6.320  12.752  11.034
28702W        W88238  30.612  24.553  14.436
28703W        W88239  38.836  18.595  14.977
28704W        W88240   4.810  34.536  14.014
28705W        W88241  20.723  24.221   0.961
28706W        W88242  11.779  20.131   1.410
28707W        W88243   5.270  28.549  14.869
28708W        W88244  32.087  10.632  12.871
28709W        W88245  24.654  19.762  13.375
28710W        W88246  18.217   1.878   0.739
28711W        W88247   7.794  29.466  11.866
28712W        W88248  37.473  34.026  13.390
28713W        W88249  15.203  20.051  12.920
28714W        W88250  21.159  23.517  11.559
28715W        W88251   5.196  24.653   2.309
28716W        W88252  40.333  12.761   4.803
28717W        W88253  26.135  28.099   1.818
28718W        W88254  38.962  23.600   3.636
28719W        W88255   3.339  40.866  13.051
28720W        W88256  11.793  30.426   9.935
28721W        W88257  42.907  19.570  12.018
28722W        W88258   4.866  37.491  11.891
28723W        W88259   8.355   5.797  10.914
28724W        W88260  40.336  37.488  12.000
28725W        W88261   6.832   7.850   4.645
28726W        W88262   8.167  40.347   2.721
28727W        W88263   7.303  19.162   2.277
28728W        W88264  10.753  18.700   0.825
28729W        W88265  18.607  31.574   0.404
28730W        W88266  23.211  37.502   0.350
28731W        W88267  44.917  20.623   0.902
28732W        W88268  40.925  26.149   3.791
28733W        W88269   7.853   9.265   3.153
28734W        W88270  10.357   2.892  13.881
28735W        W88271   5.696   2.466   2.872
28736W        W88272  26.975  28.992   2.266
28737W        W88273  22.161  44.343  14.304
28738W        W88274  40.507  14.115   0.330
28739W        W88275  12.269  30.460  14.783
28740W        W88276  25.112  29.956  12.458
28741W        W88277  16.115  14.764  14.997
28742W        W88278  33.486  17.680   1.718
28743W        W88279  44.436  33.523  12.572
28744W        W88280  10.794  12.832  11.098
28745W        W88281   7.264  40.825  13.413
28746W        W88282  40.895  39.505  14.312
28747W        W88283  15.199   2.810  13.333
28748W        W88284   6.844  10.345   3.690
28749W        W88285  43.478  29.941   0.771
28750W        W88286  35.481  27.493   3.833
28751W        W88287   6.852  33.129  14.903
28752W        W88288  39.549  18.776   4.663
28753W        W88289  23.035  25.215  12.497
28754W        W88290  30.546  33.596  11.464
28755W        W88291  24.080  37.380  11.990
28756W        W88292  31.089  39.433  10.961
28757W        W88293   2.336   1.750  10.582
28758W        W88294  24.559  42.918  12.996
28759W        W88295  28.487   4.390   0.888
28760W        W88296  17.076  12.635   0.815
28761W        W88297  20.756  36.446   1.325
28762W        W88298  43.939   7.736   0.813
28763W        W88299  23.091  39.853   3.356
28764W        W88300  42.404  16.609  13.876
28765W        W88301  13.729  21.713  12.521
28766W        W88302  38.970   2.967  14.446
28767W        W88303  38.414  41.487  11.457
28768W        W88304   2.461  25.468   2.314
28769W        W88305  29.445   9.188  10.430
28770W        W88306   1.249   5.749  12.030
28771W        W88307  19.239  10.276   0.311
28772W        W88308   6.875  30.657  14.015
28773W        W88309  41.419   3.312  13.349
28774W        W88310   5.343  27.597   4.154
28775W        W88311   7.394  32.051   4.721
28776W        W88312  20.723  39.952   3.293
28777W        W88313  22.736   7.771   3.670
28778W        W88314  26.691  19.135  13.000
28779W        W88315  41.505  43.834  14.450
28780W        W88316   6.915  10.349  13.429
28781W        W88317   1.344  24.118  12.370
28782W        W88318  10.190  25.986   1.297
28783W        W88319  40.833   5.844   2.400
28784W        W88320  38.343  28.059  13.876
28785W        W88321  31.904  40.545  12.839
28786W        W88322  43.936  13.606   0.812
28787W        W88323  44.265   2.437  12.951
28788W        W88324   8.176  23.727  12.892
28789W        W88325  16.312  26.512  14.825
28790W        W88326  19.549  26.999  14.926
28791W        W88327  36.430  23.492  13.448
28792W        W88328  22.200  10.243   3.635
28793W        W88329  34.993  43.365  11.016
28794W        W88330  27.640  32.077  14.415
28795W        W88331  39.859   9.153   3.342
28796W        W88332  10.696  31.572  11.983
28797W        W88333   8.344  19.640  14.879
28798W        W88334  40.439  35.584  13.543
28799W        W88335  25.034  36.465  12.985
28800W        W88336  17.604  21.594  12.949
28801W        W88337  16.143  12.131   2.245
28802W        W88338  32.555  30.147  11.893
28803W        W88339   7.250  38.018   2.811
28804W        W88340  17.153  22.743  12.910
28805W        W88341  21.746   5.301  13.330
28806W        W88342  11.342  42.814  14.311
28807W        W88343   2.332   0.366   1.837
28808W        W88344  12.339   8.213   5.262
28809W        W88345  15.101  34.048  11.570
28810W        W88346  38.356  26.045  11.912
28811W        W88347   4.286  33.458   3.368
28812W        W88348  31.070  38.512   4.260
28813W        W88349   5.764   3.253   3.266
28814W        W88350   1.471  14.317   2.234
28815W        W88351  33.959  38.475   2.316
28816W        W88352   0.333  43.966  11.609
28817W        W88353   9.825  34.456  12.421
28818W        W88354   5.285   4.842   4.340
28819W        W88355  21.644  26.671  12.037
28820W        W88356  32.582  28.608  11.123
28821W        W88357  14.626  26.006  12.043
28822W        W88358  35.479  18.149  14.457
28823W        W88359  19.638  42.402   2.275
28824W        W88360  28.618  37.388   9.999
28825W        W88361  38.525   4.827  11.541
28826W        W88362  40.945  10.857  11.589
28827W        W88363  42.982  21.592  11.526
28828W        W88364  27.474  33.507   0.872
28829W        W88365   2.292  16.259  12.961
28830W        W88366  38.845  40.317  10.993
28831W        W88367  23.082  35.942   1.724
28832W        W88368  17.771  34.582  12.899
28833W        W88369  35.019  31.072   0.745
28834W        W88370  20.176  12.349  13.480
28835W        W88371  20.220  36.901   0.334
28836W        W88372  28.179  16.127  11.525
28837W        W88373  21.201   5.327   2.744
28838W        W88374  23.218  32.514  11.381
28839W        W88375  14.224  20.123   2.781
28840W        W88376  35.987  34.369   4.638
28841W        W88377  34.554   5.312   2.675
28842W        W88378  10.715  27.646   9.977
28843W        W88379  21.144  43.935  10.575
28844W        W88380  22.562   2.849   3.745
28845W        W88381  17.755   4.283   3.359
28846W        W88382   8.822  44.961  14.981
28847W        W88383  39.834  34.036  14.015
28848W        W88384  42.840  20.668  11.602
28849W        W88385  33.055  29.065   4.180
28850W        W88386  14.750  14.665   4.119
28851W        W88387  29.625   5.767   3.323
28852W        W88388  44.803  34.066  13.496
28853W        W88389   6.894   4.427   2.787
28854W        W88390   2.962  21.038   0.788
28855W        W88391  38.968  26.048   3.252
28856W        W88392  20.711  16.584   2.894
28857W        W88393  18.170   0.476  14.407
28858W        W88394  16.776  42.820  14.834
28859W        W88395  42.848   4.293   4.320
28860W        W88396  38.877  27.615   2.197
28861W        W88397  27.992  13.133  13.841
28862W        W88398  12.752  22.034   0.966
28863W        W88399  32.060  23.606   2.767
28864W        W88400  41.477  23.526  12.853
28865W        W88401  23.630  32.107   2.670
28866W        W88402  31.481  15.582   2.305
28867W        W88403  18.200  43.977   3.749
28868W        W88404  10.295  16.570  12.823
28869W        W88405   2.870   0.788   2.767
28870W        W88406   7.231  34.411  14.988
28871W        W88407  14.131   4.853  14.836
28872W        W88408  38.976  37.483   9.925
28873W        W88409  13.616  28.018  11.991
28874W        W88410  21.020  38.536  12.901
28875W        W88411  34.456  27.053  11.454
28876W        W88412   6.881  16.782   0.837
28877W        W88413   7.677  33.941   3.769
28878W        W88414  28.574   6.884  12.015
28879W        W88415   8.210   0.830  12.465
28880W        W88416  36.404  15.619   2.767
28881W        W88417  42.387  43.333  10.537
28882W        W88418  44.790  11.686   2.224
28883W        W88419   8.187  44.402   0.873
28884W        W88420  17.712  24.576   0.829
28885W        W88421  18.234  36.886   1.846
28886W        W88422  18.729   0.477  11.373
28887W        W88423  21.254  23.495   0.736
28888W        W88424  31.077   8.282   0.327
28889W        W88425  10.776  10.662   0.951
28890W        W88426   7.802  32.560  12.080
28891W        W88427   1.876  31.063   0.411
28892W        W88428   0.805  17.593   2.785
28893W        W88429  18.717  26.497  12.005
28894W        W88430  16.108  37.893  10.539
28895W        W88431  12.142  26.500   0.869
28896W        W88432  41.398   8.275  11.570
28897W        W88433  17.740   5.414  10.477
28898W        W88434  41.340  40.831   0.847
28899W        W88435  43.453  22.242   0.957
28900W        W88436  33.966  11.319  12.836
28901W        W88437  15.215  30.945   2.402
28902W        W88438  13.632  32.118   3.376
28903W        W88439  34.995  36.019   1.335
28904W        W88440  28.982  31.131  11.917
28905W        W88441  25.013  36.986   1.256
28906W        W88442   5.286  19.120   2.332
28907W        W88443  29.126  43.859   3.283
28908W        W88444  38.364  44.920   2.339
28909W        W88445  26.060  18.615   3.812
28910W        W88446  25.217  35.046  14.945
28911W        W88447  32.006  16.088   0.796
28912W        W88448  43.877  25.538   2.228
28913W        W88449  20.559  40.360   3.709
28914W        W88450  26.685  26.687   3.638
28915W        W88451   2.294   4.375   0.435
28916W        W88452  23.672  22.659  12.029
28917W        W88453  13.671  29.957  12.465
28918W        W88454   4.762  43.889  12.498
28919W        W88455  22.129  11.853   4.288
28920W        W88456  34.101  11.201   3.149
28921W        W88457  10.214  36.899  11.903
28922W        W88458  22.061   7.188  14.919
28923W        W88459  33.130  30.971  14.314
28924W        W88460  44.407  32.122  14.906
28925W        W88461  13.284   7.355   3.259
28926W        W88462  23.040   2.357   2.896
28927W        W88463  30.955  17.068  13.867
28928W        W88464  31.934  29.941  11.565
28929W        W88465  12.758  44.773  14.010
28930W        W88466  40.006  40.395   3.238
28931W        W88467  35.444  21.262   1.901
28932W        W88468  40.371  41.369  13.469
28933W        W88469  13.106  25.163  11.984
28934W        W88470  28.107   0.409   1.750
28935W        W88471  19.671  42.912   2.186
28936W        W88472  37.421   7.379   3.707
28937W        W88473  26.038  22.575  13.910
28938W        W88474  10.788   0.286  13.533
28939W        W88475  34.467  27.478  12.872
28940W        W88476  13.155  34.910  13.924
28941W        W88477  39.421  22.997  13.801
28942W        W88478  43.329  44.827  13.791
28943W        W88479   6.862   0.957  13.986
28944W        W88480  42.446  18.672   1.339
28945W        W88481  35.023  37.854   4.706
28946W        W88482  28.473  38.842   2.871
28947W        W88483  34.098  20.561  10.904
28948W        W88484   2.917  31.029  12.476
28949W        W88485  16.647   1.397  10.931
28950W        W88486  40.446  25.634  14.808
28951W        W88487  32.067  41.399  12.087
28952W        W88488   9.830  34.493  11.126
28953W        W88489   5.297  25.042  11.120
28954W        W88490   3.250  23.128   0.472
28955W        W88491  15.086  40.347   1.315
28956W        W88492  28.033   5.323   3.260
28957W        W88493   4.403  31.096   3.291
28958W        W88494  13.818  37.926   2.303
28959W        W88495  28.146   7.240   0.868
28960W        W88496   1.735  40.548  11.565
28961W        W88497  44.877  33.887  10.569
28962W        W88498  30.128  33.899   3.831
28963W        W88499  27.572  32.933   4.723
28964W        W88500  42.514  16.794  14.938
28965W        W88501   5.817  32.600   2.814
28966W        W88502   8.763  19.089  13.319
28967W        W88503  22.183   0.878   4.620
28968W        W88504  22.042  18.720   9.935
28969W        W88505  26.033  34.096   0.407
28970W        W88506   9.885  35.008  14.886
28971W        W88507  15.246  17.627   2.785
28972W        W88508  14.271  26.659  11.117
28973W        W88509  17.671  39.446   2.700
28974W        W88510  29.114  27.011  10.509
28975W        W88511  31.027  32.479   0.817
28976W        W88512   2.730   4.855   2.332
28977W        W88513  32.425  18.780  12.918
28978W        W88514   4.283  36.989   1.813
28979W        W88515  38.343   3.239  13.374
28980W        W88516  29.574   6.387   0.381
28981W        W88517  23.567  27.491  12.979
28982W        W88518  41.477  32.443   4.148
28983W        W88519  34.468  10.704  12.566
28984W        W88520  24.584  11.765   3.638
28985W        W88521  28.063   3.353  11.051
28986W        W88522  17.190   9.827   0.871
28987W        W88523  11.698  39.936  14.515
28988W        W88524  36.545   4.794  11.571
28989W        W88525  38.072  35.926  12.860
28990W        W88526  12.347   3.341   4.682
28991W        W88527  10.733   0.983   0.897
28992W        W88528  36.988  31.085   4.262
28993W        W88529   8.667  30.597   2.380
28994W        W88530  15.290   8.846  14.316
28995W        W88531  38.876  21.529   2.836
28996W        W88532  13.326  34.902   0.736
28997W        W88533  11.337  39.814  11.502
28998W        W88534  13.205  22.737   2.240
28999W        W88535  15.813   4.854   5.135
29000W        W88536  23.068  34.513   3.273
29001W        W88537  44.948   5.411  12.960
29002W        W88538  32.890  31.137  10.642
29003W        W88539   2.292  16.106  11.441
29004W        W88540  40.862   9.289   2.297
29005W        W88541  35.593  21.654  14.510
29006W        W88542  14.712  20.591   4.686
29007W        W88543  35.522   1.846   2.369
29008W        W88544  39.483  17.608  10.599
29009W        W88545  15.120   2.760   2.235
29010W        W88546  10.762  29.055  14.836
29011W        W88547  44.953  24.158  11.064
29012W        W88548   1.243  26.631  11.892
29013W        W88549   4.273  30.145   3.148
29014W        W88550  34.873  37.396  11.462
29015W        W88551  34.918  14.767   4.155
29016W        W88552  42.905  34.376  12.913
29017W        W88553  14.656  12.664  12.524
29018W        W88554  36.408  20.219   4.739
29019W        W88555  40.531   0.867   0.399
29020W        W88556   3.385  22.584   1.912
29021W        W88557  15.656   1.350   4.691
29022W        W88558   9.796   8.797  12.498
29023W        W88559  29.058  29.453   3.276
29024W        W88560  13.340   6.857  13.912
29025W        W88561  28.939  21.664   1.744
29026W        W88562  41.792  14.792  13.020
29027W        W88563   1.352  24.624  11.027
29028W        W88564  12.781  12.329  11.379
29029W        W88565  25.577  13.179   4.205
29030W        W88566  16.734  26.045   1.741
29031W        W88567  37.571  18.574   4.642
29032W        W88568  21.589  30.120  11.581
29033W        W88569  33.088   2.947  13.961
29034W        W88570   6.686  18.661  12.855
29035W        W88571  12.667  15.297   3.371
29036W        W88572  17.240  35.552   2.390
29037W        W88573  23.227   4.708   4.763
29038W        W88574  25.166  16.303   2.410
29039W        W88575  44.338  22.697  14.445
29040W        W88576  36.045  31.898   4.116
29041W        W88577  34.891  38.542  12.541
29042W        W88578  40.386   5.197  13.336
29043W        W88579   6.768  40.358   4.689
29044W        W88580  42.849  24.214   1.792
29045W        W88581  33.594  14.750  14.857
29046W        W88582  16.767  11.293   2.747
29047W        W88583  39.831  31.526  14.480
29048W        W88584   9.205  33.988   4.838
29049W        W88585  33.120   0.255   2.706
29050W        W88586  14.262   7.358   0.787
29051W        W88587  22.232  20.249  12.984
29052W        W88588  15.240  20.244   4.263
29053W        W88589  29.962  32.547   1.700
29054W        W88590  38.034  44.905  12.502
29055W        W88591  22.722  41.877  14.759
29056W        W88592  30.976  14.153   0.905
29057W        W88593   2.425   2.250   0.252
29058W        W88594  31.985  24.618   1.842
29059W        W88595  21.614   1.805   0.945
29060W        W88596  12.276  36.395  11.034
29061W        W88597  44.875  44.772   4.352
29062W        W88598  35.017  41.828   3.196
29063W        W88599  32.979   3.417  12.891
29064W        W88600  10.815  40.424  11.565
29065W        W88601   1.924  41.403   1.830
29066W        W88602  12.694   4.900   4.333
29067W        W88603  40.427  25.989  12.388
29068W        W88604  39.417  33.555   2.325
29069W        W88605   6.746   9.302  14.419
29070W        W88606  21.700  24.984   0.772
29071W        W88607  15.244  44.503   4.807
29072W        W88608  13.812   2.234   1.353
29073W        W88609  38.068  10.217  11.085
29074W        W88610  43.349  36.093  11.890
29075W        W88611  31.095  29.573   1.755
29076W        W88612  11.644  31.150  14.514
29077W        W88613  16.221   4.435  11.012
29078W        W88614  19.726  24.660  12.377
29079W        W88615  20.766  17.180   0.436
29080W        W88616   4.340  18.653  14.810
29081W        W88617   0.442  13.263   2.668
29082W        W88618   5.299  13.742  13.425
29083W        W88619  36.371  25.706   0.832
29084W        W88620  30.067  16.222   4.832
29085W        W88621  19.185  34.500   2.370
29086W        W88622  22.706  34.095  14.311
29087W        W88623  17.240   3.928  11.947
29088W        W88624  36.878  15.586  11.065
29089W        W88625  38.514   7.783  14.455
29090W        W88626   0.469  16.683   1.830
29091W        W88627  44.968  22.023   2.182
29092W        W88628  30.980  43.274   1.934
29093W        W88629  44.860   9.352  11.013
29094W        W88630  18.754  12.130   0.770
29095W        W88631  10.357   0.330   2.324
29096W        W88632  20.607  43.455   0.247
29097W        W88633  23.064  41.390  11.398
29098W        W88634  43.928  34.547  11.403
29099W        W88635  26.049  39.359  14.841
29100W        W88636   8.325  20.630  12.857
29101W        W88637  33.876  12.812   4.269
29102W        W88638  10.229   6.778  12.852
29103W        W88639  28.510  40.966   1.741
29104W        W88640   8.864   2.789  13.439
29105W        W88641  36.042  14.170   2.771
29106W        W88642  38.539   9.719  14.494
29107W        W88643   0.927  14.325   1.242
29108W        W88644  28.110  40.938  10.599
29109W        W88645  13.812  13.687  14.853
29110W        W88646  40.375  32.432   1.697
29111W        W88647  38.413  15.326   4.652
29112W        W88648  28.505  11.189   3.685
29113W        W88649  38.017  12.135   0.745
29114W        W88650   7.260  18.701   4.271
29115W        W88651  35.545  26.084   3.167
29116W        W88652  26.056  43.832   4.137
29117W        W88653  10.156  20.666   4.302
29118W        W88654  20.574  19.649   0.339
29119W        W88655  42.930  23.601   1.916
29120W        W88656  43.478  11.854   0.285
29121W        W88657  25.056  21.176  12.347
29122W        W88658  27.100   2.238   4.218
29123W        W88659  40.420  28.962  10.609
29124W        W88660   4.385  17.102   1.855
29125W        W88661  33.013   8.796   1.896
29126W        W88662   4.843  24.161  10.941
29127W        W88663  41.350   9.227   1.860
29128W        W88664  38.479  12.250   3.634
29129W        W88665  27.967  20.687  10.437
29130W        W88666  14.290   1.761  12.571
29131W        W88667  14.764  43.507  12.025
29132W        W88668  41.940  44.978  14.838
29133W        W88669  44.415  29.963   3.183
29134W        W88670   5.384  29.446   4.738
29135W        W88671  28.081  15.590   3.258
29136W        W88672  29.569  19.103   2.665
29137W        W88673   7.880  41.994   3.376
29138W        W88674  22.194  23.728  12.372
29139W        W88675  11.301  22.719   0.481
29140W        W88676  10.148   8.191   2.191
29141W        W88677   4.312  44.954   2.270
29142W        W88678  33.923  17.719   1.879
29143W        W88679  37.562  20.688   0.350
29144W        W88680  34.491  17.682  11.906
29145W        W88681  42.449  20.267   0.443
29146W        W88682  23.093   1.265  12.068
29147W        W88683  30.495  20.210   0.801
29148W        W88684  13.739  35.898   3.792
29149W        W88685  21.247   4.297  11.944
29150W        W88686  35.517  12.297   4.812
29151W        W88687   3.770  40.350  11.956
29152W        W88688  32.062  10.823   2.709
29153W        W88689  44.379   0.944  13.858
29154W        W88690   5.915  39.466  13.360
29155W        W88691  25.181  26.679  14.313
29156W        W88692  20.113   1.415   2.287
29157W        W88693   4.317   7.848  14.835
29158W        W88694   4.766  32.908  14.912
29159W        W88695  21.566  39.016   3.771
29160W        W88696   6.407  19.079  12.835
29161W        W88697   4.375  18.188  13.483
29162W        W88698  16.285  36.487  13.051
29163W        W88699  35.952  28.641  14.931
29164W        W88700  32.435   7.395  12.410
29165W        W88701  18.631  34.542   3.275
29166W        W88702  16.193   3.709  11.586
29167W        W88703  27.953   8.744   9.974
29168W        W88704   1.288   3.412   1.774
29169W        W88705   1.436   7.841   0.840
29170W        W88706  14.129  24.043  12.465
29171W        W88707  18.053  34.934  13.799
29172W        W88708  38.500  37.433   1.771
29173W        W88709   5.725  22.674   4.288
29174W        W88710  33.463   4.842   2.281
29175W        W88711  15.687  16.666  11.420
29176W        W88712  13.624  41.525  12.934
29177W        W88713  17.165  34.534  11.492
29178W        W88714  18.668  38.002   3.369
29179W        W88715   9.754  17.567   4.793
29180W        W88716  28.105   3.413  12.564
29181W        W88717  21.567   5.698  11.555
29182W        W88718  40.533   6.394  12.946
29183W        W88719  32.890  36.474  11.050
29184W        W88720  27.478  10.201   4.193
29185W        W88721  13.701  11.862  10.641
29186W        W88722  25.572   5.223   5.780
29187W        W88723  22.008  17.612   2.694
29188W        W88724  17.590   1.903  13.460
29189W        W88725   3.440  19.125   1.876
29190W        W88726   8.310   0.909   3.316
29191W        W88727  29.978   0.405   1.852
29192W        W88728  26.188  27.132   1.242
29193W        W88729  16.808  17.141   1.744
29194W        W88730  15.150  36.546  11.961
29195W        W88731  37.416   3.792   3.815
29196W        W88732  39.023  37.369   5.200
29197W        W88733  10.171  39.923   4.184
29198W        W88734  14.765  42.991  12.090
29199W        W88735  34.019  35.428  14.771
29200W        W88736  21.688  27.466   4.642
29201W        W88737  27.499  14.798  11.406
29202W        W88738  14.739   7.397   2.894
29203W        W88739  20.716  19.241  10.518
29204W        W88740  23.221  14.121   4.656
29205W        W88741   6.692   5.869   4.209
29206W        W88742  27.111  11.236   3.209
29207W        W88743  16.295  22.551   0.318
29208W        W88744  16.277   5.353  11.395
29209W        W88745  29.529  44.847   1.225
29210W        W88746  41.505  14.770  12.511
29211W        W88747  38.352   4.842  10.576
29212W        W88748  34.609   6.383   0.448
29213W        W88749  18.574  31.627  13.541
29214W        W88750  23.998  28.034  12.926
29215W        W88751   5.852  34.438   3.754
29216W        W88752  14.806  16.665  14.981
29217W        W88753  43.977  14.175  13.820
29218W        W88754  36.995  11.697   2.338
29219W        W88755  38.481  43.441  13.050
29220W        W88756   7.755  13.191   3.701
29221W        W88757  18.641  23.025  12.388
29222W        W88758  28.014  43.880  10.584
29223W        W88759  17.682  22.609  12.963
29224W        W88760   1.848   8.205  10.966
29225W        W88761  12.307  19.709   0.454
29226W        W88762   2.286  15.747  10.101
29227W        W88763  41.975   5.243   3.280
29228W        W88764  19.149  20.224  12.484
29229W        W88765   7.362  34.468   0.311
29230W        W88766  27.642  19.665  14.996
29231W        W88767  23.984   6.922  12.400
29232W        W88768  38.888  29.101   3.826
29233W        W88769  36.078  34.907  13.029
29234W        W88770  26.545   1.823   9.983
29235W        W88771  20.039  40.933  12.851
29236W        W88772  12.818  24.676   9.985
29237W        W88773  23.685   9.706   4.198
29238W        W88774  35.378   0.437   2.370
29239W        W88775  37.039  34.423   4.789
29240W        W88776   6.840  21.254   5.205
29241W        W88777   6.194  26.985   5.194
29242W        W88778   4.214  33.617   3.800
29243W        W88779  44.296   2.335   2.848
29244W        W88780   0.404  34.479  12.476
29245W        W88781   6.364  39.925   1.218
29246W        W88782  20.653  34.568  13.474
29247W        W88783  18.596  43.391   1.707
29248W        W88784  10.684  17.801   1.830
29249W        W88785  33.557  25.639  13.924
29250W        W88786  28.037  29.972  12.953
29251W        W88787  28.944  11.862  11.476
29252W        W88788  32.469  32.090  13.363
29253W        W88789  39.528  23.168   3.762
29254W        W88790  35.103  39.004  13.454
29255W        W88791  39.398   6.254  14.325
29256W        W88792  17.586  37.959   4.179
29257W        W88793  22.667  12.801   5.295
29258W        W88794  34.971  22.176  13.009
29259W        W88795  20.202   1.753  11.972
29260W        W88796  33.422  10.204  12.010
29261W        W88797  33.613  34.615  11.046
29262W        W88798  41.532  36.387  11.439
29263W        W88799  34.869  30.019   1.805
29264W        W88800  36.931  41.458  10.472
29265W        W88801  14.793  11.802  11.492
29266W        W88802   2.872   8.310  14.434
29267W        W88803  18.647   3.736   2.727
29268W        W88804  28.009  25.648  12.513
29269W        W88805  14.168  12.140  14.902
29270W        W88806  15.306  17.676   0.922
29271W        W88807   1.349  15.683  11.531
29272W        W88808  19.134  12.845  10.906
29273W        W88809  27.025  39.379   4.232
29274W        W88810  24.077  17.201   1.725
29275W        W88811  23.161  11.339   3.264
29276W        W88812  34.508   1.744   4.129
29277W        W88813   5.327  33.102  10.937
29278W        W88814  26.139   8.376  11.445
29279W        W88815  26.548  15.683   3.253
29280W        W88816  22.225   6.800  13.806
29281W        W88817   3.869   7.857   2.772
29282W        W88818  35.053  27.054   4.274
29283W        W88819  11.708  34.505  10.997
29284W        W88820  23.161   4.795  13.051
29285W        W88821  15.725  18.159  12.426
29286W        W88822   4.859  42.905   1.239
29287W        W88823  23.118  16.173  14.795
29288W        W88824  22.705  37.831   3.224
29289W        W88825  11.656  20.238  10.608
29290W        W88826  21.023  11.626   2.396
29291W        W88827   3.939  17.606   2.232
29292W        W88828  12.654  27.451   4.819
29293W        W88829  28.047  21.181   0.764
29294W        W88830  31.638  10.669   2.849
29295W        W88831  22.692  19.671  10.509
29296W        W88832  30.570  20.247  12.024
29297W        W88833  39.885  43.929  10.481
29298W        W88834  34.411  18.270  14.963
29299W        W88835  34.551  34.888   2.386
29300W        W88836  24.684  21.051   2.853
29301W        W88837  17.734  30.581  12.948
29302W        W88838  35.048  31.597   4.730
29303W        W88839  13.337   3.309   0.310
29304W        W88840   1.373  28.145  13.848
29305W        W88841  13.342  24.095   4.342
29306W        W88842  38.967   3.238   3.306
29307W        W88843  23.111  26.465  13.375
29308W        W88844  24.561  34.604  13.499
29309W        W88845  39.850   6.402   0.966
29310W        W88846  32.588  40.841   3.657
29311W        W88847  43.979  22.645  14.358
29312W        W88848  37.018  18.215  12.971
29313W        W88849   0.342  37.458  14.323
29314W        W88850  15.157  14.745   3.629
29315W        W88851   7.210  14.114   1.777
29316W        W88852  39.886  22.192  11.971
29317W        W88853  38.458   4.251   4.819
29318W        W88854  41.893  16.617   3.649
29319W        W88855   6.779  29.980  11.922
29320W        W88856  18.739   1.913  10.481
29321W        W88857  21.556   9.149   1.761
29322W        W88858  28.100  19.699   2.400
29323W        W88859  42.873   8.871   4.669
29324W        W88860   3.936  26.145  12.969
29325W        W88861  15.277  13.791  13.005
29326W        W88862   4.797   4.847  13.539
29327W        W88863   1.783  10.688  13.500
29328W        W88864  34.073  30.156  13.456
29329W        W88865  40.330  32.600  10.948
29330W        W88866  37.552  39.541  13.961
29331W        W88867  33.950  23.057  10.516
29332W        W88868  14.681   5.267  11.482
29333W        W88869  17.775  17.758   4.626
29334W        W88870  10.725  42.888   2.748
29335W        W88871   2.380  34.896   3.753
29336W        W88872  33.459  15.623   5.240
29337W        W88873   2.287  36.886   3.296
29338W        W88874  41.788  12.216   1.428
29339W        W88875  21.184  29.445  12.032
29340W        W88876   5.193  30.599  13.338
29341W        W88877  19.138   8.784  11.938
29342W        W88878  44.503  10.223   2.236
29343W        W88879  40.429  41.927  14.426
29344W        W88880   8.760  38.943   1.788
29345W        W88881  28.441  11.798   2.392
29346W        W88882  16.722   1.319  11.967
29347W        W88883   5.237  26.610   2.298
29348W        W88884  17.232  31.986  13.822
29349W        W88885  34.587   4.763  13.443
29350W        W88886  17.565  20.552  12.837
29351W        W88887  29.163  15.158  12.043
29352W        W88888  44.872   9.645   3.224
29353W        W88889  44.889   3.249   3.276
29354W        W88890  33.947   1.735  12.979
29355W        W88891  28.559  25.667  12.447
29356W        W88892  12.205  18.717  11.883
29357W        W88893  21.515  26.193   0.441
29358W        W88894  13.345  39.387   2.687
29359W        W88895  12.738  22.030  10.989
29360W        W88896  26.570  12.692   1.741
29361W        W88897  21.639   1.742   5.227
29362W        W88898  34.074  23.151   2.320
29363W        W88899  43.502  16.633   0.771
29364W        W88900   0.490   5.720   0.857
29365W        W88901  38.932   9.293  14.402
29366W        W88902  28.178  38.342   1.354
29367W        W88903   0.322  20.222   4.244
29368W        W88904  41.473  18.139   3.239
29369W        W88905  25.484  11.642  10.990
29370W        W88906   0.439  27.617  12.354
29371W        W88907  40.004   7.279   0.888
29372W        W88908  13.599   3.943   1.432
29373W        W88909  17.757  34.062   4.710
29374W        W88910  22.683   9.176   1.343
29375W        W88911  31.589  17.635   2.843
29376W        W88912  43.934   0.754   1.888
29377W        W88913  12.192  36.002   0.283
29378W        W88914  37.340  43.464   2.778
29379W        W88915  28.070  36.936   2.204
29380W        W88916  15.802  37.049   4.238
29381W        W88917  24.186  27.568   0.737
29382W        W88918   5.800  25.197   0.850
29383W        W88919  18.168  37.468  13.864
29384W        W88920  36.043  44.407  14.840
29385W        W88921  10.236   9.346   2.836
29386W        W88922  34.408  17.155   2.878
29387W        W88923  22.543  38.987  10.499
29388W        W88924  24.118  11.679  10.625
29389W        W88925  20.546  13.613  14.383
29390W        W88926   0.252  18.625  14.327
29391W        W88927   1.809  28.638   4.653
29392W        W88928  17.561  41.537  11.441
29393W        W88929  27.691  18.713  12.068
29394W        W88930  36.383  30.944  12.901
29395W        W88931   1.752  43.871  12.029
29396W        W88932  14.107   1.399  13.877
29397W        W88933  24.214   0.781  10.948
29398W        W88934  12.781  28.166   1.881
29399W        W88935  15.229   7.392   1.420
29400W        W88936  43.278  29.489  13.417
29401W        W88937  11.784  38.417  14.884
29402W        W88938  25.108   0.314   3.697
29403W        W88939  30.520  33.887  10.928
29404W        W88940  31.640   6.696  10.464
29405W        W88941  43.352  20.663  14.022
29406W        W88942   4.214   0.908  13.959
29407W        W88943  28.085  20.636  12.540
29408W        W88944  31.492  32.511   4.139
29409W        W88945   1.839  36.047  12.521
29410W        W88946  23.558  39.846  11.442
29411W        W88947  22.602  19.083  11.609
29412W        W88948  32.482   5.397   3.804
29413W        W88949  35.480  37.833  14.885
29414W        W88950  19.643   6.284   2.883
29415W        W88951  37.381  16.124   2.684
29416W        W88952  28.488   8.177   2.804
29417W        W88953  10.323  32.539  12.061
29418W        W88954   2.447  12.857   4.634
29419W        W88955  24.620  44.395  10.044
29420W        W88956  37.903  18.196  14.386
29421W        W88957  22.712   9.651   3.150
29422W        W88958  23.153   4.840  12.503
29423W        W88959  30.511   8.836   1.420
29424W        W88960  17.556   8.292  12.920
29425W        W88961  22.545  23.503  13.450
29426W        W88962   0.826   1.825   0.898
29427W        W88963  18.227  17.638  10.991
29428W        W88964  29.473  30.496  13.430
29429W        W88965  26.068  28.649  13.970
29430W        W88966  20.198  36.054   4.285
29431W        W88967  26.584   5.872   0.930
29432W        W88968  13.602  40.847   0.761
29433W        W88969  30.140  29.164   2.781
29434W        W88970   7.780  34.891   1.211
29435W        W88971  22.646  19.699  11.938
29436W        W88972  31.977  44.974  12.060
29437W        W88973  25.641  33.436   4.283
29438W        W88974   7.760   2.765  11.018
29439W        W88975  33.554  42.490   1.770
29440W        W88976  20.198  32.539  11.540
29441W        W88977   3.233   8.753   0.243
29442W        W88978  12.225   6.369   2.669
29443W        W88979  40.963  39.940  14.411
29444W        W88980  12.843  19.740  13.828
29445W        W88981  36.856   0.252  10.949
29446W        W88982  35.570  31.037   2.327
29447W        W88983  17.307  44.409  11.012
29448W        W88984  33.883  24.988   9.654
29449W        W88985  43.269  28.462   1.786
29450W        W88986  36.350   6.288   4.340
29451W        W88987  13.150   2.818   2.400
29452W        W88988  31.150  22.080   0.731
29453W        W88989  24.213  11.759   0.300
29454W        W88990  36.964  22.236   1.394
29455W        W88991  32.987   6.185   4.318
29456W        W88992   2.821  11.146   1.254
29457W        W88993  39.834  26.164   4.335
29458W        W88994  36.875  40.052  13.864
29459W        W88995  27.663  44.906   0.247
29460W        W88996  35.958   3.304   2.826
29461W        W88997  44.830   1.367   1.764
29462W        W88998  43.871  15.304   9.546
29463W        W88999   1.327  42.344  14.979
29464W        W89000  15.121  15.684  11.935
29465W        W89001  30.423  20.546   3.775
29466W        W89002  18.550  14.247   1.761
29467W        W89003  40.903   3.428  10.131
29468W        W89004  37.409  37.382   4.185
29469W        W89005   2.320  22.114  13.984
29470W        W89006  20.257   6.184  11.589
29471W        W89007  42.321  31.021   1.303
29472W        W89008  39.437  25.053   1.321
29473W        W89009  11.166  39.892   0.794
29474W        W89010  10.860  29.435   2.326
29475W        W89011  35.491  20.185  10.982
29476W        W89012  36.038  28.961   2.289
29477W        W89013  23.006  44.857   3.148
29478W        W89014   6.682  26.041  11.546
29479W        W89015  27.132  18.714  14.844
29480W        W89016  42.387  41.390   3.721
29481W        W89017  31.134  34.474  12.361
29482W        W89018  28.444  41.370   1.869
29483W        W89019   8.685  35.894   2.181
29484W        W89020  22.570  26.488   1.798
29485W        W89021  35.867  22.039  14.312
29486W        W89022  36.975   4.204  10.561
29487W        W89023  38.862   0.414  12.375
29488W        W89024  21.574  29.661  13.806
29489W        W89025  11.669  20.044  13.798
29490W        W89026  12.234  22.622   1.744
29491W        W89027  42.343   4.371   0.336
29492W        W89028   3.858  19.115  12.424
29493W        W89029  12.682   1.938   2.868
29494W        W89030  11.835  41.341  13.820
29495W        W89031  31.536  18.109   0.349
29496W        W89032  24.053  27.487  10.564
29497W        W89033  19.552  42.855   0.352
29498W        W89034   0.899   4.906   0.924
29499W        W89035  32.963  18.629  11.911
29500W        W89036  23.579  27.499  14.289
29501W        W89037  14.625  36.474  14.762
29502W        W89038  35.546  29.139  14.345
29503W        W89039   8.185  29.944  12.515
29504W        W89040  43.898  26.682  13.908
29505W        W89041   4.336  31.982  11.515
29506W        W89042  12.625  36.560  12.958
29507W        W89043  38.482   6.847  10.563
29508W        W89044  38.388  23.524  14.433
29509W        W89045  35.547  26.608   9.956
29510W        W89046  27.592  12.220  11.976
29511W        W89047   2.378  22.141  11.578
29512W        W89048   3.722   8.728  10.922
29513W        W89049  32.469   5.780  12.886
29514W        W89050  23.681   9.845   0.422
29515W        W89051  22.169  40.840   2.751
29516W        W89052   1.338  19.157  12.373
29517W        W89053  34.120  27.998  13.527
29518W        W89054  19.225  30.635   1.366
29519W        W89055   7.787  41.382   0.410
29520W        W89056  18.212  24.051  13.036
29521W        W89057  35.945  18.675  11.046
29522W        W89058  11.275  44.287  11.035
29523W        W89059  41.299  34.384  14.305
29524W        W89060  30.417  31.596   9.946
29525W        W89061  20.103  43.419   0.792
29526W        W89062  27.038  32.010  14.356
29527W        W89063  37.011   9.703  14.838
29528W        W89064  34.506  13.810   3.250
29529W        W89065  20.696  27.067  12.992
29530W        W89066  10.770  39.486   0.361
29531W        W89067  23.538  12.626  10.512
29532W        W89068  16.804  21.119  10.015
29533W        W89069  35.065  13.599   3.188
29534W        W89070  31.135  13.723  13.015
29535W        W89071  13.636  38.511   2.894
29536W        W89072  17.610  19.175   9.593
29537W        W89073  21.249  42.925  13.038
29538W        W89074  28.046   1.285  12.485
29539W        W89075  34.976   0.429  14.769
29540W        W89076  21.148  22.584  11.566
29541W        W89077  16.219   1.254   0.474
29542W        W89078  19.118  15.321  12.366
29543W        W89079  11.187   4.733   0.424
29544W        W89080   0.911  33.065  12.878
29545W        W89081  37.841  41.498   5.098
29546W        W89082  38.437   1.756   2.333
29547W        W89083   6.343  25.474   2.198
29548W        W89084  31.005   8.834   1.764
29549W        W89085  21.748  24.160   3.857
29550W        W89086   0.900  18.268   3.353
29551W        W89087  23.188  27.130  13.879
29552W        W89088  39.034  40.012  14.817
29553W        W89089  15.103  33.912   4.667
29554W        W89090  31.540   4.422  12.502
29555W        W89091   0.819  29.122   2.235
29556W        W89092  36.876  14.675   0.864
29557W        W89093  17.169  42.295   0.289
29558W        W89094  18.690  38.555   0.803
29559W        W89095  27.550   9.211   4.617
29560W        W89096  22.192  26.489  13.333
29561W        W89097  13.115   2.311   4.804
29562W        W89098   1.878  43.508   1.735
29563W        W89099  41.036   0.789   2.677
29564W        W89100  17.611   2.455   4.346
29565W        W89101  42.464  29.120   2.675
29566W        W89102  23.693  10.769   2.893
29567W        W89103  16.131  25.041   0.382
29568W        W89104  17.195  24.564   3.720
29569W        W89105  22.616  33.598   2.791
29570W        W89106  30.474  41.326   2.290
29571W        W89107  21.250  33.459   1.725
29572W        W89108  38.356  20.643   0.270
29573W        W89109   4.811  42.380  14.869
29574W        W89110  44.501  23.645  14.959
29575W        W89111   9.317  18.611   1.715
29576W        W89112  22.226  15.303   0.401
29577W        W89113  31.947  30.098   1.399
29578W        W89114  33.380  13.741  11.939
29579W        W89115  11.805  23.712  12.890
29580W        W89116  14.606  35.887  13.061
29581W        W89117  42.377  35.570   4.692
29582W        W89118  44.503  36.980  14.412
29583W        W89119  42.779  27.569   0.406
29584W        W89120   0.953  34.900  11.121
29585W        W89121  19.750  34.534  11.550
29586W        W89122  17.723  18.058  14.916
29587W        W89123  40.334   1.466  10.942
29588W        W89124   5.361  10.175   1.258
29589W        W89125  39.497  25.205  10.558
29590W        W89126  35.596   2.778  10.922
29591W        W89127  40.044   4.942   1.352
29592W        W89128  17.653  19.054   3.280
29593W        W89129  13.770   4.858   2.858
29594W        W89130   4.382   2.812  14.476
29595W        W89131   0.361  24.072  11.427
29596W        W89132  35.503  18.734  14.777
29597W        W89133  10.289   9.705   3.727
29598W        W89134  22.604  17.745  10.577
29599W        W89135   1.741  27.508   4.341
29600W        W89136  30.607  11.282  11.109
29601W        W89137   8.406   0.950   1.839
29602W        W89138  32.931  28.608   5.145
29603W        W89139   2.256  14.119   3.181
29604W        W89140   2.244  19.669   1.436
29605W        W89141  19.282  20.533  14.803
29606W        W89142  25.191  42.995  11.007
29607W        W89143  39.036  39.508   0.468
29608W        W89144  34.408  38.847  10.577
29609W        W89145   8.787  35.406  13.839
29610W        W89146  39.027  10.209  14.334
29611W        W89147   5.371  15.249  11.026
29612W        W89148  31.012  11.144   3.299
29613W        W89149   8.297  40.050   2.343
29614W        W89150  25.593   8.804   9.929
29615W        W89151  32.476   0.305  11.983
29616W        W89152   6.389   5.298   0.949
29617W        W89153  44.495  10.309   1.273
29618W        W89154  26.558   9.650  13.968
29619W        W89155  13.830  23.167   0.853
29620W        W89156  12.786   6.315   0.867
29621W        W89157   5.782  25.542  14.473
29622W        W89158  12.219  30.993   0.851
29623W        W89159   9.782  17.786   4.120
29624W        W89160  14.214  37.562  14.415
29625W        W89161  33.038  19.621   1.821
29626W        W89162  28.976   3.300   2.765
29627W        W89163  43.764   9.306   4.344
29628W        W89164  35.979  31.633  11.451
29629W        W89165   3.731   6.299  13.864
29630W        W89166  44.999  14.104   1.814
29631W        W89167  32.556  13.306  14.770
29632W        W89168  13.837  37.488   2.242
29633W        W89169  13.182   1.851   5.321
29634W        W89170  42.892   1.895  10.586
29635W        W89171  27.004   8.399   3.330
29636W        W89172  21.663  40.343   0.849
29637W        W89173  14.300  39.372  10.496
29638W        W89174  12.186  24.075  13.355
29639W        W89175  15.185  29.483   1.250
29640W        W89176  10.735  15.758  13.925
29641W        W89177   0.271  36.464   4.119
29642W        W89178  37.955   3.904   0.780
29643W        W89179   1.433  22.678   2.271
29644W        W89180  33.053  41.451   1.837
29645W        W89181  24.578   9.783   1.875
29646W        W89182  36.945  34.006   4.299
29647W        W89183  26.570  12.186  10.407
29648W        W89184   8.200  33.973   4.117
29649W        W89185   9.290  37.518  11.864
29650W        W89186  11.192  42.950  11.419
29651W        W89187  28.056  34.082   4.211
29652W        W89188  22.732  30.587  11.941
29653W        W89189  37.877  10.355   3.269
29654W        W89190  33.499  19.183   1.878
29655W        W89191   4.899  37.575  12.374
29656W        W89192  39.929  42.864  12.053
29657W        W89193  24.150   9.294  11.018
29658W        W89194  42.969  11.373   2.723
29659W        W89195  13.268  24.137   2.238
29660W        W89196  14.224  12.140  11.090
29661W        W89197   9.782  38.968   1.769
29662W        W89198   7.329   8.894  13.503
29663W        W89199  35.389   0.906  11.024
29664W        W89200  13.230  29.663  14.007
29665W        W89201  31.531  40.307  11.122
29666W        W89202  32.007  25.154   0.854
29667W        W89203  41.941  12.277   5.235
29668W        W89204  19.167  20.532  11.567
29669W        W89205  43.289   9.726   5.613
29670W        W89206  32.008  13.754   4.250
29671W        W89207  12.175  22.039   2.791
29672W        W89208  44.459   4.382  10.054
29673W        W89209  25.972  24.152  10.444
29674W        W89210  15.238   2.358  12.429
29675W        W89211  16.702  41.859   4.835
29676W        W89212  13.314  29.060  14.939
29677W        W89213  30.050  29.628   4.624
29678W        W89214  36.062   6.903   4.290
29679W        W89215  19.659  11.170   0.964
29680W        W89216  32.027  14.330   3.188
29681W        W89217  30.010  29.989  14.907
29682W        W89218   8.329  21.750  11.517
29683W        W89219  31.002  37.060   4.162
29684W        W89220  13.291  30.479  10.408
29685W        W89221   3.921  29.565  14.764
29686W        W89222  31.421  24.202  11.474
29687W        W89223  18.281  16.796  14.418
29688W        W89224   9.762  31.510   1.786
29689W        W89225  11.317  14.252  13.840
29690W        W89226   5.250   6.190   0.756
29691W        W89227  37.574  26.476  12.574
29692W        W89228   1.465  31.974   1.235
29693W        W89229  21.021  36.369  13.374
29694W        W89230   8.782  34.909  12.385
29695W        W89231   2.327  41.024   3.219
29696W        W89232  19.714  18.284   2.709
29697W        W89233  14.155  39.915   3.750
29698W        W89234  38.953  28.950  13.537
29699W        W89235  44.437  38.873  10.054
29700W        W89236  13.709  30.006  13.516
29701W        W89237  27.098  42.439   1.218
29702W        W89238  43.840  18.588  12.930
29703W        W89239   1.405  19.248   3.260
29704W        W89240  25.997  18.773  13.507
29705W        W89241  32.082  36.430  14.964
29706W        W89242  24.074  36.916  12.481
29707W        W89243   5.225  11.291  11.532
29708W        W89244   2.329  24.586   1.355
29709W        W89245  38.340  32.016   5.230
29710W        W89246  42.919  36.925   3.164
29711W        W89247  14.692  17.074  13.498
29712W        W89248  20.033   4.403   2.735
29713W        W89249  10.278  34.942  11.416
29714W        W89250  28.552  25.073   4.708
29715W        W89251  43.799  27.567  12.346
29716W        W89252   3.401  23.124  13.436
29717W        W89253  19.637  17.763   1.386
29718W        W89254  21.041  29.122   2.691
29719W        W89255  12.276  17.653  12.003
29720W        W89256   8.315   6.416   0.286
29721W        W89257  37.038  30.590  13.474
29722W        W89258  23.131  14.197   2.281
29723W        W89259  20.768  25.068   0.329
29724W        W89260  38.505   5.704   2.305
29725W        W89261  30.967   5.772  12.973
29726W        W89262  34.076  34.375  14.404
29727W        W89263   5.196   8.353   0.377
29728W        W89264  42.504  30.557  12.389
29729W        W89265  19.218   1.277   2.375
29730W        W89266  34.944  21.629  13.486
29731W        W89267  30.547  14.265  13.013
29732W        W89268   2.240  27.515   4.158
29733W        W89269   2.823  32.511  12.540
29734W        W89270  38.345  18.604   4.176
29735W        W89271   2.847  27.677   1.710
29736W        W89272  31.550  11.637   0.726
29737W        W89273  41.382  20.128   2.881
29738W        W89274   1.460   6.884   2.337
29739W        W89275  21.149   5.788   1.258
29740W        W89276  29.473  16.276  14.872
29741W        W89277  15.816  12.842   4.600
29742W        W89278   5.887  40.486  12.003
29743W        W89279  32.592  26.631   4.341
29744W        W89280  13.303  20.098  14.469
29745W        W89281  23.514  12.211   4.213
29746W        W89282  25.572   1.262   1.776
29747W        W89283  39.538  22.144   2.211
29748W        W89284  29.923  19.614   0.815
29749W        W89285  27.572  26.520   1.808
29750W        W89286   4.860   8.229  11.044
29751W        W89287  23.602  41.348  13.923
29752W        W89288   8.817   8.258   0.741
29753W        W89289  31.111  26.978  14.471
29754W        W89290   3.929   6.348   3.716
29755W        W89291  44.422  15.724   1.781
29756W        W89292  29.540  17.153   1.371
29757W        W89293   3.814   3.436  14.333
29758W        W89294  19.682  34.874   5.121
29759W        W89295  27.504  36.442   1.835
29760W        W89296  30.099  22.055   1.802
29761W        W89297  42.877  27.977   3.198
29762W        W89298  26.554  30.507   2.833
29763W        W89299  10.339   3.889  14.342
29764W        W89300  23.024  26.670   3.220
29765W        W89301  42.842  27.123  14.840
29766W        W89302   8.291  23.517   2.401
29767W        W89303  12.641  34.059  11.061
29768W        W89304  40.446  15.321   3.711
29769W        W89305  26.626  12.178  14.879
29770W        W89306   2.395  29.642   2.738
29771W        W89307  34.575   3.356  12.431
29772W        W89308  37.563  31.481  12.892
29773W        W89309  36.934   2.853  14.304
29774W        W89310  33.125  33.396  11.401
29775W        W89311  10.320  29.116  10.953
29776W        W89312  35.897  26.966  11.606
29777W        W89313  35.488  40.523   1.845
29778W        W89314  19.140  19.132   0.954
29779W        W89315  19.245  18.696  12.826
29780W        W89316   1.297   4.935  14.940
29781W        W89317  16.652   3.277   4.289
29782W        W89318  44.476  40.487   1.786
29783W        W89319  18.664  39.025  12.485
29784W        W89320  23.650  18.585   2.792
29785W        W89321   8.375  41.969  11.008
29786W        W89322  33.985  34.595   1.240
29787W        W89323   2.928  16.315  10.489
29788W        W89324  43.968  34.392   2.370
29789W        W89325  25.017  39.444   0.452
29790W        W89326  27.170   2.865   0.729
29791W        W89327  35.492   6.843  11.028
29792W        W89328  35.065  30.610  13.420
29793W        W89329  11.825  28.508   4.750
29794W        W89330  37.897  42.347   1.211
29795W        W89331  27.514  11.631   2.388
29796W        W89332  22.250  21.215   4.638
29797W        W89333  18.656   6.857  11.523
29798W        W89334  44.301   4.818   3.310
29799W        W89335  24.084  13.821  13.877
29800W        W89336  36.430  33.057   2.338
29801W        W89337  18.699  32.016  14.482
29802W        W89338  23.702   1.773   4.782
29803W        W89339  27.026  43.475  12.868
29804W        W89340   6.251  36.573  11.064
29805W        W89341  22.148  31.030   0.737
29806W        W89342  31.055   9.693   4.695
29807W        W89343  28.579  39.015   3.859
29808W        W89344  15.679  34.448  13.875
29809W        W89345  43.388  14.096   0.263
29810W        W89346  44.789  39.542  10.627
29811W        W89347   1.855   2.415  11.926
29812W        W89348  36.478  33.457   0.269
29813W        W89349  18.784  28.182  12.044
29814W        W89350  38.346  41.334   3.281
29815W        W89351  31.631  29.956  10.407
29816W        W89352  44.344  36.089  12.914
29817W        W89353  21.550  26.956  14.368
29818W        W89354   0.746  16.122   4.251
29819W        W89355  26.617   2.325  11.586
29820W        W89356  43.380  36.438   2.718
29821W        W89357  37.580   6.202  14.984
29822W        W89358  12.723  28.529   0.307
29823W        W89359  37.374  34.914  12.456
29824W        W89360  25.589   5.266  12.574
29825W        W89361  14.270   5.426   3.665
29826W        W89362  28.951   6.206  11.517
29827W        W89363   1.804   3.911   3.329
29828W        W89364  32.562  14.785   0.768
29829W        W89365  15.627  37.358   0.783
29830W        W89366  30.503  18.605  12.533
29831W        W89367  25.145  43.809  10.982
29832W        W89368  30.580  31.916   3.287
29833W        W89369  33.393  16.783   2.689
29834W        W89370  38.372  15.266   1.737
29835W        W89371  16.776   0.812   2.871
29836W        W89372  21.153  43.392   1.404
29837W        W89373   6.872  43.291   3.668
29838W        W89374   7.365  10.742   3.728
29839W        W89375  33.482  34.908   0.914
29840W        W89376   9.678  33.912  12.412
29841W        W89377  43.893  23.611  14.855
29842W        W89378  38.888  15.103   4.318
29843W        W89379  21.235  19.611  12.854
29844W        W89380  19.720  31.607  11.124
29845W        W89381   2.934  30.007  14.345
29846W        W89382   3.230  19.581  13.375
29847W        W89383  33.441   4.896  11.989
29848W        W89384   8.275  27.971  12.449
29849W        W89385  22.550   2.430   0.450
29850W        W89386  37.076  31.544  13.990
29851W        W89387   1.771   9.336  13.846
29852W        W89388  44.898   0.762   4.338
29853W        W89389   9.750  29.927   1.899
29854W        W89390   8.657  36.498   1.763
29855W        W89391  44.843  19.268   2.794
29856W        W89392  21.681   0.762   0.846
29857W        W89393  17.208   1.260   1.291
29858W        W89394  18.662   7.743   3.335
29859W        W89395  44.391   2.262  13.990
29860W        W89396   2.283  27.957   4.199
29861W        W89397  28.605  36.429   1.287
29862W        W89398  40.356  18.790  14.438
29863W        W89399   1.406  40.544   4.203
29864W        W89400  34.890  33.562   3.294
29865W        W89401  33.052   5.371  14.501
29866W        W89402  18.199  31.417   3.147
29867W        W89403  15.680  44.411  12.562
29868W        W89404  15.729  13.201   1.758
29869W        W89405   1.934  24.054   4.725
29870W        W89406   8.763  35.549   3.647
29871W        W89407  26.144   4.242   5.629
29872W        W89408  36.405   7.181   4.126
29873W        W89409   8.230  30.028   0.383
29874W        W89410  36.463  39.827   2.865
29875W        W89411  16.639   6.739  14.860
29876W        W89412  22.567   9.227   0.311
29877W        W89413  21.056  23.109   3.224
29878W        W89414  33.895  36.080   4.666
29879W        W89415  39.889  23.521   1.697
29880W        W89416   8.707  40.359   3.704
29881W        W89417  10.874  19.713  11.043
29882W        W89418  40.994  16.207   3.197
29883W        W89419  44.341  11.632   1.794
29884W        W89420   8.162  12.284   1.343
29885W        W89421  29.924  44.905   4.350
29886W        W89422  39.437  35.984   1.211
29887W        W89423  23.594  10.867   3.351
29888W        W89424  30.614  35.093  10.951
29889W        W89425  25.978  35.485   5.676
29890W        W89426  40.927  23.221   3.241
29891W        W89427   9.158  22.733  10.433
29892W        W89428  26.094   6.191   1.343
29893W        W89429  11.658  35.090   4.186
29894W        W89430  22.546  25.500   4.769
29895W        W89431  44.452  14.157   1.902
29896W        W89432  44.286  30.959   2.341
29897W        W89433  10.177  31.417  13.399
29898W        W89434  30.478  18.161   2.377
29899W        W89435  31.485  24.003   1.235
29900W        W89436  23.492  44.400  10.530
29901W        W89437  33.571  28.060  10.913
29902W        W89438  25.686  27.683  10.414
29903W        W89439   6.383  22.729  11.090
29904W        W89440  44.439  29.584   0.262
29905W        W89441  34.068   7.390   3.353
29906W        W89442  36.494  42.293   2.828
29907W        W89443  26.021  21.201  10.612
29908W        W89444  29.585  32.534   2.226
29909W        W89445  34.604   9.843   2.203
29910W        W89446  11.734  38.055   3.237
29911W        W89447  21.256  44.308  13.458
29912W        W89448  26.171  21.511  10.943
29913W        W89449  25.010  30.074  10.589
29914W        W89450  10.380  12.210   4.239
29915W        W89451  13.132  40.823  13.468
29916W        W89452  35.912  31.549  10.477
29917W        W89453  11.641  26.567   1.920
29918W        W89454  22.104  33.445   3.630
29919W        W89455   9.214   9.828   4.222
29920W        W89456  20.531   4.394   4.181
29921W        W89457  33.594  29.627  11.476
29922W        W89458  36.852  21.688  12.965
29923W        W89459  36.488  27.123   4.256
29924W        W89460   9.808  28.609   0.374
29925W        W89461  41.426  29.622   3.217
29926W        W89462   1.335  13.646  11.099
29927W        W89463   1.410   2.382   4.319
29928W        W89464  16.592  22.010   3.765
29929W        W89465  14.229  21.721  12.391
29930W        W89466  41.407  28.135   4.227
29931W        W89467  28.001   8.287   0.390
29932W        W89468  14.646   5.335   2.191
29933W        W89469  28.583  40.405   2.748
29934W        W89470  17.171  33.074  10.084
29935W        W89471  37.339  28.112  13.970
29936W        W89472  42.020  39.044   4.757
29937W        W89473  24.547  27.015  12.514
29938W        W89474  33.429  21.175   2.286
29939W        W89475  21.111  41.377   3.230
29940W        W89476  18.683  11.760  14.893
29941W        W89477  13.154  28.096  14.439
29942W        W89478  17.296  22.173  13.874
29943W        W89479  11.724  34.486  11.984
29944W        W89480   4.845  23.731  12.929
29945W        W89481  34.014  22.556  13.535
29946W        W89482  28.995  18.143   3.379
29947W        W89483  38.435  10.715  13.353
29948W        W89484  38.505  36.421   1.363
29949W        W89485  44.391  19.550  14.437
29950W        W89486  22.037  29.146  13.827
29951W        W89487  19.170  21.577  13.328
29952W        W89488  11.824  34.614   4.268
29953W        W89489  29.955  30.422  10.504
29954W        W89490  35.523  42.951  12.950
29955W        W89491  43.394  28.613   3.796
29956W        W89492  14.263  19.725   3.226
29957W        W89493  20.098  16.717   1.775
29958W        W89494  44.271   0.323  13.529
29959W        W89495   9.760  34.581   1.442
29960W        W89496  11.239  26.565   0.924
29961W        W89497  13.650   8.719  11.874
29962W        W89498  14.664  27.952   4.761
29963W        W89499   1.973   2.794   0.368
29964W        W89500  42.481   3.878  12.921
29965W        W89501  40.477  40.876  14.827
29966W        W89502  10.373  31.610   2.248
29967W        W89503  10.701  29.019   9.577
29968W        W89504  41.914   1.748   2.716
29969W        W89505  44.812  32.922  13.502
29970W        W89506  37.389  38.540  14.438
29971W        W89507  44.322  43.457  11.530
29972W        W89508   9.359  33.895   1.772
29973W        W89509   3.376  41.481   3.296
29974W        W89510  23.579  15.634  12.091
29975W        W89511   5.361  44.305  12.579
29976W        W89512   4.351  42.926   4.744
29977W        W89513   0.328  18.187   0.438
29978W        W89514  33.515  27.452  14.408
29979W        W89515  15.216  28.593   3.662
29980W        W89516  19.256  18.590  10.085
29981W        W89517  15.647   4.280  14.938
29982W        W89518   2.882  30.494   0.395
29983W        W89519  11.207  35.879  10.990
29984W        W89520  12.665  34.898   1.918
29985W        W89521   9.726  42.017  14.375
29986W        W89522  37.517  43.910   0.448
29987W        W89523  35.509  41.928   4.786
29988W        W89524  16.299  19.539  13.347
29989W        W89525  13.180  17.169  13.974
29990W        W89526  43.949  12.814   1.758
29991W        W89527  19.058  15.306   2.844
29992W        W89528  28.520  20.121   4.673
29993W        W89529  31.058   8.818   5.175
29994W        W89530  35.403  30.091  11.548
29995W        W89531  25.064   3.896  14.420
29996W        W89532  19.543  41.856   0.325
29997W        W89533  24.973  27.189   4.720
29998W        W89534  33.965  23.491  12.470
29999W        W89535  11.822  30.000   1.283
30000W        W89536  10.246  39.996   4.724
30001W        W89537   9.346  18.687   3.328
30002W        W89538  10.289  34.448  10.958
30003W        W89539  31.573  34.430  10.457
30004W        W89540  22.686  43.989  11.032
30005W        W89541  14.117   5.202  13.494
30006W        W89542  37.456  14.670   0.968
30007W        W89543  24.015   1.405   1.836
30008W        W89544   0.866  37.920   1.263
30009W        W89545  41.467  18.200  10.891
30010W        W89546  39.421   5.915   2.263
30011W        W89547   2.460   5.923  13.997
30012W        W89548   5.728  12.794  11.035
30013W        W89549  27.446  12.720   0.872
30014W        W89550   1.279  17.179  12.016
30015W        W89551   3.733   8.717   0.828
30016W        W89552  26.109   2.248   0.315
30017W        W89553  33.594  30.922   4.134
30018W        W89554  43.952  19.269  10.482
30019W        W89555  25.999  42.785  14.382
30020W        W89556   8.697  34.970  11.115
30021W        W89557  28.468   8.774   4.136
30022W        W89558  21.644  33.057  10.416
30023W        W89559  21.623   3.381  12.526
30024W        W89560  36.018  23.526   0.339
30025W        W89561  17.189  35.874   3.712
30026W        W89562  26.071  10.867   3.822
30027W        W89563  32.120  34.385  11.891
30028W        W89564  21.713  26.597   2.679
30029W        W89565  11.160  23.615  11.424
30030W        W89566  33.914  28.441   4.302
30031W        W89567  23.631   2.244  13.958
30032W        W89568  33.989  13.133  13.049
30033W        W89569  30.942  12.704   2.307
30034W        W89570  15.297  10.225   0.269
30035W        W89571  35.031  18.222  11.034
30036W        W89572  20.655   2.728   1.862
30037W        W89573  38.857  33.955  12.361
30038W        W89574  33.901   7.363  11.550
30039W        W89575  41.371  27.948  10.547
30040W        W89576  21.564  10.681   4.254
30041W        W89577  26.055   6.399  13.045
30042W        W89578   6.776  35.531  14.290
30043W        W89579  27.061   1.293  14.973
30044W        W89580  38.820  38.503   3.780
30045W        W89581  12.835  38.827  13.812
30046W        W89582  29.667  25.678  12.867
30047W        W89583  19.155  11.204   2.285
30048W        W89584  42.925  21.676   1.924
30049W        W89585   6.291  22.599   5.200
30050W        W89586  43.385  10.659  10.152
30051W        W89587  35.373   6.315  13.842
30052W        W89588  23.180   9.254   5.195
30053W        W89589  41.419  30.099  11.395
30054W        W89590  29.429  26.199  12.456
30055W        W89591   6.216  27.169  10.629
30056W        W89592  19.686  22.156   2.355
30057W        W89593  36.063   9.760   2.887
30058W        W89594  38.468  41.928   1.868
30059W        W89595   0.968  23.184  10.441
30060W        W89596  15.140  20.230  12.577
30061W        W89597   0.908  36.876   3.155
30062W        W89598  35.875   4.253  12.555
30063W        W89599  44.483  13.319  12.359
30064W        W89600  23.662  32.001  13.349
30065W        W89601   6.376   4.412  10.925
30066W        W89602  37.430   7.293  14.463
30067W        W89603  36.446  14.336  12.368
30068W        W89604  41.870  15.779  10.494
30069W        W89605  25.050   2.339   0.432
30070W        W89606  15.780  42.884  10.903
30071W        W89607  11.829  19.247  13.520
30072W        W89608  12.137  29.081   2.192
30073W        W89609  41.325  44.388  14.020
30074W        W89610  42.986  28.153   0.451
30075W        W89611   9.685  35.888   2.369
30076W        W89612  12.186  38.416   2.734
30077W        W89613  29.466   7.208   1.345
30078W        W89614   7.382  30.947  11.384
30079W        W89615  13.235  23.631   4.624
30080W        W89616   6.802  13.694  11.518
30081W        W89617  22.714   5.804   1.878
30082W        W89618   4.249   3.350  11.923
30083W        W89619  30.061  41.396   2.227
30084W        W89620  37.947   3.922  13.482
30085W        W89621  42.866  16.737   3.671
30086W        W89622  17.710  14.211  12.496
30087W        W89623  41.537   7.880  14.503
30088W        W89624  17.641   8.338  14.001
30089W        W89625  30.158  35.365   1.248
30090W        W89626  40.889  44.382   4.121
30091W        W89627  36.053  13.685  14.808
30092W        W89628  14.102  13.128  13.062
30093W        W89629   8.795   8.389   4.722
30094W        W89630  36.013  10.670   2.345
30095W        W89631  29.626   6.395   1.413
30096W        W89632  36.942  43.474   1.344
30097W        W89633  11.803   4.259  12.369
30098W        W89634  41.457   0.256  13.819
30099W        W89635   3.856  19.625  14.991
30100W        W89636  33.470  34.009  12.396
30101W        W89637   7.716   7.390   3.757
30102W        W89638  21.581  34.944  11.977
30103W        W89639  32.401  24.508  12.832
30104W        W89640  31.429  28.171  11.403
30105W        W89641  41.906  27.492  12.572
30106W        W89642  38.059  16.075   1.926
30107W        W89643  24.696  40.884  13.403
30108W        W89644  27.491  37.050  14.821
30109W        W89645   0.830   8.895  11.930
30110W        W89646  18.563  29.492   1.901
30111W        W89647  44.765  39.831  14.301
30112W        W89648  42.457   9.711  11.870
30113W        W89649  20.121  41.872  12.945
30114W        W89650  24.204  12.852  13.363
30115W        W89651  31.956  15.088  12.886
30116W        W89652  14.234  12.660   2.277
30117W        W89653  41.027  11.166  13.984
30118W        W89654  22.614  23.686  12.877
30119W        W89655  10.762  26.008  13.872
30120W        W89656  36.012  42.866   3.279
30121W        W89657  25.093  41.879  10.959
30122W        W89658   6.688  33.386  11.968
30123W        W89659  14.595  27.470  12.824
30124W        W89660  21.685   2.340  13.445
30125W        W89661  36.457  39.814  13.809
30126W        W89662  18.711  30.546  10.132
30127W        W89663   8.220  19.566  11.418
30128W        W89664   4.389  20.754  11.539
30129W        W89665  13.691  11.308  10.988
30130W        W89666  12.283  44.401  12.889
30131W        W89667  28.089  39.996  11.098
30132W        W89668  13.800  41.886   3.848
30133W        W89669   9.694   2.939  11.513
30134W        W89670  25.485  14.281  12.432
30135W        W89671   7.333  19.104  14.953
30136W        W89672  13.736   8.767  14.986
30137W        W89673  21.718  14.319   1.348
30138W        W89674  29.975   7.412   2.376
30139W        W89675  17.290   0.323   3.198
30140W        W89676  10.861   4.437   9.570
30141W        W89677  14.175  10.354  12.828
30142W        W89678  33.125  10.832  11.603
30143W        W89679  21.025  34.599   4.167
30144W        W89680   4.435  36.046   3.382
30145W        W89681  41.882  40.986  10.525
30146W        W89682   9.344  37.977  12.394
30147W        W89683  20.717  30.533  14.345
30148W        W89684   8.794  36.492   4.348
30149W        W89685  15.751  30.444  14.835
30150W        W89686  18.778   7.360   1.908
30151W        W89687  25.552  18.198  14.364
30152W        W89688  32.044   1.450   3.632
30153W        W89689  13.788   9.661  11.552
30154W        W89690  10.791  10.838   4.327
30155W        W89691   6.372  23.620  10.516
30156W        W89692  22.101  11.184  13.323
30157W        W89693  37.908  18.558   2.331
30158W        W89694  21.576  34.066  10.931
30159W        W89695   9.835  42.446   4.205
30160W        W89696   9.759  43.914   3.840
30161W        W89697  38.477  11.640   1.841
30162W        W89698  18.128  43.379  13.873
30163W        W89699  27.051   5.933  13.995
30164W        W89700   4.392  40.509  10.455
30165W        W89701  43.780  20.163   1.214
30166W        W89702  43.443  22.507   2.227
30167W        W89703  13.743  23.025   0.267
30168W        W89704  41.787  11.216   1.290
30169W        W89705  11.800  26.100  11.394
30170W        W89706  28.501  28.481  13.807
30171W        W89707  43.004  24.043   3.642
30172W        W89708  11.710  22.060   2.818
30173W        W89709  27.004  26.560  12.916
30174W        W89710   1.830  34.421  14.361
30175W        W89711  16.157  18.184   1.384
30176W        W89712  42.336  29.511   4.341
30177W        W89713   5.355  34.372   4.779
30178W        W89714  24.582  11.849   2.283
30179W        W89715  36.034  41.005   2.881
30180W        W89716  22.615   9.193  11.953
30181W        W89717  16.092  11.187   4.745
30182W        W89718  36.068  24.554   0.821
30183W        W89719   6.770  16.786   4.641
30184W        W89720  14.128   2.338  10.978
30185W        W89721  39.397  43.973   0.791
30186W        W89722  40.502  22.623  13.916
30187W        W89723  11.169  40.014  14.811
30188W        W89724   3.380   2.898  12.343
30189W        W89725  31.068  35.969   4.706
30190W        W89726  27.159  33.064   0.838
30191W        W89727  10.833   7.279  14.801
30192W        W89728  13.772  22.110   4.745
30193W        W89729  22.739  12.271  13.891
30194W        W89730  27.951  31.936   3.836
30195W        W89731   9.764   9.192  13.404
30196W        W89732  16.655  19.169  14.002
30197W        W89733  32.912   3.384   2.817
30198W        W89734  28.108  38.493   4.615
30199W        W89735  38.860  34.615  11.865
30200W        W89736  10.665   5.900   3.263
30201W        W89737  39.897  41.498  12.992
30202W        W89738  33.516  26.170  11.084
30203W        W89739  14.720   5.723  13.022
30204W        W89740  30.023   5.702  12.971
30205W        W89741   6.854  18.102  13.925
30206W        W89742  22.746  40.907  11.510
30207W        W89743  23.203   6.825   3.685
30208W        W89744  14.195  43.462  11.381
30209W        W89745  34.867  24.095  14.014
30210W        W89746  44.419  10.786  11.562
30211W        W89747  17.567  39.897   1.429
30212W        W89748  25.121  40.340   4.597
30213W        W89749  31.464  30.144   4.120
30214W        W89750  17.732  11.185   2.856
30215W        W89751  19.636   6.235  14.823
30216W        W89752  43.430   0.778  12.946
30217W        W89753   2.947   4.257  14.390
30218W        W89754  24.555  18.108   0.355
30219W        W89755   2.412   0.405   0.279
30220W        W89756   7.719  21.646   2.868
30221W        W89757  39.530  30.565  11.960
30222W        W89758  22.017  42.392  11.023
30223W        W89759  18.236  14.631  14.465
30224W        W89760  21.727  37.963   0.269
30225W        W89761  16.230  17.208  13.412
30226W        W89762   9.747  27.517   1.771
30227W        W89763   1.903   2.765   3.350
30228W        W89764   7.197  17.567  13.521
30229W        W89765  40.898  28.466  12.448
30230W        W89766   7.279   8.786   0.760
30231W        W89767  32.430  43.835  12.395
30232W        W89768  38.568  33.579   3.239
30233W        W89769   4.318  34.041  11.120
30234W        W89770   8.779   5.875   1.366
30235W        W89771  33.067  11.644   2.240
30236W        W89772  17.214  40.318   3.340
30237W        W89773  44.505  22.041   2.402
30238W        W89774  11.752  10.804  12.943
30239W        W89775  26.677  28.506  10.523
30240W        W89776  18.688  34.597  10.409
30241W        W89777  28.608  39.437  11.860
30242W        W89778  40.985  23.229   3.632
30243W        W89779  36.998  23.539   2.686
30244W        W89780  15.323  32.461   4.328
30245W        W89781  11.339  28.606   3.723
30246W        W89782   3.894   4.353  11.586
30247W        W89783   4.301   7.218  11.529
30248W        W89784  42.364  33.435   1.885
30249W        W89785  28.632  10.333   0.279
30250W        W89786  41.998  36.967  12.435
30251W        W89787   6.379   4.939   3.274
30252W        W89788  29.504  37.930  12.845
30253W        W89789  19.283   1.928  11.997
30254W        W89790  17.184  15.818  10.928
30255W        W89791  30.567  38.012  12.539
30256W        W89792  42.433  27.602   3.697
30257W        W89793   3.368  38.417  10.508
30258W        W89794  28.519  35.858   3.643
30259W        W89795  30.515  29.591  11.006
30260W        W89796  42.290  41.538   4.695
30261W        W89797  33.607  10.821  12.346
30262W        W89798  21.758   3.395  10.907
30263W        W89799   4.849   9.219   1.701
30264W        W89800  42.300  17.797   1.323
30265W        W89801  37.833   3.734   4.828
30266W        W89802  17.761  43.822   1.926
30267W        W89803  37.068  35.428  11.550
30268W        W89804  11.832  37.501   2.262
30269W        W89805   0.844  12.346  11.580
30270W        W89806  23.667  42.441   4.278
30271W        W89807   1.304  23.068   0.320
30272W        W89808  16.651  17.142   0.368
30273W        W89809  43.502  39.954   2.745
30274W        W89810  24.003  14.819  14.027
30275W        W89811  44.502   5.254   1.324
30276W        W89812  31.898   1.774   3.720
30277W        W89813  36.523  44.841   2.686
30278W        W89814  33.021   8.288   3.669
30279W        W89815  30.473  32.470   1.702
30280W        W89816   4.401  11.786   0.384
30281W        W89817  14.693  42.348  11.517
30282W        W89818   4.276   0.293   2.200
30283W        W89819   3.752  13.819  12.460
30284W        W89820  35.854  30.124  14.338
30285W        W89821   6.311  20.620   4.709
30286W        W89822   6.400  23.711  14.845
30287W        W89823  13.689   4.313   0.810
30288W        W89824  33.384   1.764  11.423
30289W        W89825  30.997   5.196   3.386
30290W        W89826  26.149   7.287   1.826
30291W        W89827  19.058   3.271  14.312
30292W        W89828  24.147  19.660   2.662
30293W        W89829  17.743  26.564   5.164
30294W        W89830  34.510  41.789  13.332
30295W        W89831   4.913   7.887   2.251
30296W        W89832  21.669  32.914   4.175
30297W        W89833  41.003  28.626  10.958
30298W        W89834  18.747  38.483  12.004
30299W        W89835  33.895  38.469  13.377
30300W        W89836   3.365  25.171  12.955
30301W        W89837  26.576  17.742  11.507
30302W        W89838  38.351  16.160   4.670
30303W        W89839   0.340  39.453  14.409
30304W        W89840  35.105   6.885  12.978
30305W        W89841  22.729  11.314  10.463
30306W        W89842  10.366  32.613   2.227
30307W        W89843  40.339  10.821  11.993
30308W        W89844  16.656   3.366  12.358
30309W        W89845  13.684  26.080  14.484
30310W        W89846  23.206   6.377   0.908
30311W        W89847  31.135  10.858   0.830
30312W        W89848   7.343  20.581  14.923
30313W        W89849  16.140  15.637  14.398
30314W        W89850   5.235  26.590  13.985
30315W        W89851   8.808  43.509  12.475
30316W        W89852  36.394  33.402  11.430
30317W        W89853   4.277  23.572   0.950
30318W        W89854   2.291  16.567   3.817
30319W        W89855  23.665   1.436  10.930
30320W        W89856  17.074  19.204   1.880
30321W        W89857   0.330  42.804   4.155
30322W        W89858  29.125  21.061   5.121
30323W        W89859   8.670  18.735  12.373
30324W        W89860  11.833  11.133   2.399
30325W        W89861  31.150  37.452   0.391
30326W        W89862  23.678   9.324  10.898
30327W        W89863  42.849  25.524   2.892
30328W        W89864   0.972  33.622   3.366
30329W        W89865  44.825  21.142   0.908
30330W        W89866  43.789  14.591   5.710
30331W        W89867  22.045  44.278   1.265
30332W        W89868  16.661   9.164   0.435
30333W        W89869  34.553  29.514   3.363
30334W        W89870  25.656  25.205  13.511
30335W        W89871  31.911  35.957  10.522
30336W        W89872  43.900  18.219  12.079
30337W        W89873  34.415  16.775   2.209
30338W        W89874  32.476  28.574   3.783
30339W        W89875  18.653  29.934  11.591
30340W        W89876  22.030  17.252  14.288
30341W        W89877  21.683  35.398  11.530
30342W        W89878  24.625   2.348  13.002
30343W        W89879  39.415  22.690   4.772
30344W        W89880  13.141  16.298   1.282
30345W        W89881  22.086   0.760   0.762
30346W        W89882   0.822   6.272   0.938
30347W        W89883  38.905  33.078  13.064
30348W        W89884  42.951  37.000   1.808
30349W        W89885   8.705  34.064  11.527
30350W        W89886  26.137   3.248  10.423
30351W        W89887  29.091  23.076  12.361
30352W        W89888  23.237  24.102  10.552
30353W        W89889  30.507  26.096   3.799
30354W        W89890  27.678  31.606   2.180
30355W        W89891  39.445  20.263   4.766
30356W        W89892  41.907  12.194  14.452
30357W        W89893  17.745  16.625  11.585
30358W        W89894  12.169  36.997   4.598
30359W        W89895  20.669  19.097   4.751
30360W        W89896  28.046   1.760  11.533
30361W        W89897  22.552  42.450   4.171
30362W        W89898  39.921  21.241  10.944
30363W        W89899  25.128   8.843  13.912
30364W        W89900   3.859  10.649   0.781
30365W        W89901  20.700   8.802  10.541
30366W        W89902  24.150  16.197   9.577
30367W        W89903  13.843  27.659   5.737
30368W        W89904  18.098  40.429   4.161
30369W        W89905  17.246  21.178   0.447
30370W        W89906  13.759  37.860   4.759
30371W        W89907   3.741  15.625  14.759
30372W        W89908  21.569  22.543  12.535
30373W        W89909  36.001   2.253   1.859
30374W        W89910   2.933  28.121   1.931
30375W        W89911  24.077  28.975  14.279
30376W        W89912  22.205  32.498   1.434
30377W        W89913  24.600  30.096  12.847
30378W        W89914  14.200  35.876   4.304
30379W        W89915  20.091   1.912  12.999
30380W        W89916   3.915  40.444  10.612
30381W        W89917  20.765  34.099  11.428
30382W        W89918  23.078   9.206   1.929
30383W        W89919  36.523   8.228  12.892
30384W        W89920  28.010   2.930   1.747
30385W        W89921   9.845  44.922   1.439
30386W        W89922   7.365  13.222  11.383
30387W        W89923  34.040  33.074  13.484
30388W        W89924  20.105  43.833   4.798
30389W        W89925  35.862  39.028  11.872
30390W        W89926   4.710  40.907   2.820
30391W        W89927  25.565  15.229  12.936
30392W        W89928  44.004  24.482   4.284
30393W        W89929  44.381  30.069  12.405
30394W        W89930  22.648  44.344  12.874
30395W        W89931  33.481  25.081  12.870
30396W        W89932  12.720  22.124   2.299
30397W        W89933  31.527  13.846   2.748
30398W        W89934  26.001   2.943   3.688
30399W        W89935  39.990  37.057   0.968
30400W        W89936   6.775  15.791   1.233
30401W        W89937  27.600  42.786   2.397
30402W        W89938  17.752   2.867  10.415
30403W        W89939  19.063  17.156   2.770
30404W        W89940   7.277   1.895   0.403
30405W        W89941  19.556   6.736   4.350
30406W        W89942  12.824  43.825  10.971
30407W        W89943   3.420  10.748  13.336
30408W        W89944   9.289  15.207  10.552
30409W        W89945  23.148  40.326   4.679
30410W        W89946   0.906  12.156  13.909
30411W        W89947  19.201  34.548   1.835
30412W        W89948  13.639  38.514  12.038
30413W        W89949  19.284   7.711   1.788
30414W        W89950  11.799  39.552  11.434
30415W        W89951  17.615  25.580   0.338
30416W        W89952   3.944  40.804  12.540
30417W        W89953  37.901  11.855  13.912
30418W        W89954  41.812  18.116   1.817
30419W        W89955   1.263   8.896   4.838
30420W        W89956   6.873  28.627   2.848
30421W        W89957  20.077  14.784  12.016
30422W        W89958  12.333  17.690  14.850
30423W        W89959  12.351  10.868  11.017
30424W        W89960  27.110   6.837  14.761
30425W        W89961  29.164   7.249  11.585
30426W        W89962   6.862   0.332   0.386
30427W        W89963  34.483   7.234   1.419
30428W        W89964  36.589   6.826   3.302
30429W        W89965  15.104  10.203  13.500
30430W        W89966  13.744  38.444   0.425
30431W        W89967  34.375  44.814  13.941
30432W        W89968   0.467  29.499   3.201
30433W        W89969  23.029   2.256  10.098
30434W        W89970   4.936  39.404   3.687
30435W        W89971  34.603   1.310  10.523
30436W        W89972  39.046  10.376   4.829
30437W        W89973  11.641  21.151   4.644
30438W        W89974  26.080  23.019   0.457
30439W        W89975  22.677  18.246   1.895
30440W        W89976  30.602   7.904   0.749
30441W        W89977  37.455  18.577   3.259
30442W        W89978   8.401   4.331  14.970
30443W        W89979  20.550   9.249   3.682
30444W        W89980  29.151  14.136  14.300
30445W        W89981  39.342   5.219   4.129
30446W        W89982   4.889  18.074   1.367
30447W        W89983   9.365  32.138   0.267
30448W        W89984  37.879  30.540   0.471
30449W        W89985   1.259  34.469  14.777
30450W        W89986  25.012  10.808  14.464
30451W        W89987   7.872  23.152  14.396
30452W        W89988  38.380  44.780  10.496
30453W        W89989  42.910  19.778  14.999
30454W        W89990  13.112  30.986   2.247
30455W        W89991  37.469  41.950   0.465
30456W        W89992  12.205  42.892  14.455
30457W        W89993   4.228   8.848  14.898
30458W        W89994  20.211  26.973   1.785
30459W        W89995  28.529   6.280  10.500
30460W        W89996  18.092  37.013   4.801
30461W        W89997  38.523  35.963   2.897
30462W        W89998  17.592  26.612   1.935
30463W        W89999  23.041  12.242  10.575
30464W        W90000  41.003   9.240   3.332
30465W        W90001  18.790  38.944   5.101
30466W        W90002  18.178  25.692  12.383
30467W        W90003  27.459  17.127   2.745
30468W        W90004  16.181  30.428  12.358
30469W        W90005  42.327   7.779   3.194
30470W        W90006  40.957  21.714  11.982
30471W        W90007  20.031  35.397   3.668
30472W        W90008   7.908  20.130  10.939
30473W        W90009   7.783   1.321   2.355
30474W        W90010  12.628  26.491   3.856
30475W        W90011  12.180  36.438   2.344
30476W        W90012   8.705   5.311   0.406
30477W        W90013   0.248  10.385  13.520
30478W        W90014  16.734   7.180  11.119
30479W        W90015  25.207   1.941   3.176
30480W        W90016  31.116  20.269  12.907
30481W        W90017  26.608  25.047   4.803
30482W        W90018  36.862  19.063  10.471
30483W        W90019  21.600   0.410   4.308
30484W        W90020  29.573  32.121  13.432
30485W        W90021  38.556  44.491  12.527
30486W        W90022  33.551  13.156  14.504
30487W        W90023  17.216  38.990  14.027
30488W        W90024  12.827  16.256  13.822
30489W        W90025  12.283  16.264  14.479
30490W        W90026  26.112  26.699   5.252
30491W        W90027  17.600  44.333  10.988
30492W        W90028  31.480  33.880  10.988
30493W        W90029  28.929  42.945  11.054
30494W        W90030  39.000  20.161   1.916
30495W        W90031  20.525   8.345   4.828
30496W        W90032   4.332  35.895  10.473
30497W        W90033  40.512  22.076   4.324
30498W        W90034  34.613   4.391  10.913
30499W        W90035   4.443  33.038   4.144
30500W        W90036  33.564  33.501   4.297
30501W        W90037  25.013  34.889   2.399
30502W        W90038  31.528   2.302  11.891
30503W        W90039  32.077  15.144  14.938
30504W        W90040  31.093   7.404   4.268
30505W        W90041  23.999   0.389  14.936
30506W        W90042  36.418   3.750  10.966
30507W        W90043  26.099   6.686   0.940
30508W        W90044  14.286  16.092   1.797
30509W        W90045  23.626  33.612  13.473
30510W        W90046  35.057  20.154   3.795
30511W        W90047  18.774  27.633  11.524
30512W        W90048  26.672  12.278   2.265
30513W        W90049   0.884   8.834  11.070
30514W        W90050  13.663   4.221   1.700
30515W        W90051  29.009  19.039  12.855
30516W        W90052  33.003   2.742  11.523
30517W        W90053  35.090   6.403  13.541
30518W        W90054  39.504  13.798   1.314
30519W        W90055  30.531   8.815  12.358
30520W        W90056  39.057  19.073  12.944
30521W        W90057  13.183  23.714   1.886
30522W        W90058  39.909  37.358  14.483
30523W        W90059  36.451  32.514   2.827
30524W        W90060  33.510  39.498   0.405
30525W        W90061  21.606  29.979   0.919
30526W        W90062   5.864  31.057  13.879
30527W        W90063   8.250   6.795   3.802
30528W        W90064   0.479  40.506  12.038
30529W        W90065   9.361  29.970   4.170
30530W        W90066  31.572  21.042   4.789
30531W        W90067  25.478  42.880   3.207
30532W        W90068   7.771  35.392  10.900
30533W        W90069   7.347   6.416   4.329
30534W        W90070  35.512   3.230  12.934
30535W        W90071  24.173  10.801   0.405
30536W        W90072   2.417   9.846   1.311
30537W        W90073  42.500  24.675  11.419
30538W        W90074  44.755  32.951   4.255
30539W        W90075  27.548   4.362   3.787
30540W        W90076  15.670  34.495   4.219
30541W        W90077   3.917  37.493  10.986
30542W        W90078  26.041  22.199   3.828
30543W        W90079   1.386  40.812  13.917
30544W        W90080  25.201  31.535   3.756
30545W        W90081  27.152  43.465   3.658
30546W        W90082  43.872  35.933   0.358
30547W        W90083   8.230   3.952  14.867
30548W        W90084  28.534  11.848   3.172
30549W        W90085  17.150   6.777  14.887
30550W        W90086  20.176   3.845  11.042
30551W        W90087  36.556   1.818   2.341
30552W        W90088  31.521  18.771   1.354
30553W        W90089   4.771  21.208  14.333
30554W        W90090  41.826  29.123   0.456
30555W        W90091  32.087   0.977   5.192
30556W        W90092  39.929   7.748  14.460
30557W        W90093  30.978  26.183  14.439
30558W        W90094  23.086  39.022   4.817
30559W        W90095  36.507  24.209  11.542
30560W        W90096   4.335  15.681   3.369
30561W        W90097   5.324  21.597   0.461
30562W        W90098  22.570  44.375  11.880
30563W        W90099  37.034   2.802   4.230
30564W        W90100   7.266  30.520   4.161
30565W        W90101  29.089  21.033   4.683
30566W        W90102  11.157  41.936  11.393
30567W        W90103  28.941  32.510  14.838
30568W        W90104  10.204  13.745  10.527
30569W        W90105   1.746  35.569   2.258
30570W        W90106  17.284  27.137  12.553
30571W        W90107  10.674  13.258   3.806
30572W        W90108  25.989  40.446   4.766
30573W        W90109  27.108  26.042   0.873
30574W        W90110   4.422  15.802  12.077
30575W        W90111  19.597  21.047   1.361
30576W        W90112  26.023  20.672  10.634
30577W        W90113  20.123  16.716  10.642
30578W        W90114  43.471  35.903  13.809
30579W        W90115   6.910   2.411   2.818
30580W        W90116  16.727  43.368   0.796
30581W        W90117  34.988  40.362   3.863
30582W        W90118  32.116  24.660  12.849
30583W        W90119  34.912   4.757   3.845
30584W        W90120  31.402  34.120   2.796
30585W        W90121  26.008  23.154   2.332
30586W        W90122  35.996  10.266   1.210
30587W        W90123  30.100  15.727   2.740
30588W        W90124  17.104  32.101   1.907
30589W        W90125   6.361  38.540  11.567
30590W        W90126   7.857  15.592  14.816
30591W        W90127  36.048  25.685   2.391
30592W        W90128  38.835  18.637   3.255
30593W        W90129   5.389  22.710  10.058
30594W        W90130  39.939  33.007  10.468
30595W        W90131  42.525  36.537   1.765
30596W        W90132   1.896  38.925   3.347
30597W        W90133  18.791   4.713  11.589
30598W        W90134  32.523  25.591  11.497
30599W        W90135  24.596  17.304   1.256
30600W        W90136  10.329  15.086   2.852
30601W        W90137  19.070  20.699   1.363
30602W        W90138   8.765   3.740   3.279
30603W        W90139  42.879  41.527   4.812
30604W        W90140  15.617   2.913   3.833
30605W        W90141   0.324  15.325   0.953
30606W        W90142  40.431  19.758   0.892
30607W        W90143  34.587  36.552   2.381
30608W        W90144  11.185  43.893   0.284
30609W        W90145  10.373  18.198  14.903
30610W        W90146  24.065  35.884  14.761
30611W        W90147  13.117  36.966  10.433
30612W        W90148  18.194  43.432   3.831
30613W        W90149  42.945  33.427  12.077
30614W        W90150  41.839  11.371   0.477
30615W        W90151  39.315  13.720  13.466
30616W        W90152  44.980  35.066  12.528
30617W        W90153  36.394  16.086  10.487
30618W        W90154  38.994  16.261   2.299
30619W        W90155  25.087  32.924   3.659
30620W        W90156  11.248  39.334   3.200
30621W        W90157  24.048  44.815  11.519
30622W        W90158  30.163  41.438   4.785
30623W        W90159   6.898  32.084   4.765
30624W        W90160  11.707  42.444  12.389
30625W        W90161   8.878  38.942  10.474
30626W        W90162  23.117   8.286   1.368
30627W        W90163   5.344  17.767   1.448
30628W        W90164  16.084  24.130   1.308
30629W        W90165   0.489   1.418  13.510
30630W        W90166  30.444  27.531  13.842
30631W        W90167  18.787  24.107  12.050
30632W        W90168  13.337  40.840   0.771
30633W        W90169  37.025  41.876   3.355
30634W        W90170   4.755  39.975   1.284
30635W        W90171  38.459  29.927   3.805
30636W        W90172  36.581  38.876   2.415
30637W        W90173  26.186   7.410  13.412
30638W        W90174  10.193  29.922   3.790
30639W        W90175   0.343  31.998   3.183
30640W        W90176  17.217  17.142   3.254
30641W        W90177  31.981  30.536  13.010
30642W        W90178  16.723   8.747  11.521
30643W        W90179   0.955   6.316  13.848
30644W        W90180   2.380   6.715  11.865
30645W        W90181   9.794  28.537   5.206
30646W        W90182  20.766  27.465  12.998
30647W        W90183  28.044  40.363  14.976
30648W        W90184  29.507  10.319   1.248
30649W        W90185  30.051  32.125   3.686
30650W        W90186  41.931   0.904   3.788
30651W        W90187  40.446  41.369  14.426
30652W        W90188  19.723  19.075   2.262
30653W        W90189  38.074  30.916   4.811
30654W        W90190  17.665  27.612   0.353
30655W        W90191  27.491  37.527   2.382
30656W        W90192   5.894  23.725  10.959
30657W        W90193  43.958  41.407   0.259
30658W        W90194   9.659   1.305  10.998
30659W        W90195  37.982  14.134   0.276
30660W        W90196  10.214  12.177   2.824
30661W        W90197  42.822  33.955   2.848
30662W        W90198  31.941  14.263   2.195
30663W        W90199  42.416  15.305  14.464
30664W        W90200  11.688   6.827  11.574
30665W        W90201   6.372  28.559  13.548
30666W        W90202  21.741   2.908   1.370
30667W        W90203  16.709   1.802  11.437
30668W        W90204  22.130  30.070   3.861
30669W        W90205  44.896  12.611   1.299
30670W        W90206  12.287  17.153  13.840
30671W        W90207  43.016  10.218  13.912
30672W        W90208   9.325  35.872  10.070
30673W        W90209  27.590  35.086   0.820
30674W        W90210  40.043  34.510   1.432
30675W        W90211  27.575  33.473   3.775
30676W        W90212  14.630  43.887   0.809
30677W        W90213  30.122  28.144   0.760
30678W        W90214  37.448  37.878  13.539
30679W        W90215  32.113  39.476  10.905
30680W        W90216  30.008   8.206  13.895
30681W        W90217  43.453  40.346  14.378
30682W        W90218  34.429  27.622   4.639
30683W        W90219  34.936  33.506  11.950
30684W        W90220  22.011  31.101   2.256
30685W        W90221  35.603  35.884  10.604
30686W        W90222  15.172  24.584  12.430
30687W        W90223  30.134   3.831   2.801
30688W        W90224  43.916  21.205  14.876
30689W        W90225  33.622  41.873   4.234
30690W        W90226   5.792  18.085   0.483
30691W        W90227  38.450  24.577   3.161
30692W        W90228  30.146   5.405   1.408
30693W        W90229  38.820   5.355   4.814
30694W        W90230  16.571  35.951   1.313
30695W        W90231  25.999  18.668  14.437
30696W        W90232  41.908  20.749   0.338
30697W        W90233  10.872   3.441   2.242
30698W        W90234  12.768   4.237   3.298
30699W        W90235  36.978   3.431   5.632
30700W        W90236  27.578  19.677   0.855
30701W        W90237  10.249  27.083  12.442
30702W        W90238   5.753  21.163  14.319
30703W        W90239  16.257  14.654  11.536
30704W        W90240   9.844  19.210  13.986
30705W        W90241  15.821  28.149   1.852
30706W        W90242  34.928  11.126  14.351
30707W        W90243   6.896   9.278  10.603
30708W        W90244  20.216  40.968  11.601
30709W        W90245  16.238  14.669   1.786
30710W        W90246   2.250   9.810  13.445
30711W        W90247  35.462   6.183  11.479
30712W        W90248   0.492  13.785  14.829
30713W        W90249   5.221  21.131   3.828
30714W        W90250  35.437  32.083  11.412
30715W        W90251   8.307  10.763  14.344
30716W        W90252  29.931   8.673   2.829
30717W        W90253  13.106  24.484   0.377
30718W        W90254  21.690  16.207  12.426
30719W        W90255   6.315   2.432   2.398
30720W        W90256  27.497  21.757  10.972
30721W        W90257   7.695  31.968  14.900
30722W        W90258  38.040  17.630  12.896
30723W        W90259   3.731   3.826  12.096
30724W        W90260   0.771  23.175   4.629
30725W        W90261  12.650   5.867   2.320
30726W        W90262   8.750  43.353   3.364
30727W        W90263  24.723  27.678  10.959
30728W        W90264  28.598   3.819   4.193
30729W        W90265  25.107  19.099   1.281
30730W        W90266  26.460  24.636  13.844
30731W        W90267  30.603  24.498   4.213
30732W        W90268   2.368   1.482  12.901
30733W        W90269   2.311   3.878   4.152
30734W        W90270  39.940  34.537  11.472
30735W        W90271   8.757  25.025   1.899
30736W        W90272  29.971  11.371   1.280
30737W        W90273  19.671  25.619  13.514
30738W        W90274  11.808  37.006   1.347
30739W        W90275  26.977  18.219   1.298
30740W        W90276  15.319  18.191   4.178
30741W        W90277  31.947  38.046  10.490
30742W        W90278  40.038  26.012   4.774
30743W        W90279  44.358  21.577   2.203
30744W        W90280  43.776  18.647  14.398
30745W        W90281   0.371   8.672  13.005
30746W        W90282   7.689  22.008  11.383
30747W        W90283  24.137  21.574   0.787
30748W        W90284  19.243  10.842   3.786
30749W        W90285  37.389  42.465  10.936
30750W        W90286  32.127  12.824   0.458
30751W        W90287  36.087  43.891   3.252
30752W        W90288  14.824   5.351   1.292
30753W        W90289   4.379   8.300  13.334
30754W        W90290  14.293   9.150   2.296
30755W        W90291  25.966  13.314  14.336
30756W        W90292  31.151  44.003  10.534
30757W        W90293   9.723  23.572  14.384
30758W        W90294  38.015  22.629   2.674
30759W        W90295  32.561  39.441  10.626
30760W        W90296  19.662  36.521   1.879
30761W        W90297  35.512  16.568  13.498
30762W        W90298  28.613  19.262   2.801
30763W        W90299  31.418  37.512  11.056
30764W        W90300  25.051   8.213   3.742
30765W        W90301  37.544  26.028   1.377
30766W        W90302  16.180  28.601  12.935
30767W        W90303  16.637   4.299  13.872
30768W        W90304  34.097   5.909   2.280
30769W        W90305   6.343  37.443   4.732
30770W        W90306  15.651  20.267   3.278
30771W        W90307  38.472  38.381   0.874
30772W        W90308  38.420   7.873   4.351
30773W        W90309  30.127  26.975  13.845
30774W        W90310  14.670  14.171  14.349
30775W        W90311  36.931  38.390  11.514
30776W        W90312  19.225  11.792  10.540
30777W        W90313  27.505  25.970  11.888
30778W        W90314   3.878   4.354   2.844
30779W        W90315  14.624  16.261   4.161
30780W        W90316  22.668  29.918   2.373
30781W        W90317   9.693  24.194   3.859
30782W        W90318   2.443   1.270  11.073
30783W        W90319  42.811  35.100   2.225
30784W        W90320  33.480  39.820   1.841
30785W        W90321  19.672  23.078   4.215
30786W        W90322  23.691  14.234   3.236
30787W        W90323  37.869  17.773  14.282
30788W        W90324  41.292  10.302   2.747
30789W        W90325  33.423  18.093   3.376
30790W        W90326   9.164  43.289   0.951
30791W        W90327  14.594  34.946   4.630
30792W        W90328  26.036   0.476   0.461
30793W        W90329  35.588  13.211   3.718
30794W        W90330  24.658  19.217  13.997
30795W        W90331  30.929  14.792   4.781
30796W        W90332  41.481  27.592   0.472
30797W        W90333   2.938   7.272  14.406
30798W        W90334  27.030  24.687   2.691
30799W        W90335   6.691  40.450   1.823
30800W        W90336   3.825  39.971  11.019
30801W        W90337  18.589  19.589   1.267
30802W        W90338  11.690  27.052   0.304
30803W        W90339   3.755   2.855  10.904
30804W        W90340   8.378  39.444  12.543
30805W        W90341  29.564  44.392  10.527
30806W        W90342  34.966   0.942   5.179
30807W        W90343  10.877  14.178   0.787
30808W        W90344  18.762   1.254  11.076
30809W        W90345  13.327   3.853   1.815
30810W        W90346  14.330  22.657   0.384
30811W        W90347  26.670  39.861   0.871
30812W        W90348  18.182  17.583  12.432
30813W        W90349  11.710  39.480   3.312
30814W        W90350  22.567   2.856  14.367
30815W        W90351  25.171  30.064   2.812
30816W        W90352  31.053  31.606   0.445
30817W        W90353  23.086  36.845  12.353
30818W        W90354  39.018  24.205  12.484
30819W        W90355  39.957   7.734   0.335
30820W        W90356  36.993   5.922  13.450
30821W        W90357  30.055  37.080   4.642
30822W        W90358  16.318  36.959   2.237
30823W        W90359   2.332  24.049  10.114
30824W        W90360  13.603  14.130  12.957
30825W        W90361   0.876   9.740  11.958
30826W        W90362  36.040  19.536   1.744
30827W        W90363  31.475  44.963  10.609
30828W        W90364  21.144   4.425   9.660
30829W        W90365  19.085  25.535   4.697
30830W        W90366   4.314  22.117  11.106
30831W        W90367  15.643  11.646  14.798
30832W        W90368  18.151  24.203  13.870
30833W        W90369  26.171   8.170  13.477
30834W        W90370  15.251  41.848  14.783
30835W        W90371   3.743  29.485   2.763
30836W        W90372   3.295  42.323   0.859
30837W        W90373  38.822  42.937   3.253
30838W        W90374   4.716  19.736   5.173
30839W        W90375  38.948  44.005   0.761
30840W        W90376   8.813  43.940  12.856
30841W        W90377  28.064  32.952  11.457
30842W        W90378  40.434  33.909  13.795
30843W        W90379  40.317  12.818   3.792
30844W        W90380   3.892   6.761  14.392
30845W        W90381  21.562   5.357  12.406
30846W        W90382  34.468  33.510   4.306
30847W        W90383  30.511  30.592  13.864
30848W        W90384  39.059  30.110   3.148
30849W        W90385  34.444  23.700  10.892
30850W        W90386  11.766  22.009  12.484
30851W        W90387  35.440  25.507   0.303
30852W        W90388  40.545   0.288  11.069
30853W        W90389  14.188  33.099   4.269
30854W        W90390  27.059  14.748   2.897
30855W        W90391  31.631   3.820  10.893
30856W        W90392  19.121   6.874   1.722
30857W        W90393  28.662  35.450   0.373
30858W        W90394   2.466  11.650   0.329
30859W        W90395   4.725  16.627   4.354
30860W        W90396  21.209   0.299   4.192
30861W        W90397  25.069  34.553  14.447
30862W        W90398   5.924  31.961  12.542
30863W        W90399   7.684  27.075   0.379
30864W        W90400  17.117   8.850   3.150
30865W        W90401  28.169  17.109  12.001
30866W        W90402  35.872  39.063   1.814
30867W        W90403  24.100  37.998   4.665
30868W        W90404   1.751  30.423  12.846
30869W        W90405  36.975   2.426  10.498
30870W        W90406  22.594  22.143   4.270
30871W        W90407  39.010  24.604   0.436
30872W        W90408  44.423  10.381  13.463
30873W        W90409  38.022  24.067  11.954
30874W        W90410  28.669  44.006   0.339
30875W        W90411  33.379  38.972  10.901
30876W        W90412  43.482  33.934  13.891
30877W        W90413  10.828  41.844   0.788
30878W        W90414  36.442  44.429  10.096
30879W        W90415  35.936  23.123   4.126
30880W        W90416  26.493  24.062   4.683
30881W        W90417  21.215  34.916   2.754
30882W        W90418   8.279  31.985  10.925
30883W        W90419   5.433  30.095  13.903
30884W        W90420  11.319   0.877  13.343
30885W        W90421  22.076  38.865  14.016
30886W        W90422  12.688  15.296   2.416
30887W        W90423   5.225  25.088   4.754
30888W        W90424   7.320   0.875   2.733
30889W        W90425  21.103  33.064  10.412
30890W        W90426  20.610  39.560  11.581
30891W        W90427  11.201  26.065   3.161
30892W        W90428   5.426  16.733   3.697
30893W        W90429  35.428  33.073   1.767
30894W        W90430   7.711  44.842   0.299
30895W        W90431   5.704  15.651  11.920
30896W        W90432  15.122  37.869  12.547
30897W        W90433  37.377  29.425  13.521
30898W        W90434  20.697   5.795   3.739
30899W        W90435  11.281   3.215  11.459
30900W        W90436   4.424  14.147   4.708
30901W        W90437  23.131  37.544   3.640
30902W        W90438  10.342  24.541  10.993
30903W        W90439  26.659  10.775  10.953
30904W        W90440  26.687   2.726   3.721
30905W        W90441  44.298  14.280  10.434
30906W        W90442  14.743  42.422  13.338
30907W        W90443  34.078  39.879   2.327
30908W        W90444  13.179  35.035   5.084
30909W        W90445  33.438   9.873   2.327
30910W        W90446  35.546   4.754  10.481
30911W        W90447   3.218   1.953  14.024
30912W        W90448  23.592  17.248  11.951
30913W        W90449   8.264   1.815   1.810
30914W        W90450  21.045  11.188  14.894
30915W        W90451  10.160  21.024   9.982
30916W        W90452  16.594   7.880  12.096
30917W        W90453  44.786  16.124  11.608
30918W        W90454  37.552  30.089   2.721
30919W        W90455   4.883   6.922  11.522
30920W        W90456  30.634  27.628  14.492
30921W        W90457  22.695   0.464   4.165
30922W        W90458  28.129  37.050  10.136
30923W        W90459  35.059  33.993  10.990
30924W        W90460   6.887  12.272   1.716
30925W        W90461  23.678  13.149   4.797
30926W        W90462  44.972  31.588   4.765
30927W        W90463  40.930  10.282   2.792
30928W        W90464  44.336  38.830  13.390
30929W        W90465   7.190  36.502   0.333
30930W        W90466  28.977  14.232  13.516
30931W        W90467  25.985  38.547   0.251
30932W        W90468  17.716  12.788  12.461
30933W        W90469  25.162  17.070  11.538
30934W        W90470  20.523  22.683   4.154
30935W        W90471  22.998  14.142   0.872
30936W        W90472   7.746   3.242   3.773
30937W        W90473  14.237   7.282  14.928
30938W        W90474  35.061  38.942  14.979
30939W        W90475  44.499  34.906  10.937
30940W        W90476   5.423  43.498  12.950
30941W        W90477  33.939  41.961  11.110
30942W        W90478  29.102  35.517  13.524
30943W        W90479  14.597   7.740  13.970
30944W        W90480  31.508  20.251   2.721
30945W        W90481  25.133  38.819  13.441
30946W        W90482   6.842   2.444   4.750
30947W        W90483  30.605  20.725  14.986
30948W        W90484  22.651   3.390   4.219
30949W        W90485  30.055  38.549  11.027
30950W        W90486  42.032  26.470  13.825
30951W        W90487   1.435  43.330   3.189
30952W        W90488   8.681  24.538  14.511
30953W        W90489  31.503  36.930  12.473
30954W        W90490  42.327   8.666  14.855
30955W        W90491   6.303   5.287   1.779
30956W        W90492  31.096  27.080   0.307
30957W        W90493   2.273   8.663  14.939
30958W        W90494  13.703   9.152  10.931
30959W        W90495  44.362  38.491  13.451
30960W        W90496   0.430  42.783   3.186
30961W        W90497   6.265  41.018  11.478
30962W        W90498   8.756  23.100   4.295
30963W        W90499  30.537   0.897   1.804
30964W        W90500   7.227  30.559  11.907
30965W        W90501  36.480  21.619   2.873
30966W        W90502  24.619  17.081  13.835
30967W        W90503  27.633  22.038   4.167
30968W        W90504   5.783  13.191   4.165
30969W        W90505  11.740  35.032  12.537
30970W        W90506  44.757  16.731   1.356
30971W        W90507  28.048  22.552   4.119
30972W        W90508   4.886   1.797   1.373
30973W        W90509  17.611  26.079   4.254
30974W        W90510  36.453  22.039  13.422
30975W        W90511  26.178   7.338   4.614
30976W        W90512  24.994   1.417   3.369
30977W        W90513  15.160  25.700   3.781
30978W        W90514  16.297  32.092   2.850
30979W        W90515  23.669  14.103  10.475
30980W        W90516  32.993  22.742   2.235
30981W        W90517  17.770  12.748  13.002
30982W        W90518  44.352   1.897   2.897
30983W        W90519  41.810   7.209  11.609
30984W        W90520   7.877   9.234  14.496
30985W        W90521  28.010  27.102   3.740
30986W        W90522  44.361  28.092   3.161
30987W        W90523  32.528  16.624   1.424
30988W        W90524   6.243  41.995   0.734
30989W        W90525  40.925  39.821  12.864
30990W        W90526  43.335   6.278   2.750
30991W        W90527  21.615  31.445   0.951
30992W        W90528  20.527  19.120  11.909
30993W        W90529  16.646  24.161  13.871
30994W        W90530  17.596  37.529  13.015
30995W        W90531  32.506  17.656   1.231
30996W        W90532   2.458   2.952   2.351
30997W        W90533   3.719   9.301  12.080
30998W        W90534  10.711   1.467  14.503
30999W        W90535   7.725  35.966  14.473
31000W        W90536  28.097   0.331   2.302
31001W        W90537  35.868  33.092   2.251
31002W        W90538  39.354  31.916   3.358
31003W        W90539   9.359  18.692  10.544
31004W        W90540   3.354  33.106   4.228
31005W        W90541  35.438   5.237  13.815
31006W        W90542  39.512  42.341  13.364
31007W        W90543   7.379  14.312  11.418
31008W        W90544  36.588  37.838   1.830
31009W        W90545  30.104  29.622  13.032
31010W        W90546  24.648  39.314   0.330
31011W        W90547  35.955  34.893  13.355
31012W        W90548  17.572  37.399  14.372
31013W        W90549  13.614  40.021   3.737
31014W        W90550  12.613  38.509   0.279
31015W        W90551  28.005   3.729   2.875
31016W        W90552  29.048   6.918  11.994
31017W        W90553  13.178  14.766  12.840
31018W        W90554  38.431   0.941  12.342
31019W        W90555  28.944  38.956  14.977
31020W        W90556   7.266  33.131  12.839
31021W        W90557   1.778  28.619  11.892
31022W        W90558  37.966  29.065   0.871
31023W        W90559   6.752  36.917   2.249
31024W        W90560  33.978   8.394   3.788
31025W        W90561  35.435  30.912  10.596
31026W        W90562  11.197  26.094  14.933
31027W        W90563  16.747  24.699  13.029
31028W        W90564  39.935  40.450  11.959
31029W        W90565  29.127  18.551   2.779
31030W        W90566  38.858   9.245   3.335
31031W        W90567  26.142  34.019   0.927
31032W        W90568  44.930  39.994  10.972
31033W        W90569  14.602  31.051  13.931
31034W        W90570  10.716  19.203  12.888
31035W        W90571  15.780  31.955   0.921
31036W        W90572  20.725  17.774  11.992
31037W        W90573  22.051  33.882   5.646
31038W        W90574   8.385  21.738  13.418
31039W        W90575  38.548  42.475  14.879
31040W        W90576   9.346  31.042  10.476
31041W        W90577  23.104  10.197   0.382
31042W        W90578  17.745   0.889  11.457
31043W        W90579  43.824  18.194  12.553
31044W        W90580  42.817  35.880  14.433
31045W        W90581   1.944   9.647   2.822
31046W        W90582  10.662   8.895  11.403
31047W        W90583  13.844  44.324   4.300
31048W        W90584  21.583   4.361   2.179
31049W        W90585  40.961  31.964   4.785
31050W        W90586  27.080  38.422  14.014
31051W        W90587  30.578  14.751  12.460
31052W        W90588  40.510   1.411   1.221
31053W        W90589  30.105  41.001  10.996
31054W        W90590   7.293  23.593  12.579
31055W        W90591  21.543  23.643   0.846
31056W        W90592  10.356  26.659  11.992
31057W        W90593  26.458  43.410  10.933
31058W        W90594  19.581   0.985  12.030
31059W        W90595  29.505  11.679  12.367
31060W        W90596  13.143  33.954  10.503
31061W        W90597  23.201  13.118   0.312
31062W        W90598  38.856   9.658   3.696
31063W        W90599  14.131  38.417   1.286
31064W        W90600  29.957   1.854  11.084
31065W        W90601  20.574   0.408  13.820
31066W        W90602  25.652   6.382  14.280
31067W        W90603  14.177   2.348   2.249
31068W        W90604  31.112  20.747  10.420
31069W        W90605  13.305  23.177   4.114
31070W        W90606  23.201  25.648  11.965
31071W        W90607   9.867  25.087  12.504
31072W        W90608  13.627  27.081  14.924
31073W        W90609  14.766   9.351  12.406
31074W        W90610  27.529   0.807  10.495
31075W        W90611  38.987  12.799   3.254
31076W        W90612   8.273  38.445  11.550
31077W        W90613   5.282  35.920  14.800
31078W        W90614  28.534  17.613   9.664
31079W        W90615  26.127  36.935  12.002
31080W        W90616  25.008  11.652   4.137
31081W        W90617  30.983  24.566   1.312
31082W        W90618   6.880  14.163  14.024
31083W        W90619  36.848  41.385  14.278
31084W        W90620  22.569  20.679  11.054
31085W        W90621  26.135  30.590  11.125
31086W        W90622  42.928  27.059   1.244
31087W        W90623  33.428   6.913   0.302
31088W        W90624  30.163   9.852   4.338
31089W        W90625  19.120  35.901  10.908
31090W        W90626   4.350  21.672   0.298
31091W        W90627  25.653   9.340  11.584
31092W        W90628  44.302   6.350   2.809
31093W        W90629  33.929  44.310   3.636
31094W        W90630  32.595  41.428   4.634
31095W        W90631  39.452  11.783   3.828
31096W        W90632  29.020  36.555   4.146
31097W        W90633  22.606  33.884  13.846
31098W        W90634  25.673  41.805   2.379
31099W        W90635  39.981  12.158  11.974
31100W        W90636   9.869  20.235   0.407
31101W        W90637  38.402  23.648   3.153
31102W        W90638  27.485  18.568   3.327
31103W        W90639  31.085  15.217   3.791
31104W        W90640  33.553  42.404  11.937
31105W        W90641  33.448  21.080  13.352
31106W        W90642  23.687  12.311  13.852
31107W        W90643  42.306   8.280   0.794
31108W        W90644  21.099   6.372  10.416
31109W        W90645  20.532  33.956   1.358
31110W        W90646  37.922  27.652   2.893
31111W        W90647  33.943  44.383  14.885
31112W        W90648  25.111  11.147  13.543
31113W        W90649  34.968  28.043  10.953
31114W        W90650  27.023  22.053   2.199
31115W        W90651  11.628  43.435   3.755
31116W        W90652  26.468  14.120   1.227
31117W        W90653  38.449  25.499   1.260
31118W        W90654  15.770  18.118  13.910
31119W        W90655  22.509  38.524   0.297
31120W        W90656  12.324   5.698   0.930
31121W        W90657   9.768  43.821  14.775
31122W        W90658  35.062   0.914   4.280
31123W        W90659  32.137   7.699   2.701
31124W        W90660  12.743  23.538  14.784
31125W        W90661   7.856  42.887   4.759
31126W        W90662  20.578   8.743  14.779
31127W        W90663   0.385  35.969   2.707
31128W        W90664  32.584  42.322   4.221
31129W        W90665  26.604   9.271  10.579
31130W        W90666  26.969  22.725  12.978
31131W        W90667  20.242  24.626  13.323
31132W        W90668  42.338  26.123   1.860
31133W        W90669  27.524   1.805  11.539
31134W        W90670   5.803  23.182   1.386
31135W        W90671   0.415   3.427  14.308
31136W        W90672  43.392  28.521  11.971
31137W        W90673  20.216  16.297  12.857
31138W        W90674  18.775   8.335   0.305
31139W        W90675  26.952  22.207   0.762
31140W        W90676  39.065  29.973   4.708
31141W        W90677  18.211  21.703  11.376
31142W        W90678  10.790  27.530   2.351
31143W        W90679   6.698  28.446   1.279
31144W        W90680  40.311   0.860   0.829
31145W        W90681  22.074   3.290   0.928
31146W        W90682  27.175  22.032  11.611
31147W        W90683  35.431   3.325   1.398
31148W        W90684  31.617  13.739  13.010
31149W        W90685  41.489  20.068  12.349
31150W        W90686  18.630  12.288   0.258
31151W        W90687   9.262  28.186  14.352
31152W        W90688  39.469  38.875   1.715
31153W        W90689  31.931  27.607  12.534
31154W        W90690   6.335   9.236   1.799
31155W        W90691   6.838  34.030  10.599
31156W        W90692  19.056  39.541  13.321
31157W        W90693  31.115  21.695  14.941
31158W        W90694  31.565  18.684   0.273
31159W        W90695   8.736  10.797   1.369
31160W        W90696   8.736  40.536   2.864
31161W        W90697  28.536  12.682  14.781
31162W        W90698  10.747  33.063   3.760
31163W        W90699  14.674   9.742  13.427
31164W        W90700  14.601  16.595  13.827
31165W        W90701  29.964  25.587   9.438
31166W        W90702   5.847  11.248   3.365
31167W        W90703  38.041   3.786   0.387
31168W        W90704   0.408  36.590   3.211
31169W        W90705  28.142   7.837   2.856
31170W        W90706  44.380  13.730  11.075
31171W        W90707  40.345  12.670  12.530
31172W        W90708   9.779  22.106   1.923
31173W        W90709  15.102  15.711   3.234
31174W        W90710  34.589  19.551   4.138
31175W        W90711   4.736  36.410  12.066
31176W        W90712   3.928  11.743   4.164
31177W        W90713  18.789  24.071   9.983
31178W        W90714  29.531  33.877  13.547
31179W        W90715  24.597  41.943  11.599
31180W        W90716  15.661   7.808   2.829
31181W        W90717  36.573  23.649  11.104
31182W        W90718   3.883  42.797  13.023
31183W        W90719  18.597  21.031  13.994
31184W        W90720  35.053  32.898   0.427
31185W        W90721  32.008  37.058   3.771
31186W        W90722   2.296   4.419  13.358
31187W        W90723  20.070   4.232   4.343
31188W        W90724  34.011  35.090  11.025
31189W        W90725  23.087   6.719  13.417
31190W        W90726  37.878  25.029   2.317
31191W        W90727  41.887   6.422  13.897
31192W        W90728  11.314  28.033   1.235
31193W        W90729  23.037  37.895  11.048
31194W        W90730  20.608   5.287   0.760
31195W        W90731  16.575  43.497   1.252
31196W        W90732   1.877  29.648   2.901
31197W        W90733  12.800  17.229  12.928
31198W        W90734   0.403  29.593  10.614
31199W        W90735   4.272  39.903  13.829
31200W        W90736  18.220   3.250  14.949
31201W        W90737  33.111  13.245   1.705
31202W        W90738  41.985  12.154   9.627
31203W        W90739  11.683   7.824   3.204
31204W        W90740  10.691   1.447   4.820
31205W        W90741   5.399   4.324  14.322
31206W        W90742   4.358  39.475  10.616
31207W        W90743   2.885  27.533   5.235
31208W        W90744  26.971   4.205   0.842
31209W        W90745  36.899  25.479  13.992
31210W        W90746  13.347  20.175  11.123
31211W        W90747   0.475  23.680  13.867
31212W        W90748  23.051  36.383  12.416
31213W        W90749  29.575  36.083  11.950
31214W        W90750  36.944   3.881  10.123
31215W        W90751   6.823  12.306  14.364
31216W        W90752  15.273  41.351  12.393
31217W        W90753  15.319   4.722   2.236
31218W        W90754  20.127  30.959   0.965
31219W        W90755   0.383  29.645   1.745
31220W        W90756  42.015   0.910   3.190
31221W        W90757   5.800  13.184   3.176
31222W        W90758  29.055   6.288   2.718
31223W        W90759  24.554  35.043  14.410
31224W        W90760   5.706  38.492   1.772
31225W        W90761  32.901  39.049   3.762
31226W        W90762   5.249  37.874   3.737
31227W        W90763  44.305  38.989  10.988
31228W        W90764  19.055  13.663  12.454
31229W        W90765   3.331  11.719  14.445
31230W        W90766   3.452   1.319   4.784
31231W        W90767  13.150   6.400   0.752
31232W        W90768  37.337  19.050  14.287
31233W        W90769  12.777  24.532   4.774
31234W        W90770  36.451  22.609  11.930
31235W        W90771  39.815  35.360  11.480
31236W        W90772  34.488  11.167   1.258
31237W        W90773  27.518  21.058   4.773
31238W        W90774   6.909  13.201   1.716
31239W        W90775   8.332  33.432  12.068
31240W        W90776   4.305  16.708  10.411
31241W        W90777  37.961  19.726   1.791
31242W        W90778  39.424  33.585  14.760
31243W        W90779   0.411   7.882  12.934
31244W        W90780  20.039   9.335  14.897
31245W        W90781  34.420  30.584   3.764
31246W        W90782  29.031  24.681   1.240
31247W        W90783  21.624   1.915  13.320
31248W        W90784  22.705  42.982  11.932
31249W        W90785   6.331   2.805   3.699
31250W        W90786  26.497  33.545  12.392
31251W        W90787   1.470   1.435  12.997
31252W        W90788   9.849  21.152  14.300
31253W        W90789  14.764  40.011   0.796
31254W        W90790  14.096  15.698  13.857
31255W        W90791  32.614  11.654  13.833
31256W        W90792  14.744  12.663  11.993
31257W        W90793   9.738  44.482  14.288
31258W        W90794   9.344   3.228  14.859
31259W        W90795  33.389  15.761   0.934
31260W        W90796  30.026  13.329   2.883
31261W        W90797  26.099  29.970   4.838
31262W        W90798  14.294   4.213  12.830
31263W        W90799  38.521  40.306   2.812
31264W        W90800   4.765  25.635   3.247
31265W        W90801   8.884  22.218   1.911
31266W        W90802  31.629  20.556   4.817
31267W        W90803   6.699   1.238  12.417
31268W        W90804  15.226  18.757   3.679
31269W        W90805  36.573   7.733   2.301
31270W        W90806  43.910  32.978  11.401
31271W        W90807  24.536   0.797   2.183
31272W        W90808  23.692   4.337   0.901
31273W        W90809   4.209  28.960  11.029
31274W        W90810  31.490  41.023   0.835
31275W        W90811  44.896  24.066  11.375
31276W        W90812  11.843   4.762  10.092
31277W        W90813   2.806   7.673   2.761
31278W        W90814  34.553   3.902   3.699
31279W        W90815  38.521  21.516  14.450
31280W        W90816  38.913  16.297   1.331
31281W        W90817  34.372  37.438  12.859
31282W        W90818  36.074  29.544   0.311
31283W        W90819  40.463  33.462   0.792
31284W        W90820  20.708  17.680   3.792
31285W        W90821  32.394  20.048   2.883
31286W        W90822  29.471   1.759   2.894
31287W        W90823  27.178  21.705  12.080
31288W        W90824  21.755  21.193   9.572
31289W        W90825  25.627  28.931  10.578
31290W        W90826  19.686  14.192  11.593
31291W        W90827  11.191  25.000   0.896
31292W        W90828  32.887  36.526  14.768
31293W        W90829   6.810  40.478  13.804
31294W        W90830  33.473  10.333  11.563
31295W        W90831  36.905  16.237   1.303
31296W        W90832   9.315  40.395  11.531
31297W        W90833   1.366  11.726  14.012
31298W        W90834  42.522  29.571  14.279
31299W        W90835  43.882  36.026   3.677
31300W        W90836  10.155  27.483   2.719
31301W        W90837   9.276  28.179  14.958
31302W        W90838   0.450   9.215  10.579
31303W        W90839  29.565  10.701   0.959
31304W        W90840  12.118  22.019   4.697
31305W        W90841  32.595  18.226   2.675
31306W        W90842  38.981   4.872   0.738
31307W        W90843  42.801  34.558  13.327
31308W        W90844  29.982  22.581   2.736
31309W        W90845   7.880  22.736  11.082
31310W        W90846  22.663  17.747  11.942
31311W        W90847  30.130  26.963   4.144
31312W        W90848  29.100  27.149   3.635
31313W        W90849  21.725  38.937   2.701
31314W        W90850   2.910  30.999   1.729
31315W        W90851  37.058  26.544  14.936
31316W        W90852   9.781  15.725  12.853
31317W        W90853  17.076  33.941  14.341
31318W        W90854  17.226  38.555  12.490
31319W        W90855  27.188  11.140  13.922
31320W        W90856  10.288  21.215   5.095
31321W        W90857  38.544  42.823  10.442
31322W        W90858  29.979  27.561  14.812
31323W        W90859   1.878   9.175  12.343
31324W        W90860  25.542  32.615  14.287
31325W        W90861  20.223  24.990  10.970
31326W        W90862  38.460  42.941  14.478
31327W        W90863   8.709  34.922  11.550
31328W        W90864  27.579  14.677   0.386
31329W        W90865  34.493  41.316  13.915
31330W        W90866  22.107  28.175   4.156
31331W        W90867   9.302  33.411   1.356
31332W        W90868   0.301  39.971  12.459
31333W        W90869   9.707  15.171  10.508
31334W        W90870  14.764  12.741  11.574
31335W        W90871   9.804  38.023   1.346
31336W        W90872  10.384  21.668   1.390
31337W        W90873  27.979  25.199  13.396
31338W        W90874   4.440  22.149  12.933
31339W        W90875  43.902  21.597   1.810
31340W        W90876  38.888  30.657   1.929
31341W        W90877  43.292  42.466  12.501
31342W        W90878  14.608   5.897  14.356
31343W        W90879  43.489   0.745   2.813
31344W        W90880   1.960  32.017  14.028
31345W        W90881  40.998   8.378  12.847
31346W        W90882  21.635  19.602  12.437
31347W        W90883  23.550  37.035   0.785
31348W        W90884  35.999  38.009  14.389
31349W        W90885  14.138  14.601   2.220
31350W        W90886  29.069  17.090   3.703
31351W        W90887  32.392  23.179  11.943
31352W        W90888   9.329  35.018  12.838
31353W        W90889   2.337  26.129   1.387
31354W        W90890  39.040  22.038  13.045
31355W        W90891  15.763  23.994  13.824
31356W        W90892  21.551  24.488  14.777
31357W        W90893  17.559  21.079   2.734
31358W        W90894   7.214  25.152   1.853
31359W        W90895  10.343  28.019   5.580
31360W        W90896  34.612  19.244   4.815
31361W        W90897   9.173  41.014  12.017
31362W        W90898  10.749  24.153   0.349
31363W        W90899  42.996  31.548   4.208
31364W        W90900  11.347  42.476   2.849
31365W        W90901  29.980  10.833   1.451
31366W        W90902  12.843  30.913  14.768
31367W        W90903  39.511  34.084   0.816
31368W        W90904  28.994  36.975   1.227
31369W        W90905  12.301  19.203   4.606
31370W        W90906  29.047  31.420  12.849
31371W        W90907  26.559  28.596  13.891
31372W        W90908  27.567   6.319  14.952
31373W        W90909   2.877  25.173  11.875
31374W        W90910  12.131   7.337  13.995
31375W        W90911  12.225  25.647   2.879
31376W        W90912  37.012   1.360  13.920
31377W        W90913  20.238   4.228  12.019
31378W        W90914   1.919  26.459   4.206
31379W        W90915  32.950   3.217   0.873
31380W        W90916  30.456  19.137  14.296
31381W        W90917   0.815  37.010  10.505
31382W        W90918  32.066  44.915  12.925
31383W        W90919   1.943  23.652   9.971
31384W        W90920  10.252  18.767  10.542
31385W        W90921  40.347  36.989  11.087
31386W        W90922   3.372  22.737  11.888
31387W        W90923  20.601  39.481  13.307
31388W        W90924  37.544   7.290   1.889
31389W        W90925   0.286  38.354  11.512
31390W        W90926  17.679  15.170  12.999
31391W        W90927  24.145   1.418  10.582
31392W        W90928  13.341  26.208   5.270
31393W        W90929  35.572  33.419   4.800
31394W        W90930  39.826  10.755   4.755
31395W        W90931  35.994   8.738   0.741
31396W        W90932   1.766  12.796   2.794
31397W        W90933  29.571   8.325  14.276
31398W        W90934  12.754   8.348   1.281
31399W        W90935  15.297   7.290  12.552
31400W        W90936  42.527  20.621  12.368
31401W        W90937  36.401  44.271   1.701
31402W        W90938   5.289  36.849  11.572
31403W        W90939  23.195   6.894  10.914
31404W        W90940  25.499  36.420   5.147
31405W        W90941  24.069  29.554  14.320
31406W        W90942  17.761   9.660  11.991
31407W        W90943  14.730  21.730  10.079
31408W        W90944   9.265  12.176   4.350
31409W        W90945   2.237  31.568   2.696
31410W        W90946  44.969  36.064   1.921
31411W        W90947   3.409  33.911  14.950
31412W        W90948   3.262  42.428   4.735
31413W        W90949  19.684  28.084   2.288
31414W        W90950  38.889  30.159   0.302
31415W        W90951  29.436  33.938  11.125
31416W        W90952  31.552  10.717   0.876
31417W        W90953  30.087  34.970  13.997
31418W        W90954  28.660  42.306   4.650
31419W        W90955  38.851   1.744  11.863
31420W        W90956  21.073  23.225   5.189
31421W        W90957  14.792  15.711  13.044
31422W        W90958  29.660  37.581  10.081
31423W        W90959  11.639  35.110   1.212
31424W        W90960  25.519   0.427   3.360
31425W        W90961  31.060  44.841  14.437
31426W        W90962  31.517   8.298  11.535
31427W        W90963  42.990  12.663   2.331
31428W        W90964  25.483  16.247  12.540
31429W        W90965  31.539   3.227   4.155
31430W        W90966  24.047  43.371   4.164
31431W        W90967  28.526  27.576  13.974
31432W        W90968  25.151   5.319   3.155
31433W        W90969  17.259  24.632   4.315
31434W        W90970   3.293  11.210   2.834
31435W        W90971  15.726  36.096  13.521
31436W        W90972  14.162  15.096   1.729
31437W        W90973  38.464  29.126  12.868
31438W        W90974  16.155  11.662   3.673
31439W        W90975  37.509  27.510   2.351
31440W        W90976  23.667  44.968   0.830
31441W        W90977   4.447  24.035  13.378
31442W        W90978  14.775   4.328   0.951
31443W        W90979  34.434   4.230   0.264
31444W        W90980  14.337  21.540  12.978
31445W        W90981   5.720  31.591  12.985
31446W        W90982  44.470  12.615   2.373
31447W        W90983   3.800  39.336   2.393
31448W        W90984  21.592  40.528  10.525
31449W        W90985  36.567  11.712  12.960
31450W        W90986  17.173  25.116  11.377
31451W        W90987  29.573   2.426  13.365
31452W        W90988  40.546  13.195   1.285
31453W        W90989   2.955  42.444   0.755
31454W        W90990  29.001  37.003   2.242
31455W        W90991  38.492  33.903  11.018
31456W        W90992  16.169  18.171   2.381
31457W        W90993   0.782  11.848  11.552
31458W        W90994  13.213  22.556   0.929
31459W        W90995  30.935  12.812   1.819
31460W        W90996  44.455  35.502   4.262
31461W        W90997  16.616  43.414  13.349
31462W        W90998  18.698  30.473   0.405
31463W        W90999  23.205  27.520  12.932
31464W        W91000  17.199   1.466  11.372
31465W        W91001  44.761  17.184  12.447
31466W        W91002   9.191  27.449  14.895
31467W        W91003  17.105  22.516  12.512
31468W        W91004  35.573  28.579  14.791
31469W        W91005  29.428   4.401  13.366
31470W        W91006   8.870  35.979   1.219
31471W        W91007  11.270  23.178   0.892
31472W        W91008  15.602  43.358  11.048
31473W        W91009  19.085  37.532  13.826
31474W        W91010  39.822  44.262  10.565
31475W        W91011  41.998   7.299  10.911
31476W        W91012  14.211  42.419   2.260
31477W        W91013  41.451  33.503  13.989
31478W        W91014   4.851  20.135   4.664
31479W        W91015  28.118  18.714   2.357
31480W        W91016  21.708  10.231   3.769
31481W        W91017  21.169   6.185   3.815
31482W        W91018  34.931  34.515   2.289
31483W        W91019  11.242  27.119  12.839
31484W        W91020  44.397  15.175   1.800
31485W        W91021  27.446  40.900   0.919
31486W        W91022  43.967  32.447  10.408
31487W        W91023   9.271  36.908   3.344
31488W        W91024  36.445   4.413   2.289
31489W        W91025  36.099  24.704  13.433
31490W        W91026  40.009  18.667   3.814
31491W        W91027  21.157  23.665  12.519
31492W        W91028  21.518  29.031  13.322
31493W        W91029  39.868  36.042  14.957
31494W        W91030  27.157  13.343   2.837
31495W        W91031  22.115  10.667   4.635
31496W        W91032  24.086   6.806  12.989
31497W        W91033  31.557  13.670  10.962
31498W        W91034  11.828  41.295   2.677
31499W        W91035   3.257   5.867  10.473
31500W        W91036  44.784  23.131   1.325
31501W        W91037   6.207   6.306   2.212
31502W        W91038  36.532  40.477   1.239
31503W        W91039   5.832  27.125  12.069
31504W        W91040  38.560  20.146  10.946
31505W        W91041  19.686  36.920   3.235
31506W        W91042   2.739  40.340  11.584
31507W        W91043   1.946   3.933  14.773
31508W        W91044  44.424  39.841  13.020
31509W        W91045  42.835  38.884  13.856
31510W        W91046  33.613  42.514  14.392
31511W        W91047  41.317   8.403  13.977
31512W        W91048  36.559   3.349  13.950
31513W        W91049  36.024  32.050  14.883
31514W        W91050  18.646   9.347   3.240
31515W        W91051  12.727  15.754   0.472
31516W        W91052  13.672  30.516   1.710
31517W        W91053  24.621   9.315   1.841
31518W        W91054  41.955  43.423   1.366
31519W        W91055  26.070  41.005  13.910
31520W        W91056  36.420  14.609  14.453
31521W        W91057  22.683   6.224   1.218
31522W        W91058   0.428   7.370   0.435
31523W        W91059  30.543  23.997   0.746
31524W        W91060  16.115   0.793  12.001
31525W        W91061  19.541  10.703  11.127
31526W        W91062  32.404  23.172   1.768
31527W        W91063   8.368  23.108   3.844
31528W        W91064  22.698  39.332  14.951
31529W        W91065  27.476   7.227   3.367
31530W        W91066  13.784  20.564  13.860
31531W        W91067  35.551  12.180   1.396
31532W        W91068  42.314  43.794  12.341
31533W        W91069  22.541  12.811  10.970
31534W        W91070  36.450   8.310   3.181
31535W        W91071  10.639  32.947  12.565
31536W        W91072  11.664  38.059  12.047
31537W        W91073   0.870  14.636  10.928
31538W        W91074  26.486  30.617   1.792
31539W        W91075  12.216  12.630   2.817
31540W        W91076  31.118   7.204  13.337
31541W        W91077  16.102  44.840   4.754
31542W        W91078   4.250  29.426   1.769
31543W        W91079  43.495  32.441  11.429
31544W        W91080   3.815   9.330   2.866
31545W        W91081  32.892  40.469  10.940
31546W        W91082  37.359  33.491  13.459
31547W        W91083  31.006  11.196  11.040
31548W        W91084  36.420  30.652  14.488
31549W        W91085   7.376   3.453  14.987
31550W        W91086   5.364  42.434   1.327
31551W        W91087  10.759  36.589   0.767
31552W        W91088  23.610  17.223  10.479
31553W        W91089  23.489   2.826  11.962
31554W        W91090   0.306  14.826  14.486
31555W        W91091   9.217  30.623  13.323
31556W        W91092  38.902  28.178  12.382
31557W        W91093   5.800  13.294  11.565
31558W        W91094  36.550  39.011  11.078
31559W        W91095  32.060  31.133  10.431
31560W        W91096  31.442  27.082  14.927
31561W        W91097  43.013  28.677   0.319
31562W        W91098   0.330  39.466  14.791
31563W        W91099  18.705  42.318  11.591
31564W        W91100  22.222  14.602   1.240
31565W        W91101   2.851  31.059  13.415
31566W        W91102   5.399   6.778   3.848
31567W        W91103  40.812   5.780   3.696
31568W        W91104  24.998  23.684   1.321
31569W        W91105  26.008  32.898  13.333
31570W        W91106  29.089   1.394  11.427
31571W        W91107  17.274   8.743  13.347
31572W        W91108  23.583  14.669   1.313
31573W        W91109  26.163  10.795   0.903
31574W        W91110   5.206  35.392  13.938
31575W        W91111  10.380  38.822   2.322
31576W        W91112  12.222  33.025   4.701
31577W        W91113  31.590  15.774   4.724
31578W        W91114  12.671  42.453   3.307
31579W        W91115   5.860  17.197   1.212
31580W        W91116   3.373  34.545  13.391
31581W        W91117  38.865  12.690  12.046
31582W        W91118  23.628  37.390  14.026
31583W        W91119   6.764  17.651  10.426
31584W        W91120  31.588  11.698  13.866
31585W        W91121  30.504  33.923  13.353
31586W        W91122  41.447  34.072   1.717
31587W        W91123  28.484  15.286   0.384
31588W        W91124  34.080  32.921  10.630
31589W        W91125  16.242  10.215  11.416
31590W        W91126   5.776   1.343   4.830
31591W        W91127   9.152  29.160  10.603
31592W        W91128  17.257  28.570  14.338
31593W        W91129  27.594  29.613   2.386
31594W        W91130  20.149   1.890   0.331
31595W        W91131  15.696  38.867  13.423
31596W        W91132  24.035   8.736   3.198
31597W        W91133  13.685  20.567   0.260
31598W        W91134  35.075  37.883  14.010
31599W        W91135  30.016  22.057  12.043
31600W        W91136  16.607  10.245   2.854
31601W        W91137  37.896  18.181   0.249
31602W        W91138  35.383   0.942  11.861
31603W        W91139  41.462  36.050   1.841
31604W        W91140  12.180   2.398   3.162
31605W        W91141   5.394  40.393  12.404
31606W        W91142  29.651  15.753  11.589
31607W        W91143  35.463  17.572   3.359
31608W        W91144  14.181  27.526  13.027
31609W        W91145  31.459  44.337   4.286
31610W        W91146  35.984  29.058  13.954
31611W        W91147  33.521  16.312  11.912
31612W        W91148  42.836   6.317   1.423
31613W        W91149  16.618  29.129  13.009
31614W        W91150  11.373  13.791   0.744
31615W        W91151   6.379  27.134  10.005
31616W        W91152  33.440  12.126   3.286
31617W        W91153  14.330   8.350  12.480
31618W        W91154  15.184   0.824  12.968
31619W        W91155   1.895  22.654  11.867
31620W        W91156  42.792  28.593   1.756
31621W        W91157  40.902  28.141   1.803
31622W        W91158  18.790  29.559   1.363
31623W        W91159   6.809  30.979   2.354
31624W        W91160  33.936   9.844  12.496
31625W        W91161  28.956  43.321  13.996
31626W        W91162  23.006  12.832   3.268
31627W        W91163  35.892  25.476   3.234
31628W        W91164  43.918  41.307   2.846
31629W        W91165   8.265  44.924  13.939
31630W        W91166  14.270  20.129  13.355
31631W        W91167  25.677   0.275   1.816
31632W        W91168  40.422  17.685  11.002
31633W        W91169   0.327   6.408  11.458
31634W        W91170  38.475  16.312  12.492
31635W        W91171   4.398  17.696   0.783
31636W        W91172  39.496   7.202  13.832
31637W        W91173  44.816  40.329  11.873
31638W        W91174  26.087  29.966   0.808
31639W        W91175  40.354  33.888   1.357
31640W        W91176  20.062  13.170   3.229
31641W        W91177  29.175  32.537  12.487
31642W        W91178  19.704  28.091   5.257
31643W        W91179   0.352  15.651  12.442
31644W        W91180  15.261  23.711  11.112
31645W        W91181  15.758  39.381   3.255
31646W        W91182  33.545  41.037   2.397
31647W        W91183  42.353  12.622  11.949
31648W        W91184  13.333  15.696   2.180
31649W        W91185  15.633  32.907   0.811
31650W        W91186   2.339  23.103   2.218
31651W        W91187  19.232   9.356  13.335
31652W        W91188   0.363  24.529  12.964
31653W        W91189  21.618  44.886   1.694
31654W        W91190  10.814  26.553  13.952
31655W        W91191  12.314  32.945   0.482
31656W        W91192  25.578  30.116   0.805
31657W        W91193  37.987  16.591   0.316
31658W        W91194  25.194  26.171   2.356
31659W        W91195  18.228  30.506  10.936
31660W        W91196   8.367   2.769   3.381
31661W        W91197   8.181  19.631  12.055
31662W        W91198  10.197   8.878   3.172
31663W        W91199   5.221  35.560  13.528
31664W        W91200  36.537  41.929   1.269
31665W        W91201  29.565   2.391   4.799
31666W        W91202  32.099   4.749  11.069
31667W        W91203  21.649  28.099  13.396
31668W        W91204  37.532  33.533   0.917
31669W        W91205   0.338  31.045  12.007
31670W        W91206  41.970  34.475   4.191
31671W        W91207  35.980  27.950  13.795
31672W        W91208   2.926  15.292  11.913
31673W        W91209   7.359   3.791  13.462
31674W        W91210   6.374   4.810   1.771
31675W        W91211  41.855  27.090  11.995
31676W        W91212  37.894  20.175   1.697
31677W        W91213  22.593  12.301  10.413
31678W        W91214  30.141  41.965  12.984
31679W        W91215  23.167  24.568   2.762
31680W        W91216  14.599  16.710   3.330
31681W        W91217  39.058  15.711  12.042
31682W        W91218  19.274  14.268  13.862
31683W        W91219  10.347  28.017  13.057
31684W        W91220  18.641   6.350   3.654
31685W        W91221   3.302   0.806   4.285
31686W        W91222  33.103   8.255   0.403
31687W        W91223  31.570  33.071  12.031
31688W        W91224   7.906  31.489   1.412
31689W        W91225   8.888  21.678   3.832
31690W        W91226  29.586  18.143   0.260
31691W        W91227  31.561   1.360  14.932
31692W        W91228  22.027  27.517  13.542
31693W        W91229  39.359  18.216  14.344
31694W        W91230  24.484  20.092  13.015
31695W        W91231  36.040  24.230   0.301
31696W        W91232   2.757  13.115   1.785
31697W        W91233  20.096  26.594   1.802
31698W        W91234  21.518   8.206   1.851
31699W        W91235  29.548  13.316  11.892
31700W        W91236  13.699  23.699   4.772
31701W        W91237  35.853  21.566   1.378
31702W        W91238  43.770  40.311  14.984
31703W        W91239   3.370  26.071  14.834
31704W        W91240  41.971  35.049   4.208
31705W        W91241   6.318   9.679  11.091
31706W        W91242  30.968  21.662  12.384
31707W        W91243  15.803  31.562   4.808
31708W        W91244  28.035  28.950  10.942
31709W        W91245   6.745  23.661   1.394
31710W        W91246  24.020  40.965  14.505
31711W        W91247  38.356  14.131  13.439
31712W        W91248  28.075   4.312  14.399
31713W        W91249  16.296   6.381  13.820
31714W        W91250   5.395  27.639   3.333
31715W        W91251  19.050  26.625  14.845
31716W        W91252  23.660  27.979   0.927
31717W        W91253  26.149  20.236   5.137
31718W        W91254  24.057  35.036  14.496
31719W        W91255  22.507  31.589  14.873
31720W        W91256   4.796  25.625   3.839
31721W        W91257  26.515  30.131   3.858
31722W        W91258  20.053  42.940   4.296
31723W        W91259  41.888  37.377  11.512
31724W        W91260  18.677  23.101  14.449
31725W        W91261   8.333  31.952   0.339
31726W        W91262  21.233  33.009   0.904
31727W        W91263   8.828  15.821   2.368
31728W        W91264  25.973   2.749  14.451
31729W        W91265  25.050   3.421  14.927
31730W        W91266  27.572  33.390   4.252
31731W        W91267  31.049  42.993   4.830
31732W        W91268  43.318  40.799   4.224
31733W        W91269   8.728  19.691   0.376
31734W        W91270   9.679  31.019  12.824
31735W        W91271  32.626  41.029   2.415
31736W        W91272  19.775   8.230   0.956
31737W        W91273  26.013   3.389  12.096
31738W        W91274  13.212  21.646  14.462
31739W        W91275  10.660   0.808   4.771
31740W        W91276  31.065   7.876  12.490
31741W        W91277   8.779   5.784  14.777
31742W        W91278   8.214  36.889  12.828
31743W        W91279  13.272  39.525   1.419
31744W        W91280  40.026  44.909   4.789
31745W        W91281  23.178  25.045  14.855
31746W        W91282  20.169  40.013   2.408
31747W        W91283  43.991  28.093  14.383
31748W        W91284  44.414  18.082   0.782
31749W        W91285  36.521  32.635  13.361
31750W        W91286  24.006  25.565   2.226
31751W        W91287  22.047  17.720  12.469
31752W        W91288   6.831  27.541   3.728
31753W        W91289  32.550  35.077  11.995
31754W        W91290  34.514   9.386  13.536
31755W        W91291  19.079  35.934   1.813
31756W        W91292  32.959   4.915   0.900
31757W        W91293   7.342  38.834   2.691
31758W        W91294  24.532  35.027   0.753
31759W        W91295  12.194  20.644   1.295
31760W        W91296  24.642  39.952  10.627
31761W        W91297  12.355   5.799  14.370
31762W        W91298  33.982  37.994  11.595
31763W        W91299  11.166   8.855   1.842
31764W        W91300  41.493   6.800  13.922
31765W        W91301  44.924  36.530  11.525
31766W        W91302  26.051  21.186  14.459
31767W        W91303  39.412   1.942   1.795
31768W        W91304  24.015  25.549   1.704
31769W        W91305  39.022  29.987  10.417
31770W        W91306  12.273  17.106  14.415
31771W        W91307  35.461  12.118  12.023
31772W        W91308   1.934  27.600   0.462
31773W        W91309  33.938  28.980   3.168
31774W        W91310   7.754  27.649   1.897
31775W        W91311  11.224  32.553  11.535
31776W        W91312  25.055  17.250   3.770
31777W        W91313  11.159   8.314  14.389
31778W        W91314  17.122  40.808  13.307
31779W        W91315  12.352  15.643  12.833
31780W        W91316   3.748  23.526   1.910
31781W        W91317   4.764   4.820  10.131
31782W        W91318  28.937  25.672   4.266
31783W        W91319  30.087  19.139  14.473
31784W        W91320  20.211  30.605   5.252
31785W        W91321  36.461  33.542   1.297
31786W        W91322   6.687  39.496  14.793
31787W        W91323   0.918  23.671   1.313
31788W        W91324  27.090  12.641  13.316
31789W        W91325  33.024  23.631   4.705
31790W        W91326  24.974  13.739   2.363
31791W        W91327  14.312  20.148   9.952
31792W        W91328  17.153   0.965   2.870
31793W        W91329  19.043  22.644  13.469
31794W        W91330  18.152   0.392   0.783
31795W        W91331  19.712  14.758   4.651
31796W        W91332  26.176  16.740   3.656
31797W        W91333  43.807  10.750  14.302
31798W        W91334   9.311  27.150   1.853
31799W        W91335  35.967  26.701   5.151
31800W        W91336   3.724  11.819   4.610
31801W        W91337   0.854  24.084  11.102
31802W        W91338  38.486  42.016   4.671
31803W        W91339  16.132  35.360  10.604
31804W        W91340  29.614   4.816  10.505
31805W        W91341  31.136  24.178   2.362
31806W        W91342   7.350   1.919  11.049
31807W        W91343  11.830  31.118   3.697
31808W        W91344   9.225  37.387   3.684
31809W        W91345   4.379  11.319   4.151
31810W        W91346  13.265   1.349   2.184
31811W        W91347  31.091  21.715  11.902
31812W        W91348  37.840  21.169   1.790
31813W        W91349  26.101  27.992   2.396
31814W        W91350  44.434  13.273   2.390
31815W        W91351  12.233  26.586   4.300
31816W        W91352  38.425  13.649   2.280
31817W        W91353  16.305  19.139   4.747
31818W        W91354  16.309  40.040   3.293
31819W        W91355  10.769   6.699  14.425
31820W        W91356  15.100   4.795  14.286
31821W        W91357   3.841  18.586   2.694
31822W        W91358  23.636  43.456   1.910
31823W        W91359  23.991  12.338  12.449
31824W        W91360  26.497  10.841   1.350
31825W        W91361   5.251  15.170   2.303
31826W        W91362   0.322  43.906   1.709
31827W        W91363   7.811  18.101  11.436
31828W        W91364  22.584  26.106   3.781
31829W        W91365  29.042   2.806   3.642
31830W        W91366   3.319  33.010  14.275
31831W        W91367  10.180  27.028  13.502
31832W        W91368  41.806  19.700  10.112
31833W        W91369  39.848  35.920   3.645
31834W        W91370  15.806   5.349  12.024
31835W        W91371  29.041  38.536  10.410
31836W        W91372  35.516  27.566   0.754
31837W        W91373  27.986  38.845  12.039
31838W        W91374  37.029   9.233  12.484
31839W        W91375  14.722  41.336  10.544
31840W        W91376  33.413  13.665   2.397
31841W        W91377  35.501   6.788  13.844
31842W        W91378  12.355  19.777  13.832
31843W        W91379   4.817   3.844  14.921
31844W        W91380  26.987  16.635  11.870
31845W        W91381  10.685   5.357   9.929
31846W        W91382  17.246  15.580  13.394
31847W        W91383  19.151  12.139   3.843
31848W        W91384  36.399   3.907  12.001
31849W        W91385   5.271  37.366  13.809
31850W        W91386  30.486  39.429   2.827
31851W        W91387  21.129   1.356  11.951
31852W        W91388  43.437   0.773  12.527
31853W        W91389  25.989  30.432  12.573
31854W        W91390  12.129  37.567   2.374
31855W        W91391   6.918  22.086  11.980
31856W        W91392  33.605  34.002   0.781
31857W        W91393  20.035  29.976  11.432
31858W        W91394   4.353  14.307  12.949
31859W        W91395  36.994  17.789   1.919
31860W        W91396  39.977  11.257   1.887
31861W        W91397  25.673   1.455   2.268
31862W        W91398   6.839  10.192  10.636
31863W        W91399  30.003  40.312  12.410
31864W        W91400  32.132  31.418   4.657
31865W        W91401  23.172   6.390   0.438
31866W        W91402   7.673  34.554  11.097
31867W        W91403  42.493  12.827   3.233
31868W        W91404  20.599  22.087  13.408
31869W        W91405  15.596  33.883  11.386
31870W        W91406  15.755  28.562   2.288
31871W        W91407  12.757  21.178   0.858
31872W        W91408  38.934  26.681  10.637
31873W        W91409  24.710  23.517  13.384
31874W        W91410  12.323  41.030   0.922
31875W        W91411   2.750  26.562   1.836
31876W        W91412  18.637   3.935  11.879
31877W        W91413  17.232   6.246   4.211
31878W        W91414  40.407  39.876   3.854
31879W        W91415  38.505   3.740  14.431
31880W        W91416  25.176  16.724  14.795
31881W        W91417   5.320   9.393  14.776
31882W        W91418   3.784   5.387   2.705
31883W        W91419  22.628  10.183   1.250
31884W        W91420  31.559  21.630   0.312
31885W        W91421  40.378  13.600  13.424
31886W        W91422   9.799  24.527   0.780
31887W        W91423  31.507  34.995  14.381
31888W        W91424   5.312  38.353   1.334
31889W        W91425   9.156  21.034   0.758
31890W        W91426  33.109  33.459   3.379
31891W        W91427  32.477  11.815  13.037
31892W        W91428   2.784  28.109   2.374
31893W        W91429  39.471  38.459   2.874
31894W        W91430   0.888  13.179   3.353
31895W        W91431   7.397   9.890  13.966
31896W        W91432  28.453  27.633  11.044
31897W        W91433  27.638  19.747   3.835
31898W        W91434  24.048  32.044   0.831
31899W        W91435  31.086  39.986   4.816
31900W        W91436  37.475  40.443   5.230
31901W        W91437   3.352  31.564   1.299
31902W        W91438   9.853  37.468   2.309
31903W        W91439  24.605  34.513   3.245
31904W        W91440  32.431  18.701  13.917
31905W        W91441  18.089  10.209   1.728
31906W        W91442  24.507  19.552  13.042
31907W        W91443   0.751   5.841   0.757
31908W        W91444   8.862  34.932   2.690
31909W        W91445  40.030  11.312  13.969
31910W        W91446  36.496  25.573   1.413
31911W        W91447  37.548  35.998   2.794
31912W        W91448  17.253  41.303  13.881
31913W        W91449  27.686  37.993  14.771
31914W        W91450  30.599  33.059  12.968
31915W        W91451  27.956  31.964   4.661
31916W        W91452  29.164  35.425   0.376
31917W        W91453  11.681   5.265   0.788
31918W        W91454  42.295  23.053   1.810
31919W        W91455  29.546  15.280   1.736
31920W        W91456   2.845   0.482  12.845
31921W        W91457  28.474   7.305   3.772
31922W        W91458  14.797  40.825   1.882
31923W        W91459  14.622   2.951  11.872
31924W        W91460  28.537  19.208  11.033
31925W        W91461   3.898  15.772  13.925
31926W        W91462  21.714   5.814   1.800
31927W        W91463  25.571  21.208   1.728
31928W        W91464  16.306  36.456  13.914
31929W        W91465   4.931   2.928  13.938
31930W        W91466   9.315  40.811   2.232
31931W        W91467  32.999  31.936   2.264
31932W        W91468  23.715  44.828  10.948
31933W        W91469  12.196  22.144   2.309
31934W        W91470  31.945  18.211   1.243
31935W        W91471  28.976  37.843  14.865
31936W        W91472  12.634  37.080  11.076
31937W        W91473  11.127  13.640  11.040
31938W        W91474  17.657  21.163   0.738
31939W        W91475  24.143  11.696   3.386
31940W        W91476  23.224  14.601  12.410
31941W        W91477  26.680  28.157   4.625
31942W        W91478  43.272  19.770   5.165
31943W        W91479  15.754  30.926   1.860
31944W        W91480   5.248  37.398  12.386
31945W        W91481  33.510   9.383  10.578
31946W        W91482  22.107  19.178  11.500
31947W        W91483  29.984   7.853   1.324
31948W        W91484  44.788  34.422   1.339
31949W        W91485  10.138   1.267   0.727
31950W        W91486  32.914   5.284   2.400
31951W        W91487  16.759  32.039   3.176
31952W        W91488  37.976  29.064  14.993
31953W        W91489  41.436   4.840   2.852
31954W        W91490  18.106  29.479  12.393
31955W        W91491  18.276  14.238   4.797
31956W        W91492  11.238   6.408  13.318
31957W        W91493  29.562  40.944   0.341
31958W        W91494  26.105  36.868   3.147
31959W        W91495  33.413  35.896   5.290
31960W        W91496  23.155   6.821  10.418
31961W        W91497  18.682   7.724   4.132
31962W        W91498  23.668   6.295  12.926
31963W        W91499  17.183  31.520   0.759
31964W        W91500   6.772  41.835  12.418
31965W        W91501  11.769  34.052  12.857
31966W        W91502   6.854  31.448   2.317
31967W        W91503  43.387  27.558   3.711
31968W        W91504  14.784   7.341   5.127
31969W        W91505  27.952  41.929  12.544
31970W        W91506  19.154  44.396  13.540
31971W        W91507  40.466  21.701  12.495
31972W        W91508  39.866  18.277  14.395
31973W        W91509  11.345   7.238   3.216
31974W        W91510  37.447   2.307  13.918
31975W        W91511   0.468  32.131   4.809
31976W        W91512  40.869   6.793  14.480
31977W        W91513   9.302  22.031   4.278
31978W        W91514  43.307  32.013   0.906
31979W        W91515  35.545  10.858   1.807
31980W        W91516  31.070  44.814  10.517
31981W        W91517   1.912   5.855   3.832
31982W        W91518  19.771  25.616  10.911
31983W        W91519  26.588  22.126   9.926
31984W        W91520  18.183  42.979   4.265
31985W        W91521   6.337   8.736  10.140
31986W        W91522   9.754  28.032   4.724
31987W        W91523   0.440  13.784   3.647
31988W        W91524   1.435  40.918   0.738
31989W        W91525   2.438  19.081  12.935
31990W        W91526  28.017  13.767  13.060
31991W        W91527   7.394  43.764   2.180
31992W        W91528  38.866  22.508   0.758
31993W        W91529  34.518  38.520  14.773
31994W        W91530  11.141  38.829   1.833
31995W        W91531  11.236  36.046  13.851
31996W        W91532  41.983  15.685  14.302
31997W        W91533   0.299  36.956   0.826
31998W        W91534  43.329  11.271   2.351
31999W        W91535  36.920  38.338   3.695
32000W        W91536  37.930  42.989  14.921
32001W        W91537  26.168  28.446  12.572
32002W        W91538  14.765  32.905  14.914
32003W        W91539  10.351  16.788   9.941
32004W        W91540   4.877  34.051  14.305
32005W        W91541   1.362  22.576  13.928
32006W        W91542  29.950  42.424   0.793
32007W        W91543   9.203   3.250   2.806
32008W        W91544  37.916  14.643   1.917
32009W        W91545  35.989  10.290  11.457
32010W        W91546  38.437  40.480  11.516
32011W        W91547  34.381  10.283  13.995
32012W        W91548  15.581  28.642   1.285
32013W        W91549  23.165  43.424  13.859
32014W        W91550  32.035  20.106  11.575
32015W        W91551  12.724  29.074   1.424
32016W        W91552  24.128  31.429   2.405
32017W        W91553  13.807   1.243  14.782
32018W        W91554  42.870  23.985  14.984
32019W        W91555  29.042  13.241   4.184
32020W        W91556   7.276  36.862  12.082
32021W        W91557  29.172  15.799  11.569
32022W        W91558   7.330  17.744   1.381
32023W        W91559  43.927  20.146  11.522
32024W        W91560  15.174  39.424  13.878
32025W        W91561  30.057  29.430   3.649
32026W        W91562  26.464  39.551   3.776
32027W        W91563  38.823  31.535   1.326
32028W        W91564  23.124  17.708  10.481
32029W        W91565  37.355  32.138  13.934
32030W        W91566  14.320  11.272   3.683
32031W        W91567  38.009  31.052   1.844
32032W        W91568  42.407  40.352   4.662
32033W        W91569  31.582  43.956   0.832
32034W        W91570  41.509  41.836  10.430
32035W        W91571  10.183  11.702  10.947
32036W        W91572   2.925   4.932   2.840
32037W        W91573   9.181   8.187   2.734
32038W        W91574  21.069   7.901   1.416
32039W        W91575  40.819  21.202  13.368
32040W        W91576  43.010   4.742  13.344
32041W        W91577  18.753  42.412  12.873
32042W        W91578  17.655  32.402  11.417
32043W        W91579  16.701   0.384   3.359
32044W        W91580  43.780   0.987  10.484
32045W        W91581  31.935  37.901  12.465
32046W        W91582  33.467  27.966  11.545
32047W        W91583  42.844  16.310   4.206
32048W        W91584  25.028  35.573  14.933
32049W        W91585   0.480  33.398  14.781
32050W        W91586  26.590  12.325   3.281
32051W        W91587   8.876  11.751  12.940
32052W        W91588   5.207  32.962  13.796
32053W        W91589   0.439  19.734   4.657
32054W        W91590  30.004  24.114   3.772
32055W        W91591   3.398  18.255  14.389
32056W        W91592  40.411  44.948  13.962
32057W        W91593  15.601   9.223   2.726
32058W        W91594  35.035  26.116   1.829
32059W        W91595  12.313   9.828   3.865
32060W        W91596  12.662  43.921  11.474
32061W        W91597  22.085   4.918   2.786
32062W        W91598  37.447  27.577   3.770
32063W        W91599  10.675  41.515  14.922
32064W        W91600  23.092   3.832   0.363
32065W        W91601  29.082  29.533   4.768
32066W        W91602   0.748  10.374   0.944
32067W        W91603  37.053  14.777   1.870
32068W        W91604   4.858  39.893   2.834
32069W        W91605  40.440  25.594  10.615
32070W        W91606  35.041  24.192  11.994
32071W        W91607  33.420   8.677   0.948
32072W        W91608  28.055  14.658   9.971
32073W        W91609  14.655  27.560  10.437
32074W        W91610  44.333   2.756  14.997
32075W        W91611  37.465  37.015   2.228
32076W        W91612  22.186  34.589   0.777
32077W        W91613  43.380  28.975  12.540
32078W        W91614   3.838  40.909  13.979
32079W        W91615  41.017  30.547  10.599
32080W        W91616  23.038   3.345   4.816
32081W        W91617   5.852  41.871   4.614
32082W        W91618   4.720  21.116   3.755
32083W        W91619  38.335  41.305  11.051
32084W        W91620  21.530  31.147   1.446
32085W        W91621   3.875  23.576   0.250
32086W        W91622  43.339  17.601   3.660
32087W        W91623  11.224  11.323   4.135
32088W        W91624   7.187  39.039  12.428
32089W        W91625  22.029  14.635  13.395
32090W        W91626  41.513  15.083  13.944
32091W        W91627   5.301  17.746   4.281
32092W        W91628  39.965   1.791  11.936
32093W        W91629  23.531   7.806   3.792
32094W        W91630  39.529  29.927   0.895
32095W        W91631   9.300  35.452   0.775
32096W        W91632  16.120   4.807  11.513
32097W        W91633  27.196  16.711   2.725
32098W        W91634  21.123  12.138  13.022
32099W        W91635  11.339  33.600  14.401
32100W        W91636   3.777  32.960  14.020
32101W        W91637  15.115  16.616  14.794
32102W        W91638   6.345  30.913  11.893
32103W        W91639  27.132   8.875   1.783
32104W        W91640  14.329   8.364   0.904
32105W        W91641  37.077   0.366   0.426
32106W        W91642   6.686  34.576   4.189
32107W        W91643  40.988  31.019   0.388
32108W        W91644  26.142   6.804  14.859
32109W        W91645  28.932  44.861  12.354
32110W        W91646  14.238   3.742   4.829
32111W        W91647  20.125  21.174   3.704
32112W        W91648   7.399  34.979  13.431
32113W        W91649  11.764  21.216   3.654
32114W        W91650  10.201  16.655  13.534
32115W        W91651  22.061  22.244  13.911
32116W        W91652  29.920  32.075  10.419
32117W        W91653  35.908  39.894  10.633
32118W        W91654  44.434  15.716  14.384
32119W        W91655  32.549  41.906   3.213
32120W        W91656  24.617  33.956   1.235
32121W        W91657  26.010   4.286  11.880
32122W        W91658  28.673  14.623   1.268
32123W        W91659  20.154  10.753  10.479
32124W        W91660   2.262   5.429  11.905
32125W        W91661  14.691  29.558  13.914
32126W        W91662  21.262  43.472  11.551
32127W        W91663   3.899  41.044  11.881
32128W        W91664  28.575  34.918  11.471
32129W        W91665  43.388  25.131   5.188
32130W        W91666   3.805  13.162   3.178
32131W        W91667  19.092   5.729   0.262
32132W        W91668  30.443  36.582   0.476
32133W        W91669  44.473  15.139   0.331
32134W        W91670  19.654   5.263  13.486
32135W        W91671  16.726   3.291  13.050
32136W        W91672  21.101  42.855   4.328
32137W        W91673  19.614  24.591   4.186
32138W        W91674  14.768  18.694  13.924
32139W        W91675   1.864   5.698   4.288
32140W        W91676  19.637   7.854   4.180
32141W        W91677  33.095   6.253  12.058
32142W        W91678  36.360  31.027   2.666
32143W        W91679  28.054  27.119  12.918
32144W        W91680  39.499  28.680  12.077
32145W        W91681  20.729  13.141   1.925
32146W        W91682   0.291  33.015   2.823
32147W        W91683   8.358  44.761  13.424
32148W        W91684  11.823  17.108   1.327
32149W        W91685  44.461  41.426   0.775
32150W        W91686  30.574  15.694   1.743
32151W        W91687  31.531  11.794   4.640
32152W        W91688  40.473  30.639   2.742
32153W        W91689  34.945  20.219   1.284
32154W        W91690  23.621  34.938  13.330
32155W        W91691   2.755  36.021  11.434
32156W        W91692  36.520   9.870  13.478
32157W        W91693  36.495  31.567   3.271
32158W        W91694  28.056  18.169   2.332
32159W        W91695  42.935   9.253   4.252
32160W        W91696   5.209  10.633  11.863
32161W        W91697  42.420  41.796  11.927
32162W        W91698   7.373   2.248   4.189
32163W        W91699  20.190  25.590  13.427
32164W        W91700  26.504  16.163  14.824
32165W        W91701  16.121  34.905   0.477
32166W        W91702   8.843  33.416  11.562
32167W        W91703  34.912   6.918  13.855
32168W        W91704  39.521  13.715   3.163
32169W        W91705  23.009   4.870  13.345
32170W        W91706  32.442  38.469  14.885
32171W        W91707  39.917  21.080   0.324
32172W        W91708   6.912  29.497  12.342
32173W        W91709   8.210  13.281  12.535
32174W        W91710  42.972  27.175   1.789
32175W        W91711  44.334   9.298   1.731
32176W        W91712  15.663  44.479   4.144
32177W        W91713  16.773  41.846  14.955
32178W        W91714   7.796  27.098   2.823
32179W        W91715  44.886  19.116  10.421
32180W        W91716   0.333  22.032  11.888
32181W        W91717   5.237  40.393   4.346
32182W        W91718  19.111  10.203   1.290
32183W        W91719   1.917   8.356   3.723
32184W        W91720  16.668  41.033   0.944
32185W        W91721  31.561  18.697  12.490
32186W        W91722  15.648  37.010  13.995
32187W        W91723  19.696  18.285  13.447
32188W        W91724   3.286  33.111   0.478
32189W        W91725  38.973  22.692   5.183
32190W        W91726  27.998   1.968  10.118
32191W        W91727  11.709  17.077   2.854
32192W        W91728  25.495  25.209   1.778
32193W        W91729  40.975  23.189   2.823
32194W        W91730  19.561  35.907   0.363
32195W        W91731  23.585  40.986   1.346
32196W        W91732  43.465   0.432  10.596
32197W        W91733  13.605  43.500   0.756
32198W        W91734  17.650  21.692   3.746
32199W        W91735   4.938  14.792  10.123
32200W        W91736  41.446   1.414   2.221
32201W        W91737  28.562  18.637  13.847
32202W        W91738   6.699   6.894  12.576
32203W        W91739  18.227  29.062   1.796
32204W        W91740  31.467  44.850   4.806
32205W        W91741  16.202  28.584  13.495
32206W        W91742  29.085  27.958  10.898
32207W        W91743  30.643  38.898   0.337
32208W        W91744   5.720  32.963  13.434
32209W        W91745  40.906   3.716  12.016
32210W        W91746  16.738  12.186  14.449
32211W        W91747  25.588  26.484  14.342
32212W        W91748  22.678  42.975  14.798
32213W        W91749  16.104  44.482  10.913
32214W        W91750  38.382   4.254  13.334
32215W        W91751  26.005  22.561   1.772
32216W        W91752  28.113  39.908   2.191
32217W        W91753  25.677  29.015  11.069
32218W        W91754  13.222  27.622   1.310
32219W        W91755  36.571  41.340   3.711
32220W        W91756  41.381   1.302   1.695
32221W        W91757  44.505  25.696   1.746
32222W        W91758  37.991   4.769  14.329
32223W        W91759  29.048  39.845  12.438
32224W        W91760  40.806  23.498   0.360
32225W        W91761  29.479  24.133  12.471
32226W        W91762   4.759  27.980   1.231
32227W        W91763  19.281  40.856  14.499
32228W        W91764  15.254   0.855   0.293
32229W        W91765  23.627  27.112  14.391
32230W        W91766   9.824  15.175   2.764
32231W        W91767  20.057  39.352  12.844
32232W        W91768   7.900  10.253   4.198
32233W        W91769  33.402  34.991   2.846
32234W        W91770  27.176   5.834  14.345
32235W        W91771  37.502  24.089  14.907
32236W        W91772   8.790  31.441  12.506
32237W        W91773   6.793  39.908   3.660
32238W        W91774  37.549  31.029   5.131
32239W        W91775  40.955   9.795   4.720
32240W        W91776   9.773   3.247  13.929
32241W        W91777  14.671  10.671   3.740
32242W        W91778  40.431  27.566   1.903
32243W        W91779  42.849   2.290   5.230
32244W        W91780   8.736  42.460  11.016
32245W        W91781  26.117  23.223  10.559
32246W        W91782   6.231   9.783   1.920
32247W        W91783  17.603  15.246   0.747
32248W        W91784  10.784  38.868   2.414
32249W        W91785   5.785   6.261  12.532
32250W        W91786  14.823  30.638   3.152
32251W        W91787   0.899  32.132   5.286
32252W        W91788  27.993  21.704   2.777
32253W        W91789   1.258  13.200   0.793
32254W        W91790  11.346  11.856  13.915
32255W        W91791  39.856  10.862  14.934
32256W        W91792  21.104  44.809   1.915
32257W        W91793  24.639  40.420   2.237
32258W        W91794  27.680  41.530  12.467
32259W        W91795  32.987  26.117  12.093
32260W        W91796  14.276  38.441   2.284
32261W        W91797  43.408  20.171  13.968
32262W        W91798  40.983  28.009  10.540
32263W        W91799  24.575   0.352  11.434
32264W        W91800  16.235  21.221   0.445
32265W        W91801  13.624  27.469   5.176
32266W        W91802   0.745  37.912   2.379
32267W        W91803  11.749   7.294  13.469
32268W        W91804  36.533  18.167  13.540
32269W        W91805  27.096  19.702   4.321
32270W        W91806  31.534  42.918   4.652
32271W        W91807  24.212  32.547  14.399
32272W        W91808  44.395   3.823  11.071
32273W        W91809  34.559  35.877   3.326
32274W        W91810  20.256  12.318   3.374
32275W        W91811  44.381  37.944  12.350
32276W        W91812  27.554  10.873   2.410
32277W        W91813  12.679  33.067  14.467
32278W        W91814  29.548  15.667  12.089
32279W        W91815  29.445  37.447  13.369
32280W        W91816  27.185  33.473  12.378
32281W        W91817  21.527  12.142   4.670
32282W        W91818  19.686  12.273  14.332
32283W        W91819  24.550  23.491   2.387
32284W        W91820   6.287   2.230  10.450
32285W        W91821   7.413  23.054  11.932
32286W        W91822   5.716  38.901  10.140
32287W        W91823  23.733  41.374   1.784
32288W        W91824  25.579  22.521   0.759
32289W        W91825  41.412  33.890   2.308
32290W        W91826  36.948  38.375  10.514
32291W        W91827  30.930   9.693  11.533
32292W        W91828  34.075  30.987   1.286
32293W        W91829   3.951   9.195  13.955
32294W        W91830  13.250   1.359   3.249
32295W        W91831  13.672   6.343  11.933
32296W        W91832  41.311  33.598   3.288
32297W        W91833  10.812  28.491  10.914
32298W        W91834  21.018  21.260   3.857
32299W        W91835  23.605   4.710  14.283
32300W        W91836   9.886  42.459   3.286
32301W        W91837  30.452   9.169   3.728
32302W        W91838   7.881  26.167   3.648
32303W        W91839  29.446  24.609   3.163
32304W        W91840  24.722  33.062   2.192
32305W        W91841  22.234  22.594   2.767
32306W        W91842  44.270   1.837  12.903
32307W        W91843  36.041  27.452  14.006
32308W        W91844   3.787  20.668   2.270
32309W        W91845  27.150   7.357   1.293
32310W        W91846  25.149   8.266   0.817
32311W        W91847   3.920  42.883   4.355
32312W        W91848  12.765  13.273   3.731
32313W        W91849  27.614  30.451  13.325
32314W        W91850   2.295  32.049   0.943
32315W        W91851  33.556  16.746  12.403
32316W        W91852  43.468   1.838   1.245
32317W        W91853  41.788   7.850   1.880
32318W        W91854  20.591  35.022   2.260
32319W        W91855  13.320  38.920   4.710
32320W        W91856  17.063  42.355  10.542
32321W        W91857   1.882  36.400   4.200
32322W        W91858  35.533  22.012  11.060
32323W        W91859  22.227  33.446   0.943
32324W        W91860   0.781  40.050   0.360
32325W        W91861  18.753  24.700  13.382
32326W        W91862   1.772   1.258   2.674
32327W        W91863  34.416   3.273  14.503
32328W        W91864  30.456  40.376  14.492
32329W        W91865   5.278  29.037  14.915
32330W        W91866  36.016  17.254   2.843
32331W        W91867  24.024   8.876   4.819
32332W        W91868  23.201  17.764   2.832
32333W        W91869  33.462   5.195   3.250
32334W        W91870   0.353   0.253   4.287
32335W        W91871   6.316  22.571   3.300
32336W        W91872  36.496   5.725   2.204
32337W        W91873   6.406  18.751   0.353
32338W        W91874   0.960  11.341  13.448
32339W        W91875  43.008  33.507   5.144
32340W        W91876  11.290  30.621   1.449
32341W        W91877  15.605   0.279  13.355
32342W        W91878  28.578  37.929  11.420
32343W        W91879  29.591  36.539  10.924
32344W        W91880  28.502  13.676  11.447
32345W        W91881  29.085   1.775  14.788
32346W        W91882   4.844   8.171   0.312
32347W        W91883   9.723  27.180   9.636
32348W        W91884  35.487  30.162  13.352
32349W        W91885  17.239  42.018  10.144
32350W        W91886  39.011  29.962   2.672
32351W        W91887   1.387  32.459  13.911
32352W        W91888  28.617  20.041  12.546
32353W        W91889   7.238  16.722  10.528
32354W        W91890  40.533  26.035  13.993
32355W        W91891  20.205  44.993   0.961
32356W        W91892  14.776  38.856   0.954
32357W        W91893  17.779  26.465   4.723
32358W        W91894  22.722  40.851   0.364
32359W        W91895  27.553  10.740  13.016
32360W        W91896  28.000  28.173   2.394
32361W        W91897  36.451  22.571   2.234
32362W        W91898  30.917   2.415   2.201
32363W        W91899   4.922  18.272  13.950
32364W        W91900  23.125  24.588   0.266
32365W        W91901   9.389  22.639   3.805
32366W        W91902  10.274   2.285   1.385
32367W        W91903  44.757  34.407  12.968
32368W        W91904  40.915  43.813  14.446
32369W        W91905  26.006  17.566  14.981
32370W        W91906   5.291  12.323  11.569
32371W        W91907   2.743  13.108   2.408
32372W        W91908   3.851  30.415   1.349
32373W        W91909  14.233  19.752  14.287
32374W        W91910  16.302  20.762   3.257
32375W        W91911  15.816  28.931   2.410
32376W        W91912   9.191  17.189   1.909
32377W        W91913   7.748  27.046  11.983
32378W        W91914  24.009   9.887  10.504
32379W        W91915   3.948   8.297   2.319
32380W        W91916  39.040  10.184  11.005
32381W        W91917   1.820  15.770  11.531
32382W        W91918  32.625  19.243   3.277
32383W        W91919  39.533  22.640  12.079
32384W        W91920  43.432  44.293   2.418
32385W        W91921   4.396   1.406   2.705
32386W        W91922  14.249   9.724  12.435
32387W        W91923  13.761  30.145   4.684
32388W        W91924   2.838  32.425   3.228
32389W        W91925  30.087  42.480  11.082
32390W        W91926  15.711  14.210  11.396
32391W        W91927  43.788  30.107  12.011
32392W        W91928  44.394  44.877  12.428
32393W        W91929  15.254   1.929   4.261
32394W        W91930  17.231   2.453  12.412
32395W        W91931  21.516   8.291  14.982
32396W        W91932   4.293  22.216   4.172
32397W        W91933  43.292  35.541   1.885
32398W        W91934  21.662  13.285  13.052
32399W        W91935  15.295  16.294   2.709
32400W        W91936  28.078  15.632  11.948
32401W        W91937  43.941  32.019  11.965
32402W        W91938   7.187  37.847  13.984
32403W        W91939   2.305  11.188  13.412
32404W        W91940   8.306   9.833  14.478
32405W        W91941   1.799  32.037   1.858
32406W        W91942  43.418  41.877   3.848
32407W        W91943  42.358  43.856   1.734
32408W        W91944  27.474  12.757  14.506
32409W        W91945  41.331  26.177  14.321
32410W        W91946  41.864   4.805   5.283
32411W        W91947  35.074  41.997  10.531
32412W        W91948  28.636  40.937  12.562
32413W        W91949  37.574  19.600   3.635
32414W        W91950  21.147  17.596  10.050
32415W        W91951  31.067  23.012  10.491
32416W        W91952   6.277   0.370   2.415
32417W        W91953   9.814  21.064  11.917
32418W        W91954  27.062  20.713  13.984
32419W        W91955  35.500  40.004  13.000
32420W        W91956  11.736  18.745   2.262
32421W        W91957   9.782  27.660  11.405
32422W        W91958  33.035  20.610   2.859
32423W        W91959   9.740   6.273  14.934
32424W        W91960   6.875  41.911   1.904
32425W        W91961   6.873  34.375  14.321
32426W        W91962  21.165   7.710   3.298
32427W        W91963   6.835  43.829  13.973
32428W        W91964  22.544  28.499   0.366
32429W        W91965  27.604  13.189   0.351
32430W        W91966  37.365  44.969   1.448
32431W        W91967  11.134  19.657   4.640
32432W        W91968  26.116   9.232  11.883
32433W        W91969  24.672  40.449  11.879
32434W        W91970  36.474   5.214  11.501
32435W        W91971  37.410  38.382  11.973
32436W        W91972  35.391  28.011  11.553
32437W        W91973   4.339  12.818   2.774
32438W        W91974   3.788   3.248   5.218
32439W        W91975  11.791   1.934  11.535
32440W        W91976   8.272  39.558  13.502
32441W        W91977  44.861  28.571  12.463
32442W        W91978  13.174  25.974   1.880
32443W        W91979  23.987   4.778  13.476
32444W        W91980  27.116  19.562   0.455
32445W        W91981  21.563  10.665  14.993
32446W        W91982  33.470  19.618  14.787
32447W        W91983  14.270  30.957  14.982
32448W        W91984   0.852  44.812  12.462
32449W        W91985  17.564   4.723   2.189
32450W        W91986   7.730  44.946   0.900
32451W        W91987  42.526  18.566  14.901
32452W        W91988  28.487  24.183   0.425
32453W        W91989  29.497  37.450  12.521
32454W        W91990  25.203  44.863   3.288
32455W        W91991   3.773  41.501   0.419
32456W        W91992  18.746   6.802  12.017
32457W        W91993  27.067  32.944  10.962
32458W        W91994   6.345  14.618   2.724
32459W        W91995  22.572  15.782   1.302
32460W        W91996  36.871  40.513   3.824
32461W        W91997  11.216   9.388  14.409
32462W        W91998  22.595  43.999   3.792
32463W        W91999  44.331   5.704  11.506
32464W        W92000  43.916  39.965   0.385
32465W        W92001  44.454  39.498   1.821
32466W        W92002  31.929  40.020  12.023
32467W        W92003  16.803  38.326  14.000
32468W        W92004  40.860  33.566  11.583
32469W        W92005  11.148  16.110  10.599
32470W        W92006   8.346  38.970  10.403
32471W        W92007  13.682  11.213  14.935
32472W        W92008   3.916  18.119   2.855
32473W        W92009  41.802   3.942   0.843
32474W        W92010  10.790  21.108  12.515
32475W        W92011  10.254  31.009   2.362
32476W        W92012  40.394  44.477  13.405
32477W        W92013   3.868  23.524  11.044
32478W        W92014  29.095  27.954   3.836
32479W        W92015  25.001   0.748   4.232
32480W        W92016  11.679  36.937   3.250
32481W        W92017  44.935  13.206   2.744
32482W        W92018  40.805  39.817   0.431
32483W        W92019  37.978  14.096  12.398
32484W        W92020  15.747  34.929   4.221
32485W        W92021  34.953  43.007  12.960
32486W        W92022  36.362  14.766  13.415
32487W        W92023  19.705  41.820   4.605
32488W        W92024  40.916   7.193   0.746
32489W        W92025   8.367   6.297  11.935
32490W        W92026   8.804  31.560   0.925
32491W        W92027  35.021  42.406   2.259
32492W        W92028  21.643   6.408   3.747
32493W        W92029  44.764   7.213   4.124
32494W        W92030  41.394  23.210  11.456
32495W        W92031   6.276  39.398   1.779
32496W        W92032  13.820  41.937  12.422
32497W        W92033  43.336   0.470  11.453
32498W        W92034  35.983  21.234   5.287
32499W        W92035  21.087  40.458   4.175
32500W        W92036  36.380  39.405  14.977
32501W        W92037  32.080  30.124  11.974
32502W        W92038  12.246  14.747  13.891
32503W        W92039  32.077  42.338  11.026
32504W        W92040  10.227  23.152  12.933
32505W        W92041  27.471  11.186  12.978
32506W        W92042  20.069   7.368   2.834
32507W        W92043   8.888  41.529  12.061
32508W        W92044   8.779  44.335   0.821
32509W        W92045  26.650   8.889   2.335
32510W        W92046   2.771  21.644  14.967
32511W        W92047   2.238  36.959  10.504
32512W        W92048  44.371   8.762  13.816
32513W        W92049   8.161  31.494  11.901
32514W        W92050  33.441  26.457  13.319
32515W        W92051  14.738  12.224  14.458
32516W        W92052  40.804  35.076   3.268
32517W        W92053  19.603  28.084  14.435
32518W        W92054  23.516   5.247   1.297
32519W        W92055   1.948  15.285  11.856
32520W        W92056  10.829   3.446   3.720
32521W        W92057  44.791  24.199   2.272
32522W        W92058   9.332  16.751  14.848
32523W        W92059   4.205  29.985   4.825
32524W        W92060  26.205  25.520  11.047
32525W        W92061  14.195  41.405   3.763
32526W        W92062  12.735   0.810  14.362
32527W        W92063  12.225  20.190  14.280
32528W        W92064  12.318  13.836   3.791
32529W        W92065   6.225  32.430   3.198
32530W        W92066  11.159   3.394  14.317
32531W        W92067  12.742  34.919  14.429
32532W        W92068  37.362   5.756  13.361
32533W        W92069  13.271  15.135  12.477
32534W        W92070  16.568  18.645   2.680
32535W        W92071  30.925   3.943  12.954
32536W        W92072   4.785   3.424  12.562
32537W        W92073  43.849   0.912   4.668
32538W        W92074   5.842  43.290  14.878
32539W        W92075  17.107  28.657   4.614
32540W        W92076  26.180  31.513  10.643
32541W        W92077   6.914  40.318  12.963
32542W        W92078  27.618  20.141  12.941
32543W        W92079  11.760  10.745  12.467
32544W        W92080   0.874  23.172  12.434
32545W        W92081   9.183   1.955  12.056
32546W        W92082   1.945  22.129  13.440
32547W        W92083  14.796   1.278  14.819
32548W        W92084  23.090  24.702   2.261
32549W        W92085  33.130   9.825  13.951
32550W        W92086  35.002  18.051   3.384
32551W        W92087  25.206   3.347  10.484
32552W        W92088   6.316  39.057   3.686
32553W        W92089  19.697  42.384  10.418
32554W        W92090  17.236  26.985   3.689
32555W        W92091   5.375  13.220   3.748
32556W        W92092  13.763  13.791  14.356
32557W        W92093  36.062  43.896   1.838
32558W        W92094  42.015  21.193   0.477
32559W        W92095  26.611   7.804   2.327
32560W        W92096  28.134  22.066  11.878
32561W        W92097  17.619  24.151   0.793
32562W        W92098  37.492   6.253   1.359
32563W        W92099  32.011  44.773   5.193
32564W        W92100  37.419  43.778  10.464
32565W        W92101  20.258   4.718  13.445
32566W        W92102   0.890  10.339  13.036
32567W        W92103   9.680   9.387  12.003
32568W        W92104  25.113  42.332  13.358
32569W        W92105   4.802  40.538  13.429
32570W        W92106  41.818  19.153   3.247
32571W        W92107  40.356   9.174  12.454
32572W        W92108  15.159   8.320  14.761
32573W        W92109   4.363  20.701  10.591
32574W        W92110  35.105  15.661   9.923
32575W        W92111  34.470  17.602   2.369
32576W        W92112   7.407  16.105   2.702
32577W        W92113   5.897  20.196   3.184
32578W        W92114  42.431  39.429  10.563
32579W        W92115  15.310   3.301   4.725
32580W        W92116  36.875  15.762   3.728
32581W        W92117  22.629   9.643  13.406
32582W        W92118   9.300   8.803   2.692
32583W        W92119  15.616  29.064   5.106
32584W        W92120  27.107   2.840  10.025
32585W        W92121  25.075  12.616   0.393
32586W        W92122  18.749   9.198  14.277
32587W        W92123  32.096  34.884  12.472
32588W        W92124   3.799  11.719  13.992
32589W        W92125  36.450  30.431  12.074
32590W        W92126   2.816  23.668  11.595
32591W        W92127  18.232  15.665   1.252
32592W        W92128  13.774  36.541  14.849
32593W        W92129   4.261  32.961  11.971
32594W        W92130   6.888  24.044   4.329
32595W        W92131  31.487  14.755   3.769
32596W        W92132  32.622  40.962  13.469
32597W        W92133  43.805   0.422   4.160
32598W        W92134  16.706   3.402   0.897
32599W        W92135  11.156  44.336  12.866
32600W        W92136  42.889   4.934  11.099
32601W        W92137  40.326  23.119   0.267
32602W        W92138  18.600   2.298   4.291
32603W        W92139   1.821  33.910   1.229
32604W        W92140  10.873  23.117   2.285
32605W        W92141   9.744  27.978  11.541
32606W        W92142  20.559   7.805   2.224
32607W        W92143  33.402  38.032  13.438
32608W        W92144  14.747  33.014  10.993
32609W        W92145  28.073  25.067   3.319
32610W        W92146   3.219  39.484  14.997
32611W        W92147   0.877  39.984  14.293
32612W        W92148  44.274  14.697   3.833
32613W        W92149  30.641  22.232   2.742
32614W        W92150  19.143  29.527   0.876
32615W        W92151  15.089  30.629   3.294
32616W        W92152   3.414  27.620  12.422
32617W        W92153  14.602  12.196  12.870
32618W        W92154  42.800  17.586  10.541
32619W        W92155  13.209  32.476  12.864
32620W        W92156   8.222  32.959   3.249
32621W        W92157  23.198  36.539   0.434
32622W        W92158   0.851  37.872   0.312
32623W        W92159   6.897  26.001   0.279
32624W        W92160   6.900  28.596  14.808
32625W        W92161  23.214  25.635  13.996
32626W        W92162  18.578  27.999  14.886
32627W        W92163  20.216  36.960  10.611
32628W        W92164  37.479  36.492   2.204
32629W        W92165  10.699  12.198   3.192
32630W        W92166   2.876  13.739  11.391
32631W        W92167  16.261  41.017  13.321
32632W        W92168   1.952   0.296   3.826
32633W        W92169  30.657  21.175  12.925
32634W        W92170  41.885  24.557   3.264
32635W        W92171  23.664  17.306   2.294
32636W        W92172  35.581  26.695   2.328
32637W        W92173  10.235  36.995   0.432
32638W        W92174  31.950  44.362  11.510
32639W        W92175  34.550   4.782   3.173
32640W        W92176   0.291  39.528   0.876
32641W        W92177  29.972  30.158  12.964
32642W        W92178  21.577   1.443   2.845
32643W        W92179  18.234   5.714  14.862
32644W        W92180   4.333  15.317   3.723
32645W        W92181  28.048  33.600   2.298
32646W        W92182  17.650  12.826  14.031
32647W        W92183   7.194  22.196   3.664
32648W        W92184  24.688   8.690   3.203
32649W        W92185  21.231  20.635   5.584
32650W        W92186  39.854  35.446   3.864
32651W        W92187  44.469  24.102   4.750
32652W        W92188  32.476  37.946  14.941
32653W        W92189  43.493  30.598   3.869
32654W        W92190   7.782  25.106  11.040
32655W        W92191   4.941   8.801  13.357
32656W        W92192  34.554   7.754  14.442
32657W        W92193  30.526   3.924  11.005
32658W        W92194  38.839  14.220   4.213
32659W        W92195  29.466  29.557  11.869
32660W        W92196  15.150  44.301   2.375
32661W        W92197   8.224  42.968   3.683
32662W        W92198   3.245  12.203  10.540
32663W        W92199  42.028  20.108   2.338
32664W        W92200  43.454  20.759   3.178
32665W        W92201  29.509  44.375   2.791
32666W        W92202   8.896  33.541  13.394
32667W        W92203   7.830  43.980  13.443
32668W        W92204   9.762  20.188  11.005
32669W        W92205  27.006  31.907  10.955
32670W        W92206  37.923  25.025   4.657
32671W        W92207  31.986  37.415   2.817
32672W        W92208  24.590  23.229  14.019
32673W        W92209  20.614  20.595   4.630
32674W        W92210  21.710  43.292  13.028
32675W        W92211  40.307  43.883   0.819
32676W        W92212  19.089  23.516   4.221
32677W        W92213   1.301  17.712   3.166
32678W        W92214  11.261  26.525  14.815
32679W        W92215  34.583   0.405   0.949
32680W        W92216   8.366  12.703   0.354
32681W        W92217  21.125  27.507   3.385
32682W        W92218  23.580   6.780   2.741
32683W        W92219  41.531  26.535  10.585
32684W        W92220  28.674   8.862   5.198
32685W        W92221   7.198  44.883  14.454
32686W        W92222  29.483  26.553   0.807
32687W        W92223  21.180  38.337   0.931
32688W        W92224   3.759  36.437   4.347
32689W        W92225  30.579  30.513  12.401
32690W        W92226  31.949  15.734  10.027
32691W        W92227  11.179  22.106   2.222
32692W        W92228  29.990   3.233   2.245
32693W        W92229  35.480  41.315  13.020
32694W        W92230  17.578  33.491  11.605
32695W        W92231  16.721   1.771   1.857
32696W        W92232  36.902  22.188   1.724
32697W        W92233  25.674   9.238  13.451
32698W        W92234  43.274  16.674  13.390
32699W        W92235  26.998  10.351   2.782
32700W        W92236  21.248  32.538   1.731
32701W        W92237   3.361  38.998  14.909
32702W        W92238  22.209  21.183  14.305
32703W        W92239  15.100  33.005   0.779
32704W        W92240  31.904   0.932  12.941
32705W        W92241  10.165  25.126  14.428
32706W        W92242  19.109  26.172   0.328
32707W        W92243  15.731  16.717   2.314
32708W        W92244   3.866  35.589  14.397
32709W        W92245  38.453  10.750   1.402
32710W        W92246  37.890  30.444  12.405
32711W        W92247  35.011  20.701   0.462
32712W        W92248  29.580   7.795   4.723
32713W        W92249   5.367  33.965  10.961
32714W        W92250  37.476  29.028   3.799
32715W        W92251  35.965  20.742  12.886
32716W        W92252  23.166  26.638  12.022
32717W        W92253  30.523  39.429  11.545
32718W        W92254  17.102  22.694   1.324
32719W        W92255  22.060  17.644   4.197
32720W        W92256  33.411   3.445   4.741
32721W        W92257   8.853  11.738   2.246
32722W        W92258  20.086  25.165  13.428
32723W        W92259  10.872  33.571  14.442
32724W        W92260   4.436  27.638  14.020
32725W        W92261  39.489   7.333   1.409
32726W        W92262   5.867  30.508  14.887
32727W        W92263  35.004  16.581   2.846
32728W        W92264  33.924  28.153   3.823
32729W        W92265   2.349  42.364  10.943
32730W        W92266  18.225  27.971  12.017
32731W        W92267  38.445  27.033  12.890
32732W        W92268   9.732  13.214   2.281
32733W        W92269  37.853  25.086   5.256
32734W        W92270  21.238  29.515  13.380
32735W        W92271  35.528   6.730  13.052
32736W        W92272  43.327  40.383   1.879
32737W        W92273   5.306  31.910  11.869
32738W        W92274  27.177  11.661   0.397
32739W        W92275  43.011  10.680   5.175
32740W        W92276   3.888  20.688  12.368
32741W        W92277   7.332  36.991   0.482
32742W        W92278  42.524  29.666   1.210
32743W        W92279  35.449   7.861  10.889
32744W        W92280   9.385  19.100  11.967
32745W        W92281   8.290  29.461   3.291
32746W        W92282  39.518  17.105  12.357
32747W        W92283  17.764  28.525  14.029
32748W        W92284  17.775  21.063  11.423
32749W        W92285  34.990  32.476   3.148
32750W        W92286  13.616  11.374   1.363
32751W        W92287  39.545  19.753   1.848
32752W        W92288  41.524  14.120  13.326
32753W        W92289  36.956  32.945   1.252
32754W        W92290  11.373  21.626  11.024
32755W        W92291  42.004  31.435  13.331
32756W        W92292  18.786  24.155  12.852
32757W        W92293   3.840  12.703   2.353
32758W        W92294   3.337  44.856   3.278
32759W        W92295   8.786  20.265   0.942
32760W        W92296   7.193  31.108  13.859
32761W        W92297  15.302  24.597  14.339
32762W        W92298  30.131  30.450   1.389
32763W        W92299   8.306  12.333   2.321
32764W        W92300  41.921  26.074  13.367
32765W        W92301  26.075  38.451   1.770
32766W        W92302   7.411  17.772   2.676
32767W        W92303   1.350  14.695   0.468
32768W        W92304   3.788  14.747   3.165
32769W        W92305  32.120   5.367  11.478
32770W        W92306  20.760   8.218   3.251
32771W        W92307  37.464  42.860   3.316
32772W        W92308  34.609   4.901  10.484
32773W        W92309   4.767  36.093  13.453
32774W        W92310   8.892  14.756   4.216
32775W        W92311  42.369  44.840   1.268
32776W        W92312   9.350   4.902  11.007
32777W        W92313   8.398  21.157   1.417
32778W        W92314  18.278  30.116  10.999
32779W        W92315   1.878  34.425   4.172
32780W        W92316  40.971  21.221  11.856
32781W        W92317   9.780  24.152  10.001
32782W        W92318   6.228  29.993  13.478
32783W        W92319  19.729   9.361  13.344
32784W        W92320   0.449   4.253   2.329
32785W        W92321  21.607  11.635   2.251
32786W        W92322  43.352  17.646   3.327
32787W        W92323  26.629  26.013  12.339
32788W        W92324  36.856  23.573   2.280
32789W        W92325  37.340  37.052   1.331
32790W        W92326   3.954  10.788  13.377
32791W        W92327  21.523  17.708  14.492
32792W        W92328  34.400  12.827  11.933
32793W        W92329  22.239   2.318   0.375
32794W        W92330  22.596   8.325  11.963
32795W        W92331  24.097  20.634  11.550
32796W        W92332  36.472  32.102   4.610
32797W        W92333   0.860   7.694  11.583
32798W        W92334  21.027  34.584  12.345
32799W        W92335  33.994  26.650   4.640
32800W        W92336  25.987  26.191  11.445
32801W        W92337  39.504  26.072   0.443
32802W        W92338   3.802  43.445  14.959
32803W        W92339  23.009  44.992  12.063
32804W        W92340  20.052   2.250   1.765
32805W        W92341  36.354  19.110   2.222
32806W        W92342  12.167  42.781   2.725
32807W        W92343   4.335  25.580  12.054
32808W        W92344  33.487  36.442   0.279
32809W        W92345   5.795  27.496   1.299
32810W        W92346  15.261  38.923   2.300
32811W        W92347  38.436  29.465  12.876
32812W        W92348  43.493  27.014   0.939
32813W        W92349   5.900  11.696  11.085
32814W        W92350  38.427  44.862   2.728
32815W        W92351  39.353  27.547   2.668
32816W        W92352   6.834  22.156  12.393
32817W        W92353   7.873  30.585  11.047
32818W        W92354  14.291  13.684  12.463
32819W        W92355  43.020  27.986  11.602
32820W        W92356  44.902   3.721   1.745
32821W        W92357  32.491   3.755   2.698
32822W        W92358   3.294   9.702  12.892
32823W        W92359  29.623   0.277   2.253
32824W        W92360   5.230  23.136   0.769
32825W        W92361  38.034  24.100   2.712
32826W        W92362  33.934  28.152  14.900
32827W        W92363  42.917   9.831  13.434
32828W        W92364   0.370  44.306  12.905
32829W        W92365   2.736  40.351   4.606
32830W        W92366   1.783  18.107   4.197
32831W        W92367  10.282  44.268   0.420
32832W        W92368  17.668   2.848  11.022
32833W        W92369  17.082  40.378  12.983
32834W        W92370  32.022  34.909  11.467
32835W        W92371  30.907  31.140   2.197
32836W        W92372   7.723   6.391   1.266
32837W        W92373  34.089  18.673   0.253
32838W        W92374  10.856  16.573   0.894
32839W        W92375  43.928  37.523   1.707
32840W        W92376  43.982  35.880   2.348
32841W        W92377  11.759  29.649   0.447
32842W        W92378  29.969   9.756  13.883
32843W        W92379   2.806  35.094  14.364
32844W        W92380   7.753  37.987  12.020
32845W        W92381  44.767  39.553   3.316
32846W        W92382  41.942  40.386  10.010
32847W        W92383  21.032   5.264  14.010
32848W        W92384  37.494  26.674  10.606
32849W        W92385  31.637  34.556   3.304
32850W        W92386  37.483   3.909   1.838
32851W        W92387   3.276  38.547  14.826
32852W        W92388  13.771  14.809  11.584
32853W        W92389  11.822   8.774  12.418
32854W        W92390  29.928  17.705  12.504
32855W        W92391  37.980  19.044  13.501
32856W        W92392   7.876   4.873   1.698
32857W        W92393  35.052  11.739   2.275
32858W        W92394  29.025  37.339   0.483
32859W        W92395  37.344   4.436  13.444
32860W        W92396  41.476  35.950  13.055
32861W        W92397  25.970  40.953  13.501
32862W        W92398  10.708  42.456  12.553
32863W        W92399  42.904  31.612   3.225
32864W        W92400  31.092  41.872   0.815
32865W        W92401  41.326   3.895  10.443
32866W        W92402  19.678  23.636  12.529
32867W        W92403  15.590  42.889  14.294
32868W        W92404  10.744  33.452  14.883
32869W        W92405  38.840  38.842  10.088
32870W        W92406  30.147   0.962   1.886
32871W        W92407  35.034   4.892   1.359
32872W        W92408  24.532  23.117  10.919
32873W        W92409  36.381  36.886   4.297
32874W        W92410  39.017  21.090  13.393
32875W        W92411   3.371  28.109   1.882
32876W        W92412  19.186  25.165   4.332
32877W        W92413  33.942  25.161   3.833
32878W        W92414  14.123  21.675   2.732
32879W        W92415  10.275   4.287  11.511
32880W        W92416  41.023   3.949  11.383
32881W        W92417   6.340  10.828  13.801
32882W        W92418   7.880  44.829  13.887
32883W        W92419  34.117  39.482  12.503
32884W        W92420  19.278   7.852   3.659
32885W        W92421   7.215  34.894   2.211
32886W        W92422  38.827   9.165   1.289
32887W        W92423  20.230  32.520  12.426
32888W        W92424  24.202  13.270  11.952
32889W        W92425  27.949  26.193   3.155
32890W        W92426   7.790  15.189   0.922
32891W        W92427  10.325  35.478  12.028
32892W        W92428  23.088  17.130  12.520
32893W        W92429  35.588  27.139   0.912
32894W        W92430  34.872   0.493  11.038
32895W        W92431  22.187  16.682   1.418
32896W        W92432  11.622   2.454  13.479
32897W        W92433  22.074   2.948  13.508
32898W        W92434  15.712  23.633  10.911
32899W        W92435  23.683  29.496  11.561
32900W        W92436  25.506   9.235  13.932
32901W        W92437  41.847  38.544   1.446
32902W        W92438  15.616  42.935   2.734
32903W        W92439  14.617  18.127   2.876
32904W        W92440  11.202  41.951   3.285
32905W        W92441  35.375  17.217  14.350
32906W        W92442  38.945  16.196  10.502
32907W        W92443  15.670   2.748  11.423
32908W        W92444  33.050  38.856   1.392
32909W        W92445  37.917  42.947   3.777
32910W        W92446  43.987  34.502  14.986
32911W        W92447   7.172  19.279   4.166
32912W        W92448   8.163  22.074  14.996
32913W        W92449   3.449  31.977   3.771
32914W        W92450  39.473  17.556   3.640
32915W        W92451  42.294   0.946   0.786
32916W        W92452  36.068  37.925  12.959
32917W        W92453  34.565  41.323  11.453
32918W        W92454  38.868  40.802   0.411
32919W        W92455   1.373  12.666  12.502
32920W        W92456   4.367  29.667  12.431
32921W        W92457  16.214  13.153  11.545
32922W        W92458  26.474  39.847   0.333
32923W        W92459   3.847  10.812  11.588
32924W        W92460  14.112   3.900  11.586
32925W        W92461   8.671   7.212  11.561
32926W        W92462  29.587  41.827  12.481
32927W        W92463  29.959  20.229   0.901
32928W        W92464  24.677   7.272   1.720
32929W        W92465  39.969  11.739  12.416
32930W        W92466  34.592  30.443   0.809
32931W        W92467  33.901  24.649  13.531
32932W        W92468  42.429  12.640   4.815
32933W        W92469   3.417  41.395   4.729
32934W        W92470  17.778  39.892  14.412
32935W        W92471  30.982  31.428   3.673
32936W        W92472  25.671  19.249  13.062
32937W        W92473  13.340  43.945  14.413
32938W        W92474  42.882  10.378   3.691
32939W        W92475  20.598  10.669  13.463
32940W        W92476  11.737  18.667   3.318
32941W        W92477  35.962  20.669   3.355
32942W        W92478  19.553  23.722   3.358
32943W        W92479  42.997  19.071   4.619
32944W        W92480   3.950  37.903   1.439
32945W        W92481   4.270   1.359  14.809
32946W        W92482  31.105  30.582   3.749
32947W        W92483  27.097  24.007   2.206
32948W        W92484  43.969  41.508   1.916
32949W        W92485   8.228  24.144  11.411
32950W        W92486  31.154   8.766   0.911
32951W        W92487   4.405  16.576   4.795
32952W        W92488  25.197  30.155   1.229
32953W        W92489   6.240  29.105  11.941
32954W        W92490  21.156  35.085   1.828
32955W        W92491  32.490  29.038   0.382
32956W        W92492  28.947  28.622   3.217
32957W        W92493  20.120  19.179  11.956
32958W        W92494  12.361  26.094   4.240
32959W        W92495   2.414  37.945  13.539
32960W        W92496  24.179   5.434  11.480
32961W        W92497  12.214   4.738  11.457
32962W        W92498  44.964  25.579   3.354
32963W        W92499  29.600  31.565  13.404
32964W        W92500  31.487   5.708  12.409
32965W        W92501  26.537  14.633   5.297
32966W        W92502  14.697  11.675  12.471
32967W        W92503  10.163   1.382  13.541
32968W        W92504  16.776  24.063  12.994
32969W        W92505   0.256   2.369  13.827
32970W        W92506  25.182  22.229   4.176
32971W        W92507  12.118  34.554   3.710
32972W        W92508  44.943  16.267   4.675
32973W        W92509  34.552  28.079  13.447
32974W        W92510  23.180  43.967  10.460
32975W        W92511  37.443   1.829   2.895
32976W        W92512  27.035  30.058  11.558
32977W        W92513  32.941  18.699   3.252
32978W        W92514   4.698  23.624  11.595
32979W        W92515   0.987  31.433   2.269
32980W        W92516  32.439   2.258  13.312
32981W        W92517  18.682  12.239   3.315
32982W        W92518   6.249  31.038  14.883
32983W        W92519  24.206   7.852  10.137
32984W        W92520  25.976  30.030  13.362
32985W        W92521  19.272  25.199  13.985
32986W        W92522   2.408  16.178   2.181
32987W        W92523  38.034   9.857   0.737
32988W        W92524  24.597  17.150   3.205
32989W        W92525  32.488  13.726   1.759
32990W        W92526  19.709  27.088   1.281
32991W        W92527   9.802  13.342   2.791
32992W        W92528  33.965  12.182  10.500
32993W        W92529  15.242  12.686  12.355
32994W        W92530   4.736   0.264   2.246
32995W        W92531  20.716  39.530  10.521
32996W        W92532  39.479   0.414  12.485
32997W        W92533   6.809  31.478   0.852
32998W        W92534  15.751   2.903  11.077
32999W        W92535  39.814  22.584  11.996
33000W        W92536  18.752  25.540  13.866
33001W        W92537   6.426  25.544  13.490
33002W        W92538  24.121  31.144  12.522
33003W        W92539  17.147  43.282   3.854
33004W        W92540  21.718  29.453  14.778
33005W        W92541  14.705  37.025  14.920
33006W        W92542  13.785  26.635   1.439
33007W        W92543  23.083   3.324   3.253
33008W        W92544  32.504  10.174   3.198
33009W        W92545  44.924  39.825   2.294
33010W        W92546   0.251  16.782   3.276
33011W        W92547  39.372  44.338   4.838
33012W        W92548  43.792  35.955  12.043
33013W        W92549  14.100  13.178  11.049
33014W        W92550   2.827  26.104   0.439
33015W        W92551  14.764   5.921  12.355
33016W        W92552  38.495   1.335   2.404
33017W        W92553  12.155  27.612  11.859
33018W        W92554  28.048  39.904  11.468
33019W        W92555   7.854  19.716   3.729
33020W        W92556  22.210  31.529  13.494
33021W        W92557   1.926   1.928   4.813
33022W        W92558  11.740   6.371  10.583
33023W        W92559   9.269  33.484  11.924
33024W        W92560  11.773  21.048   3.357
33025W        W92561  11.753  30.650   3.163
33026W        W92562   2.905  17.170   1.808
33027W        W92563   1.310  20.627  13.362
33028W        W92564  14.328  12.308  13.839
33029W        W92565  38.524  26.617   4.833
33030W        W92566  17.132  43.932  13.052
33031W        W92567  26.572  32.500   3.756
33032W        W92568  29.954  13.330   1.743
33033W        W92569  43.835   5.794  13.914
33034W        W92570  42.467  22.246  11.863
33035W        W92571  23.004  11.732   4.734
33036W        W92572  14.745  25.138   2.680
33037W        W92573  43.914  44.258   1.313
33038W        W92574  33.029  43.950  11.114
33039W        W92575   9.327  28.464  11.513
33040W        W92576  39.914  33.059  12.570
33041W        W92577  19.776  18.720   2.902
33042W        W92578  22.220  12.832   3.247
33043W        W92579   5.694  32.600   0.734
33044W        W92580   5.835  27.119  10.137
33045W        W92581  34.397  33.043   1.839
33046W        W92582  17.745  24.558  14.346
33047W        W92583  41.494  25.143  13.829
33048W        W92584   1.335  10.317   3.160
33049W        W92585  26.601  10.701   3.653
33050W        W92586   6.870  38.989   2.209
33051W        W92587  24.721  12.125  14.859
33052W        W92588  30.160  44.830  14.992
33053W        W92589  35.419  23.221  11.987
33054W        W92590  19.710   1.299  11.093
33055W        W92591  11.233  16.213   4.282
33056W        W92592  18.719  16.613  13.883
33057W        W92593   8.886   2.255  10.425
33058W        W92594  38.961  40.994   2.299
33059W        W92595   8.248   2.763   2.736
33060W        W92596  24.036  11.188   2.663
33061W        W92597  41.466  15.811  12.016
33062W        W92598  15.149   0.938  11.905
33063W        W92599  31.029  42.281  14.020
33064W        W92600  29.490  42.493   0.882
33065W        W92601  29.075  26.464   0.307
33066W        W92602   3.327   1.971   1.715
33067W        W92603  43.854  36.432  11.095
33068W        W92604   1.378   2.965  12.998
33069W        W92605   0.841  13.766  11.580
33070W        W92606  19.632  30.015   0.947
33071W        W92607  36.527  40.978   3.351
33072W        W92608  11.202  43.883  14.396
33073W        W92609  14.605   5.901   0.324
33074W        W92610  16.074   5.836   4.197
33075W        W92611  33.469  13.113  13.968
33076W        W92612  40.341  24.669   1.905
33077W        W92613  44.960  42.974  10.904
33078W        W92614  20.717   7.722  10.575
33079W        W92615  20.723  40.840   3.776
33080W        W92616  35.921  29.496   1.929
33081W        W92617  14.685  39.453   0.797
33082W        W92618  42.461  40.444  11.104
33083W        W92619  15.676  18.762  12.500
33084W        W92620  22.193  40.840  13.501
33085W        W92621  36.956  31.546  14.891
33086W        W92622  14.181  24.147   5.204
33087W        W92623  17.644  36.526   3.333
33088W        W92624  32.426  17.562  14.470
33089W        W92625  13.710  40.463  10.472
33090W        W92626  35.520  24.015   4.819
33091W        W92627  14.094  15.739  13.502
33092W        W92628  23.045   0.471   4.259
33093W        W92629  16.174   6.393   0.745
33094W        W92630  15.732  18.686   4.290
33095W        W92631   9.760  43.776   0.750
33096W        W92632  24.590  16.615   0.434
33097W        W92633   6.373  34.453  10.454
33098W        W92634  22.662  20.663  13.934
33099W        W92635  15.296   3.752   4.734
33100W        W92636  29.591  44.450   1.796
33101W        W92637  14.830  18.132  12.545
33102W        W92638  44.366   4.894  13.411
33103W        W92639  44.301   1.372   1.398
33104W        W92640  43.350  44.869   1.217
33105W        W92641  10.682  43.471  10.550
33106W        W92642  17.065  24.155  11.428
33107W        W92643   7.853  30.994   3.180
33108W        W92644  28.121  37.872   3.214
33109W        W92645  40.369   7.339  12.533
33110W        W92646  41.862  34.562   5.148
33111W        W92647   7.775  11.745  13.917
33112W        W92648   8.735  24.626   2.219
33113W        W92649  27.174   9.160   3.685
33114W        W92650  31.896  22.081   4.207
33115W        W92651  14.810  21.042   4.117
33116W        W92652  44.372  33.007   4.749
33117W        W92653   4.412  20.229  12.393
33118W        W92654  17.238   9.686   3.792
33119W        W92655  25.162  40.849  11.462
33120W        W92656  33.024  18.194   4.616
33121W        W92657  34.500   4.275   1.312
33122W        W92658  15.697  10.769  12.373
33123W        W92659  19.713   1.969  11.610
33124W        W92660  17.721  18.781  10.497
33125W        W92661  25.962  44.842   1.367
33126W        W92662  36.506  40.945  14.759
33127W        W92663  10.204   7.840   2.325
33128W        W92664   6.849  15.784   2.286
33129W        W92665  35.579  43.316   4.296
33130W        W92666  13.764   1.483   4.667
33131W        W92667  11.243  43.022   1.870
33132W        W92668  38.011  20.127  10.559
33133W        W92669  15.191  29.166   4.177
33134W        W92670   8.192   9.319   9.581
33135W        W92671  37.981  40.858   2.793
33136W        W92672   5.778  17.078  13.320
33137W        W92673   5.898   4.936  12.028
33138W        W92674  17.677  40.984   4.129
33139W        W92675  29.156  15.728  12.903
33140W        W92676  35.965  25.202   3.791
33141W        W92677  43.408  40.011  10.011
33142W        W92678  12.814  37.962   2.324
33143W        W92679  18.266  37.856   4.658
33144W        W92680  21.632  31.604   2.311
33145W        W92681  20.664  44.912  12.992
33146W        W92682   0.480  44.768  14.859
33147W        W92683  18.665  13.814   1.810
33148W        W92684  14.658  39.850   4.163
33149W        W92685   8.887  38.822   1.220
33150W        W92686  38.010  34.097  13.936
33151W        W92687   6.388  33.602   5.119
33152W        W92688   1.771   6.353  14.425
33153W        W92689  44.343   5.743   1.915
33154W        W92690  36.438  23.242   1.922
33155W        W92691   2.938  36.981  10.418
33156W        W92692  41.800  16.719  14.986
33157W        W92693   5.247  19.575  13.491
33158W        W92694  34.994  29.504   4.782
33159W        W92695  40.035  31.423   3.630
33160W        W92696   7.249   1.765   0.768
33161W        W92697  38.018  11.858  11.857
33162W        W92698  34.422  23.221   5.260
33163W        W92699  32.017  24.714   4.771
33164W        W92700  29.431  35.898   3.741
33165W        W92701  22.165  13.709   0.267
33166W        W92702  21.222   8.684  14.793
33167W        W92703  43.917  20.647   0.864
33168W        W92704  44.503  32.095   3.816
33169W        W92705   8.660   5.756   3.364
33170W        W92706  36.905  28.000  12.527
33171W        W92707  26.587  27.107  11.116
33172W        W92708  33.613  36.557   2.708
33173W        W92709  33.571  44.926   0.454
33174W        W92710   7.667   9.161  12.094
33175W        W92711  21.019  20.621  10.892
33176W        W92712   5.837  38.914   4.150
33177W        W92713   2.879  14.624  13.963
33178W        W92714  40.007  35.041  14.395
33179W        W92715  41.811  37.469   2.227
33180W        W92716  21.017  37.025  14.784
33181W        W92717  36.379  31.005   0.476
33182W        W92718  13.725  13.713   4.235
33183W        W92719  44.454  43.008  10.415
33184W        W92720   4.734  17.765  13.020
33185W        W92721  21.532   0.832   4.663
33186W        W92722   4.721  29.615   0.763
33187W        W92723  14.826  28.155  13.926
33188W        W92724  17.227  28.967   2.667
33189W        W92725  19.142   6.908   2.688
33190W        W92726   9.261  22.246   0.858
33191W        W92727   9.348  18.085   1.322
33192W        W92728  34.871   2.345   3.368
33193W        W92729  20.703  26.528   3.292
33194W        W92730  15.610  24.980   0.313
33195W        W92731  30.634  27.120  14.905
33196W        W92732   5.195   3.330  14.828
33197W        W92733  33.062  34.543  10.948
33198W        W92734  17.110  16.589   9.536
33199W        W92735  39.477   8.723   3.323
33200W        W92736  19.613   7.899   2.698
33201W        W92737  32.118  24.509  14.032
33202W        W92738  22.703  19.132   0.787
33203W        W92739  12.724  23.095   3.697
33204W        W92740  20.105  28.555  14.434
33205W        W92741  34.438  20.167  13.836
33206W        W92742  16.316  37.418  11.909
33207W        W92743  33.433  30.458   1.322
33208W        W92744  38.490  26.498   2.410
33209W        W92745  34.606  40.530  11.913
33210W        W92746   8.353  43.783   3.201
33211W        W92747  33.604   6.684  14.908
33212W        W92748  28.179   8.810   0.879
33213W        W92749  16.750  44.339  13.467
33214W        W92750   3.838  32.123  10.084
33215W        W92751  13.122  14.745  10.445
33216W        W92752  24.514  33.111  10.452
33217W        W92753  39.037  15.769  14.779
33218W        W92754  21.516  42.859  12.864
33219W        W92755  16.616  24.566   1.751
33220W        W92756  10.193  20.149   4.256
33221W        W92757   4.838  22.044  13.910
33222W        W92758   0.934  18.268   1.299
33223W        W92759  30.936   1.872   3.846
33224W        W92760  16.595  26.595   1.435
33225W        W92761  31.543   0.870   4.718
33226W        W92762  38.451   9.872  13.799
33227W        W92763   4.891  37.495   1.848
33228W        W92764  33.073   7.765  12.827
33229W        W92765   0.382  28.959   0.472
33230W        W92766   7.817  32.917  11.471
33231W        W92767  31.043   6.696  12.564
33232W        W92768  21.157  33.019  13.904
33233W        W92769   0.870  41.013   2.358
33234W        W92770   9.714  42.940  12.931
33235W        W92771   2.795  18.160  11.045
33236W        W92772  43.963  14.197   9.667
33237W        W92773  18.624  22.526   5.106
33238W        W92774  19.277  14.768  14.335
33239W        W92775   3.417   8.680  12.358
33240W        W92776  11.663  36.078  11.864
33241W        W92777  10.652  42.021  13.531
33242W        W92778   2.330  19.164   0.796
33243W        W92779   0.354  25.997  13.461
33244W        W92780  14.703  12.118   1.750
33245W        W92781  25.649   3.372  14.935
33246W        W92782  26.688  17.598   9.994
33247W        W92783  20.675  35.874  13.335
33248W        W92784   3.438  22.747   3.269
33249W        W92785   9.782  25.067  11.573
33250W        W92786  26.576  40.823   0.301
33251W        W92787  26.486  27.600   0.279
33252W        W92788  19.069  40.485   4.803
33253W        W92789  26.038   8.305  10.963
33254W        W92790  36.957  24.189   0.315
33255W        W92791  13.826  43.907   2.819
33256W        W92792  15.320  10.747   3.351
33257W        W92793   2.345  28.990  10.902
33258W        W92794   9.742  26.096   1.229
33259W        W92795  31.490  30.540   2.297
33260W        W92796  34.085  31.499  14.829
33261W        W92797  10.683  41.503   1.799
33262W        W92798  17.666  14.820   2.382
33263W        W92799  42.959  13.646   4.837
33264W        W92800  27.069  33.463   0.885
33265W        W92801  16.698  35.368  12.092
33266W        W92802  40.851  10.639  10.946
33267W        W92803  19.670  35.093   0.761
33268W        W92804  23.146  29.046  11.434
33269W        W92805  10.748  43.010   0.420
33270W        W92806  34.078   0.838  11.394
33271W        W92807  17.749  13.664   3.237
33272W        W92808   0.446  17.652  11.514
33273W        W92809  17.671  36.395   1.701
33274W        W92810  15.132   7.897  11.516
33275W        W92811  44.448  42.419  12.864
33276W        W92812  43.501   2.941   4.619
33277W        W92813   2.965  11.247   0.851
33278W        W92814  44.452   9.763   3.770
33279W        W92815  37.073  26.179  13.889
33280W        W92816  31.477  43.444  13.912
33281W        W92817  12.745  19.131  12.516
33282W        W92818   7.407  41.475  11.529
33283W        W92819  20.549  13.715  11.549
33284W        W92820  11.761  27.951  14.929
33285W        W92821   6.293   7.271   0.736
33286W        W92822  26.703  41.787   2.753
33287W        W92823  32.407  12.682   1.714
33288W        W92824   8.377   3.916   4.687
33289W        W92825  43.800  22.544   2.416
33290W        W92826  10.368  41.003  13.050
33291W        W92827   5.705  18.660  10.983
33292W        W92828  35.580  21.251  10.543
33293W        W92829  34.457  19.225  14.397
33294W        W92830  19.680  13.754   4.347
33295W        W92831  26.688  40.868   4.778
33296W        W92832  43.011   9.271  12.097
33297W        W92833  31.935  18.659   2.700
33298W        W92834  27.503  24.105  14.904
33299W        W92835   2.965  29.006   2.713
33300W        W92836  32.590  36.053   2.758
33301W        W92837  34.902  12.221   1.233
33302W        W92838  36.036  42.927   1.218
33303W        W92839  22.602   8.373  11.040
33304W        W92840   8.178  19.100   0.380
33305W        W92841  25.009  25.486  11.964
33306W        W92842   1.808   7.806   2.226
33307W        W92843  26.082  19.628  14.461
33308W        W92844  12.306   2.900   0.934
33309W        W92845  23.626  41.813  13.849
33310W        W92846  31.632  44.303   2.252
33311W        W92847  28.045  39.909  10.145
33312W        W92848  17.072  18.248   1.810
33313W        W92849  40.367  29.662   0.260
33314W        W92850  32.940   5.884  11.599
33315W        W92851  40.916  29.477   1.297
33316W        W92852  15.242   7.403  13.057
33317W        W92853   4.369  43.933   3.370
33318W        W92854  19.738  12.230  10.504
33319W        W92855  21.603  22.593  11.430
33320W        W92856  31.554  30.142   3.363
33321W        W92857  33.451  27.600  13.311
33322W        W92858  16.652   7.790  14.018
33323W        W92859   8.885  43.960  12.017
33324W        W92860  38.552  39.453   1.779
33325W        W92861  22.611  20.249   0.449
33326W        W92862   8.388  15.642  14.289
33327W        W92863  44.329   3.244  14.986
33328W        W92864  21.605  16.784   3.153
33329W        W92865   5.279   6.296  13.917
33330W        W92866  37.494   8.880  13.460
33331W        W92867  11.751  14.323  11.948
33332W        W92868  26.056   8.333   2.885
33333W        W92869   0.302   6.916  12.910
33334W        W92870  25.989  10.352   4.777
33335W        W92871   3.404   7.774  12.846
33336W        W92872  25.141  18.550   2.847
33337W        W92873  38.049  30.515   1.394
33338W        W92874  38.370  37.370   2.796
33339W        W92875  19.197  44.479   1.252
33340W        W92876  19.648  19.696   1.265
33341W        W92877   5.330   2.795  12.425
33342W        W92878  24.695  25.615  10.581
33343W        W92879  44.502  21.245   3.205
33344W        W92880  25.568   6.769  13.482
33345W        W92881  27.068  44.327  12.437
33346W        W92882   0.315  19.658  13.031
33347W        W92883   3.292  14.244  12.467
33348W        W92884  43.968  36.414  12.573
33349W        W92885   7.399  14.789  10.639
33350W        W92886  33.046  29.476   3.161
33351W        W92887  37.919  10.207  13.933
33352W        W92888   2.230  29.010   4.150
33353W        W92889  11.719   1.461   1.306
33354W        W92890   0.834  35.051   1.819
33355W        W92891   5.201  44.352   3.207
33356W        W92892  27.144   2.965   1.912
33357W        W92893  22.205   5.366  13.545
33358W        W92894  43.798  13.282  13.385
33359W        W92895  19.678  18.545  11.924
33360W        W92896  36.536  24.227   1.432
33361W        W92897  14.759  35.484  11.383
33362W        W92898  29.049   0.468   2.724
33363W        W92899  30.011   8.812   1.422
33364W        W92900  15.243  21.644  11.464
33365W        W92901  44.337  14.763  14.839
33366W        W92902   5.404  12.827   4.163
33367W        W92903  31.099  14.226   4.817
33368W        W92904  18.769  37.533   4.223
33369W        W92905  25.613   3.382   4.809
33370W        W92906  14.793  13.841   0.420
33371W        W92907  30.439  21.622  11.024
33372W        W92908  17.781  28.186  13.799
33373W        W92909   7.896   7.254  13.852
33374W        W92910   8.733   6.698  12.351
33375W        W92911  21.618   1.951  12.991
33376W        W92912  15.677   1.873  10.082
33377W        W92913  20.765  32.502  13.474
33378W        W92914  35.546   0.251  13.985
33379W        W92915  34.096   7.722   4.292
33380W        W92916   7.199  43.969  13.430
33381W        W92917   8.743  32.544   2.406
33382W        W92918  37.413   2.840   2.327
33383W        W92919   1.943  28.523   0.409
33384W        W92920  33.942   5.382  12.914
33385W        W92921  27.962  12.627  14.813
33386W        W92922  10.260  17.188   3.826
33387W        W92923   0.836  34.902   4.837
33388W        W92924   6.330  28.563  11.900
33389W        W92925   1.378  19.258  14.999
33390W        W92926  29.017  14.251   0.426
33391W        W92927  31.962  33.077  11.039
33392W        W92928   2.267  32.631  14.988
33393W        W92929  32.027  28.556  11.536
33394W        W92930  10.713   7.894   2.708
33395W        W92931  34.908  39.383  13.448
33396W        W92932   0.397  41.506   2.408
33397W        W92933  22.594  19.213   4.824
33398W        W92934  11.169  38.006  12.385
33399W        W92935   3.758  18.614   4.617
33400W        W92936  38.369  21.129  13.855
33401W        W92937   4.424   0.263  13.389
33402W        W92938   1.265  43.929   2.376
33403W        W92939  23.166  13.151   0.947
33404W        W92940  16.653  29.626  12.516
33405W        W92941  25.545   5.737  13.538
33406W        W92942   4.240   8.788   0.392
33407W        W92943  28.995  32.461   0.363
33408W        W92944  31.091  31.525  11.387
33409W        W92945  14.694  23.667  12.403
33410W        W92946  13.814  14.098  14.024
33411W        W92947  36.480  36.926   0.761
33412W        W92948  41.805   4.403   4.718
33413W        W92949  21.588  39.969   5.114
33414W        W92950  22.696  29.005   1.345
33415W        W92951  30.938  15.121   1.401
33416W        W92952  10.346  43.384  12.352
33417W        W92953   0.347  38.517  10.470
33418W        W92954  17.594  38.062  13.992
33419W        W92955  41.383  16.142  13.799
33420W        W92956  18.744  43.000   4.755
33421W        W92957   4.365  34.047  14.457
33422W        W92958  33.425   7.675  13.858
33423W        W92959   5.296  27.686   0.412
33424W        W92960  39.409  28.499   0.787
33425W        W92961  17.633  12.265   0.260
33426W        W92962  20.163  43.805  13.859
33427W        W92963  13.110  25.469   4.122
33428W        W92964  40.932  40.975   4.763
33429W        W92965  33.976  12.145   3.343
33430W        W92966  20.624  36.369  11.525
33431W        W92967   5.249  31.581  14.476
33432W        W92968  13.728  26.578  14.877
33433W        W92969  41.847  26.043   2.181
33434W        W92970  44.283   3.753   4.345
33435W        W92971  25.600  12.668  10.564
33436W        W92972   4.869   2.729   0.426
33437W        W92973  15.255   5.299   1.368
33438W        W92974  15.090  30.504  13.936
33439W        W92975  23.665   3.838   3.310
33440W        W92976  28.072   6.682   2.696
33441W        W92977  27.035  41.514  13.833
33442W        W92978  43.765  26.970  10.593
33443W        W92979  37.847  40.458   3.283
33444W        W92980  38.398  43.006   5.239
33445W        W92981   7.264  30.925   4.763
33446W        W92982  15.625  42.825   1.372
33447W        W92983  42.855  15.768  14.920
33448W        W92984  21.630  39.496  13.825
33449W        W92985  16.169  14.616  12.504
33450W        W92986  10.634   6.399   5.781
33451W        W92987  30.044  27.628   0.888
33452W        W92988   4.801   8.692   4.654
33453W        W92989  38.071  27.677   1.339
33454W        W92990   4.915   4.434   4.224
33455W        W92991  19.243  31.908   0.415
33456W        W92992  17.679  40.998  13.405
33457W        W92993  44.828   4.750  13.005
33458W        W92994   3.939  35.029   1.448
33459W        W92995  30.487  39.987  12.920
33460W        W92996  34.538  17.651  14.792
33461W        W92997  29.528  31.552   3.329
33462W        W92998  32.939   5.318  12.443
33463W        W92999  30.597  18.061   1.314
33464W        W93000  37.528  10.185   1.345
33465W        W93001  38.967  22.995   3.838
33466W        W93002  29.082  40.998   0.740
33467W        W93003   2.258   3.232   1.885
33468W        W93004  21.065  15.205   9.996
33469W        W93005  16.305  29.002  12.869
33470W        W93006  43.302   4.423   0.958
33471W        W93007   2.459  31.406   0.438
33472W        W93008  26.193  21.036  10.893
33473W        W93009   2.364  12.239   2.746
33474W        W93010   0.444  15.597  13.504
33475W        W93011  18.168  26.642   1.394
33476W        W93012  12.153  42.957  13.962
33477W        W93013  33.409  42.366   3.352
33478W        W93014  44.964  25.624   2.880
33479W        W93015   1.902  22.181  14.762
33480W        W93016   2.915  22.582   0.427
33481W        W93017  21.030  10.290   0.483
33482W        W93018  19.228  26.153  13.432
33483W        W93019  40.517  22.063   3.646
33484W        W93020  16.279  42.839   0.856
33485W        W93021   0.382  28.534  13.946
33486W        W93022  27.453  38.883  12.435
33487W        W93023  11.781  42.974   3.325
33488W        W93024  13.296  16.120   4.330
33489W        W93025  37.541   1.363   4.610
33490W        W93026  12.119  27.531   1.770
33491W        W93027  13.329  13.759  14.331
33492W        W93028  22.526   2.326  10.642
33493W        W93029  15.176  39.330   0.907
33494W        W93030  35.911  41.920  14.977
33495W        W93031  25.019  39.537  12.823
33496W        W93032   0.398  17.656  11.886
33497W        W93033   6.244  18.161   3.243
33498W        W93034  24.692  44.285  10.622
33499W        W93035  18.286  14.692   2.247
33500W        W93036  14.326   6.710   0.795
33501W        W93037  42.302  18.231   4.221
33502W        W93038   9.713   3.419   4.685
33503W        W93039  43.384  16.294  11.018
33504W        W93040  27.957  27.197  12.342
33505W        W93041  28.535  10.172   4.670
33506W        W93042  36.504  34.508   3.200
33507W        W93043  21.729   8.382  10.571
33508W        W93044  18.586  31.993  13.973
33509W        W93045  22.591  23.001  13.993
33510W        W93046  22.646  44.275  11.611
33511W        W93047  18.075  21.558  12.028
33512W        W93048  25.060  28.934  12.571
33513W        W93049   5.754  27.156   4.711
33514W        W93050  36.419  19.174  11.005
33515W        W93051  24.186  19.228   3.162
33516W        W93052   0.935  40.308  11.028
33517W        W93053  22.241  18.737  11.489
33518W        W93054  28.965  36.868  12.837
33519W        W93055  42.376  30.136  12.380
33520W        W93056  40.403   1.957   1.425
33521W        W93057  39.554  26.067  14.895
33522W        W93058  28.615  13.727   1.871
33523W        W93059  31.972   1.929  14.770
33524W        W93060  22.702  40.368  13.883
33525W        W93061  40.378  11.810   5.187
33526W        W93062   9.186  44.435  12.400
33527W        W93063  15.584  44.343   1.857
33528W        W93064  15.598  29.959  12.011
33529W        W93065  23.087  29.620   2.248
33530W        W93066  29.590   0.313  11.127
33531W        W93067  41.380  29.998  14.281
33532W        W93068   6.280  32.066   4.625
33533W        W93069  33.925  16.257   4.300
33534W        W93070  42.482   1.818  11.892
33535W        W93071  31.530  25.064  13.418
33536W        W93072  10.367   8.696  11.988
33537W        W93073  28.481   2.460   2.204
33538W        W93074  35.946   3.948   2.202
33539W        W93075  27.967  15.754   1.929
33540W        W93076  34.890  33.007  13.524
33541W        W93077   2.881  15.291   1.395
33542W        W93078  14.319   0.418   0.947
33543W        W93079  31.466  25.023  14.489
33544W        W93080  40.519   7.198  10.087
33545W        W93081  39.418  42.304  12.355
33546W        W93082  14.217  44.916  13.311
33547W        W93083  20.641  24.058   3.754
33548W        W93084  22.642  25.166   4.273
33549W        W93085  15.137   4.411  12.043
33550W        W93086  43.416  10.859   2.261
33551W        W93087  41.906  10.277  14.763
33552W        W93088  16.655   8.734   4.830
33553W        W93089  42.836  42.304   4.631
33554W        W93090  19.262  24.006  14.295
33555W        W93091  28.940  43.504  10.520
33556W        W93092   0.356   3.861   1.308
33557W        W93093  14.680  30.503   4.167
33558W        W93094  38.064  24.605   3.178
33559W        W93095  10.868  13.819   4.740
33560W        W93096  17.243   0.913   0.368
33561W        W93097  31.627  35.902   4.609
33562W        W93098  10.346   2.728   3.282
33563W        W93099  34.867  19.739   0.438
33564W        W93100   8.276  24.053  10.528
33565W        W93101  30.480  25.007   3.688
33566W        W93102  37.468   6.282   3.662
33567W        W93103  18.066  25.644  14.899
33568W        W93104  23.077  28.481  13.994
33569W        W93105  44.468  35.015   3.792
33570W        W93106   4.708  34.515   3.356
33571W        W93107  35.913   7.748  13.444
33572W        W93108  44.968   7.827  12.446
33573W        W93109  13.181  36.888   0.483
33574W        W93110  39.401  27.478   2.267
33575W        W93111  42.001  35.860   4.328
33576W        W93112   3.845  16.757  13.439
33577W        W93113  18.610  25.689   3.864
33578W        W93114  19.280  36.094  12.409
33579W        W93115   7.294   0.763   1.834
33580W        W93116  14.121   6.300  13.526
33581W        W93117  37.421   4.870   1.354
33582W        W93118  20.031  14.147   2.246
33583W        W93119  25.153  24.113  13.905
33584W        W93120  34.979  25.217   5.107
33585W        W93121  44.852  17.091   3.316
33586W        W93122  31.134  30.028  11.942
33587W        W93123  17.632  16.577  11.911
33588W        W93124  37.366  20.698  11.073
33589W        W93125   9.198  28.063   4.229
33590W        W93126  43.796  17.630  11.030
33591W        W93127  35.485   2.279  14.971
33592W        W93128  30.967  32.110   4.760
33593W        W93129  21.139  23.119  13.947
33594W        W93130  26.670  18.653   1.272
33595W        W93131  32.959  27.613   3.176
33596W        W93132   2.395  35.537  12.444
33597W        W93133  13.138  14.148  13.381
33598W        W93134  42.978  34.464  14.932
33599W        W93135  36.029  33.987  12.424
33600W        W93136  41.525  39.045   4.694
33601W        W93137  32.396  15.673  11.541
33602W        W93138  14.651  34.020   2.699
33603W        W93139  10.210  15.300   1.920
33604W        W93140  37.023   1.471  13.407
33605W        W93141  22.249  43.931   4.150
33606W        W93142  25.684  14.104  11.535
33607W        W93143   5.925  15.262  12.833
33608W        W93144  43.012   8.254  13.941
33609W        W93145  15.201   7.368   0.761
33610W        W93146   1.811  20.070   4.688
33611W        W93147  21.224  27.576   2.215
33612W        W93148   5.796  20.271   3.764
33613W        W93149  32.954  13.632   4.232
33614W        W93150   3.271  35.004   0.433
33615W        W93151  24.186  22.654  13.840
33616W        W93152  13.348  40.978   3.660
33617W        W93153  12.236   2.229  13.883
33618W        W93154  21.066  27.678  11.486
33619W        W93155  24.088   1.386   4.707
33620W        W93156  22.679  42.937   9.934
33621W        W93157  24.040  44.394   0.248
33622W        W93158  14.595  36.573  13.461
33623W        W93159  27.999  38.983  12.493
33624W        W93160  11.666  36.501   3.823
33625W        W93161   2.903  31.571  12.449
33626W        W93162   6.359   2.456   2.680
33627W        W93163   5.741  28.646  10.016
33628W        W93164   9.327  40.808   4.215
33629W        W93165  15.245  34.488   4.597
33630W        W93166  19.579  29.920   3.380
33631W        W93167  35.010   3.263  11.995
33632W        W93168  13.142   3.838   4.788
33633W        W93169   2.361  37.881  12.937
33634W        W93170  23.229  40.878   3.791
33635W        W93171  37.053  30.610   1.321
33636W        W93172  32.044   0.842  14.013
33637W        W93173  37.930  10.353  14.439
33638W        W93174  22.600  26.636   4.764
33639W        W93175   4.931  33.590  13.845
33640W        W93176  16.622  20.617   2.337
33641W        W93177  13.745  17.192   3.779
33642W        W93178  16.701  17.609   1.218
33643W        W93179  22.599  20.608  12.861
33644W        W93180  17.615  24.551   4.773
33645W        W93181  29.007  33.031   4.610
33646W        W93182  40.985  13.197  13.346
33647W        W93183  22.242  23.571  14.937
33648W        W93184  33.595  20.731   3.633
33649W        W93185   0.379  23.217   1.727
33650W        W93186   7.774   4.389  11.386
33651W        W93187  25.522  26.632   2.311
33652W        W93188  31.552  16.147   0.250
33653W        W93189  23.228  39.479   0.937
33654W        W93190  11.780  24.185   3.164
33655W        W93191  25.663  30.461   1.343
33656W        W93192   1.907  26.993   0.381
33657W        W93193  41.006   3.242  10.420
33658W        W93194  42.305  27.520  10.645
33659W        W93195  26.687  17.262  14.926
33660W        W93196  23.523   3.790   4.302
33661W        W93197  24.991   7.835   5.598
33662W        W93198  34.907  43.457  13.018
33663W        W93199  41.485  44.326  12.357
33664W        W93200  42.423  40.827  12.092
33665W        W93201  27.195  24.065   3.168
33666W        W93202  23.554  21.564  12.009
33667W        W93203   5.802  15.676  13.520
33668W        W93204  21.581  17.169  13.354
33669W        W93205  32.987  22.027  11.560
33670W        W93206   4.885  44.448   0.843
33671W        W93207  35.470  24.177   3.784
33672W        W93208  19.605   0.264  11.418
33673W        W93209  14.299  40.933  12.862
33674W        W93210  22.690  16.179  13.416
33675W        W93211  41.964  13.670  13.001
33676W        W93212  20.736   3.796   3.336
33677W        W93213  44.332   1.842   2.380
33678W        W93214  29.118  26.038  12.873
33679W        W93215   8.656  14.299  14.804
33680W        W93216   7.698  29.976   0.405
33681W        W93217  21.182   4.701   0.834
33682W        W93218  33.485  17.633   4.746
33683W        W93219  42.487   4.820  12.549
33684W        W93220  10.798  13.112   0.397
33685W        W93221  14.610  24.707  13.013
33686W        W93222  42.893  19.092   0.873
33687W        W93223   0.293  21.665  14.453
33688W        W93224   0.312  21.730   3.368
33689W        W93225   3.837   1.441   1.240
33690W        W93226  22.999  34.117  10.944
33691W        W93227  15.311  42.441   1.821
33692W        W93228  12.772   7.268   1.363
33693W        W93229   9.770  41.888   1.905
33694W        W93230  18.615  44.998  14.778
33695W        W93231  12.141  39.489   3.179
33696W        W93232  27.448  30.023  10.997
33697W        W93233  20.671  20.258   1.804
33698W        W93234  14.601   4.856   3.174
33699W        W93235  30.044   6.713   4.193
33700W        W93236   2.789  34.954  12.421
33701W        W93237  37.025  11.803  13.537
33702W        W93238  28.463  41.359  12.355
33703W        W93239  33.124  32.462  12.397
33704W        W93240  33.400   3.925   2.752
33705W        W93241   3.775  35.470   3.278
33706W        W93242  19.616   5.821  10.477
33707W        W93243  27.192  21.202   4.290
33708W        W93244  13.791  15.736  12.519
33709W        W93245  23.606   9.657  12.420
33710W        W93246  19.051  15.134   3.273
33711W        W93247  21.035  40.546  13.969
33712W        W93248   3.802  13.116   0.292
33713W        W93249  32.530  34.067   0.245
33714W        W93250  25.990  44.349  13.860
33715W        W93251  25.220  18.270   1.354
33716W        W93252  42.494   2.405   4.196
33717W        W93253  12.196   4.821  10.460
33718W        W93254   7.905  38.970   0.939
33719W        W93255  30.612  11.776  11.513
33720W        W93256  13.813  41.805  14.943
33721W        W93257  11.834  41.382  10.576
33722W        W93258   5.281  27.454   4.626
33723W        W93259  40.842  41.842  11.557
33724W        W93260  38.932  34.506  13.328
33725W        W93261  15.798  13.670   2.711
33726W        W93262  16.170  37.940   3.745
33727W        W93263  28.480  26.578   0.763
33728W        W93264   3.901  44.398  14.931
33729W        W93265  35.491  12.184  12.914
33730W        W93266  23.503  40.493  13.806
33731W        W93267  15.114   8.789  11.384
33732W        W93268  29.479  12.199  13.895
33733W        W93269  30.577  22.039   2.389
33734W        W93270  23.662  41.415   1.396
33735W        W93271  20.153  27.097  10.433
33736W        W93272  25.682  25.965   0.938
33737W        W93273  34.029  33.039   1.869
33738W        W93274   5.242  27.550  14.336
33739W        W93275  23.515   1.791   0.769
33740W        W93276   1.349  14.223  12.826
33741W        W93277  43.790  32.429  13.987
33742W        W93278   6.923  13.638  14.473
33743W        W93279  26.093  22.596  12.022
33744W        W93280  41.424  44.892  10.458
33745W        W93281   1.818  34.920   3.208
33746W        W93282  29.066  15.250   3.192
33747W        W93283   1.950  40.358  13.849
33748W        W93284  37.444  38.851   3.325
33749W        W93285  14.107  14.196   1.848
33750W        W93286   0.478  31.422   3.808
33751W        W93287  28.155  30.539   2.760
33752W        W93288   3.729   8.404  13.540
33753W        W93289   3.329  12.664   1.269
33754W        W93290  24.116  39.504   0.751
33755W        W93291  26.960  22.718  13.963
33756W        W93292   3.327  24.061  11.411
33757W        W93293  22.103  24.694  11.062
33758W        W93294  31.138  10.848   3.352
33759W        W93295  25.020   9.861  13.819
33760W        W93296  16.779  33.611  10.512
33761W        W93297   8.678  43.469   0.372
33762W        W93298  20.564  14.735   4.117
33763W        W93299   7.176  12.799   0.798
33764W        W93300  41.814  12.121   3.163
33765W        W93301  16.319  30.958  11.455
33766W        W93302  18.770  24.560  14.967
33767W        W93303  11.723   9.657  11.929
33768W        W93304  27.543   7.171   3.780
33769W        W93305  26.653  27.586   2.368
33770W        W93306  38.490  23.237   2.261
33771W        W93307   2.237  12.247   2.180
33772W        W93308   7.883  29.645  14.933
33773W        W93309  13.741  18.114   1.767
33774W        W93310  23.710  38.874   4.276
33775W        W93311  25.509  33.966  10.422
33776W        W93312  42.464  29.647  10.559
33777W        W93313  38.922  24.226   2.334
33778W        W93314  24.719  42.427  10.595
33779W        W93315   5.890  33.096   0.924
33780W        W93316   3.919   1.344   3.810
33781W        W93317  26.633  34.868   0.437
33782W        W93318  43.985  10.695  12.962
33783W        W93319  13.624  18.638  13.524
33784W        W93320  36.933  40.389  11.972
33785W        W93321   4.876  15.704   2.252
33786W        W93322  36.550  36.554   1.297
33787W        W93323  23.660   0.494   3.772
33788W        W93324  42.952  19.760   2.374
33789W        W93325  44.846  16.129   0.418
33790W        W93326  43.791  13.146   1.235
33791W        W93327   0.783  17.161  13.328
33792W        W93328  39.856  35.555  13.320
33793W        W93329  35.428  17.107   2.318
33794W        W93330   1.268  22.512  13.480
33795W        W93331  39.392   5.197  13.039
33796W        W93332  34.935  39.942  14.461
33797W        W93333  34.555  29.501   0.804
33798W        W93334  20.628  32.399   3.386
33799W        W93335   5.207  19.053  14.770
33800W        W93336  43.495  25.144  11.866
33801W        W93337   9.160   7.193   1.857
33802W        W93338   5.779  15.292  10.414
33803W        W93339   7.262  20.147   4.728
33804W        W93340  26.498  15.272  12.507
33805W        W93341  42.365  41.315  14.495
33806W        W93342  20.183  41.918  10.504
33807W        W93343  28.467  35.422  11.457
33808W        W93344  38.053  15.319  13.510
33809W        W93345   3.816  15.703  12.571
33810W        W93346  21.742  41.524  12.438
33811W        W93347   1.281  13.702  12.536
33812W        W93348  28.607   7.357   2.706
33813W        W93349  20.115  44.358  12.574
33814W        W93350   2.850  18.290  12.048
33815W        W93351  30.939  27.472  14.814
33816W        W93352  39.920  19.157  12.465
33817W        W93353  39.514  15.646  10.639
33818W        W93354   9.870  27.175  12.012
33819W        W93355  33.982  11.754  12.870
33820W        W93356  35.876   9.650   3.766
33821W        W93357  17.275   1.412   2.719
33822W        W93358  10.317  17.635  11.087
33823W        W93359  28.648   8.669  11.375
33824W        W93360  23.131  24.016   2.825
33825W        W93361  12.342   0.860  10.535
33826W        W93362  18.708  24.115   3.725
33827W        W93363  27.625  35.482  11.513
33828W        W93364  42.846  14.801   4.190
33829W        W93365  16.101  23.626   0.794
33830W        W93366   4.930  19.244   4.819
33831W        W93367   2.876   6.745   4.745
33832W        W93368  15.243  27.084  12.372
33833W        W93369  13.765  39.496  11.517
33834W        W93370  34.940  34.959   3.292
33835W        W93371  33.926   3.335  13.811
33836W        W93372  31.029  13.650  14.512
33837W        W93373   3.902  24.169   4.337
33838W        W93374  30.993  15.655  12.424
33839W        W93375  20.105  27.548  13.533
33840W        W93376  17.178  42.289   1.215
33841W        W93377  28.491  12.776   2.724
33842W        W93378  20.654  25.973  11.528
33843W        W93379  38.906  32.052  11.581
33844W        W93380   1.745   0.763  14.867
33845W        W93381   1.268   2.278  14.835
33846W        W93382  11.735  18.616  14.277
33847W        W93383  17.673  36.935  13.470
33848W        W93384  18.148  40.457  13.525
33849W        W93385  38.004  39.531   4.137
33850W        W93386   9.154  20.204   4.811
33851W        W93387  17.208   5.852  10.600
33852W        W93388   6.880  32.433   2.286
33853W        W93389  36.877  13.196  14.376
33854W        W93390  42.428  22.069  10.529
33855W        W93391  13.170  28.644  14.909
33856W        W93392  26.546  43.810   1.812
33857W        W93393   3.256  42.454  11.405
33858W        W93394   7.876  37.384   1.726
33859W        W93395   3.851  19.589   0.956
33860W        W93396   4.319  37.503  10.998
33861W        W93397  25.186  18.259  11.559
33862W        W93398   5.863  24.987   1.437
33863W        W93399  39.022   0.306  11.603
33864W        W93400  28.593   5.875  14.355
33865W        W93401  29.115  22.188  14.886
33866W        W93402  42.960   2.954   4.262
33867W        W93403  37.471  27.656  13.432
33868W        W93404  26.670  40.050  10.493
33869W        W93405   3.291  35.917   2.397
33870W        W93406  42.892  25.513  10.523
33871W        W93407   4.356  29.968  12.461
33872W        W93408  18.568   0.781   0.268
33873W        W93409  44.836  32.440  12.043
33874W        W93410  16.147  38.506   3.354
33875W        W93411  12.219  44.837   3.273
33876W        W93412  15.694   5.269   1.773
33877W        W93413  44.759  14.155  14.483
33878W        W93414  23.661  32.555   3.845
33879W        W93415  23.101   2.833  14.301
33880W        W93416   4.770  35.005  12.855
33881W        W93417  28.154  11.269  12.981
33882W        W93418  39.927  15.633   3.749
33883W        W93419  14.229  34.529   0.268
33884W        W93420  23.719  31.074   1.702
33885W        W93421  25.600  31.598   0.274
33886W        W93422   7.721   6.338   3.241
33887W        W93423  28.008  15.093  13.012
33888W        W93424  38.851  26.668  11.961
33889W        W93425  19.084   8.243  10.986
33890W        W93426  33.001   0.829   1.851
33891W        W93427  25.653  26.696  14.919
33892W        W93428  22.550  12.347  13.516
33893W        W93429  29.479  17.590  14.000
33894W        W93430  31.473  44.259  10.957
33895W        W93431   7.210  43.445  10.512
33896W        W93432  19.201   5.364   0.964
33897W        W93433  29.636   8.190  10.579
33898W        W93434  31.967   2.459   0.345
33899W        W93435  14.628  33.387   1.806
33900W        W93436  21.126  31.134   3.374
33901W        W93437  14.143  35.030  11.860
33902W        W93438  26.989  29.642  14.900
33903W        W93439   8.818  23.162  12.360
33904W        W93440  30.983  43.336  13.441
33905W        W93441  10.214   1.331  13.065
33906W        W93442   0.964  14.725  12.520
33907W        W93443  19.682  29.571  12.571
33908W        W93444  13.121  29.955   4.241
33909W        W93445  24.134  32.057  14.887
33910W        W93446  32.497   1.974  14.886
33911W        W93447  25.628  42.406  14.385
33912W        W93448  38.937  31.069  10.458
33913W        W93449  29.056  42.853   4.837
33914W        W93450  25.040  22.563   1.738
33915W        W93451  39.503  35.405   0.441
33916W        W93452  11.207  21.236  11.019
33917W        W93453   1.435  11.711   9.574
33918W        W93454  22.008  11.806   0.881
33919W        W93455   6.199   6.844   3.832
33920W        W93456  37.012  44.320  11.097
33921W        W93457   9.851   5.401  13.349
33922W        W93458  10.379   1.250  14.909
33923W        W93459  18.603  44.810  13.407
33924W        W93460  41.028  44.917  12.422
33925W        W93461  32.068  17.062  12.065
33926W        W93462  18.609  24.061  14.949
33927W        W93463  14.134  43.905  12.005
33928W        W93464  44.462   2.232  14.882
33929W        W93465   3.324  40.391  14.373
33930W        W93466  14.766   6.769  14.840
33931W        W93467  12.131  32.453  10.610
33932W        W93468  44.957   8.393  10.107
33933W        W93469   0.834  16.285   0.806
33934W        W93470  36.453  35.526   4.266
33935W        W93471  38.835  20.670   3.805
33936W        W93472  18.674  33.100   0.282
33937W        W93473  42.367  23.153  11.429
33938W        W93474  18.121  13.708   4.185
33939W        W93475  12.265   9.236  14.304
33940W        W93476   4.822  12.244  11.969
33941W        W93477   6.336  41.316   4.171
33942W        W93478  42.887  22.181   1.894
33943W        W93479  36.903  42.968  14.003
33944W        W93480  13.748  29.615   0.361
33945W        W93481  10.289  33.522   0.287
33946W        W93482  21.651  20.158   3.267
33947W        W93483  33.986  26.601   2.235
33948W        W93484  30.991  43.953   1.330
33949W        W93485  26.121   7.695  12.978
33950W        W93486  29.114  43.324  10.907
33951W        W93487  34.905  23.573  14.409
33952W        W93488  23.026   7.901  13.912
33953W        W93489  11.282  27.053   3.777
33954W        W93490   2.918   0.928   1.861
33955W        W93491   0.415   8.251  10.898
33956W        W93492  26.989   0.782  12.980
33957W        W93493  38.882  14.289  14.841
33958W        W93494  27.496  26.460  13.381
33959W        W93495  39.458  16.299   3.750
33960W        W93496  41.469  24.625   1.871
33961W        W93497   2.293  37.532   9.936
33962W        W93498   9.358   5.861  11.103
33963W        W93499  37.076  16.660   2.670
33964W        W93500   8.783  39.937  13.477
33965W        W93501  27.947   3.893  10.589
33966W        W93502  10.179  42.379  10.551
33967W        W93503  31.597  17.718  14.895
33968W        W93504  12.306  28.033   1.305
33969W        W93505  22.074  40.509  10.572
33970W        W93506   6.894   5.786   0.282
33971W        W93507  44.274  18.554   1.334
33972W        W93508  41.835  23.713  11.006
33973W        W93509   0.877   1.415   3.164
33974W        W93510  41.455   6.849  11.096
33975W        W93511  16.809  24.052   2.680
33976W        W93512  20.240  28.611   0.438
33977W        W93513  11.240  30.622  14.850
33978W        W93514   6.327  26.569   2.667
33979W        W93515  38.378  28.048   4.805
33980W        W93516  40.889   5.899  12.035
33981W        W93517  22.031  41.344  11.889
33982W        W93518  25.067   8.773  14.503
33983W        W93519  17.244   8.234   1.720
33984W        W93520  27.653  37.932   0.774
33985W        W93521  23.547  29.969  12.892
33986W        W93522   0.883   3.906  11.925
33987W        W93523   9.310  30.071  14.819
33988W        W93524  25.196  30.925   0.727
33989W        W93525  11.685  23.241  12.920
33990W        W93526  31.091  19.590  11.100
33991W        W93527  25.544  31.530  13.798
33992W        W93528  42.323  20.160  13.324
33993W        W93529  18.212   0.873   3.643
33994W        W93530   5.283  17.686  12.470
33995W        W93531  13.348  25.652  12.552
33996W        W93532  26.057  31.635  13.960
33997W        W93533  35.601  41.992  14.424
33998W        W93534  18.138  11.795   2.699
33999W        W93535  15.685   7.379  12.500
34000W        W93536  28.020  22.155   0.749
34001W        W93537  38.413  34.881  11.501
34002W        W93538  41.357  38.357  14.860
34003W        W93539  43.805  34.496   4.747
34004W        W93540  13.242   3.435   4.283
34005W        W93541  20.043   3.918  13.821
34006W        W93542  17.130   4.801  13.021
34007W        W93543   9.838  20.633   1.405
34008W        W93544   6.249  28.516   3.233
34009W        W93545   3.437  44.760   2.346
34010W        W93546  26.048  26.578  14.449
34011W        W93547  22.172   7.798  13.008
34012W        W93548  40.499  13.216  12.386
34013W        W93549  16.093   1.819  12.964
34014W        W93550  30.613  38.511   0.776
34015W        W93551  18.198  43.512   3.147
34016W        W93552  36.472  23.133   4.780
34017W        W93553  16.147  25.624   3.196
34018W        W93554  29.563  19.687   3.815
34019W        W93555   7.835   0.444   2.662
34020W        W93556  12.696   4.339  14.486
34021W        W93557  12.707   6.233   3.816
34022W        W93558   1.427  25.544   3.714
34023W        W93559   4.808   1.410   0.920
34024W        W93560  39.960   1.463   4.172
34025W        W93561  17.634   6.805  13.023
34026W        W93562   4.716  13.643  12.927
34027W        W93563  24.565   4.896  14.286
34028W        W93564  12.299  30.607   4.724
34029W        W93565  11.301  28.005   3.843
34030W        W93566  17.640  16.722  10.940
34031W        W93567  36.089  43.827   5.085
34032W        W93568  21.134  25.508   2.389
34033W        W93569   7.801   1.431   4.728
34034W        W93570  37.019  15.100  11.962
34035W        W93571  27.599  31.600  13.328
34036W        W93572   3.454  41.447  13.365
34037W        W93573  26.186   2.356   4.835
34038W        W93574  41.970  11.160  11.068
34039W        W93575  32.575  19.211  10.498
34040W        W93576  27.512  20.193   0.775
34041W        W93577  31.528   2.361   0.935
34042W        W93578  22.632  25.193  13.829
34043W        W93579   6.305   8.796  10.966
34044W        W93580   3.279   9.188  14.001
34045W        W93581  29.094  26.973  14.500
34046W        W93582  10.710  29.943  12.004
34047W        W93583  13.791  35.394  10.972
34048W        W93584  10.816  21.233  10.578
34049W        W93585   7.363  25.501   1.345
34050W        W93586  32.410  34.540  12.847
34051W        W93587   3.877  19.656  13.968
34052W        W93588   8.230   9.391  10.034
34053W        W93589  44.909  33.929   0.816
34054W        W93590  16.692  28.678   2.271
34055W        W93591   4.227   7.272   0.779
34056W        W93592  29.560   9.674   0.362
34057W        W93593   8.718  14.810  12.087
34058W        W93594  43.405   0.780   1.861
34059W        W93595  42.484  13.816  14.935
34060W        W93596  27.615  40.987  12.048
34061W        W93597   9.178  18.126   3.852
34062W        W93598  40.389  16.758  12.008
34063W        W93599  41.465  41.379   2.279
34064W        W93600   3.748   0.353   1.745
34065W        W93601  26.555  36.020  11.411
34066W        W93602  12.843   1.834  13.974
34067W        W93603  43.985  39.982  13.990
34068W        W93604  38.425  28.964   0.764
34069W        W93605  44.391  12.207   3.359
34070W        W93606  20.751   1.367   1.346
34071W        W93607  25.200  20.165   3.205
34072W        W93608  17.079  40.015  14.920
34073W        W93609  27.975  38.963  14.904
34074W        W93610   4.241  20.041   4.132
34075W        W93611  38.365  25.060   0.318
34076W        W93612  26.190  32.593   4.125
34077W        W93613   3.298   2.362   1.238
34078W        W93614  31.093   9.328   4.836
34079W        W93615   8.391  42.503   3.330
34080W        W93616   3.893  26.973  12.858
34081W        W93617  19.142  16.659   0.949
34082W        W93618  23.644  37.841   1.739
34083W        W93619  14.259  18.553  10.103
34084W        W93620  25.136  16.292   9.991
34085W        W93621  36.556   4.908  10.489
34086W        W93622  32.392  17.190  11.930
34087W        W93623  37.441  42.481   3.174
34088W        W93624  36.955  14.110   0.860
34089W        W93625   1.280  28.965  14.845
34090W        W93626   0.773   3.306   4.665
34091W        W93627   6.825   3.366  12.090
34092W        W93628   3.794  34.426   3.291
34093W        W93629   0.746  12.224  13.049
34094W        W93630  12.663  26.091   5.685
34095W        W93631  24.047  23.510  12.043
34096W        W93632  21.660  39.533  12.845
34097W        W93633   2.350  14.602   0.956
34098W        W93634  29.468  18.595  10.071
34099W        W93635  25.181  24.203   1.861
34100W        W93636  14.174   0.969  14.367
34101W        W93637  41.385  44.972   1.706
34102W        W93638  15.276  11.844   4.315
34103W        W93639  43.389  26.503   4.221
34104W        W93640  31.951  22.128  11.595
34105W        W93641  42.790  26.595   1.724
34106W        W93642  30.040  37.432   5.082
34107W        W93643  24.191  11.204   1.733
34108W        W93644   8.183  42.416   3.711
34109W        W93645  27.687  22.746   4.620
34110W        W93646  36.895  42.501   1.861
34111W        W93647  22.636  22.070  11.437
34112W        W93648   7.805  40.852   3.190
34113W        W93649  43.505  32.596  10.532
34114W        W93650  10.824   7.898  13.537
34115W        W93651  37.377  19.593   1.843
34116W        W93652  31.594  23.139  11.982
34117W        W93653  28.007  15.808  14.504
34118W        W93654  42.291  15.132   4.121
34119W        W93655  35.863  41.929   4.665
34120W        W93656  32.104  35.884   3.727
34121W        W93657  27.573  34.928  14.903
34122W        W93658  26.139  32.940   3.737
34123W        W93659   8.182  42.513   2.414
34124W        W93660  39.897  23.195   1.284
34125W        W93661  15.620  23.234  10.035
34126W        W93662   1.922  18.658   3.364
34127W        W93663   3.832  15.658  10.008
34128W        W93664   5.320  37.441   4.744
34129W        W93665  13.738  36.553  11.922
34130W        W93666  20.702  13.270  12.565
34131W        W93667  40.479  27.446  12.931
34132W        W93668  25.637   2.375   2.736
34133W        W93669  39.924   8.201  11.900
34134W        W93670  12.811  34.032  14.852
34135W        W93671  35.399  34.538   4.637
34136W        W93672  34.580  30.536   4.123
34137W        W93673   0.932  23.523   2.200
34138W        W93674  22.538  29.021   0.889
34139W        W93675   9.773  32.571   1.261
34140W        W93676  34.449  33.437  13.842
34141W        W93677  43.474  24.110   4.133
34142W        W93678  35.031   5.242   1.863
34143W        W93679  35.441  40.908   0.939
34144W        W93680  15.584  10.358  11.051
34145W        W93681  43.927  18.078  12.904
34146W        W93682  34.389  15.148  12.497
34147W        W93683  39.907  29.483   4.338
34148W        W93684   7.860  25.549  13.502
34149W        W93685  28.457   4.432  12.002
34150W        W93686  41.037  36.098  11.439
34151W        W93687  18.713   4.253  10.426
34152W        W93688  41.851  37.526   1.741
34153W        W93689  35.088   4.713   5.235
34154W        W93690  35.055   8.777  11.107
34155W        W93691   8.668   9.833   0.917
34156W        W93692  20.592  39.379  12.344
34157W        W93693  18.208  44.825  13.916
34158W        W93694  14.731  38.385  11.514
34159W        W93695   3.241  28.054  14.399
34160W        W93696   2.768  26.039  11.387
34161W        W93697  34.100  44.302  13.866
34162W        W93698  40.479  10.370   2.292
34163W        W93699  35.052  17.632   4.794
34164W        W93700   9.684  42.462  14.411
34165W        W93701  41.380  32.096   3.195
34166W        W93702  17.063  30.488  14.330
34167W        W93703  42.861  35.528   4.789
34168W        W93704  38.394  43.782   0.890
34169W        W93705  28.517   2.357  12.916
34170W        W93706   4.224  11.707   4.339
34171W        W93707  24.546  10.866   1.712
34172W        W93708  40.020  25.158  14.904
34173W        W93709  14.128  39.552   1.428
34174W        W93710  35.999  17.253  10.559
34175W        W93711   5.353  40.435   2.409
34176W        W93712   2.844  30.118  13.855
34177W        W93713  40.507  44.989   9.946
34178W        W93714  11.267  31.980  11.101
34179W        W93715  17.785  10.640   2.868
34180W        W93716  29.589   2.945  13.058
34181W        W93717  14.737   7.232   1.750
34182W        W93718  17.797  12.274  11.862
34183W        W93719   9.240  10.687   1.211
34184W        W93720  18.147  25.553   3.688
34185W        W93721   8.687   0.896  12.425
34186W        W93722  22.673  23.547   0.889
34187W        W93723  43.289  24.998   1.229
34188W        W93724  24.608  27.102   0.823
34189W        W93725  15.739   9.732   0.919
34190W        W93726  16.747  32.942   4.315
34191W        W93727  25.637  18.603  11.574
34192W        W93728  29.115  10.847   2.836
34193W        W93729  35.865  20.557   1.347
34194W        W93730   7.783  15.247   2.356
34195W        W93731   9.162  33.056  12.864
34196W        W93732  39.055   8.224   3.368
34197W        W93733   8.706  41.909   3.634
34198W        W93734  15.244   7.896   2.311
34199W        W93735  23.085  11.858  11.930
34200W        W93736  33.583   2.358  14.477
34201W        W93737  13.215   4.927   3.772
34202W        W93738  30.432  30.935   1.267
34203W        W93739  38.383   0.856  11.934
34204W        W93740  35.444   3.264   1.929
34205W        W93741  43.276  17.233  14.432
34206W        W93742  27.466  29.984  13.847
34207W        W93743   3.936  39.955   4.120
34208W        W93744  32.058  22.608   2.745
34209W        W93745  27.147   2.285   3.686
34210W        W93746  43.013  41.355  14.905
34211W        W93747  15.732  22.074  10.519
34212W        W93748   6.902   3.944  11.535
34213W        W93749  31.905  27.118  12.514
34214W        W93750  10.340  27.682   5.160
34215W        W93751  37.445  20.271   4.738
34216W        W93752  20.231  23.120   4.799
34217W        W93753  38.960  22.178  13.388
34218W        W93754  21.099   9.714   2.727
34219W        W93755  26.027   4.273   0.482
34220W        W93756  33.467  30.078   0.892
34221W        W93757   2.769  26.996  13.359
34222W        W93758  40.989   7.784   2.211
34223W        W93759  26.046  11.283   0.871
34224W        W93760  36.966  13.171  11.538
34225W        W93761   3.248  12.224  12.540
34226W        W93762  12.258   4.357  14.944
34227W        W93763   0.963  14.128   1.764
34228W        W93764  28.096  14.733  11.468
34229W        W93765  41.798  37.348   9.920
34230W        W93766   3.215   5.337   0.914
34231W        W93767  37.891  35.943  11.086
34232W        W93768  29.125  27.997  11.484
34233W        W93769   9.226  19.559   9.984
34234W        W93770  29.458  43.997   2.249
34235W        W93771  33.420  42.944   2.685
34236W        W93772  43.999  29.541   1.417
34237W        W93773  40.973   0.359   2.735
34238W        W93774  38.942  44.879   3.651
34239W        W93775  16.738   2.430   0.279
34240W        W93776  22.603  18.291  11.453
34241W        W93777   9.792  32.137   2.753
34242W        W93778  37.978  22.178   4.147
34243W        W93779  23.650  20.267   0.839
34244W        W93780   8.720  22.673  10.949
34245W        W93781  34.075  15.735   4.700
34246W        W93782  24.131   7.666  13.468
34247W        W93783  21.191   6.298   4.780
34248W        W93784  39.841  11.181   2.720
34249W        W93785  19.212  12.653  12.397
34250W        W93786   0.847  16.769  13.793
34251W        W93787  24.655   5.692   0.475
34252W        W93788  12.257   1.965   0.298
34253W        W93789   1.391  30.604   1.717
34254W        W93790  37.086  10.191  12.877
34255W        W93791   6.743  19.095  11.966
34256W        W93792  28.494  43.792  10.504
34257W        W93793  10.703  37.516  14.461
34258W        W93794  39.488  29.002  10.625
34259W        W93795  19.616  23.557  14.947
34260W        W93796   4.395   1.391   0.842
34261W        W93797  25.987  19.219   3.251
34262W        W93798  43.973  18.724   2.768
34263W        W93799  22.685  11.309  11.484
34264W        W93800  20.261   6.357  14.467
34265W        W93801  23.145   1.739  14.449
34266W        W93802  38.372  22.577   2.200
34267W        W93803   7.877  33.484  10.466
34268W        W93804  13.265  19.056  14.291
34269W        W93805  10.863  28.070  13.509
34270W        W93806  27.157  18.286   3.181
34271W        W93807   8.847  18.205  14.959
34272W        W93808  21.530   7.380   3.375
34273W        W93809   7.705  19.138   2.244
34274W        W93810  42.352  32.894  12.431
34275W        W93811  19.214  38.387   2.300
34276W        W93812   1.473  32.938   4.173
34277W        W93813  15.656  43.361   2.714
34278W        W93814  35.568  14.321  14.842
34279W        W93815  28.140  30.414  14.346
34280W        W93816  13.765   5.406   2.832
34281W        W93817  21.205  16.111  12.377
34282W        W93818  34.107  21.542  14.896
34283W        W93819   7.745  17.107   4.216
34284W        W93820  33.894  29.922  10.505
34285W        W93821  25.162  17.160   1.765
34286W        W93822  35.980  40.416  14.898
34287W        W93823  31.497  36.385  11.439
34288W        W93824  25.063  37.893  11.936
34289W        W93825   7.705   2.311   3.236
34290W        W93826  30.600   0.306  12.018
34291W        W93827  37.833   2.347   1.889
34292W        W93828  34.400  38.378   2.382
34293W        W93829   6.247  33.118   2.362
34294W        W93830  42.914  20.717   0.888
34295W        W93831   7.174  11.743   2.674
34296W        W93832  25.598  26.172  11.087
34297W        W93833   9.337  43.846   2.400
34298W        W93834  13.729  11.789   2.895
34299W        W93835  34.406  38.365   3.159
34300W        W93836  14.301  33.099  10.554
34301W        W93837  24.160   6.822   1.281
34302W        W93838   7.172  19.543  13.373
34303W        W93839   5.336  34.505  11.086
34304W        W93840  11.350  27.088   3.262
34305W        W93841  41.302  20.059   4.619
34306W        W93842  22.598  15.327   3.173
34307W        W93843  41.478  41.412  12.361
34308W        W93844   6.300  15.787  11.510
34309W        W93845  24.504  32.489   1.398
34310W        W93846  44.952  31.104   3.666
34311W        W93847  33.416  43.922  11.569
34312W        W93848  26.642   0.302   0.832
34313W        W93849  35.046  14.603   0.889
34314W        W93850  37.920  15.115   1.798
34315W        W93851  34.097  21.562  12.839
34316W        W93852  35.047  21.204  12.392
34317W        W93853  11.193  27.989  11.559
34318W        W93854  10.732  17.302   3.368
34319W        W93855   9.853  29.516  14.392
34320W        W93856   5.379  15.667   2.773
34321W        W93857  25.974  17.110  13.830
34322W        W93858  18.256  31.418  13.470
34323W        W93859   3.951  35.091  12.915
34324W        W93860  17.237  44.770   2.886
34325W        W93861  20.090  30.512  11.894
34326W        W93862  42.488  20.593  12.941
34327W        W93863  17.249  21.096  13.336
34328W        W93864  14.635  36.012   2.229
34329W        W93865  32.557  18.251   0.358
34330W        W93866  21.629   5.265   9.577
34331W        W93867  42.360  19.754  10.412
34332W        W93868  28.600  24.517   3.351
34333W        W93869  31.484  24.482   4.801
34334W        W93870  37.892  36.915   1.924
34335W        W93871  29.076  18.662  11.497
34336W        W93872  22.063  40.838   0.449
34337W        W93873   2.829  10.179  14.972
34338W        W93874  19.716  31.949   3.857
34339W        W93875  17.713  17.254  10.583
34340W        W93876  31.529   4.369   0.966
34341W        W93877  37.581  40.487   0.933
34342W        W93878  10.821  12.306   2.393
34343W        W93879  30.102   1.786   1.743
34344W        W93880  40.384   4.207  11.010
34345W        W93881  26.978  42.775  12.480
34346W        W93882  16.698  10.363  10.603
34347W        W93883   8.323  40.444   3.300
34348W        W93884  28.607  36.026   1.815
34349W        W93885  36.453  39.490  11.961
34350W        W93886   9.696  22.564   1.818
34351W        W93887   5.906   6.287   2.350
34352W        W93888  28.139  28.656  11.549
34353W        W93889  38.529  11.759  12.399
34354W        W93890  15.665   6.197   4.284
34355W        W93891   8.673   6.424   3.315
34356W        W93892  19.142  21.533   0.371
34357W        W93893  44.465  37.447   2.818
34358W        W93894  39.513  16.186  14.910
34359W        W93895  28.661  28.033  11.050
34360W        W93896   8.752  20.253   3.687
34361W        W93897  27.516   1.366   3.182
34362W        W93898   5.797   9.307   0.792
34363W        W93899   3.319  31.024   1.924
34364W        W93900   8.664  28.503  12.966
34365W        W93901  29.474  19.646   2.419
34366W        W93902  18.080  42.373   4.601
34367W        W93903   3.771  32.528   4.642
34368W        W93904  31.631  23.609   9.968
34369W        W93905  13.113  39.459   4.265
34370W        W93906   5.323  34.982   1.245
34371W        W93907   9.650   0.430  12.020
34372W        W93908  39.314  41.508   3.701
34373W        W93909  35.081   3.933  10.952
34374W        W93910  24.055  19.580  12.832
34375W        W93911  27.009  30.991  13.007
34376W        W93912  38.958  38.571   4.230
34377W        W93913  33.480  39.041   5.245
34378W        W93914  11.287  35.382   0.872
34379W        W93915  40.488  35.433  11.484
34380W        W93916  25.001  25.533   2.265
34381W        W93917  10.361  29.455   4.254
34382W        W93918  20.105  29.661   4.290
34383W        W93919  22.174  40.890   0.752
34384W        W93920  34.000  38.507   3.836
34385W        W93921  36.388  20.112   2.215
34386W        W93922  43.951  23.092  11.487
34387W        W93923  31.015   6.746   0.948
34388W        W93924   9.217  17.790  13.388
34389W        W93925  19.700  39.030  10.565
34390W        W93926  19.101  26.613   4.152
34391W        W93927   1.443  36.916  14.783
34392W        W93928   0.437   0.836   2.180
34393W        W93929  43.391  22.023   4.727
34394W        W93930  20.589  25.683   3.351
34395W        W93931  30.476  39.936  14.864
34396W        W93932  36.980  18.082  13.881
34397W        W93933   2.816  22.565  13.016
34398W        W93934  43.954  27.570  12.021
34399W        W93935  10.817  10.264   2.296
34400W        W93936   4.427  31.495  11.868
34401W        W93937  41.322  28.146   0.946
34402W        W93938  31.429  38.934   3.784
34403W        W93939  34.524   7.209   4.740
34404W        W93940  36.369  11.329   2.393
34405W        W93941   0.909  19.106   1.331
34406W        W93942  31.907   6.248   2.259
34407W        W93943   2.949   9.233  13.987
34408W        W93944   9.169  32.574  11.568
34409W        W93945  10.678  29.625   9.964
34410W        W93946  43.910  41.855  13.875
34411W        W93947  42.412  32.101  11.945
34412W        W93948  35.540  14.753   1.734
34413W        W93949  26.534  20.684  12.081
34414W        W93950   3.732  32.009  14.283
34415W        W93951  15.128   3.277   3.688
34416W        W93952  43.823   5.753  12.423
34417W        W93953  14.589   7.727  10.476
34418W        W93954  11.701   5.417   4.621
34419W        W93955   1.438  10.172   2.364
34420W        W93956   7.906  44.777  12.953
34421W        W93957  27.057  34.463  12.422
34422W        W93958  18.210  30.582   1.844
34423W        W93959  14.756  36.400  11.915
34424W        W93960  16.110   3.262   2.794
34425W        W93961  13.611  44.950   3.380
34426W        W93962  36.563  13.236  13.853
34427W        W93963   6.246  34.929  12.021
34428W        W93964  25.963   0.962  13.408
34429W        W93965   0.795  17.133  10.086
34430W        W93966   7.851   7.232  11.375
34431W        W93967  26.598  37.460  14.332
34432W        W93968  43.936  38.480   0.446
34433W        W93969  28.546  16.600   9.581
34434W        W93970   4.254  36.486  14.760
34435W        W93971  24.222  22.060  14.822
34436W        W93972  40.544  38.345  10.924
34437W        W93973  33.079  14.139  12.006
34438W        W93974   3.749  18.588   4.323
34439W        W93975   5.723  37.060   2.373
34440W        W93976   9.276  33.400   3.242
34441W        W93977   7.210  28.466  11.111
34442W        W93978  37.420  41.516  14.922
34443W        W93979   5.404   1.444   4.769
34444W        W93980  27.574  44.437  13.048
34445W        W93981  26.460  13.127   5.228
34446W        W93982  22.087  40.517   3.765
34447W        W93983  31.093  38.842   2.690
34448W        W93984  26.159  14.307   3.793
34449W        W93985  25.069  15.090  10.621
34450W        W93986   1.887  27.504   5.703
34451W        W93987  24.709   8.774   0.354
34452W        W93988  17.149  17.753  13.481
34453W        W93989   9.386  15.110   1.318
34454W        W93990  36.074  19.570   1.328
34455W        W93991  41.316   8.867   3.338
34456W        W93992  43.816   5.735   2.873
34457W        W93993  30.640   6.748   1.252
34458W        W93994  30.016   2.902  14.883
34459W        W93995  25.584  14.167  13.918
34460W        W93996   0.749  29.084  12.438
34461W        W93997  19.074  29.108   1.898
34462W        W93998  19.181   9.290   3.858
34463W        W93999  31.508  37.904  10.516
34464W        W94000   9.719  21.185   4.783
34465W        W94001  29.975  26.125  14.478
34466W        W94002  11.161  22.740   3.153
34467W        W94003  33.502  35.560   4.349
34468W        W94004  31.641  22.047   1.719
34469W        W94005  25.992   0.375  12.343
34470W        W94006  36.056   7.791   2.297
34471W        W94007   3.740  13.205  13.546
34472W        W94008  37.436  18.702  14.294
34473W        W94009  35.375  32.925   2.754
34474W        W94010  36.416  34.597   3.684
34475W        W94011  14.625  10.174   0.314
34476W        W94012   0.371  22.519   3.209
34477W        W94013  41.442  19.554  11.516
34478W        W94014  27.465  19.694  13.853
34479W        W94015   5.934   0.374   1.762
34480W        W94016  13.279  36.886   1.837
34481W        W94017  22.559  27.680  10.907
34482W        W94018  30.566  13.292  14.450
34483W        W94019  19.274   0.408   2.299
34484W        W94020  18.278  27.945  13.945
34485W        W94021  16.260  36.941  12.416
34486W        W94022  20.732  21.086  10.589
34487W        W94023  15.641  36.080  11.612
34488W        W94024  12.300   8.313  11.979
34489W        W94025   0.915  35.444   4.261
34490W        W94026  38.379   4.440  12.876
34491W        W94027  27.645   1.272  14.296
34492W        W94028  35.542  37.456  11.124
34493W        W94029   1.932  27.992  10.953
34494W        W94030  23.572  18.595  14.301
34495W        W94031   1.450   7.240  10.990
34496W        W94032  24.692  14.309  11.557
34497W        W94033  14.790  33.078   1.835
34498W        W94034  20.591   4.716  13.420
34499W        W94035   3.269  39.983   0.887
34500W        W94036  44.987   6.817  13.424
34501W        W94037  41.885  21.141   4.211
34502W        W94038  38.522  23.020  13.539
34503W        W94039  44.769  44.865  11.000
34504W        W94040   3.450  36.354   2.883
34505W        W94041  32.137  20.578  11.055
34506W        W94042  30.609   9.211   1.249
34507W        W94043  37.456   9.793  13.441
34508W        W94044  24.548  23.567  12.079
34509W        W94045  28.029   9.315  11.904
34510W        W94046  37.044  17.235  12.976
34511W        W94047   5.917  41.025  13.975
34512W        W94048  35.909  16.657  11.385
34513W        W94049  16.773  17.659   2.411
34514W        W94050   1.459  37.504   0.814
34515W        W94051  31.648  17.063   3.238
34516W        W94052  44.930  11.218  13.987
34517W        W94053  42.340   1.333   2.181
34518W        W94054  29.429  41.439   9.938
34519W        W94055  35.100  32.118  10.958
34520W        W94056  20.152   4.281  14.000
34521W        W94057  39.481  37.553   0.326
34522W        W94058  21.073  24.672  14.425
34523W        W94059  24.028  41.918   2.691
34524W        W94060   1.774  17.734  14.500
34525W        W94061  26.602  38.915   2.804
34526W        W94062  21.224   4.723  14.958
34527W        W94063  13.122  38.860   5.177
34528W        W94064  12.209  38.383  10.993
34529W        W94065  20.688  15.585   2.697
34530W        W94066  40.425  21.535  14.502
34531W        W94067  11.675  41.932  11.021
34532W        W94068  26.545  17.288  14.022
34533W        W94069  30.574  15.327   0.338
34534W        W94070  34.553  11.366   1.755
34535W        W94071  41.035  28.985  11.109
34536W        W94072  38.502  31.980  11.424
34537W        W94073  29.433  32.458  14.303
34538W        W94074  27.115  40.307  13.474
34539W        W94075  34.570  11.788  13.008
34540W        W94076  27.522   3.718   3.666
34541W        W94077  27.580  38.511  14.939
34542W        W94078   1.256  39.368   0.955
34543W        W94079   0.466  21.084   2.318
34544W        W94080  24.673  44.901  11.962
34545W        W94081  12.140  22.204   0.418
34546W        W94082  23.209   1.282   1.437
34547W        W94083  16.138  24.987   5.275
34548W        W94084  33.998  42.494   0.366
34549W        W94085  21.042  25.201  14.415
34550W        W94086  16.655  43.838   4.299
34551W        W94087   1.759   2.883   2.201
34552W        W94088  38.926  41.376  11.100
34553W        W94089  29.580   6.413   4.712
34554W        W94090  33.026  42.384   3.756
34555W        W94091  23.727  29.096   3.250
34556W        W94092  25.710  41.956  13.444
34557W        W94093  22.679  19.699   2.690
34558W        W94094  11.659   2.228  10.614
34559W        W94095  42.955  26.018   3.858
34560W        W94096  32.040   6.856  13.522
34561W        W94097  42.315  11.804  12.394
34562W        W94098  39.437  26.174   1.291
34563W        W94099  41.008   9.305   1.277
34564W        W94100  33.090   1.251   0.334
34565W        W94101  14.764  17.269   1.741
34566W        W94102  36.423  40.391  13.533
34567W        W94103  10.777  12.160  12.511
34568W        W94104  25.648  14.613   3.657
34569W        W94105  36.365  23.687  10.643
34570W        W94106  30.523  12.207   4.302
34571W        W94107  15.649  14.737   2.204
34572W        W94108  39.012   6.738   0.419
34573W        W94109  11.774  44.488  10.608
34574W        W94110  44.940  19.707   3.698
34575W        W94111  39.851  27.689  14.332
34576W        W94112  28.552  21.536   4.624
34577W        W94113  40.383  42.289   2.884
34578W        W94114  35.053  23.086   4.758
34579W        W94115  14.112  33.962   3.771
34580W        W94116  41.477  43.944   2.302
34581W        W94117   5.402   2.305   0.885
34582W        W94118  21.719  42.920  14.482
34583W        W94119  40.906  18.616  13.838
34584W        W94120  23.099  25.626   3.665
34585W        W94121  31.028  23.715  14.974
34586W        W94122  22.044   0.374   3.724
34587W        W94123  22.734  43.019  13.345
34588W        W94124   8.860  36.015  14.953
34589W        W94125  39.991  11.243  11.521
34590W        W94126  22.169   9.708  13.794
34591W        W94127  11.738  38.533   0.950
34592W        W94128  34.610  35.082  13.330
34593W        W94129   8.704  33.569  12.419
34594W        W94130  20.052  30.087  14.335
34595W        W94131  38.054  41.866  12.946
34596W        W94132  27.107  28.680  12.340
34597W        W94133  38.372  24.057   0.954
34598W        W94134  15.196  22.571   0.777
34599W        W94135  42.403  25.081   3.161
34600W        W94136  42.358  15.283  11.902
34601W        W94137  21.055  18.757   1.861
34602W        W94138  15.693  16.569  14.918
34603W        W94139   6.685  37.997   0.378
34604W        W94140  18.297  22.216   1.247
34605W        W94141  20.199  39.063   0.850
34606W        W94142  10.695  40.998   3.332
34607W        W94143   8.762  12.692  12.476
34608W        W94144   4.413  21.706  13.037
34609W        W94145  35.592   1.381   1.806
34610W        W94146   2.368  15.264   3.319
34611W        W94147   0.414  42.915  11.886
34612W        W94148  28.533   7.737  10.548
34613W        W94149  21.594   4.738   2.385
34614W        W94150  11.346  10.689  11.950
34615W        W94151  32.561   9.798   0.956
34616W        W94152  23.614   8.878   3.230
34617W        W94153  42.440  40.309  14.910
34618W        W94154  19.769   6.292  14.480
34619W        W94155  23.194  27.610   3.831
34620W        W94156  23.987   4.846   0.465
34621W        W94157   9.856  17.764  14.892
34622W        W94158  29.997  23.680  11.124
34623W        W94159  16.115  10.679  11.501
34624W        W94160  26.149  21.095   1.352
34625W        W94161   7.393  40.304  14.323
34626W        W94162  29.091  17.239   3.260
34627W        W94163   4.814  28.583   0.762
34628W        W94164  44.264  28.052   3.752
34629W        W94165  11.823  40.338   2.748
34630W        W94166  42.315  36.542  10.903
34631W        W94167  36.454  27.680   1.427
34632W        W94168  15.755  31.567  12.031
34633W        W94169  39.821  38.831   1.794
34634W        W94170  39.416   6.261  14.847
34635W        W94171  41.871  15.096   4.727
34636W        W94172   3.785   2.339   2.283
34637W        W94173  39.885  42.952  14.785
34638W        W94174   5.731  38.499   0.938
34639W        W94175  29.002  13.601   1.883
34640W        W94176  32.417  42.917  10.495
34641W        W94177  19.708  14.775   3.702
34642W        W94178  17.109  42.790  12.024
34643W        W94179  19.724   9.657  12.932
34644W        W94180  14.161   1.379  13.018
34645W        W94181   8.212  33.478  11.501
34646W        W94182  40.445  30.140  12.461
34647W        W94183  28.459  38.976  10.941
34648W        W94184  28.049   4.923   4.199
34649W        W94185  19.635  34.549   3.255
34650W        W94186  25.062  39.821  14.314
34651W        W94187  24.080  21.676  10.956
34652W        W94188  17.630  12.755  14.285
34653W        W94189  13.804  42.814   4.283
34654W        W94190  26.164   2.444   1.880
34655W        W94191  40.871  24.557   3.777
34656W        W94192   7.265  28.098   0.858
34657W        W94193  39.970  13.645  11.055
34658W        W94194   1.396  36.459   3.261
34659W        W94195  19.196  19.662   2.191
34660W        W94196  26.459   7.241   1.888
34661W        W94197  36.913  28.491  13.514
34662W        W94198   6.263  27.172  12.018
34663W        W94199  29.595  12.156   3.786
34664W        W94200  38.395  38.344   4.259
34665W        W94201  30.993  31.480  14.312
34666W        W94202  39.363  10.835  14.781
34667W        W94203  20.274   5.920  13.427
34668W        W94204   6.201  32.001  10.996
34669W        W94205  34.427   2.399  11.373
34670W        W94206  24.169  33.449   0.892
34671W        W94207  43.794  25.552   1.300
34672W        W94208  21.200  29.538   2.808
34673W        W94209  38.454  23.997   2.786
34674W        W94210  21.236  13.741   4.741
34675W        W94211  20.109  28.131  10.513
34676W        W94212   3.945  30.625   5.202
34677W        W94213  15.598   3.383   3.745
34678W        W94214  34.065  27.179   3.161
34679W        W94215  11.217   5.428  11.105
34680W        W94216  32.937   5.798   0.466
34681W        W94217  13.175  29.434  12.044
34682W        W94218  15.218  37.025   4.765
34683W        W94219  36.515   3.251  11.950
34684W        W94220  33.516   3.855  12.992
34685W        W94221  25.983   7.842   2.182
34686W        W94222  32.591   0.259  14.000
34687W        W94223   9.871  18.084   4.817
34688W        W94224  16.226   7.196  13.545
34689W        W94225   1.278  30.533   2.706
34690W        W94226   5.708   1.340   4.282
34691W        W94227  13.689  10.190   3.649
34692W        W94228   6.697  31.537  14.907
34693W        W94229  37.021  32.485  12.062
34694W        W94230  29.509  33.004  13.390
34695W        W94231  25.039  43.301  12.906
34696W        W94232  10.199  24.207   5.115
34697W        W94233  26.101  26.182   0.338
34698W        W94234  27.018   2.318  10.560
34699W        W94235  12.126  38.039   4.771
34700W        W94236  15.803  18.589  12.028
34701W        W94237  38.340   7.714  12.836
34702W        W94238  36.511  19.742   0.368
34703W        W94239  44.004  23.507  13.509
34704W        W94240   2.295  27.527  14.819
34705W        W94241  44.855  38.896   4.180
34706W        W94242  29.584  41.363  12.447
34707W        W94243  44.339   7.750   1.397
34708W        W94244  33.040   5.335  13.995
34709W        W94245  12.853  22.738  14.871
34710W        W94246  20.665  18.166   0.337
34711W        W94247  12.126   5.743   3.658
34712W        W94248   8.802  17.108   4.216
34713W        W94249  31.086  24.635  11.020
34714W        W94250  20.187  27.599  12.426
34715W        W94251  43.452  24.669  14.782
34716W        W94252  13.339  34.948   3.754
34717W        W94253  19.121   1.931   4.221
34718W        W94254  25.068   4.297  12.371
34719W        W94255  27.166   7.310  12.995
34720W        W94256   5.770  30.584   3.757
34721W        W94257  11.225  18.105  11.067
34722W        W94258   7.271  22.528  13.334
34723W        W94259  39.970  29.022  14.289
34724W        W94260   3.261  42.980  12.463
34725W        W94261   1.896   5.822  11.934
34726W        W94262   5.777  39.029   4.780
34727W        W94263  26.985   3.900   3.203
34728W        W94264  40.968  36.978   0.954
34729W        W94265  40.910  31.993  12.869
34730W        W94266  31.001  23.596  13.049
34731W        W94267  25.643  17.113  14.846
34732W        W94268  15.607  37.882  11.564
34733W        W94269  34.420  44.769   1.755
34734W        W94270  24.602  16.637   5.238
34735W        W94271  38.061  41.352  13.038
34736W        W94272  43.354  36.533   0.835
34737W        W94273  34.472  34.086   3.827
34738W        W94274  12.692  40.913  12.825
34739W        W94275   0.972   3.355   1.825
34740W        W94276  15.182  34.595   2.686
34741W        W94277   1.467   5.216  13.846
34742W        W94278  31.115   0.315   1.902
34743W        W94279  30.586  14.829  10.507
34744W        W94280  29.135  23.525  12.374
34745W        W94281  16.776  41.906  11.055
34746W        W94282  15.776   8.665   1.696
34747W        W94283  36.485  27.556   2.203
34748W        W94284   4.214  37.867  12.920
34749W        W94285   7.714  32.019   5.123
34750W        W94286  13.291  11.661   1.305
34751W        W94287  19.232   4.848  12.346
34752W        W94288   4.388  10.228  10.598
34753W        W94289  37.401  10.832  14.831
34754W        W94290  24.125   2.337   2.298
34755W        W94291  39.847  42.406  11.118
34756W        W94292  44.812  18.074  10.560
34757W        W94293  28.125  41.894   3.634
34758W        W94294  11.302  33.433  10.481
34759W        W94295   4.371  31.969  14.285
34760W        W94296  12.654   0.758   0.826
34761W        W94297   2.925  40.040   4.677
34762W        W94298   9.309  22.147  14.883
34763W        W94299   2.752  10.210  11.093
34764W        W94300  23.561  37.393  11.977
34765W        W94301  20.543  38.375  11.091
34766W        W94302  25.100  39.053   0.946
34767W        W94303  27.630  30.147   3.346
34768W        W94304  37.389  29.506  10.628
34769W        W94305  40.927  35.474  14.465
34770W        W94306  22.072   2.939   3.678
34771W        W94307  28.647  30.559  13.443
34772W        W94308  33.104  15.579   4.827
34773W        W94309   4.923  13.139  10.454
34774W        W94310   3.374  17.294  12.067
34775W        W94311  20.066  19.184   1.434
34776W        W94312  40.841  10.254  12.956
34777W        W94313  21.094  23.134  14.374
34778W        W94314  29.140   2.227   4.187
34779W        W94315  18.778   9.218   4.656
34780W        W94316  29.555   2.280   2.803
34781W        W94317  31.542   5.842   4.791
34782W        W94318  26.135  42.418  14.928
34783W        W94319  38.444  15.812  11.945
34784W        W94320   4.741  17.230   4.817
34785W        W94321  44.443  21.528  12.088
34786W        W94322   3.876  30.072   2.412
34787W        W94323  39.938  25.219   2.253
34788W        W94324   4.699   9.308   3.251
34789W        W94325  13.644   4.243   2.318
34790W        W94326  15.155   2.240   2.682
34791W        W94327  13.799  19.175   3.376
34792W        W94328  20.171  23.147  10.502
34793W        W94329  17.075  24.174  13.531
34794W        W94330  44.764   2.454  13.981
34795W        W94331   5.371  44.794  12.028
34796W        W94332  38.915   6.757  11.592
34797W        W94333  39.320   4.702   3.380
34798W        W94334  34.881  21.168   4.672
34799W        W94335   5.790  43.473  13.814
34800W        W94336  12.819  43.351   1.860
34801W        W94337   6.895  19.691   4.812
34802W        W94338  38.840  25.203   0.923
34803W        W94339  22.166  17.286   4.757
34804W        W94340  16.570   7.776   1.782
34805W        W94341  27.461   4.352   3.249
34806W        W94342  31.582  16.213  12.903
34807W        W94343   9.845  38.339  10.434
34808W        W94344  20.239   1.452   4.128
34809W        W94345  31.463   1.899  10.578
34810W        W94346  19.242   6.813   1.257
34811W        W94347  11.784   0.811   2.275
34812W        W94348   3.896  41.874   3.244
34813W        W94349  14.338  16.187   4.309
34814W        W94350  24.230   1.349   0.884
34815W        W94351   9.274  36.097   3.719
34816W        W94352   8.714  39.913   3.830
34817W        W94353  16.092  17.289   1.788
34818W        W94354  13.727  29.566   0.789
34819W        W94355  23.120  42.969   3.840
34820W        W94356  19.640  19.264  12.355
34821W        W94357  39.511   1.465  13.010
34822W        W94358  22.228  18.132   5.195
34823W        W94359  30.645   3.390  10.976
34824W        W94360  12.231  39.064   4.727
34825W        W94361   0.744   7.403   4.753
34826W        W94362  17.114   8.268  12.850
34827W        W94363  36.516  30.654   3.825
34828W        W94364  14.659  16.785  14.482
34829W        W94365  44.879   0.765  11.508
34830W        W94366  38.970   3.829   3.259
34831W        W94367  38.916   3.885  13.042
34832W        W94368  11.294  42.406  13.909
34833W        W94369  32.547  25.973  10.626
34834W        W94370   3.257   3.333  11.931
34835W        W94371  22.588  34.969  12.355
34836W        W94372  42.410  30.998   4.729
34837W        W94373  37.344  18.136   1.317
34838W        W94374  27.594   7.885  13.428
34839W        W94375  11.705  40.428  14.915
34840W        W94376  19.647   4.331  10.430
34841W        W94377  19.125  30.529   1.875
34842W        W94378  16.812  34.015  12.075
34843W        W94379  35.993  33.421   0.734
34844W        W94380  18.089  11.135  12.523
34845W        W94381   4.261   8.769  13.333
34846W        W94382  20.554  21.753   2.848
34847W        W94383   4.305  36.422   1.824
34848W        W94384   7.878  11.729  13.406
34849W        W94385  31.484  20.208   1.833
34850W        W94386  24.133  42.863   2.387
34851W        W94387  21.556   7.674  11.936
34852W        W94388  31.611  28.109   0.311
34853W        W94389  22.650  10.680   1.856
34854W        W94390  41.024  37.372  14.382
34855W        W94391  28.542  24.002   4.772
34856W        W94392  33.429  34.015   1.921
34857W        W94393   3.711   9.856   2.396
34858W        W94394   5.922  23.227  13.533
34859W        W94395  10.720  13.203  10.491
34860W        W94396   1.931  23.718  10.453
34861W        W94397  40.313   9.744   2.843
34862W        W94398  30.161   6.297  10.588
34863W        W94399   4.412   1.470  11.396
34864W        W94400  23.601   0.490   3.203
34865W        W94401  38.544  26.046   1.723
34866W        W94402   9.746  34.102  13.397
34867W        W94403  31.530  11.177  11.925
34868W        W94404  35.364  42.795   1.817
34869W        W94405  29.114  28.460   2.182
34870W        W94406   3.781  40.042  11.880
34871W        W94407  14.296   5.291   4.300
34872W        W94408  32.105  24.668  11.460
34873W        W94409   3.917   9.326   1.335
34874W        W94410  11.332   5.809  13.029
34875W        W94411  14.105  19.559   2.180
34876W        W94412  33.548  41.434   0.248
34877W        W94413   4.223  10.670  10.927
34878W        W94414  31.646   0.864  11.443
34879W        W94415   2.292  15.803   3.233
34880W        W94416  44.892   5.782   3.311
34881W        W94417  31.096  32.417   3.820
34882W        W94418   1.437   9.663   4.258
34883W        W94419  29.549  34.118   4.346
34884W        W94420   5.775   7.742  14.870
34885W        W94421   4.736  32.473   0.777
34886W        W94422  15.138  36.392  12.402
34887W        W94423  22.133  12.664  10.485
34888W        W94424  44.778  13.657  13.848
34889W        W94425   3.779   7.274  14.459
34890W        W94426   5.396  28.081  10.623
34891W        W94427  14.208  17.151  13.476
34892W        W94428  31.622  34.890   4.170
34893W        W94429  20.684  33.610  12.380
34894W        W94430  23.990   0.311  10.064
34895W        W94431  17.661  43.365  12.518
34896W        W94432  31.938  19.711  10.595
34897W        W94433   9.799  12.310  12.942
34898W        W94434  31.485  31.460   0.437
34899W        W94435  19.186  41.428   2.693
34900W        W94436  18.117  29.151   1.298
34901W        W94437   8.299  21.723   4.682
34902W        W94438   5.388  33.531   0.468
34903W        W94439  43.494  44.352  10.414
34904W        W94440  10.675  39.329  12.963
34905W        W94441  11.627  36.504  11.123
34906W        W94442  24.088  24.996  14.854
34907W        W94443  27.971  19.174   3.761
34908W        W94444  43.019  13.319  13.417
34909W        W94445  37.903  10.246  11.435
34910W        W94446   9.247  14.784  11.083
34911W        W94447  31.630  28.640  12.825
34912W        W94448  38.384  24.187   1.794
34913W        W94449  39.474  38.907  10.949
34914W        W94450  15.112  22.517  11.914
34915W        W94451  31.978  11.652   3.717
34916W        W94452  19.621  44.363   0.333
34917W        W94453   1.366   1.382  11.109
34918W        W94454  24.027  21.077  11.506
34919W        W94455  17.600  43.987  10.425
34920W        W94456  28.481  11.645   2.748
34921W        W94457  35.048  19.680   4.805
34922W        W94458  28.585  25.502   5.791
34923W        W94459  26.953  38.934   1.421
34924W        W94460  37.386  25.182   4.796
34925W        W94461  17.123   5.289   4.233
34926W        W94462  22.511  41.799  11.416
34927W        W94463  15.284  28.675  10.515
34928W        W94464  39.978  28.093  10.429
34929W        W94465  17.134   2.826  11.012
34930W        W94466  16.291   9.306  14.857
34931W        W94467  12.210   5.808  11.605
34932W        W94468  12.730  13.318  14.376
34933W        W94469  43.766  16.627   4.721
34934W        W94470  20.105  30.034   3.179
34935W        W94471  18.082  15.771   0.946
34936W        W94472  12.145  36.488  13.512
34937W        W94473  35.586  43.365   1.321
34938W        W94474  30.465  34.455   1.373
34939W        W94475  35.983  31.060   0.428
34940W        W94476  37.876  18.594   4.660
34941W        W94477   8.168  12.766   2.740
34942W        W94478  38.918   1.937  12.380
34943W        W94479  15.797   3.287  10.504
34944W        W94480  14.155  27.098   1.888
34945W        W94481  38.463  28.592  10.460
34946W        W94482  44.482  15.181  14.511
34947W        W94483   5.780  19.199  10.897
34948W        W94484  27.481  41.903  11.046
34949W        W94485  28.175  14.768  11.958
34950W        W94486   2.900   2.349   0.460
34951W        W94487  23.682  32.963  13.799
34952W        W94488  11.732   8.901  10.551
34953W        W94489   0.748   3.780   4.724
34954W        W94490  17.783  20.671  13.841
34955W        W94491   6.760  42.501  11.937
34956W        W94492  34.438  12.247  11.580
34957W        W94493  21.151  13.300  10.950
34958W        W94494  28.599  11.246   4.159
34959W        W94495  13.744  10.821  14.883
34960W        W94496  44.397  30.630  11.097
34961W        W94497  20.192  14.765  13.050
34962W        W94498  24.652  23.004   9.551
34963W        W94499  43.007  10.825   3.243
34964W        W94500  18.053   9.714   3.702
34965W        W94501   0.894  19.195   0.870
34966W        W94502  16.229  38.036  14.322
34967W        W94503  42.997  18.666  10.900
34968W        W94504  31.978  34.520  10.094
34969W        W94505  41.946  29.578  13.996
34970W        W94506   5.839   0.883   4.617
34971W        W94507  12.823  21.611  11.497
34972W        W94508   2.332  10.805   1.737
34973W        W94509  13.669  35.033   2.691
34974W        W94510  42.492  10.701   4.820
34975W        W94511  19.543  22.142  11.534
34976W        W94512  32.488  24.987   0.922
34977W        W94513  31.635   8.802   4.761
34978W        W94514   3.733   7.749  14.826
34979W        W94515  10.177  12.727  14.991
34980W        W94516  19.066   3.428  12.922
34981W        W94517   6.824  25.065  13.987
34982W        W94518  33.558  28.665  14.030
34983W        W94519  23.179  13.628   2.830
34984W        W94520  14.639  25.571  14.400
34985W        W94521  41.910  29.517  12.478
34986W        W94522   0.769  39.926  11.046
34987W        W94523  20.148  24.220   4.210
34988W        W94524   1.361   2.915   2.193
34989W        W94525  39.913   0.447   0.326
34990W        W94526  35.477   3.295  13.886
34991W        W94527   9.697  14.106  10.642
34992W        W94528  11.642  25.620  12.085
34993W        W94529   0.881  29.488  11.863
34994W        W94530   6.235  12.619   0.405
34995W        W94531   3.935  28.623   0.462
34996W        W94532  40.825  13.824   5.244
34997W        W94533  24.592  41.305   0.796
34998W        W94534  10.867  27.679  14.501
34999W        W94535   0.886  34.109  13.833
35000W        W94536   3.867  44.983   1.319
35001W        W94537  22.510   3.297   2.891
35002W        W94538  11.729  28.478   4.193
35003W        W94539   0.777  21.200  13.413
35004W        W94540  23.573  31.491  11.051
35005W        W94541  24.680  21.243   3.747
35006W        W94542   5.900  32.005   2.684
35007W        W94543   1.421   9.790   1.715
35008W        W94544  32.101  14.613  13.842
35009W        W94545  28.470  28.489   0.940
35010W        W94546  12.700   5.822  13.390
35011W        W94547  28.656  39.441  12.450
35012W        W94548  44.391  16.148  12.431
35013W        W94549   6.218  26.497   1.793
35014W        W94550   5.355  34.037  12.824
35015W        W94551  17.656  18.117   5.622
35016W        W94552  42.897  15.322   3.674
35017W        W94553   0.945   2.261   0.259
35018W        W94554  43.470  10.293   1.741
35019W        W94555   1.282  25.033   0.416
35020W        W94556  21.736   1.386  13.418
35021W        W94557  22.069  10.676  11.516
35022W        W94558  29.575  28.511   9.937
35023W        W94559  38.424  28.013   2.799
35024W        W94560  39.920  42.378   3.231
35025W        W94561   5.782  22.718   1.263
35026W        W94562  42.297   3.829   2.712
35027W        W94563   6.916  33.028  12.445
35028W        W94564   3.873  33.039   0.418
35029W        W94565  17.772  32.516   3.716
35030W        W94566  18.279   0.348   2.744
35031W        W94567  10.231   7.695   0.324
35032W        W94568  31.037   2.325   1.894
35033W        W94569  20.200  11.675   1.768
35034W        W94570   0.813  34.908  13.889
35035W        W94571  43.272  19.543   2.291
35036W        W94572  19.120  27.170   0.399
35037W        W94573   0.396  28.084  11.540
35038W        W94574  29.496  28.648   0.424
35039W        W94575  23.120  36.495   1.814
35040W        W94576  11.302  43.773  13.409
35041W        W94577   2.419  10.836   3.150
35042W        W94578  25.989  15.150  12.340
35043W        W94579  33.441  40.838   3.653
35044W        W94580   9.695  17.198  12.412
35045W        W94581  26.648  30.042   4.174
35046W        W94582  31.447  17.703   0.780
35047W        W94583  16.247   3.264   5.153
35048W        W94584  29.960  44.306  11.863
35049W        W94585  29.126  16.587   2.704
35050W        W94586  20.158  21.559   0.461
35051W        W94587  22.179   1.394   0.374
35052W        W94588   2.276  38.868  11.386
35053W        W94589  19.187  18.727   0.731
35054W        W94590  22.026  27.641   3.377
35055W        W94591  18.557  24.616  12.087
35056W        W94592   9.245  33.123   1.756
35057W        W94593   6.213  19.666   3.820
35058W        W94594  16.231   0.872  12.944
35059W        W94595  27.198  35.441   4.646
35060W        W94596  36.437  28.042   4.655
35061W        W94597  39.424  33.397  10.544
35062W        W94598  36.062  30.126   3.692
35063W        W94599  33.909  38.562  10.913
35064W        W94600  25.200  44.341   2.745
35065W        W94601  43.928  38.036  13.521
35066W        W94602  32.106  24.541   9.624
35067W        W94603  32.999   9.299   2.391
35068W        W94604  27.677  23.568   3.156
35069W        W94605  26.686  41.999   1.339
35070W        W94606  10.194  40.904   0.957
35071W        W94607  16.786   2.929   3.690
35072W        W94608  25.076   0.429   1.403
35073W        W94609  10.873  30.493   2.198
35074W        W94610   0.482  41.455   1.377
35075W        W94611  44.344   3.359   4.656
35076W        W94612  24.129  13.628   4.652
35077W        W94613  10.719  28.114  14.986
35078W        W94614  44.835  18.185   0.403
35079W        W94615  44.918  20.059   4.152
35080W        W94616  21.073  33.900  14.910
35081W        W94617  30.145   8.290   4.826
35082W        W94618   2.264  14.296   0.832
35083W        W94619  30.473  15.653   2.806
35084W        W94620  18.109  37.034   4.336
35085W        W94621  33.088  24.597  12.496
35086W        W94622  35.085   6.371   5.159
35087W        W94623  35.058  20.583  11.415
35088W        W94624   4.701   3.334  14.947
35089W        W94625  22.166  10.211   0.906
35090W        W94626   0.261  25.558  12.956
35091W        W94627  21.236  31.450   1.727
35092W        W94628   5.359  21.660   2.261
35093W        W94629  31.926   9.874   1.391
35094W        W94630  19.084  40.045  11.948
35095W        W94631  25.090  17.775  13.918
35096W        W94632   3.263  26.660   1.294
35097W        W94633  11.368  17.281  12.452
35098W        W94634  37.051  34.434  13.957
35099W        W94635  15.137   6.761  14.803
35100W        W94636  38.908  36.406  10.571
35101W        W94637  30.153  43.016   3.325
35102W        W94638  41.356  29.649   2.368
35103W        W94639  20.254   5.400  12.940
35104W        W94640  11.856  11.742  11.100
35105W        W94641  35.372  13.683  14.993
35106W        W94642  34.501  14.113  12.392
35107W        W94643  44.501  27.189  12.844
35108W        W94644  38.465   8.764  13.307
35109W        W94645  23.027  39.321   4.837
35110W        W94646  16.245  37.344  11.083
35111W        W94647   7.315  35.462  13.033
35112W        W94648   5.390  25.041  12.021
35113W        W94649  26.080  17.288  10.633
35114W        W94650   6.187  42.942  13.857
35115W        W94651   3.893  16.767  10.439
35116W        W94652  22.519   3.829  10.541
35117W        W94653   7.411   0.457   2.367
35118W        W94654   6.311  16.615   3.681
35119W        W94655  19.147  17.082  12.505
35120W        W94656   3.843  16.168  12.893
35121W        W94657  19.276  35.025  12.412
35122W        W94658  16.682  39.449  11.374
35123W        W94659  25.072  20.707   2.339
35124W        W94660  22.695   2.939   1.315
35125W        W94661  15.722   1.922  12.475
35126W        W94662  20.554  15.294   4.253
35127W        W94663  34.513  25.559   0.936
35128W        W94664  13.293   0.283  14.868
35129W        W94665  12.793   1.805  14.344
35130W        W94666   3.889   7.898  10.474
35131W        W94667  25.963  28.048   4.238
35132W        W94668  27.643  31.416   0.435
35133W        W94669  22.583  32.613   4.232
35134W        W94670  20.028  37.006  12.956
35135W        W94671  33.120  11.192   2.241
35136W        W94672  39.847  11.349  12.848
35137W        W94673  24.701  13.203   1.378
35138W        W94674  39.475  14.835  10.483
35139W        W94675  14.312  40.994  14.938
35140W        W94676  25.699  43.505  11.555
35141W        W94677  19.538  16.261  11.908
35142W        W94678  29.093   6.855   3.292
35143W        W94679  40.438  17.239   1.334
35144W        W94680   7.200  39.833  12.974
35145W        W94681  32.553  16.742  13.005
35146W        W94682  18.118  10.828   2.179
35147W        W94683  31.441   5.376  14.288
35148W        W94684  32.508  11.669   2.735
35149W        W94685  25.524  12.285  12.069
35150W        W94686  18.059  11.360   4.834
35151W        W94687  26.557  33.002  14.348
35152W        W94688  18.608   3.791  10.595
35153W        W94689  19.543  17.273   2.301
35154W        W94690  15.683  36.049  14.904
35155W        W94691   1.417  24.099   2.805
35156W        W94692  43.966  29.627   2.901
35157W        W94693  18.133  32.577   1.791
35158W        W94694  17.701   8.266   3.823
35159W        W94695  13.199  30.505  12.530
35160W        W94696   3.840   4.779   4.756
35161W        W94697   2.294  34.975  12.041
35162W        W94698  18.781  31.077   3.779
35163W        W94699   6.679  27.057   2.262
35164W        W94700  23.629  42.934  12.914
35165W        W94701  17.176   6.802   0.929
35166W        W94702   9.159  16.307  10.560
35167W        W94703   7.892  17.273   9.929
35168W        W94704  19.278  31.993   5.189
35169W        W94705  37.372  15.660   4.256
35170W        W94706  43.348   8.249  13.889
35171W        W94707  18.066   8.290  11.125
35172W        W94708  33.534  21.519  14.436
35173W        W94709   5.327   2.453   0.465
35174W        W94710  36.469  30.937   3.257
35175W        W94711  18.580  11.657   0.764
35176W        W94712   7.372  30.992  13.039
35177W        W94713  31.043  34.542  13.333
35178W        W94714  43.943  36.517  11.436
35179W        W94715  38.999  42.996  12.902
35180W        W94716  11.715  40.444  11.901
35181W        W94717  40.954  19.719  12.889
35182W        W94718   9.228  12.125   4.711
35183W        W94719  24.481  21.717   0.478
35184W        W94720  44.753  14.671   3.162
35185W        W94721  29.000  20.728   3.678
35186W        W94722  24.024  17.127   9.951
35187W        W94723  29.611  25.028  13.794
35188W        W94724   4.770  29.926   2.760
35189W        W94725  40.368   6.682   2.698
35190W        W94726  33.130   8.278  11.081
35191W        W94727  21.191  37.581  10.582
35192W        W94728  13.301  22.129   1.779
35193W        W94729  31.904  13.636  13.906
35194W        W94730   4.290  36.467  13.358
35195W        W94731  25.983   6.234  10.574
35196W        W94732   6.421   5.194  11.453
35197W        W94733  15.154  17.761  11.910
35198W        W94734  31.500  26.093   0.943
35199W        W94735  33.983   2.418  14.899
35200W        W94736   9.879  22.194  13.481
35201W        W94737  36.003  30.124  12.002
35202W        W94738   6.263  16.114  11.881
35203W        W94739  13.148  28.144   1.908
35204W        W94740  10.656   3.755   0.302
35205W        W94741  21.551  20.147  10.446
35206W        W94742  16.741  35.884  14.772
35207W        W94743  41.345  29.936   3.319
35208W        W94744  41.844  42.973   3.202
35209W        W94745   5.855   9.182  12.903
35210W        W94746  14.113   9.191  11.514
35211W        W94747  44.941  26.513  13.423
35212W        W94748  14.803  30.529   2.378
35213W        W94749  44.482  17.620   4.116
35214W        W94750  19.135  11.781  14.892
35215W        W94751  26.011   5.206  14.012
35216W        W94752   7.710  24.667   3.363
35217W        W94753  37.064  43.013   2.683
35218W        W94754  31.612  28.516  11.015
35219W        W94755   0.355   7.821  10.619
35220W        W94756  32.494  44.385   0.381
35221W        W94757  40.011  20.586   1.377
35222W        W94758  17.205  33.589  12.954
35223W        W94759  38.509  26.675   2.786
35224W        W94760  13.679  37.474   4.215
35225W        W94761  23.026  22.141   0.861
35226W        W94762  40.867  41.974  12.448
35227W        W94763   4.794  20.550  10.974
35228W        W94764  27.053  30.967  14.367
35229W        W94765   9.385  14.815  12.066
35230W        W94766  31.076  44.372  13.940
35231W        W94767  17.718  27.657   3.251
35232W        W94768  40.404  19.713  13.991
35233W        W94769  36.932   6.336  14.383
35234W        W94770  21.208  28.661   2.367
35235W        W94771  41.938  13.819  12.407
35236W        W94772  33.620  40.887  12.363
35237W        W94773  25.012  32.006  14.452
35238W        W94774  28.439   1.392   1.448
35239W        W94775  40.926  26.496  12.364
35240W        W94776  22.079  20.696   2.711
35241W        W94777  44.437   0.346  10.959
35242W        W94778  10.860  23.164  13.049
35243W        W94779  20.655   4.732   4.725
35244W        W94780  17.212  34.050   2.361
35245W        W94781   5.925   4.230  11.516
35246W        W94782  10.277  38.331   2.256
35247W        W94783  26.681   8.812   0.389
35248W        W94784  14.722  29.093   4.342
35249W        W94785  13.813  15.261   1.843
35250W        W94786  10.231   9.697  12.567
35251W        W94787  44.796  20.029  11.552
35252W        W94788   9.728  29.535   4.344
35253W        W94789   8.352  32.939   0.756
35254W        W94790  36.593  14.826   2.280
35255W        W94791  33.994  41.939   1.933
35256W        W94792  26.114  25.490   0.959
35257W        W94793  40.047   8.369  12.861
35258W        W94794  36.012   1.782   1.876
35259W        W94795  33.512  20.657   0.794
35260W        W94796  40.983  18.123   3.749
35261W        W94797  38.431   6.257   3.363
35262W        W94798   5.762  37.545   3.228
35263W        W94799  11.659  12.153  11.924
35264W        W94800  21.567  14.311   2.334
35265W        W94801  23.545  38.477   0.465
35266W        W94802  39.501  36.083  11.543
35267W        W94803  19.714  20.588  14.458
35268W        W94804  32.587   9.291  14.957
35269W        W94805   4.883  35.912   4.699
35270W        W94806  40.350  44.339  12.046
35271W        W94807  39.550  39.315  13.791
35272W        W94808  16.317  16.072  11.052
35273W        W94809   3.216  44.404   3.779
35274W        W94810   9.671  22.046   0.429
35275W        W94811  11.128  15.695   0.298
35276W        W94812  25.162  22.216   1.870
35277W        W94813   2.329  41.356   3.228
35278W        W94814   8.314  33.514   0.759
35279W        W94815  10.144   2.406   9.936
35280W        W94816  16.633   7.211   1.728
35281W        W94817  37.459  33.486  13.963
35282W        W94818  38.529  21.703   0.301
35283W        W94819  17.260  16.642  14.515
35284W        W94820  19.208  37.907  11.027
35285W        W94821   8.329  32.939   2.738
35286W        W94822   0.988  12.349  13.465
35287W        W94823  34.870  18.077  11.509
35288W        W94824  31.964  14.713  10.557
35289W        W94825   7.179   4.863  13.988
35290W        W94826  32.630   0.783   2.402
35291W        W94827  24.555  35.044  11.101
35292W        W94828   4.414  25.166   4.281
35293W        W94829  24.145  11.291  14.956
35294W        W94830  36.941  43.899   5.087
35295W        W94831   1.363  18.276   0.914
35296W        W94832   3.314  35.533   0.367
35297W        W94833  21.699  10.189   4.736
35298W        W94834   1.953  23.736  13.951
35299W        W94835  24.674   5.382  11.106
35300W        W94836  42.424   5.808  14.515
35301W        W94837  41.310  43.483   3.338
35302W        W94838  28.065  22.252  14.836
35303W        W94839  30.021  33.893   0.416
35304W        W94840   3.820  13.776  14.490
35305W        W94841  28.184   0.789   2.319
35306W        W94842   7.877  44.329   5.175
35307W        W94843   7.276  10.223  13.882
35308W        W94844  14.797  19.693  11.016
35309W        W94845  13.182   8.346  12.393
35310W        W94846   9.258   3.283  13.489
35311W        W94847  13.246  36.510  11.440
35312W        W94848   8.249   2.805   2.211
35313W        W94849  21.633  39.511   2.342
35314W        W94850  16.273  16.182   1.407
35315W        W94851  28.618  27.142   3.254
35316W        W94852  18.167  22.998  11.037
35317W        W94853   9.153  37.517   1.907
35318W        W94854   7.208  12.196  11.610
35319W        W94855  35.493  23.615   1.327
35320W        W94856   8.322  21.635   2.273
35321W        W94857  22.742  14.690  13.373
35322W        W94858   0.838  41.316   0.255
35323W        W94859   0.825  20.238   4.269
35324W        W94860  29.028  27.566   4.690
35325W        W94861  11.244  12.136   4.806
35326W        W94862   0.385   7.221   3.655
35327W        W94863  25.061  25.000   3.768
35328W        W94864  13.632  37.438  13.491
35329W        W94865   9.273   7.776   9.493
35330W        W94866  25.689  33.042  14.327
35331W        W94867  40.519  16.648   2.352
35332W        W94868  27.028   6.687   1.218
35333W        W94869  10.745  25.539  13.396
35334W        W94870  20.638  31.980   0.908
35335W        W94871  19.631  35.104   4.617
35336W        W94872  27.000  31.152   4.767
35337W        W94873   2.431  12.840   3.325
35338W        W94874  25.668   9.777   4.144
35339W        W94875  41.994  23.037  13.902
35340W        W94876   6.678   7.812   0.844
35341W        W94877  24.500  23.140   0.411
35342W        W94878  38.032  20.187   3.656
35343W        W94879  32.439   8.759  11.920
35344W        W94880   0.803  19.761   4.829
35345W        W94881  10.659  16.567  10.572
35346W        W94882  20.170   1.297  10.912
35347W        W94883  12.360  27.994  12.033
35348W        W94884  22.225   4.205  12.035
35349W        W94885  25.103  43.913   1.343
35350W        W94886  32.912  13.149   0.358
35351W        W94887  18.708  18.064   0.317
35352W        W94888   2.766  21.207   4.723
35353W        W94889  33.020  37.998  10.421
35354W        W94890  19.591  29.527   5.304
35355W        W94891  15.115  42.995  11.610
35356W        W94892  15.635  10.375  12.437
35357W        W94893   2.742  33.063   1.279
35358W        W94894  43.810  42.294  11.582
35359W        W94895  18.214   6.865  11.452
35360W        W94896  37.368  32.038   0.909
35361W        W94897  35.106  39.369  13.956
35362W        W94898   3.294  31.595  11.064
35363W        W94899  20.180   4.841   1.433
35364W        W94900  27.041  16.214  13.311
35365W        W94901  25.974  40.947   2.709
35366W        W94902  26.659   7.303   3.808
35367W        W94903   8.326   9.220   5.707
35368W        W94904  33.049  41.333   0.831
35369W        W94905  26.514  31.966   1.702
35370W        W94906   4.262  20.046   2.700
35371W        W94907  28.170  26.657   1.362
35372W        W94908  39.820  17.741   1.732
35373W        W94909   6.807   6.314  14.515
35374W        W94910   1.796  21.234  11.975
35375W        W94911  14.323  14.635   3.648
35376W        W94912   5.830  11.855   3.861
35377W        W94913  38.074  44.420   2.293
35378W        W94914  14.726  36.067  11.864
35379W        W94915  28.654  24.503  12.441
35380W        W94916  15.127   2.823   2.823
35381W        W94917  39.339  20.191   1.419
35382W        W94918   2.757  44.328   1.251
35383W        W94919  31.548   9.278  11.527
35384W        W94920  43.768  12.669  14.430
35385W        W94921  34.468  13.330   3.364
35386W        W94922   3.794  15.296  12.557
35387W        W94923  41.025   5.311   4.762
35388W        W94924  16.793  41.426   0.818
35389W        W94925  17.789  31.421   3.206
35390W        W94926  39.508  35.853  13.343
35391W        W94927   9.691  42.879   3.207
35392W        W94928  20.590  34.040   5.280
35393W        W94929  36.898  27.613  14.333
35394W        W94930  24.128  44.870  10.940
35395W        W94931   5.724  10.358  14.810
35396W        W94932  26.963  17.133   1.352
35397W        W94933  10.824  13.760  10.569
35398W        W94934  30.006  23.643   4.258
35399W        W94935  36.898  27.108  11.856
35400W        W94936  10.793   0.881  12.839
35401W        W94937  34.055  26.479   1.419
35402W        W94938  39.353   1.797  12.574
35403W        W94939  22.158   8.786   2.670
35404W        W94940  31.976  20.260  11.880
35405W        W94941   1.433  36.000   0.265
35406W        W94942  39.897  28.466  12.356
35407W        W94943  26.126   2.814   3.324
35408W        W94944  25.014  40.475   0.740
35409W        W94945   3.852   6.825   4.191
35410W        W94946  39.490  23.053  13.016
35411W        W94947  35.499  43.506   0.930
35412W        W94948  18.736  10.875  13.934
35413W        W94949  30.145  38.916   1.734
35414W        W94950  15.813  16.751  10.603
35415W        W94951   0.982   5.269   3.352
35416W        W94952   5.868  44.274  12.837
35417W        W94953  40.799  14.655  12.834
35418W        W94954   3.334   3.425  10.074
35419W        W94955  27.571  32.051   5.085
35420W        W94956   7.197  36.087   3.855
35421W        W94957  44.396  29.008   1.778
35422W        W94958  40.904  12.217   2.280
35423W        W94959  23.638  23.550  13.388
35424W        W94960  32.504  12.255  13.799
35425W        W94961   2.438  20.634  13.502
35426W        W94962  17.588  23.051   0.273
35427W        W94963   6.766  25.117  14.326
35428W        W94964  21.104   1.354  13.966
35429W        W94965  10.141  13.690   4.803
35430W        W94966  26.479   3.272   3.369
35431W        W94967  32.030  38.995   4.310
35432W        W94968  16.239  26.495   0.954
35433W        W94969  28.991  34.112  12.934
35434W        W94970  24.703  12.695   0.358
35435W        W94971  24.560   5.360  11.382
35436W        W94972  15.689  40.471  14.011
35437W        W94973  31.035  23.641  12.052
35438W        W94974  25.630  24.027   2.352
35439W        W94975  16.724  30.527  12.883
35440W        W94976  17.229  21.633   3.334
35441W        W94977  36.469   9.226  11.550
35442W        W94978  33.516  23.656   0.796
35443W        W94979  24.054  32.636  11.606
35444W        W94980   9.880  19.247   2.227
35445W        W94981   0.938  40.466  14.813
35446W        W94982  24.978  38.047   3.318
35447W        W94983  33.128  18.751   2.741
35448W        W94984   2.748  43.380   0.861
35449W        W94985  33.472  35.870   3.671
35450W        W94986  27.951  44.342   3.273
35451W        W94987  17.126  21.550  10.436
35452W        W94988   3.929  30.917   0.392
35453W        W94989   5.227  16.267   2.670
35454W        W94990  10.699   9.778  14.833
35455W        W94991  11.292  18.080   4.726
35456W        W94992  23.047   8.309  12.360
35457W        W94993  35.867  38.566  12.354
35458W        W94994  25.685  22.641  14.822
35459W        W94995  20.596  26.139  13.511
35460W        W94996  34.565  29.069   1.925
35461W        W94997  27.942  38.046  11.597
35462W        W94998  37.453   3.285   3.298
35463W        W94999  35.555  40.799   1.845
35464W        W95000  10.700  15.591   4.728
35465W        W95001  37.914   1.283  11.035
35466W        W95002  27.462  36.580  14.001
35467W        W95003  10.192  14.337  11.861
35468W        W95004  33.429  33.573   4.819
35469W        W95005  26.094  23.700   3.798
35470W        W95006   4.322   3.250  14.419
35471W        W95007  42.429  22.723   4.142
35472W        W95008  29.528  12.177   1.216
35473W        W95009  42.286  33.522  13.545
35474W        W95010   0.884   5.426   4.784
35475W        W95011  43.312  32.935  10.422
35476W        W95012  38.985  12.186  11.085
35477W        W95013   3.389  25.971  11.495
35478W        W95014   1.961  27.561   2.735
35479W        W95015  43.818  40.043   3.651
35480W        W95016  12.242  40.467   4.300
35481W        W95017  12.337   7.326   0.894
35482W        W95018   0.776  10.264  14.481
35483W        W95019  37.972  43.298   0.453
35484W        W95020  18.085  42.327   3.704
35485W        W95021  32.104  31.098   0.795
35486W        W95022  27.174  35.926   2.897
35487W        W95023   4.265  41.478   4.254
35488W        W95024   6.820  43.974  12.487
35489W        W95025   4.442  41.001  13.428
35490W        W95026  21.213  28.482   2.886
35491W        W95027  14.218  40.548   0.856
35492W        W95028  11.150  37.442  10.512
35493W        W95029   4.857   6.731   2.239
35494W        W95030  24.161  42.032   2.270
35495W        W95031   5.874  16.753   2.250
35496W        W95032  18.732   8.816   1.800
35497W        W95033   1.377   2.814   0.363
35498W        W95034   8.686  20.568  13.051
35499W        W95035   1.279  43.846   0.334
35500W        W95036  18.586   7.392   0.467
35501W        W95037   0.799   2.230   2.316
35502W        W95038  12.759   8.289   0.380
35503W        W95039  32.600  26.533  11.913
35504W        W95040  10.698  30.439  12.345
35505W        W95041  36.511  26.108  11.076
35506W        W95042   1.772  36.406  10.950
35507W        W95043  13.245   0.282  13.053
35508W        W95044  40.009  19.609  10.501
35509W        W95045  34.373  31.899  13.863
35510W        W95046  43.448  23.609   3.867
35511W        W95047   7.242   0.951  11.468
35512W        W95048  43.869   1.819   3.807
35513W        W95049   0.927  36.999   1.880
35514W        W95050  20.641  37.543  13.392
35515W        W95051  43.500  43.278  10.532
35516W        W95052  25.170  33.893   3.728
35517W        W95053  44.882  14.676  13.512
35518W        W95054  40.015  25.187  11.115
35519W        W95055   5.338  41.378  14.779
35520W        W95056   2.790   4.770   4.662
35521W        W95057   6.314   9.725  12.840
35522W        W95058   4.923  34.035   0.475
35523W        W95059  25.551  40.977  12.906
35524W        W95060   3.943  12.655   2.892
35525W        W95061  26.179   6.209  13.518
35526W        W95062  30.024  34.505   1.406
35527W        W95063   7.316  28.128   3.377
35528W        W95064  41.999  11.325  14.401
35529W        W95065   0.421  37.499   3.661
35530W        W95066  26.538  44.852   4.634
35531W        W95067  17.669  25.158  12.976
35532W        W95068   0.903  21.514   0.330
35533W        W95069  42.417  37.951  14.845
35534W        W95070  19.697  32.945  11.567
35535W        W95071  24.703  28.499   2.694
35536W        W95072  22.190  32.971  12.978
35537W        W95073  30.939  20.162  12.523
35538W        W95074  15.311  12.759  14.466
35539W        W95075   5.853   8.396   2.274
35540W        W95076  31.038   6.716   4.149
35541W        W95077  10.314  15.310   0.376
35542W        W95078  23.072  14.112   2.687
35543W        W95079  19.092   2.251  14.307
35544W        W95080  42.446  20.180   2.811
35545W        W95081  17.601   2.226  12.067
35546W        W95082  13.823  40.025  14.449
35547W        W95083  11.148  16.640   0.261
35548W        W95084  41.937   6.814   1.831
35549W        W95085   0.843  31.491  13.318
35550W        W95086  29.566  22.680   3.382
35551W        W95087  33.563  42.880   3.265
35552W        W95088  13.647  31.139   3.645
35553W        W95089  40.033  21.050  11.886
35554W        W95090  41.915  33.050  11.492
35555W        W95091  30.126  28.064   4.263
35556W        W95092  38.550   9.161  14.301
35557W        W95093  25.181  16.793  12.932
35558W        W95094   1.264  41.346  11.976
35559W        W95095  22.086   8.287  13.479
35560W        W95096  41.351  25.634   1.917
35561W        W95097  25.529  25.683  11.388
35562W        W95098  36.526  10.283   0.829
35563W        W95099  21.670  35.541   4.688
35564W        W95100  18.243   3.832  11.882
35565W        W95101  12.213  18.138   0.930
35566W        W95102  37.474  13.663  14.930
35567W        W95103  39.040  36.860   0.451
35568W        W95104  24.017  28.625  12.997
35569W        W95105  18.192  27.662  14.377
35570W        W95106  36.391   6.392  11.869
35571W        W95107  17.671  34.065   2.716
35572W        W95108  15.660   1.750   4.311
35573W        W95109   8.257   8.709  11.542
35574W        W95110  41.458  35.905   2.316
35575W        W95111   9.149  40.397   3.691
35576W        W95112  26.686   3.441  10.441
35577W        W95113  27.122  39.026   3.787
35578W        W95114   9.389  41.522  14.457
35579W        W95115  28.620  23.719  14.310
35580W        W95116  23.996  10.198   3.266
35581W        W95117  27.158  35.491  14.502
35582W        W95118  37.022  30.907  14.385
35583W        W95119  20.093  40.426  10.452
35584W        W95120  18.715  29.462  11.602
35585W        W95121   6.910  34.495  11.571
35586W        W95122  32.541  11.274  12.940
35587W        W95123  19.723  35.599  12.554
35588W        W95124  18.257  17.265  12.839
35589W        W95125  10.139   4.934  13.526
35590W        W95126  10.282  16.789  14.915
35591W        W95127  40.048  23.054  13.985
35592W        W95128  39.475  44.822   1.215
35593W        W95129  33.920  23.217  13.327
35594W        W95130  22.602  11.206   2.290
35595W        W95131  22.173  15.137   4.126
35596W        W95132  31.541  17.687   1.763
35597W        W95133  37.401  38.981   1.252
35598W        W95134  20.600  17.083   1.388
35599W        W95135   5.856  19.139   3.284
35600W        W95136  10.291  22.012  11.104
35601W        W95137  32.058  21.609   3.299
35602W        W95138  34.528  22.620   3.263
35603W        W95139  37.993  20.720  12.492
35604W        W95140  11.283   1.318   1.773
35605W        W95141  20.258  16.683   0.887
35606W        W95142  29.570  33.553  14.391
35607W        W95143   6.753  31.594   1.932
35608W        W95144  27.981  15.208   0.399
35609W        W95145   8.754  38.398   4.269
35610W        W95146  35.950  14.116   3.374
35611W        W95147  43.916  23.041  13.054
35612W        W95148   1.933  33.875   0.436
35613W        W95149   6.415  27.657  13.818
35614W        W95150  23.134  43.874   1.300
35615W        W95151  35.944   8.405  10.550
35616W        W95152   0.342  37.956   0.868
35617W        W95153  27.590  11.306   2.313
35618W        W95154   5.245  24.985   0.337
35619W        W95155   1.334  36.510   0.409
35620W        W95156   8.369  15.300  14.275
35621W        W95157  15.767   0.788  10.482
35622W        W95158  12.290  20.749  12.435
35623W        W95159  24.481   5.257   1.698
35624W        W95160  18.631  30.537   3.326
35625W        W95161   2.885  36.480  12.044
35626W        W95162  14.780   7.864  11.874
35627W        W95163   5.411   9.364  11.392
35628W        W95164  23.640   4.298   2.248
35629W        W95165  39.864  43.821  11.875
35630W        W95166  10.766   0.909  13.847
35631W        W95167  21.163  41.400   4.173
35632W        W95168  29.521  36.478   3.241
35633W        W95169  41.396  28.122  14.358
35634W        W95170  39.814   7.384  10.622
35635W        W95171  32.459  11.354   0.465
35636W        W95172  34.426  23.640  11.583
35637W        W95173  12.663  13.649   1.224
35638W        W95174   3.815  16.139  13.966
35639W        W95175  17.061  30.065  14.447
35640W        W95176  30.023  39.461   3.386
35641W        W95177   6.260  31.456  14.914
35642W        W95178   0.400  25.004  13.940
35643W        W95179  36.957  33.077  11.890
35644W        W95180  20.124   3.332   4.629
35645W        W95181  33.523  43.012   2.268
35646W        W95182  17.743   6.321  12.028
35647W        W95183  36.364   8.205   1.367
35648W        W95184  11.805  10.381   1.869
35649W        W95185   4.391  30.448   0.798
35650W        W95186  22.686  15.688  10.990
35651W        W95187  27.990   5.735  13.879
35652W        W95188  15.757  38.402   9.958
35653W        W95189   1.439   0.324  13.016
35654W        W95190  25.018  15.701   0.481
35655W        W95191  19.630  22.512  14.353
35656W        W95192   4.406  38.824  12.824
35657W        W95193  35.390  31.907   4.324
35658W        W95194   0.328  37.383  10.991
35659W        W95195  26.637   8.874   4.717
35660W        W95196   9.866  29.051  13.345
35661W        W95197  24.040  14.682  10.474
35662W        W95198  20.175  23.194   4.172
35663W        W95199  16.190  31.138   0.431
35664W        W95200  18.207  43.967   2.848
35665W        W95201  18.674  43.382  11.056
35666W        W95202  15.580  30.426  13.825
35667W        W95203  41.882  32.053   2.253
35668W        W95204  12.731  40.013   3.208
35669W        W95205   5.727   0.370   4.144
35670W        W95206   6.877  16.183   4.167
35671W        W95207  22.744  10.707   2.352
35672W        W95208  17.160   4.273   4.255
35673W        W95209  34.985  14.630  11.079
35674W        W95210  21.739   4.356   3.645
35675W        W95211  36.096  28.678   2.808
35676W        W95212  31.046  36.393   2.661
35677W        W95213  32.551  14.257   3.776
35678W        W95214   6.868   1.806  12.529
35679W        W95215  27.649  38.041   4.293
35680W        W95216  28.493  30.020  12.511
35681W        W95217  32.536   2.875   2.334
35682W        W95218  30.040  38.072   0.348
35683W        W95219  11.706  13.335  14.847
35684W        W95220  14.702  17.286   3.308
35685W        W95221  28.091  35.036   0.254
35686W        W95222  44.472  33.126  14.365
35687W        W95223  32.923  17.667   0.399
35688W        W95224  21.660   0.935   2.354
35689W        W95225   0.767   9.819   3.320
35690W        W95226  35.427   0.845   0.413
35691W        W95227  23.151  17.143   2.890
35692W        W95228  39.861  27.571  12.071
35693W        W95229  25.476   7.181   1.895
35694W        W95230  19.670  11.719   2.841
35695W        W95231  18.555  38.346  11.435
35696W        W95232   5.416  43.312  13.939
35697W        W95233   8.722  20.539   2.361
35698W        W95234  19.277  16.084  13.960
35699W        W95235  14.722  16.144   1.758
35700W        W95236  20.217  12.194   1.788
35701W        W95237  22.197  19.685   1.899
35702W        W95238  17.111  15.724   4.120
35703W        W95239  16.208  15.307  13.513
35704W        W95240  24.047  26.583  10.014
35705W        W95241  10.857   3.724  12.569
35706W        W95242  29.994  27.519   2.360
35707W        W95243  40.918  35.510   3.376
35708W        W95244   1.832   2.455  10.616
35709W        W95245  32.916  14.625   1.217
35710W        W95246   4.811  38.992   4.792
35711W        W95247  40.321  28.460  12.001
35712W        W95248   6.841  15.702  11.004
35713W        W95249  34.889  20.652   1.262
35714W        W95250  42.309  18.753   2.854
35715W        W95251   5.437   5.358   1.782
35716W        W95252  17.291  30.088   4.756
35717W        W95253  42.405   9.249   4.812
35718W        W95254  29.628  14.289   2.771
35719W        W95255   4.369  33.591  10.423
35720W        W95256  36.870   4.237  11.886
35721W        W95257  40.798   0.276  12.020
35722W        W95258  17.183  26.106   1.879
35723W        W95259  27.464  39.998  14.514
35724W        W95260  22.152  14.627   0.903
35725W        W95261  28.519   0.772  14.951
35726W        W95262  11.331  35.437  12.889
35727W        W95263  10.872   0.797   4.269
35728W        W95264  17.607  17.301   1.255
35729W        W95265  39.905   5.745   2.776
35730W        W95266  30.076  17.624   4.273
35731W        W95267  40.336  38.378   2.862
35732W        W95268  41.473  22.118  14.808
35733W        W95269  28.985  39.360  11.066
35734W        W95270  11.224  30.017  14.971
35735W        W95271  34.100  42.291  12.049
35736W        W95272   5.234  23.006   1.428
35737W        W95273  12.212   9.195   1.761
35738W        W95274  12.159  44.434  12.072
35739W        W95275  28.582   0.323  11.406
35740W        W95276  11.220   8.259   1.751
35741W        W95277  29.107  37.411   1.373
35742W        W95278  11.858   3.316  11.117
35743W        W95279  36.517  34.541  11.469
35744W        W95280  10.684  30.030  10.978
35745W        W95281  10.381   3.352  10.035
35746W        W95282  43.498  28.615  10.524
35747W        W95283  24.033  18.097   2.195
35748W        W95284  39.349   8.660   2.866
35749W        W95285  42.413   1.752   1.839
35750W        W95286  32.035  27.094   5.301
35751W        W95287  15.633  19.167   5.104
35752W        W95288  40.446  30.043  13.889
35753W        W95289   0.771  19.267  13.016
35754W        W95290  18.612  11.757  14.472
35755W        W95291  40.832  19.067   3.242
35756W        W95292  35.394  38.015   2.335
35757W        W95293  15.170  33.566   1.754
35758W        W95294  19.219  21.064   0.451
35759W        W95295  42.352  29.499  13.979
35760W        W95296   2.443  10.791  14.828
35761W        W95297   4.799   7.831  14.371
35762W        W95298  42.509   0.781   1.381
35763W        W95299  40.540  14.614   2.867
35764W        W95300  35.561   1.960   5.186
35765W        W95301  44.903   4.701   3.280
35766W        W95302  27.183  36.908   1.350
35767W        W95303  28.005  43.837  10.060
35768W        W95304  14.190  40.534  14.888
35769W        W95305   0.856  24.704  12.847
35770W        W95306   4.409  32.581  13.351
35771W        W95307  18.063  15.680  12.989
35772W        W95308   9.326  41.470   3.320
35773W        W95309  14.313  16.650   3.696
35774W        W95310  33.530  11.176   3.692
35775W        W95311   6.281  31.950  13.468
35776W        W95312  35.057  25.669  10.536
35777W        W95313  27.601  20.663   4.727
35778W        W95314  21.668  31.543  13.396
35779W        W95315  35.524  36.048  13.490
35780W        W95316  27.035  30.643   9.971
35781W        W95317  44.411  14.793  12.363
35782W        W95318  33.565   2.350   2.181
35783W        W95319  35.072  44.386   1.761
35784W        W95320  38.365  19.713   3.185
35785W        W95321  10.167  38.355  13.469
35786W        W95322  29.089  25.621  14.852
35787W        W95323  12.156  41.929   1.225
35788W        W95324   8.773  11.241  11.918
35789W        W95325  32.478   3.947  14.018
35790W        W95326  33.079   2.250  10.575
35791W        W95327  11.686  40.508   1.279
35792W        W95328  19.058   5.368  14.965
35793W        W95329  11.774  42.858   0.835
35794W        W95330  10.715  17.080   4.239
35795W        W95331  41.439  15.254   4.698
35796W        W95332  32.924  29.141   1.837
35797W        W95333   5.311  38.430  12.945
35798W        W95334  27.171  43.009   3.653
35799W        W95335  35.946  16.156  12.358
35800W        W95336  44.951  33.569   4.197
35801W        W95337  28.461  10.768   4.213
35802W        W95338  13.286  25.522   1.373
35803W        W95339  22.705  23.701   5.208
35804W        W95340  20.081  13.326  14.474
35805W        W95341  33.086  13.700   1.917
35806W        W95342   9.206   5.815   1.749
35807W        W95343  37.362  24.007  14.283
35808W        W95344  42.811  35.530   2.761
35809W        W95345   5.863  21.658   4.745
35810W        W95346  31.035  40.493   0.830
35811W        W95347  24.519  21.692  10.942
35812W        W95348  37.357  43.445   1.277
35813W        W95349  26.192  28.103  14.277
35814W        W95350  41.823   3.879   3.283
35815W        W95351  16.704  30.017  12.976
35816W        W95352   9.884  43.400  13.037
35817W        W95353  41.483  22.584  10.895
35818W        W95354  38.991  16.168   3.334
35819W        W95355  37.578  19.773   4.657
35820W        W95356  23.531  23.505  12.952
35821W        W95357  39.009  35.523  10.552
35822W        W95358  29.118  37.926   0.415
35823W        W95359  34.500  38.549   2.783
35824W        W95360  25.622  25.523   1.376
35825W        W95361  32.025  40.958  14.512
35826W        W95362  26.168   5.830  10.951
35827W        W95363  21.704  37.501  12.488
35828W        W95364  27.591   7.667   4.174
35829W        W95365  26.965  31.977   1.785
35830W        W95366  22.668  34.883  13.841
35831W        W95367  26.685   3.843  13.420
35832W        W95368  22.714  39.883  13.944
35833W        W95369  36.473   0.490   1.410
35834W        W95370  28.579  12.802   3.857
35835W        W95371  15.159  25.472  10.928
35836W        W95372  11.191  34.112   0.330
35837W        W95373  12.623  26.598  10.405
35838W        W95374   0.803  18.276   5.233
35839W        W95375  14.688  25.632   1.431
35840W        W95376  27.538  19.556   2.740
35841W        W95377  10.161  36.004   3.368
35842W        W95378  37.518  21.068   0.821
35843W        W95379   9.382  17.228   2.181
35844W        W95380  33.057  35.428   1.382
35845W        W95381   0.385  14.185  14.282
35846W        W95382  19.577  37.061  11.455
35847W        W95383   7.897  30.027   1.215
35848W        W95384   9.243  12.824   1.410
35849W        W95385  34.404  33.932  11.967
35850W        W95386  33.380  32.986   1.833
35851W        W95387  20.768  33.451   1.364
35852W        W95388  40.524  16.677  12.941
35853W        W95389   7.775  23.154   2.835
35854W        W95390  18.276  27.500  12.397
35855W        W95391  23.994  35.926  12.437
35856W        W95392  30.967  27.669   3.699
35857W        W95393  34.469  43.418   2.390
35858W        W95394  34.097  21.625   3.751
35859W        W95395   2.803  31.635   1.315
35860W        W95396  40.942  40.399   3.385
35861W        W95397  40.016  34.106   2.748
35862W        W95398  30.008  11.767   3.165
35863W        W95399   4.721  37.085  11.415
35864W        W95400  20.053  43.478  14.776
35865W        W95401  33.031  21.533   4.178
35866W        W95402  25.636  35.444   0.253
35867W        W95403  16.577  32.111  13.958
35868W        W95404  42.941  24.043  12.549
35869W        W95405  12.811  15.712   1.248
35870W        W95406  41.428  42.496  11.392
35871W        W95407  16.191  27.633   3.184
35872W        W95408  24.673  22.725   4.602
35873W        W95409  36.558  12.649   3.838
35874W        W95410  33.922  44.340  11.377
35875W        W95411  23.613   2.947  12.921
35876W        W95412  10.876  30.005  12.484
35877W        W95413   5.307  44.865  11.607
35878W        W95414  30.417  30.530  10.536
35879W        W95415  29.977  10.147  10.957
35880W        W95416   4.924  29.028  10.933
35881W        W95417  34.873  42.445   3.297
35882W        W95418  24.054  24.186  11.912
35883W        W95419  17.647  27.988  12.967
35884W        W95420   6.679  32.619  14.764
35885W        W95421  40.930  36.491   4.680
35886W        W95422  25.158  23.134   4.723
35887W        W95423  12.716  38.479   0.845
35888W        W95424  20.209  35.880  10.003
35889W        W95425   9.764  43.283   1.862
35890W        W95426   8.221  38.515   3.698
35891W        W95427  18.065  10.152  10.577
35892W        W95428   6.194  25.969  10.551
35893W        W95429   4.918  44.899  14.428
35894W        W95430  33.084  29.040   5.234
35895W        W95431  19.699  34.562   4.622
35896W        W95432   9.728  33.532  14.360
35897W        W95433  22.589  12.278   2.696
35898W        W95434  44.986   8.372  11.421
35899W        W95435  44.787  29.938  14.026
35900W        W95436   8.766  23.092  13.949
35901W        W95437   6.898  28.645   1.886
35902W        W95438  19.138  41.479  10.576
35903W        W95439  16.654  30.563   0.941
35904W        W95440   8.853  39.022   2.863
35905W        W95441  35.936   9.692   2.343
35906W        W95442  10.634  21.160   2.317
35907W        W95443   6.751  38.962   1.445
35908W        W95444  10.746   3.393  14.017
35909W        W95445  12.216  41.900  14.295
35910W        W95446   8.194  23.613  11.939
35911W        W95447   0.959  13.266  12.042
35912W        W95448  15.797  30.941   3.798
35913W        W95449  36.098  18.242   2.375
35914W        W95450  15.725  22.044  11.961
35915W        W95451  15.762  10.822   3.311
35916W        W95452  43.886  17.072  12.979
35917W        W95453  14.152  23.644  10.957
35918W        W95454   4.235  30.965  13.852
35919W        W95455  25.503  34.961  12.062
35920W        W95456  41.955  24.977   2.185
35921W        W95457  16.700  30.515   4.123
35922W        W95458   4.942  25.001   0.432
35923W        W95459  38.368  23.719  12.448
35924W        W95460  29.632  33.566   4.115
35925W        W95461  19.206  30.136   4.294
35926W        W95462  14.248   4.406  13.481
35927W        W95463  27.683  36.853  14.423
35928W        W95464  35.915  28.495   1.232
35929W        W95465   2.796  19.737  14.344
35930W        W95466  16.292  12.206  10.432
35931W        W95467  33.578  30.043   3.838
35932W        W95468  44.327  27.982  10.469
35933W        W95469  19.769   1.282   0.401
35934W        W95470  11.653   4.384   1.219
35935W        W95471  20.091  28.071  12.976
35936W        W95472   8.890  12.798   3.181
35937W        W95473  21.106  25.991   1.213
35938W        W95474  38.344  35.503  14.823
35939W        W95475  26.132  13.788   1.255
35940W        W95476   8.258  33.442  13.342
35941W        W95477  27.657  33.915   4.612
35942W        W95478  19.707  23.516  11.050
35943W        W95479   8.314  11.174  13.896
35944W        W95480   8.347   8.886  10.008
35945W        W95481  28.175  33.606   3.685
35946W        W95482  22.723  31.938  13.312
35947W        W95483  15.808  35.506   3.233
35948W        W95484   1.248  37.961  12.860
35949W        W95485  30.650  43.914   4.118
35950W        W95486  21.109  38.859  13.477
35951W        W95487   2.342  32.905   2.728
35952W        W95488   4.773  31.046   0.437
35953W        W95489  10.220   7.276  14.478
35954W        W95490  32.040  31.481   1.212
35955W        W95491  43.295  36.551  13.058
35956W        W95492  12.850  35.986  12.931
35957W        W95493  42.443  16.696  10.952
35958W        W95494  24.188  17.559  14.881
35959W        W95495  20.566  19.697  10.581
35960W        W95496   8.756  31.132  10.513
35961W        W95497  18.623  26.460   2.881
35962W        W95498  19.170  12.703  12.884
35963W        W95499  19.236  29.955  10.888
35964W        W95500  30.446  30.036   2.185
35965W        W95501  25.557  25.101  13.958
35966W        W95502   8.182  13.719   0.330
35967W        W95503  28.962  27.577   0.811
35968W        W95504  35.102  18.758   1.398
35969W        W95505  30.000   8.801   0.844
35970W        W95506  44.912  33.124  12.034
35971W        W95507   6.899  25.103  11.035
35972W        W95508  26.060  23.019  14.820
35973W        W95509  35.562  16.684  10.583
35974W        W95510  15.780  24.594  13.820
35975W        W95511  32.626  15.579  10.894
35976W        W95512  43.464  19.651  10.901
35977W        W95513  19.752  17.264   0.763
35978W        W95514  28.632  27.995  11.536
35979W        W95515  32.012  25.705   3.673
35980W        W95516  42.458   4.230   0.851
35981W        W95517  40.380   4.238   1.910
35982W        W95518  14.737  21.537  14.469
35983W        W95519  32.471  34.581   2.230
35984W        W95520   2.756  29.592  14.488
35985W        W95521  41.467  20.694   0.808
35986W        W95522  28.938  16.317   1.366
35987W        W95523  34.413  36.878   1.326
35988W        W95524  34.503  40.886   4.290
35989W        W95525   1.929  10.297   3.280
35990W        W95526  35.405   2.369   1.855
35991W        W95527  28.098  34.558  14.922
35992W        W95528  37.378  42.871   5.187
35993W        W95529  39.481  37.894  14.484
35994W        W95530  29.065  41.479  12.460
35995W        W95531   3.260  41.840   1.933
35996W        W95532  37.349  16.633   2.228
35997W        W95533   1.424  42.402   4.162
35998W        W95534  13.612  44.886   1.700
35999W        W95535  41.453   5.699   3.745
36000W        W95536  10.657  31.635   2.850
36001W        W95537  19.545  19.671  13.317
36002W        W95538  43.510   5.241   0.427
36003W        W95539  23.582  14.787  11.095
36004W        W95540  24.056  30.094   4.156
36005W        W95541   9.872  44.378  12.410
36006W        W95542  22.033  25.582  12.974
36007W        W95543  14.741   1.304   2.319
36008W        W95544   7.856  41.478  10.474
36009W        W95545  16.680   3.365   2.196
36010W        W95546  31.112   5.827   4.224
36011W        W95547  31.555  33.074  13.970
36012W        W95548  29.978  43.934   2.721
36013W        W95549   6.739  17.146  12.401
36014W        W95550  28.027  34.100  12.082
36015W        W95551  11.193  10.356  14.812
36016W        W95552   8.710  33.596  13.808
36017W        W95553  23.511  17.220  13.049
36018W        W95554   4.931   8.690  12.031
36019W        W95555  34.513  16.740  12.522
36020W        W95556   2.320  35.511   0.447
36021W        W95557   0.758  17.620  12.548
36022W        W95558   6.710  34.065  12.930
36023W        W95559  38.388  43.486  13.829
36024W        W95560  43.501  16.242  11.394
36025W        W95561  34.479  27.568   3.271
36026W        W95562  40.493  29.044  11.563
36027W        W95563  40.957   0.816  12.445
36028W        W95564   9.319  20.240   3.722
36029W        W95565  44.942  10.234  11.890
36030W        W95566  13.144  12.708  11.457
36031W        W95567  29.452  37.035   2.892
36032W        W95568  28.111  34.111  13.885
36033W        W95569   1.935  15.219   2.414
36034W        W95570   1.949  25.555  13.007
36035W        W95571  13.790  15.092  13.339
36036W        W95572   5.758  28.097   3.630
36037W        W95573  27.557  13.171  13.869
36038W        W95574  35.439  27.106  13.981
36039W        W95575  15.222  22.642  11.005
36040W        W95576   7.184  36.014   2.674
36041W        W95577  43.417  40.030  14.988
36042W        W95578  42.297  19.202  13.918
36043W        W95579  35.385   1.825  13.832
36044W        W95580  39.826  36.032  11.557
36045W        W95581  27.496  30.448  11.466
36046W        W95582  40.327   3.240   2.889
36047W        W95583   5.255  41.475   4.770
36048W        W95584  28.958  14.734  14.018
36049W        W95585  29.453  37.572  12.062
36050W        W95586  18.561   9.775  12.575
36051W        W95587  32.429  18.551  12.462
36052W        W95588  29.586  29.427   0.458
36053W        W95589  32.110  30.967   3.714
36054W        W95590  26.150  27.029   3.347
36055W        W95591  19.749  15.782   3.816
36056W        W95592  39.897  28.625   4.150
36057W        W95593  37.463  35.360   2.732
36058W        W95594  18.266  28.540  11.921
36059W        W95595  30.520  17.739  11.478
36060W        W95596   4.720   3.287  14.435
36061W        W95597  38.352  12.685   1.794
36062W        W95598  36.922  29.483  14.386
36063W        W95599  13.345   2.389  13.897
36064W        W95600  17.081  41.010   2.701
36065W        W95601   4.271  36.449  11.982
36066W        W95602  21.114  23.643  11.021
36067W        W95603  23.502   0.953   0.898
36068W        W95604  33.029  27.190  14.016
36069W        W95605  22.535  20.690   2.353
36070W        W95606  25.981  11.322   2.851
36071W        W95607  27.142  44.849  13.393
36072W        W95608  41.818  18.137  11.990
36073W        W95609   9.260  42.008   2.882
36074W        W95610  25.082  39.474   3.762
36075W        W95611  42.452  29.945  10.424
36076W        W95612   4.713  19.657   2.370
36077W        W95613  28.158  14.218  12.046
36078W        W95614  12.761  14.226   2.813
36079W        W95615  11.717  11.708  13.853
36080W        W95616  42.863  12.713  14.935
36081W        W95617  11.217  38.070   4.156
36082W        W95618  13.269  41.303   0.902
36083W        W95619  22.038   2.940   1.879
36084W        W95620   4.911   9.348  12.380
36085W        W95621  23.104   4.238   1.275
36086W        W95622  32.970   7.755  14.895
36087W        W95623  10.332  28.476   4.715
36088W        W95624  14.238  30.454  10.407
36089W        W95625  25.143   9.776   2.302
36090W        W95626  33.107  14.690   3.216
36091W        W95627   1.839   6.352   2.714
36092W        W95628  10.152  43.483   2.369
36093W        W95629  27.196  27.644   1.809
36094W        W95630  39.921  42.335   0.249
36095W        W95631  20.128  24.183   3.707
36096W        W95632  10.702  41.458   0.267
36097W        W95633  10.340   3.884   2.239
36098W        W95634  44.862  14.764  12.574
36099W        W95635  23.238  27.631  11.539
36100W        W95636   2.835  21.085  11.070
36101W        W95637  41.933   9.357  13.510
36102W        W95638  23.007  12.319  13.874
36103W        W95639  30.018  43.442  10.950
36104W        W95640  34.426  43.896   3.291
36105W        W95641  26.995  30.993  14.826
36106W        W95642  43.309   9.357   5.267
36107W        W95643  10.700  24.991  14.479
36108W        W95644  14.771  43.922  10.586
36109W        W95645  33.112  12.668  12.508
36110W        W95646   1.266  21.553  11.390
36111W        W95647  44.989  41.525  12.518
36112W        W95648  25.199  15.201  12.009
36113W        W95649   4.355  35.582  11.119
36114W        W95650  16.665  41.300   2.358
36115W        W95651  24.689  13.697  12.559
36116W        W95652  38.465  18.589  12.350
36117W        W95653  32.470  29.645   4.153
36118W        W95654  24.043  11.761   1.316
36119W        W95655   5.413  30.989   4.268
36120W        W95656   9.781  13.292  10.533
36121W        W95657  14.694  25.550   4.783
36122W        W95658  30.152  18.238  14.449
36123W        W95659  33.436   2.386  10.965
36124W        W95660  24.978  17.241  10.468
36125W        W95661  43.934  25.581  14.370
36126W        W95662   0.364  40.425  10.614
36127W        W95663  29.626  17.748  13.023
36128W        W95664   8.661   5.265   1.429
36129W        W95665   6.694  37.474   0.293
36130W        W95666  40.826  29.015  14.344
36131W        W95667  43.491  31.896   1.300
36132W        W95668  27.455  29.046  12.840
36133W        W95669  28.018  23.545  10.601
36134W        W95670  27.012   5.307   1.439
36135W        W95671  41.323   8.736   4.175
36136W        W95672  26.482   6.252   3.251
36137W        W95673  40.984  24.561  14.025
36138W        W95674  36.086  16.712   3.713
36139W        W95675   0.426  41.031  13.856
36140W        W95676  37.839  17.192   2.688
36141W        W95677  33.901   1.464   5.241
36142W        W95678   4.916  36.421   0.279
36143W        W95679  33.563  42.485   4.234
36144W        W95680  11.293  21.718  10.441
36145W        W95681  43.316   1.391   3.862
36146W        W95682  18.074  41.031  14.346
36147W        W95683  13.644  44.877  10.414
36148W        W95684   4.900  30.586  12.348
36149W        W95685   3.344  27.500   0.733
36150W        W95686   6.827  28.954  13.430
36151W        W95687   4.867  31.637   1.883
36152W        W95688   9.826  12.266  10.501
36153W        W95689  23.529  34.507  10.957
36154W        W95690  10.731  30.931  13.378
36155W        W95691  13.760  39.388  14.016
36156W        W95692  21.631  38.994   2.214
36157W        W95693  15.623   0.418  14.948
36158W        W95694  44.945  40.303   3.168
36159W        W95695  42.381  24.203  12.375
36160W        W95696  30.937  33.004  11.496
36161W        W95697  36.445  10.641  12.939
36162W        W95698  30.540   0.258   4.671
36163W        W95699  34.410  41.351   4.168
36164W        W95700  42.957  14.774   0.342
36165W        W95701  36.554  19.767  13.382
36166W        W95702   3.829  17.269   3.146
36167W        W95703  44.807   2.960   1.737
36168W        W95704   3.900   0.251   0.851
36169W        W95705  30.554  11.647   3.347
36170W        W95706   0.798  40.400   9.953
36171W        W95707  29.600  14.284  14.006
36172W        W95708  24.130  44.475  13.906
36173W        W95709  34.109  37.994   0.937
36174W        W95710  14.294   1.288   4.331
36175W        W95711  33.886  36.930  12.506
36176W        W95712  42.924  30.531  10.473
36177W        W95713  26.955  33.523   1.763
36178W        W95714  15.116  29.090  13.385
36179W        W95715  34.584   7.794   0.313
36180W        W95716   5.821  24.209   0.434
36181W        W95717  42.343  28.107   1.431
36182W        W95718  41.379   4.265  13.470
36183W        W95719   2.254  28.667  13.434
36184W        W95720  25.014  38.365   1.846
36185W        W95721  44.780   3.389   3.709
36186W        W95722  18.716   8.274   3.194
36187W        W95723  40.932  28.614   0.843
36188W        W95724  26.522  39.061   2.195
36189W        W95725  37.483  16.669   0.807
36190W        W95726  37.070  28.571   3.160
36191W        W95727   4.798   8.834   2.184
36192W        W95728  44.766   6.351   0.909
36193W        W95729  32.028  27.030   3.797
36194W        W95730   1.266  22.176  10.528
36195W        W95731  32.422  39.012   1.854
36196W        W95732  28.045  32.026  10.514
36197W        W95733  24.501  14.232  11.927
36198W        W95734  18.058   7.685  12.085
36199W        W95735  38.980  39.322  12.087
36200W        W95736  16.267   7.775   3.316
36201W        W95737  36.973  43.831   4.221
36202W        W95738  26.991  17.799   0.937
36203W        W95739   4.335  19.210   0.931
36204W        W95740  44.841  20.211   3.751
36205W        W95741  41.921  20.643   2.775
36206W        W95742  21.655  12.322   4.131
36207W        W95743  35.010  17.222  13.958
36208W        W95744  15.816  12.301  12.947
36209W        W95745   5.346  25.965  11.021
36210W        W95746   5.315   6.719  13.808
36211W        W95747  19.105  27.537   4.209
36212W        W95748   6.228   4.706  10.473
36213W        W95749  41.839  14.122  11.855
36214W        W95750   7.313  11.155   4.664
36215W        W95751  20.763  35.590  14.276
36216W        W95752  33.020  16.586   3.296
36217W        W95753  28.544   4.741  12.840
36218W        W95754  17.668  25.601  14.031
36219W        W95755   2.312   0.760  10.428
36220W        W95756  22.667  32.075  12.918
36221W        W95757  37.963  31.406  11.372
36222W        W95758  23.703   6.248   2.880
36223W        W95759  39.524   0.348  13.849
36224W        W95760  14.134  20.143  14.510
36225W        W95761  25.677   1.466  12.830
36226W        W95762  20.064  33.056  14.865
36227W        W95763   0.373  20.158   1.361
36228W        W95764  35.441   0.285   9.935
36229W        W95765   5.305   9.674  14.360
36230W        W95766   7.334  23.011   2.285
36231W        W95767  28.472  29.971  14.410
36232W        W95768  11.651  20.146   2.867
36233W        W95769   4.359   1.905   4.817
36234W        W95770   6.758  27.476   2.374
36235W        W95771  14.680   5.846   1.214
36236W        W95772  23.570  22.020  11.380
36237W        W95773  22.601   1.744   5.165
36238W        W95774  37.376  22.501   4.150
36239W        W95775  43.329  36.905  13.046
36240W        W95776   5.882  38.831   3.857
36241W        W95777  44.778   7.732  10.915
36242W        W95778  42.341   5.887   3.334
36243W        W95779  34.567   0.450   4.768
36244W        W95780  30.447  10.270   4.732
36245W        W95781  44.951  37.472   0.356
36246W        W95782   8.203   8.775   1.751
36247W        W95783   6.343   0.364   0.756
36248W        W95784  18.255  36.440   0.895
36249W        W95785   3.362   0.264  12.837
36250W        W95786   3.370  17.132   4.337
36251W        W95787   1.365   0.837   4.140
36252W        W95788  32.503  33.518   3.781
36253W        W95789  20.691  44.955   2.847
36254W        W95790  27.579  26.114  11.037
36255W        W95791  40.345  33.383  10.470
36256W        W95792   4.780  36.591  11.455
36257W        W95793   2.412  39.942   2.746
36258W        W95794  31.938  37.086   3.322
36259W        W95795   6.317  28.634   5.700
36260W        W95796  19.711   0.941  11.513
36261W        W95797  20.532  21.222   1.730
36262W        W95798  14.143  22.024  12.068
36263W        W95799  42.294  38.826  13.344
36264W        W95800  35.863  10.178  11.036
36265W        W95801  10.265   3.895  13.321
36266W        W95802  15.123  20.577   1.834
36267W        W95803  30.462   0.938  13.826
36268W        W95804  10.806  43.462  11.386
36269W        W95805  29.008  38.410   0.843
36270W        W95806  42.788  30.921   4.230
36271W        W95807   8.701  21.541  11.448
36272W        W95808  34.972  20.205  13.474
36273W        W95809  31.483  40.968  13.512
36274W        W95810  21.555  38.334   0.479
36275W        W95811  43.319  22.237  12.069
36276W        W95812  43.419  29.445   3.250
36277W        W95813  23.045  34.583   9.657
36278W        W95814   9.260  10.758  14.439
36279W        W95815  14.822  17.746  14.793
36280W        W95816  26.695  19.236   9.609
36281W        W95817  25.108  22.575   4.317
36282W        W95818  28.061  24.497  10.974
36283W        W95819   7.224  27.958  14.336
36284W        W95820  19.158  44.990   0.842
36285W        W95821  25.514   1.745  10.004
36286W        W95822  36.961   9.649  10.993
36287W        W95823  19.746  33.115  12.433
36288W        W95824  31.908   9.714  12.840
36289W        W95825  10.643  31.026  10.458
36290W        W95826   8.170   4.445  11.868
36291W        W95827  31.003  17.082   2.750
36292W        W95828  35.903  27.137   4.622
36293W        W95829  16.741  10.794   1.713
36294W        W95830  22.104  19.147  12.986
36295W        W95831  15.819  29.631  11.964
36296W        W95832  24.138  10.793  11.891
36297W        W95833  11.763   5.257   2.354
36298W        W95834   9.804   8.748   1.861
36299W        W95835  15.255  19.140   2.374
36300W        W95836   1.850  44.413  12.966
36301W        W95837  25.596  34.894   3.291
36302W        W95838   4.407  41.467  12.525
36303W        W95839  36.095   4.711   1.248
36304W        W95840  42.001  44.344   2.882
36305W        W95841  15.106  32.521   4.782
36306W        W95842  19.687  41.458   3.379
36307W        W95843   2.334  21.521   4.303
36308W        W95844  14.661  20.581  12.424
36309W        W95845  21.758   5.866  12.527
36310W        W95846  16.279   2.965  11.449
36311W        W95847  11.235  14.664   1.720
36312W        W95848  40.523  29.568   1.416
36313W        W95849  43.976  32.025  10.433
36314W        W95850  30.649  35.075   1.745
36315W        W95851  27.048   0.906  11.475
36316W        W95852  26.075  10.268   5.179
36317W        W95853   3.335  31.938  14.983
36318W        W95854  37.364   2.891   5.168
36319W        W95855  35.070  21.527   0.359
36320W        W95856  44.981  30.148   3.168
36321W        W95857  23.556  20.253  12.922
36322W        W95858  19.144  36.953  14.953
36323W        W95859  38.866  28.029  10.460
36324W        W95860  26.132  12.744   3.642
36325W        W95861  18.604  19.748  12.843
36326W        W95862  38.888   2.295   4.766
36327W        W95863  38.381  15.089  11.581
36328W        W95864  39.974  23.049  14.849
36329W        W95865  39.912  15.104  13.352
36330W        W95866  16.615  41.981  11.534
36331W        W95867   7.383  11.641   1.297
36332W        W95868  28.937  34.021  14.958
36333W        W95869  24.226   7.208  12.447
36334W        W95870  44.503  14.697   2.785
36335W        W95871   6.417  36.040  12.370
36336W        W95872  23.550  14.132   2.768
36337W        W95873  23.239  34.465   5.272
36338W        W95874   7.886   5.881  12.563
36339W        W95875  16.674  30.430  14.809
36340W        W95876   2.953  43.510  14.330
36341W        W95877   8.192  17.076   4.651
36342W        W95878  41.497  18.546   3.319
36343W        W95879  24.628  42.420  12.011
36344W        W95880   4.440  40.933  14.948
36345W        W95881  34.582  25.198  13.538
36346W        W95882   8.238   7.740   3.274
36347W        W95883  28.444   4.316   3.211
36348W        W95884   5.358  16.103   4.269
36349W        W95885  22.217   9.759   3.730
36350W        W95886  44.790  39.473  11.923
36351W        W95887  31.001  33.954   3.324
36352W        W95888  12.147   4.278  13.031
36353W        W95889   6.690  15.226   2.664
36354W        W95890  23.619  12.143  11.572
36355W        W95891  31.524  13.186   0.750
36356W        W95892  42.519   4.928   4.753
36357W        W95893  12.638   3.724  10.455
36358W        W95894  10.364  11.698  13.542
36359W        W95895  34.001   8.782   4.119
36360W        W95896  27.982   1.872   2.757
36361W        W95897  25.672   0.438   3.724
36362W        W95898  28.024  20.534   0.476
36363W        W95899  38.875  35.598   2.379
36364W        W95900  34.392  33.490  10.918
36365W        W95901  44.995  28.943  11.105
36366W        W95902   7.208  31.553  12.950
36367W        W95903  14.309  16.264  14.809
36368W        W95904   6.275  39.060   2.343
36369W        W95905  20.223  38.439   2.899
36370W        W95906  34.872  23.127  10.547
36371W        W95907  19.704   0.833   1.783
36372W        W95908  20.699  27.091  13.310
36373W        W95909  19.136  36.349  14.773
36374W        W95910   1.915  26.044  12.400
36375W        W95911  22.136  24.154  11.862
36376W        W95912  38.506  34.446   2.732
36377W        W95913  44.310   1.868   1.899
36378W        W95914  14.747  35.033   5.124
36379W        W95915  22.709  44.341   0.334
36380W        W95916  26.197  36.948  12.395
36381W        W95917  26.989  10.790  13.358
36382W        W95918  13.674  40.475   0.889
36383W        W95919  36.455  36.501  11.105
36384W        W95920  24.560  18.177  11.047
36385W        W95921  42.007   0.278   0.827
36386W        W95922  43.902   7.201   1.402
36387W        W95923  11.807  41.005  14.407
36388W        W95924   2.367  23.052   9.990
36389W        W95925  19.578   0.456   2.687
36390W        W95926  30.557  22.726  13.975
36391W        W95927   0.323  33.110  12.394
36392W        W95928  26.206  38.325   3.276
36393W        W95929   8.801  16.245  10.517
36394W        W95930  33.456  22.138   0.302
36395W        W95931  19.710  31.142  10.522
36396W        W95932  16.788  27.950  12.955
36397W        W95933   6.207  23.167   3.364
36398W        W95934  23.573  42.501  10.645
36399W        W95935  44.338   1.349  11.971
36400W        W95936  41.535  38.957  13.325
36401W        W95937  30.471  31.114   4.274
36402W        W95938  17.755  23.705   0.784
36403W        W95939  40.883   1.969   1.796
36404W        W95940   4.839  20.542  11.564
36405W        W95941   4.264  30.420  12.001
36406W        W95942  29.939   3.831   4.192
36407W        W95943  42.424  14.154  11.430
36408W        W95944  39.029  12.306  14.906
36409W        W95945  14.172   9.347   1.319
36410W        W95946  41.480   0.966  13.469
36411W        W95947  16.811  35.066   1.903
36412W        W95948  14.758   8.388  12.428
36413W        W95949  19.122  11.711  13.011
36414W        W95950   5.763  21.531  13.537
36415W        W95951  21.244  44.329   0.787
36416W        W95952  15.617  15.589  10.964
36417W        W95953  36.479  44.989  10.453
36418W        W95954   6.863  42.016   4.835
36419W        W95955  33.002  35.586  10.936
36420W        W95956  10.716  33.554  13.528
36421W        W95957  29.616  29.524  11.534
36422W        W95958  43.926  17.637  11.541
36423W        W95959  31.575  41.883   0.258
36424W        W95960  34.506  30.633  13.810
36425W        W95961  20.737  27.971   3.198
36426W        W95962  18.672  17.143   1.374
36427W        W95963  34.525  34.964   4.728
36428W        W95964  34.386  44.845   2.361
36429W        W95965  40.447  15.746  14.952
36430W        W95966  29.478  21.028  14.938
36431W        W95967  26.992  23.038   3.290
36432W        W95968   3.412   8.891  13.902
36433W        W95969  33.921  34.066   4.303
36434W        W95970  13.263  18.123   3.811
36435W        W95971  25.589   0.884  12.345
36436W        W95972  16.803   7.872  14.868
36437W        W95973  44.397  23.660  10.481
36438W        W95974  11.811  33.603   5.296
36439W        W95975  26.110  40.001  10.429
36440W        W95976  12.853  24.023   4.790
36441W        W95977  38.933  44.273  11.575
36442W        W95978   9.755  36.057   1.912
36443W        W95979  23.545   5.732  13.471
36444W        W95980  29.148  44.335  14.314
36445W        W95981  31.407  17.122   4.186
36446W        W95982  38.941  36.856  14.794
36447W        W95983  20.637   1.254  13.036
36448W        W95984  44.321  44.761   4.272
36449W        W95985  16.776  10.151   3.720
36450W        W95986  22.621  27.514   3.155
36451W        W95987  41.426  20.079  13.920
36452W        W95988  38.502  36.045   1.237
36453W        W95989  33.895  36.957   4.285
36454W        W95990   2.408  29.506   4.250
36455W        W95991  14.766  24.578   4.227
36456W        W95992  29.462  11.258  11.057
36457W        W95993  24.586  38.452   9.441
36458W        W95994   8.405  34.865   2.320
36459W        W95995  28.626   2.853   1.216
36460W        W95996  23.665  24.027  11.393
36461W        W95997  33.902  32.112   2.714
36462W        W95998  15.168  15.252  10.603
36463W        W95999   8.744  18.772   1.852
36464W        W96000   9.335   4.344  14.919
36465W        W96001   7.705  30.024   3.266
36466W        W96002  13.825  34.074   4.184
36467W        W96003   6.183  39.971   2.756
36468W        W96004  13.651  16.197  14.314
36469W        W96005  22.601  12.171   3.339
36470W        W96006   7.326  41.528  13.448
36471W        W96007  43.816  36.978   0.471
36472W        W96008   2.427  29.933   0.413
36473W        W96009   2.821  37.550   4.736
36474W        W96010  40.322  19.774   4.600
36475W        W96011  38.963  38.958   3.746
36476W        W96012  18.188  22.136   3.677
36477W        W96013  24.699  34.008  11.074
36478W        W96014  22.251   5.279  11.887
36479W        W96015  20.175  21.036   1.896
36480W        W96016   4.343  11.158   3.188
36481W        W96017  37.359  18.720   1.711
36482W        W96018  21.049  32.951  14.484
36483W        W96019  25.030  32.981  11.605
36484W        W96020   3.348  23.049  12.065
36485W        W96021  31.506   6.747   2.382
36486W        W96022   3.809  38.932  12.357
36487W        W96023   5.375   9.802  13.925
36488W        W96024  16.210  29.627  13.368
36489W        W96025  29.992   6.720  12.540
36490W        W96026  40.821   3.714   0.383
36491W        W96027  27.050   2.434   2.808
36492W        W96028  23.679  43.459  13.484
36493W        W96029  20.748   7.198   2.898
36494W        W96030  31.909  18.127   0.287
36495W        W96031  15.716  36.916   0.736
36496W        W96032  31.900  33.611   3.189
36497W        W96033  26.593  35.408  11.116
36498W        W96034  35.069   8.658   4.341
36499W        W96035  24.025   3.890  11.371
36500W        W96036  42.470   8.300   4.628
36501W        W96037   4.347   0.391  14.280
36502W        W96038  23.179   5.762   4.346
36503W        W96039  37.490  30.454  12.925
36504W        W96040   3.777  28.121  12.466
36505W        W96041  17.730   3.935  12.547
36506W        W96042  36.480  36.854  12.039
36507W        W96043  18.789   7.241  11.413
36508W        W96044   9.329  29.156   0.344
36509W        W96045  32.967   2.787  11.964
36510W        W96046  36.013  22.201   0.378
36511W        W96047   0.368  12.815   0.789
36512W        W96048  19.683  38.047  11.409
36513W        W96049  38.963  35.063   3.340
36514W        W96050  32.895  17.719  14.446
36515W        W96051  24.503   1.813   3.213
36516W        W96052  20.109  38.020   4.659
36517W        W96053  38.336   3.724   3.240
36518W        W96054  44.492  38.543  13.056
36519W        W96055  28.182  28.528   3.292
36520W        W96056  34.073  44.299   3.329
36521W        W96057  21.037  37.943   3.365
36522W        W96058  41.455  24.974  12.834
36523W        W96059   4.385   3.951  12.444
36524W        W96060  41.521  37.505   3.836
36525W        W96061   9.853  44.290   1.875
36526W        W96062  38.499   5.376   1.274
36527W        W96063  25.210  21.192   3.385
36528W        W96064  11.283  10.801   9.555
36529W        W96065  13.685  32.483   4.783
36530W        W96066  40.893  14.759   1.745
36531W        W96067   7.762  11.773   5.288
36532W        W96068  38.347  14.211  14.880
36533W        W96069  43.395  31.564  10.490
36534W        W96070  12.728  18.209  13.473
36535W        W96071  40.810  32.934   4.324
36536W        W96072  24.714  24.583  14.400
36537W        W96073  24.515  26.517  10.430
36538W        W96074   0.931  15.161  11.528
36539W        W96075  44.897  24.568  11.394
36540W        W96076  33.540  38.849  13.417
36541W        W96077  12.280  38.355   0.323
36542W        W96078  11.849  42.825   0.298
36543W        W96079  13.790   2.775   2.717
36544W        W96080   0.767  19.184  14.779
36545W        W96081  41.508  27.196   4.603
36546W        W96082  39.996  19.276   4.342
36547W        W96083  21.129   0.791   1.855
36548W        W96084  17.117   0.893   2.281
36549W        W96085  44.334  12.322  12.926
36550W        W96086  20.267   5.930  13.987
36551W        W96087   9.722   1.910   4.739
36552W        W96088  25.695  35.106  13.541
36553W        W96089  16.182  41.498  11.947
36554W        W96090  10.205   2.293   2.192
36555W        W96091  44.389  38.061  14.901
36556W        W96092  20.030  35.962  12.451
36557W        W96093   4.222  44.287  12.516
36558W        W96094  17.105  36.095   4.334
36559W        W96095  34.948   0.969  13.000
36560W        W96096  21.208  44.854  14.450
36561W        W96097  24.645   1.948   4.161
36562W        W96098   3.869  18.564  11.997
36563W        W96099  29.135  21.137   3.349
36564W        W96100   8.299  36.531   1.870
36565W        W96101   0.419  40.983  10.571
36566W        W96102  33.046  42.900  13.022
36567W        W96103  20.712  30.542   2.289
36568W        W96104  12.191  15.324  13.008
36569W        W96105  33.969  16.765  10.428
36570W        W96106  24.673  15.302  11.588
36571W        W96107  16.716   6.733   0.849
36572W        W96108   4.372  27.485   3.863
36573W        W96109  28.583   9.186   2.705
36574W        W96110  11.652  35.520  14.466
36575W        W96111  23.116   1.909  12.512
36576W        W96112  37.974   7.334  13.888
36577W        W96113  25.989  18.140  11.954
36578W        W96114  30.435  24.615  13.791
36579W        W96115  44.350  42.839  11.412
36580W        W96116   7.772  30.440  12.071
36581W        W96117  16.250   0.477  14.379
36582W        W96118  15.188  11.175   0.741
36583W        W96119  35.093  21.146   3.769
36584W        W96120  10.832  29.557  12.022
36585W        W96121   4.718  36.556  14.507
36586W        W96122   8.697  19.760   3.227
36587W        W96123  27.502   6.837  12.954
36588W        W96124  43.400  31.034  13.397
36589W        W96125  18.151   4.926  13.311
36590W        W96126  42.475  18.255  10.578
36591W        W96127   5.904  29.489   0.828
36592W        W96128  41.833   3.943   1.716
36593W        W96129  14.099  14.828  12.352
36594W        W96130   4.276  38.988  12.535
36595W        W96131  18.296  32.936   1.860
36596W        W96132  32.633  10.345  10.076
36597W        W96133  38.998  24.005  13.924
36598W        W96134   7.392  15.625   2.380
36599W        W96135  21.515  13.292   0.454
36600W        W96136  37.895  38.041  12.916
36601W        W96137  38.906  22.675   4.634
36602W        W96138  32.546  13.260   1.787
36603W        W96139   8.712  21.065  11.079
36604W        W96140  20.139  43.986   2.848
36605W        W96141  11.328  15.615  12.012
36606W        W96142  36.504  36.852   3.794
36607W        W96143  35.469  37.978  12.829
36608W        W96144   9.756   8.243   3.819
36609W        W96145   0.392   6.250  14.986
36610W        W96146  27.114  16.611  13.439
36611W        W96147  30.164  44.928   1.324
36612W        W96148  18.726  34.982  13.817
36613W        W96149  43.276  26.532  10.060
36614W        W96150  11.652  37.361   1.409
36615W        W96151  11.789  23.672  11.021
36616W        W96152   0.248  37.523  14.794
36617W        W96153  18.234   4.912  10.544
36618W        W96154  12.721  42.424   2.417
36619W        W96155  31.026  25.973  13.038
36620W        W96156  21.072  21.695   0.769
36621W        W96157   0.392  26.104   4.123
36622W        W96158  25.564  36.393   0.385
36623W        W96159  15.621  36.991   1.701
36624W        W96160  30.923  17.589   3.853
36625W        W96161   8.267  41.500   2.237
36626W        W96162  13.242  34.541  14.349
36627W        W96163   0.943  19.238  12.062
36628W        W96164  25.593  42.333   4.758
36629W        W96165  21.742  42.472   4.114
36630W        W96166  37.556  41.386  12.459
36631W        W96167  20.568   4.892   1.839
36632W        W96168  35.860  26.180   2.743
36633W        W96169  30.488   8.403   1.276
36634W        W96170  13.835  18.565   2.255
36635W        W96171  28.047  37.384   1.298
36636W        W96172  41.480  18.581   4.694
36637W        W96173  36.887  25.555  11.043
36638W        W96174  43.362  37.498  13.056
36639W        W96175  33.418  31.457  12.922
36640W        W96176  33.021   7.193   2.322
36641W        W96177  22.184  32.128   2.787
36642W        W96178  36.975  42.939  12.987
36643W        W96179   6.310  36.859  13.941
36644W        W96180  10.772  16.761   2.894
36645W        W96181  12.272   6.184  14.874
36646W        W96182   2.786  27.063   2.388
36647W        W96183   3.885   4.935   3.734
36648W        W96184  14.264  20.597   0.319
36649W        W96185  32.470  34.985  12.557
36650W        W96186  24.526  26.183   2.361
36651W        W96187  43.277  10.324  14.300
36652W        W96188  41.975   8.861   1.848
36653W        W96189  20.664  21.195   4.655
36654W        W96190  13.630  33.421  14.807
36655W        W96191  36.375  35.093   4.736
36656W        W96192   9.817  27.999   1.870
36657W        W96193  19.065  33.563   4.696
36658W        W96194  42.799  22.665   1.412
36659W        W96195  23.545  43.906  10.427
36660W        W96196   0.369   5.283  14.405
36661W        W96197  33.456  42.027   2.717
36662W        W96198  44.792   4.703   0.340
36663W        W96199  34.056  11.861  14.406
36664W        W96200  16.190  40.970   2.351
36665W        W96201  20.656  12.721   3.212
36666W        W96202  15.732  39.034   4.638
36667W        W96203  27.953  32.557   3.311
36668W        W96204  11.249   8.188   2.684
36669W        W96205  21.258  42.914  11.486
36670W        W96206  38.044  41.815   0.347
36671W        W96207  12.788   6.202  13.405
36672W        W96208  35.105  44.443   1.380
36673W        W96209  35.075  43.472  12.397
36674W        W96210   0.473  30.082   2.356
36675W        W96211  44.955   8.202   5.625
36676W        W96212  44.774  15.823  12.840
36677W        W96213  26.593  15.306  13.546
36678W        W96214  41.030  16.144  10.932
36679W        W96215   5.760   0.816   1.925
36680W        W96216  19.691   1.842  14.374
36681W        W96217  19.106  11.200   3.693
36682W        W96218   6.799  25.027   0.907
36683W        W96219  32.980  24.658   2.201
36684W        W96220  14.654  12.238   2.245
36685W        W96221  26.986  18.644   1.896
36686W        W96222  34.879  23.531   3.208
36687W        W96223  22.114  43.952   1.334
36688W        W96224   0.440  14.269  12.029
36689W        W96225  20.255  38.449   9.463
36690W        W96226  34.378  18.127   0.940
36691W        W96227   9.656   0.280   2.283
36692W        W96228  27.104  39.859   2.723
36693W        W96229  36.858  43.379   4.189
36694W        W96230  14.614  20.062  10.011
36695W        W96231  22.638  28.648   4.166
36696W        W96232  33.921  27.557  13.310
36697W        W96233   6.846  11.303   0.385
36698W        W96234  19.049  23.991   4.286
36699W        W96235  12.269  24.596   1.713
36700W        W96236  39.037  25.550   0.376
36701W        W96237  35.954  20.731  10.636
36702W        W96238  24.199  42.409   0.405
36703W        W96239   5.833  31.967   4.182
36704W        W96240  21.068  34.480   1.443
36705W        W96241  17.305  42.438  12.533
36706W        W96242  17.572  28.081   3.650
36707W        W96243  13.714  23.654  11.497
36708W        W96244   8.846  13.795  10.564
36709W        W96245  31.118  38.032   1.409
36710W        W96246  35.379   8.768  14.861
36711W        W96247   7.312  38.871  10.962
36712W        W96248  10.354  35.957  12.378
36713W        W96249  28.518  12.820  11.481
36714W        W96250  19.168   3.863   3.768
36715W        W96251  44.358  44.819  13.330
36716W        W96252  42.525  21.166  10.999
36717W        W96253  29.444  34.426   1.917
36718W        W96254   5.320  33.973   0.881
36719W        W96255   0.767  14.734  14.019
36720W        W96256  23.729  25.549   2.250
36721W        W96257  22.173  36.437   1.305
36722W        W96258   1.359  15.793   2.743
36723W        W96259  26.174  14.779   3.185
36724W        W96260  11.683  19.094   3.301
36725W        W96261   0.900   3.859   0.807
36726W        W96262  42.994   2.790   1.928
36727W        W96263  21.057  43.997   1.766
36728W        W96264  26.140   3.245  14.437
36729W        W96265   2.725  22.740  14.485
36730W        W96266   6.189   0.283   1.305
36731W        W96267  33.507  23.500   3.356
36732W        W96268  24.153   5.308   2.197
36733W        W96269  19.668  13.814  10.921
36734W        W96270  34.416  42.441   2.786
36735W        W96271  41.841   3.824  13.370
36736W        W96272  38.843   0.339  12.035
36737W        W96273  17.095   3.831   0.741
36738W        W96274  41.356  20.572  14.420
36739W        W96275   8.334   8.826   2.730
36740W        W96276  44.872  17.591  11.013
36741W        W96277  13.245   5.910  12.510
36742W        W96278  19.197   4.349   1.912
36743W        W96279  37.373  29.000   2.729
36744W        W96280  32.566  15.711  12.534
36745W        W96281   1.856  37.353  11.976
36746W        W96282   5.703   2.307  14.448
36747W        W96283   0.269  25.988  12.456
36748W        W96284  15.222  19.672   4.227
36749W        W96285   3.380  40.957  12.466
36750W        W96286  42.945  39.552  14.801
36751W        W96287  25.157  24.532  14.946
36752W        W96288  11.149  34.961  12.045
36753W        W96289  28.109  26.562  14.459
36754W        W96290  32.572  36.411  11.979
36755W        W96291  37.414  32.902  11.508
36756W        W96292  34.894  17.642  14.932
36757W        W96293  42.414  44.903  10.977
36758W        W96294  22.510  15.691   0.388
36759W        W96295  32.576  14.714  14.422
36760W        W96296  26.961  24.061   1.741
36761W        W96297  30.445   4.231  11.882
36762W        W96298  29.166   0.428  13.514
36763W        W96299   8.327  13.107  14.390
36764W        W96300  14.590  27.037  13.946
36765W        W96301  37.357  23.622  14.479
36766W        W96302  11.812  11.684   2.737
36767W        W96303  27.575  21.232   2.361
36768W        W96304  27.460  16.194   2.827
36769W        W96305  14.736  28.084   4.263
36770W        W96306  17.100   7.720  13.989
36771W        W96307  41.332  44.317  10.583
36772W        W96308  22.651  14.301  10.045
36773W        W96309   2.843   2.348   3.178
36774W        W96310  17.139  23.507   4.338
36775W        W96311  19.595  43.994  11.090
36776W        W96312  26.069  43.805  12.971
36777W        W96313  35.863  36.940  13.334
36778W        W96314  34.897  14.247  12.951
36779W        W96315  30.094   0.309  14.991
36780W        W96316  21.549  29.670   4.720
36781W        W96317  32.441  20.759   3.647
36782W        W96318  30.487   8.772   2.855
36783W        W96319  13.629  20.694  11.066
36784W        W96320  38.379  36.864  11.049
36785W        W96321  35.572  26.464   1.925
36786W        W96322  16.721  11.633   3.158
36787W        W96323  28.015   9.260  13.811
36788W        W96324  44.955  11.811   1.436
36789W        W96325   4.851  40.335  12.933
36790W        W96326  14.153   5.767  12.022
36791W        W96327  28.672  21.712  12.929
36792W        W96328   8.866  35.444  11.034
36793W        W96329  23.235   6.204  14.766
36794W        W96330  16.219  44.914   1.783
36795W        W96331   3.774  21.625   3.304
36796W        W96332  30.953  10.323   3.368
36797W        W96333  43.509  13.758  14.319
36798W        W96334  13.818   5.413  14.861
36799W        W96335   0.394  15.682   2.717
36800W        W96336  28.463  27.997   4.161
36801W        W96337   5.405  32.052   1.448
36802W        W96338  40.475   5.702   1.234
36803W        W96339  25.198  40.963   2.419
36804W        W96340  10.337  26.123   3.188
36805W        W96341  35.870  20.636   1.778
36806W        W96342  20.594  40.396   1.433
36807W        W96343  13.301  10.878   9.934
36808W        W96344  37.902  17.298   0.771
36809W        W96345  34.986   1.392   5.662
36810W        W96346  17.582  13.138  14.908
36811W        W96347   3.298  37.949  12.962
36812W        W96348  12.776  37.974   0.890
36813W        W96349   4.699  38.542  10.447
36814W        W96350  28.480  38.900  14.435
36815W        W96351  17.728  29.973   0.438
36816W        W96352  17.235  44.830  12.906
36817W        W96353  14.160  18.649  11.896
36818W        W96354   3.954   4.885   1.785
36819W        W96355   9.213  43.811   4.221
36820W        W96356   8.715  38.364  12.048
36821W        W96357   1.380  42.892   0.374
36822W        W96358   9.208  25.083   0.818
36823W        W96359  19.694  32.905   4.780
36824W        W96360  23.158  29.050   4.615
36825W        W96361   3.300  29.136  12.926
36826W        W96362  35.414  28.081  13.423
36827W        W96363  32.974  31.133   0.318
36828W        W96364  12.803  14.651  10.559
36829W        W96365  14.098  34.591  14.426
36830W        W96366   4.368  17.142  12.891
36831W        W96367  18.771   8.225  12.030
36832W        W96368  16.662  41.978  13.835
36833W        W96369  36.852  39.994  14.385
36834W        W96370   3.359   9.249  11.593
36835W        W96371  30.540  43.509   2.855
36836W        W96372  10.346  42.819   5.176
36837W        W96373  29.483   9.245   1.365
36838W        W96374   3.247  36.349   1.731
36839W        W96375  43.413  14.137   1.933
36840W        W96376  44.810  39.508  13.811
36841W        W96377  42.321  31.504  11.598
36842W        W96378  35.030  32.934   0.935
36843W        W96379  32.626  13.714  10.466
36844W        W96380  20.680  43.337   3.300
36845W        W96381  41.982  22.735  14.342
36846W        W96382   3.242  40.375   4.605
36847W        W96383   7.214  37.016  11.594
36848W        W96384  40.469  22.107  11.534
36849W        W96385  43.418  36.410   3.358
36850W        W96386  14.305  40.877   3.772
36851W        W96387  36.386  40.545  11.888
36852W        W96388  16.578  35.108   0.954
36853W        W96389  44.936   3.271   1.359
36854W        W96390  17.296  11.238  10.948
36855W        W96391  21.194  37.373  11.044
36856W        W96392  28.675   0.396   2.226
36857W        W96393  23.685  36.496  10.139
36858W        W96394  20.676  35.397   4.626
36859W        W96395  37.887  21.538  11.914
36860W        W96396   5.405   4.907   2.415
36861W        W96397  42.977   3.460   2.734
36862W        W96398   4.831  18.127  10.020
36863W        W96399  40.857  30.627  12.535
36864W        W96400  40.382  12.250  12.882
36865W        W96401  39.467   0.416   2.350
36866W        W96402  30.493  31.979   2.885
36867W        W96403  44.821  38.871  13.518
36868W        W96404  11.823  38.077   4.136
36869W        W96405  23.619  13.776   1.356
36870W        W96406  23.030  40.479  10.551
36871W        W96407   5.905  23.628  11.863
36872W        W96408  43.777  27.588   4.225
36873W        W96409   2.453  24.003  13.475
36874W        W96410  28.090   2.429   0.939
36875W        W96411   7.897  37.407  14.857
36876W        W96412  23.191   5.787  10.133
36877W        W96413  39.335  21.567   4.338
36878W        W96414  15.221  26.150   1.729
36879W        W96415  26.136  21.218   2.357
36880W        W96416   8.252  30.988   1.341
36881W        W96417  18.145  18.721  10.945
36882W        W96418  13.211  23.207   0.322
36883W        W96419  17.296  32.963  14.816
36884W        W96420  40.318  18.148   4.632
36885W        W96421  42.803  10.808  14.787
36886W        W96422   7.689   3.311  14.798
36887W        W96423  32.965  31.985   3.855
36888W        W96424  12.769   6.917  12.485
36889W        W96425   5.378  12.698   3.714
36890W        W96426   6.724  40.460   3.264
36891W        W96427  37.055  12.697   3.214
36892W        W96428  14.808  26.181  10.540
36893W        W96429   4.816  27.579   2.748
36894W        W96430  31.081  30.565   5.143
36895W        W96431  35.090  36.077  12.894
36896W        W96432  42.426  26.961  14.500
36897W        W96433  14.659   5.208  10.567
36898W        W96434  20.135  25.116  11.568
36899W        W96435  32.974   0.753  13.880
36900W        W96436  38.558  32.029  10.537
36901W        W96437   4.359  40.806  14.351
36902W        W96438  41.820   2.722  14.378
36903W        W96439  12.721  24.644  13.362
36904W        W96440  41.487  12.355  11.006
36905W        W96441  43.339   0.973   4.233
36906W        W96442  29.157  44.426   2.416
36907W        W96443  26.057   0.831  11.076
36908W        W96444  38.950  23.492   4.810
36909W        W96445  31.631   7.820  10.491
36910W        W96446  22.563  17.106  11.461
36911W        W96447   1.824  13.272   1.332
36912W        W96448  22.530   7.295  14.817
36913W        W96449  25.516  17.772  12.869
36914W        W96450  43.829  33.442  12.033
36915W        W96451  29.092  12.661  13.006
36916W        W96452  26.547  36.079  13.051
36917W        W96453  42.010  34.994  11.033
36918W        W96454   1.824   1.821   1.341
36919W        W96455  23.543  39.518   3.270
36920W        W96456  29.598  18.161   3.354
36921W        W96457   9.214  36.487   2.811
36922W        W96458  41.009   0.437   9.641
36923W        W96459   8.244   3.920   2.788
36924W        W96460  38.849  11.284  14.372
36925W        W96461  32.565  37.575   3.762
36926W        W96462  29.580  39.463  12.825
36927W        W96463  22.045  34.069   0.880
36928W        W96464  41.341  19.080  13.351
36929W        W96465  44.925  25.523   1.277
36930W        W96466  43.462  36.025   1.707
36931W        W96467   2.921   2.271   4.688
36932W        W96468  30.127  39.050  10.950
36933W        W96469   0.448   4.224  10.554
36934W        W96470   5.299  32.961   4.742
36935W        W96471   9.295  13.696  12.899
36936W        W96472  17.146   5.904   4.733
36937W        W96473  24.191  39.817  13.331
36938W        W96474   0.880  36.511  13.982
36939W        W96475  36.841  24.529   0.317
36940W        W96476  43.928  20.050   4.333
36941W        W96477  17.739   6.383  12.880
36942W        W96478   2.453  10.328  14.294
36943W        W96479  13.262  37.855  10.978
36944W        W96480  11.654  14.306  11.020
36945W        W96481   1.363  29.957   0.448
36946W        W96482  19.703  39.332   3.869
36947W        W96483   6.355  16.581  13.823
36948W        W96484  30.131  33.411  10.976
36949W        W96485  17.733   2.242  12.439
36950W        W96486  29.072   2.842   1.245
36951W        W96487  29.996  42.814  11.963
36952W        W96488  35.967   2.902  12.985
36953W        W96489   6.786  25.166  12.976
36954W        W96490  16.682  11.304  14.432
36955W        W96491  22.591  23.633   0.422
36956W        W96492  23.701  32.958   4.823
36957W        W96493  41.331  34.032  14.802
36958W        W96494  38.373  32.917  13.395
36959W        W96495   3.338  16.788  10.559
36960W        W96496   4.892  44.403   2.742
36961W        W96497  40.975   3.240  10.896
36962W        W96498  18.109  42.926   2.249
36963W        W96499  30.996  40.476   5.237
36964W        W96500   6.225   2.863   1.293
36965W        W96501  44.422  11.364  13.858
36966W        W96502   5.694  32.563   3.721
36967W        W96503  17.647  44.808   1.748
36968W        W96504  12.851  10.791  13.323
36969W        W96505  26.069  44.767  10.946
36970W        W96506  34.614  26.670   5.147
36971W        W96507  37.566  32.611  11.002
36972W        W96508  17.752  15.296   4.745
36973W        W96509  12.708  14.601  13.936
36974W        W96510  37.352  29.969  14.459
36975W        W96511   5.699  41.488  11.924
36976W        W96512  25.536  40.526   0.434
36977W        W96513  26.046  30.975  11.418
36978W        W96514  15.242  16.791  14.438
36979W        W96515  11.284  10.670   0.310
36980W        W96516  38.940  22.084   2.810
36981W        W96517  32.605  34.399   0.806
36982W        W96518   7.727  18.186   0.291
36983W        W96519  39.465  28.645  12.376
36984W        W96520   8.191   1.470   4.201
36985W        W96521  39.543  36.437  13.963
36986W        W96522   5.771  41.380  10.568
36987W        W96523  34.480  26.080   2.294
36988W        W96524  24.213  25.708  10.889
36989W        W96525  41.478  30.520   0.821
36990W        W96526   8.325  13.198   4.193
36991W        W96527  41.440   6.713   0.922
36992W        W96528  17.271   2.315   0.964
36993W        W96529  32.898  41.512  13.463
36994W        W96530   4.215  32.134   0.807
36995W        W96531  30.522  43.489  14.916
36996W        W96532  13.172   1.429  11.505
36997W        W96533  43.802  34.451  13.429
36998W        W96534  12.332  43.988   2.803
36999W        W96535  25.996   0.465  10.520
37000W        W96536   8.191  19.148   1.841
37001W        W96537  17.225  37.412   4.643
37002W        W96538  35.416   6.762  12.521
37003W        W96539  11.786  36.864   2.407
37004W        W96540   7.844  19.554   2.743
37005W        W96541  13.830   9.812  14.346
37006W        W96542   4.273  43.799   1.425
37007W        W96543   8.246  44.422   3.272
37008W        W96544  41.320  13.805  11.468
37009W        W96545  42.510  37.390   3.712
37010W        W96546  30.114  11.360  12.493
37011W        W96547   5.789   0.461   0.747
37012W        W96548  27.025  29.995   0.302
37013W        W96549  39.862   3.233  14.810
37014W        W96550  37.088  21.155   1.326
37015W        W96551  17.641  13.277   3.667
37016W        W96552  38.422   6.182  14.895
37017W        W96553  17.697  31.082   1.714
37018W        W96554  36.051  30.035  14.795
37019W        W96555   9.650  16.674   2.297
37020W        W96556   6.701   2.425   3.804
37021W        W96557  39.530  25.483   3.170
37022W        W96558  40.832  32.072   2.242
37023W        W96559  26.502  35.424   5.101
37024W        W96560  34.456  21.095   4.139
37025W        W96561  44.777  26.058   3.294
37026W        W96562  35.101  19.203  11.497
37027W        W96563  38.050  40.492  11.081
37028W        W96564  19.711   9.330  12.979
37029W        W96565  18.050  32.128  10.586
37030W        W96566  20.033  21.063  10.485
37031W        W96567  43.924  11.186   4.663
37032W        W96568  25.701   5.869   3.686
37033W        W96569  12.636   9.698   4.176
37034W        W96570   2.336  39.511  14.837
37035W        W96571  22.563  20.754   3.345
37036W        W96572  18.078  32.057  12.559
37037W        W96573  39.849  16.255   3.303
37038W        W96574  13.803   9.833   2.404
37039W        W96575  23.673  23.184   0.914
37040W        W96576  32.435   2.359  14.386
37041W        W96577   7.814  35.462  13.330
37042W        W96578  17.078  36.378   1.408
37043W        W96579   5.243  21.141   1.839
37044W        W96580  41.491  28.570   4.189
37045W        W96581   8.209   8.798  13.794
37046W        W96582   5.389  16.602   4.290
37047W        W96583  15.752   0.277  11.967
37048W        W96584  22.099  22.704   1.851
37049W        W96585   8.832  17.181  12.401
37050W        W96586  26.177  19.257  13.811
37051W        W96587   8.656   2.926  11.454
37052W        W96588  36.879  13.819  14.284
37053W        W96589  42.789  20.664  10.504
37054W        W96590  34.116  29.951  11.921
37055W        W96591  34.474  18.208   2.372
37056W        W96592  17.581  33.120   3.796
37057W        W96593  43.868  23.633   3.284
37058W        W96594  27.569  12.348   3.154
37059W        W96595  23.001  16.781   4.134
37060W        W96596   1.766  35.472   0.780
37061W        W96597   4.891   2.772  14.918
37062W        W96598  43.904  19.163   0.941
37063W        W96599   8.829  12.849  14.997
37064W        W96600   9.848  22.182  14.474
37065W        W96601  12.150  27.968   2.763
37066W        W96602  10.353  35.939   0.313
37067W        W96603  25.168  29.024   1.278
37068W        W96604  43.427  33.045  11.928
37069W        W96605  41.516  27.552   0.846
37070W        W96606  13.291  11.710   4.127
37071W        W96607  30.426  19.267   3.276
37072W        W96608  28.932  32.073  10.414
37073W        W96609  44.283  15.746   2.869
37074W        W96610  29.650  39.493   3.228
37075W        W96611  18.732  15.705  10.616
37076W        W96612   3.870  18.674  14.351
37077W        W96613   7.729   1.388   1.381
37078W        W96614   8.847  15.793  12.563
37079W        W96615  23.702   1.894   5.156
37080W        W96616   4.807  12.151   1.278
37081W        W96617  12.712  12.835   3.352
37082W        W96618  44.861   2.865  11.535
37083W        W96619  29.501  18.124   1.781
37084W        W96620   5.839   4.411   3.854
37085W        W96621   2.830  43.818   1.268
37086W        W96622  32.983  26.548  11.903
37087W        W96623  17.083   6.235  13.480
37088W        W96624   6.411  19.702  14.277
37089W        W96625   2.720  43.015   4.836
37090W        W96626  18.628  41.883  11.019
37091W        W96627  37.958  26.576   4.175
37092W        W96628  43.866  15.611  11.558
37093W        W96629  21.018   5.907   0.779
37094W        W96630  25.516  15.317  11.427
37095W        W96631  31.120   9.250  13.379
37096W        W96632  12.176  44.842  11.381
37097W        W96633  41.360  40.041   2.198
37098W        W96634  35.025  26.513   9.998
37099W        W96635  39.412  15.195   2.869
37100W        W96636  26.998  22.650   1.278
37101W        W96637  29.459  12.349   3.258
37102W        W96638  43.980   7.226   4.318
37103W        W96639   7.284   2.234  13.937
37104W        W96640  25.024  13.308   3.857
37105W        W96641   2.936   9.816   1.317
37106W        W96642  21.029   0.989   2.300
37107W        W96643   9.731  43.356  13.335
37108W        W96644  38.348   9.281  13.487
37109W        W96645  17.108   6.368   4.637
37110W        W96646   9.807  32.052   3.342
37111W        W96647  15.672  38.451  13.442
37112W        W96648  10.859  22.625   4.156
37113W        W96649  25.219  34.400   1.275
37114W        W96650  39.843  10.849  12.906
37115W        W96651  17.695  11.855  11.605
37116W        W96652   7.715  31.926   3.723
37117W        W96653  12.843  15.625   2.771
37118W        W96654  18.134  16.611   5.121
37119W        W96655  43.821  40.909  13.049
37120W        W96656   5.860  41.336  14.480
37121W        W96657  37.443  29.933  14.820
37122W        W96658   4.299  34.875  13.436
37123W        W96659  22.532   5.706  12.863
37124W        W96660  36.424  21.183   3.693
37125W        W96661   6.184   1.422  12.888
37126W        W96662  10.657   2.425  14.323
37127W        W96663  31.945  11.345   2.662
37128W        W96664  41.028  21.728   2.732
37129W        W96665  32.505  33.023   1.254
37130W        W96666  12.797   0.951  10.931
37131W        W96667  10.291  12.785   5.142
37132W        W96668   1.763  35.007   1.871
37133W        W96669  42.291  39.546  12.494
37134W        W96670  33.008  23.077  11.919
37135W        W96671   9.258  35.376  11.911
37136W        W96672  13.124   4.860   4.312
37137W        W96673  29.482  44.881  13.969
37138W        W96674  28.545  41.920  11.981
37139W        W96675  33.976  40.365  12.827
37140W        W96676  42.866   3.389  13.989
37141W        W96677  41.337  27.112   1.876
37142W        W96678  16.705  14.821   4.604
37143W        W96679  37.968   1.246  10.440
37144W        W96680  37.411  27.462   1.387
37145W        W96681  33.935  43.506   4.220
37146W        W96682  14.333  44.425  12.839
37147W        W96683  17.634   4.294   0.879
37148W        W96684  16.188   7.292   1.713
37149W        W96685  34.033  17.275  10.539
37150W        W96686  43.848  39.403   4.198
37151W        W96687  21.066  13.150  11.902
37152W        W96688  33.403   7.333   3.252
37153W        W96689  26.157   7.883  11.926
37154W        W96690  16.147   9.815  14.868
37155W        W96691   8.736  41.440  13.819
37156W        W96692  12.307  17.754  14.476
37157W        W96693  26.174  32.589  14.348
37158W        W96694   1.832  44.954  13.999
37159W        W96695  21.518  19.224  13.927
37160W        W96696  34.030   1.758   2.893
37161W        W96697  39.417  37.569  13.060
37162W        W96698  38.997  29.606   0.293
37163W        W96699  22.113  44.968  14.857
37164W        W96700  11.705  28.159   0.848
37165W        W96701   1.929  33.552  12.533
37166W        W96702  12.180   3.952  10.534
37167W        W96703  31.000   8.671   3.268
37168W        W96704  15.244  23.196  14.315
37169W        W96705  38.497  42.019  12.492
37170W        W96706  42.304   6.211  13.977
37171W        W96707  38.882  32.970   4.129
37172W        W96708   1.280  37.879  12.388
37173W        W96709  16.805  37.077   3.340
37174W        W96710  43.421  38.433   4.786
37175W        W96711  14.698  44.936  14.468
37176W        W96712   8.198  12.813  10.623
37177W        W96713   6.919  20.601   2.255
37178W        W96714   8.797  23.564   5.151
37179W        W96715  41.891   7.385   4.808
37180W        W96716  22.566   0.256   4.736
37181W        W96717   0.323  16.806  14.443
37182W        W96718  20.028   8.200  13.958
37183W        W96719  43.916  36.372   0.339
37184W        W96720  29.657  27.953   3.317
37185W        W96721  26.621  23.565   4.835
37186W        W96722  38.048  31.094  10.914
37187W        W96723  19.536  32.466  11.525
37188W        W96724  22.662  30.533  12.402
37189W        W96725  28.492  24.002   3.822
37190W        W96726  41.401  27.098  13.522
37191W        W96727  27.572  29.931   0.786
37192W        W96728  18.108  16.669   4.639
37193W        W96729  29.172  32.056   4.662
37194W        W96730  22.135  44.867  11.546
37195W        W96731   3.219  11.211   0.827
37196W        W96732  20.707   2.361  13.309
37197W        W96733  37.553   9.763  14.378
37198W        W96734  36.858  10.731   2.297
37199W        W96735  23.499  33.907  12.975
37200W        W96736  24.506  22.098  12.018
37201W        W96737   1.750  22.075   5.223
37202W        W96738  10.206  28.562   2.854
37203W        W96739   8.401  37.359   0.772
37204W        W96740  15.125   1.410  12.430
37205W        W96741  12.222   1.351  13.455
37206W        W96742   2.395  34.005   4.217
37207W        W96743  40.343  11.264   0.948
37208W        W96744  19.649  38.853  13.467
37209W        W96745  43.471  22.142  13.497
37210W        W96746  33.434   4.918  11.082
37211W        W96747  15.268   9.190   0.476
37212W        W96748  17.722  23.196  14.300
37213W        W96749  20.746  14.155   1.911
37214W        W96750  14.268   7.298   2.239
37215W        W96751  31.012  15.731  12.031
37216W        W96752  13.175  32.010  12.861
37217W        W96753  14.615  15.318  11.442
37218W        W96754   9.890   9.792   2.335
37219W        W96755  28.101  42.380   2.390
37220W        W96756  18.686  11.818   0.274
37221W        W96757  38.476   1.812   2.871
37222W        W96758  39.907  12.632  14.364
37223W        W96759  38.989  42.435  13.470
37224W        W96760  33.414   7.413  10.540
37225W        W96761   1.832  20.228  10.889
37226W        W96762  20.217   4.869   0.751
37227W        W96763  25.541  32.905  11.906
37228W        W96764  41.915  16.084  13.870
37229W        W96765  36.069   5.897  12.021
37230W        W96766  39.022  25.538  14.457
37231W        W96767  17.742  17.619  12.423
37232W        W96768  20.054  37.570  12.061
37233W        W96769  34.913  42.013  14.771
37234W        W96770  37.578  28.491   1.294
37235W        W96771  20.721   3.355   2.791
37236W        W96772   2.359  33.533   1.855
37237W        W96773  12.728   9.167  11.085
37238W        W96774  17.708   3.384   3.726
37239W        W96775   9.859   6.257   9.592
37240W        W96776   3.848  22.023   1.266
37241W        W96777  35.564  43.294   0.398
37242W        W96778   2.437   6.728   0.797
37243W        W96779  39.427  32.406   4.758
37244W        W96780  41.983  41.410   5.235
37245W        W96781  17.629  40.518  13.389
37246W        W96782  19.040  38.865   3.202
37247W        W96783  14.208   5.262   2.419
37248W        W96784  13.236  12.739  14.389
37249W        W96785  40.949  29.025   3.322
37250W        W96786  10.834   4.309  14.845
37251W        W96787  10.737   5.314  12.573
37252W        W96788  21.719  42.395   2.818
37253W        W96789  19.546  35.040  14.467
37254W        W96790  11.807  32.511   1.857
37255W        W96791  23.162  29.941  14.945
37256W        W96792  28.442  31.513  14.388
37257W        W96793  14.755  37.403  14.359
37258W        W96794  42.406  17.573  13.049
37259W        W96795  11.230  12.712  10.615
37260W        W96796  13.721   0.870  11.372
37261W        W96797   4.857  12.255  14.827
37262W        W96798  11.170  35.486  14.809
37263W        W96799  35.019  18.120   4.776
37264W        W96800  12.352  23.129  12.839
37265W        W96801  28.095  22.177   0.483
37266W        W96802  38.350  25.579  10.510
37267W        W96803   0.477  29.488   0.852
37268W        W96804  13.707  38.979  14.824
37269W        W96805  29.452   8.846  10.424
37270W        W96806  40.855   1.946  12.979
37271W        W96807  15.263  28.664   0.919
37272W        W96808  24.676  15.810   4.348
37273W        W96809  32.611  32.490  10.999
37274W        W96810   4.710  44.827   2.772
37275W        W96811  14.676  28.135   3.709
37276W        W96812  36.398  20.233   3.234
37277W        W96813  38.556  11.184  12.881
37278W        W96814  24.218  40.427  10.541
37279W        W96815  28.517  34.563  12.030
37280W        W96816  36.491  25.167   3.323
37281W        W96817   3.278  32.441  13.988
37282W        W96818  19.611  12.611  13.064
37283W        W96819   0.482  36.961   3.314
37284W        W96820  22.113   1.308   4.649
37285W        W96821   1.292  17.194  14.278
37286W        W96822  30.534  13.646   2.850
37287W        W96823  28.076  16.650   2.707
37288W        W96824  10.684  21.679   2.830
37289W        W96825  36.477  29.022   2.418
37290W        W96826  32.443  44.505  14.899
37291W        W96827  32.961  19.578  13.013
37292W        W96828  41.863  16.093   1.388
37293W        W96829  20.251  41.335   0.936
37294W        W96830  17.266  18.051  12.491
37295W        W96831  43.878  26.491  10.999
37296W        W96832  12.231  27.517  12.504
37297W        W96833  27.123  32.390  10.951
37298W        W96834  21.022  29.105  13.378
37299W        W96835  30.152   3.459   3.825
37300W        W96836  20.157  39.962  13.500
37301W        W96837   1.408  30.911  10.967
37302W        W96838  38.502  14.180   0.249
37303W        W96839   1.798  34.995  12.446
37304W        W96840   8.217  39.490   1.298
37305W        W96841  16.569  23.547   4.740
37306W        W96842  32.909  29.091  11.396
37307W        W96843   6.806   4.905   0.871
37308W        W96844  42.340  14.098   4.176
37309W        W96845  25.498  42.283  12.901
37310W        W96846   8.833   4.259   2.266
37311W        W96847  16.309  12.170   4.197
37312W        W96848  20.109   9.795  12.997
37313W        W96849  15.736  27.111  10.576
37314W        W96850   2.231  13.748   4.142
37315W        W96851  14.765  30.110  11.949
37316W        W96852  21.715  36.592   0.883
37317W        W96853  44.802  35.079  10.494
37318W        W96854  22.737  22.040   1.784
37319W        W96855  14.252  40.989   3.251
37320W        W96856   4.931  32.985   1.377
37321W        W96857  30.425  13.116  13.958
37322W        W96858   7.254  42.424  14.328
37323W        W96859  13.216  16.613   0.343
37324W        W96860  20.656  41.916   3.720
37325W        W96861  34.980  11.781   2.825
37326W        W96862  44.981   6.888   2.199
37327W        W96863   0.449  35.935  13.507
37328W        W96864   9.817  27.013  14.435
37329W        W96865  21.714  20.666   1.267
37330W        W96866  30.527  29.534   3.682
37331W        W96867  43.488  30.911  14.356
37332W        W96868   7.891  25.191   3.256
37333W        W96869   2.377  10.374   3.310
37334W        W96870  25.674   5.737  14.827
37335W        W96871  39.399   7.292  11.999
37336W        W96872  17.195  23.984   5.311
37337W        W96873  37.926  44.386  11.041
37338W        W96874  16.779  39.817   1.768
37339W        W96875  37.454   0.381   9.608
37340W        W96876   2.433   1.831   0.894
37341W        W96877  10.261  36.859   1.699
37342W        W96878  11.228   2.250   3.277
37343W        W96879  28.029   5.802   1.876
37344W        W96880   2.945  39.997  14.480
37345W        W96881  19.155  34.435   0.757
37346W        W96882   7.668  43.845  14.867
37347W        W96883  24.118  40.032   3.852
37348W        W96884  40.805  10.678  14.942
37349W        W96885  18.564  27.498  10.500
37350W        W96886  24.115  44.875   4.831
37351W        W96887  35.450  37.570  13.370
37352W        W96888   0.847  13.249   1.849
37353W        W96889   5.809  34.456   4.285
37354W        W96890  14.595  23.159   3.741
37355W        W96891   2.844   0.353   0.426
37356W        W96892  36.003  41.430  11.984
37357W        W96893  20.586  29.957  14.873
37358W        W96894   4.240  32.557   1.777
37359W        W96895  26.195  29.065   0.417
37360W        W96896  40.963  21.060   3.661
37361W        W96897  22.742  39.980   0.865
37362W        W96898   8.307   4.347  12.423
37363W        W96899  31.072  28.486   2.810
37364W        W96900  10.292  10.853   3.185
37365W        W96901  15.660  27.469  13.013
37366W        W96902  15.264  25.483  14.830
37367W        W96903  10.247  11.781  14.967
37368W        W96904  28.602  20.529   9.555
37369W        W96905  29.565  35.396   4.726
37370W        W96906  27.134  23.228  11.398
37371W        W96907  21.183  43.401  10.527
37372W        W96908   7.286  27.689   5.131
37373W        W96909  32.512  39.021   0.938
37374W        W96910  17.780  17.780  10.510
37375W        W96911  28.966  32.077  12.024
37376W        W96912  12.695  39.053  12.554
37377W        W96913  44.952  33.116   0.307
37378W        W96914   3.221  21.151  13.052
37379W        W96915   9.709  13.143  14.987
37380W        W96916  11.655  24.108   3.735
37381W        W96917  39.505  42.875   4.682
37382W        W96918  37.567   6.850   0.396
37383W        W96919  38.373  17.759   4.650
37384W        W96920  39.352  11.246  12.490
37385W        W96921  27.023   7.300   4.664
37386W        W96922  42.819   5.908  13.917
37387W        W96923  21.134  28.666  10.457
37388W        W96924  36.896  38.022   4.790
37389W        W96925  17.737  15.274   4.321
37390W        W96926  41.962   2.433  11.569
37391W        W96927  28.442  38.073  12.931
37392W        W96928  44.809  33.062   2.726
37393W        W96929  14.117  24.716  14.328
37394W        W96930  11.684  36.883  14.385
37395W        W96931  19.124   1.741   3.708
37396W        W96932  28.487  37.956   0.421
37397W        W96933  32.904  14.627  12.579
37398W        W96934  11.347   1.853  13.810
37399W        W96935  21.757  39.027  11.373
37400W        W96936  25.173  11.323   0.859
37401W        W96937  21.535  42.832  13.433
37402W        W96938   7.405  27.638   3.288
37403W        W96939  17.217  43.383  10.499
37404W        W96940  33.904   2.742  12.521
37405W        W96941  24.984  16.699   1.249
37406W        W96942  35.912  38.853   0.942
37407W        W96943  37.370  43.915  11.433
37408W        W96944   9.698  27.167   4.609
37409W        W96945  14.734  44.901   1.922
37410W        W96946  26.634  23.626  10.508
37411W        W96947  22.719   0.401   0.924
37412W        W96948  38.890  10.264  13.842
37413W        W96949  37.459  25.658  14.395
37414W        W96950   4.843  33.488  14.454
37415W        W96951   7.314  26.686  13.908
37416W        W96952  19.168   5.392  11.513
37417W        W96953   2.805   1.361   2.254
37418W        W96954   3.245  22.093  14.508
37419W        W96955  28.617  35.082   0.760
37420W        W96956  20.030  13.117   4.295
37421W        W96957  23.129  28.946  12.871
37422W        W96958  33.022  30.120  12.074
37423W        W96959  39.431  35.411   1.280
37424W        W96960   7.833  30.492   1.802
37425W        W96961   5.245  18.744  12.859
37426W        W96962   6.404  23.670   2.809
37427W        W96963  44.773  36.394  14.306
37428W        W96964  12.620  25.077   3.629
37429W        W96965  19.541  20.106  13.056
37430W        W96966  38.075  20.075  14.302
37431W        W96967  16.198  26.070   4.772
37432W        W96968   9.355   0.962  14.336
37433W        W96969  40.454   4.727   2.289
37434W        W96970  13.344  13.802  11.386
37435W        W96971  32.096   0.804   2.664
37436W        W96972  42.484  14.689  11.951
37437W        W96973   4.781  14.340   0.735
37438W        W96974  29.509  18.676  11.467
37439W        W96975  24.057  39.023  10.040
37440W        W96976  31.580   8.211  14.381
37441W        W96977  23.043   6.787  11.579
37442W        W96978  42.806  27.691   0.773
37443W        W96979  22.588   7.360  11.397
37444W        W96980  39.024  19.251  12.568
37445W        W96981  18.090   1.964   3.152
37446W        W96982   1.811   8.837  12.399
37447W        W96983  29.645  12.298   4.766
37448W        W96984   9.252   2.723   4.770
37449W        W96985  20.703  32.981  14.356
37450W        W96986   9.808  22.525   4.643
37451W        W96987  36.059  21.217  10.583
37452W        W96988   3.860  23.728  14.402
37453W        W96989   2.861   3.784  10.964
37454W        W96990  17.190  41.929   0.457
37455W        W96991  21.150  23.681  10.160
37456W        W96992   5.254  32.584   4.833
37457W        W96993  11.691   2.771   4.128
37458W        W96994  11.830  15.103   0.962
37459W        W96995  12.313  12.662  13.359
37460W        W96996   3.807  38.824  13.499
37461W        W96997   3.803  12.740   0.422
37462W        W96998  32.601  14.336   4.317
37463W        W96999  44.823  43.304   4.600
37464W        W97000  31.644  40.535   0.733
37465W        W97001  37.045  15.603   4.713
37466W        W97002  34.030  24.010   2.754
37467W        W97003  26.127  29.507  10.574
37468W        W97004  21.546  21.165  11.593
37469W        W97005   7.417  30.052   1.822
37470W        W97006  38.868   0.972   0.372
37471W        W97007  32.475  34.433  11.928
37472W        W97008  22.034  22.535  12.935
37473W        W97009  43.943  22.248   4.682
37474W        W97010  11.168  43.475   1.745
37475W        W97011  37.492  41.317  11.499
37476W        W97012  39.014  31.984   4.179
37477W        W97013  12.767   5.271  13.945
37478W        W97014  27.541   5.799   4.256
37479W        W97015  19.214  13.799  10.639
37480W        W97016  30.121  11.146  13.046
37481W        W97017  36.541  23.532  12.829
37482W        W97018   0.978   7.777  14.509
37483W        W97019  41.861  18.668  11.098
37484W        W97020  42.853  39.431  10.441
37485W        W97021  16.268  16.141   4.168
37486W        W97022  20.603  15.084   3.244
37487W        W97023  23.662   9.794   4.747
37488W        W97024  33.016  30.997   1.851
37489W        W97025   7.868  11.843   4.641
37490W        W97026  32.971  33.015  12.970
37491W        W97027  23.097  11.280  13.904
37492W        W97028  21.053  38.424  13.981
37493W        W97029  23.526  33.917  11.888
37494W        W97030  11.208  42.971  12.462
37495W        W97031   4.299  21.025   9.996
37496W        W97032   8.176  24.550  12.829
37497W        W97033  41.972  30.437   4.656
37498W        W97034  29.498  38.919   0.793
37499W        W97035  42.329  21.527   3.226
37500W        W97036   5.432   4.380  14.840
37501W        W97037  22.657  19.043  10.594
37502W        W97038  31.497  19.600  12.364
37503W        W97039  28.048  19.689   4.189
37504W        W97040  21.729  33.039  13.994
37505W        W97041  18.656   0.489   1.391
37506W        W97042  32.505   9.346  12.078
37507W        W97043  20.053  11.211  13.397
37508W        W97044  34.927  18.556   1.749
37509W        W97045  32.533   8.193  12.834
37510W        W97046  43.441  21.597   4.754
37511W        W97047   2.769   9.309  11.020
37512W        W97048  36.990  40.895   2.184
37513W        W97049   2.744   9.235  14.924
37514W        W97050  44.352  10.773  11.063
37515W        W97051   1.469  38.835   4.173
37516W        W97052   4.285  42.892  14.474
37517W        W97053  32.004  17.160  12.469
37518W        W97054  10.258  25.650   0.416
37519W        W97055  18.167  30.627   0.396
37520W        W97056  42.861  36.894   1.405
37521W        W97057   7.892  16.215   0.933
37522W        W97058  17.192  12.136   3.811
37523W        W97059  26.597   5.900   0.248
37524W        W97060  20.120  16.668  13.320
37525W        W97061  13.319  10.239  13.823
37526W        W97062  39.406  27.658  12.403
37527W        W97063  28.013  34.863   0.933
37528W        W97064  29.544  41.958  12.043
37529W        W97065  17.220  32.140  12.080
37530W        W97066  31.536  24.624   2.893
37531W        W97067  21.153  19.725   4.693
37532W        W97068  25.205  29.534  12.080
37533W        W97069  19.074  16.278   4.116
37534W        W97070  21.528  35.092   5.247
37535W        W97071  34.435   1.305   0.738
37536W        W97072   3.788  12.620  12.444
37537W        W97073  16.162  23.646   3.191
37538W        W97074  35.522  37.043  13.050
37539W        W97075  17.577  25.614  11.103
37540W        W97076   3.319  18.560  14.339
37541W        W97077  26.477  35.016  10.433
37542W        W97078  15.317  42.785  13.309
37543W        W97079  16.202   4.871  12.534
37544W        W97080  38.977   0.248   0.782
37545W        W97081  10.195   0.465   0.869
37546W        W97082  11.767  27.453  14.955
37547W        W97083  36.981   3.367   1.727
37548W        W97084  38.054  31.618  10.437
37549W        W97085  44.449   0.963  14.316
37550W        W97086  11.783  23.144  13.363
37551W        W97087  40.913  15.267  11.943
37552W        W97088   0.306  41.030   1.833
37553W        W97089  18.183  17.069   0.393
37554W        W97090   9.864  39.910  12.984
37555W        W97091  33.389  18.156  13.016
37556W        W97092   1.780  42.341   3.690
37557W        W97093   6.256  25.071  11.420
37558W        W97094   9.697  11.291   3.317
37559W        W97095  11.238   1.409  14.445
37560W        W97096  22.126   1.299  14.801
37561W        W97097   1.393  38.980   0.275
37562W        W97098  41.412  17.611   4.158
37563W        W97099  13.109  23.047   3.169
37564W        W97100   8.776   0.340  13.805
37565W        W97101  18.621  26.633  10.630
37566W        W97102  33.925  37.504  13.447
37567W        W97103  19.042  15.614   0.431
37568W        W97104  38.540  24.560  10.527
37569W        W97105   9.744   3.820  10.630
37570W        W97106  43.861  18.177   0.283
37571W        W97107  18.713  18.764   4.234
37572W        W97108  19.602  30.146   2.212
37573W        W97109  24.147  40.510   5.299
37574W        W97110   9.856  35.895  13.954
37575W        W97111  20.673  11.361   1.808
37576W        W97112  10.350   4.323  11.113
37577W        W97113   8.345  16.077  12.965
37578W        W97114   2.887  21.145  13.022
37579W        W97115  18.083  39.356   3.347
37580W        W97116  21.582  30.519   1.337
37581W        W97117  26.082  23.609   4.777
37582W        W97118  36.895   5.266   2.713
37583W        W97119  29.509  31.986   2.822
37584W        W97120   2.308  20.752  14.296
37585W        W97121  19.694  16.309   1.901
37586W        W97122  36.946  24.718  11.915
37587W        W97123  12.305  42.521   3.719
37588W        W97124  35.534  35.987   2.807
37589W        W97125   9.246  37.370  10.592
37590W        W97126  40.467  38.822   1.449
37591W        W97127  35.579   3.221   2.873
37592W        W97128  25.125  23.655  14.023
37593W        W97129  18.695  44.310  13.894
37594W        W97130  40.982  40.897   0.316
37595W        W97131  27.664   7.361   2.734
37596W        W97132  27.470  43.507  14.781
37597W        W97133  27.021  32.496   2.237
37598W        W97134  23.724  29.077   1.831
37599W        W97135  28.652  36.373  10.453
37600W        W97136  14.307  35.567   0.824
37601W        W97137  41.388   4.360   0.890
37602W        W97138   9.381   6.188  13.542
37603W        W97139   1.747  34.970   2.674
37604W        W97140  44.425  43.314   5.260
37605W        W97141  11.715  30.611   2.866
37606W        W97142   8.328   3.243   4.649
37607W        W97143  11.760  13.207  10.145
37608W        W97144  30.457  25.535  12.515
37609W        W97145  32.133   4.716   3.801
37610W        W97146   9.649  13.241   4.155
37611W        W97147  22.684  21.675   9.947
37612W        W97148  21.091  18.222   1.738
37613W        W97149  16.165  30.907  13.996
37614W        W97150  17.154  34.385  12.462
37615W        W97151  39.930  21.074  12.961
37616W        W97152  30.955  15.095  14.450
37617W        W97153  41.371  20.072  11.410
37618W        W97154  14.806  18.062   3.259
37619W        W97155  30.155   4.858  13.883
37620W        W97156   3.846   5.429   3.232
37621W        W97157  29.098  18.084  11.429
37622W        W97158  16.623  36.547   0.402
37623W        W97159  37.957   3.334   2.188
37624W        W97160  17.190   7.198  13.348
37625W        W97161   4.244  12.316  10.600
37626W        W97162  36.514   7.294   1.450
37627W        W97163  40.534   0.799   3.704
37628W        W97164   8.198   9.251  11.464
37629W        W97165  20.763  14.697   0.887
37630W        W97166  20.122  23.518   4.257
37631W        W97167  36.993  23.998   2.700
37632W        W97168   9.310  31.456   1.323
37633W        W97169   4.829  10.755  12.058
37634W        W97170  38.959  12.216  13.460
37635W        W97171  29.429  40.801   4.200
37636W        W97172  17.670  28.178  10.535
37637W        W97173  11.784  27.035   1.714
37638W        W97174  17.795  12.170   2.260
37639W        W97175  42.950  28.538   4.742
37640W        W97176   6.271  32.062   0.462
37641W        W97177   9.725  38.551  12.029
37642W        W97178  21.129  32.526   2.329
37643W        W97179  20.615  27.081   1.396
37644W        W97180   4.851  33.075  14.473
37645W        W97181  13.656  19.672   2.767
37646W        W97182  25.111  11.694   2.771
37647W        W97183  36.582  43.903  11.099
37648W        W97184  40.918  28.047   2.415
37649W        W97185  31.589  21.632   0.953
37650W        W97186   2.952   0.283  12.024
37651W        W97187  40.529  16.259  13.969
37652W        W97188   1.371  34.517   3.670
37653W        W97189  30.025  32.458  11.488
37654W        W97190   6.919  20.741  13.473
37655W        W97191  35.930  34.100  11.099
37656W        W97192   3.948  39.984  14.294
37657W        W97193   9.844  11.308   2.827
37658W        W97194  13.148  37.012  12.526
37659W        W97195  28.134  27.084   0.394
37660W        W97196   8.842  29.114   3.637
37661W        W97197  27.160  44.969   1.402
37662W        W97198  30.006  36.560  11.526
37663W        W97199  28.488  31.582   2.367
37664W        W97200  25.042  28.980  11.923
37665W        W97201  33.612   1.854  12.065
37666W        W97202  10.305  29.106   0.357
37667W        W97203  43.824   9.812   0.339
37668W        W97204   1.740  35.066   3.752
37669W        W97205  21.670  40.858   2.289
37670W        W97206   9.361   8.298  11.938
37671W        W97207  15.139  40.472   3.310
37672W        W97208  19.538   0.278  11.095
37673W        W97209  24.116  27.155  10.503
37674W        W97210  27.563  24.658  12.093
37675W        W97211  25.157   2.330  10.970
37676W        W97212  15.183  43.986  11.068
37677W        W97213  22.601  21.512  12.082
37678W        W97214  44.874  40.484  10.544
37679W        W97215  19.232  15.605   2.283
37680W        W97216  11.785  27.603   1.839
37681W        W97217  44.980   6.211   2.330
37682W        W97218   9.707  25.637  10.535
37683W        W97219   1.443  42.811  10.530
37684W        W97220  14.130  41.831   1.702
37685W        W97221  17.123  13.191  13.916
37686W        W97222  22.007  14.798  14.430
37687W        W97223  33.995  42.932  14.885
37688W        W97224   4.874   1.296   3.325
37689W        W97225  39.820  35.452   1.742
37690W        W97226  40.985   2.399   3.356
37691W        W97227  19.778   8.214   3.716
37692W        W97228  23.635  28.015   0.325
37693W        W97229   7.816  17.270  13.031
37694W        W97230   9.803  14.732   0.931
37695W        W97231  39.923  40.883  14.402
37696W        W97232  23.173  34.938   0.429
37697W        W97233  22.195  12.299  14.972
37698W        W97234  16.693  20.163  13.965
37699W        W97235  35.396  43.371  12.958
37700W        W97236  37.934  20.246  11.083
37701W        W97237  43.475   6.416   4.737
37702W        W97238  38.430   1.887  11.439
37703W        W97239  16.166  24.122  14.285
37704W        W97240  18.269  24.568   3.382
37705W        W97241  18.132  25.553  11.901
37706W        W97242  18.750  11.129   0.813
37707W        W97243  34.072  19.062   0.308
37708W        W97244  17.121  28.502  14.827
37709W        W97245  20.650  18.223   1.293
37710W        W97246  42.359  15.786   4.761
37711W        W97247  43.506  10.838   3.376
37712W        W97248  15.620  29.076  12.577
37713W        W97249   3.389   1.944   1.217
37714W        W97250  31.446  12.758  11.444
37715W        W97251  35.040   6.736  10.978
37716W        W97252  24.103  41.932  11.532
37717W        W97253   2.756   7.743  12.528
37718W        W97254  44.350  36.040  13.313
37719W        W97255   8.756  38.893   0.276
37720W        W97256  31.445   0.312   3.188
37721W        W97257  27.663  10.861  12.012
37722W        W97258  44.915  28.495   1.444
37723W        W97259  40.955  25.585  14.008
37724W        W97260  17.264  31.897  12.389
37725W        W97261  31.493  25.607   0.728
37726W        W97262   7.302  36.920  13.949
37727W        W97263  42.798  12.679   0.924
37728W        W97264  40.346  25.622  12.882
37729W        W97265  40.951  39.353  10.492
37730W        W97266   0.945   1.250  12.359
37731W        W97267  26.013  24.004   3.300
37732W        W97268   0.904  39.983   4.610
37733W        W97269   4.905   2.896   4.625
37734W        W97270  20.728  23.658  14.844
37735W        W97271  40.495  26.120  12.948
37736W        W97272  18.267  16.314   0.362
37737W        W97273  29.610   0.868   0.297
37738W        W97274   2.795  12.686   1.375
37739W        W97275  34.567   5.329   4.181
37740W        W97276  24.585  39.884  13.504
37741W        W97277  42.922   0.384   3.837
37742W        W97278  12.829  29.520  11.045
37743W        W97279  36.528  18.290   3.691
37744W        W97280  10.185  21.221  14.459
37745W        W97281  43.293  15.772   2.677
37746W        W97282  42.866  36.035  11.899
37747W        W97283  21.153  26.165  12.345
37748W        W97284   1.454  33.018  10.420
37749W        W97285  15.666   9.177   3.246
37750W        W97286   9.712   0.900   3.696
37751W        W97287  31.572  24.521  12.398
37752W        W97288  12.793  27.074   0.316
37753W        W97289  39.945  29.598  11.059
37754W        W97290  39.042   0.270   5.141
37755W        W97291  34.606  32.621   4.659
37756W        W97292  36.960  23.728  10.934
37757W        W97293  44.992  23.075   0.781
37758W        W97294  14.162  10.176  13.466
37759W        W97295  36.879  42.344  13.040
37760W        W97296  43.516   9.726   4.306
37761W        W97297  16.120  33.534  14.840
37762W        W97298  32.539  39.428   1.260
37763W        W97299   9.379   1.877  13.417
37764W        W97300  36.039  34.380  12.398
37765W        W97301  42.921   0.913  12.960
37766W        W97302  28.089   2.462   3.784
37767W        W97303  23.619   1.475  12.465
37768W        W97304   1.940  12.336  12.072
37769W        W97305  26.590   4.935  10.108
37770W        W97306   0.330  24.633  13.939
37771W        W97307  12.124   9.765  12.898
37772W        W97308   1.326  24.663   2.698
37773W        W97309   6.241  19.601  13.414
37774W        W97310   9.837  10.721  10.636
37775W        W97311  27.662  33.395  14.862
37776W        W97312  21.723  15.757  10.924
37777W        W97313  33.957  43.477  14.766
37778W        W97314  43.915  13.279   1.930
37779W        W97315  26.492  28.657  11.114
37780W        W97316  10.641  42.517   4.647
37781W        W97317  25.565  13.684  12.008
37782W        W97318   5.207  10.651   3.344
37783W        W97319  40.357   8.252  12.823
37784W        W97320  10.251  39.382   2.666
37785W        W97321   3.347  17.684  13.939
37786W        W97322  28.082   1.439  12.870
37787W        W97323  21.095  28.078   4.791
37788W        W97324  13.722   7.344   3.210
37789W        W97325  31.487   0.475   2.362
37790W        W97326   9.667  43.935   4.315
37791W        W97327  33.472  31.972  11.511
37792W        W97328  25.216  37.919  12.455
37793W        W97329  41.825  35.002  13.858
37794W        W97330   2.429   6.247  12.484
37795W        W97331  11.259  23.991  13.365
37796W        W97332   7.283   3.799   1.296
37797W        W97333  43.335  37.545   2.319
37798W        W97334  39.027  15.094  14.483
37799W        W97335  23.586  42.890  14.440
37800W        W97336   5.829  40.536   0.731
37801W        W97337  16.812  14.230   1.748
37802W        W97338  37.541   7.889   3.148
37803W        W97339  18.778  22.128  14.814
37804W        W97340  20.686  19.703  11.874
37805W        W97341  10.215  30.061  11.519
37806W        W97342  36.348  40.008  10.511
37807W        W97343  43.432   6.745   1.391
37808W        W97344  37.493  37.081  12.933
37809W        W97345   5.879  28.066   2.285
37810W        W97346   4.720  35.935  12.542
37811W        W97347  31.559   9.333  14.790
37812W        W97348  25.997   5.883  12.492
37813W        W97349  11.750  25.175   3.650
37814W        W97350  25.089  13.292  14.891
37815W        W97351  10.384  22.225   9.929
37816W        W97352  15.138  34.961   2.866
37817W        W97353  15.728  19.578  12.407
37818W        W97354  32.472   5.921  12.071
37819W        W97355  18.285   9.286   1.301
37820W        W97356  25.612  29.089  14.485
37821W        W97357  39.872  26.538  13.340
37822W        W97358  15.129   0.363   0.800
37823W        W97359  36.367  29.453   0.425
37824W        W97360  29.171  27.465  10.518
37825W        W97361   6.703  38.022  13.917
37826W        W97362  12.137  21.049   3.760
37827W        W97363  37.969   8.654  13.360
37828W        W97364  39.898  44.826  13.465
37829W        W97365  28.597  15.327  12.072
37830W        W97366  10.379  20.662   0.887
37831W        W97367  42.833  25.962  12.458
37832W        W97368  37.523   4.313   0.285
37833W        W97369  12.221  24.107  10.555
37834W        W97370  31.955  29.928  14.369
37835W        W97371  29.159  12.803   0.326
37836W        W97372   2.833  30.586  11.461
37837W        W97373  13.205  12.232   0.933
37838W        W97374  37.996   9.848  14.840
37839W        W97375  26.678  27.993  14.807
37840W        W97376  27.634   4.722  13.381
37841W        W97377  13.845   1.241  14.326
37842W        W97378  40.430   6.202  14.349
37843W        W97379  41.378   5.314  13.393
37844W        W97380   6.192  38.459   2.182
37845W        W97381  35.595  41.026   2.753
37846W        W97382  25.149   5.271   1.872
37847W        W97383  14.194   1.912  13.959
37848W        W97384  23.077  41.818   1.348
37849W        W97385  13.343  36.855   3.803
37850W        W97386   4.404  41.790   2.323
37851W        W97387  39.016  21.071  11.593
37852W        W97388  14.595  16.642  12.457
37853W        W97389   2.941   4.242   4.597
37854W        W97390   4.304  34.585   0.287
37855W        W97391  10.786   9.648   4.211
37856W        W97392   8.283   0.746   4.260
37857W        W97393  35.557   5.828   4.215
37858W        W97394  38.537  21.717  12.529
37859W        W97395   4.369  43.872  13.396
37860W        W97396   6.756  30.019  13.416
37861W        W97397  28.097  34.973  13.857
37862W        W97398  34.108  13.732  11.938
37863W        W97399   2.440  36.497   2.748
37864W        W97400  12.204  13.342   0.263
37865W        W97401   8.252  33.474   2.308
37866W        W97402  16.131  12.120  13.530
37867W        W97403  29.513  14.615  13.998
37868W        W97404  14.223  17.557  14.374
37869W        W97405  27.619  32.598   3.230
37870W        W97406  22.154  43.868  13.915
37871W        W97407   1.349  44.763  14.368
37872W        W97408  36.917  22.125  11.922
37873W        W97409  13.144  21.126  13.994
37874W        W97410   5.864  33.895  13.930
37875W        W97411  16.600  21.131   0.255
37876W        W97412  20.567  42.887   1.867
37877W        W97413   6.275  20.750   0.264
37878W        W97414  28.508   0.987  13.354
37879W        W97415  43.997  37.497  10.562
37880W        W97416  32.105  20.051   3.769
37881W        W97417  19.043  32.905  13.394
37882W        W97418  34.606  37.068   3.707
37883W        W97419  19.588  19.693   2.679
37884W        W97420   4.270  43.952  12.365
37885W        W97421  14.764  12.782   0.735
37886W        W97422   5.704  14.825   4.814
37887W        W97423  23.589  17.205   4.675
37888W        W97424  44.274  30.472   4.791
37889W        W97425   8.207  39.391  10.565
37890W        W97426  27.196  17.652  13.873
37891W        W97427   3.923   0.932  10.942
37892W        W97428  17.706  26.205  13.430
37893W        W97429  25.477  23.104  13.387
37894W        W97430  22.534  41.042  12.443
37895W        W97431   6.276   5.812  10.063
37896W        W97432  26.616  38.547   1.288
37897W        W97433  37.507  35.598   1.420
37898W        W97434  43.330  36.452   1.933
37899W        W97435  34.472  43.314  11.446
37900W        W97436  16.269  44.834   0.343
37901W        W97437  29.087  19.619  13.398
37902W        W97438  14.714  22.530  13.831
37903W        W97439  21.733  39.909   1.696
37904W        W97440  25.028  12.293   3.314
37905W        W97441  36.387   3.876   4.225
37906W        W97442  10.875  43.344   3.855
37907W        W97443  25.072  13.247  14.315
37908W        W97444  37.411  28.984  12.496
37909W        W97445   7.250  35.078  14.280
37910W        W97446  25.709   1.431  14.980
37911W        W97447  27.633  42.333   2.833
37912W        W97448   9.685  11.774   3.236
37913W        W97449  35.954  28.543   4.800
37914W        W97450  17.248  30.071  14.787
37915W        W97451  30.069  21.022   1.374
37916W        W97452  34.881  40.440  11.885
37917W        W97453  29.999  26.960   4.724
37918W        W97454   6.335  17.068   3.798
37919W        W97455   3.767  35.499   3.786
37920W        W97456  32.930  14.649   0.375
37921W        W97457  12.711  26.968  14.825
37922W        W97458  19.644  21.233  11.474
37923W        W97459   7.364  34.577  11.380
37924W        W97460   2.825   6.416  11.569
37925W        W97461  36.988  31.442   2.742
37926W        W97462  29.991  41.368  11.565
37927W        W97463  16.163  21.126   2.190
37928W        W97464  21.188   3.888  13.954
37929W        W97465  33.966  33.899  11.054
37930W        W97466  27.679  23.501   0.420
37931W        W97467  23.048  22.715   0.814
37932W        W97468  42.281  19.652  11.087
37933W        W97469  41.355  11.242  10.077
37934W        W97470  36.080  43.350   0.254
37935W        W97471  26.009  16.733   1.419
37936W        W97472  41.355   0.424   0.795
37937W        W97473  44.290   0.876  10.539
37938W        W97474  10.696  41.538  12.523
37939W        W97475   8.766   3.260   0.903
37940W        W97476  40.035   7.185   4.234
37941W        W97477  20.225  33.421  14.442
37942W        W97478  44.769  37.003   4.788
37943W        W97479   8.664  22.247   2.276
37944W        W97480  31.087  41.440  13.838
37945W        W97481   0.295  17.069   1.403
37946W        W97482  33.563   3.917   4.246
37947W        W97483  16.212  16.072   0.937
37948W        W97484  12.818  19.172   4.177
37949W        W97485  24.581  21.028   4.229
37950W        W97486  23.066  25.663  12.890
37951W        W97487  19.074  13.691  13.852
37952W        W97488  32.038   8.404   3.791
37953W        W97489  16.640  17.236   2.834
37954W        W97490  28.667  27.108   5.257
37955W        W97491  37.068  20.242  10.436
37956W        W97492  33.129  42.371   2.752
37957W        W97493  24.004  15.594  14.304
37958W        W97494   3.368  12.298  14.390
37959W        W97495  41.873  38.943  10.145
37960W        W97496   6.795  11.207   4.827
37961W        W97497  39.921  33.994   4.719
37962W        W97498  31.085  32.967   2.846
37963W        W97499  32.976  24.622   3.740
37964W        W97500  30.943   4.212   0.868
37965W        W97501  32.921  10.788   0.816
37966W        W97502  19.141   2.405  14.878
37967W        W97503  36.933  38.492  14.843
37968W        W97504  15.600  24.707   0.920
37969W        W97505  15.228  36.587   0.289
37970W        W97506  35.873  20.638   2.668
37971W        W97507  17.291  20.733  12.853
37972W        W97508   5.390  43.470   2.259
37973W        W97509  19.690  36.087  13.328
37974W        W97510  24.537  19.605  11.066
37975W        W97511  11.656  21.536   3.233
37976W        W97512  33.558  15.275   4.124
37977W        W97513   4.399  21.186   1.699
37978W        W97514  17.100  16.570   2.406
37979W        W97515  40.925   2.802   9.551
37980W        W97516  11.266  15.777  11.443
37981W        W97517  34.033   2.875  13.407
37982W        W97518  20.709  18.716   3.264
37983W        W97519  15.326  24.629  11.520
37984W        W97520  14.260  21.082   5.095
37985W        W97521  21.596  20.719  13.355
37986W        W97522  22.068  22.596  10.497
37987W        W97523  15.299   4.805  10.644
37988W        W97524   8.168  30.046   1.258
37989W        W97525   3.373  44.765   1.423
37990W        W97526  15.630  39.056  12.880
37991W        W97527   2.836  27.183  12.874
37992W        W97528  30.461  27.150  12.079
37993W        W97529   9.313  23.138  12.852
37994W        W97530  27.467  17.189  13.048
37995W        W97531  37.436  37.939   2.705
37996W        W97532  38.463   2.328   1.817
37997W        W97533  31.581  15.230   4.729
37998W        W97534  28.640   7.861   4.601
37999W        W97535  23.527  32.551   4.231
38000W        W97536  12.165   2.911   4.281
38001W        W97537  31.518  24.487   1.824
38002W        W97538  43.403  43.000   4.229
38003W        W97539  19.199  44.498  11.047
38004W        W97540  42.787  19.278  13.520
38005W        W97541  22.634  30.015   2.888
38006W        W97542  14.654  24.622  14.404
38007W        W97543  19.698  37.866  13.835
38008W        W97544  36.453  20.678   0.747
38009W        W97545  25.970  13.621  14.847
38010W        W97546   3.369  24.033  14.417
38011W        W97547   0.782  14.740  13.507
38012W        W97548  39.529  29.986  13.330
38013W        W97549  43.328  21.119  10.992
38014W        W97550  43.412  23.581   1.219
38015W        W97551  18.775  21.222  14.288
38016W        W97552  11.161  17.306   3.759
38017W        W97553  31.150  40.816   2.415
38018W        W97554  21.553  30.134  10.640
38019W        W97555  44.376  36.851   0.843
38020W        W97556  23.228  18.566   0.880
38021W        W97557   2.311  16.694  10.601
38022W        W97558  31.919  13.151  12.414
38023W        W97559   0.341  38.886   0.244
38024W        W97560  25.021   0.482   1.911
38025W        W97561  35.458  21.191   0.328
38026W        W97562  19.255  31.913  14.026
38027W        W97563  34.527   5.284  14.313
38028W        W97564  11.803  40.332  12.832
38029W        W97565  31.977  33.072  13.447
38030W        W97566   8.867  13.666   1.775
38031W        W97567   5.332  35.505  12.085
38032W        W97568  19.124   9.338   4.322
38033W        W97569   9.864  18.251  13.462
38034W        W97570   0.900  34.895  12.057
38035W        W97571   6.883  40.394  10.901
38036W        W97572  28.615  44.455  11.952
38037W        W97573  24.540   9.170   3.373
38038W        W97574  29.512  40.508   1.881
38039W        W97575  14.211  34.873   1.848
38040W        W97576  36.890  11.141  13.860
38041W        W97577  14.245  26.557   1.227
38042W        W97578  37.990  13.212   2.382
38043W        W97579  10.161  37.391   2.298
38044W        W97580  12.353  10.283  14.006
38045W        W97581   3.431   9.275   0.327
38046W        W97582  21.047  28.090   3.636
38047W        W97583  42.388  13.349   1.924
38048W        W97584  37.441  21.052  12.485
38049W        W97585  18.607   7.382   2.225
38050W        W97586   5.896   9.313  14.376
38051W        W97587  40.975   4.278   2.813
38052W        W97588  22.020   9.878   1.934
38053W        W97589  25.505   5.739  11.924
38054W        W97590  25.537  29.127  13.414
38055W        W97591   4.250  43.487  10.621
38056W        W97592  12.320   4.295  12.556
38057W        W97593  13.617  23.533  13.868
38058W        W97594  19.670  15.803   2.896
38059W        W97595  14.135  32.437  14.927
38060W        W97596   9.884   2.441   0.757
38061W        W97597   2.382  11.806   0.927
38062W        W97598  42.469  26.084   0.858
38063W        W97599  40.480  11.689   0.940
38064W        W97600  29.435  15.264   3.789
38065W        W97601   4.793  41.364   2.890
38066W        W97602  24.025  22.550  11.914
38067W        W97603  24.688  34.468  14.444
38068W        W97604   7.180  36.494   0.738
38069W        W97605  13.147   6.249   5.290
38070W        W97606  24.185  38.392   5.256
38071W        W97607   2.369  16.715   1.929
38072W        W97608  18.562   2.307   4.703
38073W        W97609  30.108   9.787  11.410
38074W        W97610   4.436  17.580  12.990
38075W        W97611  12.784  31.542  11.971
38076W        W97612   9.827  12.160   1.218
38077W        W97613  22.733  15.583  12.414
38078W        W97614  19.150  33.907  11.593
38079W        W97615  20.633  23.727   0.424
38080W        W97616   3.362  33.985  12.068
38081W        W97617  14.297   9.790   4.226
38082W        W97618  24.725  33.556  11.947
38083W        W97619  14.637  33.482   2.679
38084W        W97620  13.342  40.911   0.435
38085W        W97621  30.658   4.221  12.995
38086W        W97622  31.929  12.160  13.540
38087W        W97623  17.631   8.792   1.357
38088W        W97624  38.887  21.057   3.701
38089W        W97625  25.545   4.325  10.466
38090W        W97626  14.240  35.098  12.444
38091W        W97627  44.258  34.600   2.194
38092W        W97628  34.092   5.275   4.251
38093W        W97629  36.025  21.665  12.545
38094W        W97630  18.058  20.556  12.062
38095W        W97631  10.637  37.372  13.960
38096W        W97632  23.194  40.982  10.493
38097W        W97633  31.063  16.317  12.938
38098W        W97634  27.609  33.507   0.465
38099W        W97635  42.952   4.802  10.619
38100W        W97636  27.187  41.838   1.302
38101W        W97637  27.976  12.285  11.453
38102W        W97638  18.645  27.976   4.773
38103W        W97639  37.075  44.777   5.784
38104W        W97640   7.783  18.653   1.254
38105W        W97641  41.951  39.933   1.696
38106W        W97642  30.930  44.372  14.442
38107W        W97643  26.496   5.819   2.849
38108W        W97644  13.671   0.790  13.993
38109W        W97645  36.013   0.975   1.433
38110W        W97646  17.594  24.047  10.119
38111W        W97647  27.640  19.245   3.360
38112W        W97648  27.065  25.218  13.524
38113W        W97649  10.302  29.441  12.458
38114W        W97650  18.112  24.522  11.452
38115W        W97651  35.902  21.050   0.805
38116W        W97652  32.066   6.379   0.273
38117W        W97653  25.630  35.953  13.030
38118W        W97654  44.830  18.237  11.380
38119W        W97655  10.247  22.251   3.735
38120W        W97656  30.523  37.542   3.343
38121W        W97657  38.407  34.476  12.943
38122W        W97658  19.275  36.901   2.849
38123W        W97659  25.133  22.120  10.900
38124W        W97660  14.336   0.773  13.480
38125W        W97661   3.712  22.175   1.747
38126W        W97662  18.547   6.798   0.314
38127W        W97663   1.292   5.418  12.032
38128W        W97664  21.221  19.651  10.958
38129W        W97665  44.391  24.104   4.132
38130W        W97666  38.857  35.896   0.374
38131W        W97667   3.918  37.527   3.287
38132W        W97668  32.990  14.606  12.954
38133W        W97669  37.457  34.594  10.991
38134W        W97670  24.554  21.758   3.634
38135W        W97671  14.675  34.080   0.365
38136W        W97672  22.608  33.127  12.975
38137W        W97673  34.513  39.953   3.179
38138W        W97674   6.313  29.134  11.568
38139W        W97675  35.604  20.526  14.451
38140W        W97676  30.971  15.797  11.067
38141W        W97677   5.373  19.718   2.391
38142W        W97678  16.206  17.653   4.202
38143W        W97679  17.127  32.553  13.324
38144W        W97680  31.403  29.437   2.235
38145W        W97681  38.427  41.300  11.990
38146W        W97682  33.052   0.484   4.354
38147W        W97683  27.187  42.354   2.846
38148W        W97684   9.707  26.556  12.564
38149W        W97685  43.287  23.578   4.178
38150W        W97686  15.187  23.134   0.395
38151W        W97687  12.618   0.830   4.185
38152W        W97688  21.513  35.088  13.369
38153W        W97689   0.867  36.865  12.824
38154W        W97690  35.078  44.779   4.638
38155W        W97691  32.627  28.010  14.502
38156W        W97692  30.090  42.901  13.512
38157W        W97693  38.877  27.463   1.440
38158W        W97694   9.788  29.518   2.717
38159W        W97695  33.407  33.876   1.296
38160W        W97696  42.465  21.530   0.908
38161W        W97697   5.260  35.904  12.925
38162W        W97698  27.607  28.103  12.884
38163W        W97699  10.349  20.228   0.395
38164W        W97700  21.207   5.725  11.601
38165W        W97701   2.298  11.855  10.160
38166W        W97702  32.437  14.611  10.417
38167W        W97703   1.895   6.728   0.315
38168W        W97704  35.040  12.341  10.924
38169W        W97705  19.620  39.339  11.102
38170W        W97706  38.485   1.755   5.778
38171W        W97707   3.802  42.928  13.980
38172W        W97708   5.323   7.834   2.798
38173W        W97709  27.468   5.327  14.011
38174W        W97710  39.394  27.687  13.898
38175W        W97711  25.110  32.139   2.236
38176W        W97712  19.182  11.351  11.581
38177W        W97713  25.058  27.083  12.868
38178W        W97714  44.841  18.712   2.242
38179W        W97715  19.281  14.165  11.489
38180W        W97716  38.828  16.637   3.709
38181W        W97717  37.058  39.051  12.980
38182W        W97718   8.351  31.459   3.154
38183W        W97719  37.936  28.157  13.796
38184W        W97720  21.559   0.973  13.032
38185W        W97721  15.728  40.411   2.306
38186W        W97722  20.117  24.030   2.235
38187W        W97723  14.676  10.245  12.935
38188W        W97724  38.973   7.888   3.740
38189W        W97725   0.790  32.540   1.413
38190W        W97726  26.200  30.650   1.870
38191W        W97727  19.275  14.162  14.852
38192W        W97728  41.807  42.389  14.347
38193W        W97729   1.379  38.438  11.918
38194W        W97730  22.679  27.945  12.832
38195W        W97731  27.674  40.812   4.630
38196W        W97732   0.848  41.851  14.960
38197W        W97733  40.429  42.331  14.945
38198W        W97734   3.950  33.424   0.863
38199W        W97735  20.547  17.651  13.875
38200W        W97736  28.157   4.807   4.821
38201W        W97737  12.779   1.426  11.887
38202W        W97738   9.834  26.192   0.809
38203W        W97739   9.866  42.804  11.513
38204W        W97740  18.653   3.229   2.340
38205W        W97741  16.670   6.695   1.701
38206W        W97742  43.018  23.668  12.561
38207W        W97743   2.841  30.082   1.330
38208W        W97744   1.919  18.575  10.498
38209W        W97745   1.733  10.280   4.784
38210W        W97746  17.232   0.254   2.756
38211W        W97747  32.059   4.304  11.972
38212W        W97748  32.043  18.061  12.577
38213W        W97749  18.712  22.108   0.277
38214W        W97750  37.884  23.063   2.181
38215W        W97751  29.164  16.304   3.869
38216W        W97752  23.525   0.848  13.429
38217W        W97753   7.684  43.983   4.184
38218W        W97754   9.659  14.234  14.938
38219W        W97755  40.972  22.080   3.154
38220W        W97756  16.701  17.801   4.193
38221W        W97757  19.763  27.461  13.909
38222W        W97758  19.236  14.332   1.789
38223W        W97759  15.196   6.844   3.662
38224W        W97760  21.147  38.539   3.820
38225W        W97761  40.023  30.477  10.944
38226W        W97762   2.434  44.774  11.488
38227W        W97763  11.195  32.489  12.923
38228W        W97764  20.769  20.729  14.387
38229W        W97765  16.298  24.180  12.505
38230W        W97766  34.045   4.428   4.706
38231W        W97767  19.561   3.737  12.081
38232W        W97768  31.569   4.804  11.889
38233W        W97769  20.222   8.897   0.813
38234W        W97770  38.047   1.847  14.501
38235W        W97771   5.193  20.760   4.313
38236W        W97772  31.920  41.489   1.380
38237W        W97773  44.830   5.367  11.505
38238W        W97774  42.890  26.492   4.703
38239W        W97775  29.644  41.491   3.383
38240W        W97776  44.010  23.133   2.378
38241W        W97777   2.858  33.975   4.761
38242W        W97778  24.570   2.264  14.867
38243W        W97779  33.063  28.142   0.928
38244W        W97780  11.743  16.653  10.106
38245W        W97781  36.438  17.184  12.470
38246W        W97782  32.467  38.934   4.264
38247W        W97783  20.689  15.290  11.020
38248W        W97784  24.080  36.088  13.915
38249W        W97785   0.468  43.492   4.775
38250W        W97786  24.198  16.699   0.920
38251W        W97787   5.365  35.906  13.417
38252W        W97788  32.032  41.409  12.884
38253W        W97789  25.005  32.109  12.861
38254W        W97790  13.297  21.023   3.867
38255W        W97791   3.407  16.080  14.443
38256W        W97792  19.677  41.847   5.190
38257W        W97793   9.870  25.146   5.736
38258W        W97794  26.616  24.175  10.576
38259W        W97795   2.467  22.647   4.229
38260W        W97796  26.552  35.876  14.839
38261W        W97797  18.285  42.943  12.363
38262W        W97798  31.961  32.970   4.200
38263W        W97799   8.260  22.611   2.681
38264W        W97800  34.907  28.077   1.894
38265W        W97801   5.333  26.682  10.982
38266W        W97802  44.863   7.372  14.926
38267W        W97803  38.500  38.874   3.189
38268W        W97804  40.939   2.336   3.637
38269W        W97805  11.322   9.778   0.779
38270W        W97806  37.514  42.876   1.921
38271W        W97807  40.839  40.522   0.803
38272W        W97808  15.151   4.905  10.897
38273W        W97809   5.413   8.811  13.042
38274W        W97810  39.534  28.133  11.988
38275W        W97811  42.379   3.883  11.003
38276W        W97812   8.302  24.022  14.897
38277W        W97813  43.977  22.648  12.960
38278W        W97814  42.798   4.759  14.904
38279W        W97815  23.715  24.183   2.224
38280W        W97816  15.097  11.773   3.348
38281W        W97817  14.714  10.685   9.613
38282W        W97818  34.979  16.313   2.197
38283W        W97819  17.256   8.854  11.512
38284W        W97820  36.349  28.128  12.930
38285W        W97821  16.213  40.928  10.535
38286W        W97822   3.877   1.311   0.933
38287W        W97823   0.821  15.118  13.359
38288W        W97824  22.616  26.574   5.154
38289W        W97825  22.127  24.584  11.570
38290W        W97826  10.310  28.552  12.544
38291W        W97827  32.000  16.239  14.392
38292W        W97828  41.304  26.551   3.835
38293W        W97829  12.141  15.577  14.949
38294W        W97830  15.615  17.800  14.988
38295W        W97831  31.055  34.916   4.825
38296W        W97832  32.536  26.986   3.640
38297W        W97833   9.231  28.463  14.829
38298W        W97834  16.294  11.364  13.443
38299W        W97835  41.353  13.647  14.905
38300W        W97836  33.107  18.786  10.565
38301W        W97837  27.683  41.381   1.291
38302W        W97838   0.248  11.627  13.388
38303W        W97839  30.456   9.270   4.233
38304W        W97840  42.299  36.402   4.667
38305W        W97841  35.863   5.816   2.342
38306W        W97842  20.568  19.202   3.274
38307W        W97843  17.615   1.858  13.056
38308W        W97844  22.173   2.763  12.494
38309W        W97845  37.974  18.647   3.153
38310W        W97846  25.556  10.227   2.687
38311W        W97847  23.084  19.728  10.921
38312W        W97848  19.587  18.064   3.269
38313W        W97849  12.299  30.087   4.284
38314W        W97850  35.077  14.607  14.315
38315W        W97851  31.551  39.933   2.295
38316W        W97852  25.677   8.171   1.892
38317W        W97853  26.598  25.997   4.298
38318W        W97854  23.073  37.023   1.817
38319W        W97855  35.970   8.363  11.520
38320W        W97856  26.464  11.794   2.318
38321W        W97857  42.857  34.370   4.269
38322W        W97858  29.145  38.539  13.850
38323W        W97859  35.576   4.218  14.325
38324W        W97860  34.892  11.810  12.404
38325W        W97861  28.659  29.484   1.372
38326W        W97862  43.325  38.519   2.827
38327W        W97863  23.053   6.219   3.167
38328W        W97864   7.256  17.706   3.706
38329W        W97865  10.838  34.885  10.974
38330W        W97866   4.700  10.152   5.241
38331W        W97867  38.885  17.611   3.189
38332W        W97868  12.718  37.000  14.806
38333W        W97869  16.099  34.381  12.377
38334W        W97870  12.175  39.055  11.073
38335W        W97871  11.658  24.507   5.223
38336W        W97872  22.719  31.968   4.618
38337W        W97873  14.767  42.866   0.482
38338W        W97874  37.577  27.953  14.984
38339W        W97875  42.340  43.916   4.249
38340W        W97876  17.237  13.649   1.378
38341W        W97877   3.257   3.827  11.490
38342W        W97878  41.378   7.709  13.401
38343W        W97879  12.299  31.906   0.809
38344W        W97880  31.643  24.708  11.455
38345W        W97881  27.032  40.018  11.378
38346W        W97882  34.484  29.493   2.346
38347W        W97883  28.569   8.199  10.450
38348W        W97884   6.205  42.474   0.773
38349W        W97885  36.469  23.670   4.190
38350W        W97886  40.531  33.617  14.473
38351W        W97887  22.685  43.408  14.963
38352W        W97888  14.314  22.556  10.596
38353W        W97889  32.492  32.999  12.928
38354W        W97890   5.193  41.500  11.944
38355W        W97891  39.331  35.066  14.782
38356W        W97892   5.795  11.144  14.486
38357W        W97893  16.598  14.596   2.667
38358W        W97894   0.409  34.592   0.869
38359W        W97895  23.126  31.088  11.952
38360W        W97896   0.878  27.144  12.900
38361W        W97897  40.991  33.504  12.004
38362W        W97898  12.276  44.800  12.859
38363W        W97899  40.525  40.353   1.764
38364W        W97900  21.662  40.474   3.713
38365W        W97901   8.858  28.122   1.898
38366W        W97902   9.722   2.879   4.173
38367W        W97903   2.348  21.168   0.392
38368W        W97904   3.717  28.097   2.665
38369W        W97905   3.835  26.997  11.058
38370W        W97906  22.210  31.547   4.174
38371W        W97907  34.891  36.489  11.116
38372W        W97908  10.220  15.800   3.743
38373W        W97909  33.580   6.234   3.265
38374W        W97910  24.616  34.395   0.342
38375W        W97911  44.310  13.191   3.644
38376W        W97912  14.824  20.156  13.984
38377W        W97913  16.576  35.466  12.348
38378W        W97914  18.176   0.409  12.503
38379W        W97915  13.108  30.467  11.866
38380W        W97916  38.001   6.734   3.822
38381W        W97917  27.552  11.742  10.894
38382W        W97918  25.677  36.484  14.513
38383W        W97919  35.491  14.776   2.852
38384W        W97920   1.252   5.893   2.895
38385W        W97921   3.291  13.798  12.082
38386W        W97922  31.631  22.168   0.797
38387W        W97923  14.336  30.650  12.069
38388W        W97924  30.936  28.548  11.580
38389W        W97925  32.001  43.904  11.012
38390W        W97926  15.690  37.504  14.326
38391W        W97927   4.320  27.083   1.271
38392W        W97928   5.790  12.185  12.925
38393W        W97929  40.801  42.795  10.487
38394W        W97930  22.013  12.302   3.867
38395W        W97931   8.677  21.526  10.626
38396W        W97932  10.678  16.268   2.306
38397W        W97933  24.988  16.115   3.751
38398W        W97934  20.608  30.946  11.031
38399W        W97935  28.469  17.555   1.404
38400W        W97936   5.400  31.644  10.641
38401W        W97937  12.359   8.659   1.356
38402W        W97938  44.815   5.917  10.575
38403W        W97939  26.474  22.579  12.059
38404W        W97940  26.465  31.570   2.179
38405W        W97941  34.511   1.899  12.916
38406W        W97942  10.757   2.324  10.479
38407W        W97943  41.898  37.059  10.993
38408W        W97944   2.961  17.107   3.255
38409W        W97945  25.480  14.108   5.116
38410W        W97946  13.146  16.154  14.954
38411W        W97947  18.181  15.260  10.412
38412W        W97948  20.695  42.020  11.905
38413W        W97949  42.848  13.684  14.498
38414W        W97950   0.407  35.470  13.896
38415W        W97951  36.007  12.721   3.776
38416W        W97952  19.267  23.233   0.740
38417W        W97953   6.343  30.923  12.396
38418W        W97954  40.885   4.748  10.472
38419W        W97955  17.061  39.055   2.338
38420W        W97956  42.820  10.217   4.282
38421W        W97957  14.643  32.952  14.389
38422W        W97958  17.696  40.871  12.405
38423W        W97959  41.522   4.889  12.091
38424W        W97960   2.844  33.509  13.546
38425W        W97961  20.261   4.284   3.237
38426W        W97962  13.822  40.016  12.576
38427W        W97963  38.936   1.740   3.386
38428W        W97964   5.216  36.410  10.523
38429W        W97965   3.938   0.902   1.749
38430W        W97966  17.289  32.505  13.890
38431W        W97967  37.545  32.443   1.327
38432W        W97968  40.984  39.004   4.298
38433W        W97969   1.359  28.599   1.701
38434W        W97970  14.834  17.132   2.409
38435W        W97971  34.987  39.385   0.962
38436W        W97972  44.434  27.059  14.023
38437W        W97973  17.077  41.033   4.661
38438W        W97974   9.170  37.402  14.953
38439W        W97975  18.224  16.108  14.836
38440W        W97976  25.585  18.608   2.759
38441W        W97977  39.358  22.697   3.636
38442W        W97978  24.167  40.359   3.236
38443W        W97979  36.568  24.694   5.237
38444W        W97980  35.436  18.211   0.408
38445W        W97981  21.611  20.528   9.930
38446W        W97982  13.815  39.868  10.473
38447W        W97983  13.350  13.186   2.846
38448W        W97984  40.522  32.486  13.791
38449W        W97985  30.997  33.045  12.948
38450W        W97986  38.915  31.556   4.612
38451W        W97987   6.775  11.200  12.528
38452W        W97988  38.440   5.365  11.583
38453W        W97989  22.706   7.674   2.790
38454W        W97990  29.028  37.884   2.851
38455W        W97991  17.657  11.187  13.959
38456W        W97992   6.312  27.965  11.547
38457W        W97993   6.676  21.047  11.101
38458W        W97994  11.185  32.477   1.802
38459W        W97995  33.525   1.837   5.213
38460W        W97996  43.464  10.326   5.657
38461W        W97997  23.143  35.490   2.889
38462W        W97998  25.539  15.617  14.443
38463W        W97999   1.894  27.572   3.752
38464W        W98000  23.527   5.821   4.188
38465W        W98001  33.501   4.268   3.236
38466W        W98002  34.452  25.510  14.871
38467W        W98003  20.572  11.691  12.852
38468W        W98004   6.317  11.206  12.062
38469W        W98005   0.793  10.663   0.333
38470W        W98006  28.988  39.425  14.506
38471W        W98007  13.139  33.576   2.815
38472W        W98008  40.546  14.824   4.741
38473W        W98009  16.280  25.152   3.640
38474W        W98010   6.278   1.910   2.852
38475W        W98011  37.957  22.126   1.869
38476W        W98012   7.725  24.122  14.441
38477W        W98013  14.637  42.862   1.335
38478W        W98014  43.846  32.090   2.331
38479W        W98015  40.818  39.438   0.369
38480W        W98016  17.169  37.372  14.434
38481W        W98017  30.490  22.135   3.806
38482W        W98018   1.243  25.488  12.436
38483W        W98019  13.294   5.248  14.781
38484W        W98020  23.606  22.027   1.257
38485W        W98021  27.598  38.378  14.019
38486W        W98022  24.064  35.085   3.202
38487W        W98023   6.417  11.710   4.705
38488W        W98024  24.008  31.504  13.400
38489W        W98025  35.430  27.601  14.347
38490W        W98026   5.246  27.035   5.594
38491W        W98027  13.126  35.978  13.472
38492W        W98028  34.384  34.538  14.350
38493W        W98029   5.741  10.689   1.884
38494W        W98030  17.738  26.532   1.306
38495W        W98031  41.942  21.169   2.778
38496W        W98032  40.825  11.309  13.371
38497W        W98033  37.537  42.825  12.990
38498W        W98034  35.423  16.184  14.372
38499W        W98035  14.742   7.318   3.341
38500W        W98036  32.609  18.071  11.977
38501W        W98037  25.065  31.139  12.066
38502W        W98038  38.527  19.201   2.739
38503W        W98039  20.129  37.052  13.309
38504W        W98040  44.998  35.961  10.480
38505W        W98041  29.157  14.195   0.770
38506W        W98042   0.350  41.311  14.883
38507W        W98043  40.493  26.497  10.142
38508W        W98044   7.758  18.255  11.986
38509W        W98045   8.330  28.452  11.011
38510W        W98046  44.787  44.820  10.610
38511W        W98047  35.013  35.363   2.841
38512W        W98048  11.699   7.271   2.376
38513W        W98049  11.747  26.117   5.579
38514W        W98050  31.535  24.509  14.834
38515W        W98051  29.642  25.658  11.560
38516W        W98052  14.644   4.699  10.909
38517W        W98053  12.798  32.448  14.372
38518W        W98054  27.162   1.966  14.936
38519W        W98055   1.237  43.492  11.595
38520W        W98056   8.322   1.854  13.811
38521W        W98057  16.720   3.760  12.930
38522W        W98058   9.854  42.849   0.848
38523W        W98059   1.254  18.707   4.313
38524W        W98060  11.364  32.074   5.171
38525W        W98061  33.603  35.358  11.387
38526W        W98062  25.714  10.154  13.515
38527W        W98063  28.540  39.966   3.152
38528W        W98064  31.961  39.852  10.432
38529W        W98065   8.659  19.670   2.732
38530W        W98066  32.066  30.423  14.864
38531W        W98067  41.007  21.223   2.670
38532W        W98068  12.715  26.043  11.540
38533W        W98069  43.961   4.760   0.378
38534W        W98070   5.881  37.563  11.516
38535W        W98071  26.573   5.730  14.359
38536W        W98072  10.177  36.053  14.019
38537W        W98073   1.837  34.605  13.503
38538W        W98074   5.786  12.333  13.794
38539W        W98075  28.026  30.038   3.282
38540W        W98076  42.327   3.852   1.897
38541W        W98077  43.892  34.059  11.867
38542W        W98078   0.393  31.937  13.943
38543W        W98079  12.348  40.394   3.664
38544W        W98080  44.883  21.533  14.762
38545W        W98081  18.176  37.423   1.915
38546W        W98082   1.885  36.386   3.157
38547W        W98083  32.457   2.742  11.914
38548W        W98084   5.221  41.519  12.430
38549W        W98085  42.436  18.635  13.042
38550W        W98086  28.971  32.944   3.733
38551W        W98087  19.186  41.867  14.966
38552W        W98088  18.636  18.116   4.208
38553W        W98089  36.900  31.461  12.033
38554W        W98090  15.142  13.242   2.378
38555W        W98091   7.832  34.890   2.410
38556W        W98092  15.624   8.370   2.792
38557W        W98093  12.734  43.801  13.932
38558W        W98094  25.128  33.917   4.302
38559W        W98095  34.405  16.126   1.426
38560W        W98096  37.018  12.811   4.227
38561W        W98097  15.250  13.826   1.256
38562W        W98098  19.748  17.223  14.864
38563W        W98099  12.264  37.338   4.240
38564W        W98100  33.938  14.210   4.225
38565W        W98101   8.206  43.338   4.620
38566W        W98102  36.407  34.485  12.398
38567W        W98103  32.455  35.404  12.866
38568W        W98104  18.142  42.468  12.047
38569W        W98105   6.390  29.654   3.351
38570W        W98106  26.662  12.639  13.990
38571W        W98107  18.647  29.938  14.372
38572W        W98108  12.236  36.850  10.588
38573W        W98109  40.363  15.793   3.378
38574W        W98110  11.236  24.573  11.605
38575W        W98111  27.049  22.211  12.437
38576W        W98112  21.100  28.952  10.120
38577W        W98113   3.372  11.312   1.821
38578W        W98114  35.920  35.504  13.527
38579W        W98115   8.846  37.448  11.437
38580W        W98116  36.404  28.598  11.068
38581W        W98117   7.759   7.810  12.416
38582W        W98118   7.850   6.734  12.358
38583W        W98119  13.242  27.057   0.753
38584W        W98120  22.127  29.580   0.814
38585W        W98121  42.823  22.517   3.324
38586W        W98122  40.924  26.982   4.233
38587W        W98123   9.326  27.675  11.078
38588W        W98124  26.466  25.993   3.797
38589W        W98125  12.358  22.145  14.341
38590W        W98126  20.070  25.116   0.875
38591W        W98127   4.763  15.581   4.186
38592W        W98128  25.522  41.917  12.031
38593W        W98129  17.080  41.974   0.763
38594W        W98130  24.631  38.486   0.961
38595W        W98131   0.352  16.237  13.999
38596W        W98132   1.416  38.512   1.370
38597W        W98133  35.436  14.623  12.050
38598W        W98134  23.031  31.581  12.863
38599W        W98135   8.753  16.122  12.961
38600W        W98136  30.419  24.595   2.849
38601W        W98137  25.638  13.304   1.845
38602W        W98138  23.113  17.278   9.987
38603W        W98139  12.164  43.940  14.501
38604W        W98140   8.684  42.520  11.578
38605W        W98141  17.095  31.420  14.834
38606W        W98142  11.159  31.101   0.954
38607W        W98143  38.071  38.938   3.645
38608W        W98144  44.780  32.597  14.789
38609W        W98145  17.560  28.624  12.851
38610W        W98146  39.404   8.862   5.240
38611W        W98147  42.489  32.052  10.586
38612W        W98148   9.293   3.402   4.117
38613W        W98149  36.883  44.341   1.876
38614W        W98150  43.503  40.870  13.459
38615W        W98151  24.725  20.248  13.409
38616W        W98152  33.922  39.514  10.450
38617W        W98153  15.241  11.739   0.247
38618W        W98154  30.159  43.841  10.598
38619W        W98155  27.474  36.856   3.669
38620W        W98156   3.373  25.654   2.688
38621W        W98157   4.776  17.731  12.029
38622W        W98158  35.051   3.901   0.459
38623W        W98159  22.144  15.660  11.529
38624W        W98160  23.073  44.418  13.418
38625W        W98161  39.433   7.269   4.293
38626W        W98162  19.692  10.731  12.877
38627W        W98163  22.600  22.703  12.471
38628W        W98164  11.207  40.422   4.287
38629W        W98165   8.162  18.238   2.684
38630W        W98166  29.032  41.966   2.902
38631W        W98167  43.368  26.587   0.822
38632W        W98168   5.760   3.321   5.225
38633W        W98169   2.805  16.624   2.885
38634W        W98170  37.572  17.132  12.988
38635W        W98171  11.797  19.208   2.299
38636W        W98172   8.340   5.215  13.355
38637W        W98173   7.826  25.674   0.256
38638W        W98174  33.014   2.388  13.040
38639W        W98175   7.684  33.479   1.226
38640W        W98176  38.951  22.044  14.444
38641W        W98177  21.100  29.024  11.578
38642W        W98178  32.003   1.297  11.094
38643W        W98179  29.033  41.962  12.546
38644W        W98180  32.562  36.372   2.200
38645W        W98181   1.909  34.109   2.883
38646W        W98182  36.465  11.238  12.009
38647W        W98183  38.918  29.540  11.080
38648W        W98184  18.063  26.098  14.876
38649W        W98185  43.912  39.892  12.899
38650W        W98186  42.354  24.102  10.430
38651W        W98187  32.429  44.282   2.221
38652W        W98188  34.478  38.489  12.856
38653W        W98189  23.055  38.366   1.398
38654W        W98190  27.060   3.436   1.223
38655W        W98191   8.692  40.033   2.801
38656W        W98192   1.780  11.676  14.488
38657W        W98193  30.588  16.189   3.362
38658W        W98194   3.378   7.190  11.450
38659W        W98195   8.884  43.989   1.395
38660W        W98196  24.668  16.284   3.841
38661W        W98197   7.302  26.594   0.807
38662W        W98198  32.067   9.186   1.894
38663W        W98199  21.184  35.949  12.032
38664W        W98200  26.957  29.604   0.364
38665W        W98201  33.004  22.044  12.574
38666W        W98202  27.989  20.546   1.237
38667W        W98203  41.909  24.603   3.861
38668W        W98204  26.488  41.380   2.402
38669W        W98205  29.558   8.676   5.161
38670W        W98206   9.287   0.425  14.910
38671W        W98207  30.917  29.170  14.445
38672W        W98208  34.038  36.386   1.401
38673W        W98209   8.179  29.625   3.822
38674W        W98210  37.517   6.834   4.310
38675W        W98211  37.849  36.538   4.245
38676W        W98212   8.720   5.288  13.308
38677W        W98213  17.657  36.850  12.030
38678W        W98214  42.000  10.221   2.780
38679W        W98215  10.770   5.409   5.215
38680W        W98216  33.481  36.853  13.054
38681W        W98217   8.212  33.096  10.512
38682W        W98218  21.033   1.331   2.384
38683W        W98219  37.461  11.201   0.423
38684W        W98220   6.223  31.099   3.241
38685W        W98221  16.319  32.539  11.497
38686W        W98222  33.006  18.640  12.859
38687W        W98223  32.053  26.626   4.769
38688W        W98224  44.907  21.693   2.707
38689W        W98225  11.275  16.145   1.879
38690W        W98226  20.692  15.696   3.305
38691W        W98227   5.757   6.211  11.398
38692W        W98228  34.017  19.772   4.189
38693W        W98229   3.856  23.562   4.240
38694W        W98230  25.509   2.779   5.090
38695W        W98231  16.081  27.022  13.056
38696W        W98232  12.292  14.707   0.357
38697W        W98233  12.134  29.425  13.443
38698W        W98234  41.828  19.710   2.741
38699W        W98235   2.403  21.517   0.846
38700W        W98236   5.409  32.413   1.326
38701W        W98237   9.275   1.827   4.209
38702W        W98238  13.290  19.770   1.801
38703W        W98239  21.066  35.583   0.812
38704W        W98240  22.590  43.516   3.716
38705W        W98241  44.289  40.405   2.391
38706W        W98242  20.196  41.413   2.845
38707W        W98243   0.293  27.526  13.400
38708W        W98244  37.890  16.600   3.217
38709W        W98245   7.767   4.406   4.802
38710W        W98246   5.764  10.161  12.826
38711W        W98247   4.713  35.938   4.162
38712W        W98248   6.694  30.538  12.404
38713W        W98249  39.518  29.047  11.904
38714W        W98250  28.631  40.338   3.781
38715W        W98251   1.449   9.805  12.864
38716W        W98252  30.546  44.913  14.399
38717W        W98253  23.984  40.486   1.306
38718W        W98254  24.171  40.343   0.423
38719W        W98255  17.128   5.321   0.259
38720W        W98256  16.588  40.372  12.854
38721W        W98257   7.694  28.041   1.826
38722W        W98258  33.115  20.157   4.113
38723W        W98259  30.117  43.901   0.402
38724W        W98260  25.996  37.473   3.761
38725W        W98261  18.170  31.087  11.874
38726W        W98262  25.516  16.690  11.549
38727W        W98263  39.053  17.576  14.777
38728W        W98264   1.241  41.504   2.330
38729W        W98265  35.369   2.883   4.760
38730W        W98266   9.699  40.333   1.379
38731W        W98267  26.662   2.288   4.699
38732W        W98268  22.147  10.643  10.911
38733W        W98269  22.554  14.635  12.047
38734W        W98270  34.594  17.660   1.751
38735W        W98271  31.624  32.045  13.372
38736W        W98272  34.934   2.937   3.292
38737W        W98273  40.436  25.477   1.790
38738W        W98274  33.445  19.133  14.029
38739W        W98275  30.534  33.584  13.332
38740W        W98276  17.782  11.629   2.393
38741W        W98277   0.324  20.215  13.891
38742W        W98278  15.216  33.568  10.961
38743W        W98279  16.108  12.702  12.390
38744W        W98280  21.230  21.125   1.812
38745W        W98281  20.634  39.893  13.458
38746W        W98282  29.429   6.306  13.455
38747W        W98283  39.849  20.621  11.395
38748W        W98284  35.529  18.081  12.052
38749W        W98285  38.414  25.501  13.827
38750W        W98286   9.395   5.360  13.882
38751W        W98287   9.242   1.877   5.142
38752W        W98288  36.518  19.747  14.804
38753W        W98289  43.447  13.683   0.903
38754W        W98290   2.797  20.234  11.456
38755W        W98291  25.690  32.936  14.886
38756W        W98292  44.972  14.754  14.837
38757W        W98293  22.519  20.135   4.193
38758W        W98294   5.930  12.336  14.369
38759W        W98295  35.563  23.615  13.044
38760W        W98296  43.937  25.147  13.526
38761W        W98297   5.400  14.269  11.372
38762W        W98298   5.363   0.357  12.484
38763W        W98299  20.736  11.194  10.481
38764W        W98300  34.017  31.538  11.500
38765W        W98301   1.844  27.027  14.281
38766W        W98302   4.724  18.161   0.290
38767W        W98303  31.609   1.820  11.426
38768W        W98304  44.343  29.504   2.231
38769W        W98305  44.279  24.496  12.982
38770W        W98306  30.125  11.749  11.954
38771W        W98307  11.836  17.670   0.302
38772W        W98308  12.339  24.989   1.394
38773W        W98309  39.824  23.702   3.272
38774W        W98310  20.676  24.665   3.271
38775W        W98311  38.328  17.298   3.710
38776W        W98312  17.656   2.912  14.773
38777W        W98313  20.053  18.265  12.995
38778W        W98314  42.909  31.991  14.377
38779W        W98315  12.276  36.881   4.211
38780W        W98316  11.643  31.043   4.798
38781W        W98317  40.421  21.117  14.294
38782W        W98318   2.863  11.808  10.472
38783W        W98319  26.052  31.510  12.969
38784W        W98320  34.557  41.467   4.792
38785W        W98321  22.099  22.660  12.461
38786W        W98322  39.966  43.767  12.562
38787W        W98323  33.895  16.603  13.820
38788W        W98324  28.041   8.280  13.939
38789W        W98325  38.970  31.011  14.935
38790W        W98326  10.828  44.797  10.497
38791W        W98327   3.224  43.991   4.838
38792W        W98328  16.639  36.437   3.807
38793W        W98329   3.899  12.212   4.167
38794W        W98330   1.287   6.356  10.419
38795W        W98331  42.385  15.278  14.786
38796W        W98332  15.317   5.263   3.860
38797W        W98333  10.185   5.418   1.378
38798W        W98334  34.468  12.708   3.295
38799W        W98335  17.160  36.030  12.025
38800W        W98336  11.314   3.398   1.922
38801W        W98337  26.137  37.393  10.977
38802W        W98338  25.137  21.188   2.309
38803W        W98339   1.403  37.429  13.853
38804W        W98340  10.329  29.146  14.031
38805W        W98341   5.253  17.182  11.428
38806W        W98342  12.769  14.796  14.964
38807W        W98343  18.277  44.758  10.488
38808W        W98344  12.180  34.955  14.402
38809W        W98345  24.098  12.734  10.056
38810W        W98346  30.996   7.340   0.749
38811W        W98347  21.229   8.767   0.958
38812W        W98348   2.753  38.425   2.269
38813W        W98349  14.759  30.461   5.194
38814W        W98350  11.154  40.999  10.481
38815W        W98351  32.993  38.872  12.342
38816W        W98352  20.036  20.607  11.375
38817W        W98353   4.901  39.409  10.412
38818W        W98354  38.921  11.765   3.237
38819W        W98355  19.683  36.023  11.086
38820W        W98356  22.635  10.144  11.868
38821W        W98357   3.849  26.058  11.971
38822W        W98358  23.563   6.428   0.383
38823W        W98359  28.995   9.182  14.812
38824W        W98360  44.909  23.152   2.844
38825W        W98361   5.854  37.837   2.258
38826W        W98362   7.845  12.249  14.466
38827W        W98363  22.689  19.594   3.320
38828W        W98364   9.655  26.025  13.890
38829W        W98365  37.931  18.713  11.500
38830W        W98366  14.787  37.492   1.830
38831W        W98367   2.805   2.346   2.326
38832W        W98368  37.080   9.720  12.513
38833W        W98369  15.184  28.070   3.747
38834W        W98370  38.394  31.560  11.457
38835W        W98371  26.198   6.366  12.497
38836W        W98372  32.961  11.678   0.877
38837W        W98373   3.356  22.211  12.404
38838W        W98374  44.294  32.055  11.512
38839W        W98375  40.375  19.279   1.337
38840W        W98376  34.021  34.442  12.478
38841W        W98377  44.821  18.087   1.777
38842W        W98378   5.879  43.016   4.631
38843W        W98379  37.408  39.855  13.545
38844W        W98380  42.456  43.462   0.828
38845W        W98381  24.609  10.848  12.426
38846W        W98382  20.723   2.355   2.854
38847W        W98383  20.558  19.127   9.486
38848W        W98384  31.910  37.033   4.197
38849W        W98385  21.625  10.867  10.519
38850W        W98386   7.258   2.291   3.213
38851W        W98387   5.425  41.422   2.709
38852W        W98388  17.600   0.350   3.739
38853W        W98389   0.778  27.124   0.795
38854W        W98390   4.292  24.994  14.796
38855W        W98391   8.220  30.584  12.430
38856W        W98392  27.976  31.054  11.099
38857W        W98393  43.353  24.575  13.417
38858W        W98394  13.181  44.502  13.901
38859W        W98395   3.450  35.358   3.148
38860W        W98396  20.619  30.024   0.800
38861W        W98397  28.011   7.389   2.330
38862W        W98398  39.843  43.809  12.985
38863W        W98399   8.838   6.837   4.130
38864W        W98400  16.625  30.524  12.339
38865W        W98401  27.172  29.938  14.342
38866W        W98402   1.329  18.648  13.329
38867W        W98403  20.587  38.551   9.627
38868W        W98404  26.141  39.420   3.823
38869W        W98405   9.831   5.429   4.331
38870W        W98406  14.664  30.451  14.771
38871W        W98407  14.816  31.897  10.041
38872W        W98408  40.424  26.524   3.282
38873W        W98409   8.737  22.533   4.723
38874W        W98410   6.894   8.209  13.980
38875W        W98411   8.806   9.887  14.308
38876W        W98412  43.447  14.824   2.866
38877W        W98413  10.235  42.507  10.948
38878W        W98414  18.174   0.394   3.199
38879W        W98415  14.824  27.689   4.597
38880W        W98416  33.435  19.246   4.733
38881W        W98417  15.747  41.809   0.372
38882W        W98418  30.415  23.989   2.276
38883W        W98419  11.776  25.170  11.870
38884W        W98420  38.920   9.329   4.681
38885W        W98421  11.694   4.235   3.846
38886W        W98422   2.914  15.244  13.011
38887W        W98423   7.910  35.496  14.808
38888W        W98424  11.691  31.620  13.027
38889W        W98425  36.879  24.172   4.772
38890W        W98426   3.833  10.271  12.871
38891W        W98427   8.396  31.970  12.866
38892W        W98428  34.979   8.725   2.240
38893W        W98429  37.849  24.496  10.423
38894W        W98430  36.077   9.743   1.815
38895W        W98431  10.798  16.140  10.988
38896W        W98432  24.483   3.789   0.460
38897W        W98433  18.280   5.916   0.421
38898W        W98434  27.105   4.887   4.153
38899W        W98435  23.502  31.950   5.193
38900W        W98436  20.545  44.454   2.820
38901W        W98437  35.858  13.317   4.213
38902W        W98438   6.274  16.230  14.950
38903W        W98439   4.800   0.828   5.299
38904W        W98440   2.960  16.657   0.319
38905W        W98441  32.490  22.034  11.085
38906W        W98442   5.248   4.709   4.655
38907W        W98443  44.490  33.474  13.360
38908W        W98444  40.443  24.194  12.839
38909W        W98445  40.369  23.527  10.894
38910W        W98446  16.278  22.123  10.926
38911W        W98447  26.573  21.114  14.864
38912W        W98448  40.903  16.763  14.434
38913W        W98449  24.534  24.630  11.587
38914W        W98450  35.015   8.860   3.285
38915W        W98451   2.241  23.528   0.424
38916W        W98452  42.831  17.661   3.252
38917W        W98453   1.816  31.594   1.711
38918W        W98454  27.019  37.346  13.957
38919W        W98455  10.189  42.386  14.851
38920W        W98456  14.609   6.186  12.088
38921W        W98457   8.685  27.070  14.513
38922W        W98458  20.522  28.540   4.317
38923W        W98459  24.018  34.986   3.743
38924W        W98460   7.875  40.958   1.852
38925W        W98461  31.513  41.866  12.865
38926W        W98462   9.151  34.895  13.409
38927W        W98463  42.997  33.074  13.496
38928W        W98464   0.488  30.136   4.242
38929W        W98465   8.244   5.737   1.332
38930W        W98466  14.800  17.243   4.770
38931W        W98467   1.367   2.422  11.943
38932W        W98468  10.326  10.637   0.249
38933W        W98469  14.260   7.286   3.858
38934W        W98470   0.352  37.059  10.433
38935W        W98471   9.680  14.332   3.810
38936W        W98472   8.265   9.743   9.436
38937W        W98473   9.301  18.571  11.410
38938W        W98474  26.469  44.908  11.014
38939W        W98475  29.062   5.691  14.991
38940W        W98476  28.464  33.601  14.822
38941W        W98477  44.924  42.931  13.349
38942W        W98478  42.920  25.543  13.986
38943W        W98479   9.834  41.965   0.384
38944W        W98480  37.075   4.372   3.854
38945W        W98481  43.928  43.287  11.110
38946W        W98482  37.906  21.618   2.240
38947W        W98483  33.011  34.371  14.402
38948W        W98484  32.108  21.179   2.257
38949W        W98485   6.227  24.140   1.215
38950W        W98486  39.401  12.796   1.935
38951W        W98487  31.576  22.177   1.318
38952W        W98488   6.725  39.523  11.098
38953W        W98489  16.168  10.250  13.995
38954W        W98490  30.044  28.629   2.309
38955W        W98491  39.897  24.091   3.226
38956W        W98492  44.449  44.478  14.380
38957W        W98493   4.833  22.715  11.075
38958W        W98494  28.093  25.685  12.966
38959W        W98495  40.019  32.046  10.552
38960W        W98496  28.996  40.498  12.554
38961W        W98497  20.588  12.829  10.431
38962W        W98498  43.903  32.000   3.842
38963W        W98499   4.783  13.187   2.186
38964W        W98500  32.001   7.787   2.293
38965W        W98501  31.456   6.257  10.973
38966W        W98502  34.569  24.613  11.082
38967W        W98503  13.729  10.745   0.766
38968W        W98504  32.481  41.808  13.018
38969W        W98505  27.175  13.802  11.950
38970W        W98506   4.896  30.032  13.026
38971W        W98507  26.577  10.283  10.551
38972W        W98508  16.111  24.592   3.827
38973W        W98509   6.769   0.400  10.448
38974W        W98510  23.197   5.333  11.558
38975W        W98511  40.470   7.718   1.303
38976W        W98512  22.173  31.546  11.608
38977W        W98513  15.306   9.195  11.090
38978W        W98514  18.065  33.423  12.542
38979W        W98515   1.275   8.677  10.466
38980W        W98516  10.366  32.614  11.060
38981W        W98517   0.379   7.842   3.344
38982W        W98518  21.748  10.174  11.902
38983W        W98519  10.235   5.366   2.261
38984W        W98520  29.582  19.188  13.022
38985W        W98521   5.913  36.984   4.759
38986W        W98522  30.464  18.709   1.803
38987W        W98523  10.689  11.142  13.845
38988W        W98524  27.941  12.618  11.075
38989W        W98525  39.416  37.842  12.421
38990W        W98526   4.847   7.172  11.909
38991W        W98527  35.041  10.816   1.758
38992W        W98528  20.229   5.237  14.977
38993W        W98529   8.682   9.887   9.499
38994W        W98530  14.781  37.964  14.825
38995W        W98531  10.376   2.786   4.756
38996W        W98532  40.913  16.725  12.463
38997W        W98533  16.793   3.294   4.606
38998W        W98534  23.050  43.488  11.867
38999W        W98535  43.367  28.536  11.032
39000W        W98536  25.590   5.326  13.039
39001W        W98537  40.859  38.399   4.309
39002W        W98538  29.114  42.002   3.738
39003W        W98539  12.623  26.694   4.145
39004W        W98540  26.189  21.131   5.162
39005W        W98541   8.300  40.009  13.859
39006W        W98542   2.951  37.978   3.711
39007W        W98543  22.045  19.070   2.294
39008W        W98544   5.786  32.427  14.283
39009W        W98545  32.079   8.823   3.769
39010W        W98546  30.960  23.510  13.415
39011W        W98547  27.553   1.937   4.808
39012W        W98548  33.554   4.341  14.903
39013W        W98549  13.755  13.798  13.388
39014W        W98550  24.078  38.509  10.946
39015W        W98551  35.864  27.616   4.716
39016W        W98552   6.686   9.199  12.886
39017W        W98553  31.044   0.340  14.515
39018W        W98554  23.121   0.899   2.308
39019W        W98555  31.616  31.971  10.617
39020W        W98556   1.806  33.425  14.359
39021W        W98557   3.804   1.827  10.985
39022W        W98558  17.258  42.014  12.904
39023W        W98559  31.412  42.021   4.834
39024W        W98560  37.473   9.165   1.914
39025W        W98561   0.271  22.569   1.824
39026W        W98562  20.104  20.231  14.030
39027W        W98563  14.095  43.344  12.401
39028W        W98564  12.147  12.151   2.834
39029W        W98565  19.627  29.051   3.273
39030W        W98566  33.989   1.760  14.405
39031W        W98567  41.338   7.685  11.942
39032W        W98568  18.112  20.082  13.532
39033W        W98569   1.471  29.010   4.263
39034W        W98570  10.662   2.830   1.295
39035W        W98571  39.318  19.600  12.831
39036W        W98572  35.072  15.089  12.964
39037W        W98573  13.610   8.821   0.967
39038W        W98574  24.542  44.320  12.067
39039W        W98575  33.516   9.791   3.331
39040W        W98576  35.590  28.087   2.267
39041W        W98577  32.106  33.563   2.259
39042W        W98578   4.267  27.101  10.643
39043W        W98579  24.138  11.840  11.934
39044W        W98580  24.990  41.909  11.867
39045W        W98581  11.203  22.557  11.523
39046W        W98582  35.106  44.903  13.367
39047W        W98583  19.127   8.365   3.812
39048W        W98584   6.269   8.361   2.671
39049W        W98585  23.089  12.338   0.279
39050W        W98586  39.924   5.931   3.217
39051W        W98587   0.268  20.057   3.157
39052W        W98588  44.341  22.527  10.605
39053W        W98589  22.558  15.190  12.891
39054W        W98590  27.087  24.083   2.796
39055W        W98591   4.768  11.173   3.290
39056W        W98592  24.178   9.757  13.940
39057W        W98593  20.540   0.918  12.864
39058W        W98594  25.560  14.306   3.822
39059W        W98595  11.634  18.168  13.016
39060W        W98596  12.814  42.809   5.107
39061W        W98597  36.572  12.330   4.835
39062W        W98598   1.867   2.829   0.845
39063W        W98599   0.960  16.665   2.848
39064W        W98600   6.407  14.303  11.084
39065W        W98601  42.876   7.396   2.322
39066W        W98602   4.816  13.242  12.415
39067W        W98603  43.864  31.904   4.680
39068W        W98604  16.239   4.892   0.468
39069W        W98605  31.482  28.104  13.874
39070W        W98606   6.746  34.048  13.333
39071W        W98607  22.027  13.637  13.326
39072W        W98608  12.720  23.566  11.898
39073W        W98609  34.540   4.828  12.937
39074W        W98610  31.912  11.294   2.324
39075W        W98611  18.192   6.308  11.528
39076W        W98612  17.678  30.948  12.948
39077W        W98613  27.106  25.975   4.606
39078W        W98614   2.927  17.662  13.537
39079W        W98615  19.585  10.262  14.506
39080W        W98616  15.741   9.697   2.809
39081W        W98617  31.019  20.129  11.038
39082W        W98618   6.358  26.532  12.996
39083W        W98619  25.473  40.374  10.962
39084W        W98620  11.153  23.722   4.615
39085W        W98621  42.805  39.947   0.794
39086W        W98622  31.501  25.126  13.922
39087W        W98623  39.390  29.950   4.610
39088W        W98624  40.459  23.550  12.088
39089W        W98625  32.951  11.713   1.842
39090W        W98626  22.152  30.451  10.425
39091W        W98627  19.655   8.818  12.835
39092W        W98628  40.467  30.647   0.264
39093W        W98629   5.354  34.375   1.329
39094W        W98630  11.263  36.973  13.464
39095W        W98631  17.127  16.250  14.501
39096W        W98632   6.231  12.230  14.957
39097W        W98633   6.400  14.240   3.163
39098W        W98634   9.802   3.789   3.764
39099W        W98635  32.510  35.426   1.783
39100W        W98636  37.432  12.144  14.951
39101W        W98637  29.547   9.647  11.480
39102W        W98638  18.273   4.375   2.697
39103W        W98639  19.188  15.818   4.635
39104W        W98640  23.532  33.418  13.844
39105W        W98641   4.760  17.794  10.920
39106W        W98642   9.801  16.167  12.373
39107W        W98643  43.327  20.125   0.343
39108W        W98644  17.618  24.184   3.731
39109W        W98645  42.328   4.317  14.380
39110W        W98646  18.179  44.447  11.978
39111W        W98647  37.389  41.960  10.497
39112W        W98648  21.142  43.994  13.913
39113W        W98649  38.415  29.553   4.810
39114W        W98650  33.536   1.245  12.000
39115W        W98651  12.246  37.080   3.717
39116W        W98652  21.512   5.271   3.378
39117W        W98653  31.899   5.367  13.539
39118W        W98654  25.673  36.097  12.374
39119W        W98655  26.640   1.369  11.932
39120W        W98656  29.075  44.779  13.317
39121W        W98657  22.703  23.504  11.384
39122W        W98658   4.280  23.024   1.236
39123W        W98659  29.502  23.043  12.943
39124W        W98660  32.605  15.820  14.451
39125W        W98661  27.052  15.606   2.391
39126W        W98662  43.796  32.435   3.234
39127W        W98663  20.144  10.371   0.310
39128W        W98664  39.335  22.113  11.529
39129W        W98665  25.219  26.123  14.941
39130W        W98666  43.446  33.510   3.695
39131W        W98667  21.728  20.050  13.952
39132W        W98668  22.149   7.170  13.997
39133W        W98669  28.595  12.225  13.536
39134W        W98670  11.261  27.539  10.489
39135W        W98671  28.948  28.537  14.862
39136W        W98672  14.264  12.223  12.993
39137W        W98673  35.904  37.348  13.414
39138W        W98674  26.119  25.197  14.950
39139W        W98675   6.710  35.030   4.640
39140W        W98676  24.525  27.962   2.343
39141W        W98677   0.388  43.311   2.265
39142W        W98678  16.206  33.903  12.906
39143W        W98679   8.821  27.593  13.850
39144W        W98680  21.731   8.233   3.645
39145W        W98681  19.639  17.578  14.451
39146W        W98682  19.048  43.796   2.256
39147W        W98683   2.298  24.554   3.209
39148W        W98684  30.417  28.964   4.622
39149W        W98685  38.843  32.558  12.385
39150W        W98686  13.284   8.377   4.712
39151W        W98687  39.360  41.968   1.375
39152W        W98688  25.968  17.755  12.827
39153W        W98689  29.634   2.294  14.835
39154W        W98690   4.235  43.945   2.357
39155W        W98691   9.352  25.068  11.585
39156W        W98692  10.791  41.381  14.484
39157W        W98693  30.942   6.231   0.440
39158W        W98694  36.393  35.865  13.359
39159W        W98695  41.492  16.143   2.893
39160W        W98696   3.405  26.517  14.418
39161W        W98697  39.482  18.195   2.406
39162W        W98698  10.179  21.704   2.251
39163W        W98699  10.775   3.790  12.084
39164W        W98700  20.739  38.408  12.836
39165W        W98701   6.711  36.847   0.949
39166W        W98702  25.699  38.825  14.930
39167W        W98703  14.589   3.752  13.403
39168W        W98704  39.966  20.634   4.185
39169W        W98705  25.700  29.963  13.315
39170W        W98706  32.103  40.478   4.218
39171W        W98707  23.111   1.308  12.546
39172W        W98708  29.560   3.294  10.902
39173W        W98709  34.053  44.447   1.901
39174W        W98710  19.104   6.677  11.503
39175W        W98711  32.895  32.955   4.247
39176W        W98712  42.450  32.476  11.428
39177W        W98713  44.469   9.690   0.939
39178W        W98714   4.789   4.211  13.357
39179W        W98715   8.224  41.994   0.425
39180W        W98716  13.120  42.028   3.363
39181W        W98717   5.381   1.410   0.933
39182W        W98718  27.547  20.528  10.923
39183W        W98719  23.209  10.355  11.926
39184W        W98720  26.099  42.913  12.939
39185W        W98721  31.484  19.075   4.648
39186W        W98722   9.879   0.278   1.230
39187W        W98723  24.546  29.449  12.013
39188W        W98724  17.129  23.985  12.013
39189W        W98725  25.119  39.425  10.529
39190W        W98726   5.393  33.470  11.464
39191W        W98727  26.525  19.054  11.545
39192W        W98728  19.771  13.267   5.139
39193W        W98729  17.199  32.971   4.813
39194W        W98730  44.990  30.992   2.314
39195W        W98731   9.191   2.336  12.978
39196W        W98732  17.149  10.792  11.483
39197W        W98733  20.031   1.428  11.609
39198W        W98734  21.245  28.477   0.470
39199W        W98735  20.628  19.148  14.848
39200W        W98736   0.410   7.878  11.375
39201W        W98737  33.536  18.081  11.950
39202W        W98738  15.654  14.633  11.087
39203W        W98739  32.006  33.542  10.960
39204W        W98740   5.856  43.012  10.442
39205W        W98741   6.392  20.246   2.758
39206W        W98742  23.157  44.999  13.892
39207W        W98743  27.097  41.834  12.003
39208W        W98744  24.593  15.326   9.982
39209W        W98745  33.916   2.380  10.943
39210W        W98746  40.005  16.601   3.694
39211W        W98747   9.832  25.558  14.802
39212W        W98748  20.158  20.705  13.856
39213W        W98749   6.915  13.155  12.836
39214W        W98750  41.016  36.423  14.835
39215W        W98751  30.530  35.543  14.439
39216W        W98752  21.514   8.194  10.930
39217W        W98753  19.599  16.597  10.531
39218W        W98754  22.528  39.815  12.851
39219W        W98755  22.639  10.874  14.766
39220W        W98756   4.803  34.987   1.699
39221W        W98757   5.840  24.498   2.827
39222W        W98758  20.140  18.644  12.067
39223W        W98759  30.505  22.533  12.541
39224W        W98760  31.073  35.447  13.326
39225W        W98761  43.980  35.944  14.948
39226W        W98762  29.106  18.234   0.789
39227W        W98763  14.658  22.114  13.018
39228W        W98764  13.133  21.530  13.825
39229W        W98765   5.249  23.692   2.882
39230W        W98766  39.984   3.754  12.544
39231W        W98767  18.291  30.445  12.058
39232W        W98768  32.550  25.510  14.436
39233W        W98769  14.266   2.434  14.427
39234W        W98770  41.413   6.683  14.397
39235W        W98771  14.238  29.058   9.922
39236W        W98772  29.583   4.278  12.946
39237W        W98773  21.206  19.550   3.778
39238W        W98774  44.991  30.139  12.085
39239W        W98775   4.207   8.263   4.800
39240W        W98776  18.232   5.371  14.374
39241W        W98777  41.000  29.078   2.673
39242W        W98778  40.027  24.717  13.864
39243W        W98779   3.942  32.562  10.580
39244W        W98780  15.777  24.135   1.841
39245W        W98781  33.977  17.575  11.516
39246W        W98782  35.973  18.133  10.980
39247W        W98783  24.006  21.735   1.216
39248W        W98784  21.634   9.177   2.233
39249W        W98785  32.414  32.575   4.200
39250W        W98786   1.308  28.119  12.949
39251W        W98787  30.647  21.029   2.366
39252W        W98788  41.044  35.004  13.944
39253W        W98789   6.213  18.283  12.443
39254W        W98790  42.453  25.160  10.939
39255W        W98791   6.916  31.127   1.302
39256W        W98792  42.525  19.076  14.405
39257W        W98793  24.639  33.498   0.250
39258W        W98794  13.790  19.550  13.040
39259W        W98795  19.095  13.342   0.811
39260W        W98796  41.815  23.562  10.108
39261W        W98797   9.869  13.349   3.218
39262W        W98798  28.090  32.995  12.377
39263W        W98799  11.707  43.881   3.864
39264W        W98800   5.301  14.750   3.811
39265W        W98801  28.047  23.492   1.913
39266W        W98802   8.775  31.039   1.362
39267W        W98803  43.348  30.486   5.216
39268W        W98804  36.095   2.463  12.522
39269W        W98805  41.854   6.205  10.119
39270W        W98806   6.767   5.695  14.903
39271W        W98807   2.242  14.118   0.280
39272W        W98808   8.662  21.051   5.177
39273W        W98809  16.626  23.638   1.756
39274W        W98810   2.304  16.785  14.318
39275W        W98811   0.322   3.827  12.829
39276W        W98812  12.275  25.589   0.483
39277W        W98813   7.802  14.323   0.416
39278W        W98814  12.746   7.828   1.388
39279W        W98815  16.297  16.671  11.521
39280W        W98816   6.298   5.926  14.941
39281W        W98817  24.632  36.387  12.539
39282W        W98818  10.636  25.206  14.857
39283W        W98819  12.175  26.490   9.986
39284W        W98820  13.234   1.467  13.001
39285W        W98821  44.989   0.458   0.902
39286W        W98822  34.942  20.574   4.188
39287W        W98823   2.856  40.427   2.694
39288W        W98824   9.669  25.616   9.676
39289W        W98825   6.913   7.311   2.834
39290W        W98826   7.327  19.552  11.970
39291W        W98827   2.416  40.022   4.773
39292W        W98828   7.266  32.514  11.606
39293W        W98829  43.773  41.414   0.946
39294W        W98830  13.820   0.355  14.413
39295W        W98831  12.689   2.286   4.119
39296W        W98832  10.153  28.637   0.336
39297W        W98833  29.127  41.468   1.265
39298W        W98834  25.011   7.738  13.892
39299W        W98835  15.620   4.446   1.308
39300W        W98836   3.452   1.937  12.052
39301W        W98837  26.473  26.688  14.013
39302W        W98838   5.839  34.603   2.775
39303W        W98839  41.794  26.989  12.445
39304W        W98840  17.148   7.844   5.268
39305W        W98841  38.821  27.539  10.596
39306W        W98842   0.870  40.335   3.345
39307W        W98843  13.695  36.938   0.767
39308W        W98844  38.030  44.950   1.275
39309W        W98845  40.381  26.005  14.922
39310W        W98846  31.918  29.630   2.738
39311W        W98847  31.614   6.318   2.677
39312W        W98848  17.795  16.605  12.564
39313W        W98849  16.310  39.471  12.994
39314W        W98850  42.032  39.490   2.750
39315W        W98851  19.188  20.753   9.447
39316W        W98852   3.342  43.281  13.312
39317W        W98853  32.061   1.853   3.339
39318W        W98854  14.322  12.234  11.949
39319W        W98855  20.234  28.445   3.385
39320W        W98856  31.533  12.143  11.012
39321W        W98857  19.729  27.010   2.409
39322W        W98858  29.141  27.011   2.393
39323W        W98859  44.473  31.615  13.857
39324W        W98860   8.387  30.908  13.930
39325W        W98861   7.826  42.974   0.840
39326W        W98862  35.982  36.382   5.162
39327W        W98863  13.716  40.862   3.747
39328W        W98864  23.673  29.631   2.788
39329W        W98865  27.058   8.215   4.675
39330W        W98866  14.284  44.363   4.241
39331W        W98867  19.128  13.237   3.818
39332W        W98868   3.303  20.749  14.309
39333W        W98869  29.096   0.288   1.710
39334W        W98870  29.166  25.641  10.132
39335W        W98871  13.256  17.658  14.434
39336W        W98872  14.812  22.653  14.368
39337W        W98873  31.560  28.664  12.057
39338W        W98874  28.995  36.976  10.606
39339W        W98875  41.441  40.472  12.341
39340W        W98876  37.969  14.800  13.502
39341W        W98877   5.370   3.786  11.606
39342W        W98878  35.056  17.296  10.410
39343W        W98879  32.581  32.986  12.506
39344W        W98880  19.672  29.129  12.846
39345W        W98881   2.915   5.693   3.298
39346W        W98882  39.557  33.102   3.159
39347W        W98883  41.467  23.536   0.476
39348W        W98884  19.229  11.862   1.373
39349W        W98885  15.594   8.762   5.282
39350W        W98886  32.122   1.738  12.988
39351W        W98887  15.310  14.688  11.553
39352W        W98888   9.196   1.835  10.906
39353W        W98889  10.193  43.512   1.223
39354W        W98890   1.912  25.610   9.963
39355W        W98891  27.581  43.868  12.419
39356W        W98892  34.481  34.969   1.766
39357W        W98893  41.847  22.252  13.876
39358W        W98894  28.569  10.738   4.625
39359W        W98895  18.081  44.350   0.391
39360W        W98896  17.094   3.737  13.539
39361W        W98897   8.804   3.949   2.759
39362W        W98898  17.665  43.338   0.920
39363W        W98899   2.243  43.297  13.826
39364W        W98900  11.181   1.362   1.431
39365W        W98901  29.435  35.536  12.041
39366W        W98902  11.668  22.998  12.346
39367W        W98903  36.560  31.954  13.499
39368W        W98904  15.738   7.395  14.993
39369W        W98905  27.144  40.400   3.309
39370W        W98906   0.956   3.227  12.053
39371W        W98907  25.510  26.672   3.365
39372W        W98908  13.639  26.077  14.881
39373W        W98909  12.257  22.244  10.428
39374W        W98910  16.193   9.668  13.328
39375W        W98911  30.651   7.362  14.835
39376W        W98912  27.514  43.304   4.220
39377W        W98913  30.542  21.534   4.188
39378W        W98914   8.740  14.733   5.118
39379W        W98915  16.690  12.299  13.510
39380W        W98916  34.914  13.638   1.703
39381W        W98917  44.974  27.158   2.285
39382W        W98918   2.901   7.829  14.948
39383W        W98919  16.203  29.115   4.123
39384W        W98920  16.175   3.395   2.296
39385W        W98921  38.427  27.488   1.871
39386W        W98922  23.668   3.806   1.362
39387W        W98923   8.292  27.550   1.888
39388W        W98924  15.664   5.847  13.475
39389W        W98925  10.287  31.623   0.278
39390W        W98926   8.393  25.056   4.338
39391W        W98927  20.597   5.766   1.757
39392W        W98928  34.998  13.823   3.736
39393W        W98929  11.349  19.625  11.985
39394W        W98930  29.993  34.573   3.153
39395W        W98931  11.155  23.204   4.683
39396W        W98932  23.202   1.934   3.277
39397W        W98933   2.812  12.201   3.629
39398W        W98934  44.965  17.724  11.395
39399W        W98935  27.559  27.672  13.494
39400W        W98936  11.315  42.837  10.910
39401W        W98937  44.336   8.832  11.128
39402W        W98938   1.399  38.845  14.431
39403W        W98939   3.756  12.349  10.966
39404W        W98940   5.886  34.081  13.504
39405W        W98941  39.469  44.853  12.366
39406W        W98942   4.266  39.540   3.318
39407W        W98943  16.146   6.706   1.865
39408W        W98944  36.564  10.867   2.842
39409W        W98945  18.154   0.904   4.778
39410W        W98946  31.595  28.962   4.162
39411W        W98947   1.353  42.373   1.792
39412W        W98948   3.758  18.219   1.237
39413W        W98949  42.284   5.388  11.063
39414W        W98950   0.258  24.704  14.309
39415W        W98951  23.693  10.721  13.368
39416W        W98952  32.465  35.038  14.503
39417W        W98953  40.818  38.395  11.025
39418W        W98954   7.318  12.290   2.216
39419W        W98955  32.633   7.814  14.774
39420W        W98956  24.697  16.704   4.769
39421W        W98957  40.892  26.962   3.729
39422W        W98958  13.697  17.205  13.944
39423W        W98959  39.037  25.177   2.884
39424W        W98960   1.844  21.195   3.199
39425W        W98961  21.516  13.687   2.861
39426W        W98962  10.318  16.294  11.109
39427W        W98963  44.895   1.771  10.909
39428W        W98964   2.364  34.997   0.323
39429W        W98965  19.676  33.131  14.917
39430W        W98966  10.650  24.663   2.674
39431W        W98967  31.962   2.261  11.499
39432W        W98968   2.257  29.495  13.365
39433W        W98969   0.324  13.724  13.471
39434W        W98970  40.412  31.619  12.349
39435W        W98971   4.887   4.790   1.929
39436W        W98972  25.001  17.798   0.794
39437W        W98973  44.832  23.524  13.385
39438W        W98974  24.494   7.881  14.456
39439W        W98975  19.268  11.755  12.394
39440W        W98976  28.523  22.096  14.414
39441W        W98977   1.786  15.711   0.908
39442W        W98978  19.681  27.632   1.854
39443W        W98979  36.028  36.912   3.770
39444W        W98980  28.614  37.006   1.832
39445W        W98981  26.504  20.708  14.853
39446W        W98982  29.496  23.673   0.746
39447W        W98983  19.042  38.937   4.654
39448W        W98984  13.107  36.404   2.399
39449W        W98985  22.571   3.239   4.778
39450W        W98986  44.951  22.043   0.403
39451W        W98987  35.366  29.128   2.669
39452W        W98988   6.367  10.379  13.863
39453W        W98989  29.049  39.038   4.195
39454W        W98990  40.513   2.828  13.994
39455W        W98991  37.396  23.680   4.636
39456W        W98992  27.947  36.552   4.279
39457W        W98993  38.875   4.822   5.245
39458W        W98994  10.814  30.521  14.325
39459W        W98995  43.272   1.355  13.806
39460W        W98996  41.867  24.483   1.275
39461W        W98997  12.247  18.063  12.441
39462W        W98998  25.072  33.964   3.173
39463W        W98999  42.315   2.942  10.566
39464W        W99000  26.552  21.580   3.191
39465W        W99001  10.150   4.305   2.680
39466W        W99002   2.286   3.349  10.087
39467W        W99003   7.333  17.292  14.459
39468W        W99004  12.169  12.295  10.587
39469W        W99005  21.109   9.718  11.058
39470W        W99006  16.242   1.772   2.888
39471W        W99007  30.959  41.521   1.842
39472W        W99008  43.982  14.760  14.021
39473W        W99009  31.946  26.017   2.866
39474W        W99010  13.811   4.800  14.442
39475W        W99011  38.064  10.169   4.819
39476W        W99012  11.187  13.224  12.509
39477W        W99013  29.996  37.078   4.258
39478W        W99014  37.436   7.209  13.812
39479W        W99015  26.188  42.478   2.888
39480W        W99016  38.371  20.254  12.014
39481W        W99017  40.375  30.145   3.757
39482W        W99018  17.178  37.566   2.298
39483W        W99019  11.286   9.188   4.826
39484W        W99020  17.275  41.857  13.528
39485W        W99021   5.224  10.296  12.902
39486W        W99022  40.849  42.026  12.833
39487W        W99023  25.697  10.807   0.951
39488W        W99024  10.842  23.136  11.562
39489W        W99025  39.811  10.182   4.714
39490W        W99026  26.690   3.803   5.169
39491W        W99027  26.541   1.907   0.376
39492W        W99028  34.608  34.053   0.262
39493W        W99029   2.864  28.013   4.197
39494W        W99030  30.016  40.342  14.296
39495W        W99031  26.580  15.637  12.888
39496W        W99032  31.428  39.958  10.459
39497W        W99033  39.894  17.114   1.299
39498W        W99034  42.878   2.381  13.962
39499W        W99035  26.172  17.580  13.852
39500W        W99036   6.709  12.786  13.024
39501W        W99037  40.436   9.284  10.410
39502W        W99038  15.299  16.582   3.859
39503W        W99039  18.253  39.973   3.832
39504W        W99040  37.568   1.368  11.425
39505W        W99041  22.252  38.822  14.862
39506W        W99042  19.591  21.120  10.043
39507W        W99043  22.086  39.863   3.148
39508W        W99044  34.882  24.687   4.164
39509W        W99045  41.989  15.585  11.860
39510W        W99046  25.997  20.575  13.966
39511W        W99047  19.592  40.925  13.046
39512W        W99048  38.439   0.286   1.903
39513W        W99049  41.300  33.882  13.898
39514W        W99050  22.691  22.188   1.295
39515W        W99051  40.518  10.863   3.356
39516W        W99052  14.125  19.564   9.954
39517W        W99053   1.401  24.230   5.089
39518W        W99054  41.338  30.003   1.399
39519W        W99055  35.043   8.715   1.239
39520W        W99056  30.429  27.187   3.168
39521W        W99057  44.824  13.255   3.329
39522W        W99058   9.725   6.274   2.392
39523W        W99059  43.437  23.653   0.310
39524W        W99060  18.599  18.550   3.654
39525W        W99061  30.073  40.987   0.837
39526W        W99062  43.833   9.244   1.312
39527W        W99063  36.479  41.966  11.392
39528W        W99064  15.823  43.493  10.494
39529W        W99065   9.285  10.159   4.138
39530W        W99066  28.591  13.256  11.581
39531W        W99067  12.687   9.824   5.602
39532W        W99068  12.304  43.995   0.425
39533W        W99069   3.373  25.097   0.734
39534W        W99070  26.469   4.260   1.776
39535W        W99071  41.406  36.967   2.872
39536W        W99072  30.147  30.071  10.588
39537W        W99073  12.701  10.768  11.557
39538W        W99074   0.864  36.046   0.842
39539W        W99075  44.318  20.681  12.059
39540W        W99076   8.770  42.465   2.690
39541W        W99077  26.965  24.679   4.128
39542W        W99078  34.465  44.481  14.811
39543W        W99079  18.685  17.646   3.811
39544W        W99080  18.118  40.531   1.797
39545W        W99081  11.629  38.031  14.403
39546W        W99082  11.625  37.379   4.292
39547W        W99083  31.639  34.389   2.203
39548W        W99084  15.124  39.539   4.194
39549W        W99085  23.163  30.027  14.374
39550W        W99086  27.092  31.562  14.286
39551W        W99087  23.502  38.936   2.376
39552W        W99088  33.077  17.637   4.597
39553W        W99089  17.084   7.760  10.505
39554W        W99090  28.084  26.968  14.936
39555W        W99091   7.791  19.635   4.286
39556W        W99092  23.624  28.516   4.185
39557W        W99093   1.810  21.610   0.947
39558W        W99094   3.793  25.105   3.316
39559W        W99095  27.658  16.146  13.833
39560W        W99096  10.780  44.338   0.900
39561W        W99097  13.115  39.341   0.264
39562W        W99098  31.027  29.972   4.826
39563W        W99099  28.150  18.690   2.876
39564W        W99100  26.091  41.362  14.333
39565W        W99101   6.837  24.159   4.628
39566W        W99102  18.647   4.910   4.764
39567W        W99103  11.168  29.619   4.297
39568W        W99104  22.088  40.383   1.354
39569W        W99105  19.046  29.984  13.447
39570W        W99106  31.419  32.439   0.479
39571W        W99107  18.088  11.240  11.374
39572W        W99108  41.860   6.412  12.094
39573W        W99109  14.823  20.769  10.570
39574W        W99110  12.283  39.330   2.727
39575W        W99111   9.747  19.657  11.911
39576W        W99112  43.820  33.564   1.350
39577W        W99113  17.088   0.441  12.909
39578W        W99114  27.016  17.735   9.979
39579W        W99115  38.967  38.836  11.566
39580W        W99116  22.587  22.621   2.753
39581W        W99117  15.777   4.730   0.266
39582W        W99118   4.332  44.781   1.766
39583W        W99119  17.165  10.238  12.928
39584W        W99120   5.294  43.985   1.289
39585W        W99121   0.885  19.596   3.752
39586W        W99122  28.633  44.394  10.515
39587W        W99123  24.997  21.219   2.666
39588W        W99124   1.392  15.639  13.401
39589W        W99125  14.279  27.576  12.039
39590W        W99126  20.261   2.757  11.481
39591W        W99127  41.449  18.107  11.413
39592W        W99128  17.175  23.679  14.334
39593W        W99129  33.098  36.554  12.496
39594W        W99130  17.725  42.915  11.872
39595W        W99131  24.053  31.435  10.511
39596W        W99132  10.636  43.320   2.314
39597W        W99133  34.493  16.749   4.344
39598W        W99134  34.563  23.990   0.466
39599W        W99135  39.829   7.328  10.906
39600W        W99136  15.217  42.985  10.913
39601W        W99137   1.329  31.111   0.787
39602W        W99138  16.586   9.173  12.954
39603W        W99139  21.142  23.544  13.014
39604W        W99140  26.169  17.066  12.485
39605W        W99141   4.910   0.869  12.071
39606W        W99142  24.520  14.606   1.357
39607W        W99143  42.294   1.910  12.352
39608W        W99144   0.260  10.711  13.973
39609W        W99145  16.317   8.296   1.884
39610W        W99146  25.203  26.183  13.897
39611W        W99147  38.345  40.963  14.436
39612W        W99148   5.696  18.589   1.870
39613W        W99149  24.597  41.034  12.990
39614W        W99150  42.855  37.008   4.310
39615W        W99151  10.276  29.107  12.082
39616W        W99152  27.559  35.451  12.052
39617W        W99153  28.440  33.987   3.658
39618W        W99154  17.163  17.757  12.846
39619W        W99155   1.966   3.802  10.593
39620W        W99156  18.160   9.150   3.237
39621W        W99157   9.684  13.784   3.181
39622W        W99158  24.210   1.400  12.961
39623W        W99159  18.139   7.847  11.013
39624W        W99160  37.490  34.888   1.761
39625W        W99161  26.542   7.889   3.833
39626W        W99162  37.439  25.562   4.131
39627W        W99163   5.925  12.818  13.342
39628W        W99164  29.563  13.149   3.715
39629W        W99165  41.001  10.642   1.843
39630W        W99166  28.123  22.078  13.365
39631W        W99167  24.639  34.092   0.899
39632W        W99168   8.690  19.097   2.379
39633W        W99169  33.443   6.362   0.416
39634W        W99170  41.402  28.029  12.430
39635W        W99171  29.928  25.646  13.794
39636W        W99172  10.726   5.382   1.230
39637W        W99173  41.007  27.117  12.383
39638W        W99174  28.989  23.084   0.266
39639W        W99175  35.415  26.472  13.060
39640W        W99176  42.317  26.045   2.283
39641W        W99177   3.878  31.123   1.733
39642W        W99178   8.232  20.199  13.987
39643W        W99179   0.897  43.954   2.661
39644W        W99180  41.466  30.637   4.126
39645W        W99181  24.662  23.586  12.873
39646W        W99182  27.155  25.084  11.454
39647W        W99183  21.753  22.018   0.812
39648W        W99184  35.376  40.054   1.864
39649W        W99185  36.953  17.182   2.191
39650W        W99186   5.747  17.251  14.444
39651W        W99187  15.810   5.826  12.444
39652W        W99188  33.966  33.001   1.402
39653W        W99189  43.825  39.527  12.472
39654W        W99190  20.747  29.577   4.735
39655W        W99191  35.094   0.392  10.464
39656W        W99192  16.802  15.594   0.269
39657W        W99193  22.542  29.974  13.858
39658W        W99194   3.913  15.635   1.823
39659W        W99195  39.437   7.346   2.841
39660W        W99196  30.094  33.605  14.797
39661W        W99197   6.394  16.158  14.407
39662W        W99198  42.010  17.593   0.359
39663W        W99199  44.897  12.275  12.393
39664W        W99200   5.428   9.645  11.576
39665W        W99201  35.383  37.396   5.146
39666W        W99202  34.051  20.643  10.491
39667W        W99203  29.027   2.281  13.519
39668W        W99204   4.377  16.207   2.304
39669W        W99205  28.159  21.193  12.957
39670W        W99206  28.116  44.312   4.757
39671W        W99207  24.635  18.790   1.307
39672W        W99208  33.070   6.212  14.375
39673W        W99209  10.341  15.268  12.004
39674W        W99210   9.186  22.090   2.726
39675W        W99211  21.569  11.339  12.444
39676W        W99212  23.122  13.336   1.348
39677W        W99213   7.203  12.651  14.936
39678W        W99214  33.618   0.953  12.565
39679W        W99215  40.900  27.121   3.260
39680W        W99216  43.916  21.671   4.302
39681W        W99217  15.654  10.842  12.903
39682W        W99218  15.245  17.129   4.307
39683W        W99219   3.802   1.447  12.373
39684W        W99220  35.468   2.369  11.423
39685W        W99221  35.106   7.857  14.461
39686W        W99222  29.644  20.142  12.371
39687W        W99223  42.316  33.005   2.855
39688W        W99224  39.852   8.346   3.807
39689W        W99225  16.183  12.162  11.113
39690W        W99226  20.604   8.212  11.510
39691W        W99227  44.957   2.318   3.791
39692W        W99228  38.928  21.040  11.032
39693W        W99229   7.827   0.924   3.700
39694W        W99230   8.839  31.108  14.770
39695W        W99231  30.033  28.435   4.627
39696W        W99232  26.123  33.608   2.670
39697W        W99233  34.479  21.140   1.865
39698W        W99234  18.788   4.239  11.527
39699W        W99235   4.845  33.398   0.940
39700W        W99236   4.721   1.418  14.959
39701W        W99237  22.678   0.362   3.273
39702W        W99238   1.779  31.547   2.267
39703W        W99239  42.347  23.991   2.384
39704W        W99240  12.814  12.717   0.282
39705W        W99241  31.625  17.185  14.874
39706W        W99242  23.728  44.894  14.768
39707W        W99243  19.626  13.144  12.065
39708W        W99244   2.891  34.502   0.261
39709W        W99245  44.498  43.925  12.529
39710W        W99246  27.521  11.352  10.887
39711W        W99247   1.441  21.735   1.900
39712W        W99248  39.508  28.531   4.832
39713W        W99249  44.781  29.026  11.604
39714W        W99250  10.837  39.841   4.123
39715W        W99251  12.612   5.725  14.767
39716W        W99252  43.843  29.636   1.913
39717W        W99253  29.527  26.989   5.604
39718W        W99254  34.452   0.765   4.727
39719W        W99255   1.765  41.424   3.732
39720W        W99256  34.890  29.076  14.409
39721W        W99257   2.820  17.189  14.286
39722W        W99258   7.179   8.295  11.405
39723W        W99259  29.431  10.691   2.186
39724W        W99260  36.060   6.845   3.828
39725W        W99261  35.902  14.790   0.321
39726W        W99262  28.666  16.198  14.367
39727W        W99263  16.646  25.563   0.330
39728W        W99264   1.937   7.233   2.210
39729W        W99265  25.531   2.409  13.807
39730W        W99266  32.500  27.078  13.827
39731W        W99267   9.745   8.175  12.402
39732W        W99268  16.596  22.243   2.891
39733W        W99269  28.089  15.699  11.606
39734W        W99270  25.603  15.295  10.592
39735W        W99271  33.068  14.146  10.982
39736W        W99272   7.898  38.532   1.909
39737W        W99273  32.529  28.481  10.591
39738W        W99274   5.848  35.464  11.543
39739W        W99275  18.271  40.943   2.766
39740W        W99276   6.746  24.195   1.852
39741W        W99277   9.161  21.663   4.648
39742W        W99278   6.771  14.595  12.040
39743W        W99279  26.495  29.982   1.911
39744W        W99280   9.337  31.600  10.625
39745W        W99281   3.420   7.257  10.975
39746W        W99282   4.913  43.474   0.950
39747W        W99283  42.419   0.294  12.065
39748W        W99284  33.052   4.402  14.399
39749W        W99285  39.001   1.918   0.422
39750W        W99286  41.853  14.177   0.802
39751W        W99287   2.907   0.278   3.649
39752W        W99288  11.148  20.200   3.766
39753W        W99289   9.656  31.477  13.392
39754W        W99290  17.768  34.382  13.876
39755W        W99291  10.747  36.859   1.422
39756W        W99292  38.953  44.958   4.309
39757W        W99293  40.352  41.828  13.499
39758W        W99294  19.255  33.438   4.280
39759W        W99295   1.400  19.685  13.928
39760W        W99296  31.532   0.974   3.147
39761W        W99297   9.763  17.676  13.375
39762W        W99298  13.228  12.729   0.864
39763W        W99299   3.890   4.784  11.025
39764W        W99300  19.700  17.167   1.801
39765W        W99301  34.409   0.381  11.871
39766W        W99302  37.861  11.280   1.290
39767W        W99303   6.251  29.989  12.424
39768W        W99304   9.658  29.082  12.446
39769W        W99305  11.127  24.152   2.321
39770W        W99306  17.281   8.271  10.112
39771W        W99307  37.399   4.895  12.935
39772W        W99308  10.870  20.687   0.277
39773W        W99309  23.098  16.128   2.788
39774W        W99310  16.242  35.374   4.347
39775W        W99311  21.741  30.093  13.807
39776W        W99312  41.329   5.884  12.422
39777W        W99313  35.970  38.927  12.559
39778W        W99314  40.848  32.579   0.757
39779W        W99315  34.973  14.316  12.568
39780W        W99316   3.830  24.620   1.398
39781W        W99317  21.665  14.782   1.749
39782W        W99318  14.745  22.723  12.555
39783W        W99319   4.924  28.955   4.678
39784W        W99320  33.462   1.919  12.891
39785W        W99321  20.730  21.234  14.481
39786W        W99322   5.926  26.688  10.963
39787W        W99323  21.599   2.401   0.356
39788W        W99324  38.464  42.322  13.397
39789W        W99325  28.525  15.705   2.760
39790W        W99326  19.241   7.296  14.454
39791W        W99327  14.711  44.985  14.801
39792W        W99328   8.395  19.118  13.456
39793W        W99329  21.113  27.115   1.779
39794W        W99330  12.120  43.952  14.787
39795W        W99331  12.812  14.301  11.445
39796W        W99332  23.229   3.246   5.279
39797W        W99333   6.691  32.619  11.404
39798W        W99334  27.122  17.114   1.741
39799W        W99335  32.400   3.220  11.410
39800W        W99336  15.755  12.360   4.291
39801W        W99337  27.592  42.508  12.008
39802W        W99338  16.568  43.929  14.013
39803W        W99339  41.832   3.875  14.372
39804W        W99340  28.627   6.780   2.402
39805W        W99341  23.539  25.486  14.773
39806W        W99342  17.121  11.807  12.384
39807W        W99343  17.273  31.027   0.767
39808W        W99344  38.416  25.165  13.905
39809W        W99345  38.526  16.773   3.819
39810W        W99346   3.215  36.366  14.833
39811W        W99347  31.605  28.540  13.859
39812W        W99348  42.352  14.331   0.770
39813W        W99349  13.160  32.413  12.084
39814W        W99350  39.393  35.914  11.939
39815W        W99351  40.972  14.157  12.017
39816W        W99352   0.827  39.955  10.551
39817W        W99353  44.428  12.140  14.351
39818W        W99354  30.033   5.267   4.325
39819W        W99355  34.568  30.137  13.054
39820W        W99356  31.988  34.913   0.817
39821W        W99357  27.989   2.788   0.451
39822W        W99358  13.192  24.180   0.944
39823W        W99359  20.670  37.857  14.983
39824W        W99360   9.155   6.308  11.075
39825W        W99361   9.320  13.810   0.386
39826W        W99362  42.837  14.102  11.397
39827W        W99363  21.540  37.944   3.630
39828W        W99364  30.164  22.084  11.601
39829W        W99365  22.996  20.658   3.836
39830W        W99366  32.587  28.439   1.236
39831W        W99367  31.113  24.631   4.721
39832W        W99368   3.360  35.464   4.774
39833W        W99369  32.917  14.627   2.379
39834W        W99370  40.949  33.064  13.927
39835W        W99371  37.355  34.471   0.745
39836W        W99372  32.054  23.540  12.551
39837W        W99373  27.170   3.452   0.288
39838W        W99374   3.902  31.510   4.621
39839W        W99375  30.145  11.674   1.404
39840W        W99376   6.339  15.586  11.886
39841W        W99377  12.662  43.366  14.470
39842W        W99378   1.863  18.236  13.966
39843W        W99379  38.541  36.468  13.817
39844W        W99380  17.575  41.468  14.379
39845W        W99381   2.935  19.207   2.343
39846W        W99382  27.588  41.369  14.793
39847W        W99383   9.805  35.601  11.498
39848W        W99384  36.484  40.814   1.252
39849W        W99385  12.188  11.361   3.661
39850W        W99386  38.547  37.353   0.895
39851W        W99387  16.295  34.104   4.157
39852W        W99388  21.686  38.358  13.823
39853W        W99389  11.200  14.779  14.493
39854W        W99390  23.040  30.653   0.835
39855W        W99391  17.177   3.429  11.056
39856W        W99392  22.023  34.388   1.838
39857W        W99393  42.365  19.673  13.498
39858W        W99394  44.903   9.674  13.473
39859W        W99395  43.462  40.804   4.665
39860W        W99396  29.469   4.774   3.207
39861W        W99397  28.634  21.727  14.888
39862W        W99398   3.318  24.658   4.772
39863W        W99399  16.608  38.860   4.610
39864W        W99400  38.010  41.991   0.929
39865W        W99401  25.705  15.296   3.314
39866W        W99402   2.829   9.202   0.736
39867W        W99403  23.204  20.112   1.274
39868W        W99404  38.569  23.993  14.282
39869W        W99405  24.622   7.238   3.359
39870W        W99406  11.628  29.666   0.771
39871W        W99407  14.600   8.357   2.719
39872W        W99408   3.455  35.382  13.009
39873W        W99409   2.963  20.597  13.048
39874W        W99410  11.813  12.661   2.700
39875W        W99411  23.528  44.762   4.200
39876W        W99412  15.105  42.526   3.647
39877W        W99413  40.832   4.206   0.818
39878W        W99414  14.159  33.450  14.947
39879W        W99415   4.811  16.253  12.057
39880W        W99416  18.640   2.460  13.005
39881W        W99417   3.429   6.269  14.829
39882W        W99418  15.724  31.596  11.555
39883W        W99419  37.943  37.418  12.868
39884W        W99420  26.538   0.772   1.868
39885W        W99421   9.347   0.300   0.939
39886W        W99422  24.666  40.927   4.257
39887W        W99423  36.908  37.056   4.235
39888W        W99424  16.186  22.742  12.502
39889W        W99425  10.822  23.036   2.889
39890W        W99426   0.799   8.822  10.499
39891W        W99427  29.475   9.659   3.175
39892W        W99428  23.097   9.719  13.979
39893W        W99429  23.524  28.463  11.084
39894W        W99430  30.941  28.030  14.867
39895W        W99431  35.594  22.699   2.750
39896W        W99432  22.621  26.457   1.317
39897W        W99433  40.454  43.942   3.182
39898W        W99434  13.827   2.814  13.828
39899W        W99435  24.036  20.159  12.866
39900W        W99436  32.511  22.533   1.738
39901W        W99437  41.844  12.645   2.271
39902W        W99438  23.068  33.893   0.312
39903W        W99439   0.337  39.432  12.555
39904W        W99440  41.484  15.173   1.435
39905W        W99441  30.059   6.383  14.433
39906W        W99442  18.099  34.383   4.646
39907W        W99443  41.513   9.161  12.068
39908W        W99444   8.202  14.763  13.860
39909W        W99445   8.356  41.903   2.306
39910W        W99446  27.142   7.182  14.419
39911W        W99447   6.859  22.733  13.531
39912W        W99448  13.783  32.545   0.271
39913W        W99449  33.898   5.902  11.861
39914W        W99450  31.101  33.442   2.890
39915W        W99451  20.673  33.879   2.690
39916W        W99452  35.920  23.593  13.809
39917W        W99453  14.701  17.068   0.258
39918W        W99454  15.668   3.262  12.879
39919W        W99455  34.119  36.956   3.257
39920W        W99456  35.955   3.222   3.375
39921W        W99457   8.751  36.560  11.538
39922W        W99458   6.386  41.310   2.284
39923W        W99459  21.738   9.798  10.996
39924W        W99460  37.569  16.253   2.411
39925W        W99461  35.882   5.208   1.923
39926W        W99462  16.591  42.503  13.907
39927W        W99463  12.856  11.793   2.683
39928W        W99464  11.802  26.585   5.221
39929W        W99465  40.834  32.521  11.572
39930W        W99466  32.606  11.632   4.741
39931W        W99467  12.635  26.582   5.312
39932W        W99468   5.929  19.236   3.663
39933W        W99469  13.288   0.457  11.051
39934W        W99470  24.225  36.589   3.177
39935W        W99471  23.088   3.849  13.024
39936W        W99472  41.787  37.919  14.415
39937W        W99473  29.965   9.295   4.832
39938W        W99474  24.672  41.952   4.225
39939W        W99475  38.905   2.226  14.369
39940W        W99476  32.032  35.032   0.305
39941W        W99477  27.070  42.799  14.485
39942W        W99478   9.169  27.036   3.630
39943W        W99479  25.170  29.655  11.041
39944W        W99480  43.891  36.901   2.211
39945W        W99481  17.565  42.002   0.861
39946W        W99482  26.158  24.553  14.487
39947W        W99483  14.658  28.165  11.545
39948W        W99484  25.115  31.025   1.348
39949W        W99485  22.722  28.963  13.920
39950W        W99486   3.321  40.465  10.441
39951W        W99487   2.405   3.277   0.313
39952W        W99488   4.350   5.297  10.954
39953W        W99489  30.115  23.526  11.609
39954W        W99490  32.548  38.563   4.118
39955W        W99491  14.269  14.744  12.934
39956W        W99492  35.427  34.390   0.837
39957W        W99493   8.865  17.294  10.927
39958W        W99494  35.997  14.289   0.735
39959W        W99495   8.690  21.673   1.348
39960W        W99496  13.607  39.516  10.996
39961W        W99497   0.791   8.394   1.916
39962W        W99498   5.756  41.495   1.369
39963W        W99499  27.480   6.316   3.720
39964W        W99500  32.490   4.207  10.948
39965W        W99501  27.670   2.736  12.855
39966W        W99502  31.116  33.554   5.302
39967W        W99503   7.299   1.818  12.903
39968W        W99504  42.477  39.889   0.796
39969W        W99505   7.417   1.245  11.445
39970W        W99506  27.987  20.530   2.754
39971W        W99507   2.728  17.266   2.417
39972W        W99508   1.418  19.760  12.448
39973W        W99509  17.100  11.763  11.578
39974W        W99510  40.538  35.980   1.706
39975W        W99511   6.821  10.747   0.787
39976W        W99512   8.700  25.151  14.342
39977W        W99513  42.784  27.577   4.821
39978W        W99514  33.113  20.244  11.507
39979W        W99515  14.144  18.631  13.053
39980W        W99516  16.101   9.255   1.834
39981W        W99517  30.062  35.992   4.298
39982W        W99518  35.014  21.134  10.489
39983W        W99519  18.231  12.325   0.861
39984W        W99520   8.707  34.969   0.450
39985W        W99521  32.615  29.061  11.024
39986W        W99522  23.535  23.100   4.746
39987W        W99523  14.189  16.124   2.879
39988W        W99524   6.795  24.540  10.897
39989W        W99525  41.292  37.477   2.298
39990W        W99526  23.086  41.350  11.057
39991W        W99527   2.406  14.677  14.977
39992W        W99528  33.621   4.749   0.879
39993W        W99529   4.821  36.054   0.352
39994W        W99530   3.330  25.153  14.491
39995W        W99531  20.247  11.721  11.099
39996W        W99532  12.677  26.048   1.258
39997W        W99533  17.636  22.036  14.430
39998W        W99534  16.811  39.508   1.760
39999W        W99535   2.286  24.504   0.958
40000W        W99536  11.361  15.144  13.989
40001W        W99537  33.947  36.436   0.322
40002W        W99538  22.640  29.598  12.032
40003W        W99539  27.654  16.105  14.408
40004W        W99540  19.258  10.256  12.877
40005W        W99541  34.070  12.730  12.532
40006W        W99542  10.239  18.640  13.309
40007W        W99543  35.520  23.641  10.542
40008W        W99544  19.559   4.743   3.679
40009W        W99545  34.987  32.019   0.337
40010W        W99546  18.109  38.386  12.433
40011W        W99547  29.629  12.280  13.467
40012W        W99548   8.668  43.482  15.000
40013W        W99549   0.823  23.212   4.197
40014W        W99550  43.342   5.232  13.348
40015W        W99551  29.002  19.042  14.849
40016W        W99552   3.762   3.317  13.901
40017W        W99553  33.951   2.936  14.415
40018W        W99554  17.148  30.580   5.187
40019W        W99555  34.120   9.814  11.038
40020W        W99556  29.613  25.592   2.738
40021W        W99557   7.266  21.622  12.823
40022W        W99558   4.384  14.309   1.424
40023W        W99559  25.654  29.501   2.848
40024W        W99560  25.497  37.073   9.952
40025W        W99561   5.427  38.889  13.427
40026W        W99562  20.549  34.931  13.498
40027W        W99563  39.924  25.540  13.492
40028W        W99564   4.240  26.993   3.310
40029W        W99565  14.615   0.257   4.190
40030W        W99566  42.952  19.589  13.309
40031W        W99567  29.595  27.449   0.932
40032W        W99568   7.826  30.516   0.765
40033W        W99569  30.622  28.114   2.338
40034W        W99570  20.175  19.718   4.195
40035W        W99571   1.741   9.890   2.217
40036W        W99572  33.513  40.987   4.817
40037W        W99573  21.696  42.372   2.294
40038W        W99574  37.840  43.003   2.735
40039W        W99575  22.656  32.617   0.965
40040W        W99576  24.082   7.413   4.311
40041W        W99577  19.537  20.235   2.296
40042W        W99578   1.262  28.455  12.339
40043W        W99579  21.668  22.168  10.640
40044W        W99580  44.959   8.779  13.338
40045W        W99581  42.924   7.255   1.803
40046W        W99582  11.296  23.053  13.419
40047W        W99583  39.378  11.161   3.857
40048W        W99584  40.468   5.429  11.597
40049W        W99585   8.867   6.897  12.914
40050W        W99586  36.845  44.856   2.873
40051W        W99587  17.774  19.207   3.689
40052W        W99588   4.275  44.814   0.763
40053W        W99589   9.669  32.060  12.838
40054W        W99590  41.921  12.660   4.775
40055W        W99591  40.338  30.486  11.033
40056W        W99592  41.901  36.004   4.675
40057W        W99593  13.284  26.479   3.755
40058W        W99594   7.727   1.762   1.263
40059W        W99595  17.799  13.635  13.370
40060W        W99596  12.323  37.084   0.764
40061W        W99597   2.289  13.651   3.363
40062W        W99598  25.707  29.540  12.478
40063W        W99599  25.590  17.716   3.201
40064W        W99600  20.205  19.570   5.198
40065W        W99601  16.239  44.947   2.708
40066W        W99602   7.676   1.420  12.906
40067W        W99603   8.878  34.610   4.295
40068W        W99604   4.251  41.817  13.412
40069W        W99605  35.985   6.359  14.903
40070W        W99606  17.121  11.223   0.273
40071W        W99607  11.330  10.212   2.394
40072W        W99608  17.636  44.791  10.944
40073W        W99609  23.529  20.200   4.292
40074W        W99610  27.139   2.764  12.924
40075W        W99611   3.272  13.836   4.665
40076W        W99612   2.401  14.227  13.342
40077W        W99613   2.899  16.183  13.015
40078W        W99614   2.350  41.788   1.250
40079W        W99615  15.583   5.784  14.844
40080W        W99616  44.427  26.039   1.747
40081W        W99617  14.634  44.400   0.419
40082W        W99618  23.043  16.695  12.094
40083W        W99619  12.282  25.703  10.447
40084W        W99620  32.497   8.297  10.424
40085W        W99621  29.511  10.357   3.734
40086W        W99622  43.487   0.936   3.242
40087W        W99623  39.858  43.866   1.884
40088W        W99624  30.500  27.556  12.072
40089W        W99625  36.892   4.445  12.376
40090W        W99626  20.569  11.303   3.149
40091W        W99627  21.043   8.690  10.903
40092W        W99628  30.060  12.188   0.887
40093W        W99629  32.438   6.192  11.605
40094W        W99630  14.144  17.064  13.039
40095W        W99631   5.283  44.441  11.403
40096W        W99632  12.709  22.633   1.342
40097W        W99633  22.509   0.772  13.449
40098W        W99634   8.662  18.288   2.323
40099W        W99635  12.787   5.925   4.672
40100W        W99636  36.367  24.661   0.941
40101W        W99637  36.535  41.388  10.467
40102W        W99638  11.837   8.180   2.812
40103W        W99639  22.243  40.331  13.030
40104W        W99640   6.221  15.273  11.959
40105W        W99641  42.494  20.653  14.877
40106W        W99642  38.015  29.426  14.027
40107W        W99643  14.285  26.014  14.347
40108W        W99644  44.985  39.462   3.675
40109W        W99645  19.649  12.635   0.334
40110W        W99646   5.422  31.475  12.836
40111W        W99647  21.084   6.317   1.768
40112W        W99648  42.302  34.550   1.302
40113W        W99649  30.907   7.357   5.309
40114W        W99650  20.259  42.936   1.211
40115W        W99651   9.359  34.396   0.343
40116W        W99652   2.400  31.588  10.554
40117W        W99653   2.371   3.814  14.382
40118W        W99654  10.183   1.240  11.063
40119W        W99655  14.610  39.920  11.995
40120W        W99656  35.954   5.306  13.330
40121W        W99657   3.769  26.672  14.995
40122W        W99658  19.248   1.481  12.875
40123W        W99659  37.871  19.173   1.919
40124W        W99660  26.037  32.122   0.891
40125W        W99661  32.070  37.964   5.118
40126W        W99662  35.595  21.119  11.916
40127W        W99663   6.372  39.342   0.754
40128W        W99664  15.602   2.275  14.823
40129W        W99665  29.006   1.865  12.528
40130W        W99666  22.091  36.047   2.896
40131W        W99667  18.588  22.658   0.764
40132W        W99668  10.742  18.206   3.172
40133W        W99669  27.988  38.058   0.428
40134W        W99670  43.870   7.741  14.484
40135W        W99671  21.048  16.124  12.928
40136W        W99672  32.610  30.130  10.919
40137W        W99673  43.452  19.162  10.954
40138W        W99674  11.229  44.497   0.787
40139W        W99675  27.560  27.157   1.431
40140W        W99676   9.774  21.537   2.216
40141W        W99677   4.415   3.743   2.402
40142W        W99678  14.619   7.188  10.640
40143W        W99679  12.119  16.667  14.429
40144W        W99680  34.092  19.056   4.263
40145W        W99681  22.728  20.049  11.444
40146W        W99682  36.850  10.260  14.516
40147W        W99683  10.271   6.227   9.941
40148W        W99684  12.205  33.117   4.287
40149W        W99685   2.761   5.713  13.945
40150W        W99686  18.590  32.052   3.763
40151W        W99687  24.585  20.172   3.654
40152W        W99688  34.431  42.963  12.493
40153W        W99689  14.319   0.822  13.960
40154W        W99690  12.710  25.664  11.985
40155W        W99691  15.211   4.871   4.346
40156W        W99692   8.760   3.830  14.339
40157W        W99693  36.465  15.228   0.901
40158W        W99694  12.735  23.998  11.915
40159W        W99695  29.010  34.981  14.879
40160W        W99696  17.124  41.331  13.496
40161W        W99697   9.667  17.620   2.790
40162W        W99698  30.034  14.168  12.910
40163W        W99699   8.203  24.050   2.228
40164W        W99700   1.955   8.310   1.763
40165W        W99701  41.031  40.880   3.373
40166W        W99702  35.869  27.563   1.370
40167W        W99703  33.400  11.663   1.703
40168W        W99704  11.142  11.341  10.506
40169W        W99705   3.434   5.690   4.143
40170W        W99706  35.067   0.788   2.686
40171W        W99707  29.451  28.156   4.185
40172W        W99708  13.812  23.142  14.967
40173W        W99709  22.718  33.399   5.209
40174W        W99710   9.314  44.922  12.832
40175W        W99711   3.859   9.331   0.916
40176W        W99712   4.858  43.989  12.963
40177W        W99713  35.068  25.177  11.505
40178W        W99714  25.007   5.432   1.281
40179W        W99715  43.916  26.680   3.821
40180W        W99716  29.546  19.201   3.308
40181W        W99717  27.492  26.516   2.743
40182W        W99718   8.833  43.916   4.748
40183W        W99719  16.204   5.878   2.664
40184W        W99720  26.005   3.340   2.863
40185W        W99721  43.354  17.284  12.836
40186W        W99722  28.648  20.051  14.331
40187W        W99723  17.556  22.116  11.954
40188W        W99724  42.525   5.812   2.887
40189W        W99725  18.113  29.075   4.717
40190W        W99726   6.678   8.824  13.948
40191W        W99727   9.809  23.015  14.313
40192W        W99728   9.794  18.665   4.322
40193W        W99729  10.230  32.589  12.857
40194W        W99730  22.555  14.129  13.907
40195W        W99731   2.961  25.558   1.843
40196W        W99732  21.062   9.708   1.418
40197W        W99733  10.162  32.121   4.294
40198W        W99734  43.288  34.481  12.371
40199W        W99735  31.945  14.834   4.230
40200W        W99736   9.850  34.486   3.768
40201W        W99737  29.031   8.695   2.684
40202W        W99738  27.540  22.114  11.968
40203W        W99739  24.536  41.974   0.728
40204W        W99740  14.238  11.304  11.909
40205W        W99741   5.896   7.258   0.270
40206W        W99742  14.192  35.538   4.742
40207W        W99743   5.862   5.719  14.477
40208W        W99744  13.326  37.044  14.361
40209W        W99745  23.167  43.790  12.928
40210W        W99746  25.213  29.163   2.305
40211W        W99747  39.341  22.162  10.993
40212W        W99748   7.394  24.206  14.967
40213W        W99749   4.324  32.561  11.058
40214W        W99750  42.932  24.579   4.660
40215W        W99751   7.251  22.620  14.443
40216W        W99752  28.484  43.418   0.469
40217W        W99753  18.260  24.001   4.661
40218W        W99754  15.740  16.646   3.747
40219W        W99755  44.433   4.406   1.751
40220W        W99756  21.166  34.507   3.205
40221W        W99757  26.956  25.122   2.806
40222W        W99758  14.316   3.273  11.400
40223W        W99759  39.316   7.211  12.438
40224W        W99760   7.184   2.854  14.964
40225W        W99761  21.741  30.021   2.365
40226W        W99762   4.770  44.484   3.749
40227W        W99763  20.594  43.435  11.467
40228W        W99764   1.294  10.753  13.910
40229W        W99765  43.878  44.428  11.518
40230W        W99766  11.263  31.142   0.265
40231W        W99767  21.697  39.417  10.144
40232W        W99768  39.471   2.927   3.250
40233W        W99769  35.947  31.970   1.792
40234W        W99770   2.308   4.224   1.933
40235W        W99771   7.250  27.091   2.275
40236W        W99772  44.873  42.519   2.853
40237W        W99773   2.797  36.355   3.688
40238W        W99774   5.869  40.545   2.377
40239W        W99775  25.124   4.862   0.411
40240W        W99776  44.370   4.394   2.839
40241W        W99777  19.642   4.324  12.401
40242W        W99778  16.693  24.679  10.446
40243W        W99779  37.479  16.104  11.907
40244W        W99780  20.189  44.878  12.914
40245W        W99781   6.917  20.609  10.984
40246W        W99782   2.863  19.186  14.444
40247W        W99783  22.742  38.384  12.452
40248W        W99784  22.202   0.786   3.699
40249W        W99785  29.068  35.854  11.904
40250W        W99786   5.706   2.315   0.758
40251W        W99787  40.012  11.300   5.695
40252W        W99788  12.812  22.689   0.369
40253W        W99789  17.596   0.787   3.732
40254W        W99790  43.926  25.073   1.889
40255W        W99791  28.149  24.521  10.071
40256W        W99792  22.667  36.354  14.396
40257W        W99793  13.675  32.439   1.237
40258W        W99794  13.706  41.426   0.840
40259W        W99795  10.299  28.018   1.267
40260W        W99796  38.465  41.935  10.558
40261W        W99797  15.698  27.458   1.387
40262W        W99798  22.181  21.046  11.404
40263W        W99799  34.957  22.635  14.275
40264W        W99800  29.651   1.731  13.400
40265W        W99801  23.062   2.901  10.569
40266W        W99802  23.042  42.863   3.232
40267W        W99803  22.724  16.255   3.360
40268W        W99804  32.630  16.668  10.976
40269W        W99805  12.152   9.335  14.032
40270W        W99806  35.494  21.095  12.873
40271W        W99807  31.429  22.161   4.622
40272W        W99808  19.700   1.304  11.940
40273W        W99809  35.955   3.300  12.054
40274W        W99810  19.563  43.392   1.891
40275W        W99811  21.226  17.104   5.249
40276W        W99812  12.243  35.387  10.605
40277W        W99813  39.910  32.115   4.128
40278W        W99814  38.442  39.039   1.294
40279W        W99815  12.621  28.041   3.682
40280W        W99816  39.414  40.306  14.414
40281W        W99817  41.479   3.454  10.544
40282W        W99818  12.703   9.840  11.870
40283W        W99819  18.278  44.422   3.662
40284W        W99820  30.124  31.413  10.415
40285W        W99821   9.169   9.795  11.431
40286W        W99822  43.500  19.746  13.876
40287W        W99823   6.689   2.921  11.539
40288W        W99824  30.071  25.512  11.505
40289W        W99825  26.517  19.669  12.392
40290W        W99826  25.488  29.044  10.050
40291W        W99827   8.238  32.027  10.520
40292W        W99828   4.756  16.781   2.729
40293W        W99829  34.532  39.352   0.399
40294W        W99830  38.007   1.927  12.457
40295W        W99831   9.202  44.437   0.824
40296W        W99832  31.610  22.100  12.036
40297W        W99833  17.138  21.672   4.806
40298W        W99834  28.964  21.048  14.002
40299W        W99835  14.259  44.358  13.491
40300W        W99836  44.355  41.529   1.840
40301W        W99837   4.738  21.107   5.244
40302W        W99838  32.038  12.220  14.352
40303W        W99839  12.820  12.232  14.447
40304W        W99840  12.659   4.224  13.423
40305W        W99841  39.379  12.801  10.409
40306W        W99842   9.274   0.476  13.993
40307W        W99843  27.465  33.923  10.968
40308W        W99844  43.449  44.364  11.468
40309W        W99845  27.185  33.494   2.340
40310W        W99846  11.624   2.420   9.949
40311W        W99847  16.306   6.885   4.708
40312W        W99848  15.798   8.802  14.400
40313W        W99849  39.322  30.435   0.378
40314W        W99850  20.252  18.578  12.870
40315W        W99851   8.317  38.565   2.791
40316W        W99852   6.769   2.377   2.221
40317W        W99853  25.682  25.505   4.354
40318W        W99854  41.871  33.423  12.051
40319W        W99855   9.663   3.440   3.346
40320W        W99856  14.128  34.382   0.867
40321W        W99857  20.688  40.409   1.918
40322W        W99858  44.871  19.126  11.069
40323W        W99859  43.441   0.427   3.740
40324W        W99860   8.776  13.624  13.471
40325W        W99861   8.203  44.797  12.497
40326W        W99862   2.876  36.879  14.885
40327W        W99863  23.678  29.171   2.273
40328W        W99864  35.947  43.993  12.850
40329W        W99865  19.634  43.852  11.474
40330W        W99866  13.196  20.036  10.517
40331W        W99867  44.951  43.363  13.794
40332W        W99868  29.459  27.481   2.365
40333W        W99869  10.232  35.462  12.476
40334W        W99870   4.844  33.056  12.095
40335W        W99871  24.068  13.117   4.195
40336W        W99872  14.260   8.402   4.837
40337W        W99873  15.639  32.571   0.961
40338W        W99874  23.190  39.335  12.562
40339W        W99875  11.274   3.835   2.277
40340W        W99876  24.588  27.531   1.735
40341W        W99877  31.484  18.223   1.450
40342W        W99878  38.443  21.086   4.608
40343W        W99879  19.134  37.534   4.275
40344W        W99880  22.544  35.484  14.841
40345W        W99881  43.869  10.334   3.809
40346W        W99882  41.988  28.930  12.059
40347W        W99883   6.391  43.979   1.809
40348W        W99884  26.966  27.982  11.520
40349W        W99885  11.325  28.938  12.991
40350W        W99886  14.269   7.286   1.343
40351W        W99887   7.879   6.245   4.124
40352W        W99888  29.580  24.534  13.041
40353W        W99889   9.714  27.153   4.145
40354W        W99890  20.680   0.328   3.830
40355W        W99891   2.792  13.702   1.280
40356W        W99892  44.324  11.245  14.321
40357W        W99893  38.024   1.323   2.679
40358W        W99894  30.546  31.987   2.204
40359W        W99895   6.262   1.380   4.764
40360W        W99896  23.529  14.595  13.336
40361W        W99897  10.347  28.673  11.888
40362W        W99898   6.397   6.860  10.596
40363W        W99899   6.820  30.070  10.630
40364W        W99900   9.703  30.106  13.015
40365W        W99901  39.011   5.923  11.444
40366W        W99902  18.133  10.781  10.987
40367W        W99903  27.079   0.345  13.517
40368W        W99904  40.016  32.907   2.181
40369W        W99905  32.108  35.456  14.876
40370W        W99906  24.529  24.167  11.026
40371W        W99907  37.398  13.134  13.008
40372W        W99908   8.747   2.824   2.717
40373W        W99909  14.253  43.905  14.869
40374W        W99910  24.712   0.325  14.761
40375W        W99911  43.374   0.940   0.324
40376W        W99912   5.810  27.537  12.463
40377W        W99913  42.887  16.230   3.762
40378W        W99914  26.137   1.934   2.271
40379W        W99915   9.874   9.782   0.372
40380W        W99916  29.522   3.433  13.956
40381W        W99917  13.740  14.115  11.383
40382W        W99918  34.034   7.723  13.331
40383W        W99919  14.328   5.239  11.915
40384W        W99920  39.927  41.005   3.339
40385W        W99921  22.532  12.842   3.173
40386W        W99922   7.324   0.798  12.467
40387W        W99923  41.847  32.397   3.819
40388W        W99924   9.723  40.423   4.329
40389W        W99925  10.695  33.923   2.332
40390W        W99926   4.750  31.491  10.451
40391W        W99927  19.144  23.112   3.270
40392W        W99928  30.148  38.931  14.839
40393W        W99929  39.325  20.666  12.488
40394W        W99930  32.050   1.358   1.286
40395W        W99931  37.387  19.604   3.291
40396W        W99932  36.497  39.501  12.894
40397W        W99933  32.398   6.328   4.224
40398W        W99934  34.105   4.750  12.425
40399W        W99935   5.396  44.312  14.445
40400W        W99936   8.215  31.527  12.861
40401W        W99937  37.837  18.183  11.548
40402W        W99938  20.038   7.833   4.247
40403W        W99939  10.271  30.629   3.315
40404W        W99940   8.738  44.479  12.529
40405W        W99941  34.477   3.760   3.262
40406W        W99942  31.981  31.623   2.275
40407W        W99943   9.758  40.460  12.061
40408W        W99944   7.354  31.512   2.728
40409W        W99945  43.938   8.757  14.500
40410W        W99946  34.490   2.905  14.908
40411W        W99947  34.874   7.713  11.538
40412W        W99948   1.260  40.830  11.110
40413W        W99949  10.146   8.173  10.626
40414W        W99950  16.736  15.719   4.225
40415W        W99951  13.631  31.573   2.406
40416W        W99952  13.750  22.620   3.236
40417W        W99953  16.094  18.089  14.955
40418W        W99954  44.916  30.649   4.768
40419W        W99955  44.330  31.094  10.925
40420W        W99956  17.646  42.833   1.758
40421W        W99957  14.714  17.274   1.272
40422W        W99958  36.452  43.461  11.896
40423W        W99959  22.035   5.907  12.057
40424W        W99960   7.179  43.016   3.680
40425W        W99961  28.650  27.534  11.864
40426W        W99962   1.766  30.624   1.271
40427W        W99963  31.043   1.358  11.563
40428W        W99964  31.569   5.779  12.898
40429W        W99965   8.830  17.104   4.802
40430W        W99966  17.302  28.542  12.355
40431W        W99967   9.887  21.201   0.411
40432W        W99968  24.705  41.428   4.120
40433W        W99969  44.881  34.989  14.428
40434W        W99970  18.153  10.321  10.081
40435W        W99971  36.459  37.030   1.288
40436W        W99972   7.731  40.035  11.580
40437W        W99973  41.414  11.128  14.775
40438W        W99974  28.016  25.993  13.959
40439W        W99975   4.343  38.498  11.425
40440W        W99976  13.784  29.477   4.134
40441W        W99977  44.285  12.715   2.856
40442W        W99978  28.447  32.004   0.750
40443W        W99979  14.120  42.956  13.954
40444W        W99980  15.668  11.815   0.369
40445W        W99981  19.251  14.802   0.906
40446W        W99982  13.718  36.077   4.764
40447W        W99983  38.857  23.669  14.918
40448W        W99984  36.425   1.469  12.463
40449W        W99985  41.012  38.074  11.569
40450W        W99986  32.019  28.678  10.920
40451W        W99987  18.676  24.603   2.368
40452W        W99988   6.821  26.686  12.559
40453W        W99989   2.836  12.843   4.794
40454W        W99990  33.447  14.300  10.060
40455W        W99991  30.459  38.984  10.462
40456W        W99992  31.629  11.214  14.422
40457W        W99993   3.941  29.086   4.760
40458W        W99994  37.078  44.991  14.813
40459W        W99995  12.737  37.346   0.258
40460W        W99996  35.583   9.328  13.960
40461W        W99997  20.730  21.712  13.841
40462W        W99998  19.177  34.529  12.352
40463W        W99999  26.697  28.636   1.442
40464W        W    0  35.051   8.865   0.733
40465W        W    1  28.681   1.298  14.438
40466W        W    2   3.911  31.062   4.260
40467W        W    3  43.417   9.689   3.368
40468W        W    4  37.410   4.887  13.530
40469W        W    5   7.295  37.913   3.163
40470W        W    6  13.622   6.683   2.783
40471W        W    7  28.532  38.027  13.538
40472W        W    8  10.723  33.387   2.410
40473W        W    9   6.272  10.717  10.136
40474W        W   10  15.171  28.110  12.844
40475W        W   11  37.969  36.371   0.748
40476W        W   12   7.196  44.327   0.754
40477W        W   13  21.126  15.615   1.896
40478W        W   14  29.103   2.458   2.861
40479W        W   15   2.233   2.260   1.845
40480W        W   16  18.263   2.880   3.848
40481W        W   17  38.548  31.956  13.848
40482W        W   18  21.602  37.511  10.461
40483W        W   19  37.030   7.328  11.859
40484W        W   20  31.921  23.152  14.478
40485W        W   21   8.770  42.394   1.339
40486W        W   22  13.660   8.398   1.251
40487W        W   23   5.904  32.970   1.889
40488W        W   24  25.180   7.252  11.997
40489W        W   25   5.880  18.089   2.257
40490W        W   26  37.040  15.731  11.597
40491W        W   27  39.836   6.345   1.886
40492W        W   28  18.246  15.310   4.794
40493W        W   29  12.856  42.863   4.616
40494W        W   30  31.997  13.162   0.386
40495W        W   31  14.209   7.865   3.363
40496W        W   32  37.370  35.879   1.227
40497W        W   33  17.254  44.416   3.301
40498W        W   34  33.420  41.840  14.023
40499W        W   35   7.804  29.469   3.757
40500W        W   36  21.161  44.849   4.773
40501W        W   37  32.103   0.975   0.481
40502W        W   38  14.756   8.901   0.813
40503W        W   39  19.179  22.657   0.305
40504W        W   40  12.726  19.685   5.087
40505W        W   41  27.980   6.283   4.646
40506W        W   42  18.747  23.057   5.127
40507W        W   43  25.010  42.500   4.238
40508W        W   44  12.220  24.125   1.707
40509W        W   45  35.889  20.617  14.504
40510W        W   46  25.064  11.846   1.432
40511W        W   47  42.417  13.627   3.245
40512W        W   48   8.806  27.064   1.726
40513W        W   49  15.606  34.436   3.642
40514W        W   50  35.967  10.869  12.896
40515W        W   51  30.653  15.800  13.422
40516W        W   52   5.746  13.604  12.926
40517W        W   53  28.958  27.017   1.770
40518W        W   54  26.064   2.234   2.833
40519W        W   55   4.927  11.193   4.598
40520W        W   56  32.609   8.391   4.304
40521W        W   57   5.310  23.179  12.523
40522W        W   58  27.651  32.438   4.747
40523W        W   59   1.378  15.687   1.449
40524W        W   60   7.217   7.880  13.471
40525W        W   61   3.839  24.160  11.587
40526W        W   62   0.795  11.768  12.430
40527W        W   63  23.569  40.345  12.883
40528W        W   64   5.331  32.976  12.355
40529W        W   65   7.891  29.034   3.679
40530W        W   66  33.953  24.507  10.943
40531W        W   67   6.700   2.910   1.368
40532W        W   68  36.025  33.458  14.337
40533W        W   69  25.074   0.770  11.878
40534W        W   70  34.546  18.751  11.906
40535W        W   71   0.942   4.863  13.469
40536W        W   72  17.138   0.480   1.387
40537W        W   73  29.100  44.287   0.263
40538W        W   74   2.740  43.807  13.324
40539W        W   75   0.449   8.322   0.326
40540W        W   76  22.076  10.661   1.805
40541W        W   77  26.105  14.717  14.984
40542W        W   78  20.742  43.429  14.408
40543W        W   79   4.307  18.694  10.490
40544W        W   80  34.077  18.570   1.837
40545W        W   81  35.878  17.280   1.238
40546W        W   82  25.503  43.964  12.860
40547W        W   83  41.848  30.549  10.948
40548W        W   84  29.573  24.564  13.815
40549W        W   85  20.264  22.197   3.281
40550W        W   86  29.461  42.781  11.938
40551W        W   87   0.935   1.957   3.260
40552W        W   88  38.960  16.202   4.605
40553W        W   89  18.158  13.702  14.954
40554W        W   90   1.948  10.329   2.322
40555W        W   91  35.056  43.484  11.517
40556W        W   92  14.294  28.070  11.599
40557W        W   93   9.709  18.266   1.887
40558W        W   94  39.553  12.757   2.179
40559W        W   95  43.887  19.224   4.308
40560W        W   96  37.909  23.678  11.895
40561W        W   97  19.129  34.524  14.455
40562W        W   98  37.976   5.708  13.928
40563W        W   99  12.309  39.923  14.914
40564W        W  100  39.473  18.711   2.233
40565W        W  101  43.878   4.877  10.490
40566W        W  102  43.365  30.421   4.627
40567W        W  103  31.431   9.685   2.712
40568W        W  104  37.894  13.222   1.336
40569W        W  105   3.763  26.980   3.227
40570W        W  106   4.371  40.820   1.436
40571W        W  107  42.330  30.151  13.025
40572W        W  108  44.910  24.677  11.992
40573W        W  109  31.931  40.806   4.828
40574W        W  110  21.212   5.717   5.310
40575W        W  111  34.584  26.672   0.812
40576W        W  112  34.505   8.826   4.771
40577W        W  113  15.610  23.654  14.277
40578W        W  114  15.224  15.083  13.926
40579W        W  115   1.281  24.486  14.489
40580W        W  116  36.505  28.456   0.462
40581W        W  117  18.553  31.059  14.964
40582W        W  118  44.317  30.500  10.606
40583W        W  119   7.343  37.563   4.293
40584W        W  120  19.127  11.148   1.444
40585W        W  121  30.945  18.773  11.556
40586W        W  122  24.700  10.809  14.812
40587W        W  123  20.538  21.666  12.078
40588W        W  124  26.476  33.106   4.257
40589W        W  125  20.762  14.103  14.945
40590W        W  126  33.570  23.138  11.093
40591W        W  127  13.248   2.258  14.960
40592W        W  128  43.821   6.288   4.749
40593W        W  129  32.027  32.072   4.603
40594W        W  130  16.701  12.180   0.865
40595W        W  131   4.439  10.345   0.454
40596W        W  132  14.116  22.723   1.293
40597W        W  133   5.729   1.432  14.906
40598W        W  134  16.253  38.048   2.396
40599W        W  135   3.396   7.856   4.280
40600W        W  136  18.208  26.017  12.044
40601W        W  137  30.549  15.748   2.261
40602W        W  138   6.913  33.426   0.922
40603W        W  139  18.094   0.378  12.896
40604W        W  140  42.007   8.260  12.531
40605W        W  141  16.802   6.792  10.469
40606W        W  142  41.814   4.206  12.050
40607W        W  143  24.204   5.789  14.950
40608W        W  144  17.072   0.487  13.973
40609W        W  145   9.359  17.744  12.033
40610W        W  146   9.672   4.859  10.967
40611W        W  147  13.841  26.130  13.440
40612W        W  148  27.581  20.636  14.358
40613W        W  149  37.836  33.063   1.731
40614W        W  150   7.679   2.269  11.895
40615W        W  151  21.690  23.202   2.252
40616W        W  152  21.657  13.724   3.304
40617W        W  153  20.221  32.070   0.468
40618W        W  154   4.885  40.813   1.213
40619W        W  155  33.018  39.810  12.079
40620W        W  156  31.494  17.709   4.649
40621W        W  157  39.929   4.340  11.396
40622W        W  158  19.549  35.555   4.630
40623W        W  159  33.103  35.462   3.238
40624W        W  160   4.342  29.561   0.408
40625W        W  161  20.744   2.291   4.652
40626W        W  162  13.212   0.275   4.252
40627W        W  163  26.203  39.905   0.335
40628W        W  164  40.923  30.966  13.064
40629W        W  165  19.107  20.099   2.359
40630W        W  166  27.558   7.339   4.305
40631W        W  167  38.380  43.455  12.028
40632W        W  168   2.740  31.520   0.280
40633W        W  169  39.406  13.220  10.510
40634W        W  170  38.837  27.162   3.706
40635W        W  171  11.152  36.919  11.070
40636W        W  172  14.611  34.938  14.762
40637W        W  173  37.574  23.575  10.076
40638W        W  174  21.674  40.915   1.342
40639W        W  175  15.129  31.590   3.238
40640W        W  176   1.768  31.980  14.354
40641W        W  177  43.451  11.678  12.057
40642W        W  178  36.946   8.318  13.464
40643W        W  179   3.885  24.664  11.556
40644W        W  180   3.383  44.499   4.629
40645W        W  181  16.078   1.474  11.550
40646W        W  182   8.191  44.469  11.605
40647W        W  183   4.856   3.894   4.826
40648W        W  184  38.354  32.988   2.305
40649W        W  185  43.480  23.639  12.921
40650W        W  186  27.644  14.159  11.914
40651W        W  187  16.214  34.966   2.830
40652W        W  188  16.621  39.835  13.489
40653W        W  189   6.859   8.855  14.962
40654W        W  190  27.041   2.782   3.643
40655W        W  191  13.774  12.156   1.713
40656W        W  192  30.592   8.747  13.866
40657W        W  193  27.000  16.679   3.376
40658W        W  194  19.691   4.401  11.013
40659W        W  195  35.438  27.464  12.856
40660W        W  196  28.588  23.177   1.719
40661W        W  197  44.861  12.226   0.387
40662W        W  198   9.256  34.091   2.741
40663W        W  199   3.890   1.945  10.642
40664W        W  200  15.263  26.123  11.076
40665W        W  201  21.544  17.781  11.557
40666W        W  202  20.572   2.405   1.270
40667W        W  203  31.146  13.611  12.035
40668W        W  204  19.086  24.623  11.563
40669W        W  205   4.919  30.571   0.818
40670W        W  206  40.327  43.927  12.883
40671W        W  207   6.418  15.799  13.055
40672W        W  208   1.448  22.173  12.866
40673W        W  209  17.144   4.431  13.335
40674W        W  210  25.163  16.698  10.968
40675W        W  211  44.005   9.890   1.311
40676W        W  212   6.875  43.833   2.416
40677W        W  213  27.153  40.385  11.057
40678W        W  214  24.090  39.836   3.216
40679W        W  215  20.158  33.988  10.919
40680W        W  216  17.264  31.981   3.729
40681W        W  217  15.100  34.057   2.219
40682W        W  218  23.706  44.384  10.919
40683W        W  219  42.849  25.137   3.783
40684W        W  220  36.521  43.342  12.963
40685W        W  221  23.519  33.540  14.815
40686W        W  222  24.976  22.610  13.008
40687W        W  223  35.481  25.176   1.730
40688W        W  224  30.106  27.020   2.899
40689W        W  225   3.795   3.811  13.473
40690W        W  226  30.164  40.844  13.873
40691W        W  227  40.507   2.810   2.684
40692W        W  228   5.840  18.638  10.484
40693W        W  229  19.613  10.254  13.488
40694W        W  230  11.267  37.462  14.313
40695W        W  231   7.212   7.855   3.149
40696W        W  232  34.534   9.307  14.867
40697W        W  233  40.426  42.828  12.016
40698W        W  234  17.632  31.426   2.818
40699W        W  235  13.720  43.461  13.013
40700W        W  236  13.638  31.450   3.820
40701W        W  237  33.624  28.173  13.386
40702W        W  238   1.465  21.099   1.285
40703W        W  239  21.665  34.955   3.632
40704W        W  240   8.398   6.258  13.983
40705W        W  241   4.868  40.835  13.498
40706W        W  242  37.045  40.939  14.807
40707W        W  243  19.709   6.863   5.231
40708W        W  244   7.373  34.488   4.340
40709W        W  245  38.898  21.680  10.404
40710W        W  246  23.626  11.221   2.749
40711W        W  247  11.323  42.793  13.979
40712W        W  248  36.467  11.825  12.072
40713W        W  249  34.491  18.575  11.387
40714W        W  250  42.398  12.138   5.671
40715W        W  251   7.171  37.392   3.840
40716W        W  252   1.788  11.284   4.285
40717W        W  253  20.198  39.521   0.732
40718W        W  254  25.136  35.369   1.405
40719W        W  255  43.346  33.515  12.838
40720W        W  256  34.451   2.234  13.504
40721W        W  257  12.255  42.391   4.337
40722W        W  258  19.639  26.142  10.463
40723W        W  259  24.597  43.937  10.918
40724W        W  260  44.854  42.851  10.408
40725W        W  261  10.273   8.303  14.929
40726W        W  262  43.819  19.068  12.472
40727W        W  263  15.674   4.223   2.730
40728W        W  264   2.760  34.462   1.875
40729W        W  265  24.645  36.383   1.696
40730W        W  266  38.074  10.249   1.330
40731W        W  267  35.882  20.751   0.933
40732W        W  268   1.303  17.201   3.767
40733W        W  269  36.040  25.671  11.900
40734W        W  270  16.588  25.129  13.926
40735W        W  271  14.656  37.025   2.279
40736W        W  272  35.071  17.272  14.278
40737W        W  273  36.439   2.865   2.779
40738W        W  274  28.112   9.842  11.894
40739W        W  275  13.256   5.870   3.207
40740W        W  276  40.493  34.523   2.707
40741W        W  277  11.144  21.526   3.236
40742W        W  278  16.212  16.162   1.812
40743W        W  279  23.212  14.094  11.856
40744W        W  280  44.382   0.372   0.916
40745W        W  281  15.589  23.042   3.710
40746W        W  282  44.333  35.963  10.052
40747W        W  283  37.538  29.085   1.331
40748W        W  284   5.212   3.376   1.354
40749W        W  285  30.524  24.129  14.424
40750W        W  286   0.871  42.825   4.781
40751W        W  287  42.406  31.607  12.403
40752W        W  288  18.754  28.675   2.316
40753W        W  289   2.880   4.814   1.335
40754W        W  290  41.373  22.024  13.331
40755W        W  291  35.863   8.830  12.912
40756W        W  292  15.260   0.443  14.321
40757W        W  293  42.854   8.656   5.293
40758W        W  294  15.193  27.486   1.398
40759W        W  295  31.539  23.162  13.863
40760W        W  296  32.010   0.787  12.087
40761W        W  297   7.811  24.226   3.776
40762W        W  298  20.129  25.627  13.979
40763W        W  299  29.650   7.214   5.301
40764W        W  300  26.032  15.806   2.294
40765W        W  301  16.700  22.518  11.568
40766W        W  302   7.815  22.084   0.933
40767W        W  303  22.505  21.263   1.695
40768W        W  304  22.677  11.769  14.374
40769W        W  305  14.648  14.285   3.746
40770W        W  306   9.697   1.271   4.259
40771W        W  307  24.679  37.067   0.357
40772W        W  308   9.876  19.660  14.416
40773W        W  309  14.127  37.574  12.919
40774W        W  310   3.827   8.893   1.733
40775W        W  311  19.627  18.252  12.052
40776W        W  312  31.557  12.675   2.879
40777W        W  313  13.744  32.135   1.786
40778W        W  314  24.092  33.579   1.335
40779W        W  315   0.421  21.181   3.243
40780W        W  316   8.364   7.833   2.691
40781W        W  317  30.530  31.055  10.582
40782W        W  318  26.580  19.587  12.036
40783W        W  319  19.040  24.493  10.944
40784W        W  320  33.091   0.492  12.907
40785W        W  321  12.291  30.966   3.743
40786W        W  322  39.849  17.293   0.378
40787W        W  323   5.688   6.903  12.465
40788W        W  324  28.003  43.401  11.397
40789W        W  325  32.539  27.961  10.468
40790W        W  326  35.571   8.666  12.877
40791W        W  327   7.326  17.225  11.106
40792W        W  328  36.027   2.818   4.617
40793W        W  329  40.489  43.979  13.537
40794W        W  330   0.964  21.747   3.269
40795W        W  331  33.608  32.560  14.872
40796W        W  332  36.986   0.388   3.151
40797W        W  333  31.993  17.110   4.215
40798W        W  334   2.367  33.983  10.561
40799W        W  335  31.031  18.100  11.887
40800W        W  336  34.902   6.872   1.394
40801W        W  337  40.825  22.674  11.495
40802W        W  338  41.296  30.639  13.895
40803W        W  339  30.549  17.097  11.861
40804W        W  340  19.711   0.257   0.883
40805W        W  341  43.508  35.038  10.960
40806W        W  342  38.383  20.587   2.817
40807W        W  343   8.191  34.448  12.499
40808W        W  344  40.500  34.114   2.810
40809W        W  345  34.950  10.710  14.799
40810W        W  346   6.700  37.896  14.869
40811W        W  347  21.151   9.672   4.746
40812W        W  348  21.541  23.155   1.757
40813W        W  349  14.308  44.402   5.307
40814W        W  350  23.070  11.196   0.812
40815W        W  351   6.212  43.973   0.796
40816W        W  352  16.694  20.599   5.575
40817W        W  353  18.210   2.324  11.121
40818W        W  354   4.336  42.442  14.444
40819W        W  355  15.185  24.716  12.067
40820W        W  356  34.589   8.347   1.897
40821W        W  357  33.393  38.433   2.274
40822W        W  358  36.385  28.634   4.224
40823W        W  359  27.079  14.179   3.174
40824W        W  360  26.644  42.923   1.445
40825W        W  361  16.580  39.907   3.741
40826W        W  362  40.430  14.226  10.100
40827W        W  363  17.655  41.332  10.913
40828W        W  364  14.246  10.636  11.082
40829W        W  365  11.829  14.623   0.747
40830W        W  366   2.374   4.407  14.491
40831W        W  367   9.782  29.493   3.677
40832W        W  368   1.365  30.975  12.490
40833W        W  369  37.868  17.632  12.575
40834W        W  370  43.896  14.294   5.146
40835W        W  371   2.430  16.135  13.335
40836W        W  372  13.689   0.903   4.172
40837W        W  373  13.643  36.447  13.352
40838W        W  374   2.231  28.622   2.349
40839W        W  375  32.549  24.700   2.730
40840W        W  376  29.558  28.648   3.363
40841W        W  377  10.324  14.660  12.387
40842W        W  378  10.271  15.800  13.831
40843W        W  379  28.956  42.847  10.600
40844W        W  380  26.030  37.569   4.182
40845W        W  381   6.388  20.175  13.416
40846W        W  382   2.772  29.048   4.306
40847W        W  383   5.230   9.320   0.959
40848W        W  384   2.955  19.627   2.694
40849W        W  385  20.573   3.334   4.674
40850W        W  386  18.586   6.241  13.326
40851W        W  387   2.435  38.985  12.830
40852W        W  388   4.737  26.669  12.533
40853W        W  389  39.466   6.682  13.376
40854W        W  390   4.905  10.779   4.664
40855W        W  391  15.108  13.601  11.437
40856W        W  392  20.647  40.449   2.402
40857W        W  393  41.855  33.923   2.896
40858W        W  394  44.886  33.957   0.406
40859W        W  395  37.995   3.788  14.511
40860W        W  396   0.885  41.400   3.283
40861W        W  397  31.546  31.501   4.784
40862W        W  398  26.497  14.274  12.895
40863W        W  399  23.236  25.090   0.817
40864W        W  400  17.297  12.350  14.406
40865W        W  401  37.976  28.143  14.778
40866W        W  402  37.056  37.993  14.477
40867W        W  403  44.477  17.173  12.017
40868W        W  404  10.709  31.951  10.499
40869W        W  405  20.531   2.871   3.694
40870W        W  406  13.186  27.635  13.422
40871W        W  407   0.372  34.555  13.853
40872W        W  408  40.303  25.084   1.933
40873W        W  409   0.926  31.897  11.095
40874W        W  410  44.314   2.827   2.273
40875W        W  411  35.094  34.445  11.973
40876W        W  412  29.630  20.080   5.313
40877W        W  413  26.601  29.060   3.770
40878W        W  414  29.662  19.734   0.367
40879W        W  415  28.528   0.921  11.379
40880W        W  416   0.984  26.029  14.504
40881W        W  417  30.501  24.522  11.118
40882W        W  418  17.644   7.720   4.605
40883W        W  419   5.702   1.939   4.123
40884W        W  420  39.019  23.726   9.935
40885W        W  421  32.132  15.302   0.448
40886W        W  422  23.700  32.069  14.304
40887W        W  423   4.327  17.092   3.783
40888W        W  424  22.706   9.170  13.447
40889W        W  425  12.334  15.693  10.503
40890W        W  426  44.315  15.150   3.791
40891W        W  427  28.654  40.455  14.760
40892W        W  428   0.337  40.497   4.250
40893W        W  429  19.754   0.785   1.386
40894W        W  430  36.355  44.446   5.139
40895W        W  431  17.244  38.956  13.017
40896W        W  432  18.604  26.001   4.305
40897W        W  433   5.915   1.789  10.955
40898W        W  434   6.892   0.403   1.304
40899W        W  435  41.390   4.376   1.723
40900W        W  436   7.377   7.409   1.349
40901W        W  437  11.680  34.525   2.889
40902W        W  438   1.360  35.110  14.421
40903W        W  439  21.044  12.814  14.868
40904W        W  440   5.248  16.737  13.015
40905W        W  441  16.114  33.463  14.478
40906W        W  442  31.622   8.222  14.761
40907W        W  443  32.539  31.941  10.470
40908W        W  444  41.339  15.706  11.590
40909W        W  445  29.083  18.786   0.748
40910W        W  446  32.939  40.489   3.155
40911W        W  447  14.159  26.974  14.895
40912W        W  448  37.970  24.087  12.578
40913W        W  449  24.030  41.507   3.698
40914W        W  450   7.301  13.114  12.557
40915W        W  451  35.104   5.695   0.855
40916W        W  452  10.310   2.288  14.453
40917W        W  453  11.336   6.374   0.759
40918W        W  454   6.898  27.017   0.446
40919W        W  455  14.752  34.871   0.832
40920W        W  456  24.622  33.463  12.516
40921W        W  457  36.954  19.546  11.929
40922W        W  458  16.590   0.873   3.683
40923W        W  459  27.589  21.566   1.435
40924W        W  460  16.290  44.830  12.976
40925W        W  461  41.317  13.635   0.757
40926W        W  462  12.330  43.975   0.817
40927W        W  463  43.961  14.652   3.782
40928W        W  464  17.298  41.295  14.364
40929W        W  465  12.210   1.789   0.885
40930W        W  466   3.335  15.704   1.407
40931W        W  467  15.308  23.552   0.377
40932W        W  468   1.378   9.257  11.089
40933W        W  469  16.568  15.257  10.419
40934W        W  470  40.456  40.871   2.712
40935W        W  471   2.316  18.169  10.037
40936W        W  472   3.250  14.815   2.233
40937W        W  473  29.071  23.189   1.306
40938W        W  474  43.499  10.173  10.120
40939W        W  475  31.505   4.380  10.453
40940W        W  476  10.746  32.534   1.440
40941W        W  477   5.775  19.655  13.056
40942W        W  478  24.110   4.783   0.742
40943W        W  479  34.105   0.809  12.965
40944W        W  480  44.940  13.742   1.915
40945W        W  481  35.486  33.023   2.251
40946W        W  482  12.127  37.943   3.262
40947W        W  483  22.525  15.093   2.210
40948W        W  484  16.641   3.453  13.412
40949W        W  485  18.653   8.257   4.657
40950W        W  486  40.995  16.129   0.361
40951W        W  487   5.231  44.337  12.885
40952W        W  488  25.218  31.994   1.833
40953W        W  489   3.740  21.584   3.831
40954W        W  490  44.858  16.619   2.192
40955W        W  491  30.630  40.318  13.864
40956W        W  492  11.853  12.850   0.882
40957W        W  493  14.590  42.001  13.455
40958W        W  494   2.785  33.557   1.818
40959W        W  495  44.001  36.436  10.479
40960W        W  496  44.849  19.191  13.820
40961W        W  497  34.395  29.611   1.307
40962W        W  498   7.694  28.958   2.300
40963W        W  499  22.173  40.032  11.940
40964W        W  500  13.238   6.753  13.491
40965W        W  501   2.744  21.232   3.162
40966W        W  502  10.747  44.269   2.859
40967W        W  503  12.625  44.008  12.371
40968W        W  504  30.530  42.000  11.451
40969W        W  505  39.823  30.584   2.851
40970W        W  506  37.349  25.146   9.994
40971W        W  507  38.483  40.341  12.027
40972W        W  508   4.885  29.053  12.533
40973W        W  509   7.789  36.511  12.088
40974W        W  510  28.051  25.519  13.868
40975W        W  511  12.633  25.549   4.632
40976W        W  512   0.778  17.655  10.404
40977W        W  513  37.857   9.736  11.551
40978W        W  514  15.617  16.613  10.128
40979W        W  515  16.252  33.578  12.958
40980W        W  516   7.355   1.309  14.397
40981W        W  517  22.539  17.301  13.329
40982W        W  518  17.739  12.117   4.805
40983W        W  519  19.675   3.792  13.400
40984W        W  520   7.722   8.208  14.948
40985W        W  521  43.871   8.292   1.309
40986W        W  522  37.948  32.411   2.765
40987W        W  523  33.515   6.782   1.848
40988W        W  524  14.612  19.593   3.702
40989W        W  525  12.336  42.976   3.745
40990W        W  526  36.586  39.536   0.478
40991W        W  527  36.878  28.501  14.905
40992W        W  528  25.102   9.379   4.755
40993W        W  529  37.529  40.970   1.419
40994W        W  530  30.039   9.199  14.342
40995W        W  531   8.255  15.227   4.651
40996W        W  532   3.737   9.225  12.515
40997W        W  533   6.229  32.106   3.835
40998W        W  534   9.197  41.814  13.051
40999W        W  535   0.345  28.954   2.226
41000W        W  536  42.473  26.970   1.814
41001W        W  537  12.663   5.200   3.784
41002W        W  538  18.248  17.123   1.402
41003W        W  539  37.489  43.869   0.744
41004W        W  540   4.213   7.808   0.741
41005W        W  541  20.146  10.228   2.812
41006W        W  542  33.493  16.134   9.924
41007W        W  543  34.406  10.776  11.950
41008W        W  544  27.110  21.069  12.095
41009W        W  545   0.256  19.762  14.004
41010W        W  546  10.170  33.071  13.995
41011W        W  547  29.582  43.429  12.975
41012W        W  548  13.192  18.672   4.675
41013W        W  549  42.876   4.267   1.843
41014W        W  550  16.095   5.757  12.577
41015W        W  551  40.504  31.409  13.406
41016W        W  552  28.995   5.752  10.403
41017W        W  553  29.120   6.875  14.380
41018W        W  554  37.366  39.985  12.905
41019W        W  555  10.312   6.832   2.369
41020W        W  556  24.718  31.069  12.063
41021W        W  557  43.804  26.143   1.753
41022W        W  558  36.431   1.434  13.410
41023W        W  559   9.835   8.678  13.493
41024W        W  560  38.420  11.162   2.225
41025W        W  561  15.243  27.019  14.916
41026W        W  562  13.649  42.836   1.254
41027W        W  563  15.291   6.739  12.502
41028W        W  564   8.351  27.539   5.259
41029W        W  565   8.788   0.365   4.681
41030W        W  566  38.397  21.682  13.933
41031W        W  567  32.521   8.901  12.444
41032W        W  568  18.644  31.971   1.851
41033W        W  569  10.856  22.544  13.340
41034W        W  570  11.150  38.555   1.909
41035W        W  571  15.156  36.410   2.861
41036W        W  572  40.868   3.435  13.545
41037W        W  573  19.729  39.965   2.381
41038W        W  574  26.467   3.305   4.191
41039W        W  575   3.253  24.497  13.986
41040W        W  576   2.319  23.564   3.678
41041W        W  577  16.095  17.569   1.247
41042W        W  578  36.853  23.707  12.393
41043W        W  579   2.378  19.149  10.937
41044W        W  580  22.695   6.685   2.340
41045W        W  581  39.560  12.163   1.778
41046W        W  582  12.262  43.471  10.533
41047W        W  583  10.872  17.269   3.757
41048W        W  584  38.459  36.878   4.691
41049W        W  585  17.080  36.084  12.993
41050W        W  586  39.821  17.735   4.597
41051W        W  587  19.722  15.613   1.763
41052W        W  588   5.241  23.578  13.509
41053W        W  589  18.216  32.098  11.559
41054W        W  590  33.455   2.745  11.926
41055W        W  591  38.340   6.314   3.776
41056W        W  592   2.364   4.278  12.384
41057W        W  593   9.759   3.344  14.492
41058W        W  594  22.144  12.236   1.730
41059W        W  595  21.722   9.849   4.615
41060W        W  596  44.280  32.902   2.185
41061W        W  597  28.500  20.654  11.543
41062W        W  598  39.840  30.514  14.966
41063W        W  599  31.936  17.756   3.150
41064W        W  600  32.904   2.779  10.608
41065W        W  601  10.304  22.675   2.895
41066W        W  602  34.904  11.795  12.922
41067W        W  603  13.717  12.283  14.944
41068W        W  604  32.420  15.805   4.612
41069W        W  605  15.792  12.226   2.380
41070W        W  606  23.234  22.733  10.049
41071W        W  607  42.312   8.241  11.453
41072W        W  608  16.283   9.719  11.014
41073W        W  609   3.869  12.179  14.457
41074W        W  610   0.783  28.586   5.159
41075W        W  611  12.342  26.541  13.374
41076W        W  612  17.290  11.258  14.351
41077W        W  613   5.731  24.994  12.986
41078W        W  614  25.076  12.629   4.681
41079W        W  615  41.525   3.939  12.468
41080W        W  616  11.630  25.560   4.676
41081W        W  617  43.405  42.362   2.852
41082W        W  618   3.803  17.567  11.012
41083W        W  619  14.119  23.711  13.417
41084W        W  620   5.761  43.488   3.663
41085W        W  621  15.663  34.907  13.531
41086W        W  622  40.895   9.276  11.072
41087W        W  623  18.718  41.026  13.932
41088W        W  624   8.170   3.302  14.368
41089W        W  625  35.983  36.428  11.545
41090W        W  626   0.778  36.954   0.783
41091W        W  627  20.092  19.771  12.356
41092W        W  628  25.175  12.749   0.844
41093W        W  629  17.646  32.411   2.360
41094W        W  630  29.100   5.754   4.323
41095W        W  631  26.096   0.454  14.765
41096W        W  632  34.068   4.284  13.401
41097W        W  633  29.446  19.678   1.332
41098W        W  634   9.816  13.797  13.922
41099W        W  635  32.564  22.686   1.288
41100W        W  636  12.807  28.492   9.643
41101W        W  637  21.716  43.471   3.837
41102W        W  638  42.311   6.923   3.181
41103W        W  639   9.341  28.476  14.032
41104W        W  640  30.959   6.752  14.290
41105W        W  641   5.354  30.648  14.833
41106W        W  642  39.990  35.039  13.497
41107W        W  643  23.663   5.309   4.250
41108W        W  644  11.651  14.821   2.663
41109W        W  645   6.901  30.607   0.737
41110W        W  646  33.959   4.348  12.368
41111W        W  647   7.714  21.037   4.143
41112W        W  648  28.983  20.028  10.127
41113W        W  649  37.449  41.325   3.661
41114W        W  650   3.228   4.399   3.341
41115W        W  651  22.174  34.466  13.966
41116W        W  652  43.485  23.556  14.782
41117W        W  653  13.145   7.869  14.779
41118W        W  654  43.787  13.149   0.887
41119W        W  655  30.499  37.559   4.604
41120W        W  656   5.711   5.744  12.567
41121W        W  657  13.277  40.006  14.795
41122W        W  658   3.866  36.447   0.767
41123W        W  659  25.474  43.798  14.299
41124W        W  660  33.903  40.013   4.271
41125W        W  661   2.849  18.182  14.324
41126W        W  662  24.524   4.811  14.878
41127W        W  663   0.796  27.950   4.173
41128W        W  664  23.574   6.704   9.969
41129W        W  665  38.514   5.375  13.842
41130W        W  666  23.534  12.840   3.163
41131W        W  667  33.913  10.775  12.887
41132W        W  668  27.459  22.624   1.857
41133W        W  669   2.321  10.337   4.271
41134W        W  670   2.296  18.278   3.323
41135W        W  671  27.132   2.760   2.837
41136W        W  672   8.668   0.394   1.220
41137W        W  673   8.355  13.742   0.726
41138W        W  674  15.651  15.785   0.902
41139W        W  675   6.922  43.903   4.252
41140W        W  676   1.888  26.648   5.585
41141W        W  677  43.430  17.120   4.136
41142W        W  678  19.085  10.745   4.325
41143W        W  679  19.280   9.768   3.689
41144W        W  680  28.680  29.427  14.351
41145W        W  681  32.547  13.338   3.160
41146W        W  682  20.120  10.187  14.931
41147W        W  683  26.678   0.352   3.306
41148W        W  684   5.431   8.183   1.890
41149W        W  685   8.318  39.477   3.702
41150W        W  686  37.408   5.699   2.848
41151W        W  687  13.130  14.733  14.813
41152W        W  688  36.961  44.345  11.607
41153W        W  689   5.203  25.161   1.812
41154W        W  690  34.440  20.164   1.910
41155W        W  691   9.202  33.013  11.451
41156W        W  692  39.534  20.588  14.767
41157W        W  693  22.583   4.769   1.349
41158W        W  694  31.606  31.027  12.382
41159W        W  695   3.794  15.130  10.501
41160W        W  696  38.343  18.584  13.327
41161W        W  697  28.052  27.030   3.386
41162W        W  698   9.769   1.936  14.438
41163W        W  699  21.024  35.085  14.935
41164W        W  700  22.999  15.201  10.920
41165W        W  701  39.438  26.503   9.966
41166W        W  702  31.987  29.043   3.325
41167W        W  703  22.532   8.729   2.828
41168W        W  704   7.288  10.657  13.961
41169W        W  705  16.627   4.911   0.270
41170W        W  706  21.628  18.198  11.909
41171W        W  707  42.379  41.921  14.984
41172W        W  708  11.746   8.258   4.663
41173W        W  709  40.827  43.943   1.839
41174W        W  710  26.603  29.936   4.710
41175W        W  711   3.884  33.894   1.824
41176W        W  712   5.795  39.473  10.992
41177W        W  713   3.770  36.566   1.241
41178W        W  714   0.745  25.632  13.797
41179W        W  715  31.497  17.291  11.573
41180W        W  716   9.657   7.888   1.361
41181W        W  717  26.578  25.655  10.934
41182W        W  718  15.772   4.356   1.803
41183W        W  719  37.537  12.620   0.819
41184W        W  720  20.200  11.216   1.811
41185W        W  721  18.734  22.018   2.290
41186W        W  722  25.136  42.958  10.496
41187W        W  723  43.341  14.336  11.933
41188W        W  724  17.102  27.684   4.696
41189W        W  725  23.668  34.051   3.266
41190W        W  726  22.502   8.213   2.195
41191W        W  727  39.452  42.854  13.493
41192W        W  728  21.255  39.935  14.848
41193W        W  729   3.388  43.390  10.479
41194W        W  730  39.520  30.631   2.789
41195W        W  731  25.094   7.181   2.258
41196W        W  732   5.242  37.934   2.800
41197W        W  733   3.752  27.677   2.697
41198W        W  734   5.255  41.921  13.447
41199W        W  735  23.029  12.707  10.521
41200W        W  736   8.717  34.954  14.014
41201W        W  737  16.308  27.619  14.836
41202W        W  738  22.694  21.693   1.405
41203W        W  739  33.040   5.436  11.076
41204W        W  740  29.490  26.180   4.296
41205W        W  741   6.307  33.884  13.545
41206W        W  742  41.793  16.721  10.520
41207W        W  743  38.339  29.092  12.366
41208W        W  744   7.750  32.992  14.907
41209W        W  745  19.160  15.823  12.031
41210W        W  746   4.233   7.819   2.268
41211W        W  747   7.208  12.234  13.013
41212W        W  748   9.817  31.647  14.472
41213W        W  749  34.901  42.841   3.637
41214W        W  750  19.266  12.783   0.298
41215W        W  751  32.035   1.460  10.458
41216W        W  752  15.798  32.029  11.485
41217W        W  753  26.069  44.505   3.660
41218W        W  754  37.393  27.048  12.450
41219W        W  755  20.530  35.005  13.793
41220W        W  756  36.549  37.998   0.438
41221W        W  757  19.220  29.093  11.926
41222W        W  758  25.656  35.065   1.895
41223W        W  759   1.861  20.735  13.315
41224W        W  760  44.789  30.646   0.378
41225W        W  761  10.795  12.621   2.752
41226W        W  762   2.902   0.947  11.535
41227W        W  763   3.783  41.408  13.838
41228W        W  764  33.123  26.098   0.432
41229W        W  765  43.955  25.152  11.392
41230W        W  766  29.098  20.217  12.958
41231W        W  767   5.235  22.543   0.390
41232W        W  768  30.986   8.386   3.346
41233W        W  769  36.448  20.106   0.284
41234W        W  770  18.277  38.068   0.942
41235W        W  771  15.145  17.061  13.809
41236W        W  772  37.932  12.320   1.870
41237W        W  773  19.533   9.290   3.364
41238W        W  774  43.381  29.163   0.413
41239W        W  775  11.793  24.033  14.356
41240W        W  776   0.349  15.164  14.306
41241W        W  777  38.025  33.957   2.346
41242W        W  778   7.699   7.304  12.051
41243W        W  779  15.817  10.265   2.806
41244W        W  780  27.979  43.844   0.411
41245W        W  781   6.753  28.112  12.020
41246W        W  782  38.426  29.520   1.339
41247W        W  783  34.545  15.641  11.371
41248W        W  784   4.789  24.042  14.856
41249W        W  785  39.319  24.559  14.875
41250W        W  786  10.149  33.579   5.295
41251W        W  787  21.192  30.613   0.474
41252W        W  788  41.297  22.998  12.993
41253W        W  789   9.341  42.820   1.846
41254W        W  790   6.766  44.275   3.289
41255W        W  791  11.139  14.796  12.389
41256W        W  792   9.358  15.688   2.236
41257W        W  793   3.437   7.788   0.843
41258W        W  794   0.289  10.669  12.001
41259W        W  795  36.064  43.972  10.450
41260W        W  796  28.021  42.857   5.202
41261W        W  797   9.261  40.366   1.343
41262W        W  798  19.545  42.933   4.257
41263W        W  799  31.962   3.931   2.240
41264W        W  800  27.618  41.463   2.816
41265W        W  801  38.499  39.384  10.969
41266W        W  802  14.287  21.116  14.900
41267W        W  803  26.202  29.473   3.645
41268W        W  804   4.703  23.164   1.314
41269W        W  805  37.924  15.754  14.500
41270W        W  806   9.364  10.770  10.584
41271W        W  807   4.877  35.077  13.836
41272W        W  808  22.731  18.083  14.896
41273W        W  809   4.394  31.930   2.312
41274W        W  810   0.967  18.579  10.958
41275W        W  811  44.421  14.173  10.046
41276W        W  812  29.939   3.445  10.004
41277W        W  813  33.910  17.231   3.701
41278W        W  814   4.295  30.926   4.630
41279W        W  815   8.693  13.301   1.289
41280W        W  816  19.091  21.743  12.537
41281W        W  817   7.378  23.033  10.624
41282W        W  818  44.949   7.320  12.840
41283W        W  819  38.061   7.373  11.945
41284W        W  820  10.186  37.384   0.444
41285W        W  821  17.089  14.194  11.389
41286W        W  822   3.454   5.274  12.848
41287W        W  823  12.321  21.717   3.186
41288W        W  824  35.473  21.026   2.709
41289W        W  825  30.928  16.111   3.841
41290W        W  826  33.520  42.842   0.376
41291W        W  827  13.272  11.715   2.375
41292W        W  828  28.655  30.561  13.015
41293W        W  829  13.690  32.950   0.393
41294W        W  830  35.530  28.499   3.748
41295W        W  831  25.092  42.497   1.360
41296W        W  832  42.889  43.381   3.667
41297W        W  833   4.423  29.973   4.310
41298W        W  834   0.415   8.374   3.371
41299W        W  835  18.616   2.442  13.426
41300W        W  836  25.589  25.682   1.764
41301W        W  837   6.412  31.990   2.812
41302W        W  838  11.199  43.910   4.268
41303W        W  839  38.506  28.655  12.554
41304W        W  840  16.671   7.177   3.677
41305W        W  841   6.910  22.064   2.678
41306W        W  842  22.634   6.854  11.055
41307W        W  843  37.494  39.374   0.448
41308W        W  844  44.288  38.001   1.789
41309W        W  845  19.557  30.064  12.430
41310W        W  846   5.892  36.402   0.858
41311W        W  847   1.771  18.686  13.397
41312W        W  848  18.089  29.425  12.940
41313W        W  849  41.023  43.310   0.382
41314W        W  850  13.622  37.374  10.460
41315W        W  851  44.452  21.023   4.692
41316W        W  852  19.161  40.510   3.852
41317W        W  853  37.832   7.678   2.354
41318W        W  854  16.750  39.335   4.332
41319W        W  855  30.080   1.749   3.860
41320W        W  856  11.362  28.048  11.034
41321W        W  857  16.764  35.995   4.251
41322W        W  858  15.622  31.946  12.986
41323W        W  859  31.415  33.438  12.929
41324W        W  860  22.557  22.578  14.942
41325W        W  861  30.161  29.094  10.540
41326W        W  862  18.203  15.271   1.749
41327W        W  863  30.464  22.009  13.321
41328W        W  864  31.990   9.333   2.681
41329W        W  865  16.085   0.774  11.480
41330W        W  866  33.904  11.160   2.327
41331W        W  867  18.693  21.227   3.217
41332W        W  868   1.360  20.653  11.011
41333W        W  869  30.639  31.954  11.392
41334W        W  870   7.852  31.530   0.891
41335W        W  871  27.046  11.306   0.398
41336W        W  872   0.786  17.767   3.854
41337W        W  873  14.226  17.751   2.400
41338W        W  874  25.469  12.194   0.850
41339W        W  875  20.759   9.801  14.793
41340W        W  876  35.971  28.446   0.290
41341W        W  877  20.070  10.644   4.723
41342W        W  878  42.002   7.221  13.037
41343W        W  879  26.552  36.054  12.516
41344W        W  880  30.936  33.998   1.744
41345W        W  881  36.437   4.874   4.286
41346W        W  882  25.022  13.329   2.707
41347W        W  883  30.151  33.521  14.291
41348W        W  884  10.644  36.062  11.885
41349W        W  885  31.502   3.292   2.795
41350W        W  886  16.702   2.302   4.663
41351W        W  887  22.227  33.444  14.791
41352W        W  888  14.158  37.491  13.834
41353W        W  889  21.613  41.501  10.585
41354W        W  890  43.839  17.746   2.840
41355W        W  891  24.518  36.543   2.835
41356W        W  892  11.838  38.513   4.754
41357W        W  893  39.535  23.222  11.984
41358W        W  894  16.675   4.418   2.826
41359W        W  895  15.164  31.411   3.744
41360W        W  896  21.569  32.997   2.681
41361W        W  897  16.625  41.521   4.301
41362W        W  898  29.982  32.896   1.825
41363W        W  899  34.435  43.822  11.451
41364W        W  900  30.415  34.931  14.873
41365W        W  901  17.285  44.764  14.760
41366W        W  902  14.781  23.144   0.430
41367W        W  903  18.207  25.627   3.181
41368W        W  904  44.906  31.406  12.490
41369W        W  905  43.465  33.469  12.550
41370W        W  906  36.914   0.406   5.189
41371W        W  907  37.888   9.165   1.892
41372W        W  908  16.735   9.888  11.394
41373W        W  909  11.862  13.779  14.926
41374W        W  910  21.613  42.782  14.886
41375W        W  911  23.536  18.740  13.868
41376W        W  912  44.841  22.556   2.211
41377W        W  913  21.529   4.856   0.431
41378W        W  914  32.092  38.452   0.290
41379W        W  915   2.758  22.115  11.943
41380W        W  916  40.369  21.072   2.282
41381W        W  917  29.666  24.145  11.082
41382W        W  918  21.597  29.139   2.714
41383W        W  919  19.092  21.219  13.947
41384W        W  920  28.647  39.520  12.948
41385W        W  921  41.514  18.108   1.408
41386W        W  922  15.092  34.574   1.805
41387W        W  923  33.383  42.987  12.544
41388W        W  924   7.676  25.700   0.783
41389W        W  925  40.016  17.245   2.243
41390W        W  926  38.392   1.966   9.586
41391W        W  927  44.817   6.755  11.478
41392W        W  928   1.929  14.253   3.674
41393W        W  929  27.006   8.185   4.215
41394W        W  930  14.829  39.856  13.966
41395W        W  931  14.701  38.955   2.692
41396W        W  932   6.735  44.372   0.375
41397W        W  933  37.402  40.351   4.823
41398W        W  934  19.617  30.139   4.680
41399W        W  935  27.193  20.053  13.326
41400W        W  936  36.903  13.694  14.027
41401W        W  937  27.544  39.892   3.150
41402W        W  938  20.696  18.277  13.947
41403W        W  939  42.428  10.745  10.407
41404W        W  940  14.123  19.270  13.384
41405W        W  941  27.630  36.891   4.800
41406W        W  942   1.389  26.138   2.227
41407W        W  943  38.355  18.595  14.478
41408W        W  944   0.311   8.889  11.931
41409W        W  945   4.329  31.581  14.298
41410W        W  946  14.814  13.658   3.715
41411W        W  947  15.821  14.167   3.715
41412W        W  948  10.265  16.635   4.157
41413W        W  949   6.358  25.156   2.693
41414W        W  950  37.561  31.406   4.253
41415W        W  951   5.288  19.669   5.238
41416W        W  952  37.938  14.650  11.575
41417W        W  953  38.924  19.115  14.347
41418W        W  954  13.149  12.684  12.862
41419W        W  955  44.851  29.481   4.345
41420W        W  956  11.153   0.882  11.932
41421W        W  957  20.144  35.487  13.963
41422W        W  958  14.253  22.069  11.565
41423W        W  959  10.636   3.797   3.281
41424W        W  960  33.130   2.360   1.814
41425W        W  961  12.128  35.962   3.252
41426W        W  962  41.809  31.633  12.899
41427W        W  963  22.600  38.917  12.057
41428W        W  964  11.625  17.101   3.186
41429W        W  965   8.180   3.448   0.463
41430W        W  966  13.712  42.801  10.919
41431W        W  967  31.911  29.035   0.783
41432W        W  968  31.626  25.194   0.909
41433W        W  969   7.681  11.802  10.631
41434W        W  970   8.406  37.983  11.128
41435W        W  971  24.208  16.206  12.838
41436W        W  972  17.183   1.327  14.866
41437W        W  973  42.940  20.040   4.143
41438W        W  974  10.750  44.276  10.519
41439W        W  975   0.876   6.362   3.246
41440W        W  976  35.486  43.421  13.855
41441W        W  977  31.141  37.551   9.973
41442W        W  978  18.591  41.422  13.526
41443W        W  979  29.169   1.322  13.944
41444W        W  980   9.843  23.513  11.910
41445W        W  981  30.938  24.628  12.095
41446W        W  982  32.136   7.194  10.591
41447W        W  983  38.828  20.247   3.362
41448W        W  984  42.020   5.322   1.336
41449W        W  985  26.460   2.386  12.851
41450W        W  986  22.555  25.990   4.710
41451W        W  987   0.774   3.723  14.395
41452W        W  988  42.850  18.239   0.815
41453W        W  989  43.893  31.088  10.537
41454W        W  990  23.136  23.106  12.020
41455W        W  991  31.080  26.103   1.321
41456W        W  992  35.978  22.717   3.794
41457W        W  993  27.547   0.456   3.188
41458W        W  994  28.009  30.041  11.393
41459W        W  995  32.423  33.041   0.377
41460W        W  996  31.097  16.595  10.446
41461W        W  997  12.305   7.781   1.219
41462W        W  998  31.540   8.183   1.876
41463W        W  999  17.773  40.810  11.906
41464W        W 1000  10.261  17.580  14.894
41465W        W 1001  24.553   3.916  14.450
41466W        W 1002  42.865  35.929  14.028
41467W        W 1003  39.438   7.828   2.368
41468W        W 1004  30.075   8.351   1.370
41469W        W 1005  18.119  35.951  14.783
41470W        W 1006   7.870  32.129  12.048
41471W        W 1007  26.162  29.168  11.457
41472W        W 1008   9.165  11.754   0.799
41473W        W 1009   7.826  21.636   2.344
41474W        W 1010   6.333  39.495  11.373
41475W        W 1011  40.397   3.262  13.844
41476W        W 1012  30.519  24.050  11.526
41477W        W 1013  25.477   8.715  10.537
41478W        W 1014  21.752   2.912  11.493
41479W        W 1015   2.420  42.029  12.346
41480W        W 1016  30.957   3.362   0.956
41481W        W 1017  39.483  33.481   3.215
41482W        W 1018  30.547  11.830  11.108
41483W        W 1019  42.499  27.551  11.985
41484W        W 1020   7.176   9.839  10.923
41485W        W 1021  38.867  25.567  13.335
41486W        W 1022  41.908  44.306   4.339
41487W        W 1023  20.251   8.405   3.229
41488W        W 1024  36.014  39.540  13.338
41489W        W 1025  34.589  24.715  14.022
41490W        W 1026  18.103  32.899   0.318
41491W        W 1027  38.377  12.620   2.359
41492W        W 1028  25.496   2.814  11.049
41493W        W 1029  32.020   6.414  10.473
41494W        W 1030  21.589  14.145  14.916
41495W        W 1031  16.766  30.088  14.484
41496W        W 1032  11.258  36.020  11.432
41497W        W 1033  39.925  25.702  11.497
41498W        W 1034  26.153  41.335   0.816
41499W        W 1035  29.526  23.027   4.349
41500W        W 1036  21.237   9.813   5.172
41501W        W 1037  20.737  42.000  14.379
41502W        W 1038  33.089  38.427   1.781
41503W        W 1039  25.999  27.066   1.752
41504W        W 1040  44.997  13.210   0.881
41505W        W 1041  11.312  36.375  14.836
41506W        W 1042  42.473  44.358   1.451
41507W        W 1043  11.146   3.851  11.864
41508W        W 1044  12.286   3.819  11.462
41509W        W 1045  26.154  10.733  10.571
41510W        W 1046   9.358   3.335   1.272
41511W        W 1047   1.939  27.068  11.913
41512W        W 1048  40.363  40.009   3.293
41513W        W 1049   1.794  26.170   4.329
41514W        W 1050  22.699   6.246   0.345
41515W        W 1051  44.331  10.714   0.253
41516W        W 1052   6.722  29.062   3.862
41517W        W 1053  43.845   1.915   0.903
41518W        W 1054  37.972  20.540   1.419
41519W        W 1055  23.517  36.496  14.487
41520W        W 1056  26.123  22.688   3.862
41521W        W 1057  35.561  31.002  13.514
41522W        W 1058   8.837  14.611  13.882
41523W        W 1059  44.936  14.286   3.181
41524W        W 1060  10.242  12.239   1.451
41525W        W 1061   9.681  20.700   2.202
41526W        W 1062  31.536  24.561   9.508
41527W        W 1063  40.033  12.671  12.579
41528W        W 1064  16.292   0.337   2.696
41529W        W 1065  29.627  33.055   2.197
41530W        W 1066  23.563   7.860  12.939
41531W        W 1067  18.768  32.930  14.301
41532W        W 1068   4.914  44.926  12.502
41533W        W 1069  24.095  30.000  14.366
41534W        W 1070  37.856  26.594   3.864
41535W        W 1071  36.432  11.346  11.433
41536W        W 1072  15.732  20.684  12.025
41537W        W 1073  20.234  31.600   1.295
41538W        W 1074  31.413  39.352   1.306
41539W        W 1075  20.127  30.460  10.577
41540W        W 1076  31.930  43.485   3.702
41541W        W 1077  39.051  19.746  12.986
41542W        W 1078   6.686  16.687   4.158
41543W        W 1079  29.061  17.789  13.956
41544W        W 1080  37.519  38.368  14.024
41545W        W 1081  14.631   5.706   0.744
41546W        W 1082  42.896   8.886   9.957
41547W        W 1083  10.350  30.631   0.902
41548W        W 1084  17.276  21.173   0.827
41549W        W 1085   3.931   7.290  11.102
41550W        W 1086  16.130  26.598  12.878
41551W        W 1087  27.124   9.872   3.384
41552W        W 1088   5.884  40.865  13.338
41553W        W 1089  13.813   5.388   2.277
41554W        W 1090  33.450   8.707   2.405
41555W        W 1091  17.651  19.146   0.767
41556W        W 1092  14.654   4.437  13.064
41557W        W 1093  14.275  15.735  12.443
41558W        W 1094  41.003   6.235  12.976
41559W        W 1095   9.763  37.461   0.374
41560W        W 1096  18.147  16.652   1.882
41561W        W 1097  13.256   9.856  14.513
41562W        W 1098  20.714  35.536   0.477
41563W        W 1099   0.869  32.903  11.002
41564W        W 1100   5.249  31.134  14.340
41565W        W 1101  22.663   3.404   9.599
41566W        W 1102  37.067  42.940   4.823
41567W        W 1103   4.822  19.161   2.210
41568W        W 1104  18.568   0.946  13.903
41569W        W 1105  22.638   9.339   0.793
41570W        W 1106   3.293  35.912   4.711
41571W        W 1107  34.375   1.870  14.833
41572W        W 1108  28.581  31.574   0.309
41573W        W 1109  12.347  22.674   0.428
41574W        W 1110  11.823  27.617   4.741
41575W        W 1111  22.556  33.012   0.371
41576W        W 1112  15.127   4.788  11.536
41577W        W 1113  44.325  12.213   1.755
41578W        W 1114   5.740  17.196  13.794
41579W        W 1115  32.006  19.607   4.260
41580W        W 1116  22.590  40.931   4.157
41581W        W 1117   8.325  17.250  11.952
41582W        W 1118  14.283   2.292  12.078
41583W        W 1119  36.564  30.044   2.309
41584W        W 1120  13.663  28.621  14.348
41585W        W 1121  18.268  22.602   3.166
41586W        W 1122  38.392  32.623   1.292
41587W        W 1123  23.064  34.378  10.917
41588W        W 1124  11.295   3.409  12.862
41589W        W 1125   8.381   7.263   1.886
41590W        W 1126  27.656  44.852  13.457
41591W        W 1127  37.549  22.231  13.933
41592W        W 1128   3.260  32.028   3.276
41593W        W 1129  25.992  34.013  10.640
41594W        W 1130   9.712  10.835   0.961
41595W        W 1131  21.146  33.471   2.335
41596W        W 1132  17.063   3.337   2.248
41597W        W 1133  24.639  18.233  11.933
41598W        W 1134  29.148   3.399  11.107
41599W        W 1135  21.179  39.560  11.931
41600W        W 1136  12.701  12.622   0.833
41601W        W 1137  32.064  41.962   2.834
41602W        W 1138  31.006  12.124   1.933
41603W        W 1139  37.027  19.694  11.082
41604W        W 1140  24.616  17.283   4.150
41605W        W 1141  19.654  42.482  10.919
41606W        W 1142  29.462  29.463   1.331
41607W        W 1143  44.885  22.129  11.998
41608W        W 1144  24.078  12.727   4.213
41609W        W 1145   4.873  31.555   4.611
41610W        W 1146  23.223  10.640  13.956
41611W        W 1147  28.465   3.798   2.801
41612W        W 1148  18.665   6.837  12.491
41613W        W 1149  37.912   3.818  13.912
41614W        W 1150  11.212  33.998   4.700
41615W        W 1151  15.731  24.510  13.358
41616W        W 1152  14.605  23.607   1.786
41617W        W 1153  10.793   4.717  10.432
41618W        W 1154  19.695  22.513  10.952
41619W        W 1155  15.290  37.972  13.330
41620W        W 1156   4.300   9.838  13.791
41621W        W 1157  25.001   6.890   3.165
41622W        W 1158  40.405   9.356  11.477
41623W        W 1159  14.102  32.511   1.451
41624W        W 1160  27.590  40.382   4.834
41625W        W 1161   1.972  19.691  13.816
41626W        W 1162  28.110  28.641   0.470
41627W        W 1163  40.314   3.232  14.905
41628W        W 1164  26.958   4.364  10.087
41629W        W 1165  42.031  20.097   1.914
41630W        W 1166  35.567  31.070  13.032
41631W        W 1167  43.432  17.671   1.846
41632W        W 1168   5.850  21.057  14.001
41633W        W 1169  18.105  20.671  10.412
41634W        W 1170  24.669  17.785  12.091
41635W        W 1171  19.099   1.468   0.414
41636W        W 1172  35.532   1.333  11.467
41637W        W 1173  39.824   0.875  11.604
41638W        W 1174  18.067  13.246   0.788
41639W        W 1175  29.646  43.955   1.217
41640W        W 1176   9.365  10.655   4.674
41641W        W 1177  23.626  28.443   2.693
41642W        W 1178  26.061  29.104  12.342
41643W        W 1179  25.200  17.217   5.164
41644W        W 1180  28.053   9.172   4.334
41645W        W 1181  32.998  10.232  12.835
41646W        W 1182  21.074  35.426   9.973
41647W        W 1183  37.857  36.485  10.549
41648W        W 1184   9.246  37.491  14.426
41649W        W 1185  32.107  30.593   0.296
41650W        W 1186  14.697   0.974   3.792
41651W        W 1187  41.294   7.845  13.820
41652W        W 1188  34.449  37.544   1.395
41653W        W 1189  21.182  19.731  14.837
41654W        W 1190  34.891  21.753   1.720
41655W        W 1191  21.684  40.514  14.362
41656W        W 1192  44.996  40.819  13.880
41657W        W 1193   6.379  27.036   1.411
41658W        W 1194  30.637  19.153   1.843
41659W        W 1195  27.017  41.878   0.376
41660W        W 1196   9.224  18.640  14.437
41661W        W 1197  17.153  23.989   4.649
41662W        W 1198  42.325  34.438  10.618
41663W        W 1199  12.656  40.948   2.257
41664W        W 1200  25.622   0.827   3.193
41665W        W 1201  22.594  37.466   4.122
41666W        W 1202  44.405  34.947  14.917
41667W        W 1203  14.229  14.709   4.176
41668W        W 1204  43.881  12.232   3.840
41669W        W 1205  10.350  16.679   3.706
41670W        W 1206  29.600  29.080   0.798
41671W        W 1207  38.821  13.753  14.877
41672W        W 1208  43.774  34.463  13.864
41673W        W 1209  33.122  30.633   2.415
41674W        W 1210  32.086   8.265   2.800
41675W        W 1211   5.715  33.384  13.483
41676W        W 1212   7.788  19.220   0.269
41677W        W 1213  20.136   9.303   2.728
41678W        W 1214  18.140  39.857  13.972
41679W        W 1215  35.034  29.467   0.848
41680W        W 1216  41.424  24.650   1.255
41681W        W 1217  42.290  34.916   0.423
41682W        W 1218   0.962   5.833   2.351
41683W        W 1219  16.124  30.046  11.471
41684W        W 1220  19.091   4.719   0.408
41685W        W 1221  14.122  26.038  13.477
41686W        W 1222  41.348  43.987   1.232
41687W        W 1223  16.604   4.872  10.549
41688W        W 1224   7.678   7.293  13.013
41689W        W 1225   4.817  24.123  13.343
41690W        W 1226   1.925  19.191  12.926
41691W        W 1227  14.665  34.425  10.097
41692W        W 1228  21.098  18.149  12.029
41693W        W 1229  17.297  14.125  10.115
41694W        W 1230  37.398   5.839   4.120
41695W        W 1231  28.461  15.640  11.399
41696W        W 1232  37.953  27.182   2.771
41697W        W 1233  17.078  36.010  14.936
41698W        W 1234  34.606  17.790  13.412
41699W        W 1235  16.254   2.914   4.272
41700W        W 1236  38.066  38.484  12.410
41701W        W 1237  42.494  18.233  13.844
41702W        W 1238  11.651   9.799  14.855
41703W        W 1239   6.871  23.237  13.377
41704W        W 1240  32.998  40.844   0.351
41705W        W 1241   2.893  11.252   1.789
41706W        W 1242  42.474  22.183  11.414
41707W        W 1243  44.984  41.446   4.604
41708W        W 1244  32.899   9.663  13.404
41709W        W 1245  17.715  40.396  12.069
41710W        W 1246   3.378  13.144   2.885
41711W        W 1247  34.902  21.148   2.219
41712W        W 1248  16.182  18.715   0.946
41713W        W 1249  36.375  16.226   3.742
41714W        W 1250  14.651  32.928   2.316
41715W        W 1251  41.940  43.419   0.288
41716W        W 1252  36.415  34.986   2.372
41717W        W 1253  23.630  23.584   4.734
41718W        W 1254   0.867  39.891   3.148
41719W        W 1255  30.420  39.433  12.043
41720W        W 1256  24.199  28.611  13.435
41721W        W 1257  29.495  14.818  10.436
41722W        W 1258  35.109  12.763   2.397
41723W        W 1259   1.352  19.698  10.620
41724W        W 1260  14.280  27.127   4.233
41725W        W 1261  44.937  34.422  11.513
41726W        W 1262  42.486   5.435   1.850
41727W        W 1263  36.411  13.165  10.424
41728W        W 1264   8.855  41.321   2.709
41729W        W 1265  34.437  41.472  10.966
41730W        W 1266  11.697  19.707   2.664
41731W        W 1267   2.759  37.840   3.328
41732W        W 1268  16.612  19.624   1.266
41733W        W 1269  32.614  43.915  13.329
41734W        W 1270  27.455  38.561  11.046
41735W        W 1271  22.009  23.069   4.765
41736W        W 1272  38.465  36.484  14.883
41737W        W 1273  36.033  39.394  14.438
41738W        W 1274  19.586  11.639  14.413
41739W        W 1275  42.504  20.194   1.763
41740W        W 1276   1.741   9.256  11.086
41741W        W 1277  20.241  40.975  12.406
41742W        W 1278  29.542  18.083  12.343
41743W        W 1279  24.651   6.364   0.846
41744W        W 1280  36.443   3.351  14.818
41745W        W 1281   3.364  22.650  11.498
41746W        W 1282  24.609  43.278   4.800
41747W        W 1283  39.408  29.587  12.017
41748W        W 1284  38.914   8.233   2.204
41749W        W 1285   4.377  37.023  13.836
41750W        W 1286  16.152   7.397   5.265
41751W        W 1287   5.868  17.772  12.360
41752W        W 1288   7.252   3.717   1.794
41753W        W 1289   5.841  16.731   0.901
41754W        W 1290  18.126  22.126  13.906
41755W        W 1291   6.309  14.291   2.251
41756W        W 1292  22.682  26.208   3.206
41757W        W 1293  34.452  40.423   1.700
41758W        W 1294  42.506  21.549   2.263
41759W        W 1295  36.387  27.161   0.767
41760W        W 1296   7.293   8.676   3.301
41761W        W 1297  30.127  26.668   1.869
41762W        W 1298  37.074  37.866  13.372
41763W        W 1299  28.936  11.132  10.935
41764W        W 1300  10.785  12.842  11.857
41765W        W 1301  34.052  34.870  10.561
41766W        W 1302  10.343  16.151  14.319
41767W        W 1303  17.659  40.026   4.622
41768W        W 1304   4.295  31.425   3.360
41769W        W 1305  44.763  27.055   2.820
41770W        W 1306  23.086  43.784   1.869
41771W        W 1307  35.868  23.058  14.395
41772W        W 1308  16.316  37.519  13.870
41773W        W 1309  43.403   8.805   3.247
41774W        W 1310  33.602  23.509  12.840
41775W        W 1311  37.443  36.883  14.942
41776W        W 1312  23.046  43.790  11.967
41777W        W 1313  37.534   9.275   2.667
41778W        W 1314  44.821  17.620   2.364
41779W        W 1315  21.144  30.420   1.411
41780W        W 1316  32.052  15.122   0.806
41781W        W 1317   9.845   9.840  13.944
41782W        W 1318  20.122  29.082  14.975
41783W        W 1319  20.648  41.339   2.401
41784W        W 1320   1.945   3.427   1.262
41785W        W 1321  43.950  34.037   0.455
41786W        W 1322  10.195  21.139  10.907
41787W        W 1323  25.713  27.690  13.340
41788W        W 1324  34.372  39.521  14.903
41789W        W 1325   3.876  26.690  12.850
41790W        W 1326   3.270  29.517   0.806
41791W        W 1327  34.377   0.477  14.776
41792W        W 1328  35.033   8.821  10.128
41793W        W 1329  19.063  15.670   0.930
41794W        W 1330  13.272   7.823  13.885
41795W        W 1331  39.014  20.171  13.856
41796W        W 1332  28.929  11.290   0.932
41797W        W 1333  20.099   2.917   3.715
41798W        W 1334  27.020  26.561  12.031
41799W        W 1335  17.801  23.589   4.320
41800W        W 1336  23.192   2.382   2.199
41801W        W 1337  14.826  13.278  12.535
41802W        W 1338  42.016  29.123   2.690
41803W        W 1339  25.512  40.959   4.132
41804W        W 1340  29.586   0.267  13.527
41805W        W 1341  17.165  34.462  14.412
41806W        W 1342  13.235  16.093   2.313
41807W        W 1343  26.122   3.710   4.835
41808W        W 1344  28.510  24.633   1.750
41809W        W 1345  22.658  17.268  13.848
41810W        W 1346  16.078  11.207  13.802
41811W        W 1347  11.256  39.360   2.419
41812W        W 1348   8.743  12.721  11.394
41813W        W 1349   3.321  14.802  14.393
41814W        W 1350  21.698  21.162   4.775
41815W        W 1351   1.384   3.232  13.341
41816W        W 1352  40.508  22.147  10.909
41817W        W 1353  38.028  22.629   1.872
41818W        W 1354  41.526   9.721  13.054
41819W        W 1355  22.729   1.258   4.724
41820W        W 1356  36.544  23.018   2.737
41821W        W 1357  35.095  18.243   1.919
41822W        W 1358  21.145  17.217   4.224
41823W        W 1359   6.775  30.504   1.905
41824W        W 1360  36.357  43.374   2.291
41825W        W 1361   6.184  21.625   2.715
41826W        W 1362  43.022  23.117  13.906
41827W        W 1363  42.895   9.855   1.245
41828W        W 1364   8.345  16.627  12.062
41829W        W 1365  18.132   0.295   4.790
41830W        W 1366   2.738  42.499   2.793
41831W        W 1367  27.157  34.540  10.074
41832W        W 1368  42.977  35.444   3.247
41833W        W 1369  26.203  26.641   2.249
41834W        W 1370  38.349  12.804   2.768
41835W        W 1371   5.713   7.364   1.808
41836W        W 1372  41.331  28.538  11.018
41837W        W 1373  28.011  18.681   3.170
41838W        W 1374  11.827   3.824  11.406
41839W        W 1375  39.464  25.593   0.850
41840W        W 1376  12.623   1.271  10.425
41841W        W 1377  37.069  16.244  12.356
41842W        W 1378  17.252  21.192  12.367
41843W        W 1379  36.455  16.144  14.320
41844W        W 1380   5.272  32.109   4.691
41845W        W 1381  12.828  37.891  11.480
41846W        W 1382  34.006  35.003  14.383
41847W        W 1383  18.630   0.432  13.541
41848W        W 1384  10.350  22.548  11.602
41849W        W 1385  13.217  13.244   3.217
41850W        W 1386  42.521   0.368  10.911
41851W        W 1387  12.722  21.613   4.834
41852W        W 1388   8.724  18.746   4.161
41853W        W 1389   4.203  25.160   3.169
41854W        W 1390   1.840  44.838  11.123
41855W        W 1391  18.079  38.561   4.815
41856W        W 1392  28.446   9.305   1.220
41857W        W 1393  39.989  29.016  12.881
41858W        W 1394  43.900  24.676   2.745
41859W        W 1395  21.628  36.361   3.851
41860W        W 1396  43.776  22.549  10.443
41861W        W 1397   0.953  34.895   2.781
41862W        W 1398  38.857  15.167   3.270
41863W        W 1399   0.829   6.696  11.554
41864W        W 1400  38.975  12.771   2.224
41865W        W 1401   7.196  37.348  11.554
41866W        W 1402   1.367  15.177  12.418
41867W        W 1403  40.917  37.386  12.523
41868W        W 1404  42.311  44.893   2.388
41869W        W 1405  21.724  37.354  14.824
41870W        W 1406   9.392   3.817  12.079
41871W        W 1407  39.503  24.571   0.727
41872W        W 1408  20.711  34.968   2.734
41873W        W 1409  36.986  24.165  13.338
41874W        W 1410  44.397  17.630   3.197
41875W        W 1411   6.374  29.571   4.776
41876W        W 1412  21.587  42.494   1.282
41877W        W 1413  33.459  21.126  14.299
41878W        W 1414  27.506  18.108   2.903
41879W        W 1415   1.942  42.015  12.890
41880W        W 1416  33.457  23.150   2.192
41881W        W 1417  35.592   0.356   1.287
41882W        W 1418  39.352  32.904   0.342
41883W        W 1419  29.154  39.898  13.425
41884W        W 1420  19.618  30.000   2.863
41885W        W 1421   3.830  41.003   0.951
41886W        W 1422   8.768   1.445  10.946
41887W        W 1423  22.036   3.907  13.804
41888W        W 1424  40.864  13.819  10.135
41889W        W 1425  27.069   3.239   3.341
41890W        W 1426  41.435  28.992   1.750
41891W        W 1427  30.549   0.402   3.301
41892W        W 1428  28.110   3.259   0.940
41893W        W 1429   1.804  35.595  12.570
41894W        W 1430  31.547  15.284   0.475
41895W        W 1431   7.332  16.170  10.453
41896W        W 1432  36.970   6.244   1.799
41897W        W 1433  11.846   2.895   1.878
41898W        W 1434  33.070   8.749   0.261
41899W        W 1435  40.998  31.601  13.031
41900W        W 1436  44.369   0.865  11.387
41901W        W 1437  12.255  33.081  13.541
41902W        W 1438  37.549   3.233   4.818
41903W        W 1439  35.584  18.222   1.316
41904W        W 1440  42.497  27.085  14.838
41905W        W 1441  16.208   4.777  11.918
41906W        W 1442  36.404  44.480  13.374
41907W        W 1443  18.289   5.390   2.791
41908W        W 1444   7.800   0.876   2.806
41909W        W 1445  40.477  27.636   2.274
41910W        W 1446  39.037  19.614  14.898
41911W        W 1447  29.625   4.791   4.798
41912W        W 1448  27.595  16.657   4.296
41913W        W 1449   7.718   4.898  10.534
41914W        W 1450   3.336  39.490   3.291
41915W        W 1451  31.933  31.001  11.938
41916W        W 1452  10.161  10.767  11.484
41917W        W 1453  11.805  38.819  10.906
41918W        W 1454  22.091  39.409   3.693
41919W        W 1455  10.798  21.607   4.618
41920W        W 1456  33.053  24.647  13.053
41921W        W 1457  25.526  37.079   0.897
41922W        W 1458  36.914  24.569   3.642
41923W        W 1459  13.738   7.326   0.342
41924W        W 1460  35.359  40.523   0.741
41925W        W 1461   4.352  33.438  14.901
41926W        W 1462   6.777  28.444  11.103
41927W        W 1463  41.349  25.677  14.888
41928W        W 1464  43.477  23.065  13.479
41929W        W 1465  21.752   4.802  14.831
41930W        W 1466  19.255  43.427  13.387
41931W        W 1467  12.716  17.189  11.595
41932W        W 1468  36.942  41.960   3.689
41933W        W 1469  41.420  28.617   1.762
41934W        W 1470  18.736  32.989  12.494
41935W        W 1471   4.798  36.568   3.337
41936W        W 1472  40.971   3.862   1.835
41937W        W 1473  41.006   3.325   9.584
41938W        W 1474  36.075  38.424   0.870
41939W        W 1475  32.078   6.241  14.487
41940W        W 1476   9.704   4.836   3.727
41941W        W 1477  17.124  30.593   1.322
41942W        W 1478  24.170   2.775   2.711
41943W        W 1479  36.881  34.027   0.782
41944W        W 1480   8.824  20.538  14.467
41945W        W 1481  37.510  11.331  13.951
41946W        W 1482  30.417  20.199  12.996
41947W        W 1483  42.860  26.039   0.325
41948W        W 1484  37.956  28.673  13.542
41949W        W 1485  24.573  31.982   0.919
41950W        W 1486  38.488  35.393   1.436
41951W        W 1487  22.544  40.053  11.887
41952W        W 1488  24.528  41.483  12.838
41953W        W 1489  24.571  15.646  10.914
41954W        W 1490  24.007  36.472  10.964
41955W        W 1491  18.621  26.555  10.004
41956W        W 1492  28.487  37.548  13.546
41957W        W 1493   2.857  11.679   2.718
41958W        W 1494  12.672  38.861   4.675
41959W        W 1495   4.379  17.667   4.352
41960W        W 1496  22.019  39.982  13.007
41961W        W 1497  24.979  40.376   1.376
41962W        W 1498  28.495  10.728  11.056
41963W        W 1499  11.633   2.729  12.494
41964W        W 1500  25.643  29.128   3.747
41965W        W 1501  32.995   1.912  11.432
41966W        W 1502  34.997   9.235   0.266
41967W        W 1503  39.322  38.879   2.285
41968W        W 1504  19.576  38.537   3.279
41969W        W 1505  25.697  27.680   1.241
41970W        W 1506  30.008  31.537  10.931
41971W        W 1507  30.108  10.690  13.323
41972W        W 1508   0.942  19.052  11.381
41973W        W 1509   3.938  42.415   2.897
41974W        W 1510  23.634  12.789   2.192
41975W        W 1511  22.646  37.973   1.824
41976W        W 1512  13.125  24.998  11.567
41977W        W 1513  19.119  43.377  10.522
41978W        W 1514  27.011  44.486   2.677
41979W        W 1515  18.149  21.612   0.778
41980W        W 1516  27.107  38.910   4.654
41981W        W 1517  10.719  41.314  13.521
41982W        W 1518  23.693  19.052  12.427
41983W        W 1519  42.415  28.995  12.836
41984W        W 1520  29.965  11.232  13.975
41985W        W 1521   2.330  36.000  10.532
41986W        W 1522  18.052  32.415  13.511
41987W        W 1523  38.343  23.566  11.129
41988W        W 1524  41.392  42.419   3.843
41989W        W 1525   1.429  18.273  13.874
41990W        W 1526  44.822   9.365   1.813
41991W        W 1527  25.642  44.848  11.873
41992W        W 1528  19.764  36.556  10.909
41993W        W 1529  33.912  18.212  13.480
41994W        W 1530  44.946  26.471  12.870
41995W        W 1531   3.364  34.941  12.498
41996W        W 1532  35.398  38.983  13.332
41997W        W 1533  36.946  22.026   2.306
41998W        W 1534  30.121  33.900  10.456
41999W        W 1535  25.184  38.950   9.551
42000W        W 1536  37.968  33.068  13.386
42001W        W 1537  13.329  31.412  13.480
42002W        W 1538  40.896  44.843  11.073
42003W        W 1539   0.344  44.458  14.828
42004W        W 1540  36.880  22.075   3.775
42005W        W 1541  30.976   7.687  13.500
42006W        W 1542  30.422  14.720  14.024
42007W        W 1543  43.317   7.191   1.833
42008W        W 1544  15.582  11.167  10.913
42009W        W 1545  18.206   4.710   3.386
42010W        W 1546   4.209  19.630   5.132
42011W        W 1547  36.054  34.990   1.337
42012W        W 1548  44.891  23.127  10.452
42013W        W 1549  41.421  37.872   4.238
42014W        W 1550  30.011  29.041   3.767
42015W        W 1551   5.220  35.471   0.269
42016W        W 1552  22.609  28.001  11.102
42017W        W 1553  32.106   3.417   2.801
42018W        W 1554  14.270  18.106  10.636
42019W        W 1555  43.005  21.680  13.504
42020W        W 1556  39.813  19.096  13.830
42021W        W 1557  11.208  11.663  14.988
42022W        W 1558  38.325   7.812   1.395
42023W        W 1559  11.782   7.840   2.245
42024W        W 1560  30.528  16.709   4.244
42025W        W 1561  11.797  43.473  11.531
42026W        W 1562  17.572  40.450  12.432
42027W        W 1563   8.221   9.312   2.721
42028W        W 1564  42.427  26.702   5.318
42029W        W 1565  40.542  36.067  10.562
42030W        W 1566  10.369   2.407   1.831
42031W        W 1567   5.691   1.738   1.926
42032W        W 1568  20.578   3.266  11.869
42033W        W 1569  44.863  26.152  12.829
42034W        W 1570  21.030  12.322   4.797
42035W        W 1571  40.378  31.996  10.109
42036W        W 1572  19.727  43.297  11.022
42037W        W 1573   9.769  16.227   1.354
42038W        W 1574  13.616  38.542  12.462
42039W        W 1575  24.117   7.871  10.501
42040W        W 1576  14.290   0.445   2.327
42041W        W 1577   9.327  19.645  12.542
42042W        W 1578  27.658  12.181  14.947
42043W        W 1579  25.632  36.946   2.734
42044W        W 1580  17.296  41.377   0.870
42045W        W 1581  22.530   7.888  11.405
42046W        W 1582  18.673  36.880   3.193
42047W        W 1583  38.932   8.298   0.384
42048W        W 1584   1.272   4.265  12.455
42049W        W 1585  30.010  17.583   2.210
42050W        W 1586  41.025   6.828  11.543
42051W        W 1587  42.354  21.210  14.331
42052W        W 1588  28.669  28.134  12.964
42053W        W 1589  10.748   8.699   1.884
42054W        W 1590  37.030  28.057   0.844
42055W        W 1591   9.864  15.192   1.437
42056W        W 1592  22.150  36.502   3.305
42057W        W 1593  22.671  44.477  11.128
42058W        W 1594  19.728  35.590  12.049
42059W        W 1595  33.612   3.392   0.468
42060W        W 1596   0.457  21.542   1.714
42061W        W 1597   2.919  20.088  14.969
42062W        W 1598  18.740  27.455   1.881
42063W        W 1599  16.185   1.762   3.647
42064W        W 1600  38.957  15.137  10.951
42065W        W 1601  25.668  33.072  11.501
42066W        W 1602  33.508  35.075   5.314
42067W        W 1603  19.166  29.596  12.445
42068W        W 1604   9.326   1.413  14.387
42069W        W 1605   8.321  25.683   1.225
42070W        W 1606  43.016  26.633  13.512
42071W        W 1607  32.402  44.456  14.283
42072W        W 1608  18.682   6.406   2.289
42073W        W 1609  10.875  14.226   1.380
42074W        W 1610   9.322  43.814   0.930
42075W        W 1611  14.708   5.814   3.753
42076W        W 1612  43.389  39.376   3.263
42077W        W 1613  29.056  25.196   4.726
42078W        W 1614  29.479  34.994   0.462
42079W        W 1615   6.681  13.218  11.452
42080W        W 1616  36.971  12.287  10.929
42081W        W 1617  37.495  23.016   4.821
42082W        W 1618  38.927  16.284   2.712
42083W        W 1619  20.544  40.440   2.667
42084W        W 1620   7.801  28.498   3.771
42085W        W 1621  43.368  14.591   0.917
42086W        W 1622  11.825  22.532  12.874
42087W        W 1623  22.155  18.680   3.707
42088W        W 1624  44.439  29.996   0.351
42089W        W 1625   8.718  31.047   0.887
42090W        W 1626  41.870  43.782  10.551
42091W        W 1627  38.894  38.496  13.363
42092W        W 1628   1.360  32.637   0.347
42093W        W 1629  16.136  30.617   0.319
42094W        W 1630   0.280  30.474   3.277
42095W        W 1631   8.221  36.362   4.249
42096W        W 1632   7.212   3.851  14.904
42097W        W 1633  36.530   4.370  10.531
42098W        W 1634   9.331   9.752  14.945
42099W        W 1635  29.565  40.901   2.675
42100W        W 1636  17.696  20.642  12.070
42101W        W 1637   3.371  35.538  10.424
42102W        W 1638  23.617   6.198  14.906
42103W        W 1639  20.628   9.174   2.725
42104W        W 1640  33.036  38.404   1.306
42105W        W 1641  22.709  22.219  14.818
42106W        W 1642  36.414  29.009   3.155
42107W        W 1643   3.818  33.984  11.385
42108W        W 1644  24.636  22.672  14.030
42109W        W 1645  37.034   4.797  12.426
42110W        W 1646  19.741  11.693   2.380
42111W        W 1647  41.901   9.307   2.887
42112W        W 1648  34.042  42.507  11.417
42113W        W 1649  26.016  40.323  11.376
42114W        W 1650  35.090  11.844  14.832
42115W        W 1651  10.863  42.970  14.953
42116W        W 1652  24.616  17.222  11.943
42117W        W 1653  29.535  11.756   1.394
42118W        W 1654  24.687  10.276   4.711
42119W        W 1655  24.227  38.874   0.801
42120W        W 1656  34.942  28.153   0.374
42121W        W 1657  23.033  23.189   3.295
42122W        W 1658  27.574   3.434  14.970
42123W        W 1659  27.692  22.585   1.346
42124W        W 1660  13.114  27.659  10.505
42125W        W 1661  36.462  13.705   4.149
42126W        W 1662  14.119  41.797   1.373
42127W        W 1663  24.510   4.252  13.353
42128W        W 1664  22.205  37.399   0.442
42129W        W 1665  28.526  24.715  11.861
42130W        W 1666  22.077  35.062   5.135
42131W        W 1667  24.036  15.641   1.771
42132W        W 1668  30.421  12.623  13.846
42133W        W 1669  12.622  11.358   3.792
42134W        W 1670   7.380  35.599  10.903
42135W        W 1671  28.529   3.314   0.313
42136W        W 1672  16.215  17.761  14.510
42137W        W 1673  23.159  27.166   4.347
42138W        W 1674   6.710   5.870   3.668
42139W        W 1675  17.775  44.282  12.018
42140W        W 1676  36.979   2.885  10.908
42141W        W 1677   2.431  33.083  11.110
42142W        W 1678   8.784  21.546   0.936
42143W        W 1679  10.654  16.228  11.575
42144W        W 1680  25.015   6.279  13.462
42145W        W 1681  23.553  11.143  11.528
42146W        W 1682  15.712  25.548   4.733
42147W        W 1683   4.702  42.920   3.803
42148W        W 1684  26.568  43.861   4.296
42149W        W 1685  32.963  33.512  10.463
42150W        W 1686  24.619  41.878  14.478
42151W        W 1687  44.279  24.694   2.787
42152W        W 1688  21.147   9.773  12.989
42153W        W 1689  28.463  43.352  13.397
42154W        W 1690  18.159  21.713  14.318
42155W        W 1691  20.140  29.452   2.181
42156W        W 1692  39.883  22.730   1.890
42157W        W 1693   0.436  36.990   4.284
42158W        W 1694   9.189  31.092   3.829
42159W        W 1695   6.318  24.151  12.887
42160W        W 1696   6.752  17.708  12.045
42161W        W 1697  18.691   9.257   1.796
42162W        W 1698   5.270  22.036   0.807
42163W        W 1699  37.832  37.468  11.544
42164W        W 1700   4.389  31.046   1.381
42165W        W 1701  39.508  28.055   0.965
42166W        W 1702  36.543  43.847   1.802
42167W        W 1703  28.146   8.817  12.878
42168W        W 1704  25.477   3.718  13.038
42169W        W 1705  42.498   2.400   2.268
42170W        W 1706  29.503  16.285  14.288
42171W        W 1707  44.877  38.474  14.300
42172W        W 1708  27.990  28.650   1.719
42173W        W 1709  13.123   9.324   4.207
42174W        W 1710  28.645  38.537  10.960
42175W        W 1711  30.038  15.813  10.592
42176W        W 1712  38.954   8.845  10.501
42177W        W 1713  25.161  43.809   2.279
42178W        W 1714  18.284   6.691  11.002
42179W        W 1715  38.514   9.693   1.881
42180W        W 1716  14.713  20.232   1.260
42181W        W 1717  14.246  37.920   4.668
42182W        W 1718  20.700  16.081  12.023
42183W        W 1719  20.237  37.503   3.630
42184W        W 1720  38.505  25.561   3.756
42185W        W 1721  23.061  15.148  13.371
42186W        W 1722  17.661  18.781   9.523
42187W        W 1723  31.991  41.926  10.588
42188W        W 1724  34.017  16.622  14.764
42189W        W 1725   0.408  28.065   2.218
42190W        W 1726  31.494  21.096  13.407
42191W        W 1727  29.471  30.110   0.765
42192W        W 1728  21.097  19.253   3.796
42193W        W 1729  26.201  24.084  12.482
42194W        W 1730  31.053   0.981   4.294
42195W        W 1731  30.621  42.812   0.871
42196W        W 1732   4.891  16.762  14.993
42197W        W 1733  44.976  37.356  14.372
42198W        W 1734   9.830  38.408   1.749
42199W        W 1735  38.852  31.430  12.492
42200W        W 1736  11.341  17.566   2.196
42201W        W 1737   4.432  25.647   1.794
42202W        W 1738  21.035   1.417  14.324
42203W        W 1739  28.002  32.056  14.852
42204W        W 1740   1.977  27.485   2.182
42205W        W 1741  40.867  14.134  12.375
42206W        W 1742  37.472  21.118  10.946
42207W        W 1743   9.285  17.215   5.260
42208W        W 1744  43.927   1.313  14.488
42209W        W 1745  28.111  27.171   2.233
42210W        W 1746  33.441   7.370  12.955
42211W        W 1747  12.332  35.479   1.715
42212W        W 1748  20.609   5.245   5.791
42213W        W 1749  17.253  11.217   1.926
42214W        W 1750  22.202  18.651   2.674
42215W        W 1751  20.538  43.458  13.860
42216W        W 1752   9.688   5.343  14.820
42217W        W 1753  24.007  13.252   5.182
42218W        W 1754   9.754  43.506  14.417
42219W        W 1755   8.178  38.570  13.376
42220W        W 1756  12.701  17.258   2.236
42221W        W 1757  37.930   3.219  12.980
42222W        W 1758  30.991  27.500   0.857
42223W        W 1759  11.651  32.001   2.301
42224W        W 1760  31.997   7.181   2.806
42225W        W 1761  38.019   5.835   0.954
42226W        W 1762  43.903   9.372  13.451
42227W        W 1763  39.508  32.502   2.693
42228W        W 1764  22.693  29.455  14.917
42229W        W 1765  36.365   7.817   3.352
42230W        W 1766   3.282  16.733   3.797
42231W        W 1767   5.790   6.184  13.339
42232W        W 1768  26.137  14.254   1.356
42233W        W 1769  15.637  13.681   0.298
42234W        W 1770  25.068  24.202   0.821
42235W        W 1771  32.999   9.212  11.046
42236W        W 1772  44.884  31.477   0.861
42237W        W 1773  32.120  22.545  10.520
42238W        W 1774  22.545  40.440   5.152
42239W        W 1775   1.378  30.085   1.712
42240W        W 1776  26.693  27.159   1.354
42241W        W 1777  10.265   6.376  13.341
42242W        W 1778  25.970   1.343  13.022
42243W        W 1779  39.381  28.162  13.394
42244W        W 1780  23.661  34.894   5.614
42245W        W 1781  42.446  30.992  12.911
42246W        W 1782  15.324  30.113  11.106
42247W        W 1783  25.010  24.485  11.411
42248W        W 1784  19.180  43.274   4.681
42249W        W 1785  12.226   2.828  11.499
42250W        W 1786  15.111  31.468  12.974
42251W        W 1787  18.761  26.123   2.407
42252W        W 1788   0.369   2.937  12.823
42253W        W 1789  23.532   7.315   9.958
42254W        W 1790   9.160   3.375  10.016
42255W        W 1791   2.328  15.212  10.979
42256W        W 1792  13.137  44.973   1.249
42257W        W 1793  23.051  36.947   3.722
42258W        W 1794  22.721  10.212   3.245
42259W        W 1795  10.866  20.108  10.482
42260W        W 1796  30.028  11.320   3.837
42261W        W 1797   0.937  43.373   2.401
42262W        W 1798  43.375   1.310   1.912
42263W        W 1799  38.367   3.890   0.253
42264W        W 1800  43.416  14.234  13.397
42265W        W 1801  30.016  32.605   3.790
42266W        W 1802   7.270  35.397  14.803
42267W        W 1803  42.319  28.108   1.783
42268W        W 1804  14.246  36.548   4.647
42269W        W 1805  41.797  27.026  10.942
42270W        W 1806  34.871  42.019  11.461
42271W        W 1807  14.636   0.357  14.804
42272W        W 1808  16.576  34.509  12.431
42273W        W 1809   3.880  44.813  13.959
42274W        W 1810  19.647  30.453  13.546
42275W        W 1811  23.193   4.234   3.790
42276W        W 1812  27.160  17.180   0.307
42277W        W 1813  32.600  16.636   4.787
42278W        W 1814   4.207  10.707  14.811
42279W        W 1815   5.281  29.596   0.742
42280W        W 1816  14.754   1.320  14.350
42281W        W 1817  37.981  21.244  11.389
42282W        W 1818  20.047  24.484  12.910
42283W        W 1819  26.053  25.043  11.458
42284W        W 1820  41.845  39.435  12.870
42285W        W 1821  35.028  22.639  12.933
42286W        W 1822   1.431  32.989  13.332
42287W        W 1823   2.273   9.650   0.959
42288W        W 1824   9.713  36.098   4.121
42289W        W 1825  36.420   8.844   4.175
42290W        W 1826  34.978  14.247   2.397
42291W        W 1827   0.961  43.938  10.926
42292W        W 1828   0.252  20.129   2.216
42293W        W 1829  24.095  30.530   3.375
42294W        W 1830  27.969  35.958  11.062
42295W        W 1831  23.589  15.667  14.502
42296W        W 1832  15.820  33.584   2.819
42297W        W 1833  15.764  18.149   2.251
42298W        W 1834  25.658  43.510  14.939
42299W        W 1835  36.922  13.286  10.609
42300W        W 1836  30.973   2.352   3.314
42301W        W 1837   7.718   1.467  10.446
42302W        W 1838  14.212  24.187  13.951
42303W        W 1839  12.335  30.162   1.819
42304W        W 1840  25.604  39.875  10.624
42305W        W 1841  31.615  36.059   2.857
42306W        W 1842   6.418  25.667   2.682
42307W        W 1843  20.234  13.749  14.916
42308W        W 1844  24.108  24.481   3.370
42309W        W 1845  37.531  29.052  10.469
42310W        W 1846  33.542  26.112   2.728
42311W        W 1847   2.233  34.584   0.783
42312W        W 1848   6.705   8.165   3.635
42313W        W 1849  12.267  41.016   4.681
42314W        W 1850  32.110  33.521   0.454
42315W        W 1851   8.342  16.085   3.817
42316W        W 1852  17.558  14.721   1.805
42317W        W 1853  21.163  17.179  11.061
42318W        W 1854  23.002  23.610  13.351
42319W        W 1855  18.724  24.060   0.905
42320W        W 1856  27.098  38.501   0.475
42321W        W 1857   9.730  28.080   5.304
42322W        W 1858  35.965  36.845   4.317
42323W        W 1859  17.283  18.198   0.290
42324W        W 1860  20.611  16.682  11.533
42325W        W 1861  41.323  43.969   0.949
42326W        W 1862  39.505  34.539   3.671
42327W        W 1863   7.285  31.022   4.154
42328W        W 1864  24.170   8.372   2.300
42329W        W 1865  30.092  17.247  14.423
42330W        W 1866   1.352   7.842   2.719
42331W        W 1867  21.582  27.090   3.207
42332W        W 1868  37.457  30.564  11.480
42333W        W 1869  22.609   9.164  10.624
42334W        W 1870   8.718  22.614  11.447
42335W        W 1871   1.911  32.055  14.948
42336W        W 1872  27.941  17.801  14.029
42337W        W 1873  19.248  21.698   3.374
42338W        W 1874  42.972  35.991   0.279
42339W        W 1875  22.035   2.347   4.661
42340W        W 1876  37.346  30.542   3.237
42341W        W 1877  40.811  23.660  12.009
42342W        W 1878  21.186   7.306  14.765
42343W        W 1879   9.688   9.785   4.232
42344W        W 1880  24.023  15.645  11.572
42345W        W 1881  30.910  26.012   0.789
42346W        W 1882  36.880  25.964   4.641
42347W        W 1883  36.008   3.284   4.119
42348W        W 1884   0.895  40.508   0.928
42349W        W 1885   0.891  39.997  13.986
42350W        W 1886   8.181  21.711   1.428
42351W        W 1887  36.054   0.755  11.857
42352W        W 1888   1.373  11.270  11.455
42353W        W 1889  17.153  10.633   1.728
42354W        W 1890  24.145  32.395  11.065
42355W        W 1891  17.694  13.672   0.890
42356W        W 1892  38.549   7.251  14.796
42357W        W 1893  27.468  20.038  13.389
42358W        W 1894  11.139  33.076  11.548
42359W        W 1895  12.749  43.428   4.219
42360W        W 1896   2.877  29.030   4.753
42361W        W 1897  18.215  17.292  11.460
42362W        W 1898  29.147  41.385  12.927
42363W        W 1899  12.281   0.265  11.400
42364W        W 1900  37.385  12.776   0.255
42365W        W 1901  17.079  28.088  10.138
42366W        W 1902  24.584  33.006  14.420
42367W        W 1903  10.244  29.617   1.423
42368W        W 1904   7.770  39.456  11.985
42369W        W 1905  24.547   7.352  14.824
42370W        W 1906   8.198   9.782  13.057
42371W        W 1907  27.959   8.377  11.941
42372W        W 1908   2.726  20.070   3.198
42373W        W 1909  32.009  30.597  10.978
42374W        W 1910  23.086  20.731  14.371
42375W        W 1911  37.849  17.596  14.973
42376W        W 1912  13.252  24.489  10.007
42377W        W 1913   9.823  28.988  14.289
42378W        W 1914  19.117  27.042  10.490
42379W        W 1915  44.393  16.611  14.356
42380W        W 1916  17.269   6.213  12.563
42381W        W 1917  40.446  44.262   2.179
42382W        W 1918  43.384  33.979  12.576
42383W        W 1919  26.584  11.240   2.336
42384W        W 1920  40.441  42.021   1.813
42385W        W 1921  43.417  21.056  11.492
42386W        W 1922  40.882  30.489   3.846
42387W        W 1923  38.385  10.657  14.351
42388W        W 1924  42.477  38.819  11.074
42389W        W 1925  16.763  28.590  12.432
42390W        W 1926  36.414  33.548   4.827
42391W        W 1927  14.329  38.972  14.294
42392W        W 1928  27.680  15.790   4.270
42393W        W 1929  12.673   9.794  14.946
42394W        W 1930   6.266  40.835  12.528
42395W        W 1931  23.988  34.590   0.894
42396W        W 1932  41.897  11.638  13.440
42397W        W 1933  21.046   1.917   2.245
42398W        W 1934  42.980  24.184  12.037
42399W        W 1935  23.498   1.403   0.770
42400W        W 1936   8.345   2.394   3.717
42401W        W 1937   7.225  30.580  14.424
42402W        W 1938  44.358  10.335  13.924
42403W        W 1939  10.351   9.214   3.824
42404W        W 1940  37.991   1.400   9.989
42405W        W 1941   4.393  15.172  14.395
42406W        W 1942  24.074   0.339  12.342
42407W        W 1943   2.774  16.261   4.171
42408W        W 1944   8.696  38.445   1.322
42409W        W 1945  35.525   4.702  12.933
42410W        W 1946  32.088  23.072   1.912
42411W        W 1947  24.186   3.897   2.771
42412W        W 1948  25.619  20.748   1.438
42413W        W 1949   8.298  43.805  12.853
42414W        W 1950  18.616  20.766  12.850
42415W        W 1951  20.213  29.162  13.013
42416W        W 1952  39.021   1.476  12.823
42417W        W 1953   0.487   6.318   1.698
42418W        W 1954  44.792  18.123  12.919
42419W        W 1955  16.694   2.243   2.331
42420W        W 1956  15.750  31.083  10.900
42421W        W 1957   8.309  40.497  11.918
42422W        W 1958  16.148   5.299  14.917
42423W        W 1959  26.544  36.081   1.862
42424W        W 1960  22.598  14.698   0.737
42425W        W 1961   7.756  31.925  14.453
42426W        W 1962  30.496  19.641   2.828
42427W        W 1963  40.813   6.813   0.435
42428W        W 1964  27.089  44.001  10.918
42429W        W 1965  15.810   8.870   3.309
42430W        W 1966  27.667  41.535  11.492
42431W        W 1967  22.153   4.366  14.499
42432W        W 1968  25.620  17.238  10.130
42433W        W 1969  31.555  38.565  13.006
42434W        W 1970   7.372  42.335  13.926
42435W        W 1971   9.208  37.037   3.789
42436W        W 1972  11.695  36.484  11.869
42437W        W 1973   9.857  41.411  12.932
42438W        W 1974  18.739  33.928  13.443
42439W        W 1975  34.518  21.539  12.040
42440W        W 1976   0.868   4.293  11.115
42441W        W 1977  15.200   4.395  12.423
42442W        W 1978  35.986   2.868   1.354
42443W        W 1979  11.795  10.378  13.313
42444W        W 1980  11.860   1.833  11.871
42445W        W 1981  34.078  14.782   0.890
42446W        W 1982  18.269  43.866   2.237
42447W        W 1983  37.563  17.586  13.351
42448W        W 1984   1.295  34.923   2.828
42449W        W 1985  27.692   2.447  11.398
42450W        W 1986  11.235  13.666  12.840
42451W        W 1987  29.023  15.323   2.328
42452W        W 1988  25.013  31.985  15.000
42453W        W 1989   6.415   7.683   2.865
42454W        W 1990   1.349  44.890   0.888
42455W        W 1991  44.475   7.282  10.109
42456W        W 1992  27.012   7.188  14.796
42457W        W 1993   6.415   3.709  14.378
42458W        W 1994   6.847  15.770   3.683
42459W        W 1995  12.349  10.192   2.688
42460W        W 1996   3.381  40.459   3.370
42461W        W 1997   2.285  16.298  13.851
42462W        W 1998  27.021  37.995   1.394
42463W        W 1999  34.530   8.361  10.454
42464W        W 2000   2.885  25.984   3.231
42465W        W 2001   3.794  11.718   1.383
42466W        W 2002  40.383  14.252  12.462
42467W        W 2003  42.289  29.526  11.005
42468W        W 2004  28.590  17.767   0.377
42469W        W 2005  15.275  37.972  14.786
42470W        W 2006   2.404  24.022   4.832
42471W        W 2007  28.531   2.444   4.735
42472W        W 2008  16.162  16.290   3.630
42473W        W 2009  38.566  11.370   3.150
42474W        W 2010  43.804  19.625   3.326
42475W        W 2011  28.169  32.963  12.015
42476W        W 2012  35.954  27.623   0.834
42477W        W 2013  37.473   5.359   1.745
42478W        W 2014   1.929  30.522  13.471
42479W        W 2015  23.107   0.905  10.517
42480W        W 2016  19.584  33.618   4.145
42481W        W 2017  22.650  34.397   5.639
42482W        W 2018  31.522  30.119  14.476
42483W        W 2019  43.500  27.166   0.371
42484W        W 2020  43.989  10.339   9.578
42485W        W 2021  28.656   6.817   2.704
42486W        W 2022  29.054  44.483  12.970
42487W        W 2023  27.505  43.797   2.251
42488W        W 2024  21.052  42.454  11.033
42489W        W 2025  39.030  23.171  11.490
42490W        W 2026   9.822  22.721  12.535
42491W        W 2027  26.203  38.027  12.858
42492W        W 2028  31.452  26.678  14.996
42493W        W 2029   8.889  37.550  12.079
42494W        W 2030   1.813  15.266   3.775
42495W        W 2031  25.688  16.128   3.159
42496W        W 2032  18.212   4.912  12.393
42497W        W 2033  27.050  13.145   4.209
42498W        W 2034  40.004  21.716  13.441
42499W        W 2035  36.460  10.325   2.306
42500W        W 2036  10.644  34.098   0.292
42501W        W 2037  13.158  29.592  11.587
42502W        W 2038   4.355  29.454   1.372
42503W        W 2039  24.709  22.209  14.406
42504W        W 2040   0.477  21.073   0.291
42505W        W 2041  11.366  43.947  13.964
42506W        W 2042  21.089  18.194  13.929
42507W        W 2043  28.605  19.630  12.551
42508W        W 2044  14.235  32.031   2.304
42509W        W 2045  21.592  43.311   1.307
42510W        W 2046  26.098   4.321   1.393
42511W        W 2047   0.804  17.260  12.067
42512W        W 2048  34.526   8.876   0.395
42513W        W 2049  23.055  12.689   2.301
42514W        W 2050  28.646  29.613   4.764
42515W        W 2051  32.427  29.021   3.150
42516W        W 2052   8.724   4.804  11.866
42517W        W 2053  38.529  23.703  11.587
42518W        W 2054  44.981   4.908   0.768
42519W        W 2055  31.459  28.478  10.574
42520W        W 2056  21.623  44.866   0.265
42521W        W 2057  39.506  21.525   4.602
42522W        W 2058  11.329   9.709   4.602
42523W        W 2059  15.205   6.216  10.407
42524W        W 2060  24.225   7.793  14.842
42525W        W 2061  13.736  37.080   2.787
42526W        W 2062  38.452  41.924   0.905
42527W        W 2063  28.186  37.379   2.361
42528W        W 2064  18.199  18.220  10.898
42529W        W 2065   9.781  38.443   0.729
42530W        W 2066  44.935  27.052  13.878
42531W        W 2067   6.887   8.199   3.208
42532W        W 2068   0.831   8.679   2.351
42533W        W 2069   7.258  31.143   1.290
42534W        W 2070  27.049  37.879   2.670
42535W        W 2071  14.319   7.184  14.308
42536W        W 2072  31.487  19.688   4.700
42537W        W 2073  22.068  29.443  10.966
42538W        W 2074  13.229  41.329   2.325
42539W        W 2075   4.730   5.751   5.285
42540W        W 2076   2.949   1.765  13.543
42541W        W 2077  40.333  29.032   4.729
42542W        W 2078  16.102  30.990  14.328
42543W        W 2079   9.153  13.724  11.534
42544W        W 2080  14.146  19.091  13.974
42545W        W 2081  32.136   6.897   2.381
42546W        W 2082  12.360  24.570   3.312
42547W        W 2083   3.275  30.084  13.357
42548W        W 2084  16.128   1.431  14.377
42549W        W 2085  36.582  13.652  11.483
42550W        W 2086   8.705  22.533   1.434
42551W        W 2087  44.865   9.276  14.984
42552W        W 2088  24.081  43.795  12.953
42553W        W 2089   7.800  31.442   2.331
42554W        W 2090   1.371   1.277   2.673
42555W        W 2091   5.401  37.036  14.355
42556W        W 2092  29.645  42.423  10.638
42557W        W 2093  39.011  33.422   4.286
42558W        W 2094  37.446   0.872   2.396
42559W        W 2095  21.085  39.508   2.199
42560W        W 2096  28.043  16.305  10.079
42561W        W 2097  33.020  39.465  10.412
42562W        W 2098  16.314  39.929  14.278
42563W        W 2099  25.119  43.330  14.959
42564W        W 2100   6.340   5.780   3.642
42565W        W 2101   5.741  29.529  12.381
42566W        W 2102   2.805  30.950   1.230
42567W        W 2103   2.350  33.101   0.395
42568W        W 2104   3.254  20.536   3.209
42569W        W 2105  41.526  43.780   0.302
42570W        W 2106   9.695  36.896   4.834
42571W        W 2107   8.375  34.057   2.796
42572W        W 2108   8.793  17.064  11.931
42573W        W 2109  10.786  21.535  10.985
42574W        W 2110  21.216  12.777   2.663
42575W        W 2111   0.762  34.476   3.682
42576W        W 2112  12.290  10.266   2.235
42577W        W 2113  24.076  32.934   0.361
42578W        W 2114  33.099  29.670  10.008
42579W        W 2115  20.030  22.219   4.835
42580W        W 2116   7.176  26.981   9.674
42581W        W 2117   5.758   5.215   4.299
42582W        W 2118  31.119  17.080  12.937
42583W        W 2119  17.239   6.773   2.837
42584W        W 2120  22.596  28.173   3.346
42585W        W 2121  33.132  43.476  12.899
42586W        W 2122  16.244   4.252  11.894
42587W        W 2123  29.091  38.913   1.226
42588W        W 2124   7.885   4.238  12.977
42589W        W 2125  14.740  26.207   3.770
42590W        W 2126  43.919  10.140  14.873
42591W        W 2127  42.977   4.921   3.156
42592W        W 2128  34.889  13.804   0.753
42593W        W 2129   2.392   1.475   4.138
42594W        W 2130  43.017  39.866  13.356
42595W        W 2131   8.194   1.828   2.317
42596W        W 2132  30.636  17.119   0.774
42597W        W 2133   1.343  31.557  10.454
42598W        W 2134   3.410  15.645   0.954
42599W        W 2135  18.166   1.249   1.732
42600W        W 2136   4.286   1.960  12.930
42601W        W 2137  20.261  16.232  10.407
42602W        W 2138   8.272  25.544  11.436
42603W        W 2139  11.356  16.201   3.325
42604W        W 2140  24.078  28.598   2.365
42605W        W 2141  13.183  27.649   4.627
42606W        W 2142  30.124  37.511  11.483
42607W        W 2143   9.330  19.160  12.879
42608W        W 2144  11.326  38.924  11.945
42609W        W 2145  24.608   7.859   9.489
42610W        W 2146   8.827  19.241  10.559
42611W        W 2147  22.693  24.594   4.218
42612W        W 2148  35.437  22.634   3.154
42613W        W 2149  12.299  10.161  10.621
42614W        W 2150  18.553  35.933  11.051
42615W        W 2151   0.313  17.307  10.481
42616W        W 2152  33.937  18.750   1.352
42617W        W 2153  18.195  23.493   2.326
42618W        W 2154  11.198   3.335  10.618
42619W        W 2155  25.659  41.885  14.914
42620W        W 2156   1.879  39.323  12.845
42621W        W 2157  10.776  29.010   4.694
42622W        W 2158  44.395  40.354   5.256
42623W        W 2159  15.637  24.016  10.985
42624W        W 2160   2.394  40.306  11.899
42625W        W 2161  11.277   4.326   1.336
42626W        W 2162   7.726  44.302  10.501
42627W        W 2163  10.821  29.650   3.686
42628W        W 2164   9.378  35.078   9.954
42629W        W 2165  28.663  13.211  12.542
42630W        W 2166  25.547  22.639  14.435
42631W        W 2167  42.823  18.724   0.727
42632W        W 2168  31.410   3.312  14.913
42633W        W 2169  13.781  14.793   0.835
42634W        W 2170  30.550   2.733   3.719
42635W        W 2171  41.512  15.167   0.396
42636W        W 2172  36.385  10.789   4.297
42637W        W 2173  30.150  39.903   0.910
42638W        W 2174  22.211  17.107   4.272
42639W        W 2175   2.272  29.066  11.937
42640W        W 2176  36.500  41.418   4.119
42641W        W 2177  28.462  18.112  14.806
42642W        W 2178  31.909   0.304   2.419
42643W        W 2179   5.433  31.896   3.689
42644W        W 2180   4.735  23.684  12.554
42645W        W 2181  21.651  41.373  13.509
42646W        W 2182  34.907  31.406   2.230
42647W        W 2183  31.572  29.572  12.352
42648W        W 2184  38.863  12.841  10.950
42649W        W 2185  33.548  23.040   1.242
42650W        W 2186   5.898  30.553   0.744
42651W        W 2187  42.454  26.952  12.013
42652W        W 2188  40.968  41.463  14.972
42653W        W 2189  31.034   4.906  11.553
42654W        W 2190  33.069  41.380  14.467
42655W        W 2191  26.659  23.042  14.433
42656W        W 2192  39.898  13.642   4.277
42657W        W 2193  12.671  42.444  12.538
42658W        W 2194  20.212  30.972   4.217
42659W        W 2195  16.776   1.856   4.765
42660W        W 2196  19.582  22.072  12.396
42661W        W 2197   7.359  20.729   3.653
42662W        W 2198  11.672  36.865  13.980
42663W        W 2199  25.992  42.929   2.786
42664W        W 2200   1.925   5.206   4.683
42665W        W 2201  27.470  22.671  11.445
42666W        W 2202  36.393  34.043   0.250
42667W        W 2203  21.738  12.844   1.274
42668W        W 2204  23.582  30.579  13.388
42669W        W 2205  15.774   3.301   4.299
42670W        W 2206   4.435  23.088   2.402
42671W        W 2207  32.920  24.690  13.331
42672W        W 2208  14.805  32.467   3.788
42673W        W 2209  30.950  30.085  11.097
42674W        W 2210  33.386   1.254   0.259
42675W        W 2211  31.584  36.066  13.901
42676W        W 2212  33.953  26.037   1.721
42677W        W 2213  15.608  15.310  11.480
42678W        W 2214  41.890   0.291  12.869
42679W        W 2215  22.149  26.161   2.212
42680W        W 2216  22.049   6.718  12.963
42681W        W 2217  20.623   3.366  10.998
42682W        W 2218  38.825  31.112   3.735
42683W        W 2219  22.054  27.997   2.402
42684W        W 2220  43.766  23.051   2.773
42685W        W 2221  17.573   3.427   2.806
42686W        W 2222  35.495  31.898  12.342
42687W        W 2223   4.810  41.364   0.327
42688W        W 2224   0.316  40.037  12.942
42689W        W 2225  17.236  40.514   1.358
42690W        W 2226   9.780  37.959   4.763
42691W        W 2227  44.444  13.131   1.320
42692W        W 2228   9.322   3.741  14.856
42693W        W 2229  31.447  37.374  10.498
42694W        W 2230  35.919   6.341  11.961
42695W        W 2231  30.557  44.353  13.821
42696W        W 2232   9.681  15.178   1.828
42697W        W 2233  37.928   1.978  13.885
42698W        W 2234  26.529  22.157  12.923
42699W        W 2235  34.507  31.449  13.425
42700W        W 2236  33.519  40.989  10.567
42701W        W 2237  21.179  38.571  14.475
42702W        W 2238  21.660  35.956  12.400
42703W        W 2239  20.195  24.148   0.338
42704W        W 2240   4.287  40.911   4.220
42705W        W 2241  23.548  11.304  11.996
42706W        W 2242  26.067   5.263   4.738
42707W        W 2243  33.081  39.939  14.471
42708W        W 2244  26.104   6.905  10.991
42709W        W 2245  18.242  40.393   3.314
42710W        W 2246  28.994  32.561  13.049
42711W        W 2247   2.723  15.596   0.273
42712W        W 2248   1.844   6.349   4.281
42713W        W 2249   8.249  17.155   4.353
42714W        W 2250  14.266  32.116  13.398
42715W        W 2251  20.269  11.353  11.888
42716W        W 2252  33.015   9.208  14.873
42717W        W 2253  14.658   5.420  13.983
42718W        W 2254  43.999  17.716   3.791
42719W        W 2255  31.519  22.516   4.757
42720W        W 2256  22.227   1.260   3.847
42721W        W 2257  11.244  21.629  13.315
42722W        W 2258  35.592  27.481   4.210
42723W        W 2259  33.560  21.165   3.314
42724W        W 2260  28.930  30.926   0.959
42725W        W 2261   1.751  44.501   3.860
42726W        W 2262  25.665  16.134   2.881
42727W        W 2263   0.945  26.146   0.443
42728W        W 2264  22.585  13.294  14.285
42729W        W 2265  27.033  17.115  12.379
42730W        W 2266  14.116   0.359   1.354
42731W        W 2267   7.300  16.186  13.504
42732W        W 2268  32.061  24.226   3.352
42733W        W 2269  22.599   5.216   3.253
42734W        W 2270   1.804   4.269   0.790
42735W        W 2271  13.289  39.372  13.529
42736W        W 2272   8.230   5.882  12.562
42737W        W 2273  26.546  16.206   3.801
42738W        W 2274  40.540  40.917  13.972
42739W        W 2275  21.589  20.686   0.755
42740W        W 2276  41.406  41.449  12.920
42741W        W 2277  30.916   1.274   1.834
42742W        W 2278  19.059  42.359   4.752
42743W        W 2279  30.948  39.886  12.481
42744W        W 2280  41.324  16.132   3.758
42745W        W 2281  31.428  36.499  14.019
42746W        W 2282  36.379   2.881   0.317
42747W        W 2283  42.014  42.898   5.133
42748W        W 2284  37.855  21.583  14.302
42749W        W 2285  16.136  41.402  11.019
42750W        W 2286   5.812  19.576   4.676
42751W        W 2287   6.415  38.498   1.319
42752W        W 2288  36.486  42.775   2.279
42753W        W 2289  12.821  18.143   2.759
42754W        W 2290  36.876  10.321   0.733
42755W        W 2291  27.065  39.416   2.841
42756W        W 2292  26.039  31.481  10.981
42757W        W 2293  24.118  39.943  12.571
42758W        W 2294  18.130  44.802   4.692
42759W        W 2295  41.334   8.865   5.196
42760W        W 2296  40.511  35.012  11.076
42761W        W 2297  38.402   1.935  12.867
42762W        W 2298  15.153   4.882   2.893
42763W        W 2299  41.415  24.564  14.014
42764W        W 2300  17.774  38.962   4.159
42765W        W 2301  31.426  33.071  11.505
42766W        W 2302  26.028   9.343   0.751
42767W        W 2303  13.614  16.307   3.651
42768W        W 2304   2.308  41.504   3.745
42769W        W 2305  34.897  36.865   4.250
42770W        W 2306  24.544  11.625   1.854
42771W        W 2307  10.176   9.845   0.751
42772W        W 2308  19.165  44.826   4.189
42773W        W 2309  12.822  42.933   0.243
42774W        W 2310   1.822  25.068   3.330
42775W        W 2311  39.441  30.580   2.252
42776W        W 2312   8.288  26.560   0.357
42777W        W 2313  16.215  13.158   2.368
42778W        W 2314  30.599   9.829  14.012
42779W        W 2315  28.007   8.859  10.621
42780W        W 2316  13.342  23.717  11.581
42781W        W 2317  18.715  29.021  14.430
42782W        W 2318   4.798  34.531  12.423
42783W        W 2319  44.867   9.824  12.445
42784W        W 2320  17.797  20.223   0.332
42785W        W 2321   6.281  19.209   0.812
42786W        W 2322  26.109   9.751  12.423
42787W        W 2323  40.988  23.571   4.216
42788W        W 2324  33.621  33.067  13.429
42789W        W 2325  20.592  43.877  14.419
42790W        W 2326  43.804  12.281   1.226
42791W        W 2327  41.515  42.807  11.541
42792W        W 2328  26.687  30.975   4.354
42793W        W 2329  14.290  44.436   2.209
42794W        W 2330  24.992  34.021  13.867
42795W        W 2331   6.775  41.970   0.808
42796W        W 2332   6.817  43.785  10.561
42797W        W 2333  26.013  28.104  13.415
42798W        W 2334  18.150  19.542  12.863
42799W        W 2335  26.579  34.416  14.340
42800W        W 2336  26.555  30.998  10.994
42801W        W 2337  36.357  39.528   2.262
42802W        W 2338  18.165  20.708   4.230
42803W        W 2339   8.796  39.865   4.230
42804W        W 2340  19.164  10.795  10.903
42805W        W 2341  23.057  31.963   4.173
42806W        W 2342  15.152  30.550  14.282
42807W        W 2343  35.502   4.767   1.801
42808W        W 2344  27.036  42.305  13.457
42809W        W 2345  28.993  43.338  14.916
42810W        W 2346  16.164   9.720   1.739
42811W        W 2347  37.575  20.246  10.934
42812W        W 2348   7.755  20.567  14.899
42813W        W 2349  28.955  25.698  10.930
42814W        W 2350  38.905  25.169   3.687
42815W        W 2351  32.572  42.808  11.035
42816W        W 2352  38.054  20.689  10.512
42817W        W 2353   0.443  18.218   3.644
42818W        W 2354   1.352   7.390   2.700
42819W        W 2355  29.610  21.687  12.419
42820W        W 2356  33.528   6.742   3.334
42821W        W 2357  43.944  18.783   1.891
42822W        W 2358  44.361  11.368   0.280
42823W        W 2359  11.266   0.311  13.531
42824W        W 2360  43.946  42.028   2.762
42825W        W 2361  42.285  11.859   3.315
42826W        W 2362  44.378  34.941   0.470
42827W        W 2363   2.250  34.480   1.254
42828W        W 2364  12.773  29.485  12.978
42829W        W 2365  25.988  11.633   1.243
42830W        W 2366  12.697  34.005  12.975
42831W        W 2367  30.974  32.446  13.960
42832W        W 2368  26.603   2.828  11.039
42833W        W 2369  16.780  10.795   2.668
42834W        W 2370  36.348  35.952  12.081
42835W        W 2371  26.959  33.978   4.648
42836W        W 2372  39.972   7.826   2.822
42837W        W 2373  31.434  13.349   1.228
42838W        W 2374  31.111  28.550  10.927
42839W        W 2375  30.457  26.530   3.835
42840W        W 2376  28.478  19.159   3.262
42841W        W 2377  29.958  40.940   0.346
42842W        W 2378  30.494  44.940   4.703
42843W        W 2379  42.985  36.010  11.067
42844W        W 2380  16.676  19.641  13.970
42845W        W 2381  27.471  13.719  14.513
42846W        W 2382  14.304   6.241   1.858
42847W        W 2383  20.045   2.362   2.867
42848W        W 2384  41.895  20.045  12.953
42849W        W 2385  19.130   8.761   0.479
42850W        W 2386   9.771  13.840  14.894
42851W        W 2387  37.553  12.128   4.306
42852W        W 2388  28.594  31.046  13.415
42853W        W 2389  16.084  23.078  12.500
42854W        W 2390  36.855  19.232  14.327
42855W        W 2391  43.381  21.038  12.522
42856W        W 2392  18.701   4.787  13.370
42857W        W 2393   8.386  19.637   2.308
42858W        W 2394  12.712  27.171  11.912
42859W        W 2395  42.800  28.616   0.958
42860W        W 2396  16.637  33.619   2.894
42861W        W 2397   2.866  33.562   4.195
42862W        W 2398  41.519  25.134   1.790
42863W        W 2399  42.526  38.356  14.324
42864W        W 2400   8.406  10.720  11.039
42865W        W 2401   8.232   6.309  11.072
42866W        W 2402  12.128  42.448   2.903
42867W        W 2403  22.113  20.662   0.804
42868W        W 2404  23.157  42.316  13.350
42869W        W 2405  31.011  44.459  13.028
42870W        W 2406  10.784  15.802  14.445
42871W        W 2407  21.136  39.848   3.305
42872W        W 2408   6.773  42.307   0.947
42873W        W 2409  34.004  26.585   3.655
42874W        W 2410  12.664  25.008  12.879
42875W        W 2411   7.668  34.952   2.823
42876W        W 2412  37.582  20.575   3.267
42877W        W 2413  13.801  11.169  13.050
42878W        W 2414  19.767  18.180   0.324
42879W        W 2415  34.499   5.687  10.478
42880W        W 2416  10.778  40.510  13.929
42881W        W 2417  19.281  11.742  11.447
42882W        W 2418   7.293  30.487   4.825
42883W        W 2419  39.332  20.272  13.946
42884W        W 2420  36.933   1.734  12.006
42885W        W 2421  42.011   4.726  13.888
42886W        W 2422  14.671  11.718  13.441
42887W        W 2423   5.353  27.062   9.970
42888W        W 2424  11.657   3.895   2.870
42889W        W 2425  19.578   4.903  13.801
42890W        W 2426   9.377   9.867   3.365
42891W        W 2427  43.848  39.061  12.050
42892W        W 2428  22.517  33.119  13.437
42893W        W 2429  26.011  16.610   4.305
42894W        W 2430   8.227  35.504   3.661
42895W        W 2431  20.220  29.636   3.184
42896W        W 2432  16.795  31.002   2.708
42897W        W 2433  20.266  32.963  12.964
42898W        W 2434  30.111  41.316   2.679
42899W        W 2435  24.482   0.942  14.014
42900W        W 2436  44.422  22.026   2.797
42901W        W 2437  27.605   4.780   4.349
42902W        W 2438  39.942  18.664  11.612
42903W        W 2439  31.008  32.975  10.492
42904W        W 2440  38.039   5.885  12.083
42905W        W 2441  11.627  39.432  13.972
42906W        W 2442  19.571  26.698   1.742
42907W        W 2443  22.086   7.852  11.049
42908W        W 2444   5.197  42.396   4.739
42909W        W 2445   9.860  26.968   2.785
42910W        W 2446  34.425  22.563  13.876
42911W        W 2447  32.454  29.953   1.333
42912W        W 2448  37.070   3.221  12.086
42913W        W 2449  39.520  26.121  12.084
42914W        W 2450  26.468  25.471   4.130
42915W        W 2451  20.083  44.410  13.808
42916W        W 2452  29.157  31.420   1.707
42917W        W 2453  27.089  28.103  13.340
42918W        W 2454  44.433  44.990   2.289
42919W        W 2455  20.556  17.161   4.304
42920W        W 2456  34.986  32.013  14.374
42921W        W 2457   8.166   1.960   0.962
42922W        W 2458  12.817   6.387  12.428
42923W        W 2459  25.968  34.981  13.502
42924W        W 2460  28.107  12.856   3.155
42925W        W 2461  41.837  33.480  10.938
42926W        W 2462  32.975   0.794  13.545
42927W        W 2463  35.879  19.710  12.928
42928W        W 2464  18.220  30.108   1.743
42929W        W 2465  13.297  35.532  14.352
42930W        W 2466  26.011  33.592   0.933
42931W        W 2467   2.788  19.111  11.876
42932W        W 2468  20.570   0.315  12.087
42933W        W 2469  30.464  36.887  13.409
42934W        W 2470  33.612   3.863  14.875
42935W        W 2471  14.214  19.108  12.971
42936W        W 2472  41.854  35.399  13.996
42937W        W 2473  30.993  14.821  12.396
42938W        W 2474  38.418  10.140   1.334
42939W        W 2475  10.720  14.663  13.835
42940W        W 2476  20.250   7.790   3.226
42941W        W 2477  13.269  15.820   1.391
42942W        W 2478  44.824  27.190  11.524
42943W        W 2479   5.333  34.549   0.341
42944W        W 2480  32.970  30.492  10.977
42945W        W 2481  41.528  18.671  14.937
42946W        W 2482  27.450  15.296   2.313
42947W        W 2483  38.334   1.782  14.835
42948W        W 2484   3.734  23.540  12.462
42949W        W 2485   2.439  20.563   3.278
42950W        W 2486  27.079  35.465   0.835
42951W        W 2487  11.140   4.836   4.812
42952W        W 2488  28.169   5.919   3.711
42953W        W 2489   0.848  41.534  11.519
42954W        W 2490  29.489  25.111   1.280
42955W        W 2491   1.968  36.522   2.365
42956W        W 2492  21.635   5.311   2.190
42957W        W 2493   2.870   4.793   1.919
42958W        W 2494   4.450  35.924  13.534
42959W        W 2495  16.687  15.582  14.917
42960W        W 2496  25.977  36.856  12.834
42961W        W 2497  42.496   0.252   2.903
42962W        W 2498  38.051  28.456  12.481
42963W        W 2499   9.373  41.458   1.709
42964W        W 2500  15.133  13.713  14.437
42965W        W 2501  28.975  19.233  10.976
42966W        W 2502  25.600  44.391   0.871
42967W        W 2503  44.775  17.093  10.937
42968W        W 2504   6.312   9.877  11.873
42969W        W 2505  37.385  34.442   4.687
42970W        W 2506   7.364  42.470   1.845
42971W        W 2507  26.995  36.486   3.825
42972W        W 2508  12.333  30.586  13.826
42973W        W 2509  39.522   4.273   4.642
42974W        W 2510   9.867  40.031   2.208
42975W        W 2511  25.482  12.793  13.412
42976W        W 2512  21.234  40.825  14.941
42977W        W 2513  29.941  33.545   0.397
42978W        W 2514  44.289  34.508   1.792
42979W        W 2515  25.467  35.494   9.629
42980W        W 2516  30.658   9.331  12.919
42981W        W 2517  31.122  22.098  12.347
42982W        W 2518   1.244  12.267   0.817
42983W        W 2519  11.338  44.855  14.488
42984W        W 2520  32.571  13.831  13.853
42985W        W 2521  19.768   7.263  14.910
42986W        W 2522   3.864  22.667  11.485
42987W        W 2523  41.379  19.565  13.402
42988W        W 2524  18.772   7.834   4.732
42989W        W 2525  38.372  22.174   4.725
42990W        W 2526   5.865  11.284  11.027
42991W        W 2527  31.026  26.563  13.869
42992W        W 2528   7.197  25.678   0.409
42993W        W 2529  43.471   1.895  12.828
42994W        W 2530   6.805  17.134  13.475
42995W        W 2531  11.691  42.366  10.551
42996W        W 2532  40.329  29.645   4.135
42997W        W 2533   0.868  15.290   2.372
42998W        W 2534  25.218  36.463   2.828
42999W        W 2535  11.329  44.312   1.721
43000W        W 2536  43.965   0.366   3.168
43001W        W 2537  30.567  19.617   0.364
43002W        W 2538  17.706  12.657   3.342
43003W        W 2539   0.405  41.902  11.027
43004W        W 2540   2.791  36.919   1.257
43005W        W 2541   1.251  43.020   4.656
43006W        W 2542   5.381   8.212   1.375
43007W        W 2543   5.259  35.537   4.728
43008W        W 2544  14.177  11.222  12.347
43009W        W 2545  32.987  28.028  11.013
43010W        W 2546   0.954  11.655   3.365
43011W        W 2547  31.085  20.143   2.781
43012W        W 2548   8.340   8.248   3.650
43013W        W 2549   6.792  33.938   3.678
43014W        W 2550   1.834  16.072   3.363
43015W        W 2551   6.386   5.382   4.767
43016W        W 2552   6.915  14.762  13.954
43017W        W 2553  14.261  26.692   3.661
43018W        W 2554   7.383   5.780  12.849
43019W        W 2555  14.632  40.990  11.488
43020W        W 2556  13.198  40.843   4.292
43021W        W 2557  20.604  10.777  13.968
43022W        W 2558  29.589  44.465  14.804
43023W        W 2559  31.401   8.781  11.414
43024W        W 2560   3.403  37.034  12.082
43025W        W 2561   2.912  44.315  14.380
43026W        W 2562   6.320  19.626  10.079
43027W        W 2563  17.613   6.297   3.379
43028W        W 2564  26.570  44.370  13.895
43029W        W 2565  25.965  40.839  12.564
43030W        W 2566  35.473  30.040  14.854
43031W        W 2567   6.214  39.033  13.051
43032W        W 2568  21.122  12.613  12.836
43033W        W 2569  16.759  13.155  12.398
43034W        W 2570  42.872  33.443  10.896
43035W        W 2571   1.336  32.437  11.998
43036W        W 2572  24.656  44.361   3.306
43037W        W 2573  10.295  28.612  13.825
43038W        W 2574  39.522  22.607  13.856
43039W        W 2575   0.987   8.723   4.115
43040W        W 2576  42.998   8.655  12.354
43041W        W 2577  21.632  13.665   0.458
43042W        W 2578  29.462  19.226   1.356
43043W        W 2579  35.418  21.746   2.741
43044W        W 2580  22.554  29.087   3.658
43045W        W 2581  34.062  24.684   0.872
43046W        W 2582  33.132  38.377   3.856
43047W        W 2583  27.546   7.730  12.999
43048W        W 2584  37.448  27.076  13.949
43049W        W 2585   3.856  42.910  11.491
43050W        W 2586  25.029  36.085  13.476
43051W        W 2587  42.328  29.444   3.155
43052W        W 2588  10.692  20.567   4.282
43053W        W 2589  41.932  15.614   2.280
43054W        W 2590  30.542  12.629  12.982
43055W        W 2591  29.136  12.326   2.664
43056W        W 2592   6.808  42.421  12.423
43057W        W 2593  14.595  23.633   1.396
43058W        W 2594  17.596  25.099   1.905
43059W        W 2595  25.136  12.121   1.314
43060W        W 2596  43.377  37.863   1.878
43061W        W 2597   4.942  13.303   0.880
43062W        W 2598  33.509  13.297   4.760
43063W        W 2599  36.485  19.223  11.866
43064W        W 2600  35.550  13.127   4.129
43065W        W 2601   2.259  44.983  14.824
43066W        W 2602   8.684   9.225  13.924
43067W        W 2603  24.595   1.278  13.322
43068W        W 2604  12.174  21.594  11.064
43069W        W 2605  34.908  20.056  14.512
43070W        W 2606  22.146  26.649   4.809
43071W        W 2607  40.498  25.055   0.920
43072W        W 2608  42.491  12.778   2.868
43073W        W 2609  43.942  27.185  14.759
43074W        W 2610  34.923   2.738   4.827
43075W        W 2611   0.315  21.168  12.832
43076W        W 2612  26.589  14.327   3.632
43077W        W 2613  25.969  20.704   0.782
43078W        W 2614  37.448  18.186   2.187
43079W        W 2615  30.508  16.231  12.448
43080W        W 2616  26.667   8.834   2.831
43081W        W 2617  10.168  36.559   3.212
43082W        W 2618  16.803  26.118  11.545
43083W        W 2619  21.058  34.033   3.163
43084W        W 2620  24.093  36.391   1.315
43085W        W 2621  20.533   9.772  14.499
43086W        W 2622  43.455  41.400   0.843
43087W        W 2623  15.283  10.228   0.944
43088W        W 2624  12.655  28.084   5.195
43089W        W 2625  31.511  15.752   0.914
43090W        W 2626  37.398  40.486  10.588
43091W        W 2627  43.401  28.952   1.377
43092W        W 2628  30.912  33.028  13.926
43093W        W 2629  39.490  22.544  12.458
43094W        W 2630  44.396   2.371   1.876
43095W        W 2631  19.641  22.702  12.029
43096W        W 2632  25.142   8.784   0.364
43097W        W 2633   9.350  31.617   1.712
43098W        W 2634  42.895  26.074   1.767
43099W        W 2635  21.561  37.519   2.418
43100W        W 2636  30.110  16.746  14.006
43101W        W 2637  12.826  40.865  13.859
43102W        W 2638  39.524  16.137  13.487
43103W        W 2639  23.043  33.588  12.420
43104W        W 2640  37.942  28.025   1.350
43105W        W 2641   1.252  12.753  14.789
43106W        W 2642  31.979   0.827  10.910
43107W        W 2643  35.471  16.708   0.424
43108W        W 2644   4.306  32.950   4.776
43109W        W 2645  30.637  41.938   3.174
43110W        W 2646  25.008  42.390   3.844
43111W        W 2647  42.020  41.442   0.481
43112W        W 2648  42.308  14.339  14.759
43113W        W 2649   2.761  35.557   0.254
43114W        W 2650  43.772   7.356  12.042
43115W        W 2651   2.300  28.479  13.815
43116W        W 2652  26.058  33.104   1.384
43117W        W 2653  38.945  32.422   2.761
43118W        W 2654   5.759  29.437  10.504
43119W        W 2655   4.321   4.783   2.299
43120W        W 2656  12.357  17.801   3.683
43121W        W 2657  34.926   8.290   2.266
43122W        W 2658  31.048  11.741  10.475
43123W        W 2659  17.282   8.898   4.825
43124W        W 2660  21.201  19.226   2.353
43125W        W 2661  18.691  13.111   4.167
43126W        W 2662  25.079  39.987   1.278
43127W        W 2663  34.548   5.229   1.907
43128W        W 2664  42.305   6.182   2.247
43129W        W 2665  15.700   0.368   3.631
43130W        W 2666  35.599  44.978   3.347
43131W        W 2667  32.460  41.478   0.446
43132W        W 2668  11.801   0.461   4.819
43133W        W 2669  14.123  26.017  13.973
43134W        W 2670  30.631  18.627   2.329
43135W        W 2671  10.267  21.578   3.674
43136W        W 2672  26.007  23.503  11.097
43137W        W 2673  40.410  10.835  11.040
43138W        W 2674   4.318  18.715   2.388
43139W        W 2675  36.986  31.051   3.201
43140W        W 2676   4.317  25.671  14.804
43141W        W 2677  20.126  36.964   1.356
43142W        W 2678  28.981   2.401  10.592
43143W        W 2679   2.442  19.567   3.665
43144W        W 2680  35.913  25.173  10.494
43145W        W 2681  21.694   2.245   4.627
43146W        W 2682  29.639  12.636  14.425
43147W        W 2683  36.536  17.067  14.806
43148W        W 2684  42.327  32.425  10.926
43149W        W 2685  23.626   1.248  14.927
43150W        W 2686  17.190  35.591  11.044
43151W        W 2687  15.323   8.245   4.715
43152W        W 2688  20.541  16.295   1.226
43153W        W 2689  12.244  12.805  10.916
43154W        W 2690   5.848  10.292  10.446
43155W        W 2691  40.044  25.557  12.086
43156W        W 2692  13.634  27.122  12.060
43157W        W 2693  11.238  19.587   2.800
43158W        W 2694  20.036  40.480  10.053
43159W        W 2695  35.987   6.837   1.333
43160W        W 2696  26.497  31.405   2.746
43161W        W 2697  17.282   4.866   0.964
43162W        W 2698  29.087  12.331  12.995
43163W        W 2699  13.609  16.168  10.626
43164W        W 2700  30.985   4.419  13.379
43165W        W 2701  10.748   1.785  10.469
43166W        W 2702  41.996  23.620  14.906
43167W        W 2703  34.505  38.518  13.974
43168W        W 2704   4.945   2.760   1.278
43169W        W 2705  33.983  42.375   3.789
43170W        W 2706  11.283   5.207   1.345
43171W        W 2707  22.505  44.892   3.739
43172W        W 2708  20.602  20.185   3.773
43173W        W 2709  24.570   2.819  11.376
43174W        W 2710  29.541  20.586   3.171
43175W        W 2711  31.493  33.932  13.927
43176W        W 2712  18.775  30.907  11.390
43177W        W 2713  18.766  13.142  14.947
43178W        W 2714  43.467  24.040   1.752
43179W        W 2715   6.746  13.791   0.797
43180W        W 2716  35.077  26.117  12.906
43181W        W 2717   2.942  34.121   4.166
43182W        W 2718   2.938  31.410  11.097
43183W        W 2719  33.412  35.998  14.390
43184W        W 2720   3.947  43.900  14.779
43185W        W 2721   0.757  22.599  10.541
43186W        W 2722  17.561  10.296  13.010
43187W        W 2723   8.299  31.945   3.685
43188W        W 2724  31.558  11.201   2.682
43189W        W 2725  35.523  18.624  12.092
43190W        W 2726  15.723  33.989   3.727
43191W        W 2727  25.694  24.700   0.269
43192W        W 2728  41.405   6.906   3.259
43193W        W 2729  32.071  14.152  10.893
43194W        W 2730  21.609  15.611  14.951
43195W        W 2731  27.565   1.275  14.820
43196W        W 2732  11.273  27.492  11.946
43197W        W 2733  27.156  12.616  11.900
43198W        W 2734  43.807   8.835   3.685
43199W        W 2735  16.682   5.809   2.831
43200W        W 2736   1.345  40.909  10.566
43201W        W 2737   7.869  20.224  14.470
43202W        W 2738  38.385  33.383   4.644
43203W        W 2739   3.798  27.077   0.800
43204W        W 2740   0.818  37.056   2.883
43205W        W 2741  14.174   1.954   1.853
43206W        W 2742   0.388   2.355  12.046
43207W        W 2743  41.984  16.644   4.647
43208W        W 2744  38.006  19.061  10.450
43209W        W 2745  42.944  23.654   2.389
43210W        W 2746  40.499   6.320   4.211
43211W        W 2747  26.491  16.101  11.474
43212W        W 2748  34.869  44.962  10.543
43213W        W 2749   2.336  34.582   2.726
43214W        W 2750  35.979  19.138   0.921
43215W        W 2751   2.381  27.659   3.371
43216W        W 2752  26.176   4.308   1.764
43217W        W 2753  12.252  26.123   1.336
43218W        W 2754  10.669   7.248   0.748
43219W        W 2755  44.401  35.093   1.770
43220W        W 2756  27.506  36.567  11.055
43221W        W 2757  12.681  27.102  10.584
43222W        W 2758  39.319  26.568   0.897
43223W        W 2759  18.156  24.679  13.827
43224W        W 2760  31.987   2.244  13.474
43225W        W 2761  19.237  19.125  12.913
43226W        W 2762   5.342  37.475   2.179
43227W        W 2763  42.892   7.754   3.843
43228W        W 2764  44.468  43.320  14.303
43229W        W 2765  32.040   2.364   4.690
43230W        W 2766  17.610  31.907  11.864
43231W        W 2767  21.189  18.723  14.908
43232W        W 2768  34.479  12.737   3.807
43233W        W 2769   5.712  19.630  11.036
43234W        W 2770  21.200  33.115   4.322
43235W        W 2771   9.869  30.435  13.875
43236W        W 2772  30.524  40.844   3.269
43237W        W 2773  10.721  27.102  10.425
43238W        W 2774  34.947  44.353   3.719
43239W        W 2775  22.223  22.708  11.538
43240W        W 2776  37.963  44.417  12.504
43241W        W 2777  42.355  25.617  10.409
43242W        W 2778  20.738  32.927  12.398
43243W        W 2779  35.469   3.788  11.895
43244W        W 2780  24.131  28.930   1.832
43245W        W 2781  33.535  22.052  10.084
43246W        W 2782  38.502   4.745   2.261
43247W        W 2783  18.615  16.265  14.476
43248W        W 2784  24.555  29.452   1.399
43249W        W 2785  12.805  19.761  11.966
43250W        W 2786  18.591   9.775  11.462
43251W        W 2787  22.741  17.145   2.184
43252W        W 2788  38.915  12.346  14.461
43253W        W 2789   9.770  28.530  12.346
43254W        W 2790  17.556  19.282  12.086
43255W        W 2791  41.493  23.492  14.995
43256W        W 2792  10.223  17.088   5.144
43257W        W 2793  24.089  17.563   2.343
43258W        W 2794  16.093   9.857  13.028
43259W        W 2795  30.458   3.807   2.786
43260W        W 2796  22.019  38.424  13.028
43261W        W 2797  35.583  24.567  11.025
43262W        W 2798   0.299  40.041  13.508
43263W        W 2799  20.145  11.144  12.364
43264W        W 2800   1.882  34.593  11.495
43265W        W 2801   8.744  14.687  14.780
43266W        W 2802  38.018   1.971  11.419
43267W        W 2803   9.303  28.123   5.190
43268W        W 2804  33.417   6.762   0.879
43269W        W 2805  10.869  32.592  13.056
43270W        W 2806  42.363  36.009   2.277
43271W        W 2807  37.032  35.853   1.805
43272W        W 2808  21.162  41.983   0.474
43273W        W 2809  41.334  41.313  11.892
43274W        W 2810  41.034  39.350  14.010
43275W        W 2811   2.765  27.472   5.783
43276W        W 2812  29.552  35.105  13.368
43277W        W 2813  10.157  44.412  14.856
43278W        W 2814   7.684  40.507  13.434
43279W        W 2815  35.378  40.053   2.803
43280W        W 2816  36.555  19.192   0.827
43281W        W 2817  30.061  25.133  10.128
43282W        W 2818  36.577   6.876  13.026
43283W        W 2819  27.053  25.000   4.234
43284W        W 2820  30.458   3.373   5.305
43285W        W 2821  15.805  27.093  14.963
43286W        W 2822  41.367   6.325   3.372
43287W        W 2823  11.860  22.588  11.403
43288W        W 2824   4.750  29.496  14.899
43289W        W 2825   6.191  42.998  11.514
43290W        W 2826  15.091  18.217  10.442
43291W        W 2827  22.146  32.485   3.332
43292W        W 2828  13.262   1.435   0.352
43293W        W 2829  31.541   2.408  10.935
43294W        W 2830  24.722  13.776  10.446
43295W        W 2831   5.882   9.301  11.511
43296W        W 2832   8.334  31.978   1.897
43297W        W 2833  34.383  42.803   0.355
43298W        W 2834  20.716  19.663  11.469
43299W        W 2835  38.849   3.822   3.824
43300W        W 2836  12.743  34.058  13.330
43301W        W 2837  15.609  21.704   1.280
43302W        W 2838  11.669  41.513  14.761
43303W        W 2839   8.249  11.203   4.660
43304W        W 2840  41.536   8.884   2.796
43305W        W 2841   8.807  42.861  11.944
43306W        W 2842  19.098   4.790  10.416
43307W        W 2843  11.692  33.049   3.773
43308W        W 2844  15.202  15.231   1.290
43309W        W 2845  27.559  12.840   2.258
43310W        W 2846   7.331  26.514   5.209
43311W        W 2847  35.915   9.665   0.268
43312W        W 2848   0.824  41.341   2.393
43313W        W 2849  26.617   7.292  11.113
43314W        W 2850  17.198  11.157   4.164
43315W        W 2851   5.292  36.560   4.133
43316W        W 2852  44.371  37.361   4.349
43317W        W 2853  38.364   0.279   0.409
43318W        W 2854   8.335  13.723   1.889
43319W        W 2855  17.277  18.167  14.340
43320W        W 2856  34.007   9.239   4.159
43321W        W 2857  14.161   3.223   0.317
43322W        W 2858  17.782  24.682  12.873
43323W        W 2859  21.151  39.544   9.963
43324W        W 2860  25.980  27.503  13.816
43325W        W 2861  15.197  34.940  11.959
43326W        W 2862  29.619  39.326  11.048
43327W        W 2863  44.279  30.582   3.698
43328W        W 2864  21.073  17.116  13.548
43329W        W 2865   0.787   0.857  10.054
43330W        W 2866   1.428  10.363   4.278
43331W        W 2867  33.892   9.387  10.543
43332W        W 2868   8.757  18.618   3.829
43333W        W 2869   0.300   5.715  13.541
43334W        W 2870   1.247  12.795  10.059
43335W        W 2871  44.756   9.170   3.830
43336W        W 2872  16.167  23.572   3.691
43337W        W 2873  42.806  44.409   4.760
43338W        W 2874  14.638  39.911  14.362
43339W        W 2875   6.288  28.606   2.404
43340W        W 2876   5.913  29.153  10.565
43341W        W 2877  27.679  10.679   1.928
43342W        W 2878  26.476  44.844   2.735
43343W        W 2879  13.135   2.845   1.326
43344W        W 2880  33.990   3.923   1.771
43345W        W 2881  21.118  19.197   0.742
43346W        W 2882   5.929   1.856  14.284
43347W        W 2883  41.519  19.070  13.791
43348W        W 2884  11.757  38.051  10.590
43349W        W 2885  30.514  17.132  14.816
43350W        W 2886   2.258   2.331   1.308
43351W        W 2887  23.060  20.537   0.771
43352W        W 2888  44.410  18.770  11.469
43353W        W 2889  17.585   1.797   0.384
43354W        W 2890   5.808   4.273  12.046
43355W        W 2891   9.346  18.116  13.981
43356W        W 2892  27.142  32.516   1.245
43357W        W 2893  16.236  43.386   1.866
43358W        W 2894  34.026   3.406   0.809
43359W        W 2895  43.999  41.956   3.376
43360W        W 2896  20.219   6.738   2.877
43361W        W 2897  42.343   4.733  12.094
43362W        W 2898  18.213  14.174  14.456
43363W        W 2899  15.806  39.018   3.848
43364W        W 2900  27.057  12.655  10.971
43365W        W 2901   9.314  28.156  10.146
43366W        W 2902   4.909  19.743   1.802
43367W        W 2903  44.988  25.191  12.386
43368W        W 2904  10.867  27.553   0.886
43369W        W 2905  24.026  22.506  12.484
43370W        W 2906  26.625   1.912   2.798
43371W        W 2907  11.687  28.133   3.249
43372W        W 2908  12.674  30.998   0.736
43373W        W 2909  44.345  16.310  10.590
43374W        W 2910  35.013  21.719   0.936
43375W        W 2911   6.192  18.172  14.363
43376W        W 2912  27.029  12.216   3.239
43377W        W 2913  33.489  30.474   3.285
43378W        W 2914  43.506  14.748   0.394
43379W        W 2915  39.932   7.200   2.246
43380W        W 2916  37.552  27.452  12.825
43381W        W 2917  26.591   4.341  10.143
43382W        W 2918   5.798  41.515  13.058
43383W        W 2919  32.579  21.622   3.250
43384W        W 2920  29.583  22.585  11.466
43385W        W 2921   9.672   1.853  14.865
43386W        W 2922  25.069   5.735  10.119
43387W        W 2923  24.643  26.075  14.811
43388W        W 2924  22.009  17.670  14.450
43389W        W 2925   8.388  23.673   5.303
43390W        W 2926  14.140  32.522  10.455
43391W        W 2927  23.060  13.192   4.715
43392W        W 2928   1.935  27.030   4.265
43393W        W 2929  34.382  10.180  12.956
43394W        W 2930  25.218  43.401   1.926
43395W        W 2931  20.663   4.800  14.869
43396W        W 2932   7.875   7.908   1.357
43397W        W 2933  12.127  26.670   4.617
43398W        W 2934  42.391  38.358   0.829
43399W        W 2935  14.607  34.026  12.551
43400W        W 2936   3.723  32.079  12.514
43401W        W 2937  17.123  35.445  14.987
43402W        W 2938   5.401  19.758   0.373
43403W        W 2939  40.979  36.861   0.271
43404W        W 2940  43.866  33.108  14.352
43405W        W 2941  20.148   6.253  11.121
43406W        W 2942  28.083  29.439   0.314
43407W        W 2943  11.738  43.886  10.420
43408W        W 2944   4.703  24.098   4.353
43409W        W 2945  14.670   7.799   0.887
43410W        W 2946   2.267   5.894   3.821
43411W        W 2947  10.779   8.811   3.154
43412W        W 2948  16.720   3.718  12.461
43413W        W 2949  43.012  28.018   1.701
43414W        W 2950  25.633  27.978  10.052
43415W        W 2951  39.018  32.887   3.249
43416W        W 2952   4.806  42.923   4.257
43417W        W 2953   3.413  25.521   1.247
43418W        W 2954   9.164  25.655   3.669
43419W        W 2955  12.654  42.864  14.414
43420W        W 2956  34.419   9.266   4.164
43421W        W 2957  28.186   8.889   0.285
43422W        W 2958  40.799  29.473   2.307
43423W        W 2959  21.735   0.866   2.756
43424W        W 2960  36.442  35.390  14.946
43425W        W 2961  11.373  28.950   0.872
43426W        W 2962  36.491  33.445  13.952
43427W        W 2963   7.321  43.337  11.506
43428W        W 2964   7.318  41.500   4.305
43429W        W 2965  30.921   7.282   4.767
43430W        W 2966  29.949  16.728   4.166
43431W        W 2967  14.789  22.238  12.038
43432W        W 2968  10.326  37.577  14.958
43433W        W 2969  43.871  29.011   4.191
43434W        W 2970  33.888  40.358   3.240
43435W        W 2971  28.046  41.014   0.884
43436W        W 2972  42.875  25.645  11.588
43437W        W 2973  37.477  15.702  14.320
43438W        W 2974  33.475  39.051   4.622
43439W        W 2975  27.146  23.706  11.871
43440W        W 2976  29.958   6.258  11.994
43441W        W 2977  12.135  28.023  11.582
43442W        W 2978  16.622   9.295   0.905
43443W        W 2979  14.768  14.603  13.931
43444W        W 2980  10.359   7.379   2.680
43445W        W 2981  33.457  16.146   0.427
43446W        W 2982  34.938  37.342   3.333
43447W        W 2983   6.833  25.982   9.444
43448W        W 2984  44.385  36.011   0.267
43449W        W 2985   9.763   5.726   2.668
43450W        W 2986  30.648  42.812   4.671
43451W        W 2987  26.610  11.341  14.837
43452W        W 2988   9.185   7.864   1.422
43453W        W 2989  36.577   2.731   4.701
43454W        W 2990  25.539  43.013   3.675
43455W        W 2991  43.963  20.219  13.482
43456W        W 2992  40.830   5.349   2.261
43457W        W 2993  44.296  31.011   3.231
43458W        W 2994  37.913  16.117   0.823
43459W        W 2995  14.169  43.863  10.952
43460W        W 2996  33.606  16.612   0.760
43461W        W 2997  13.715  14.724   1.752
43462W        W 2998   0.815  36.516   4.121
43463W        W 2999  24.209  13.643   2.873
43464W        W 3000   2.881  44.326  11.384
43465W        W 3001  31.113  15.697   0.280
43466W        W 3002   4.394   3.294  12.915
43467W        W 3003   2.726  34.967   4.801
43468W        W 3004  44.840  42.840  12.485
43469W        W 3005   6.712   5.383  14.838
43470W        W 3006  40.825  19.135   4.756
43471W        W 3007   3.346  42.524  10.957
43472W        W 3008  28.554  42.911  10.436
43473W        W 3009  11.839   2.450  14.512
43474W        W 3010  42.841  14.290   1.335
43475W        W 3011  21.708  42.833   0.273
43476W        W 3012  22.244   8.711  11.015
43477W        W 3013   6.425   6.253  13.409
43478W        W 3014   7.207  37.859  12.405
43479W        W 3015  12.848  23.115   0.383
43480W        W 3016  16.080  11.157  14.413
43481W        W 3017  39.839  37.453  12.924
43482W        W 3018  35.363  24.715  11.585
43483W        W 3019  18.626  12.131  10.616
43484W        W 3020  28.049  15.264   4.192
43485W        W 3021  35.568  17.241  10.982
43486W        W 3022  26.963  26.976   4.347
43487W        W 3023  40.351  29.426  13.887
43488W        W 3024  23.716   8.238  11.438
43489W        W 3025  19.771  40.328   1.796
43490W        W 3026  26.996  27.686  10.982
43491W        W 3027  35.039   1.949   3.264
43492W        W 3028   9.879  12.257  13.450
43493W        W 3029   7.871  17.234   5.172
43494W        W 3030  12.144  31.112   4.144
43495W        W 3031  32.626  34.094  12.444
43496W        W 3032  29.606  12.667   2.393
43497W        W 3033  23.997   7.347  10.913
43498W        W 3034   7.695  40.814  14.436
43499W        W 3035  20.586  36.844  10.583
43500W        W 3036  19.570  22.521  13.424
43501W        W 3037  32.391   2.852   4.729
43502W        W 3038  11.845  14.594   2.386
43503W        W 3039  37.868  10.679  14.014
43504W        W 3040  12.681   0.313   1.380
43505W        W 3041  44.004   4.886  11.549
43506W        W 3042  26.977  11.636   4.334
43507W        W 3043  16.595  19.675   0.429
43508W        W 3044   7.680  31.017   0.397
43509W        W 3045   2.942  38.848   4.674
43510W        W 3046   0.923  14.828  11.558
43511W        W 3047   4.333  14.786  11.928
43512W        W 3048  28.935  16.112   3.264
43513W        W 3049  40.515  13.661   1.361
43514W        W 3050  14.104  41.320  10.905
43515W        W 3051  43.991  20.055  10.585
43516W        W 3052  23.166  15.616   1.803
43517W        W 3053   8.333  34.027   1.417
43518W        W 3054  26.638  30.481   3.165
43519W        W 3055  36.551  38.502  12.508
43520W        W 3056  30.574  39.447  10.423
43521W        W 3057  14.285  29.487  11.581
43522W        W 3058  17.271  29.629   2.873
43523W        W 3059  41.344   9.885   1.835
43524W        W 3060  36.368  21.611   1.856
43525W        W 3061   8.269   1.922  13.446
43526W        W 3062  24.637  24.660  12.362
43527W        W 3063   6.873  16.179   2.269
43528W        W 3064   0.980  19.605  12.893
43529W        W 3065  21.757  33.998   2.776
43530W        W 3066  33.604  14.231  12.344
43531W        W 3067  34.065   3.942  10.894
43532W        W 3068  40.036  21.538  13.937
43533W        W 3069   7.862  21.255   1.919
43534W        W 3070  18.075  14.684   2.886
43535W        W 3071  10.284  16.620  11.466
43536W        W 3072   7.192  42.776  10.989
43537W        W 3073  23.099  10.851   1.285
43538W        W 3074   8.834   5.698  12.460
43539W        W 3075  12.144  34.423  11.438
43540W        W 3076  32.980  26.603   0.848
43541W        W 3077   0.436  30.610  13.841
43542W        W 3078  28.562   1.335  13.964
43543W        W 3079  27.446  22.683   3.684
43544W        W 3080  11.147  38.898   1.218
43545W        W 3081  21.098  22.651   3.243
43546W        W 3082   3.718  19.679  12.380
43547W        W 3083  26.589  17.112   3.210
43548W        W 3084   3.367  24.040   3.194
43549W        W 3085  40.492   4.822   2.748
43550W        W 3086   7.267  34.941  13.877
43551W        W 3087  30.575  27.576   2.291
43552W        W 3088  17.581  18.128  13.364
43553W        W 3089   9.242  17.257  12.439
43554W        W 3090  41.328  20.589  12.456
43555W        W 3091   3.245  17.751  11.496
43556W        W 3092  25.487   0.748  11.059
43557W        W 3093  26.592  29.550  13.314
43558W        W 3094  18.054  17.636   1.858
43559W        W 3095  35.568  27.631   4.749
43560W        W 3096  13.625  12.246  10.507
43561W        W 3097   0.300  29.959   4.683
43562W        W 3098  11.256  21.084  13.413
43563W        W 3099  32.445  17.782   0.436
43564W        W 3100  19.750  35.109  13.014
43565W        W 3101  24.558  16.649  13.994
43566W        W 3102  12.352   0.758   1.848
43567W        W 3103   3.955  35.427  11.063
43568W        W 3104  19.253   3.320  13.430
43569W        W 3105  32.900  33.489  11.933
43570W        W 3106  20.241  42.374  14.492
43571W        W 3107  34.040  21.601  10.897
43572W        W 3108   3.350  11.851  10.586
43573W        W 3109  21.748  16.315  12.041
43574W        W 3110  42.307  30.522   2.324
43575W        W 3111  19.053  28.677  12.407
43576W        W 3112   5.735  11.372   4.223
43577W        W 3113  38.524  30.085  11.102
43578W        W 3114  18.718  19.239   3.210
43579W        W 3115  38.865   3.398   3.714
43580W        W 3116  27.954   7.277  12.509
43581W        W 3117  40.019  17.773   3.355
43582W        W 3118   2.893  17.620   3.335
43583W        W 3119  17.726   8.204   3.338
43584W        W 3120  42.331  39.367   3.705
43585W        W 3121  34.560   1.939  11.560
43586W        W 3122   9.774  30.154  12.029
43587W        W 3123   0.297   8.776  13.924
43588W        W 3124  25.042  24.652  14.400
43589W        W 3125  27.480  21.752   1.854
43590W        W 3126  23.205   5.875   0.824
43591W        W 3127  27.041  35.402  13.919
43592W        W 3128  24.218   7.203  11.464
43593W        W 3129   7.790  42.471   0.948
43594W        W 3130  42.850  29.633   2.385
43595W        W 3131  22.136   7.722   2.846
43596W        W 3132   5.209  21.097  13.968
43597W        W 3133   4.730  25.479   1.885
43598W        W 3134  15.083  18.277  13.458
43599W        W 3135   9.275  42.989   0.282
43600W        W 3136  20.633  36.989  12.856
43601W        W 3137   6.262  40.320  11.057
43602W        W 3138  36.557  34.882   2.853
43603W        W 3139  23.511  28.565  11.501
43604W        W 3140  35.853  20.158   4.832
43605W        W 3141  21.175   7.240   3.283
43606W        W 3142  17.743  19.195  13.372
43607W        W 3143  13.656  16.804  12.911
43608W        W 3144  34.924   4.367   5.116
43609W        W 3145  40.401  17.632  13.382
43610W        W 3146  37.370   7.683  14.767
43611W        W 3147  17.788  38.426   3.718
43612W        W 3148  20.042  30.146   4.835
43613W        W 3149  42.285   4.731   3.220
43614W        W 3150  39.043   6.818  13.858
43615W        W 3151  13.179  12.820   1.266
43616W        W 3152  35.482  36.845   1.805
43617W        W 3153   4.774  29.457  13.930
43618W        W 3154  27.582  17.722   0.331
43619W        W 3155  35.561  19.780  10.454
43620W        W 3156  10.703  37.509   2.361
43621W        W 3157  36.973  35.565   0.290
43622W        W 3158  25.973  15.265   3.772
43623W        W 3159   1.733   8.768  13.823
43624W        W 3160  39.881  13.241  11.063
43625W        W 3161  18.747   3.260   9.928
43626W        W 3162  27.027   9.373  13.419
43627W        W 3163  40.376  34.947   4.737
43628W        W 3164  17.299  12.826   2.698
43629W        W 3165   5.775  26.574  13.915
43630W        W 3166  37.881   5.194   0.338
43631W        W 3167   3.794  11.253   1.265
43632W        W 3168  32.100  17.064   2.359
43633W        W 3169  21.058  32.095  11.541
43634W        W 3170  25.134  37.573   1.216
43635W        W 3171  14.331   7.210  12.541
43636W        W 3172   9.695  27.577   3.228
43637W        W 3173  22.199  25.094   3.850
43638W        W 3174   1.296  29.956   2.206
43639W        W 3175  39.904  19.765  11.604
43640W        W 3176   8.780  26.581   0.770
43641W        W 3177  30.122  30.985  11.603
43642W        W 3178   7.680  14.666  13.352
43643W        W 3179  33.409  29.021   0.267
43644W        W 3180  38.452  40.944   2.902
43645W        W 3181   8.884  36.484  11.987
43646W        W 3182   2.864   4.398   1.399
43647W        W 3183  25.045  14.594  12.339
43648W        W 3184  40.532   4.435   3.332
43649W        W 3185  25.127  40.818  13.060
43650W        W 3186  37.865  29.089   2.879
43651W        W 3187   5.850  27.054  13.031
43652W        W 3188  35.406  30.477   4.346
43653W        W 3189  24.502  42.296  11.046
43654W        W 3190  29.077  28.522   2.715
43655W        W 3191  36.521  27.675  12.437
43656W        W 3192  34.373  32.027  12.902
43657W        W 3193  11.783  34.987   3.737
43658W        W 3194   1.423   5.243   0.250
43659W        W 3195  36.990  37.940  10.412
43660W        W 3196  36.530  12.635   4.350
43661W        W 3197  33.535  21.727  11.468
43662W        W 3198  43.382  41.434  10.591
43663W        W 3199  23.164  34.413   2.882
43664W        W 3200   6.426  32.487  12.342
43665W        W 3201  36.410  34.434  12.095
43666W        W 3202   3.791  17.589   0.730
43667W        W 3203  39.394   4.718  14.978
43668W        W 3204  28.941  21.200  12.847
43669W        W 3205  29.024  27.521   2.367
43670W        W 3206  18.664  43.874   1.775
43671W        W 3207  38.387  18.725  11.573
43672W        W 3208   3.804   5.364  12.884
43673W        W 3209  19.109  15.627  11.441
43674W        W 3210  34.557  15.306   4.152
43675W        W 3211  39.905  39.517  13.962
43676W        W 3212  27.007  20.267   1.872
43677W        W 3213  30.118   6.412  11.451
43678W        W 3214   3.423   0.305   2.385
43679W        W 3215  36.361  41.360   0.451
43680W        W 3216  15.266   9.765   1.810
43681W        W 3217  37.931   7.790  13.039
43682W        W 3218  42.016  16.265   2.405
43683W        W 3219  25.185  26.695  14.773
43684W        W 3220  24.204  26.105  13.799
43685W        W 3221  23.089  24.719  14.432
43686W        W 3222  22.208  26.048  13.025
43687W        W 3223  38.477   3.261   1.246
43688W        W 3224  28.076  24.208  10.603
43689W        W 3225  17.260  42.327  10.953
43690W        W 3226   9.326  36.991   4.325
43691W        W 3227  23.149  27.462   3.175
43692W        W 3228  36.920  11.213   2.325
43693W        W 3229  21.139  30.060   2.336
43694W        W 3230  30.447   5.815  11.498
43695W        W 3231  17.109   2.877   2.223
43696W        W 3232   7.279   0.328  12.502
43697W        W 3233  18.067  38.898  14.006
43698W        W 3234   7.846  27.551  13.330
43699W        W 3235  27.609  19.041  13.937
43700W        W 3236  11.207  12.172  12.483
43701W        W 3237  11.821  11.855   1.893
43702W        W 3238  25.188  13.157   0.836
43703W        W 3239   9.880   9.662  10.950
43704W        W 3240   6.864  16.185  10.532
43705W        W 3241  20.181   4.874   4.682
43706W        W 3242  10.212  11.853   1.430
43707W        W 3243  44.812  40.392  11.500
43708W        W 3244  22.741  24.559  14.942
43709W        W 3245   8.680  32.396  10.927
43710W        W 3246  10.346  15.309  13.028
43711W        W 3247  40.907   7.872   3.855
43712W        W 3248  27.547   0.446  14.348
43713W        W 3249  17.779  41.043   2.778
43714W        W 3250  36.475   6.835  12.381
43715W        W 3251  38.072  11.839  14.950
43716W        W 3252  21.757  16.100  11.402
43717W        W 3253  35.459  17.569  10.560
43718W        W 3254   5.700  41.316   4.145
43719W        W 3255  41.903  35.060  10.113
43720W        W 3256   3.721  20.162   1.377
43721W        W 3257   3.846  29.023   2.391
43722W        W 3258  29.660  35.537   0.786
43723W        W 3259  34.994  16.287  13.425
43724W        W 3260  35.531  10.289  13.814
43725W        W 3261  19.599  26.055   2.263
43726W        W 3262  34.112  24.559   1.774
43727W        W 3263   0.339   2.949   4.822
43728W        W 3264   0.363  34.864  11.585
43729W        W 3265  43.361  27.012  14.331
43730W        W 3266  14.312  12.718  13.014
43731W        W 3267   7.370   7.871   1.733
43732W        W 3268  39.361  24.486   3.694
43733W        W 3269  37.565  44.485   5.149
43734W        W 3270  23.687   3.921   4.824
43735W        W 3271  28.165  19.715  13.512
43736W        W 3272  23.710  19.266  13.869
43737W        W 3273  20.272  16.124  12.059
43738W        W 3274  35.379  39.852  11.112
43739W        W 3275  25.102   5.244  13.835
43740W        W 3276  39.941  29.453   1.271
43741W        W 3277   8.297  11.806  10.893
43742W        W 3278  41.499  20.746  12.039
43743W        W 3279  17.164  27.083   1.696
43744W        W 3280  32.988  44.868   4.659
43745W        W 3281  22.648  15.198  10.917
43746W        W 3282  42.876   6.681  10.974
43747W        W 3283  20.270  21.653   2.689
43748W        W 3284  43.959  39.523   1.380
43749W        W 3285  26.203  20.195  12.341
43750W        W 3286  18.211  30.582  11.558
43751W        W 3287   1.747  40.881  13.877
43752W        W 3288  35.898  28.576   1.790
43753W        W 3289   0.767  16.310  11.954
43754W        W 3290   9.283  43.938  12.096
43755W        W 3291   1.933  10.864  14.315
43756W        W 3292   1.930   1.915  11.075
43757W        W 3293  31.045  43.931   4.769
43758W        W 3294  41.854  28.540   4.699
43759W        W 3295  35.497   4.818   3.812
43760W        W 3296  42.355  33.965  10.435
43761W        W 3297  33.132   0.475  14.900
43762W        W 3298  11.661   6.365   4.142
43763W        W 3299  44.489  37.036   4.735
43764W        W 3300   6.751  32.068  10.642
43765W        W 3301  27.680   0.305  12.979
43766W        W 3302   1.322  25.034  11.429
43767W        W 3303  13.152  13.227   1.842
43768W        W 3304  44.362   6.232  12.835
43769W        W 3305  32.481  31.100  13.360
43770W        W 3306  27.603  19.111  13.326
43771W        W 3307   6.844  43.918   3.266
43772W        W 3308  39.517  43.849  10.555
43773W        W 3309  16.640   9.740   0.361
43774W        W 3310  14.318  35.954  10.930
43775W        W 3311  43.284   5.350  12.392
43776W        W 3312  13.283  12.710   3.751
43777W        W 3313  42.860   5.925   4.331
43778W        W 3314  23.662  44.453   2.683
43779W        W 3315  16.710  41.413  11.540
43780W        W 3316  39.998   8.820  10.440
43781W        W 3317  35.393  12.700   3.667
43782W        W 3318  42.353  42.872   1.307
43783W        W 3319  36.062  12.122   3.804
43784W        W 3320  32.924  11.738  10.531
43785W        W 3321  38.824  42.895   5.223
43786W        W 3322  33.460  21.608  11.015
43787W        W 3323   8.215   0.910   3.839
43788W        W 3324  38.389  28.177   4.240
43789W        W 3325   6.859  32.957  12.985
43790W        W 3326  36.547   9.359   0.942
43791W        W 3327  24.643   5.272   2.827
43792W        W 3328  20.600  14.228   2.663
43793W        W 3329  13.700  39.385   2.253
43794W        W 3330  12.303   1.263  13.955
43795W        W 3331   6.876  14.326  11.380
43796W        W 3332  25.990  16.246  12.023
43797W        W 3333  20.605  37.530  10.977
43798W        W 3334  44.335   8.200  13.532
43799W        W 3335  37.368  24.076  11.018
43800W        W 3336  16.689   7.883  10.643
43801W        W 3337  16.216  31.011   0.849
43802W        W 3338  29.474  11.783  13.990
43803W        W 3339  12.162  16.179  10.535
43804W        W 3340  38.839   8.737  11.045
43805W        W 3341  23.206  14.804   1.250
43806W        W 3342   7.191  40.934   2.355
43807W        W 3343  40.399  23.608   3.383
43808W        W 3344   9.812  33.012   1.288
43809W        W 3345  20.229   5.828   4.806
43810W        W 3346  12.855  14.215  14.028
43811W        W 3347  18.701  18.084   3.805
43812W        W 3348   8.387  25.497   3.209
43813W        W 3349  41.938   2.728  11.050
43814W        W 3350  25.149  30.643   2.741
43815W        W 3351   3.948  24.539  14.012
43816W        W 3352   5.346  26.569   2.778
43817W        W 3353  34.472   4.424   2.294
43818W        W 3354   1.926  19.280  13.345
43819W        W 3355  25.486  14.129  10.933
43820W        W 3356   2.356  44.305  14.006
43821W        W 3357  30.617  19.265   2.789
43822W        W 3358  37.003  38.466   1.820
43823W        W 3359  28.977   3.362  11.431
43824W        W 3360  29.980  16.802   3.706
43825W        W 3361  10.773  34.902   4.758
43826W        W 3362   4.732  34.918   4.277
43827W        W 3363  35.443   9.347  12.542
43828W        W 3364  37.510   4.320   4.608
43829W        W 3365  20.644  24.642  10.553
43830W        W 3366  21.591  41.420   1.431
43831W        W 3367  30.554  25.602   3.377
43832W        W 3368  14.177   8.402   3.676
43833W        W 3369  42.341   5.876  10.947
43834W        W 3370  38.349  26.008   1.392
43835W        W 3371  30.977  28.552  11.980
43836W        W 3372  16.096   8.783  12.910
43837W        W 3373  37.831  10.340  13.396
43838W        W 3374  12.831  20.596   2.361
43839W        W 3375   3.757  41.953   0.288
43840W        W 3376  36.484  44.956  12.911
43841W        W 3377  33.934   6.768  11.373
43842W        W 3378  26.538  40.977  13.028
43843W        W 3379  44.297  14.195   3.358
43844W        W 3380  34.099  22.159  14.351
43845W        W 3381  34.466  41.437  14.982
43846W        W 3382  11.766  10.851  13.525
43847W        W 3383  42.382   9.169  11.060
43848W        W 3384  24.538   3.406   2.241
43849W        W 3385  38.453   0.446  12.542
43850W        W 3386  37.439  13.788  11.909
43851W        W 3387   1.962  17.655   1.379
43852W        W 3388  38.358  30.086   4.786
43853W        W 3389  17.281   2.748  10.511
43854W        W 3390   3.790  15.274   1.758
43855W        W 3391  27.141  35.903   1.712
43856W        W 3392  22.674  13.836  11.121
43857W        W 3393  11.238  42.868  14.909
43858W        W 3394   5.898  22.088  13.021
43859W        W 3395   2.912  25.483  14.321
43860W        W 3396  22.182  18.780  14.362
43861W        W 3397  27.005  11.827   2.381
43862W        W 3398  41.523  16.707   2.829
43863W        W 3399  20.633  33.514  14.902
43864W        W 3400  21.592  16.696  11.533
43865W        W 3401  30.619  20.253   0.382
43866W        W 3402   8.173  22.160   4.204
43867W        W 3403  41.336  27.476  13.857
43868W        W 3404  39.421  34.933   3.651
43869W        W 3405  42.353  13.808   1.392
43870W        W 3406  27.026  43.788   0.435
43871W        W 3407  17.139  33.430   0.938
43872W        W 3408  35.004  31.944  10.494
43873W        W 3409   9.840  41.936   2.856
43874W        W 3410  10.713  24.554  11.996
43875W        W 3411   9.884  34.997   0.786
43876W        W 3412  44.951  11.351  12.991
43877W        W 3413  13.118  35.067   1.779
43878W        W 3414  37.354  30.049   3.305
43879W        W 3415   3.457  20.085   0.926
43880W        W 3416  40.885   3.757  12.980
43881W        W 3417   4.916  20.227   1.718
43882W        W 3418   6.421  40.907   2.702
43883W        W 3419  40.488   1.859  13.907
43884W        W 3420  33.880  19.548  11.064
43885W        W 3421  30.110  33.970   1.749
43886W        W 3422  20.041  28.173  11.392
43887W        W 3423  38.473  24.149   1.304
43888W        W 3424  26.107   4.346  10.608
43889W        W 3425  40.412  20.681   2.236
43890W        W 3426  38.832  13.615   4.803
43891W        W 3427  43.792  44.946   0.264
43892W        W 3428  29.964   4.927   5.316
43893W        W 3429  22.522   4.714  14.976
43894W        W 3430  11.846  16.676   2.679
43895W        W 3431  31.939  15.609   0.890
43896W        W 3432  26.973  31.438  13.991
43897W        W 3433  24.089  40.965  12.433
43898W        W 3434   2.310  16.278   1.247
43899W        W 3435  21.217  13.693   4.275
43900W        W 3436  14.279   3.250  12.834
43901W        W 3437  22.686  19.246  14.957
43902W        W 3438  14.301  36.419  14.297
43903W        W 3439  37.551   7.826   1.915
43904W        W 3440  10.747   0.277  14.941
43905W        W 3441  34.456  25.572   0.407
43906W        W 3442   3.345  27.140  12.347
43907W        W 3443   7.867  36.452  11.559
43908W        W 3444  41.529  11.178   4.661
43909W        W 3445  33.031   2.353  14.924
43910W        W 3446  25.714   8.771  14.298
43911W        W 3447  28.116  15.693   2.291
43912W        W 3448  31.600   0.494   1.415
43913W        W 3449   7.271  13.607   2.662
43914W        W 3450  16.235  43.463   2.276
43915W        W 3451  39.939  31.101   2.835
43916W        W 3452  10.758   5.769   5.673
43917W        W 3453  27.094  20.678  13.390
43918W        W 3454  35.558  15.160  11.981
43919W        W 3455  36.350  29.488  13.976
43920W        W 3456  28.936   7.816   3.330
43921W        W 3457  44.322  36.006   5.245
43922W        W 3458  12.307  26.099   9.551
43923W        W 3459  23.497  40.512  10.138
43924W        W 3460  26.536  25.962   1.921
43925W        W 3461   0.300  14.317   3.699
43926W        W 3462   7.755   3.416   1.694
43927W        W 3463  18.789  18.556   5.128
43928W        W 3464  38.891   8.197   3.636
43929W        W 3465  23.571  17.743  12.526
43930W        W 3466   0.988  24.135   0.458
43931W        W 3467  13.836  31.010   0.904
43932W        W 3468  37.428  12.681   3.354
43933W        W 3469  27.030  30.133  12.374
43934W        W 3470   1.900  22.998   4.234
43935W        W 3471  27.170   2.961   4.117
43936W        W 3472   2.283  36.047   2.684
43937W        W 3473  33.395  41.531  13.877
43938W        W 3474  22.614  40.536  11.535
43939W        W 3475   6.854  10.226   3.337
43940W        W 3476  34.900  11.830   5.251
43941W        W 3477  28.511  19.699  14.763
43942W        W 3478  31.987  17.199   3.758
43943W        W 3479  40.316  18.755   0.890
43944W        W 3480  16.728   0.809  13.537
43945W        W 3481  30.038  10.875  13.928
43946W        W 3482  10.174  28.658   1.862
43947W        W 3483  30.530  10.267   3.731
43948W        W 3484  38.925   3.840  13.881
43949W        W 3485  25.026  36.507  14.319
43950W        W 3486  20.179  12.180  12.017
43951W        W 3487  40.889  43.416   2.751
43952W        W 3488  43.920  21.546   2.331
43953W        W 3489  15.182  44.921  10.411
43954W        W 3490   3.305   1.434   1.247
43955W        W 3491  22.225  16.585  12.353
43956W        W 3492  24.550  42.501   2.900
43957W        W 3493  38.934  18.591  11.438
43958W        W 3494  42.320  41.848   1.887
43959W        W 3495  14.300  43.876  14.363
43960W        W 3496  36.036  25.020   0.372
43961W        W 3497  33.875  15.238   1.307
43962W        W 3498  19.766   9.347   4.216
43963W        W 3499  37.497  38.828   4.352
43964W        W 3500  29.973   9.186   3.167
43965W        W 3501   1.432  13.658   3.228
43966W        W 3502  19.536  21.033   2.829
43967W        W 3503  10.797  38.962  12.409
43968W        W 3504   3.953  39.510   3.720
43969W        W 3505  35.476   2.345  10.975
43970W        W 3506  34.020  41.452  12.962
43971W        W 3507  15.596  39.500   0.794
43972W        W 3508  14.189  26.005  10.947
43973W        W 3509  23.519   5.337   1.753
43974W        W 3510  17.596  14.193  13.037
43975W        W 3511  10.208  21.066   0.483
43976W        W 3512  17.083   7.350   1.441
43977W        W 3513  23.610  13.114  11.449
43978W        W 3514  43.815  38.497   1.838
43979W        W 3515  20.108  26.190   3.708
43980W        W 3516  41.034  37.018  13.922
43981W        W 3517  25.550   2.870  13.803
43982W        W 3518   0.384  29.587   1.317
43983W        W 3519  44.994  33.459   4.687
43984W        W 3520  28.457  37.978   0.756
43985W        W 3521   4.441  30.112  12.096
43986W        W 3522  25.593  42.013  12.387
43987W        W 3523  12.649   8.166   3.278
43988W        W 3524  31.139  15.099  14.979
43989W        W 3525  32.512  14.766   4.749
43990W        W 3526  33.128   1.244   1.325
43991W        W 3527  20.616   1.330  14.377
43992W        W 3528  33.926  31.007   4.653
43993W        W 3529  29.449  29.524   4.616
43994W        W 3530  18.115  26.513   4.617
43995W        W 3531  43.341  15.663   1.295
43996W        W 3532  33.129   6.828   0.449
43997W        W 3533  39.050  32.590  11.384
43998W        W 3534  16.785  22.691   0.387
43999W        W 3535  35.401   9.703   1.860
44000W        W 3536  43.314  36.503   0.316
44001W        W 3537  27.617  18.222  14.865
44002W        W 3538  33.011  39.840  12.540
44003W        W 3539  15.650   3.262  13.520
44004W        W 3540  32.587  28.593  11.528
44005W        W 3541  31.638  25.153  13.038
44006W        W 3542   9.219  23.715  14.377
44007W        W 3543   6.754   4.302  13.006
44008W        W 3544  24.098   6.855   0.292
44009W        W 3545  25.096  41.378  14.341
44010W        W 3546  34.522  44.890   4.619
44011W        W 3547  28.091  25.187   4.665
44012W        W 3548  37.010  30.030   0.855
44013W        W 3549   5.934  33.914   2.265
44014W        W 3550  21.562   2.958   2.795
44015W        W 3551  26.168   6.408   1.701
44016W        W 3552  42.007  14.663  13.844
44017W        W 3553  14.668  37.436  12.027
44018W        W 3554  22.198  19.759  10.975
44019W        W 3555  16.584  18.562   4.749
44020W        W 3556  30.156  21.050   4.609
44021W        W 3557  35.964  41.387  11.382
44022W        W 3558  24.522  26.080  13.881
44023W        W 3559  39.840  36.553   0.314
44024W        W 3560  10.833  22.683   3.324
44025W        W 3561  27.008  30.446  13.826
44026W        W 3562  10.256  13.271   3.171
44027W        W 3563  10.801   3.946   2.272
44028W        W 3564  32.567   3.296   3.863
44029W        W 3565  13.682  15.177   3.669
44030W        W 3566  34.949  15.088  13.397
44031W        W 3567  33.561  11.308  14.992
44032W        W 3568   6.405  33.440   3.657
44033W        W 3569  43.909  24.722   0.746
44034W        W 3570   0.887  39.427  12.384
44035W        W 3571  19.681  39.897   0.837
44036W        W 3572  42.293   3.429   2.704
44037W        W 3573  24.631  25.032  11.065
44038W        W 3574   7.779  29.923   3.691
44039W        W 3575  10.347  30.142   0.379
44040W        W 3576  14.724  38.374   3.236
44041W        W 3577  22.007  25.043   2.386
44042W        W 3578  30.586  14.274   2.371
44043W        W 3579  30.440  21.665  14.349
44044W        W 3580  14.800  18.233   0.399
44045W        W 3581   7.186  23.611   2.238
44046W        W 3582  35.957  42.026   3.242
44047W        W 3583  20.254  15.191   1.906
44048W        W 3584  25.695  20.541  14.342
44049W        W 3585  13.253  13.324  10.479
44050W        W 3586  42.921  21.069   2.318
44051W        W 3587   5.326   8.788   1.335
44052W        W 3588  30.413  34.564  12.909
44053W        W 3589  19.284  32.973  11.608
44054W        W 3590  21.134   6.885  11.602
44055W        W 3591  34.564  39.836  13.029
44056W        W 3592  17.069  22.573  11.918
44057W        W 3593  20.133  42.507  13.979
44058W        W 3594  29.442  13.243  11.077
44059W        W 3595  35.906  44.277  13.537
44060W        W 3596   4.227   4.884  10.938
44061W        W 3597  44.423  32.120   1.330
44062W        W 3598  28.130  19.069  10.127
44063W        W 3599  17.578  35.056   4.619
44064W        W 3600  21.184   9.784  13.391
44065W        W 3601  27.499  11.725   3.252
44066W        W 3602  25.110   1.830   1.872
44067W        W 3603  15.581  13.272  14.511
44068W        W 3604  35.908  40.487   4.114
44069W        W 3605  29.517   5.224   2.679
44070W        W 3606   8.710  17.133  12.847
44071W        W 3607  25.545  22.683   1.858
44072W        W 3608  14.696  33.522  13.356
44073W        W 3609  34.992   0.335   5.120
44074W        W 3610   9.810  29.076   2.376
44075W        W 3611  42.935  28.968  13.360
44076W        W 3612   6.726   3.399  14.337
44077W        W 3613  22.747   1.911   4.835
44078W        W 3614  12.835  21.531  14.787
44079W        W 3615   8.770  16.569  12.937
44080W        W 3616  40.500   6.411   4.611
44081W        W 3617  37.470  26.035   3.208
44082W        W 3618   5.300  30.931  10.929
44083W        W 3619  25.512   2.893   0.436
44084W        W 3620   5.790  16.162  12.024
44085W        W 3621  10.852  15.301   2.710
44086W        W 3622  39.395  44.006  12.547
44087W        W 3623  31.407  27.674   2.841
44088W        W 3624  19.550  39.417  14.835
44089W        W 3625  31.591  28.474  13.395
44090W        W 3626  24.532  41.403  10.975
44091W        W 3627  29.957  11.299  10.466
44092W        W 3628   5.265  35.080   3.789
44093W        W 3629  15.148  33.058   0.376
44094W        W 3630   2.391  27.953  13.981
44095W        W 3631  19.671  43.017   1.236
44096W        W 3632   1.861  28.009  14.832
44097W        W 3633   7.393   9.176   3.631
44098W        W 3634  38.890  14.641  13.987
44099W        W 3635  17.676  14.302  10.958
44100W        W 3636  35.038  38.350  13.491
44101W        W 3637  11.264  27.607   0.802
44102W        W 3638  35.369  11.735   2.844
44103W        W 3639  25.712   1.892   3.190
44104W        W 3640  28.180  14.329   2.235
44105W        W 3641  12.833   5.292  13.532
44106W        W 3642   8.324  25.499   4.261
44107W        W 3643  44.871  35.040   2.222
44108W        W 3644  22.187  25.107  12.067
44109W        W 3645  11.252  12.197   3.772
44110W        W 3646   7.387  19.064  13.844
44111W        W 3647  36.055  11.246  13.044
44112W        W 3648   4.213  27.977   3.684
44113W        W 3649  19.185  35.542   2.792
44114W        W 3650  24.976  22.014  12.897
44115W        W 3651  18.659   0.761  11.967
44116W        W 3652  43.000  20.215  13.451
44117W        W 3653  35.953  29.168  11.445
44118W        W 3654  43.979  17.224  14.771
44119W        W 3655  15.223  42.791  12.418
44120W        W 3656  10.864  31.512   1.894
44121W        W 3657  28.177  34.558   3.870
44122W        W 3658  13.164   0.877  10.567
44123W        W 3659  29.148   9.841  14.455
44124W        W 3660  27.540   9.165  12.897
44125W        W 3661  19.040  28.486  11.540
44126W        W 3662  44.341  11.235   3.789
44127W        W 3663  35.592  36.070  14.855
44128W        W 3664  37.521  22.242   3.309
44129W        W 3665   2.329  39.484  13.895
44130W        W 3666  37.558  35.003  13.939
44131W        W 3667   6.361  29.164   4.328
44132W        W 3668  13.109   6.776  13.061
44133W        W 3669  32.625  34.590   2.841
44134W        W 3670  21.262   4.226  12.507
44135W        W 3671  33.972  22.128  12.451
44136W        W 3672   3.273   9.325   0.881
44137W        W 3673  19.663  26.479   2.686
44138W        W 3674  15.589  37.071   3.363
44139W        W 3675  14.158  18.206   2.875
44140W        W 3676   2.892  20.265   2.757
44141W        W 3677  12.268  42.436   1.381
44142W        W 3678  23.663   8.775   0.451
44143W        W 3679   7.194  25.522  14.474
44144W        W 3680  15.691  37.866  14.930
44145W        W 3681   9.715   8.884   0.426
44146W        W 3682  31.640  30.911   2.859
44147W        W 3683  31.470   3.300   1.246
44148W        W 3684  15.236  30.572  14.849
44149W        W 3685  33.437  19.048   0.271
44150W        W 3686  36.043  33.413   2.885
44151W        W 3687  11.152  19.090  12.001
44152W        W 3688  42.514   2.789  14.810
44153W        W 3689  37.039  11.279  14.464
44154W        W 3690  40.798  28.587   4.343
44155W        W 3691  14.804  34.904   1.387
44156W        W 3692  34.593  10.847   0.436
44157W        W 3693  24.210  27.193   2.826
44158W        W 3694  23.663  13.795  11.013
44159W        W 3695  26.104  28.941   0.916
44160W        W 3696  34.869  19.098  10.516
44161W        W 3697  25.471  14.225   0.264
44162W        W 3698  38.534  38.058   3.220
44163W        W 3699  36.515  29.955  14.011
44164W        W 3700  40.549  34.552  13.861
44165W        W 3701  22.520  43.302  12.396
44166W        W 3702   6.796  13.738  13.791
44167W        W 3703  20.582  16.737   1.782
44168W        W 3704   8.308  23.011   0.752
44169W        W 3705   3.266  38.548  11.571
44170W        W 3706   7.207  23.053  14.334
44171W        W 3707  40.851  29.462  13.002
44172W        W 3708   8.406  23.533   3.189
44173W        W 3709  24.073  40.444  12.522
44174W        W 3710   5.358   5.354  14.871
44175W        W 3711  29.925   4.782  11.907
44176W        W 3712  23.238  42.957   5.317
44177W        W 3713  14.776  11.824   0.808
44178W        W 3714  10.644  13.763  14.319
44179W        W 3715  12.362   7.767  12.944
44180W        W 3716  37.926   0.287  11.519
44181W        W 3717  26.135  38.560   3.838
44182W        W 3718  41.470  15.127  11.590
44183W        W 3719  44.475  13.300   0.796
44184W        W 3720  35.975  12.180  13.007
44185W        W 3721  33.100  19.765   4.715
44186W        W 3722  32.482  31.917   0.953
44187W        W 3723  40.985  28.514  14.896
44188W        W 3724  44.495  33.967   2.260
44189W        W 3725  19.711   1.756  11.869
44190W        W 3726  44.777   7.378   3.373
44191W        W 3727  19.246  36.952  11.607
44192W        W 3728   5.310   1.953  11.597
44193W        W 3729   6.390   7.670   4.240
44194W        W 3730  36.963   2.429  14.443
44195W        W 3731   6.922  37.546   4.204
44196W        W 3732  26.064  24.195   0.483
44197W        W 3733  42.363  28.044  14.308
44198W        W 3734   7.218   7.707   0.739
44199W        W 3735  39.812  20.156   4.118
44200W        W 3736   8.191  44.860  11.395
44201W        W 3737  18.152  31.561  12.919
44202W        W 3738  26.596   2.742   1.737
44203W        W 3739  14.332  12.273   0.258
44204W        W 3740   2.440   9.674   0.436
44205W        W 3741  43.921  34.531   3.344
44206W        W 3742  36.534  18.218   1.920
44207W        W 3743  41.515  36.540   2.862
44208W        W 3744  33.415  17.148   4.115
44209W        W 3745   1.331   7.194   1.797
44210W        W 3746  20.193  24.512   3.788
44211W        W 3747  28.630   0.326   1.335
44212W        W 3748  39.941  20.768   1.726
44213W        W 3749  33.955  13.188   4.794
44214W        W 3750  29.622  34.550  12.065
44215W        W 3751  27.193  18.697  12.067
44216W        W 3752   7.856  42.973  13.036
44217W        W 3753  43.977  12.798  14.967
44218W        W 3754  22.120  10.288  14.779
44219W        W 3755   5.378   0.827  14.995
44220W        W 3756  34.073  42.949  11.472
44221W        W 3757  19.221  22.230  13.324
44222W        W 3758  41.302  11.672  11.452
44223W        W 3759  39.947  31.441  11.463
44224W        W 3760   6.252  43.912   4.625
44225W        W 3761  26.520  18.580   2.363
44226W        W 3762  17.659  15.093  11.533
44227W        W 3763   4.284  19.082  11.459
44228W        W 3764   0.791  30.074   4.724
44229W        W 3765  21.212  27.595  14.425
44230W        W 3766  21.121  36.070  14.936
44231W        W 3767   1.483  31.606  13.932
44232W        W 3768   9.862  26.203   4.132
44233W        W 3769  27.151   4.290   3.304
44234W        W 3770  39.851  10.648   2.202
44235W        W 3771   9.799  35.094   3.798
44236W        W 3772  12.225  40.802   1.245
44237W        W 3773  15.589  34.047   0.339
44238W        W 3774  19.197  32.998   2.787
44239W        W 3775  32.595  44.916  12.387
44240W        W 3776  36.056  31.447   3.369
44241W        W 3777  20.672  14.796  13.526
44242W        W 3778  29.667   1.403   3.215
44243W        W 3779  34.925  17.718   2.703
44244W        W 3780  23.557   6.710  13.822
44245W        W 3781   4.211   4.211   0.944
44246W        W 3782  34.922  24.009   1.923
44247W        W 3783  26.654  37.372  13.904
44248W        W 3784  37.498  26.101  10.539
44249W        W 3785  31.061   6.324   4.613
44250W        W 3786  21.256   6.223   2.750
44251W        W 3787  11.832  38.056   1.858
44252W        W 3788  36.416  23.027  12.909
44253W        W 3789   1.894   0.748   4.763
44254W        W 3790  26.159  12.634   3.326
44255W        W 3791  43.879  27.505  14.474
44256W        W 3792  21.619  34.592  10.973
44257W        W 3793  18.620   7.766  13.834
44258W        W 3794  35.495  25.681   3.653
44259W        W 3795  19.774  34.116  11.413
44260W        W 3796   0.795  32.449   3.232
44261W        W 3797  17.246  17.717   3.843
44262W        W 3798   5.785  12.277   3.251
44263W        W 3799  23.605  14.162  11.948
44264W        W 3800  15.317  14.744  10.608
44265W        W 3801  20.551   8.862   0.277
44266W        W 3802   7.279  27.153  13.512
44267W        W 3803  27.657   3.899   1.318
44268W        W 3804  13.231  10.798   2.857
44269W        W 3805  41.309   6.362  11.383
44270W        W 3806  39.934  23.104  11.479
44271W        W 3807  32.916  32.012   4.598
44272W        W 3808  12.786  37.847  11.962
44273W        W 3809  12.691   9.846  13.943
44274W        W 3810  44.841  25.068   3.827
44275W        W 3811   4.398  13.127   3.854
44276W        W 3812  30.576  36.391   3.855
44277W        W 3813   0.779   2.441   4.816
44278W        W 3814  16.127  27.101   0.761
44279W        W 3815   9.719  39.482  11.527
44280W        W 3816  26.994  30.486   4.323
44281W        W 3817   2.453  43.834   1.890
44282W        W 3818  29.166  40.358   3.753
44283W        W 3819  38.849  38.831  11.930
44284W        W 3820  28.645   4.236   2.308
44285W        W 3821  28.517   0.259  14.375
44286W        W 3822   0.838  33.916  14.887
44287W        W 3823  14.325  29.667  12.560
44288W        W 3824  23.544  39.838  13.412
44289W        W 3825  13.636   7.742   1.750
44290W        W 3826  41.433  30.067   2.368
44291W        W 3827  21.177   2.356  14.452
44292W        W 3828  21.736   8.771  11.099
44293W        W 3829  16.623  34.375  13.917
44294W        W 3830  28.616   8.891   4.612
44295W        W 3831  24.049  22.544   3.362
44296W        W 3832  20.733  42.971   0.474
44297W        W 3833   6.727  15.281  14.853
44298W        W 3834  11.135  20.238  10.897
44299W        W 3835  41.377   0.334   0.357
44300W        W 3836   1.848  17.179  13.037
44301W        W 3837  36.900  10.261   0.307
44302W        W 3838  32.477  41.039   4.271
44303W        W 3839  39.451  13.656   2.875
44304W        W 3840  26.561  33.071  12.389
44305W        W 3841  20.217   4.856   2.767
44306W        W 3842  29.634  29.000  13.002
44307W        W 3843  36.980   3.415   9.589
44308W        W 3844  30.469  12.118  14.909
44309W        W 3845  10.749   4.719   4.253
44310W        W 3846  38.973  27.166  12.077
44311W        W 3847  29.147   5.902  11.438
44312W        W 3848  39.438   4.841   1.857
44313W        W 3849  33.946   6.213   1.394
44314W        W 3850  16.180  13.649  13.890
44315W        W 3851  17.111  16.152   0.806
44316W        W 3852  29.146  27.504  10.925
44317W        W 3853   9.865  21.679  14.349
44318W        W 3854  31.569  18.158  12.831
44319W        W 3855  12.612  16.721   2.811
44320W        W 3856  23.118  38.904   2.786
44321W        W 3857  29.009  29.991  10.520
44322W        W 3858   6.847  25.555  12.528
44323W        W 3859  12.269  43.503  13.928
44324W        W 3860   1.353   7.205   0.450
44325W        W 3861   7.823  43.289  12.550
44326W        W 3862   7.679  43.985  13.897
44327W        W 3863  25.026  27.110  12.460
44328W        W 3864  17.156  10.347  10.943
44329W        W 3865   9.356   0.341  10.622
44330W        W 3866  23.146  15.773   2.749
44331W        W 3867  17.076  34.517   0.474
44332W        W 3868  13.650  20.194  11.374
44333W        W 3869  17.168  44.989   0.435
44334W        W 3870  38.456  30.921  10.556
44335W        W 3871  18.195  31.015  14.937
44336W        W 3872  15.213   6.225   3.321
44337W        W 3873  25.168  29.161   4.268
44338W        W 3874  24.088   9.360   3.200
44339W        W 3875  28.450  25.987  14.297
44340W        W 3876  16.178  21.038   0.850
44341W        W 3877  10.250  16.635   0.863
44342W        W 3878  38.948   0.811   3.741
44343W        W 3879   8.792  13.338  10.528
44344W        W 3880  27.973  10.732  14.938
44345W        W 3881   1.300   5.384   1.921
44346W        W 3882  44.473  28.640   4.831
44347W        W 3883  22.020   4.818   0.941
44348W        W 3884  34.948  22.233   3.810
44349W        W 3885   2.357  44.768  12.547
44350W        W 3886   4.825  42.831   1.732
44351W        W 3887  31.521  32.633  10.507
44352W        W 3888  12.792  23.495  13.047
44353W        W 3889  21.645   5.299   2.792
44354W        W 3890  14.722   2.864   2.338
44355W        W 3891  44.405  40.802   2.384
44356W        W 3892   5.212  34.487   1.758
44357W        W 3893  11.187  12.706   1.299
44358W        W 3894  44.353  10.878   1.882
44359W        W 3895  20.178  15.224   2.866
44360W        W 3896  41.034  32.522   1.360
44361W        W 3897   4.918   8.378  10.589
44362W        W 3898  11.194  25.993  12.403
44363W        W 3899   2.272   0.832   1.894
44364W        W 3900   5.387  14.832   2.821
44365W        W 3901  40.492  29.554  14.351
44366W        W 3902   5.218   2.417   4.272
44367W        W 3903   5.743  26.011   2.373
44368W        W 3904  42.385  22.624   1.862
44369W        W 3905   8.322  20.638   1.263
44370W        W 3906  42.431  19.757  11.903
44371W        W 3907  11.752  11.308  10.550
44372W        W 3908  20.261  15.813  10.159
44373W        W 3909   0.265  37.001   1.390
44374W        W 3910  16.318  17.283   0.258
44375W        W 3911  26.499  33.534  13.994
44376W        W 3912  34.495  18.719   2.249
44377W        W 3913  24.174  26.158  14.914
44378W        W 3914  33.957  11.698  10.428
44379W        W 3915  37.082  15.772  14.805
44380W        W 3916   9.293  11.752   0.377
44381W        W 3917  14.829  41.950  12.965
44382W        W 3918  32.069  10.692  12.014
44383W        W 3919  12.829  18.760  14.935
44384W        W 3920   9.808  18.768  11.443
44385W        W 3921   2.262  18.587   3.802
44386W        W 3922  32.431  11.218   0.948
44387W        W 3923  19.677  25.130   4.196
44388W        W 3924  15.176  40.303  12.022
44389W        W 3925  41.425   6.827   2.198
44390W        W 3926  42.897   0.261   2.859
44391W        W 3927   6.426  27.618   0.423
44392W        W 3928  44.832  30.106   4.146
44393W        W 3929   3.926  18.588   3.335
44394W        W 3930   1.238  29.129  11.916
44395W        W 3931   8.236   6.779  12.094
44396W        W 3932   5.350  42.786  11.953
44397W        W 3933  20.709   1.802  12.391
44398W        W 3934  24.107  24.197  14.808
44399W        W 3935  15.585   7.240   2.865
44400W        W 3936   3.915  29.524   4.642
44401W        W 3937   8.174  25.176   2.249
44402W        W 3938  19.769  24.167  14.459
44403W        W 3939  19.259  11.171   4.328
44404W        W 3940  39.435  32.071   2.879
44405W        W 3941  22.144  29.592  12.951
44406W        W 3942   0.358  41.331  12.090
44407W        W 3943  43.938  24.604   2.288
44408W        W 3944  40.949  38.848  13.389
44409W        W 3945  16.611  36.095  11.574
44410W        W 3946   2.239  24.215   1.696
44411W        W 3947  34.611  18.182   4.163
44412W        W 3948  27.473  33.092   2.293
44413W        W 3949  35.443  32.459  11.454
44414W        W 3950  14.604  27.190  10.998
44415W        W 3951   7.371   9.183   1.856
44416W        W 3952  30.516  35.549   2.687
44417W        W 3953  16.649  34.526   0.932
44418W        W 3954  25.134  13.634  10.477
44419W        W 3955   0.892  35.873   4.615
44420W        W 3956  28.171   7.676   1.814
44421W        W 3957  40.019  15.794  13.453
44422W        W 3958   8.240  24.210   9.523
44423W        W 3959  43.310  24.632   3.312
44424W        W 3960  38.871  32.955  14.398
44425W        W 3961  34.002  26.617   2.682
44426W        W 3962  23.705  28.080  13.907
44427W        W 3963  20.588   3.313   1.342
44428W        W 3964  39.541  35.491   2.738
44429W        W 3965   7.263  25.025  14.352
44430W        W 3966   5.229  21.740  14.279
44431W        W 3967   0.254  16.095   4.335
44432W        W 3968  37.539  11.340   2.399
44433W        W 3969   5.391  34.933  12.455
44434W        W 3970   4.941  11.641   5.265
44435W        W 3971  44.419  28.945  13.996
44436W        W 3972  43.481  39.987  14.389
44437W        W 3973   9.700  11.299  11.883
44438W        W 3974  36.029  23.090  13.503
44439W        W 3975  29.549  16.144   3.188
44440W        W 3976   1.374  22.110   1.435
44441W        W 3977  30.621   3.321  12.928
44442W        W 3978  29.993  20.054   3.682
44443W        W 3979  38.451  31.041   2.780
44444W        W 3980   5.851  27.967  14.965
44445W        W 3981  23.693  32.016   0.284
44446W        W 3982  14.228  27.634   3.660
44447W        W 3983  17.197   7.737  12.391
44448W        W 3984  29.023   6.722  12.476
44449W        W 3985   7.263  43.383   1.705
44450W        W 3986   4.391  35.386  12.840
44451W        W 3987  10.727  17.134  14.961
44452W        W 3988  36.944  30.564  14.386
44453W        W 3989  19.228  16.097   1.827
44454W        W 3990  22.526   3.410  10.143
44455W        W 3991   9.190  27.971   2.264
44456W        W 3992  35.983  17.583  11.118
44457W        W 3993  42.917   6.295   5.161
44458W        W 3994   4.354  33.422   1.307
44459W        W 3995  43.278  12.780   1.311
44460W        W 3996   3.293   2.746   0.275
44461W        W 3997  28.640  39.983   1.229
44462W        W 3998  13.248  36.588  12.457
44463W        W 3999  43.455   4.822   4.669
44464W        W 4000  15.806  15.157   2.816
44465W        W 4001  21.684  23.686   2.664
44466W        W 4002   1.812  36.565   2.840
44467W        W 4003  44.935  22.077   1.858
44468W        W 4004   5.399  13.343  13.484
44469W        W 4005  39.314   9.192   4.698
44470W        W 4006  32.985  39.995  10.553
44471W        W 4007  43.954  35.101  11.475
44472W        W 4008  23.132  12.642  12.559
44473W        W 4009  19.763  15.114  13.324
44474W        W 4010  14.736  12.827   2.891
44475W        W 4011   6.390  31.905   5.248
44476W        W 4012  33.457  35.935  14.788
44477W        W 4013  33.501  41.355   0.766
44478W        W 4014  36.997   2.369   0.475
44479W        W 4015  44.413  11.739   0.958
44480W        W 4016  42.853   6.780  12.054
44481W        W 4017  42.948  35.958  14.962
44482W        W 4018  21.589  30.929   4.681
44483W        W 4019  42.342  28.966  13.799
44484W        W 4020  37.514   9.665  11.015
44485W        W 4021  23.715  38.013  12.905
44486W        W 4022  38.883  43.297  12.027
44487W        W 4023  25.565   1.866  11.027
44488W        W 4024  36.524   2.954   1.304
44489W        W 4025  16.244   7.206  11.118
44490W        W 4026   8.299  12.344  13.883
44491W        W 4027  44.335   6.344  14.887
44492W        W 4028  20.641   4.392   1.222
44493W        W 4029  18.573  12.303   2.808
44494W        W 4030  27.687  27.066  12.519
44495W        W 4031   3.363   8.370   1.237
44496W        W 4032  41.293  16.194   3.267
44497W        W 4033  40.431  42.413  11.119
44498W        W 4034   5.231   7.726  12.520
44499W        W 4035  11.242   5.905   1.229
44500W        W 4036   6.859  11.746   3.835
44501W        W 4037   5.395  38.826  11.104
44502W        W 4038   6.414   0.933   4.135
44503W        W 4039  14.603   8.330  13.462
44504W        W 4040  38.833  10.651  13.857
44505W        W 4041  19.568   9.676   9.928
44506W        W 4042  20.760  28.042   1.248
44507W        W 4043   5.880  31.638   1.857
44508W        W 4044   6.774  16.217  13.338
44509W        W 4045  40.887  26.988  11.006
44510W        W 4046   2.818  39.329   4.635
44511W        W 4047   7.696  33.421   2.383
44512W        W 4048  15.245  13.677  13.990
44513W        W 4049  43.391  40.305  11.569
44514W        W 4050  41.971  17.267  14.900
44515W        W 4051  23.231  16.695   3.285
44516W        W 4052  20.654  43.272  12.884
44517W        W 4053  29.105  31.519  14.366
44518W        W 4054  34.083  36.893  11.862
44519W        W 4055  21.189  15.299  13.002
44520W        W 4056  37.845  27.108   2.194
44521W        W 4057  24.113  24.696   3.651
44522W        W 4058  43.843  27.077  11.499
44523W        W 4059  13.179   5.748   3.687
44524W        W 4060  33.011  27.070   2.254
44525W        W 4061  38.529  16.782  10.968
44526W        W 4062  28.437   6.331   4.696
44527W        W 4063  32.615   9.818   3.181
44528W        W 4064  22.241  25.994   2.750
44529W        W 4065  38.974  36.418  14.443
44530W        W 4066  28.038  40.986  13.509
44531W        W 4067  14.743  37.047  11.970
44532W        W 4068   0.479  37.564   0.243
44533W        W 4069  39.342   9.879  12.897
44534W        W 4070  21.642  22.575  11.034
44535W        W 4071  43.377  26.053   1.846
44536W        W 4072  39.980  22.111   2.385
44537W        W 4073  39.982  10.872  10.570
44538W        W 4074  26.462  13.675  13.988
44539W        W 4075  21.210   9.304   2.820
44540W        W 4076   5.811  39.341   4.213
44541W        W 4077   8.225  37.078  12.548
44542W        W 4078  17.092   2.834   3.697
44543W        W 4079   2.773   9.830   3.706
44544W        W 4080   1.454   5.739   2.349
44545W        W 4081  19.538   4.738   4.280
44546W        W 4082   4.322   9.717   1.778
44547W        W 4083  34.890   6.918   2.673
44548W        W 4084  42.372  10.175  13.952
44549W        W 4085  35.602  39.033   2.753
44550W        W 4086  11.178  35.526  12.059
44551W        W 4087   0.446  20.231  13.046
44552W        W 4088  32.894   3.878   2.885
44553W        W 4089  14.598  27.028  11.593
44554W        W 4090   3.288   1.295   0.433
44555W        W 4091   6.763   0.773   3.362
44556W        W 4092  18.692  26.980   0.787
44557W        W 4093   3.911   7.843  12.458
44558W        W 4094  15.279  27.114   2.695
44559W        W 4095  44.852   1.834  12.569
44560W        W 4096  23.038   0.460  12.371
44561W        W 4097  33.560  20.149  13.360
44562W        W 4098  20.116  36.503  13.501
44563W        W 4099   1.381  16.102   1.421
44564W        W 4100  26.626  30.000  14.919
44565W        W 4101  28.559  21.599  13.996
44566W        W 4102   6.712   8.840   2.750
44567W        W 4103   5.313  19.095   1.378
44568W        W 4104   3.330  33.049  13.479
44569W        W 4105   1.891  11.246  11.931
44570W        W 4106  12.779   8.683  12.840
44571W        W 4107  29.540  36.043  10.429
44572W        W 4108  35.560  32.978  10.555
44573W        W 4109   4.848  30.619   1.813
44574W        W 4110  18.175  28.442  12.878
44575W        W 4111  12.196  28.444  14.869
44576W        W 4112  30.448  20.726  12.082
44577W        W 4113  26.023   6.851   3.378
44578W        W 4114  19.205  13.340  11.542
44579W        W 4115  14.295  10.311   0.302
44580W        W 4116  32.946   1.758   3.859
44581W        W 4117   0.382   9.346   3.711
44582W        W 4118  21.257   7.391  14.402
44583W        W 4119   5.255  25.673  14.932
44584W        W 4120  30.069  28.476  14.778
44585W        W 4121   1.350  15.628   1.864
44586W        W 4122  40.376  10.354   4.295
44587W        W 4123  30.001  32.611   0.730
44588W        W 4124  15.823  33.983  11.121
44589W        W 4125  30.553  20.159  13.512
44590W        W 4126  22.009  31.021   1.731
44591W        W 4127  12.760  31.538   3.281
44592W        W 4128  33.942   3.281   5.268
44593W        W 4129  16.700  36.876   0.894
44594W        W 4130  28.604  31.557  13.923
44595W        W 4131  11.836   9.238   3.659
44596W        W 4132  28.451  25.678   1.882
44597W        W 4133  33.555  37.372  14.821
44598W        W 4134   5.894  16.194   0.367
44599W        W 4135  29.658  31.036  12.831
44600W        W 4136  10.689  19.239   2.178
44601W        W 4137  19.604  43.341  12.867
44602W        W 4138  40.528  11.795   1.923
44603W        W 4139  31.103  24.221   2.761
44604W        W 4140   1.830  28.059  14.494
44605W        W 4141  34.536  13.152  13.314
44606W        W 4142  35.429  13.201  11.969
44607W        W 4143  43.438  34.981  13.871
44608W        W 4144  32.564   8.375  14.962
44609W        W 4145  18.600  26.690  13.977
44610W        W 4146   3.821  23.187   0.748
44611W        W 4147  22.677  35.358  11.891
44612W        W 4148  24.148  38.943  11.505
44613W        W 4149  14.773  24.571  13.314
44614W        W 4150  24.678  14.233  13.463
44615W        W 4151  30.471  23.058   3.724
44616W        W 4152  39.948  43.485   1.866
44617W        W 4153  31.499  20.208  14.452
44618W        W 4154  20.548  17.765   2.759
44619W        W 4155  32.956   1.876  13.505
44620W        W 4156   4.804  11.865  14.979
44621W        W 4157  33.399  44.871   9.978
44622W        W 4158   1.388  35.100  11.055
44623W        W 4159   0.857  15.279   5.694
44624W        W 4160  37.021  17.299   1.240
44625W        W 4161  20.720  32.962   4.309
44626W        W 4162  15.259  21.139   1.377
44627W        W 4163  23.008  15.604  11.961
44628W        W 4164  36.588  35.957   0.897
44629W        W 4165  33.565  15.739  13.848
44630W        W 4166  14.135  18.062  10.932
44631W        W 4167   8.891  39.405   3.258
44632W        W 4168  37.341  17.777   4.748
44633W        W 4169  23.003  37.482   9.979
44634W        W 4170  33.488  30.088  12.474
44635W        W 4171  18.589  27.628  10.903
44636W        W 4172  44.991  12.764  14.334
44637W        W 4173   0.326  14.188  11.076
44638W        W 4174  37.012  34.115   2.253
44639W        W 4175  35.903  29.536   3.630
44640W        W 4176   5.895  18.550  14.927
44641W        W 4177  22.057  28.956  11.946
44642W        W 4178  39.993  19.221   3.296
44643W        W 4179   5.710  15.812  12.513
44644W        W 4180  32.464   2.450   3.662
44645W        W 4181  33.613  43.891   2.693
44646W        W 4182  23.679  37.960  11.116
44647W        W 4183  38.516  33.538  13.062
44648W        W 4184  24.974   1.786  10.544
44649W        W 4185  44.288  27.127   3.746
44650W        W 4186  35.109  31.626   1.243
44651W        W 4187  33.533  14.235  10.584
44652W        W 4188  25.578   2.362  12.496
44653W        W 4189  27.653   8.722  13.373
44654W        W 4190  38.457  42.479  11.886
44655W        W 4191   3.772  36.094   4.308
44656W        W 4192   0.862  42.405   0.845
44657W        W 4193  31.640  36.553   1.397
44658W        W 4194  16.654  13.152  10.608
44659W        W 4195  34.563  35.534  12.923
44660W        W 4196   9.651  29.055   1.399
44661W        W 4197  28.650  22.546   4.805
44662W        W 4198  31.949   3.380  13.540
44663W        W 4199  44.483  29.002   0.903
44664W        W 4200  27.680  27.613   2.823
44665W        W 4201  31.593  43.867   2.318
44666W        W 4202  37.462   5.826  12.492
44667W        W 4203  39.059  41.513  12.020
44668W        W 4204  20.720  15.148   0.800
44669W        W 4205  41.882  44.450   3.148
44670W        W 4206  20.181  17.612  10.020
44671W        W 4207  19.110   4.739  13.538
44672W        W 4208   4.379  25.499  13.001
44673W        W 4209  31.472   9.159   3.346
44674W        W 4210  33.904   8.304   3.213
44675W        W 4211  15.171   0.454   1.417
44676W        W 4212  31.609  10.296  11.469
44677W        W 4213  17.757   6.233  11.564
44678W        W 4214   7.352  18.550   2.269
44679W        W 4215   8.349  10.841  13.967
44680W        W 4216   3.352  18.219   0.292
44681W        W 4217   2.907  27.599   9.530
44682W        W 4218   5.894  19.714  11.469
44683W        W 4219  42.991  15.782   3.340
44684W        W 4220   2.874  35.385   2.308
44685W        W 4221  23.037   7.796   2.732
44686W        W 4222  27.066  15.148  11.559
44687W        W 4223   6.422   2.721   0.311
44688W        W 4224  38.023  42.443   4.233
44689W        W 4225  18.082  18.646  14.368
44690W        W 4226  40.316  28.995   3.256
44691W        W 4227  10.370  24.716  10.552
44692W        W 4228   6.382  31.436  10.605
44693W        W 4229  38.005  31.939  13.876
44694W        W 4230  22.506   3.253   0.858
44695W        W 4231  26.600  13.163   2.811
44696W        W 4232  28.044   3.364  14.285
44697W        W 4233  35.477  40.956  12.913
44698W        W 4234  35.870  32.987   4.324
44699W        W 4235  36.582   2.787  14.888
44700W        W 4236  24.523   7.226   2.758
44701W        W 4237  27.462  14.132   2.255
44702W        W 4238  37.442   5.223  14.313
44703W        W 4239  35.516  40.976  14.835
44704W        W 4240   5.764  18.103   1.802
44705W        W 4241  28.178  31.136   2.768
44706W        W 4242  13.722  34.031  14.900
44707W        W 4243  30.552  33.455   0.876
44708W        W 4244   1.902  43.465   0.767
44709W        W 4245   0.863  32.027  11.378
44710W        W 4246  44.268  39.050  14.022
44711W        W 4247  37.407  40.867  11.385
44712W        W 4248  36.378  12.232  13.870
44713W        W 4249  36.865  30.934  11.882
44714W        W 4250   8.171   4.722   0.297
44715W        W 4251  40.382  34.399   0.435
44716W        W 4252  24.047   8.270   2.728
44717W        W 4253  11.160   5.928   5.205
44718W        W 4254  37.433  39.955  12.514
44719W        W 4255  27.540  18.700   0.354
44720W        W 4256  27.631  41.435   4.232
44721W        W 4257  23.131  37.433  14.003
44722W        W 4258  23.675   4.818  13.912
44723W        W 4259  27.463  11.183   0.432
44724W        W 4260  41.393  18.759   2.792
44725W        W 4261  32.941  32.906   3.250
44726W        W 4262  15.813  14.208  11.950
44727W        W 4263   6.409   5.918  12.493
44728W        W 4264  10.785  29.596  14.004
44729W        W 4265  17.228  32.499   2.743
44730W        W 4266  35.509  22.533  11.603
44731W        W 4267  41.800  41.001   2.215
44732W        W 4268  30.942  26.638   1.408
44733W        W 4269   5.323  34.047   3.726
44734W        W 4270  36.998  42.433   0.881
44735W        W 4271  31.108   2.420   1.447
44736W        W 4272  37.843  30.616   4.673
44737W        W 4273  41.808  27.002   2.389
44738W        W 4274   8.317  29.583  13.926
44739W        W 4275  27.670  15.168   0.301
44740W        W 4276  38.475   6.346   1.362
44741W        W 4277   6.375  11.705   2.834
44742W        W 4278  29.031  25.558   2.413
44743W        W 4279  22.500  30.462   1.842
44744W        W 4280  31.474   1.749   0.349
44745W        W 4281   4.865  38.416   9.973
44746W        W 4282  27.180  32.427  11.980
44747W        W 4283  34.926  13.643  14.388
44748W        W 4284  17.226  27.631   2.861
44749W        W 4285  13.790   9.717  14.964
44750W        W 4286  32.947  44.297  14.434
44751W        W 4287   4.929  15.631  14.821
44752W        W 4288  30.065  29.004   1.892
44753W        W 4289  37.832  41.364   1.830
44754W        W 4290   9.667  22.548  11.528
44755W        W 4291  41.923  17.086   4.689
44756W        W 4292  18.056  18.190   0.964
44757W        W 4293  17.106  31.055   4.153
44758W        W 4294  13.783  29.496  13.847
44759W        W 4295  29.631  19.578  11.896
44760W        W 4296  26.564  44.477  14.774
44761W        W 4297  17.668   9.392   4.173
44762W        W 4298  42.426  19.141   2.869
44763W        W 4299  23.117  42.294  14.375
44764W        W 4300  33.877   9.347   3.296
44765W        W 4301  43.317  17.610  11.017
44766W        W 4302   3.356  23.643   2.327
44767W        W 4303  19.094  13.280   0.303
44768W        W 4304   0.807   2.879   2.315
44769W        W 4305   4.714  26.080   4.600
44770W        W 4306  12.787  18.254  10.419
44771W        W 4307  32.535  19.109   1.359
44772W        W 4308  18.762  22.604  13.993
44773W        W 4309  34.067  25.510  11.544
44774W        W 4310  36.512  17.707  11.502
44775W        W 4311  18.613  33.024  14.772
44776W        W 4312   3.374  11.623  13.541
44777W        W 4313   1.310  24.118  14.977
44778W        W 4314  36.411  43.842  11.565
44779W        W 4315  37.929   7.824  14.031
44780W        W 4316  14.278  24.706   4.153
44781W        W 4317  40.316  33.993   3.700
44782W        W 4318  38.922  39.839  10.415
44783W        W 4319  44.454   7.762  12.430
44784W        W 4320   7.741  23.099  10.564
44785W        W 4321  17.216   9.263  11.419
44786W        W 4322   1.348  20.753  14.924
44787W        W 4323  24.611  22.006  13.923
44788W        W 4324   9.308  27.980   4.650
44789W        W 4325   7.764  38.969   4.799
44790W        W 4326  44.412   7.200  10.619
44791W        W 4327  23.122  12.781  12.840
44792W        W 4328  17.709  20.077  11.399
44793W        W 4329  14.250  32.571  11.037
44794W        W 4330  35.400   4.414  13.018
44795W        W 4331  14.234  23.163   4.715
44796W        W 4332  30.977  20.652   0.372
44797W        W 4333  20.530  42.489  11.051
44798W        W 4334  25.062   6.686   3.866
44799W        W 4335  14.799  37.547  13.437
44800W        W 4336   4.315  36.439  13.975
44801W        W 4337  27.001  34.423   4.739
44802W        W 4338  23.545   5.418  11.436
44803W        W 4339  37.071  34.388   2.290
44804W        W 4340  30.146   0.265   4.198
44805W        W 4341   1.238  38.434  14.916
44806W        W 4342  44.483   7.392  11.952
44807W        W 4343  17.139  28.045   3.387
44808W        W 4344  26.562   9.773   4.832
44809W        W 4345  34.099  44.301  11.991
44810W        W 4346   2.404  35.493   3.851
44811W        W 4347  13.337  34.914  14.311
44812W        W 4348  44.435  24.020   2.409
44813W        W 4349  35.939  16.639  14.384
44814W        W 4350  43.847  36.980  11.076
44815W        W 4351  15.314  14.315   3.187
44816W        W 4352  37.073  20.565   4.771
44817W        W 4353  16.709  14.304   4.752
44818W        W 4354  39.005   6.347   2.694
44819W        W 4355  26.482   7.306  14.841
44820W        W 4356   4.933  39.932   0.793
44821W        W 4357  14.242   2.909  13.037
44822W        W 4358   0.764  35.463  10.507
44823W        W 4359  28.575   7.371   4.127
44824W        W 4360  31.555  14.267  13.956
44825W        W 4361   8.726  24.518  12.074
44826W        W 4362  33.113  29.937   0.403
44827W        W 4363  19.751  21.515   2.829
44828W        W 4364  34.553  39.886  14.383
44829W        W 4365  34.111  34.044   1.903
44830W        W 4366  22.245  25.647  14.372
44831W        W 4367  21.209   7.840   4.791
44832W        W 4368  11.647  11.355   4.139
44833W        W 4369  37.547  12.841  11.954
44834W        W 4370  16.622   0.745   1.744
44835W        W 4371   0.302  17.697  13.959
44836W        W 4372   2.951   1.325  13.881
44837W        W 4373  27.526  21.146  10.618
44838W        W 4374  26.680  25.195   3.671
44839W        W 4375  18.576  12.818   3.658
44840W        W 4376  39.974  41.955   3.186
44841W        W 4377  10.185  10.754  13.017
44842W        W 4378  41.426  42.889   5.216
44843W        W 4379  11.829  35.534   1.726
44844W        W 4380  42.860   3.897  13.315
44845W        W 4381   0.410   0.441   0.361
44846W        W 4382  11.269  26.955   5.711
44847W        W 4383  43.927  38.511  14.356
44848W        W 4384  15.212   0.439   1.911
44849W        W 4385  11.663  13.774  12.046
44850W        W 4386  36.534   3.830   0.388
44851W        W 4387  37.526  25.155   3.294
44852W        W 4388   1.770  39.559   0.783
44853W        W 4389  32.544  12.798   0.799
44854W        W 4390  31.115   8.660   2.796
44855W        W 4391   5.354  24.645  13.973
44856W        W 4392  27.492  37.342  14.855
44857W        W 4393   8.189   0.433  10.469
44858W        W 4394  33.074  43.789   0.795
44859W        W 4395  17.077  36.481  13.794
44860W        W 4396  33.440   3.398  11.599
44861W        W 4397   3.285  12.819   4.179
44862W        W 4398   3.827  32.414   0.397
44863W        W 4399  33.983  11.142   4.327
44864W        W 4400  32.004  30.013  10.623
44865W        W 4401  12.806  24.615   4.181
44866W        W 4402  21.223  32.101  14.827
44867W        W 4403   8.369   8.704   2.210
44868W        W 4404  44.761   4.840  10.464
44869W        W 4405  18.566  29.554  10.477
44870W        W 4406  14.723  21.126  14.489
44871W        W 4407   8.850  36.978   3.677
44872W        W 4408   9.840  42.442  10.642
44873W        W 4409   6.347   6.289   4.794
44874W        W 4410  10.810   2.772   3.747
44875W        W 4411   6.187  33.974   3.205
44876W        W 4412  16.624  31.939   4.294
44877W        W 4413  11.183  18.289  11.976
44878W        W 4414  16.153  31.989  11.900
44879W        W 4415  22.066  29.517   2.708
44880W        W 4416  40.010  39.850   1.909
44881W        W 4417  28.589  18.199   2.880
44882W        W 4418  11.686   8.809   3.168
44883W        W 4419  43.296   0.452   2.244
44884W        W 4420  12.313  34.555   1.246
44885W        W 4421  30.126   2.934   0.939
44886W        W 4422   0.910  14.236  14.294
44887W        W 4423  35.881  32.606  14.311
44888W        W 4424  22.102  24.080  13.344
44889W        W 4425   8.799  43.961   2.900
44890W        W 4426  19.636   6.764  14.403
44891W        W 4427  39.934  44.283   2.406
44892W        W 4428  44.981  28.108  11.943
44893W        W 4429  22.723  27.517   2.663
44894W        W 4430   4.414   1.351  10.573
44895W        W 4431  31.928   2.349   2.207
44896W        W 4432   4.819  27.063   1.308
44897W        W 4433  16.697  26.145  13.515
44898W        W 4434  38.557  39.395  11.867
44899W        W 4435   4.920  19.184   0.360
44900W        W 4436  23.699  12.362  12.526
44901W        W 4437   2.799   3.780   2.340
44902W        W 4438  32.419   3.345   2.401
44903W        W 4439  34.449  42.937   2.740
44904W        W 4440  36.045  39.360  11.871
44905W        W 4441  14.190  12.162   2.262
44906W        W 4442   9.371  42.385   0.375
44907W        W 4443  23.002  34.499  11.983
44908W        W 4444  30.093  21.634  12.378
44909W        W 4445  41.859  16.696  13.427
44910W        W 4446  30.089  25.713   1.902
44911W        W 4447  28.646  25.673   5.115
44912W        W 4448  13.825   1.791  14.823
44913W        W 4449  34.991  15.757  11.515
44914W        W 4450  44.888  37.890  10.621
44915W        W 4451  17.740  37.955   0.299
44916W        W 4452  36.846  37.460   4.725
44917W        W 4453  27.087  30.044   2.203
44918W        W 4454  23.576  16.165   1.447
44919W        W 4455  25.584  25.693   4.686
44920W        W 4456  10.244  14.122   3.341
44921W        W 4457  29.474   4.786  12.935
44922W        W 4458  25.062  15.704   2.377
44923W        W 4459  40.325  36.360  10.525
44924W        W 4460  26.609  28.982   0.404
44925W        W 4461  39.033  10.642  14.510
44926W        W 4462  21.193  37.895   1.909
44927W        W 4463   9.291  21.226   3.820
44928W        W 4464  41.035  22.109   4.314
44929W        W 4465  37.056  33.474   2.737
44930W        W 4466   1.426  11.346   5.204
44931W        W 4467  19.233  40.974   3.347
44932W        W 4468  10.761  44.916   0.321
44933W        W 4469  29.440  22.035  13.502
44934W        W 4470   5.777  22.121  11.991
44935W        W 4471  39.470  13.288   0.747
44936W        W 4472  39.912  26.140  12.998
44937W        W 4473  14.729   3.892  12.995
44938W        W 4474  14.801  33.464  12.896
44939W        W 4475  14.752   6.705   9.633
44940W        W 4476  40.546   5.788   4.753
44941W        W 4477  36.415  14.776   0.415
44942W        W 4478  25.120   0.781   3.756
44943W        W 4479  10.171  10.253  12.372
44944W        W 4480  40.003  16.603  13.353
44945W        W 4481   9.393  26.628  10.425
44946W        W 4482  33.895  30.914   4.176
44947W        W 4483  32.631  29.524   1.797
44948W        W 4484  37.917  40.389   1.259
44949W        W 4485  38.073  38.422  13.486
44950W        W 4486   5.434   2.887   0.962
44951W        W 4487  26.063  42.931   0.334
44952W        W 4488  26.983   9.643  13.541
44953W        W 4489   4.772  33.578   4.657
44954W        W 4490   7.327   1.813  14.406
44955W        W 4491   8.295   3.261   0.830
44956W        W 4492  31.435  21.709  10.586
44957W        W 4493  34.024  19.108  13.508
44958W        W 4494  42.029   0.253  11.012
44959W        W 4495  36.452  34.501   4.701
44960W        W 4496   0.752  29.926   1.781
44961W        W 4497  28.592  19.637   4.353
44962W        W 4498   3.425  35.038   2.809
44963W        W 4499   0.797  31.091  11.023
44964W        W 4500  34.052  30.109   4.732
44965W        W 4501   9.769  15.620   2.732
44966W        W 4502  40.502  40.481   3.666
44967W        W 4503  14.268  25.975   4.113
44968W        W 4504  23.095  41.477  14.811
44969W        W 4505  25.713  10.764  13.474
44970W        W 4506   7.844   0.354   3.305
44971W        W 4507  37.451  12.299  14.457
44972W        W 4508   4.377   0.752  13.472
44973W        W 4509  10.153  19.151   3.658
44974W        W 4510  34.078   7.786   1.449
44975W        W 4511  44.481  14.144  14.981
44976W        W 4512  21.591  38.442   1.212
44977W        W 4513  37.455  44.794   4.641
44978W        W 4514   8.381   1.254   3.731
44979W        W 4515  18.571  14.187  12.434
44980W        W 4516   4.765   0.960  13.062
44981W        W 4517  12.230  29.985  13.917
44982W        W 4518  30.448   9.864   1.812
44983W        W 4519  24.183  28.591   3.847
44984W        W 4520  43.297  37.484  11.988
44985W        W 4521  36.966  26.476   3.183
44986W        W 4522  23.089  19.627   2.671
44987W        W 4523   4.228  35.362   4.240
44988W        W 4524  20.525   7.316   0.471
44989W        W 4525  38.339  25.544   4.159
44990W        W 4526   6.899  42.308  14.343
44991W        W 4527  36.445  41.450  13.016
44992W        W 4528   8.286  11.173   1.358
44993W        W 4529   9.213  31.641   0.404
44994W        W 4530   4.731  40.427   3.809
44995W        W 4531   4.348  43.765   0.919
44996W        W 4532  19.229   3.758  14.948
44997W        W 4533  29.513  20.193   4.792
44998W        W 4534  14.708  31.922  13.990
44999W        W 4535   9.863  41.425  13.323
45000W        W 4536  25.508  41.438   1.217
45001W        W 4537  26.559  26.050   0.898
45002W        W 4538  42.505  39.974  11.533
45003W        W 4539  35.866  32.472   4.814
45004W        W 4540  29.527  18.565  12.459
45005W        W 4541  27.548   6.379  10.507
45006W        W 4542   1.297  30.103  14.767
45007W        W 4543  27.087  13.698  13.819
45008W        W 4544  15.177   6.295   2.755
45009W        W 4545   6.411   0.858  11.870
45010W        W 4546  27.953  36.364  10.642
45011W        W 4547   8.400  17.285  11.513
45012W        W 4548  29.968   4.771  11.480
45013W        W 4549  26.652  12.135   0.322
45014W        W 4550  30.650   7.765   5.175
45015W        W 4551  21.747  26.553   2.309
45016W        W 4552  24.641  24.056  14.356
45017W        W 4553  30.475  41.838  11.911
45018W        W 4554  20.051  22.168  13.391
45019W        W 4555  37.984  22.529   2.280
45020W        W 4556   9.652  39.989  13.791
45021W        W 4557  19.112  32.139  11.105
45022W        W 4558  23.217  41.847  12.432
45023W        W 4559  35.473  16.569   2.195
45024W        W 4560  42.422  11.737  14.021
45025W        W 4561  17.721  27.672  11.915
45026W        W 4562  28.653  23.194  11.104
45027W        W 4563  37.041  39.459  12.018
45028W        W 4564  12.125  36.418   3.360
45029W        W 4565  23.215  19.103   2.763
45030W        W 4566  29.606  19.097   2.388
45031W        W 4567  11.225  27.643   3.675
45032W        W 4568   9.649  19.549  14.935
45033W        W 4569  27.137   9.190   4.621
45034W        W 4570  29.171   7.191   2.192
45035W        W 4571  14.113  12.184   1.873
45036W        W 4572   1.861  10.361  13.522
45037W        W 4573  42.299  18.167   0.392
45038W        W 4574  22.120  28.502  11.565
45039W        W 4575  40.823   2.244   2.824
45040W        W 4576  34.498  19.630  11.057
45041W        W 4577  21.057  27.147  14.809
45042W        W 4578  17.273   7.384  11.052
45043W        W 4579  16.287  29.139  12.369
45044W        W 4580  23.152   3.933  13.351
45045W        W 4581  31.449   6.689   4.665
45046W        W 4582  35.091  27.085   0.295
45047W        W 4583  42.378  32.088   3.817
45048W        W 4584  28.638  41.349  13.025
45049W        W 4585  20.563  31.970  14.773
45050W        W 4586  44.363  16.317   0.327
45051W        W 4587  10.197  38.035   3.846
45052W        W 4588  35.965  35.095  12.088
45053W        W 4589  37.530  24.010   0.459
45054W        W 4590  18.633  21.050  12.489
45055W        W 4591   6.368  38.013   4.279
45056W        W 4592  29.461  16.718  11.481
45057W        W 4593  30.933  32.005   4.333
45058W        W 4594  35.096  12.736   4.719
45059W        W 4595  13.172  17.099   2.871
45060W        W 4596  12.239   2.740  11.113
45061W        W 4597   3.285  42.946  13.340
45062W        W 4598   8.256  20.611  12.377
45063W        W 4599  25.982  31.417  11.940
45064W        W 4600  15.149  13.236  12.855
45065W        W 4601  37.006   7.831  14.353
45066W        W 4602  40.047  31.053  13.883
45067W        W 4603  31.580  23.566  13.998
45068W        W 4604   4.242   1.916  12.488
45069W        W 4605   7.799  20.264   3.266
45070W        W 4606  17.699  10.856  13.866
45071W        W 4607  38.467   2.862  11.900
45072W        W 4608  39.333   6.834  12.080
45073W        W 4609  37.014  12.349  10.632
45074W        W 4610   4.921  10.327  13.945
45075W        W 4611   8.239  11.751  10.611
45076W        W 4612  22.228  28.160  10.552
45077W        W 4613  43.354   2.916  13.037
45078W        W 4614   6.322   0.355   4.789
45079W        W 4615  21.569  31.453   4.191
45080W        W 4616  27.635  29.455  14.766
45081W        W 4617   2.298  37.425  13.912
45082W        W 4618  37.995  18.248  13.322
45083W        W 4619  20.703  12.166  13.879
45084W        W 4620  37.995  36.968  14.405
45085W        W 4621  14.115  35.038  12.841
45086W        W 4622  19.768   3.792   1.925
45087W        W 4623  34.567  28.508   3.653
45088W        W 4624  15.660  19.215  13.927
45089W        W 4625  36.347  38.526  11.858
45090W        W 4626  33.398  35.957   9.958
45091W        W 4627  43.890  30.460   1.442
45092W        W 4628  42.030   5.335  12.069
45093W        W 4629  28.613   5.899   1.429
45094W        W 4630  25.998  33.513  11.612
45095W        W 4631  20.724   6.724  14.481
45096W        W 4632  40.445  30.480  11.975
45097W        W 4633  17.609  44.884   0.801
45098W        W 4634  32.984  32.592  14.439
45099W        W 4635  28.604   3.732  14.941
45100W        W 4636  41.407   7.892  14.928
45101W        W 4637  30.570  40.042  14.009
45102W        W 4638  26.974  17.576   3.801
45103W        W 4639  23.106  12.759  11.998
45104W        W 4640  29.126   3.837   3.354
45105W        W 4641  44.832  13.179  12.089
45106W        W 4642  30.590  34.591  11.489
45107W        W 4643  19.059   6.216   1.281
45108W        W 4644  40.894   9.766  11.440
45109W        W 4645   0.814  37.836  12.987
45110W        W 4646  40.816   2.229  13.843
45111W        W 4647  15.786  40.886  10.117
45112W        W 4648   1.841  22.186  12.828
45113W        W 4649   7.806  11.695   2.696
45114W        W 4650  14.320  22.166   3.823
45115W        W 4651  34.474   9.199   1.322
45116W        W 4652  23.702  22.714  11.389
45117W        W 4653  17.739  18.052  12.868
45118W        W 4654  35.883  21.139  14.279
45119W        W 4655   9.271  23.651  13.548
45120W        W 4656  43.814   6.751  13.337
45121W        W 4657   2.935   2.926   3.841
45122W        W 4658  34.929  41.538  12.566
45123W        W 4659   7.362  21.558  12.392
45124W        W 4660  28.546  40.521  10.432
45125W        W 4661  18.287   3.834  14.299
45126W        W 4662  36.494   7.846   2.824
45127W        W 4663  44.814  42.893   1.866
45128W        W 4664  25.470  20.648   3.281
45129W        W 4665   1.762  11.672  14.983
45130W        W 4666  11.803  43.956   1.228
45131W        W 4667  31.570  14.730  10.587
45132W        W 4668   3.857   3.302  14.974
45133W        W 4669  43.388  20.632   4.219
45134W        W 4670  43.345   8.729   0.809
45135W        W 4671   6.200  34.917  12.398
45136W        W 4672  33.974   6.830   2.387
45137W        W 4673  10.680  30.165   3.820
45138W        W 4674  38.853  37.413  14.287
45139W        W 4675  43.389  35.468   4.708
45140W        W 4676  17.299   1.773  13.056
45141W        W 4677  18.254  31.911   5.322
45142W        W 4678   8.214  43.451   3.281
45143W        W 4679   1.250  25.211   2.821
45144W        W 4680   8.723  13.599  12.440
45145W        W 4681  12.657  34.538  12.381
45146W        W 4682  21.255  39.463   1.341
45147W        W 4683  25.100  11.825   3.193
45148W        W 4684  44.492   6.210  11.007
45149W        W 4685  39.414  18.597   3.313
45150W        W 4686  12.698  30.075   0.259
45151W        W 4687   0.939  11.728  11.932
45152W        W 4688  25.156  33.034  12.056
45153W        W 4689  25.534  20.197  12.394
45154W        W 4690  31.152   7.838   3.635
45155W        W 4691  27.135  27.998  12.476
45156W        W 4692  14.215  26.074   1.772
45157W        W 4693  41.305   8.187  12.083
45158W        W 4694  43.437  22.596   0.374
45159W        W 4695  31.540  28.038  12.854
45160W        W 4696  36.841  36.383  11.962
45161W        W 4697  19.652  37.837  12.469
45162W        W 4698  12.117   9.802   1.223
45163W        W 4699  41.315   6.718  14.796
45164W        W 4700  10.240  42.842   2.706
45165W        W 4701  34.084   0.931  13.836
45166W        W 4702  34.402  22.160   0.877
45167W        W 4703   0.901   7.337  11.597
45168W        W 4704  43.428  17.644   1.380
45169W        W 4705  29.022  31.445  10.463
45170W        W 4706  18.676  11.352  11.589
45171W        W 4707  42.959  12.336  11.408
45172W        W 4708  34.477  37.494  14.852
45173W        W 4709  11.141  34.874  10.577
45174W        W 4710   5.260   6.821   4.278
45175W        W 4711  31.117  17.190   3.670
45176W        W 4712   9.701  43.777  13.442
45177W        W 4713  19.050  30.448  13.891
45178W        W 4714  15.819  34.483  12.029
45179W        W 4715   3.318  28.488   1.696
45180W        W 4716  23.714  15.629   0.477
45181W        W 4717  43.359  10.867  11.070
45182W        W 4718   2.770  25.618   0.776
45183W        W 4719  29.446  33.067   1.352
45184W        W 4720  30.573  33.409   0.414
45185W        W 4721  35.583  44.867   2.300
45186W        W 4722  23.514  39.003  12.067
45187W        W 4723   3.721   3.831  12.928
45188W        W 4724  19.050  39.987   4.824
45189W        W 4725  24.607  35.427  11.993
45190W        W 4726  25.581  10.195   0.840
45191W        W 4727  43.856   7.673  12.538
45192W        W 4728  25.496   4.250   3.832
45193W        W 4729  24.608  23.043   2.326
45194W        W 4730  17.674  38.979  12.953
45195W        W 4731   6.216  38.911   2.680
45196W        W 4732  19.560   7.324   2.400
45197W        W 4733  33.586   3.794  11.943
45198W        W 4734  18.118  42.416  12.947
45199W        W 4735  40.833  40.468   4.157
45200W        W 4736  20.755  25.180  11.507
45201W        W 4737  31.145  41.863   2.299
45202W        W 4738   8.239  17.109   0.301
45203W        W 4739   7.728   9.270   1.235
45204W        W 4740  35.466   6.679  11.911
45205W        W 4741  28.127   2.749  11.992
45206W        W 4742   2.404  28.089  14.374
45207W        W 4743  18.280  33.017  13.338
45208W        W 4744  15.133  14.616   4.154
45209W        W 4745  31.567  33.606  13.508
45210W        W 4746  14.612  20.752   4.313
45211W        W 4747  40.325  10.681  12.398
45212W        W 4748   7.214  35.046  14.824
45213W        W 4749   3.814  18.115  14.281
45214W        W 4750  36.374  16.566   1.701
45215W        W 4751  38.406   5.824   1.373
45216W        W 4752  34.111  32.961  12.562
45217W        W 4753  34.102  13.610  10.601
45218W        W 4754  31.508  42.932  10.062
45219W        W 4755  43.354  35.983   0.755
45220W        W 4756  11.317  33.441   3.281
45221W        W 4757  42.315  22.033   2.758
45222W        W 4758   2.232  28.547   0.292
45223W        W 4759  21.232  19.157  10.046
45224W        W 4760  12.853  29.980  13.507
45225W        W 4761  44.494  40.423  10.474
45226W        W 4762  39.892  33.877   1.912
45227W        W 4763   7.258  32.441   4.239
45228W        W 4764  33.596  31.491   0.436
45229W        W 4765  23.665  37.547   4.642
45230W        W 4766  10.823  36.389  14.873
45231W        W 4767  18.546  42.521   1.917
45232W        W 4768  28.125  37.566  11.552
45233W        W 4769  15.304  18.153   1.809
45234W        W 4770  42.006  31.436   2.408
45235W        W 4771  21.093   4.734  14.417
45236W        W 4772  35.573  42.775   2.722
45237W        W 4773  21.050  25.506  12.959
45238W        W 4774  17.136  40.505   2.875
45239W        W 4775   5.856   5.201  14.779
45240W        W 4776  19.549  17.708  12.437
45241W        W 4777  29.521   3.387  11.452
45242W        W 4778  44.835   6.700  10.532
45243W        W 4779  40.820  17.125   1.268
45244W        W 4780  41.943  24.017   2.854
45245W        W 4781   6.861  40.478  10.546
45246W        W 4782  11.636  40.009   1.276
45247W        W 4783  25.505  19.548  14.359
45248W        W 4784   7.694   1.963   0.316
45249W        W 4785   6.381  21.144  14.968
45250W        W 4786  44.825  23.114   4.625
45251W        W 4787  38.371  13.344   2.828
45252W        W 4788  25.082  30.594  12.048
45253W        W 4789  21.186  35.938   2.786
45254W        W 4790   7.321   1.859  12.467
45255W        W 4791   4.883  29.952   1.386
45256W        W 4792  25.146  11.374  12.086
45257W        W 4793   2.464  44.864  13.858
45258W        W 4794  14.709   6.693  10.420
45259W        W 4795  34.945   5.779  11.005
45260W        W 4796  34.406  43.281  10.558
45261W        W 4797   7.199  32.517  13.864
45262W        W 4798  10.641   8.827  12.068
45263W        W 4799  37.398  13.749   4.701
45264W        W 4800   5.430  16.129  12.467
45265W        W 4801   5.720   2.368  11.894
45266W        W 4802  40.313  13.215  11.103
45267W        W 4803  20.250  12.342  13.852
45268W        W 4804  12.656  27.963  13.008
45269W        W 4805  23.727  28.977  12.076
45270W        W 4806  40.453   8.783   1.210
45271W        W 4807   7.182  12.132  14.023
45272W        W 4808   4.746  18.125  14.846
45273W        W 4809  32.486  20.559   2.366
45274W        W 4810  41.835   1.874   9.974
45275W        W 4811   0.959  33.420  12.972
45276W        W 4812  36.500  27.637  13.449
45277W        W 4813  19.678   9.751  11.937
45278W        W 4814  11.864  39.817   3.275
45279W        W 4815   2.836  11.233  14.976
45280W        W 4816   1.451  29.591  14.031
45281W        W 4817   2.918  15.216   1.890
45282W        W 4818  36.885   1.248   0.305
45283W        W 4819  32.463   5.424   0.955
45284W        W 4820   4.259   7.827  13.837
45285W        W 4821  10.306  41.043   1.726
45286W        W 4822  10.726  25.700   0.737
45287W        W 4823   7.743  20.116   1.333
45288W        W 4824  25.020  21.632  11.593
45289W        W 4825  33.391  26.684  11.966
45290W        W 4826  39.866  33.550  13.502
45291W        W 4827  11.729  11.272   0.296
45292W        W 4828   8.354   6.303   4.740
45293W        W 4829  24.534  37.831   2.666
45294W        W 4830  38.053  24.510  11.383
45295W        W 4831  32.510  27.600  12.062
45296W        W 4832  33.910  17.753   2.351
45297W        W 4833  27.682  43.328  12.538
45298W        W 4834  12.770  26.459  14.990
45299W        W 4835  32.543   1.277   4.212
45300W        W 4836  10.666  25.520   3.379
45301W        W 4837   6.299  26.023   4.239
45302W        W 4838  26.587  17.130  11.503
45303W        W 4839  33.467  19.200  12.513
45304W        W 4840  13.662  12.287   2.822
45305W        W 4841  18.558  35.550   2.313
45306W        W 4842  11.186  35.516  12.360
45307W        W 4843  17.177  25.022  10.606
45308W        W 4844  27.133  14.603  13.350
45309W        W 4845  36.591  14.605   1.265
45310W        W 4846  27.567  28.459  10.890
45311W        W 4847  38.432  23.160  10.634
45312W        W 4848  25.648  39.407   0.792
45313W        W 4849   1.799  22.509  12.538
45314W        W 4850  44.271   8.218  14.009
45315W        W 4851  32.077  26.687   5.286
45316W        W 4852  23.175  13.237   3.756
45317W        W 4853  39.456   9.315  12.575
45318W        W 4854  25.023   8.679   0.933
45319W        W 4855  19.657  24.008   4.790
45320W        W 4856  42.485   2.228  11.476
45321W        W 4857  36.851  15.113   0.304
45322W        W 4858  11.626  43.489   2.731
45323W        W 4859  11.686   3.245   0.261
45324W        W 4860   3.938  31.997   3.820
45325W        W 4861  15.172  24.053   3.307
45326W        W 4862  19.046  10.802  14.312
45327W        W 4863  33.622  26.037   3.166
45328W        W 4864   8.403  31.426  12.381
45329W        W 4865  35.892  16.098   3.763
45330W        W 4866  42.331  33.440  12.915
45331W        W 4867  30.641  32.919  10.973
45332W        W 4868   4.864   2.396   2.215
45333W        W 4869  31.990  39.955   3.680
45334W        W 4870  25.003  32.632  12.890
45335W        W 4871  40.902  18.778  11.117
45336W        W 4872  18.290  25.639   4.755
45337W        W 4873  25.565  17.172   3.376
45338W        W 4874  24.070  13.135   0.803
45339W        W 4875  13.749  27.559  11.010
45340W        W 4876  21.738  41.037  13.958
45341W        W 4877  27.124   1.379   3.240
45342W        W 4878  36.403  23.172  10.642
45343W        W 4879   1.776  31.435  11.902
45344W        W 4880   1.963  40.358  12.396
45345W        W 4881  33.996  28.178  11.902
45346W        W 4882  40.394  41.293   9.925
45347W        W 4883  42.419   4.845  10.974
45348W        W 4884  13.293  19.055  11.865
45349W        W 4885   4.210  21.513   2.681
45350W        W 4886  33.988  44.331   1.425
45351W        W 4887  16.310  23.072  13.451
45352W        W 4888  27.608  42.828  14.302
45353W        W 4889  29.620   4.899  10.934
45354W        W 4890  21.645  30.490   3.739
45355W        W 4891  23.529  36.978  10.948
45356W        W 4892  19.691   2.428  11.475
45357W        W 4893  17.731   2.361   1.895
45358W        W 4894  25.494  15.756   4.232
45359W        W 4895  26.618   7.851  14.826
45360W        W 4896  36.892  31.454   3.723
45361W        W 4897   5.880  19.677  12.082
45362W        W 4898  26.651  20.050  11.500
45363W        W 4899  21.160  15.581   4.259
45364W        W 4900  33.393   7.778  12.909
45365W        W 4901  37.467  36.472   0.374
45366W        W 4902  14.832  40.842   4.672
45367W        W 4903  25.020  44.971   4.324
45368W        W 4904  16.118  33.599   4.326
45369W        W 4905  29.930  32.060   0.483
45370W        W 4906  22.563   9.244  14.877
45371W        W 4907  12.857   1.398   2.219
45372W        W 4908  32.523  42.892   3.233
45373W        W 4909   4.853  14.182  12.942
45374W        W 4910   0.845  43.459  14.471
45375W        W 4911   1.303  13.617  14.329
45376W        W 4912   5.304  42.792   3.790
45377W        W 4913  32.450  23.599   9.511
45378W        W 4914  43.312  40.836   2.178
45379W        W 4915  21.605  17.242  11.991
45380W        W 4916  10.723  33.623  10.602
45381W        W 4917   5.756  12.175   0.452
45382W        W 4918  23.113   4.795   0.919
45383W        W 4919  26.011   6.882   1.725
45384W        W 4920  36.075   6.241   2.890
45385W        W 4921  34.949  21.714  10.592
45386W        W 4922  24.484  11.235  12.440
45387W        W 4923  34.600  39.813  11.500
45388W        W 4924   8.804  25.651   0.455
45389W        W 4925   0.431  26.588   5.129
45390W        W 4926  40.411  31.425  14.980
45391W        W 4927  17.717  43.364   2.850
45392W        W 4928   3.314  27.091  13.810
45393W        W 4929   4.440  12.156  13.528
45394W        W 4930  23.703  43.296  14.943
45395W        W 4931  35.577  23.682   2.259
45396W        W 4932  32.913  34.920  12.887
45397W        W 4933  12.752   4.912  14.859
45398W        W 4934   2.957  23.066   1.443
45399W        W 4935  24.635  27.578  12.382
45400W        W 4936  34.890  37.554  14.960
45401W        W 4937  28.646  18.763   0.484
45402W        W 4938  25.102  11.267   0.262
45403W        W 4939  17.071  15.678  12.845
45404W        W 4940  29.155  26.487   1.819
45405W        W 4941  39.987  32.508  12.989
45406W        W 4942  36.039  29.175   4.243
45407W        W 4943  30.559  29.475  10.464
45408W        W 4944  12.670   0.423   1.748
45409W        W 4945   2.410  39.499  12.916
45410W        W 4946  29.634  37.428  14.805
45411W        W 4947  15.128  18.706  12.982
45412W        W 4948  14.150   5.780   1.327
45413W        W 4949   1.815  27.593   3.368
45414W        W 4950  27.121  28.093  10.982
45415W        W 4951  42.916   9.260   3.228
45416W        W 4952  20.547  38.427   1.227
45417W        W 4953  15.154  16.229   4.261
45418W        W 4954  11.346  19.095   0.434
45419W        W 4955  28.463  23.063  11.394
45420W        W 4956  27.616   6.920  11.588
45421W        W 4957  30.420  42.967   2.305
45422W        W 4958  37.996  28.950   4.181
45423W        W 4959  32.907  40.998   2.201
45424W        W 4960   5.893  26.600  10.005
45425W        W 4961  20.714  14.807   3.645
45426W        W 4962  25.476  12.117   2.211
45427W        W 4963  33.425  22.203  14.327
45428W        W 4964  10.227  14.729  11.058
45429W        W 4965  40.456   6.207  13.876
45430W        W 4966  22.706  40.304   0.281
45431W        W 4967  39.458  19.584   3.297
45432W        W 4968  13.800   0.284   0.424
45433W        W 4969  10.377  42.906   0.440
45434W        W 4970  28.993  40.355   2.679
45435W        W 4971  13.823  35.417   0.901
45436W        W 4972  30.485  21.667  13.006
45437W        W 4973  26.088  43.861   4.831
45438W        W 4974  38.470  31.987   0.402
45439W        W 4975  14.670  30.522   4.804
45440W        W 4976  31.471   5.367   4.636
45441W        W 4977  30.531  40.047   1.423
45442W        W 4978  38.021  20.056  13.890
45443W        W 4979  19.609   6.725   0.428
45444W        W 4980  31.056  44.986  11.562
45445W        W 4981  43.475  38.033  12.524
45446W        W 4982  44.933  32.415   4.288
45447W        W 4983  23.093  34.489  14.395
45448W        W 4984  15.271  39.859  13.396
45449W        W 4985   7.871   6.777  11.871
45450W        W 4986  44.485   5.882  13.347
45451W        W 4987  11.718  35.987  10.531
45452W        W 4988  34.467  15.773   3.157
45453W        W 4989   3.780  11.325  14.961
45454W        W 4990  28.108  22.645   0.734
45455W        W 4991  34.088   7.685   1.733
45456W        W 4992  12.844  22.189   1.333
45457W        W 4993  17.110  43.399   2.772
45458W        W 4994  18.684  13.771   4.828
45459W        W 4995   2.909  24.562   1.865
45460W        W 4996  30.512  31.933  12.983
45461W        W 4997  43.446  40.887   2.662
45462W        W 4998   0.396  15.161   5.638
45463W        W 4999  30.480  16.687  13.375
45464W        W 5000  26.682  19.765   4.630
45465W        W 5001  25.472   5.835   4.748
45466W        W 5002  10.374  33.936  12.497
45467W        W 5003  44.262   5.772  10.628
45468W        W 5004  26.992  41.001  12.445
45469W        W 5005  13.694  43.966  12.836
45470W        W 5006   5.198  11.162  14.427
45471W        W 5007  13.689  18.159  14.924
45472W        W 5008  19.166  22.601  11.973
45473W        W 5009  28.483  11.812  10.431
45474W        W 5010  29.923   0.420  13.026
45475W        W 5011  29.433  17.236  13.804
45476W        W 5012   1.346  38.449  13.057
45477W        W 5013  18.751  22.735   2.218
45478W        W 5014  40.340  25.199  10.519
45479W        W 5015  41.345  39.543  10.893
45480W        W 5016  18.778  13.339  12.562
45481W        W 5017  31.610  22.157  10.502
45482W        W 5018  34.876  37.558   1.760
45483W        W 5019  19.638   5.755  11.432
45484W        W 5020  24.007   3.225   2.358
45485W        W 5021  20.126  13.782  11.474
45486W        W 5022  20.700  11.198  14.406
45487W        W 5023  17.174  38.873   0.446
45488W        W 5024  31.514  44.977  12.054
45489W        W 5025   5.401  44.782  10.582
45490W        W 5026  30.037  35.030   1.929
45491W        W 5027  18.262  18.189   1.709
45492W        W 5028  25.595  19.170  14.385
45493W        W 5029  34.025  18.637  14.378
45494W        W 5030  32.493  15.118   4.776
45495W        W 5031  38.955  31.087   1.809
45496W        W 5032   8.726  24.499   1.904
45497W        W 5033   6.678   8.359  12.559
45498W        W 5034  11.642  31.905   0.289
45499W        W 5035   1.308  41.461   1.393
45500W        W 5036  33.087  17.123   2.836
45501W        W 5037   6.394  25.108  11.068
45502W        W 5038   7.400  42.804   0.298
45503W        W 5039  16.679  42.324  13.315
45504W        W 5040  44.272  29.533  13.816
45505W        W 5041  13.289  36.349   2.775
45506W        W 5042   6.256  40.853   0.905
45507W        W 5043  40.812  11.844   1.248
45508W        W 5044  31.104  31.647  11.953
45509W        W 5045  15.092  40.462  13.828
45510W        W 5046  26.488  40.388  13.973
45511W        W 5047  10.824  41.324   3.348
45512W        W 5048  10.749  28.992   5.621
45513W        W 5049  24.134  22.113   0.885
45514W        W 5050  31.434   4.910   0.870
45515W        W 5051  22.548  17.087  10.974
45516W        W 5052  33.496  12.179   2.834
45517W        W 5053  33.950  34.368   0.302
45518W        W 5054  25.545   4.721   9.468
45519W        W 5055  27.675  18.261   0.316
45520W        W 5056  34.564  13.147  12.895
45521W        W 5057  17.695  30.108  12.077
45522W        W 5058  14.314   3.353   2.766
45523W        W 5059  29.987  13.258   3.322
45524W        W 5060   2.452  36.422  13.536
45525W        W 5061  25.180   4.326   3.375
45526W        W 5062  13.196  13.825  10.591
45527W        W 5063   9.233  16.641  12.445
45528W        W 5064   4.875  27.075   0.792
45529W        W 5065  13.754  31.542   1.360
45530W        W 5066   6.420  15.707   1.234
45531W        W 5067  13.650  24.001  10.462
45532W        W 5068  14.273  29.563  14.303
45533W        W 5069  14.264  12.773  11.016
45534W        W 5070  24.147  16.201   1.832
45535W        W 5071  17.231  12.766  11.883
45536W        W 5072  25.502  26.122  10.449
45537W        W 5073   1.304  34.542   3.357
45538W        W 5074  10.725  18.114   3.701
45539W        W 5075   9.379   3.928  14.377
45540W        W 5076   9.393   2.807  10.446
45541W        W 5077  19.675  18.701   3.161
45542W        W 5078  35.561  28.604   3.308
45543W        W 5079  38.525  14.724  14.482
45544W        W 5080  10.760   7.675   1.742
45545W        W 5081  22.578  34.890   5.653
45546W        W 5082  15.746  23.109   4.636
45547W        W 5083   1.265  41.023   0.316
45548W        W 5084  14.765  13.638   2.901
45549W        W 5085   7.861   6.796  14.391
45550W        W 5086  41.887   9.842  12.995
45551W        W 5087  25.601  19.251  13.884
45552W        W 5088  21.652  18.202  14.469
45553W        W 5089   1.750  26.563   1.823
45554W        W 5090  13.291  43.419   3.218
45555W        W 5091  15.809  40.338  12.346
45556W        W 5092  28.510  35.905   4.816
45557W        W 5093  41.877   6.728   0.438
45558W        W 5094  37.354  33.587  11.028
45559W        W 5095  12.833  20.166   4.820
45560W        W 5096   4.301   3.243   1.247
45561W        W 5097  35.995  11.789   2.835
45562W        W 5098   8.750  43.853  14.957
45563W        W 5099  34.545  37.506   3.195
45564W        W 5100   4.235   8.289  10.925
45565W        W 5101  26.503  38.532  10.598
45566W        W 5102  33.521  18.112   9.970
45567W        W 5103  12.342  15.291   4.270
45568W        W 5104  18.602  32.447  13.983
45569W        W 5105  19.711  27.564   1.259
45570W        W 5106  23.629  42.443  14.764
45571W        W 5107   2.359  32.523  10.907
45572W        W 5108   2.263  44.967   2.415
45573W        W 5109  36.418  12.340   3.835
45574W        W 5110  41.296   9.258   4.298
45575W        W 5111  28.554  32.402   4.339
45576W        W 5112  24.714  32.568   4.234
45577W        W 5113   7.313  11.174  12.971
45578W        W 5114  15.100   8.883  11.065
45579W        W 5115   4.712  13.634   3.369
45580W        W 5116  31.901  29.060  13.893
45581W        W 5117   2.855  26.044  14.488
45582W        W 5118  12.320   0.971   0.258
45583W        W 5119  12.264  41.301  14.328
45584W        W 5120  14.782  27.493  14.359
45585W        W 5121  15.280   7.225   2.833
45586W        W 5122   2.418   3.776   0.405
45587W        W 5123  21.045  27.527   3.736
45588W        W 5124  14.234  24.638  11.589
45589W        W 5125  42.793  10.361  11.435
45590W        W 5126  21.709  42.868   2.292
45591W        W 5127  31.413  16.294   0.770
45592W        W 5128   2.808   5.400   3.190
45593W        W 5129  36.048  18.654  11.439
45594W        W 5130  34.370   9.308  11.891
45595W        W 5131  44.862  12.676  10.642
45596W        W 5132  34.022  33.440  13.483
45597W        W 5133  39.500  31.967  10.603
45598W        W 5134  11.665  26.653  11.908
45599W        W 5135   1.384  30.075   1.257
45600W        W 5136  14.708  42.021   1.786
45601W        W 5137  16.687  26.018  14.786
45602W        W 5138  28.110  33.556  10.520
45603W        W 5139  21.615  33.592   2.685
45604W        W 5140   9.377  37.568   5.106
45605W        W 5141  16.101  26.970   4.677
45606W        W 5142   6.698   1.817   1.727
45607W        W 5143  23.992  12.757   2.359
45608W        W 5144  33.131  39.420   2.832
45609W        W 5145  37.434  19.536  11.608
45610W        W 5146  38.462   3.770   2.707
45611W        W 5147  15.096  10.245   1.211
45612W        W 5148  13.244  16.740  10.623
45613W        W 5149  28.620  18.582   1.753
45614W        W 5150  20.239  41.342   4.606
45615W        W 5151  27.567   1.308  13.011
45616W        W 5152  36.379  33.565  11.914
45617W        W 5153  14.317  25.632   0.755
45618W        W 5154  41.797  13.114  13.310
45619W        W 5155  25.058  32.530   2.806
45620W        W 5156  26.646   0.318   0.403
45621W        W 5157  38.386  15.669  14.811
45622W        W 5158  25.123  29.104   1.733
45623W        W 5159   7.679  10.347  11.591
45624W        W 5160  15.774  13.200   1.282
45625W        W 5161   3.268  25.533   3.330
45626W        W 5162  21.033  32.939   0.326
45627W        W 5163  26.462   6.206  11.934
45628W        W 5164  32.540  36.589  10.518
45629W        W 5165  16.582   1.423   2.832
45630W        W 5166  27.968   5.797   4.716
45631W        W 5167  36.393  40.929  10.552
45632W        W 5168  19.659   1.860   0.968
45633W        W 5169  44.487  13.698   1.707
45634W        W 5170  32.934  20.548   1.420
45635W        W 5171  35.518  37.351  12.469
45636W        W 5172  38.485  16.287  13.811
45637W        W 5173  15.231   1.753  12.498
45638W        W 5174  35.591  38.840   0.900
45639W        W 5175  12.335  27.649   9.971
45640W        W 5176  13.696  27.691  12.941
45641W        W 5177  25.701  29.616  14.469
45642W        W 5178  31.134   6.752   3.648
45643W        W 5179  34.969  17.623   2.270
45644W        W 5180  15.104  40.028   0.964
45645W        W 5181  20.757   5.213   4.335
45646W        W 5182  30.955  41.448  11.545
45647W        W 5183  14.244  27.190   3.182
45648W        W 5184  23.645  35.381  12.535
45649W        W 5185  24.113   4.814  13.980
45650W        W 5186  12.206  33.463   0.879
45651W        W 5187   0.751  41.810   2.888
45652W        W 5188  16.129  37.455  14.452
45653W        W 5189   6.351  12.197  11.873
45654W        W 5190  37.434   3.874   5.172
45655W        W 5191  21.257  40.888   2.232
45656W        W 5192  32.066  13.169  13.890
45657W        W 5193  22.183  31.060   3.174
45658W        W 5194  40.985  21.710   4.789
45659W        W 5195  10.252  39.468  13.470
45660W        W 5196  11.186  44.828   0.891
45661W        W 5197   5.726  28.008   1.400
45662W        W 5198  18.094  27.170   3.844
45663W        W 5199   9.315  22.581  11.009
45664W        W 5200  27.554  32.539  11.502
45665W        W 5201   7.769  38.965   5.272
45666W        W 5202   2.426  44.334   3.780
45667W        W 5203  15.180   2.420  12.928
45668W        W 5204   0.332  20.119   0.820
45669W        W 5205  40.466   3.405  10.557
45670W        W 5206   2.284  17.098   4.654
45671W        W 5207  19.629  21.585  12.036
45672W        W 5208  40.368  40.028   1.380
45673W        W 5209  11.349  36.855   2.284
45674W        W 5210  44.419  39.966  14.461
45675W        W 5211   2.820   4.807   3.174
45676W        W 5212  36.521  31.611  12.417
45677W        W 5213  41.513  37.391  10.059
45678W        W 5214  44.395   5.226   3.750
45679W        W 5215  36.376  21.172  11.914
45680W        W 5216  24.552  32.490  13.922
45681W        W 5217  33.004  27.618  11.448
45682W        W 5218  10.165  28.632   0.880
45683W        W 5219  43.968   6.813   3.164
45684W        W 5220  26.959  44.914   1.903
45685W        W 5221  18.096  35.510   2.825
45686W        W 5222  42.006  25.035   5.134
45687W        W 5223  13.796  39.477   2.800
45688W        W 5224  36.858  30.582  10.978
45689W        W 5225  21.552  17.115   1.218
45690W        W 5226  44.389  15.113   2.805
45691W        W 5227  10.865   1.290  13.854
45692W        W 5228   6.265  32.974  12.449
45693W        W 5229   4.288  14.788  13.476
45694W        W 5230  30.415  42.834   3.159
45695W        W 5231  17.139  17.088  11.540
45696W        W 5232  32.556  44.349   4.240
45697W        W 5233  12.169  43.405   1.832
45698W        W 5234  26.997  41.449  14.389
45699W        W 5235  44.453  38.560  13.945
45700W        W 5236  28.481  16.718   1.278
45701W        W 5237   4.272  39.519   4.254
45702W        W 5238   0.826  44.808   2.729
45703W        W 5239  23.988   9.667  13.045
45704W        W 5240  21.023  28.588   3.342
45705W        W 5241  14.145  39.820  14.516
45706W        W 5242  26.637  27.663  12.892
45707W        W 5243  35.504  34.540   2.849
45708W        W 5244  37.954  33.424  13.874
45709W        W 5245   4.305  14.710   0.756
45710W        W 5246  40.381  15.630   3.840
45711W        W 5247  14.817   6.733   1.844
45712W        W 5248  30.647  22.528   1.424
45713W        W 5249   8.672  36.459  14.314
45714W        W 5250  13.129  13.654   4.291
45715W        W 5251  11.216  41.791   4.805
45716W        W 5252  11.789   4.709  12.574
45717W        W 5253  40.864  24.116   1.231
45718W        W 5254  44.782  30.129  14.387
45719W        W 5255  43.346  44.432   4.180
45720W        W 5256  11.773  37.480   0.762
45721W        W 5257  44.937  37.946   2.419
45722W        W 5258  10.226  26.042  11.924
45723W        W 5259  11.755  40.043  14.843
45724W        W 5260  41.795  34.428   1.397
45725W        W 5261  14.149  39.438   3.347
45726W        W 5262   0.424  14.270   3.347
45727W        W 5263  29.619   6.328   1.922
45728W        W 5264   3.897  41.326   2.396
45729W        W 5265  15.243  41.001  14.354
45730W        W 5266  13.306  37.575  13.010
45731W        W 5267  42.516  33.487  11.900
45732W        W 5268  27.049  19.268  13.845
45733W        W 5269  14.706  35.890   2.804
45734W        W 5270   7.698   8.384  10.606
45735W        W 5271  40.405  25.202  14.274
45736W        W 5272  25.592  42.304   1.694
45737W        W 5273   3.792  39.853   3.383
45738W        W 5274  31.647  31.114   1.762
45739W        W 5275  37.022  16.289  10.566
45740W        W 5276   4.390  13.254   1.223
45741W        W 5277  39.338   9.165  12.080
45742W        W 5278  21.719  11.721  13.928
45743W        W 5279  10.722  26.685  11.916
45744W        W 5280  10.259  37.062   2.212
45745W        W 5281  13.828   0.341   3.250
45746W        W 5282   5.243  22.224  11.959
45747W        W 5283  22.544  32.052  11.937
45748W        W 5284  18.731  36.402  14.960
45749W        W 5285  43.426   9.784  13.865
45750W        W 5286   3.930   9.659  12.357
45751W        W 5287  23.091  29.560  13.490
45752W        W 5288  20.758  44.440  10.486
45753W        W 5289   3.767  36.451  11.412
45754W        W 5290  35.953  34.941  12.468
45755W        W 5291  32.464  32.551  13.863
45756W        W 5292  37.997  34.959   1.869
45757W        W 5293  40.844  38.918  10.960
45758W        W 5294   2.928  33.619  14.812
45759W        W 5295  34.881  33.612   2.363
45760W        W 5296  19.093  42.499  11.372
45761W        W 5297  20.767  22.551   1.735
45762W        W 5298   1.394  14.264  11.568
45763W        W 5299  30.916   3.254  10.582
45764W        W 5300   1.244   1.938   0.887
45765W        W 5301  18.738  41.367  11.450
45766W        W 5302   7.696  19.627  11.527
45767W        W 5303  34.885  12.199  12.545
45768W        W 5304  40.514  21.674  13.358
45769W        W 5305  29.110  44.932   3.820
45770W        W 5306   6.816  24.582   1.406
45771W        W 5307  40.324  17.563   3.694
45772W        W 5308  21.138  23.140   1.799
45773W        W 5309   7.354  12.684   0.332
45774W        W 5310   1.736   6.405  10.598
45775W        W 5311  10.761   0.948   1.330
45776W        W 5312  18.738  38.364   3.151
45777W        W 5313  15.267  10.768   4.207
45778W        W 5314  30.574   4.402  13.533
45779W        W 5315  23.053  16.593  11.558
45780W        W 5316   0.838  32.080  14.441
45781W        W 5317  16.294  22.084  12.936
45782W        W 5318  12.232   9.890   1.770
45783W        W 5319  19.643  38.001   4.287
45784W        W 5320  27.142   5.916   1.340
45785W        W 5321   5.409  16.281  12.011
45786W        W 5322   5.319  23.513  10.557
45787W        W 5323  17.114   9.886  12.059
45788W        W 5324  14.217  19.750  13.387
45789W        W 5325  44.979   4.920   2.883
45790W        W 5326  26.139  11.331   1.811
45791W        W 5327   3.375  31.502  14.882
45792W        W 5328  29.017  10.683   4.690
45793W        W 5329  14.637  28.651  11.042
45794W        W 5330  19.588  15.185  11.391
45795W        W 5331  15.623  25.090   3.198
45796W        W 5332  22.017  26.595  12.923
45797W        W 5333  21.159  38.880   0.781
45798W        W 5334  17.640  15.582  10.532
45799W        W 5335  16.208  40.907   1.833
45800W        W 5336  35.532   7.268   3.671
45801W        W 5337  10.315  23.716   2.253
45802W        W 5338  21.614  42.999   2.768
45803W        W 5339  39.964  26.665   1.370
45804W        W 5340  10.296  35.906   4.625
45805W        W 5341  24.040   3.335  10.528
45806W        W 5342  17.637  19.671  13.977
45807W        W 5343   6.859  29.119  14.296
45808W        W 5344  13.268  13.182   1.365
45809W        W 5345  14.727   8.844  12.051
45810W        W 5346   9.245   4.249  11.446
45811W        W 5347  18.288  24.005   0.393
45812W        W 5348  33.989  36.913   0.324
45813W        W 5349   0.380  23.496   1.921
45814W        W 5350  21.565  31.008  11.931
45815W        W 5351  43.345   2.245   1.219
45816W        W 5352  24.166   9.193  11.445
45817W        W 5353  26.540  43.379   2.750
45818W        W 5354   8.255  17.070  13.461
45819W        W 5355  15.780  38.842   0.466
45820W        W 5356  25.033   0.276  11.500
45821W        W 5357   9.392  10.861  11.487
45822W        W 5358  42.434  41.959  13.860
45823W        W 5359  27.544   3.739  13.945
45824W        W 5360   6.411   0.326  12.359
45825W        W 5361   1.463  32.392  14.408
45826W        W 5362  19.672  33.035  11.935
45827W        W 5363  27.686  10.816  14.431
45828W        W 5364  27.567  39.854  12.980
45829W        W 5365   0.813  29.018  13.931
45830W        W 5366  12.652  33.879   2.375
45831W        W 5367   7.364  44.272  13.967
45832W        W 5368  11.733  14.139  11.402
45833W        W 5369  22.207  43.835   3.813
45834W        W 5370  33.897  31.505   4.233
45835W        W 5371  22.723   7.687   5.296
45836W        W 5372  13.344  15.206   3.377
45837W        W 5373  27.149   5.789  10.493
45838W        W 5374   1.395  35.871   4.718
45839W        W 5375  42.389   4.213  14.000
45840W        W 5376  33.964  13.632  11.044
45841W        W 5377  43.019  38.925  10.409
45842W        W 5378  21.142   0.390   2.737
45843W        W 5379  19.537   9.880   0.268
45844W        W 5380  39.420  25.681   3.790
45845W        W 5381  27.638  15.116  13.879
45846W        W 5382   3.342  27.129   2.396
45847W        W 5383  12.183  24.662   2.219
45848W        W 5384   2.277  32.079  10.528
45849W        W 5385  11.311   8.399   5.303
45850W        W 5386   7.305   8.272   4.205
45851W        W 5387  31.488  35.601  14.024
45852W        W 5388  24.702  35.520  14.884
45853W        W 5389  27.580  35.391  13.879
45854W        W 5390  14.132   6.755   5.317
45855W        W 5391  16.696  32.469  14.322
45856W        W 5392  39.859  37.989   0.289
45857W        W 5393  32.935  31.052   3.359
45858W        W 5394  23.061  34.954  12.891
45859W        W 5395  16.776   0.853   0.761
45860W        W 5396   3.340  36.875   2.224
45861W        W 5397  41.477   7.409   1.367
45862W        W 5398  32.928  25.183   1.259
45863W        W 5399  29.540  40.428  14.914
45864W        W 5400   0.771  42.393   4.642
45865W        W 5401  35.546  15.272   1.865
45866W        W 5402  18.591  31.898  10.079
45867W        W 5403   4.710  38.941   2.200
45868W        W 5404  32.623  28.539   0.872
45869W        W 5405  26.488  20.668   0.822
45870W        W 5406   8.738  13.690   0.341
45871W        W 5407   4.271  24.107   0.295
45872W        W 5408  32.891  37.837  14.909
45873W        W 5409   9.294  38.361  12.567
45874W        W 5410  21.618  19.752   0.377
45875W        W 5411  10.689  16.805  13.442
45876W        W 5412   5.261  40.931   0.907
45877W        W 5413   0.464  23.536  12.403
45878W        W 5414  38.880  33.878  14.434
45879W        W 5415  35.366  40.477  11.956
45880W        W 5416  28.008  24.664   0.878
45881W        W 5417   7.244  11.649  10.634
45882W        W 5418  22.058  30.547   0.301
45883W        W 5419  32.068   7.865  11.550
45884W        W 5420  30.594  14.127   1.273
45885W        W 5421  27.541  37.920  10.563
45886W        W 5422  10.852  13.183   2.729
45887W        W 5423  27.515   3.863  12.367
45888W        W 5424  32.916  22.549  10.917
45889W        W 5425  40.541  13.165   5.185
45890W        W 5426   4.416  17.221   4.663
45891W        W 5427   0.289  20.740   4.676
45892W        W 5428  34.582  35.865   1.927
45893W        W 5429  29.513  42.309   0.261
45894W        W 5430  26.060  36.563   2.411
45895W        W 5431  26.559  41.885  12.521
45896W        W 5432  16.167  40.506  12.092
45897W        W 5433   1.773  20.626   4.706
45898W        W 5434   2.229  40.318   3.703
45899W        W 5435   5.423  39.427   1.893
45900W        W 5436  11.830  44.778  10.033
45901W        W 5437   4.347  17.567  12.051
45902W        W 5438  13.603  21.595  13.032
45903W        W 5439  30.591   5.376  11.582
45904W        W 5440  21.245  41.914   3.155
45905W        W 5441   9.365  26.979  11.979
45906W        W 5442  42.967   0.274  12.877
45907W        W 5443  13.691  37.360  14.968
45908W        W 5444  31.021  20.132  11.469
45909W        W 5445   0.440  13.725  12.508
45910W        W 5446  29.475  43.449   3.148
45911W        W 5447  31.996  15.134   2.397
45912W        W 5448  41.956   5.266  13.821
45913W        W 5449  41.972   7.845   0.860
45914W        W 5450  23.638  29.470   2.300
45915W        W 5451   4.736   2.444   0.370
45916W        W 5452  28.980  20.028  11.401
45917W        W 5453  37.522   2.389  12.438
45918W        W 5454  17.591  18.595   0.296
45919W        W 5455   3.755   9.277  14.423
45920W        W 5456  32.141   5.825   3.859
45921W        W 5457  15.273  43.323   3.220
45922W        W 5458  19.775  39.555   2.846
45923W        W 5459   3.825  43.393   3.155
45924W        W 5460   2.864  12.709   0.930
45925W        W 5461  34.464  29.517  12.887
45926W        W 5462   3.221  18.702   3.838
45927W        W 5463  12.857  14.168  13.443
45928W        W 5464  18.274  28.651  12.538
45929W        W 5465  19.636  36.408  12.969
45930W        W 5466  26.136  18.059   2.895
45931W        W 5467   0.932  34.865  11.520
45932W        W 5468  40.970  39.864   3.833
45933W        W 5469   4.832  43.502   1.232
45934W        W 5470  20.125  32.534   0.822
45935W        W 5471  39.429   6.854   0.315
45936W        W 5472   9.245  26.174  11.512
45937W        W 5473  39.318   6.239  11.880
45938W        W 5474  27.944  13.621  13.379
45939W        W 5475  32.989  21.564  14.829
45940W        W 5476   5.834  30.132   0.758
45941W        W 5477  12.196  39.926  10.424
45942W        W 5478  10.831   2.924  10.534
45943W        W 5479  23.186  39.916   4.630
45944W        W 5480  27.100  25.215   0.245
45945W        W 5481   3.879  43.352  12.028
45946W        W 5482  12.617  20.541   2.724
45947W        W 5483  33.909  23.696   2.847
45948W        W 5484  28.139  29.986  12.053
45949W        W 5485  20.123   5.214   2.742
45950W        W 5486  39.016  38.029  10.440
45951W        W 5487  36.553  43.357   1.313
45952W        W 5488   6.698  39.427   2.344
45953W        W 5489  44.385  15.767   4.815
45954W        W 5490   0.463  29.634  11.472
45955W        W 5491  41.913  18.221   0.295
45956W        W 5492  17.266   6.774  12.995
45957W        W 5493  41.023  22.029  11.992
45958W        W 5494  13.790   8.288   5.269
45959W        W 5495   3.218  42.889   2.735
45960W        W 5496  43.896   1.921  13.318
45961W        W 5497  25.032   3.348  13.966
45962W        W 5498  33.492  22.596  13.869
45963W        W 5499  11.699   8.754   4.338
45964W        W 5500  33.389  21.534   1.763
45965W        W 5501  35.071  13.163  12.946
45966W        W 5502   4.286   4.703   3.831
45967W        W 5503   5.365  12.316   1.924
45968W        W 5504  30.020   0.795  12.354
45969W        W 5505   2.767  32.492   1.444
45970W        W 5506  10.231   5.739  10.904
45971W        W 5507   0.866  24.682   2.736
45972W        W 5508  28.940   2.810   0.443
45973W        W 5509  32.907  33.614   1.884
45974W        W 5510  26.526  39.393  10.610
45975W        W 5511  23.655  33.876   4.600
45976W        W 5512   2.449  26.621  12.894
45977W        W 5513  11.273  25.590  10.151
45978W        W 5514   7.755  40.808   4.620
45979W        W 5515  18.562  34.391  12.851
45980W        W 5516  40.852   4.312   3.292
45981W        W 5517  38.904  32.418   0.959
45982W        W 5518  19.622   6.286  12.563
45983W        W 5519  32.985  23.143   1.447
45984W        W 5520  29.487   6.734  13.461
45985W        W 5521  24.995  11.206  13.813
45986W        W 5522  35.358  28.016  14.339
45987W        W 5523  26.187  22.082  13.361
45988W        W 5524   7.180  15.674  14.448
45989W        W 5525   3.941  15.263   3.203
45990W        W 5526  43.420  34.518   1.922
45991W        W 5527   6.394  24.609   1.935
45992W        W 5528  24.011  26.694   3.351
45993W        W 5529  40.369   7.830  13.385
45994W        W 5530  20.704   1.736   4.222
45995W        W 5531   7.842  26.532   1.411
45996W        W 5532   2.926  36.963   2.357
45997W        W 5533  34.090  25.210   0.738
45998W        W 5534  14.308  25.079  13.441
45999W        W 5535  34.996  14.338  10.902
46000W        W 5536  15.105  11.767   3.726
46001W        W 5537  13.114  19.232   2.212
46002W        W 5538  14.100  32.483   1.933
46003W        W 5539  41.446   6.246  14.963
46004W        W 5540  31.537  31.005   0.274
46005W        W 5541  16.151  32.634   3.678
46006W        W 5542  44.285  22.553   4.249
46007W        W 5543  37.019  34.586  13.002
46008W        W 5544   1.883   0.932   5.168
46009W        W 5545   8.758   8.226  13.329
46010W        W 5546   3.249  38.839   2.736
46011W        W 5547   5.396  30.124   0.243
46012W        W 5548  19.268   4.699  12.048
46013W        W 5549  14.681  15.254  12.422
46014W        W 5550   7.409  24.038  12.481
46015W        W 5551   0.491  36.003  12.853
46016W        W 5552  25.015   8.276  11.027
46017W        W 5553  26.200  36.918   9.970
46018W        W 5554  37.077  16.741   1.274
46019W        W 5555  28.971  37.086  13.475
46020W        W 5556   1.876  10.313   4.119
46021W        W 5557  24.695  27.964  10.457
46022W        W 5558   5.763  17.730  13.011
46023W        W 5559   5.781  15.243   1.869
46024W        W 5560  40.348  30.604  13.458
46025W        W 5561   0.884  39.517   2.317
46026W        W 5562  25.053  28.136  11.533
46027W        W 5563  40.342  39.559  14.922
46028W        W 5564  24.214  28.143  14.484
46029W        W 5565  17.144   7.375   1.904
46030W        W 5566  43.383  17.736   4.190
46031W        W 5567  19.764  24.974  12.029
46032W        W 5568   5.194  34.554  13.516
46033W        W 5569   1.247  31.125  10.494
46034W        W 5570  10.662  25.675   2.679
46035W        W 5571  31.936  27.607   2.822
46036W        W 5572  21.200  14.729  13.052
46037W        W 5573  38.880  40.393  11.589
46038W        W 5574  23.025  13.745   2.323
46039W        W 5575  20.766  41.431  14.472
46040W        W 5576  38.333   0.859   2.832
46041W        W 5577  19.276   5.847   1.288
46042W        W 5578  33.091   7.296  11.389
46043W        W 5579  20.112  24.624  14.467
46044W        W 5580  10.682   2.942  14.907
46045W        W 5581  42.951  43.316   0.950
46046W        W 5582  37.518  29.983  13.320
46047W        W 5583  10.175  22.999  12.092
46048W        W 5584  30.987  24.539   2.878
46049W        W 5585   8.293  43.384  13.358
46050W        W 5586  16.744  29.582   2.871
46051W        W 5587  14.623  13.611   0.862
46052W        W 5588  44.439  21.596  12.567
46053W        W 5589  30.454  20.214   2.227
46054W        W 5590  44.387   9.864   4.625
46055W        W 5591  34.943  13.685  13.534
46056W        W 5592  23.148  16.271  12.503
46057W        W 5593  42.510  37.431  14.010
46058W        W 5594   1.732  17.555   3.181
46059W        W 5595  23.544  12.207  12.828
46060W        W 5596  40.869   0.401  14.830
46061W        W 5597  39.882  40.459  14.896
46062W        W 5598  22.223  41.811  14.990
46063W        W 5599  36.524  22.597  10.997
46064W        W 5600   7.328  40.809  13.924
46065W        W 5601  38.420  17.184   1.763
46066W        W 5602  27.104  37.451  14.410
46067W        W 5603   9.281   3.273  12.829
46068W        W 5604  31.005  31.099   3.311
46069W        W 5605   1.451  28.508   0.735
46070W        W 5606   3.262  33.535   3.226
46071W        W 5607  33.098   2.758   4.704
46072W        W 5608  32.997  23.538  12.830
46073W        W 5609  10.793  19.146  13.532
46074W        W 5610  34.488  20.186  14.769
46075W        W 5611  30.552  30.490   3.693
46076W        W 5612  41.394  13.272   1.241
46077W        W 5613   9.860  27.647   2.859
46078W        W 5614   6.796  26.598  12.894
46079W        W 5615  40.948  42.507   1.384
46080W        W 5616  23.159  16.094   9.494
46081W        W 5617  42.823  18.267  13.378
46082W        W 5618   3.795  12.226  10.407
46083W        W 5619   8.669  42.001  10.890
46084W        W 5620  34.929  17.628  13.891
46085W        W 5621  42.857   9.871   3.694
46086W        W 5622  42.813  20.583  13.414
46087W        W 5623  15.095  29.143   3.850
46088W        W 5624  19.117  14.649  11.401
46089W        W 5625  42.794  34.871   4.335
46090W        W 5626  18.673   6.691  12.921
46091W        W 5627  16.276  22.735   2.869
46092W        W 5628  16.676  44.404   4.602
46093W        W 5629  17.233  18.109  11.509
46094W        W 5630  35.076   8.737  13.456
46095W        W 5631  24.990  19.175  13.928
46096W        W 5632  16.686  43.013   2.244
46097W        W 5633  28.622  25.047  12.892
46098W        W 5634  39.040  41.902  11.083
46099W        W 5635  27.162  39.422  13.864
46100W        W 5636  32.424  25.183   0.349
46101W        W 5637  13.817  14.296  13.395
46102W        W 5638   2.782   6.353   4.643
46103W        W 5639   5.855  44.424   2.855
46104W        W 5640  29.039   9.325  13.380
46105W        W 5641  13.629  39.811  10.887
46106W        W 5642  28.038  36.094   0.411
46107W        W 5643   9.883  10.273   0.880
46108W        W 5644  12.797  13.256   4.319
46109W        W 5645  30.142   5.235   4.644
46110W        W 5646   2.874  28.654  12.418
46111W        W 5647  10.812   8.226   0.906
46112W        W 5648  34.555  14.660   2.373
46113W        W 5649  26.542  30.620   4.627
46114W        W 5650  29.439  23.615   1.409
46115W        W 5651   9.763  39.945   0.369
46116W        W 5652  15.088   3.219   1.406
46117W        W 5653  24.189  32.583  12.561
46118W        W 5654   9.304  42.847   3.358
46119W        W 5655  43.922  28.648  12.410
46120W        W 5656  13.657  26.595   4.628
46121W        W 5657  36.539  29.123  12.048
46122W        W 5658   4.893  21.644   1.447
46123W        W 5659  36.929  31.069   0.895
46124W        W 5660  26.204  12.341   2.767
46125W        W 5661  13.292   9.757  11.517
46126W        W 5662   7.836  16.675   1.247
46127W        W 5663  17.133  38.559   0.394
46128W        W 5664  30.929  34.092  14.840
46129W        W 5665  24.993  30.586   2.198
46130W        W 5666   9.198  19.760   0.337
46131W        W 5667  27.575  31.087  10.524
46132W        W 5668   8.241  41.959  14.497
46133W        W 5669  33.039  37.960  11.395
46134W        W 5670  38.054  38.863   1.816
46135W        W 5671  16.630  18.626  12.027
46136W        W 5672   3.788   5.292  13.428
46137W        W 5673  21.164  25.077  14.857
46138W        W 5674  36.907  26.205  14.336
46139W        W 5675   2.959  12.633  13.821
46140W        W 5676  32.080   8.889   2.233
46141W        W 5677  16.198  25.561  13.965
46142W        W 5678  33.487  24.503  10.636
46143W        W 5679  20.081   8.787  11.379
46144W        W 5680  11.341  18.134   1.212
46145W        W 5681  21.077   5.374   1.281
46146W        W 5682  41.390  30.640   1.391
46147W        W 5683  16.722  12.747  12.906
46148W        W 5684  19.156  30.531  14.288
46149W        W 5685   6.194  42.453  13.794
46150W        W 5686   7.719  33.992   1.346
46151W        W 5687   9.859   4.864  11.914
46152W        W 5688  38.342  18.679  12.064
46153W        W 5689  21.118  21.047  14.285
46154W        W 5690  19.160   5.317  14.385
46155W        W 5691  41.964  22.689  11.919
46156W        W 5692  19.091  18.732   3.867
46157W        W 5693  44.418  24.105  12.028
46158W        W 5694   5.858   9.873  11.397
46159W        W 5695  34.071  18.677   3.190
46160W        W 5696  44.411  11.779   2.692
46161W        W 5697  41.302  21.522  14.843
46162W        W 5698  16.726  32.537  11.092
46163W        W 5699  36.475  26.634  10.932
46164W        W 5700  30.034  16.633  11.861
46165W        W 5701  28.959  27.075   5.107
46166W        W 5702   1.978  28.491   2.701
46167W        W 5703  28.568   6.392  14.769
46168W        W 5704  14.230  36.022   0.349
46169W        W 5705  25.067   3.286   0.801
46170W        W 5706  44.452  25.491  14.494
46171W        W 5707  18.281  30.071   2.854
46172W        W 5708  30.634  41.823  13.321
46173W        W 5709  14.190  16.703   4.272
46174W        W 5710  31.960  18.629  12.981
46175W        W 5711  28.439  37.412   2.683
46176W        W 5712  38.419  40.408  10.938
46177W        W 5713  33.428  29.153  12.056
46178W        W 5714  17.745  29.081  12.512
46179W        W 5715  44.947  26.050   1.446
46180W        W 5716  35.078  37.510  10.458
46181W        W 5717   7.202  29.663   0.815
46182W        W 5718  35.906  42.324   4.252
46183W        W 5719  33.541  40.938  13.800
46184W        W 5720   8.376  38.491  11.940
46185W        W 5721   2.406  23.228   5.571
46186W        W 5722  14.596  18.778  12.373
46187W        W 5723  28.963  33.473  12.929
46188W        W 5724  17.221  38.045  14.327
46189W        W 5725  13.676  20.590  11.554
46190W        W 5726  31.590  13.341   3.786
46191W        W 5727  26.164  23.218  12.873
46192W        W 5728  40.972  34.398   0.350
46193W        W 5729   1.302   6.214  14.792
46194W        W 5730  24.131  42.788   5.215
46195W        W 5731  20.726  35.414  11.001
46196W        W 5732   8.896   6.377  10.576
46197W        W 5733   9.738  23.058   3.372
46198W        W 5734  15.222  33.401   4.689
46199W        W 5735  27.582  33.971   2.683
46200W        W 5736  28.183  39.939   3.737
46201W        W 5737  37.542  12.805  11.093
46202W        W 5738  18.280  16.298   2.696
46203W        W 5739  36.081   8.682  13.365
46204W        W 5740   8.878  30.454  10.128
46205W        W 5741  11.805   9.230  14.775
46206W        W 5742  18.127  10.193   3.715
46207W        W 5743   8.665  33.526   3.668
46208W        W 5744  14.289  25.474  11.908
46209W        W 5745  14.143   2.318   5.277
46210W        W 5746  39.456  40.384   1.771
46211W        W 5747  23.106   9.868  12.453
46212W        W 5748  14.194  28.552   1.285
46213W        W 5749   0.263  44.852   2.862
46214W        W 5750  12.739  31.507  14.306
46215W        W 5751  41.411  21.551   0.727
46216W        W 5752  24.062  43.414   3.176
46217W        W 5753   3.451  29.005   4.346
46218W        W 5754   0.755  24.725   0.900
46219W        W 5755  40.802  19.698   2.739
46220W        W 5756   7.778   2.911   3.848
46221W        W 5757  27.479  12.683  11.030
46222W        W 5758  10.752  43.287   0.396
46223W        W 5759  40.355  12.237  14.428
46224W        W 5760  36.579  37.520   2.843
46225W        W 5761  11.144  30.153   0.747
46226W        W 5762  11.185  24.697   2.828
46227W        W 5763  21.179   9.690   3.817
46228W        W 5764  12.307  24.512  13.878
46229W        W 5765  11.675  10.375   2.308
46230W        W 5766  30.639   3.873  13.962
46231W        W 5767   1.378  34.918   3.232
46232W        W 5768  39.933  34.595  12.877
46233W        W 5769  20.179  32.932   0.920
46234W        W 5770  34.102  10.685  14.486
46235W        W 5771  38.337  27.484  13.821
46236W        W 5772  38.341  25.210  12.368
46237W        W 5773  14.176  43.491  13.375
46238W        W 5774  23.567  31.441  14.848
46239W        W 5775   4.325  41.490   1.760
46240W        W 5776  20.072   8.796  13.956
46241W        W 5777  30.455  31.575  13.875
46242W        W 5778   6.828  20.632   4.307
46243W        W 5779  11.184  22.060   1.338
46244W        W 5780  36.981  34.966  11.103
46245W        W 5781  36.453  43.863   3.244
46246W        W 5782  31.406  12.612   4.732
46247W        W 5783  22.044  27.656   1.311
46248W        W 5784  37.427  14.333  12.016
46249W        W 5785   9.691   7.372   1.883
46250W        W 5786  15.658  30.916  12.076
46251W        W 5787  44.300  24.573  13.902
46252W        W 5788  35.432  38.463   0.450
46253W        W 5789  11.264  39.994   4.722
46254W        W 5790  13.657   3.222  14.473
46255W        W 5791  39.060   3.877   0.427
46256W        W 5792  18.596  39.953   2.274
46257W        W 5793   6.755  41.470  14.788
46258W        W 5794  19.776  42.453   0.463
46259W        W 5795  39.442  24.210   4.826
46260W        W 5796  34.022  10.686   3.832
46261W        W 5797  39.407  18.054   0.384
46262W        W 5798  18.189   7.879  14.884
46263W        W 5799  18.771  17.278   2.226
46264W        W 5800  20.111  35.588   0.291
46265W        W 5801   0.877   8.687   1.848
46266W        W 5802  37.873  34.000  11.398
46267W        W 5803  22.050   4.351   2.290
46268W        W 5804  31.422  27.645  13.936
46269W        W 5805  22.197  11.229   0.908
46270W        W 5806  24.021  24.510  13.020
46271W        W 5807  41.010   4.783   3.717
46272W        W 5808  43.439  20.566   1.705
46273W        W 5809  31.533  32.511   4.652
46274W        W 5810  38.336  13.816  14.809
46275W        W 5811  13.145   3.458  12.834
46276W        W 5812  21.101  21.717   9.586
46277W        W 5813   4.759  39.932   4.306
46278W        W 5814  40.315   0.431   2.849
46279W        W 5815   6.686  44.399  10.942
46280W        W 5816  40.813  34.006  10.901
46281W        W 5817  24.018  15.685   4.808
46282W        W 5818  11.291  39.344   4.681
46283W        W 5819  18.056   4.735  14.835
46284W        W 5820  39.963  20.638   2.283
46285W        W 5821  17.235  36.022  13.408
46286W        W 5822  39.390   9.377  10.448
46287W        W 5823  42.927  12.143   2.703
46288W        W 5824  28.480  12.762   3.371
46289W        W 5825  18.584  32.612   4.247
46290W        W 5826   9.284  10.282  14.415
46291W        W 5827  38.352  14.793  12.954
46292W        W 5828  13.774  41.884   2.755
46293W        W 5829  17.123  36.575   3.633
46294W        W 5830  19.639  43.856   1.913
46295W        W 5831  34.079  15.724   0.737
46296W        W 5832   3.266  33.069  13.915
46297W        W 5833  16.674  44.440  13.853
46298W        W 5834   8.213  17.557   2.682
46299W        W 5835  12.653  31.930  12.556
46300W        W 5836   7.281  14.695   3.248
46301W        W 5837  14.685   0.362   0.923
46302W        W 5838  44.461  32.004   0.303
46303W        W 5839  22.675  30.134  13.360
46304W        W 5840  37.950   7.216   0.903
46305W        W 5841  14.725  16.274  14.306
46306W        W 5842  16.630   4.429   1.373
46307W        W 5843  11.331  33.048   3.753
46308W        W 5844  34.099  33.622   3.868
46309W        W 5845  40.544   7.228  13.921
46310W        W 5846  30.960   1.853   5.194
46311W        W 5847   7.731  11.198  13.917
46312W        W 5848  40.953  24.042   0.786
46313W        W 5849  39.022  27.529  11.484
46314W        W 5850  20.688  13.721   0.312
46315W        W 5851  19.157  28.988  10.602
46316W        W 5852  20.040  35.381   5.105
46317W        W 5853  37.076  44.459   2.355
46318W        W 5854  39.352  11.664  10.516
46319W        W 5855   3.283  24.635  11.449
46320W        W 5856  35.031  10.367   2.867
46321W        W 5857   0.371  22.064   0.730
46322W        W 5858  38.333   2.916  14.014
46323W        W 5859  37.487  36.454  11.971
46324W        W 5860  34.869  20.571  11.071
46325W        W 5861   3.227  26.582   3.279
46326W        W 5862  37.404  15.135  11.989
46327W        W 5863  12.741   5.265   1.842
46328W        W 5864  40.351  24.148  14.865
46329W        W 5865  21.069   1.370   3.870
46330W        W 5866  26.055   9.358  11.523
46331W        W 5867  39.959   0.438  12.940
46332W        W 5868  28.492  18.112   1.239
46333W        W 5869  20.185   0.407  12.560
46334W        W 5870  34.501  32.594   1.698
46335W        W 5871  23.701  43.844   0.957
46336W        W 5872  25.122  43.276   3.792
46337W        W 5873   6.788  12.747  14.335
46338W        W 5874  19.208  19.606   0.948
46339W        W 5875  16.288  31.036   4.266
46340W        W 5876  11.136  10.679   4.648
46341W        W 5877  10.137  38.820   4.159
46342W        W 5878  38.520  24.589  12.058
46343W        W 5879  32.020  23.058  12.856
46344W        W 5880  21.071  16.262   2.893
46345W        W 5881   5.760  39.050  13.878
46346W        W 5882   1.471  29.173   0.812
46347W        W 5883  16.622   5.387  11.083
46348W        W 5884  22.036  11.750  13.860
46349W        W 5885   1.904  14.143  11.881
46350W        W 5886  16.732  29.592   1.343
46351W        W 5887  35.456   2.245  12.516
46352W        W 5888  22.244   4.816   3.351
46353W        W 5889  33.610   6.727  10.914
46354W        W 5890   2.321   3.313  13.955
46355W        W 5891  40.935  40.825   2.379
46356W        W 5892  19.626  20.587   3.772
46357W        W 5893  43.912  26.065  12.089
46358W        W 5894  17.723  23.072   5.685
46359W        W 5895   2.852  21.094  14.286
46360W        W 5896  36.924  30.647  12.458
46361W        W 5897  34.409   0.954   1.228
46362W        W 5898  10.713  20.646   1.887
46363W        W 5899  11.203  43.289   0.887
46364W        W 5900  29.428  18.679   2.855
46365W        W 5901   2.335  10.664  11.099
46366W        W 5902  34.500  12.308  13.862
46367W        W 5903  14.212  41.505   1.853
46368W        W 5904  26.462  29.126  11.889
46369W        W 5905  41.525  32.399   2.858
46370W        W 5906  17.186  31.087  11.427
46371W        W 5907  11.850  33.077   0.800
46372W        W 5908  11.270   5.931   0.847
46373W        W 5909  15.678  30.645   2.709
46374W        W 5910   5.418  22.131   1.755
46375W        W 5911   5.242  17.742   2.767
46376W        W 5912   3.805   8.679  13.059
46377W        W 5913  14.618  20.652  11.895
46378W        W 5914  23.989  29.645  13.387
46379W        W 5915   8.311  34.581  10.434
46380W        W 5916  27.510  24.126  12.052
46381W        W 5917  39.445   2.251  10.507
46382W        W 5918  20.142  38.495  11.039
46383W        W 5919  16.115  42.022  12.404
46384W        W 5920   8.366  10.313   1.903
46385W        W 5921   3.388  30.470  10.492
46386W        W 5922  19.263  34.435  11.100
46387W        W 5923  44.285  31.127  12.359
46388W        W 5924   4.908   4.863   4.704
46389W        W 5925  40.819   4.286  11.983
46390W        W 5926  36.462  24.102  10.131
46391W        W 5927  31.596  32.901  11.124
46392W        W 5928   0.901   1.824  14.506
46393W        W 5929  29.165  15.651  12.393
46394W        W 5930  38.871  23.073  13.847
46395W        W 5931  11.739   1.801   0.462
46396W        W 5932  26.491  34.405   2.273
46397W        W 5933  15.734   7.804  10.412
46398W        W 5934  15.320  13.327  10.575
46399W        W 5935   6.683  41.515  11.961
46400W        W 5936  31.501  21.198   0.274
46401W        W 5937   7.233  39.399  10.417
46402W        W 5938  14.812  31.921  13.405
46403W        W 5939  13.693  10.299  12.930
46404W        W 5940  22.584   9.689  12.547
46405W        W 5941  25.002   1.926  13.470
46406W        W 5942  19.556  38.515   0.254
46407W        W 5943  26.632  13.188  14.029
46408W        W 5944  14.125   3.360  12.534
46409W        W 5945  38.512  20.272   1.741
46410W        W 5946  38.474  14.121  12.880
46411W        W 5947   1.389  37.866  13.546
46412W        W 5948  36.003  17.670  11.988
46413W        W 5949  22.705   6.915  13.528
46414W        W 5950  25.694  33.430  14.891
46415W        W 5951  12.853  38.944  10.900
46416W        W 5952  42.511  41.847  12.352
46417W        W 5953  28.096  10.691   1.276
46418W        W 5954  25.989  16.672  13.391
46419W        W 5955  29.567  24.000   0.288
46420W        W 5956  42.894   5.429  12.827
46421W        W 5957  23.601  24.619   0.354
46422W        W 5958   0.887  36.869   1.307
46423W        W 5959  14.641   3.796  12.366
46424W        W 5960  30.546  16.573   0.755
46425W        W 5961  43.511  39.545   0.251
46426W        W 5962  14.323   5.922  14.002
46427W        W 5963  34.073  35.058  14.867
46428W        W 5964  36.388  28.072  14.359
46429W        W 5965  27.676  13.678   4.127
46430W        W 5966   8.175  38.983   3.147
46431W        W 5967  36.354  21.680  14.846
46432W        W 5968  36.537  34.931   1.727
46433W        W 5969   7.779   7.799  14.906
46434W        W 5970   0.447   9.876   2.714
46435W        W 5971  15.770  36.983  13.343
46436W        W 5972  29.050  30.608   0.326
46437W        W 5973   6.853  13.186  11.078
46438W        W 5974  35.081  26.459   3.201
46439W        W 5975  25.033  21.238  13.468
46440W        W 5976  34.881   6.678  14.359
46441W        W 5977  27.088   8.735   2.876
46442W        W 5978  40.396  25.513   2.344
46443W        W 5979  13.714  21.055  14.388
46444W        W 5980   9.866  27.124  13.415
46445W        W 5981  36.921   7.823   4.232
46446W        W 5982  37.341   6.683   0.860
46447W        W 5983  32.588  18.606  13.368
46448W        W 5984  21.702  39.447   5.315
46449W        W 5985  13.302  11.629  12.869
46450W        W 5986  36.491  42.399  12.022
46451W        W 5987  16.239  36.538  12.409
46452W        W 5988  43.964   5.832  11.902
46453W        W 5989   6.216  17.774   3.279
46454W        W 5990  37.543  30.423   2.826
46455W        W 5991  29.532   5.840  13.425
46456W        W 5992  23.148   7.323  14.858
46457W        W 5993  23.625   9.210   3.236
46458W        W 5994  13.636  11.733  12.081
46459W        W 5995  32.532   2.314   3.335
46460W        W 5996  25.568  10.259  10.986
46461W        W 5997  10.730   3.899   1.701
46462W        W 5998  16.133   6.920  13.361
46463W        W 5999  24.973  10.177   1.438
46464W        W 6000  19.192  39.062   3.758
46465W        W 6001  25.150  41.478   4.300
46466W        W 6002  10.333  42.982  14.340
46467W        W 6003  35.398  29.600   2.870
46468W        W 6004  44.968  22.652  13.438
46469W        W 6005  42.481   9.890  14.873
46470W        W 6006   1.772  32.949  11.914
46471W        W 6007  39.852  30.059   4.741
46472W        W 6008  22.087  10.651  13.426
46473W        W 6009  42.378  16.580  11.923
46474W        W 6010  29.969  28.610   3.638
46475W        W 6011   2.922  44.860  11.449
46476W        W 6012  21.074  33.462   0.418
46477W        W 6013  36.946  44.895  14.284
46478W        W 6014  10.173  23.009  12.502
46479W        W 6015  40.486   5.868   0.757
46480W        W 6016  25.519  25.711   0.834
46481W        W 6017  40.480   1.743  10.473
46482W        W 6018  38.955  24.520  13.960
46483W        W 6019  25.677  31.915   2.791
46484W        W 6020  37.507  28.003   4.813
46485W        W 6021  26.641  18.274  11.865
46486W        W 6022  20.250  35.898  13.952
46487W        W 6023  43.344  33.395   1.400
46488W        W 6024   5.900  28.041   4.785
46489W        W 6025  14.791  33.055  13.031
46490W        W 6026   6.310  28.109  14.965
46491W        W 6027   8.272  35.472  13.861
46492W        W 6028  37.467  17.696  11.883
46493W        W 6029  39.381  13.741  10.440
46494W        W 6030   8.307   7.416   1.255
46495W        W 6031  25.519  14.112  13.005
46496W        W 6032  18.226  35.011   0.344
46497W        W 6033  22.159  41.497   1.921
46498W        W 6034  33.557   5.381   2.856
46499W        W 6035  40.529  31.933   5.126
46500W        W 6036  43.445   1.888   3.667
46501W        W 6037   3.790  36.411  14.002
46502W        W 6038   5.892  40.413  12.891
46503W        W 6039  38.458  37.570   3.678
46504W        W 6040  33.581  29.446   2.770
46505W        W 6041  35.985  26.471   0.480
46506W        W 6042  28.971  22.012   4.222
46507W        W 6043   8.655  11.731  12.057
46508W        W 6044  22.118  38.368   3.265
46509W        W 6045   2.939   3.737  12.916
46510W        W 6046  17.700   3.851  11.565
46511W        W 6047   4.762  13.220  14.302
46512W        W 6048  31.018  43.931  14.473
46513W        W 6049   9.343  22.639  14.500
46514W        W 6050  17.271  21.547  12.918
46515W        W 6051  36.894   7.830   3.184
46516W        W 6052  14.721  11.337   0.782
46517W        W 6053  14.650  16.119  12.851
46518W        W 6054  34.401  30.446   0.391
46519W        W 6055  17.742   7.392  10.436
46520W        W 6056  20.684  29.000  10.462
46521W        W 6057  17.167   5.713   2.228
46522W        W 6058  25.636  24.694  10.639
46523W        W 6059  15.662   7.763  13.897
46524W        W 6060   7.805  38.359   0.771
46525W        W 6061  10.683  28.471  11.382
46526W        W 6062  31.619  34.495  14.962
46527W        W 6063  20.712  10.845   0.437
46528W        W 6064  29.595  42.373  13.530
46529W        W 6065  15.258  27.619  10.946
46530W        W 6066  25.560   3.941  10.454
46531W        W 6067  29.426   7.273  14.955
46532W        W 6068  42.788  21.545   0.325
46533W        W 6069  22.230  26.490   0.895
46534W        W 6070  29.971  20.764   2.291
46535W        W 6071   0.363  41.818  11.455
46536W        W 6072  29.621   8.193   4.329
46537W        W 6073  40.878  17.577   1.816
46538W        W 6074   5.808  35.056   3.292
46539W        W 6075  34.929  34.896  10.935
46540W        W 6076  20.248  16.162   2.404
46541W        W 6077  20.206   3.446   0.863
46542W        W 6078  12.808   9.819  10.602
46543W        W 6079   9.314  44.486   0.423
46544W        W 6080   1.358   0.786  10.425
46545W        W 6081  29.482  27.091   9.578
46546W        W 6082  40.908   3.787  14.506
46547W        W 6083  23.546   1.794  14.892
46548W        W 6084  26.543  14.170   4.204
46549W        W 6085  30.146  26.085   2.722
46550W        W 6086  32.575  27.514   1.312
46551W        W 6087  10.220  24.558   0.423
46552W        W 6088  33.055  18.115   1.316
46553W        W 6089  36.575  24.152  12.016
46554W        W 6090  36.511  15.098   4.338
46555W        W 6091   8.178  35.603  11.492
46556W        W 6092  19.619  37.473  10.139
46557W        W 6093  43.936  21.126  12.536
46558W        W 6094  29.152   7.360  14.350
46559W        W 6095   1.892  14.799   0.307
46560W        W 6096  21.661  35.499  11.121
46561W        W 6097   1.889  13.207  13.381
46562W        W 6098  18.718  42.813  10.484
46563W        W 6099  31.124  41.310   2.354
46564W        W 6100   9.317   8.707  12.541
46565W        W 6101  25.027   0.970   1.895
46566W        W 6102   4.231  12.314   2.253
46567W        W 6103   7.798  18.722   2.747
46568W        W 6104  12.204  31.015  11.904
46569W        W 6105  35.966  11.328   0.943
46570W        W 6106   7.875  22.732   3.288
46571W        W 6107  23.619  31.610   4.651
46572W        W 6108  42.453  40.037   2.797
46573W        W 6109  27.608  19.277  13.035
46574W        W 6110   4.289  40.900   0.356
46575W        W 6111  34.604  29.523  14.994
46576W        W 6112  31.021  43.903  14.904
46577W        W 6113  17.575   4.340  12.399
46578W        W 6114  13.649  22.250  14.776
46579W        W 6115  40.027   1.344  14.898
46580W        W 6116  11.190  15.128  13.319
46581W        W 6117  20.148   9.772  12.346
46582W        W 6118  18.754  29.993   1.350
46583W        W 6119  31.619  34.536   4.279
46584W        W 6120   0.494  15.638   0.456
46585W        W 6121  18.199  42.932   3.152
46586W        W 6122  43.410  25.022  14.307
46587W        W 6123  40.486  44.489   3.185
46588W        W 6124  17.155   1.848   9.929
46589W        W 6125   3.846  12.739   5.288
46590W        W 6126  31.923  17.146   3.336
46591W        W 6127  42.957  33.089  10.581
46592W        W 6128   7.315   5.439  14.993
46593W        W 6129  22.530  41.036  14.298
46594W        W 6130  43.901   2.792   1.441
46595W        W 6131  19.129   1.356  10.556
46596W        W 6132  43.299  28.096  12.530
46597W        W 6133   0.819   2.472  12.451
46598W        W 6134  41.419  14.707   4.294
46599W        W 6135  32.548  34.486   3.183
46600W        W 6136   2.276   5.923  10.921
46601W        W 6137  29.166   8.364  12.089
46602W        W 6138  28.676  18.706  11.880
46603W        W 6139  31.564  39.899  12.864
46604W        W 6140  25.704  11.842  12.024
46605W        W 6141  18.544  24.522   3.780
46606W        W 6142  16.683  42.302   3.244
46607W        W 6143   2.288  15.805  14.850
46608W        W 6144  14.250  24.510   3.866
46609W        W 6145   8.187  39.996  10.430
46610W        W 6146  35.385  10.321   2.670
46611W        W 6147   7.684  34.924   4.601
46612W        W 6148  28.038  24.587  12.858
46613W        W 6149  37.541  20.656   3.847
46614W        W 6150  32.434  21.123  13.929
46615W        W 6151  24.168  22.132  11.063
46616W        W 6152  21.164  14.098  10.589
46617W        W 6153   6.734  42.436  14.899
46618W        W 6154   7.349  10.188  13.544
46619W        W 6155  43.338  26.633   4.606
46620W        W 6156  29.937  30.953  12.888
46621W        W 6157  21.642  28.934  13.998
46622W        W 6158   2.286  38.484  11.513
46623W        W 6159  41.903   8.290   3.818
46624W        W 6160  38.517  27.072   2.859
46625W        W 6161  36.988  41.879  13.397
46626W        W 6162  37.836  16.733  11.070
46627W        W 6163   1.282  37.074  14.333
46628W        W 6164  20.128  36.477  11.104
46629W        W 6165  24.206  26.561  13.933
46630W        W 6166   9.841  11.281   3.678
46631W        W 6167  38.006  14.233  14.450
46632W        W 6168  13.316  33.595  10.888
46633W        W 6169  44.275  27.124  10.977
46634W        W 6170  42.785  11.172   2.339
46635W        W 6171  28.629  43.859   1.321
46636W        W 6172  26.632  19.707   0.264
46637W        W 6173  15.105   0.989  14.966
46638W        W 6174   1.393  36.037  13.904
46639W        W 6175   9.868  26.135  11.974
46640W        W 6176   4.763  19.659   4.684
46641W        W 6177   9.741  34.505   3.192
46642W        W 6178  26.669   6.878   3.330
46643W        W 6179  17.585  11.655   3.364
46644W        W 6180  38.378  42.345  14.013
46645W        W 6181  32.019  31.921  12.514
46646W        W 6182  43.424   9.729   3.700
46647W        W 6183  39.038  28.062  14.843
46648W        W 6184  32.448  26.979  13.469
46649W        W 6185   8.812  28.520  14.403
46650W        W 6186  41.871  12.158   2.349
46651W        W 6187   3.852  39.371  13.424
46652W        W 6188  21.138  33.986   0.439
46653W        W 6189  19.745  42.853   4.599
46654W        W 6190   2.402  32.097  10.021
46655W        W 6191  28.556   5.270   4.824
46656W        W 6192  35.102  14.730   3.698
46657W        W 6193  33.922  41.535  14.015
46658W        W 6194  36.901  20.066   3.726
46659W        W 6195  37.496   9.172  11.030
46660W        W 6196   3.882  15.244  13.937
46661W        W 6197  29.978   5.885  12.038
46662W        W 6198  24.572  39.423   1.857
46663W        W 6199   2.921  16.252  13.467
46664W        W 6200  44.927  44.985   1.407
46665W        W 6201  39.446  31.549   4.645
46666W        W 6202   8.215  23.148  11.001
46667W        W 6203  27.679  35.425   4.719
46668W        W 6204  25.536  11.264  12.551
46669W        W 6205   4.439  35.405   1.364
46670W        W 6206  10.835  29.021   2.198
46671W        W 6207  39.041   6.906   4.785
46672W        W 6208  38.949  17.151  13.392
46673W        W 6209  32.946  41.924  11.864
46674W        W 6210  26.117  12.337   0.401
46675W        W 6211   4.890  17.634   4.289
46676W        W 6212  24.601  20.266   1.763
46677W        W 6213   1.301  42.812  11.392
46678W        W 6214  24.214  33.044  12.912
46679W        W 6215   8.770  15.256   2.802
46680W        W 6216  39.000  13.719  10.482
46681W        W 6217  40.505  23.565  14.856
46682W        W 6218  23.663  15.090   2.855
46683W        W 6219  27.170  32.489  10.567
46684W        W 6220  17.631   6.366   4.351
46685W        W 6221  36.398  14.180   4.683
46686W        W 6222   7.208  29.131  11.869
46687W        W 6223   6.884  35.110  11.038
46688W        W 6224  23.573  25.102  11.065
46689W        W 6225   5.312  41.867  11.598
46690W        W 6226  23.695  43.832   4.139
46691W        W 6227  38.412  32.074  12.901
46692W        W 6228   9.205   6.189   3.766
46693W        W 6229  28.500  33.393   2.354
46694W        W 6230  30.070  17.123  12.496
46695W        W 6231  16.611  30.459   3.746
46696W        W 6232  18.129  42.981   1.925
46697W        W 6233   6.780   6.885  13.369
46698W        W 6234  44.436  30.518   0.932
46699W        W 6235  24.211   1.275  11.588
46700W        W 6236  44.354  25.664   3.650
46701W        W 6237  27.455  34.526  14.364
46702W        W 6238  17.606  43.865  14.477
46703W        W 6239  11.723   8.879   3.737
46704W        W 6240  17.701   9.783  13.863
46705W        W 6241  33.929   1.842   1.360
46706W        W 6242  29.109   0.835   0.850
46707W        W 6243  28.962   4.295  11.379
46708W        W 6244  19.124  13.276  14.354
46709W        W 6245  37.884  27.080  10.550
46710W        W 6246  35.995  38.823   2.282
46711W        W 6247   2.450  34.383  13.839
46712W        W 6248  13.226   8.355   5.251
46713W        W 6249  17.753  21.587   2.747
46714W        W 6250  42.815  16.317  12.890
46715W        W 6251  42.371  13.702  14.405
46716W        W 6252  12.178  32.506  12.410
46717W        W 6253  18.210  37.004   2.347
46718W        W 6254  24.146  10.140   5.270
46719W        W 6255   9.750  15.632   1.799
46720W        W 6256  32.457   1.949   3.203
46721W        W 6257  27.089   7.270  13.546
46722W        W 6258   6.885  27.954   0.411
46723W        W 6259  38.459  31.127  14.841
46724W        W 6260  24.026  14.235   4.232
46725W        W 6261  38.497  14.258   5.300
46726W        W 6262  15.271  23.674   1.814
46727W        W 6263   5.867   7.799   0.768
46728W        W 6264   8.275   7.311   2.331
46729W        W 6265  41.321  44.801   1.391
46730W        W 6266   5.854   7.350   4.275
46731W        W 6267  41.385  18.141   2.186
46732W        W 6268  15.769  32.425  14.369
46733W        W 6269  28.564  10.698   0.966
46734W        W 6270  42.975  40.356   4.644
46735W        W 6271   0.768   4.850  13.946
46736W        W 6272  31.443   7.176  10.551
46737W        W 6273  15.255   3.432   4.120
46738W        W 6274  33.551  11.309   4.616
46739W        W 6275  36.571  21.675  13.880
46740W        W 6276  33.405  17.108   0.882
46741W        W 6277  18.587  19.087   0.750
46742W        W 6278  29.029   3.876   3.655
46743W        W 6279  32.090  18.675   4.707
46744W        W 6280  19.062  14.216   2.224
46745W        W 6281  26.143  22.100  14.334
46746W        W 6282  39.873  10.277  12.479
46747W        W 6283  21.584  30.465  14.877
46748W        W 6284  11.866  10.666   4.790
46749W        W 6285  31.631  15.294  10.912
46750W        W 6286  31.622  19.079   2.387
46751W        W 6287  30.545  42.377   3.659
46752W        W 6288  29.074   7.823  12.375
46753W        W 6289  25.125  39.879  14.968
46754W        W 6290  40.879  38.016   4.124
46755W        W 6291  10.643  25.642  13.863
46756W        W 6292   2.411   6.256  13.886
46757W        W 6293   8.233  10.292   0.817
46758W        W 6294  31.093  31.424   2.743
46759W        W 6295  44.861   6.786  14.932
46760W        W 6296  20.234  33.890   1.370
46761W        W 6297  26.459   9.281   0.278
46762W        W 6298  24.725   4.224  13.893
46763W        W 6299  29.644  10.763  13.020
46764W        W 6300  11.737   7.802   0.848
46765W        W 6301  17.112  38.896   1.425
46766W        W 6302   8.869  24.610  10.061
46767W        W 6303  22.228  13.286  11.902
46768W        W 6304  15.236  24.520   1.441
46769W        W 6305   6.707  27.584   4.249
46770W        W 6306  36.533  44.372   3.743
46771W        W 6307  28.666  35.359   1.285
46772W        W 6308  14.257   2.741   0.910
46773W        W 6309  40.974  41.371   0.779
46774W        W 6310  28.981  26.469   3.320
46775W        W 6311  28.451   3.417  13.948
46776W        W 6312   7.312   8.900  10.577
46777W        W 6313  40.436  24.143  11.382
46778W        W 6314  43.355  41.944  12.372
46779W        W 6315  29.099   2.327  11.508
46780W        W 6316  32.593  13.713  14.974
46781W        W 6317   5.745  32.111   3.310
46782W        W 6318  12.764   2.370   0.248
46783W        W 6319   8.240  20.753   2.363
46784W        W 6320  20.177  29.927   1.327
46785W        W 6321  14.675  15.093   3.685
46786W        W 6322  38.916  30.612   2.879
46787W        W 6323   4.255  42.417  12.360
46788W        W 6324  23.109  40.368   3.340
46789W        W 6325   6.232  14.819   4.733
46790W        W 6326   2.907  27.644   2.788
46791W        W 6327  20.192  32.417   3.299
46792W        W 6328   3.853  33.620  13.359
46793W        W 6329  14.588  23.525  11.479
46794W        W 6330  31.022  29.474  11.967
46795W        W 6331  24.716  44.263   0.801
46796W        W 6332  15.208  21.206  10.012
46797W        W 6333  28.602   1.766  10.587
46798W        W 6334   4.405  24.142  11.878
46799W        W 6335  30.504  28.477   0.355
46800W        W 6336  23.067  13.789   4.117
46801W        W 6337  32.420  21.251   4.649
46802W        W 6338  15.282  13.253   3.681
46803W        W 6339   8.711  15.660   1.415
46804W        W 6340   7.223   2.229  11.859
46805W        W 6341  19.616  10.648   3.190
46806W        W 6342  44.816  18.160   2.199
46807W        W 6343  36.968  31.446  11.393
46808W        W 6344  39.061  41.332   2.733
46809W        W 6345  18.265  38.479   2.807
46810W        W 6346  12.675  12.340   1.306
46811W        W 6347  20.640  11.803   1.868
46812W        W 6348  28.664  15.230  13.498
46813W        W 6349   3.260  30.544   2.413
46814W        W 6350  20.230  41.342  14.306
46815W        W 6351  17.226  12.314  10.423
46816W        W 6352  26.115  38.463   4.214
46817W        W 6353  24.561  22.738   0.901
46818W        W 6354  36.061  16.636  12.846
46819W        W 6355  44.794  29.137   0.831
46820W        W 6356   8.884   2.270   0.367
46821W        W 6357  31.995  30.443  13.845
46822W        W 6358  13.216  19.219  10.628
46823W        W 6359   0.327  27.456   0.735
46824W        W 6360   2.869  30.080   0.768
46825W        W 6361   0.478  35.061   2.715
46826W        W 6362  35.073  29.006  10.465
46827W        W 6363  39.493   4.316  13.962
46828W        W 6364  39.038  24.987  13.408
46829W        W 6365   5.699  11.186   1.358
46830W        W 6366   0.301   8.292  13.018
46831W        W 6367  30.014  32.422  13.498
46832W        W 6368  28.065  39.917   1.287
46833W        W 6369  33.943  11.668   2.411
46834W        W 6370  30.561   7.334  14.331
46835W        W 6371  42.870  37.513  10.470
46836W        W 6372  26.167  11.857  10.639
46837W        W 6373   2.722  41.494  11.541
46838W        W 6374  28.012  37.922   4.791
46839W        W 6375  38.944  14.260  13.382
46840W        W 6376   6.910   2.373  11.409
46841W        W 6377  33.883  16.173  12.522
46842W        W 6378  18.082  35.993   1.294
46843W        W 6379  16.147  30.534   0.859
46844W        W 6380  31.453  19.205   1.793
46845W        W 6381   8.751  27.187   0.405
46846W        W 6382  14.113  40.899  14.364
46847W        W 6383  31.511  35.501  12.929
46848W        W 6384  39.017   4.257   1.366
46849W        W 6385  44.347  32.085  14.492
46850W        W 6386  31.899  25.067  12.033
46851W        W 6387   7.244  43.813  12.377
46852W        W 6388  15.626  27.591  13.849
46853W        W 6389  30.064  22.572   0.406
46854W        W 6390  26.204  20.652  11.501
46855W        W 6391   4.912  25.087   4.289
46856W        W 6392  26.991  40.423   1.223
46857W        W 6393   5.218  17.633  10.568
46858W        W 6394  33.089  29.427  13.842
46859W        W 6395  15.182  32.505  14.987
46860W        W 6396  36.509  24.683  11.962
46861W        W 6397   0.750  11.188   4.160
46862W        W 6398  33.416  18.763  10.932
46863W        W 6399  19.775  42.410   1.319
46864W        W 6400  43.861   2.905  12.846
46865W        W 6401   4.853  18.591  12.881
46866W        W 6402   1.421  15.739  11.074
46867W        W 6403   1.448  13.283  13.358
46868W        W 6404  12.148  11.738   9.920
46869W        W 6405  19.242   2.814  14.775
46870W        W 6406   0.818  40.947  12.562
46871W        W 6407   4.715  13.836   0.432
46872W        W 6408  17.148   4.243  11.009
46873W        W 6409  22.711  22.053  13.904
46874W        W 6410  21.631  16.778   2.697
46875W        W 6411   7.199  44.477   4.220
46876W        W 6412  28.015  26.635   4.147
46877W        W 6413  40.333  17.174   2.893
46878W        W 6414  26.630   1.777  10.637
46879W        W 6415   3.738   4.855   0.249
46880W        W 6416  44.475  25.183  11.935
46881W        W 6417  21.706   8.724   2.730
46882W        W 6418  40.492  10.775  10.544
46883W        W 6419  23.240   7.895  12.501
46884W        W 6420  14.299  40.980   1.437
46885W        W 6421  38.366  32.927  13.908
46886W        W 6422  10.211  22.047  10.425
46887W        W 6423  41.849  22.165   2.403
46888W        W 6424   9.368  39.910   3.212
46889W        W 6425  41.527  12.209  10.600
46890W        W 6426  30.041  20.251  10.643
46891W        W 6427  40.482  22.048  12.863
46892W        W 6428  31.625  35.019  10.945
46893W        W 6429  39.414   8.232   4.811
46894W        W 6430  39.954  40.433  12.987
46895W        W 6431  11.149  15.586  14.407
46896W        W 6432  32.083  23.540   2.343
46897W        W 6433  17.116  29.538  14.773
46898W        W 6434  30.948  40.498   2.752
46899W        W 6435  35.987  39.416   2.300
46900W        W 6436  17.794  21.755   4.823
46901W        W 6437  29.005  11.859  13.858
46902W        W 6438  28.611  17.230   2.774
46903W        W 6439  12.240  18.684   3.328
46904W        W 6440  40.506  14.207  14.823
46905W        W 6441  44.313  17.780  13.370
46906W        W 6442   1.849  30.527   3.738
46907W        W 6443  26.195   3.953   4.251
46908W        W 6444  28.178  32.608  12.006
46909W        W 6445  14.769   6.705  12.068
46910W        W 6446  20.210   4.216   1.319
46911W        W 6447  28.547   0.357   3.862
46912W        W 6448  11.248   0.281  11.432
46913W        W 6449  11.673  41.895   1.793
46914W        W 6450  27.009  44.967  14.431
46915W        W 6451  18.191  24.973   3.817
46916W        W 6452   5.822  36.529   2.297
46917W        W 6453  36.507  36.933   4.818
46918W        W 6454  19.622  26.999  10.613
46919W        W 6455  26.647  21.154   1.929
46920W        W 6456  35.382  43.386   4.768
46921W        W 6457   8.346  39.856   2.814
46922W        W 6458  43.804  30.526   3.370
46923W        W 6459   5.218   9.830  12.855
46924W        W 6460  44.488   1.467  12.825
46925W        W 6461   0.953  37.472   5.173
46926W        W 6462  42.444  43.464   0.454
46927W        W 6463  37.028  24.571   4.602
46928W        W 6464  33.886  15.194   3.845
46929W        W 6465  22.081  21.220  14.017
46930W        W 6466  20.730  27.157  11.098
46931W        W 6467  36.878  16.150  12.019
46932W        W 6468  10.145   9.758  13.050
46933W        W 6469  21.667  21.218   3.763
46934W        W 6470  26.137  35.603   5.211
46935W        W 6471  18.121  27.016   2.236
46936W        W 6472  23.590  19.773  11.415
46937W        W 6473  35.567   2.920   0.928
46938W        W 6474  17.789  18.693   5.135
46939W        W 6475  14.164  25.640   1.417
46940W        W 6476   0.844  37.915  12.069
46941W        W 6477  35.500  23.209   4.151
46942W        W 6478   7.363  37.078   2.902
46943W        W 6479  23.232  33.916   4.228
46944W        W 6480  14.608  28.105  12.493
46945W        W 6481  29.458  30.563   3.192
46946W        W 6482  35.494  38.410   2.403
46947W        W 6483  10.807  36.427  10.958
46948W        W 6484  29.093  31.500  13.895
46949W        W 6485   2.826   0.948  13.512
46950W        W 6486  31.634  19.113  11.108
46951W        W 6487  23.579  24.173  12.450
46952W        W 6488  34.585  19.043  11.096
46953W        W 6489  25.203  27.628   3.836
46954W        W 6490  25.545  25.197  12.874
46955W        W 6491  20.260  36.430  12.520
46956W        W 6492  33.514  42.829  13.020
46957W        W 6493   5.701   2.415   0.362
46958W        W 6494  30.619  14.803   0.889
46959W        W 6495   3.721  20.639  13.842
46960W        W 6496  14.186  13.155  13.467
46961W        W 6497  41.508  38.965   5.232
46962W        W 6498  29.659  38.831   5.124
46963W        W 6499   3.874   6.917  10.611
46964W        W 6500   5.298  23.086   3.661
46965W        W 6501  10.151  27.036  10.575
46966W        W 6502  37.045  20.725  10.449
46967W        W 6503   1.314  24.164  13.986
46968W        W 6504  31.971  27.996   2.843
46969W        W 6505  18.223  12.191  14.282
46970W        W 6506  26.559  43.907   2.351
46971W        W 6507  12.318  39.890  13.536
46972W        W 6508  12.655  30.554   0.467
46973W        W 6509  28.948  24.979  10.488
46974W        W 6510  42.324   7.228   0.448
46975W        W 6511  10.282  37.849   2.375
46976W        W 6512   7.824  38.886  14.296
46977W        W 6513  28.940  43.793  10.438
46978W        W 6514   1.272   5.781   3.717
46979W        W 6515  10.709  34.926  13.897
46980W        W 6516  37.536   7.901   0.344
46981W        W 6517  32.974  20.682   3.860
46982W        W 6518   2.872  20.095   1.918
46983W        W 6519  39.498  11.177   1.354
46984W        W 6520  12.284  26.096  13.444
46985W        W 6521  28.569  44.399   2.280
46986W        W 6522  14.824  15.223  14.372
46987W        W 6523   6.823  23.082   3.221
46988W        W 6524   3.422   6.862   0.483
46989W        W 6525   3.740  42.848   1.279
46990W        W 6526  40.836   5.317  10.590
46991W        W 6527   6.338  29.525   0.879
46992W        W 6528   6.376  18.573  11.122
46993W        W 6529  32.040  42.372   0.868
46994W        W 6530   7.689  27.564   2.800
46995W        W 6531  44.287  17.744  13.919
46996W        W 6532  24.108  38.846   1.396
46997W        W 6533   8.776  25.976  12.915
46998W        W 6534   0.848  24.185  10.404
46999W        W 6535  17.110   2.247   3.861
47000W        W 6536  38.355  37.468  14.765
47001W        W 6537  10.866   6.761   1.351
47002W        W 6538  22.664  34.036   2.209
47003W        W 6539  16.175  13.236  12.875
47004W        W 6540  29.528  29.642  12.482
47005W        W 6541  23.587  32.435  11.383
47006W        W 6542  26.007  19.242  13.315
47007W        W 6543  36.091  37.037   1.240
47008W        W 6544  31.528  32.427   1.742
47009W        W 6545  10.291  11.629   3.825
47010W        W 6546  32.005  36.350   1.215
47011W        W 6547  34.416   1.242   2.325
47012W        W 6548  41.400  27.127  14.900
47013W        W 6549   0.453  20.581  13.929
47014W        W 6550  17.149   9.770  10.428
47015W        W 6551  29.576  44.951   4.698
47016W        W 6552   1.463  38.454   0.317
47017W        W 6553  42.897  38.481  11.410
47018W        W 6554  33.419  15.109   3.860
47019W        W 6555  28.958  23.568   3.651
47020W        W 6556   0.452  38.898  11.547
47021W        W 6557  26.694   3.266   0.747
47022W        W 6558   6.768  27.496   1.437
47023W        W 6559  39.328  16.082  11.037
47024W        W 6560  26.492   2.296   5.263
47025W        W 6561  26.161   1.926  11.540
47026W        W 6562   9.780  20.246  13.808
47027W        W 6563   6.866  20.176   4.718
47028W        W 6564  30.981  12.712  13.798
47029W        W 6565  20.219  20.102  11.917
47030W        W 6566  13.737  44.403   1.399
47031W        W 6567  25.062  20.648  11.075
47032W        W 6568  38.044   5.840   4.627
47033W        W 6569   1.398  10.794  12.402
47034W        W 6570  21.729   8.857  11.589
47035W        W 6571   3.860  31.511   4.318
47036W        W 6572  27.189  31.018  13.900
47037W        W 6573  14.331  22.557   5.269
47038W        W 6574  20.121   5.711  13.020
47039W        W 6575   2.854   6.222   3.341
47040W        W 6576  23.671  26.530   3.285
47041W        W 6577  23.063  44.865   2.794
47042W        W 6578  30.158  35.880   1.837
47043W        W 6579  21.632  27.637   1.827
47044W        W 6580   7.802  41.434  13.059
47045W        W 6581  14.759  19.775   4.119
47046W        W 6582  43.775  40.323   0.731
47047W        W 6583   6.310   9.296   0.888
47048W        W 6584   1.959  37.479   1.784
47049W        W 6585   6.880  22.542  12.029
47050W        W 6586  25.164  25.484  11.379
47051W        W 6587   8.757  24.057  14.908
47052W        W 6588  19.240  23.518   5.730
47053W        W 6589  28.170   5.771   0.398
47054W        W 6590  26.184  14.235  11.102
47055W        W 6591  23.148  25.552   1.349
47056W        W 6592  32.472  13.175   1.411
47057W        W 6593  13.244  27.655   0.810
47058W        W 6594  28.138  30.984   4.614
47059W        W 6595   6.826  17.091  10.512
47060W        W 6596  14.834  11.776  13.911
47061W        W 6597  21.654   1.251   4.793
47062W        W 6598  13.765  23.682   0.807
47063W        W 6599  14.835  31.582   0.424
47064W        W 6600  27.123  12.314   2.847
47065W        W 6601  18.748   0.772  10.527
47066W        W 6602  36.419  22.639   4.350
47067W        W 6603  16.239   9.293  10.476
47068W        W 6604  36.436   6.746   2.266
47069W        W 6605  40.853  40.511  12.485
47070W        W 6606  10.262  34.369   1.306
47071W        W 6607  31.988   5.272   3.744
47072W        W 6608  22.142  25.165  13.905
47073W        W 6609  43.977  10.371  10.959
47074W        W 6610  25.650  18.681  10.966
47075W        W 6611  43.827  16.272  14.397
47076W        W 6612   6.337  11.213   4.821
47077W        W 6613  29.136  36.535   0.316
47078W        W 6614   7.857  36.410   3.845
47079W        W 6615  32.999  23.223  12.956
47080W        W 6616  40.529   0.352   5.681
47081W        W 6617  39.839  27.478   2.846
47082W        W 6618  19.053   2.369  13.435
47083W        W 6619  24.722  30.521   1.834
47084W        W 6620   1.754   6.373   1.817
47085W        W 6621  15.107  16.137  14.502
47086W        W 6622   4.844   3.258  12.912
47087W        W 6623  42.395   4.755  10.127
47088W        W 6624   9.656  27.450   3.696
47089W        W 6625  40.975  33.622   0.879
47090W        W 6626  25.142  24.977  11.950
47091W        W 6627  20.153  39.507  11.047
47092W        W 6628  41.981  22.515  10.591
47093W        W 6629  39.947  32.452  14.466
47094W        W 6630   4.810  23.148   3.331
47095W        W 6631  12.263   1.281  10.992
47096W        W 6632  10.218  26.576  13.858
47097W        W 6633  25.689  33.478  13.840
47098W        W 6634  11.180  21.594  12.833
47099W        W 6635   5.712  25.688   1.416
47100W        W 6636  27.942  31.434   4.821
47101W        W 6637  25.976  11.253   3.826
47102W        W 6638   9.358  25.528  11.999
47103W        W 6639  43.893   3.721  14.798
47104W        W 6640  28.069  39.445   1.343
47105W        W 6641  36.406  25.002   0.435
47106W        W 6642  35.091  20.245  11.578
47107W        W 6643  41.428  19.774   4.775
47108W        W 6644  21.564  44.877   4.835
47109W        W 6645  42.428  28.140   0.277
47110W        W 6646   8.169   8.821  12.996
47111W        W 6647  13.803  35.377   2.251
47112W        W 6648   6.695  32.956   1.382
47113W        W 6649  27.648   6.339   0.293
47114W        W 6650  24.722  43.981  11.510
47115W        W 6651  34.453   2.432   3.795
47116W        W 6652  23.050   3.899  10.566
47117W        W 6653   6.705  42.986   2.664
47118W        W 6654  27.513  32.971  12.941
47119W        W 6655  15.802  44.384   2.694
47120W        W 6656  19.601  43.949  12.476
47121W        W 6657  12.791  24.998   2.884
47122W        W 6658  11.144  41.362   0.741
47123W        W 6659  40.803  39.534   4.603
47124W        W 6660  12.135  43.872   3.641
47125W        W 6661  34.994   5.901   2.261
47126W        W 6662  30.116  26.164  13.845
47127W        W 6663  18.562  14.156  14.016
47128W        W 6664   7.404  36.938  10.966
47129W        W 6665   6.219   7.826  10.537
47130W        W 6666   1.950  19.597  11.473
47131W        W 6667  38.482  20.114   4.750
47132W        W 6668  42.493  20.225   4.146
47133W        W 6669   1.947  12.653  11.926
47134W        W 6670  38.510  31.943  13.325
47135W        W 6671  24.018  22.686   2.774
47136W        W 6672  31.038  42.923   3.748
47137W        W 6673  36.020  35.534   4.330
47138W        W 6674  21.100  32.595  14.409
47139W        W 6675   6.878  10.687  13.924
47140W        W 6676   7.244  18.581   1.741
47141W        W 6677  23.226  10.655  14.330
47142W        W 6678  12.744  16.803   0.274
47143W        W 6679  32.950  31.402  11.080
47144W        W 6680  14.153  32.480  11.605
47145W        W 6681  40.901  35.535   2.251
47146W        W 6682   1.749   7.908  14.975
47147W        W 6683  44.332  40.407  13.411
47148W        W 6684  13.809  39.820   2.770
47149W        W 6685  43.868  11.202  11.102
47150W        W 6686  14.720  17.754   4.713
47151W        W 6687  19.736   2.344   1.284
47152W        W 6688  39.483  34.609  14.003
47153W        W 6689  33.425  13.165  11.479
47154W        W 6690   1.762  34.873   4.827
47155W        W 6691  25.181  42.973   3.384
47156W        W 6692  29.991  20.617   1.913
47157W        W 6693   7.774  23.126  14.975
47158W        W 6694  18.250  26.701   4.189
47159W        W 6695   9.742  27.081   1.769
47160W        W 6696  44.769   2.817  12.976
47161W        W 6697  15.217  36.378  11.381
47162W        W 6698   1.941  17.637  12.045
47163W        W 6699  31.141  31.941  10.610
47164W        W 6700  14.768   9.221   1.283
47165W        W 6701  27.687  39.985  13.891
47166W        W 6702   0.979   2.397   3.834
47167W        W 6703  31.122  43.917   0.809
47168W        W 6704  29.557   5.829   1.787
47169W        W 6705   6.345  38.908   0.745
47170W        W 6706  27.493  10.660   0.748
47171W        W 6707  36.449  10.775   4.695
47172W        W 6708  42.426  35.470   1.245
47173W        W 6709   8.838   0.809  13.845
47174W        W 6710   1.964  32.902   2.211
47175W        W 6711  25.637  16.621  14.980
47176W        W 6712  30.596  43.281  12.823
47177W        W 6713  41.922   5.704  11.434
47178W        W 6714  18.253  38.990  11.994
47179W        W 6715  34.508  10.334  11.076
47180W        W 6716  25.121  12.693  14.812
47181W        W 6717  38.926  33.040  11.559
47182W        W 6718   3.788   6.889   0.333
47183W        W 6719  24.123  11.769  13.319
47184W        W 6720  18.138  35.531  12.885
47185W        W 6721  44.468  14.812   0.758
47186W        W 6722  31.409  26.570   1.446
47187W        W 6723   5.294  24.667   1.342
47188W        W 6724  41.013  36.527  14.302
47189W        W 6725  22.230  27.532  14.336
47190W        W 6726   9.836  19.073  14.371
47191W        W 6727  31.521  10.759   1.850
47192W        W 6728  40.827  30.419  13.825
47193W        W 6729  30.461  30.162   4.644
47194W        W 6730  25.185   6.374  11.944
47195W        W 6731  21.161  42.030   0.750
47196W        W 6732  27.584  12.719   1.237
47197W        W 6733  31.130  22.637  14.025
47198W        W 6734  42.369  13.329   2.366
47199W        W 6735  43.765  29.608  14.783
47200W        W 6736  10.215  20.099   3.741
47201W        W 6737  17.075  26.136   1.418
47202W        W 6738  20.192  36.944  13.822
47203W        W 6739   4.826  23.501   0.903
47204W        W 6740   5.812  21.124  12.509
47205W        W 6741  25.033  41.391  14.837
47206W        W 6742  22.612  19.764   1.933
47207W        W 6743   6.676  29.589   1.410
47208W        W 6744  35.506  15.190  14.018
47209W        W 6745  35.405  24.047   9.456
47210W        W 6746  28.037  17.655  11.572
47211W        W 6747  41.367  20.035  14.798
47212W        W 6748  23.985   9.212   2.738
47213W        W 6749   5.931  36.042  14.373
47214W        W 6750  41.900  29.973   2.695
47215W        W 6751  38.348   4.817   1.429
47216W        W 6752  10.333  24.705  12.395
47217W        W 6753  43.886  29.667   0.779
47218W        W 6754  19.088  33.054  10.585
47219W        W 6755   5.428   7.849   0.738
47220W        W 6756  24.974  35.595   2.419
47221W        W 6757  42.872  36.560   5.215
47222W        W 6758  36.916  38.341  12.037
47223W        W 6759  32.896   6.404  14.986
47224W        W 6760  44.895   8.887   4.325
47225W        W 6761  13.297  36.396   4.715
47226W        W 6762  20.084  35.870   3.176
47227W        W 6763  24.604  34.940   1.925
47228W        W 6764  26.207  40.982   0.840
47229W        W 6765  21.619  25.507   4.240
47230W        W 6766  41.520   7.325   2.895
47231W        W 6767  13.155  32.038   0.898
47232W        W 6768  17.580  14.732  12.095
47233W        W 6769  28.016   8.301  14.896
47234W        W 6770  21.569   8.866  12.966
47235W        W 6771   6.683  10.687   3.856
47236W        W 6772   8.266   9.242   1.383
47237W        W 6773   2.244  44.423   0.960
47238W        W 6774   5.242  20.196  14.515
47239W        W 6775  29.999  18.192   0.290
47240W        W 6776  41.003  33.540   2.261
47241W        W 6777  12.736  32.112   4.672
47242W        W 6778  33.089  27.163  13.339
47243W        W 6779  33.466   0.485  11.480
47244W        W 6780  35.909   4.723   3.704
47245W        W 6781  40.828  38.847  12.471
47246W        W 6782  14.631  36.050  10.526
47247W        W 6783  17.130   1.266   0.469
47248W        W 6784  18.624  10.334   4.245
47249W        W 6785  37.419  13.161  11.567
47250W        W 6786  15.114   0.931   1.269
47251W        W 6787   6.856   5.298  14.376
47252W        W 6788  22.130  38.508   1.253
47253W        W 6789  17.706  11.239  13.378
47254W        W 6790  23.696  44.462   1.874
47255W        W 6791  17.304   9.190   0.872
47256W        W 6792  27.108   4.804  14.478
47257W        W 6793  36.896  40.030  10.639
47258W        W 6794   2.468  32.548   0.290
47259W        W 6795  17.192   1.931  13.849
47260W        W 6796  26.007  34.494   0.323
47261W        W 6797   2.789  20.160  14.011
47262W        W 6798  27.160  42.323   3.729
47263W        W 6799   4.850  25.090   1.807
47264W        W 6800  18.206  35.475   2.314
47265W        W 6801  16.740   3.233  11.543
47266W        W 6802  34.542  36.991   3.313
47267W        W 6803  24.113  13.341  14.489
47268W        W 6804  19.086  31.071   0.433
47269W        W 6805  16.581  17.281  13.504
47270W        W 6806  26.531  42.999   2.347
47271W        W 6807  28.479  27.575   2.308
47272W        W 6808  25.572   9.217  14.371
47273W        W 6809   5.278   4.398   4.236
47274W        W 6810   1.263  29.652  14.906
47275W        W 6811  16.152  37.434   4.742
47276W        W 6812  21.219   7.820  13.333
47277W        W 6813   3.731   1.314   4.626
47278W        W 6814  41.494  11.198  11.933
47279W        W 6815  38.050  20.194   0.389
47280W        W 6816  38.992  38.892  14.020
47281W        W 6817   8.279  19.608   2.752
47282W        W 6818  44.901   5.844   2.781
47283W        W 6819  37.433  23.696   3.815
47284W        W 6820   2.932  22.675  10.556
47285W        W 6821  13.610  41.462  11.512
47286W        W 6822  15.305  43.270   4.653
47287W        W 6823  22.208  42.958  13.424
47288W        W 6824   0.440  16.251   3.817
47289W        W 6825  38.990  21.743  12.442
47290W        W 6826  41.400  20.766  13.516
47291W        W 6827  27.005   8.658  14.290
47292W        W 6828  20.258  16.778  14.936
47293W        W 6829  43.825  41.441  10.994
47294W        W 6830  39.554   1.350   2.816
47295W        W 6831  44.783  16.233  14.928
47296W        W 6832  26.955  39.388   4.761
47297W        W 6833  14.230   4.711  12.423
47298W        W 6834  43.330  16.787   1.253
47299W        W 6835   9.389  17.092  14.892
47300W        W 6836  32.986  16.804   2.312
47301W        W 6837  22.200  25.469  10.584
47302W        W 6838  12.753  29.984   2.237
47303W        W 6839  20.581  43.414   1.385
47304W        W 6840  30.638  38.466   4.744
47305W        W 6841  19.204  19.055   0.422
47306W        W 6842  28.517  35.892  14.787
47307W        W 6843  16.742  22.996  13.006
47308W        W 6844  18.057  33.881  14.507
47309W        W 6845  30.988  41.816   1.399
47310W        W 6846  13.661  17.686   0.337
47311W        W 6847  27.140   2.813  14.775
47312W        W 6848   9.781  15.310  13.386
47313W        W 6849  35.491  24.207  11.893
47314W        W 6850  37.535   0.379   1.267
47315W        W 6851  36.005  17.585  14.864
47316W        W 6852   4.291  42.426   4.745
47317W        W 6853  17.227  12.230  11.030
47318W        W 6854  41.357   0.765  12.023
47319W        W 6855   0.786  32.067  13.051
47320W        W 6856  22.658  40.990  13.053
47321W        W 6857  38.001  36.985  10.900
47322W        W 6858   6.831  35.863  14.935
47323W        W 6859  29.669  29.918   1.431
47324W        W 6860   5.374  29.092   3.366
47325W        W 6861   0.416  24.052  13.312
47326W        W 6862  36.362  27.061   1.312
47327W        W 6863  11.854  21.738   4.779
47328W        W 6864  25.041   9.714  12.930
47329W        W 6865  31.060  12.816  11.464
47330W        W 6866   8.806  37.528   5.205
47331W        W 6867  17.146  14.805   1.354
47332W        W 6868  41.472  14.673   1.720
47333W        W 6869  18.647  23.240   1.718
47334W        W 6870  20.129  41.496   1.836
47335W        W 6871   8.705   3.305  14.335
47336W        W 6872   6.850   8.733  14.316
47337W        W 6873  37.065   5.315  11.882
47338W        W 6874  44.850  16.586   0.932
47339W        W 6875  10.205  20.228   4.828
47340W        W 6876  16.776  42.284   2.382
47341W        W 6877  33.614   9.164   0.365
47342W        W 6878  41.354   3.793   0.374
47343W        W 6879   2.902  34.993   1.935
47344W        W 6880   7.759  44.765  12.068
47345W        W 6881  29.136  25.640   9.621
47346W        W 6882  30.940  38.549   4.739
47347W        W 6883  30.577  27.047   1.735
47348W        W 6884  38.842  36.479  11.930
47349W        W 6885  41.536  33.481  14.933
47350W        W 6886  14.327   1.351  11.413
47351W        W 6887  33.392  23.718  11.570
47352W        W 6888  25.074  32.622   4.611
47353W        W 6889  22.506   0.355   3.816
47354W        W 6890  34.443  23.537   1.279
47355W        W 6891   7.266  24.207  11.905
47356W        W 6892  24.161  42.961  13.362
47357W        W 6893  40.412  27.060  13.483
47358W        W 6894   8.403  11.341   3.174
47359W        W 6895   6.341   0.834  11.092
47360W        W 6896  31.423  37.574   2.297
47361W        W 6897  36.435   2.347  14.364
47362W        W 6898   8.751  15.306   1.359
47363W        W 6899  26.069  25.980  11.121
47364W        W 6900  11.773  40.444   2.341
47365W        W 6901  39.841  36.434  13.441
47366W        W 6902  14.139  40.455  10.529
47367W        W 6903   8.747  39.498   0.263
47368W        W 6904  29.919   5.760   0.435
47369W        W 6905   7.413  11.863   0.461
47370W        W 6906  34.928  41.869  13.359
47371W        W 6907   0.984  35.591   0.895
47372W        W 6908  17.245  14.702   2.886
47373W        W 6909  14.674  18.635  13.521
47374W        W 6910   9.224  15.325   0.742
47375W        W 6911  29.465  32.534  11.098
47376W        W 6912  44.407  23.731   1.388
47377W        W 6913  43.826  11.664   0.477
47378W        W 6914  20.661   3.429   0.349
47379W        W 6915  43.293  42.992   3.823
47380W        W 6916  41.308   6.741  12.579
47381W        W 6917  13.650   0.794  13.024
47382W        W 6918   8.837  42.892  10.580
47383W        W 6919  32.472  37.852   2.367
47384W        W 6920  40.922  16.743  13.374
47385W        W 6921  12.838  17.075  12.552
47386W        W 6922  26.045  32.040   3.386
47387W        W 6923   0.777  13.623  11.908
47388W        W 6924  42.485  39.988  13.533
47389W        W 6925  33.522  13.763  13.939
47390W        W 6926  37.030  29.599   4.123
47391W        W 6927  24.659  22.573   3.288
47392W        W 6928  41.825  23.237  11.588
47393W        W 6929  23.139  26.961   2.838
47394W        W 6930   3.267  30.526  14.842
47395W        W 6931  27.565   8.393   2.890
47396W        W 6932  35.359  31.468   3.198
47397W        W 6933  39.913   2.407  10.642
47398W        W 6934  39.334  41.321  10.574
47399W        W 6935  28.603  39.822  13.470
47400W        W 6936   8.375  33.132  14.845
47401W        W 6937  42.992  12.745  10.576
47402W        W 6938   9.222  23.010   2.378
47403W        W 6939  35.084  14.638   1.416
47404W        W 6940  35.404  35.404   2.890
47405W        W 6941  41.849   7.275  12.049
47406W        W 6942  40.335  32.905   4.673
47407W        W 6943  14.214  44.870   0.868
47408W        W 6944   1.827   4.809   2.777
47409W        W 6945  23.631  33.061  10.454
47410W        W 6946  14.238  35.535  12.420
47411W        W 6947  29.030   0.775  11.390
47412W        W 6948  13.124   2.383   0.813
47413W        W 6949   8.673  18.277  12.084
47414W        W 6950  26.478  31.602   0.289
47415W        W 6951  26.209   2.363   3.335
47416W        W 6952  14.732  31.405  14.843
47417W        W 6953  27.196  36.359   3.268
47418W        W 6954  29.515  20.732   2.801
47419W        W 6955  25.047  30.069   4.644
47420W        W 6956  43.496  31.466   1.288
47421W        W 6957  40.891  10.672  12.557
47422W        W 6958   1.320  27.189  13.539
47423W        W 6959   2.428   7.335   1.808
47424W        W 6960  13.177  43.793   3.696
47425W        W 6961   2.469  22.608  14.370
47426W        W 6962  29.539  26.137  13.465
47427W        W 6963  25.987  33.065   2.312
47428W        W 6964  39.868  23.632  13.529
47429W        W 6965  42.889  14.104   0.747
47430W        W 6966  40.495  34.051  11.107
47431W        W 6967  22.708  13.804  12.407
47432W        W 6968   0.869  44.471  10.528
47433W        W 6969  18.233  37.459   4.244
47434W        W 6970  34.566  10.287   9.931
47435W        W 6971  39.351  11.828  14.437
47436W        W 6972  41.522  43.284  10.896
47437W        W 6973  41.040   9.216  14.327
47438W        W 6974  41.419  25.966   3.330
47439W        W 6975  37.536   1.482  12.913
47440W        W 6976  16.172   8.273  12.875
47441W        W 6977  40.937  22.652  13.060
47442W        W 6978   8.288  29.437  12.080
47443W        W 6979  39.379  17.687  11.429
47444W        W 6980   4.323  19.721   3.634
47445W        W 6981  30.560  23.083  10.566
47446W        W 6982  15.639  22.711  11.116
47447W        W 6983  26.061  35.565   3.196
47448W        W 6984  27.993  11.816   1.434
47449W        W 6985   7.238  19.768   3.151
47450W        W 6986  30.142  36.550   4.747
47451W        W 6987  15.804  21.203   2.252
47452W        W 6988  12.828  15.175  12.096
47453W        W 6989  21.609  33.994   0.342
47454W        W 6990  44.779  14.729   4.602
47455W        W 6991   8.761   2.794  12.977
47456W        W 6992   2.373   6.728   2.812
47457W        W 6993   2.378  15.786   4.743
47458W        W 6994  17.065  10.632   4.625
47459W        W 6995   5.893  37.880   3.243
47460W        W 6996   9.371  30.053   2.390
47461W        W 6997  25.505  33.044   0.302
47462W        W 6998  25.603  43.292   4.279
47463W        W 6999  37.410  42.987   3.668
47464W        W 7000   7.670  27.108   1.890
47465W        W 7001  19.094  39.880  11.396
47466W        W 7002  34.402  16.211  11.981
47467W        W 7003  12.295  24.026  14.481
47468W        W 7004  16.135  33.556  10.921
47469W        W 7005   9.274   5.241   1.787
47470W        W 7006   4.749   4.709  11.996
47471W        W 7007  40.447   4.848   5.214
47472W        W 7008  22.528  35.373   1.715
47473W        W 7009  38.452   5.924   3.651
47474W        W 7010  38.993  11.206  11.430
47475W        W 7011  33.413   2.340   1.927
47476W        W 7012  43.974   2.244   1.218
47477W        W 7013   6.416  29.474  12.507
47478W        W 7014  25.653   2.231   0.858
47479W        W 7015   0.812   9.177  11.950
47480W        W 7016  23.144  10.143  13.365
47481W        W 7017  14.284  10.784  14.462
47482W        W 7018  26.053  27.136   2.202
47483W        W 7019  17.238  26.053   3.804
47484W        W 7020   6.731   0.486   0.767
47485W        W 7021  16.271  24.995   2.338
47486W        W 7022   8.885  34.461  14.941
47487W        W 7023  23.491   0.941  14.822
47488W        W 7024  15.578  23.025   1.790
47489W        W 7025  18.251   7.782   1.855
47490W        W 7026  18.648  37.372  13.909
47491W        W 7027  43.878  36.902   1.868
47492W        W 7028  23.224  22.172   4.599
47493W        W 7029  16.686  44.886  10.579
47494W        W 7030  36.589  24.035  11.033
47495W        W 7031  20.583  15.701   3.757
47496W        W 7032   3.911  17.170   2.813
47497W        W 7033   2.292  40.990  10.570
47498W        W 7034  29.601  42.871   4.145
47499W        W 7035  27.030  23.714  10.641
47500W        W 7036   5.331  28.106  13.888
47501W        W 7037  19.748   1.321   1.446
47502W        W 7038  28.564  14.138   1.400
47503W        W 7039  26.161   3.340  13.934
47504W        W 7040   6.331  42.017  14.028
47505W        W 7041  29.001  32.126   3.716
47506W        W 7042   9.780  27.479  10.490
47507W        W 7043  38.478  19.547   4.311
47508W        W 7044   8.693  34.065   4.774
47509W        W 7045   2.920   9.158   4.729
47510W        W 7046  11.253  22.653  10.636
47511W        W 7047   2.408  27.063   1.295
47512W        W 7048   4.766  25.090  13.331
47513W        W 7049  30.941  36.395  13.022
47514W        W 7050   0.333  31.135   1.374
47515W        W 7051   8.239  39.961  12.849
47516W        W 7052  32.140   5.386   1.433
47517W        W 7053  16.673  44.957   4.609
47518W        W 7054   5.927  15.810   4.123
47519W        W 7055  15.761  39.890  13.341
47520W        W 7056  27.146   8.266  11.491
47521W        W 7057  37.839  28.441  12.954
47522W        W 7058  35.897  40.935   0.258
47523W        W 7059  34.879  30.139  14.303
47524W        W 7060  13.754  16.624   3.288
47525W        W 7061  42.313  36.897   3.316
47526W        W 7062   4.927   5.791  10.488
47527W        W 7063  18.126   3.817  10.532
47528W        W 7064  41.513  42.470   0.928
47529W        W 7065  20.190  22.550  13.983
47530W        W 7066  36.017  34.590  13.870
47531W        W 7067  40.003  22.996   3.149
47532W        W 7068  27.179  27.074  11.522
47533W        W 7069  13.783  42.993  11.460
47534W        W 7070   4.297  44.279  11.101
47535W        W 7071  15.094  44.937   3.204
47536W        W 7072  44.362  42.776  10.158
47537W        W 7073  30.432  11.360   1.238
47538W        W 7074  37.082   4.368  14.024
47539W        W 7075  17.246  13.826  13.060
47540W        W 7076  27.504   6.256  10.892
47541W        W 7077  32.529  23.514   0.796
47542W        W 7078  44.974   4.265  11.122
47543W        W 7079  14.720  23.552  12.070
47544W        W 7080  11.190  29.030   1.755
47545W        W 7081   4.788  38.048   0.425
47546W        W 7082  21.563   0.413  14.868
47547W        W 7083  27.568  13.733   3.258
47548W        W 7084  18.610  41.438  11.122
47549W        W 7085  44.407  24.687   4.284
47550W        W 7086   6.209  23.618   4.622
47551W        W 7087  16.616   9.244  14.894
47552W        W 7088   7.902   3.768   3.208
47553W        W 7089  23.179  29.621  12.041
47554W        W 7090  40.326  24.610   2.868
47555W        W 7091  30.523  23.574  12.445
47556W        W 7092  29.129   2.790  10.505
47557W        W 7093  16.720  16.756   4.716
47558W        W 7094  21.225   1.319   1.708
47559W        W 7095  32.992  36.868  11.992
47560W        W 7096   9.853  40.842   0.742
47561W        W 7097  11.185  39.059   3.651
47562W        W 7098  39.484  10.709  11.034
47563W        W 7099   5.709  21.090   2.670
47564W        W 7100   0.821  33.010   1.717
47565W        W 7101   4.887  41.858  13.898
47566W        W 7102  19.697   1.745   2.840
47567W        W 7103  11.703  24.129  12.543
47568W        W 7104  17.726  37.562  14.869
47569W        W 7105   5.909  28.118  11.905
47570W        W 7106  19.577   2.933   4.202
47571W        W 7107  19.682  40.818   1.883
47572W        W 7108   7.358  44.316   2.754
47573W        W 7109   4.823  34.015  12.441
47574W        W 7110  29.474   3.363  12.826
47575W        W 7111  11.176   4.896   0.771
47576W        W 7112   4.877  29.515  12.075
47577W        W 7113  31.533  11.295  12.570
47578W        W 7114  38.456  17.086  12.457
47579W        W 7115  21.125  34.905   4.807
47580W        W 7116   3.743  28.993  13.916
47581W        W 7117   7.889  13.833   0.918
47582W        W 7118  40.378  18.571   1.699
47583W        W 7119  39.933  22.517   1.437
47584W        W 7120   2.777   2.226  12.371
47585W        W 7121  29.066  28.563  10.624
47586W        W 7122  32.604   0.950  12.044
47587W        W 7123  32.530  43.419   0.339
47588W        W 7124  23.496   6.770   3.216
47589W        W 7125  18.597  14.254   2.343
47590W        W 7126  29.637  26.613   1.332
47591W        W 7127   4.215  10.751   4.786
47592W        W 7128  35.080  29.056  12.553
47593W        W 7129  19.109  28.127   1.342
47594W        W 7130  14.625   3.405  13.007
47595W        W 7131   7.361  31.992   0.739
47596W        W 7132  35.436  12.854   2.678
47597W        W 7133  30.996  42.296   0.805
47598W        W 7134  19.229  34.991   2.330
47599W        W 7135   0.470  20.537   1.428
47600W        W 7136   0.827  37.986  13.964
47601W        W 7137  33.407   0.760   1.697
47602W        W 7138  35.002  10.155  11.402
47603W        W 7139   4.862  33.007  13.964
47604W        W 7140  25.496  25.537  14.907
47605W        W 7141  14.804   4.931  11.539
47606W        W 7142  31.125  30.566  10.433
47607W        W 7143  13.716  37.895  12.926
47608W        W 7144  37.925   4.428  12.872
47609W        W 7145   6.703  35.907   0.336
47610W        W 7146   0.249  21.263  11.487
47611W        W 7147  18.208  29.970  11.459
47612W        W 7148   8.360  29.084  12.994
47613W        W 7149  30.564   6.307   4.211
47614W        W 7150  38.048  43.804   4.160
47615W        W 7151  44.010  14.690  12.500
47616W        W 7152  22.171  23.046   2.185
47617W        W 7153   7.287  23.212  10.970
47618W        W 7154  20.593  10.743  10.539
47619W        W 7155  43.477  37.528  11.528
47620W        W 7156  23.108   4.317   2.268
47621W        W 7157  34.053  26.973  11.034
47622W        W 7158   3.218  31.930   2.890
47623W        W 7159   5.439  12.686  14.894
47624W        W 7160  35.392  29.042  13.314
47625W        W 7161  22.093  22.137  14.823
47626W        W 7162   9.273   2.913  13.450
47627W        W 7163  40.855  22.066  13.492
47628W        W 7164  42.281  14.289   3.377
47629W        W 7165  28.659  37.015  10.431
47630W        W 7166   2.278  35.043   4.343
47631W        W 7167  41.389   6.859   4.245
47632W        W 7168  14.331  41.900  14.487
47633W        W 7169  13.704   5.259   0.848
47634W        W 7170  14.337  21.544  11.577
47635W        W 7171  42.831  23.138  12.543
47636W        W 7172  30.945   3.729  14.855
47637W        W 7173  20.074  38.858   0.254
47638W        W 7174  29.925  28.611  12.960
47639W        W 7175  22.093  42.797  13.903
47640W        W 7176  42.887  12.126   2.204
47641W        W 7177   3.709   7.697  12.016
47642W        W 7178  41.863  25.187  14.922
47643W        W 7179   1.895   3.846  12.057
47644W        W 7180   6.813  29.597   2.832
47645W        W 7181  10.366  18.259   3.310
47646W        W 7182   3.385  38.379   0.888
47647W        W 7183  21.118  40.383   3.727
47648W        W 7184  21.519  14.197   2.895
47649W        W 7185  17.277  28.469   3.268
47650W        W 7186   6.287  24.041  13.833
47651W        W 7187   6.354   2.416   9.994
47652W        W 7188  28.022  38.890  10.558
47653W        W 7189  32.969  36.581   0.951
47654W        W 7190  28.618  37.470   4.618
47655W        W 7191  13.157   4.792  13.355
47656W        W 7192  28.636  22.208  12.995
47657W        W 7193  33.456  31.451   4.704
47658W        W 7194  12.811  38.569   2.888
47659W        W 7195   2.732  12.838  14.948
47660W        W 7196  33.022   2.933  14.434
47661W        W 7197   0.263  14.815  11.943
47662W        W 7198  40.462  18.661  10.923
47663W        W 7199  43.354  18.725  12.895
47664W        W 7200  29.071   1.807   2.901
47665W        W 7201  10.808  17.143  11.051
47666W        W 7202  32.514  42.294  14.483
47667W        W 7203  21.542  21.707   1.316
47668W        W 7204  14.638  42.972  14.940
47669W        W 7205   8.792  42.469  10.551
47670W        W 7206   2.439  21.725   4.676
47671W        W 7207  41.460  42.811  14.005
47672W        W 7208  15.774  37.954   2.704
47673W        W 7209  13.294  18.291  11.915
47674W        W 7210  37.048  41.419   4.731
47675W        W 7211  21.098  14.217  13.981
47676W        W 7212  29.146  27.014   5.619
47677W        W 7213  44.794   3.312   1.763
47678W        W 7214  16.082   0.445   1.321
47679W        W 7215  39.019   9.229   3.781
47680W        W 7216  43.861   6.427  10.452
47681W        W 7217   2.383  41.487   4.330
47682W        W 7218   0.320  15.628   0.761
47683W        W 7219  36.050  20.045  12.505
47684W        W 7220  27.464   3.390  13.802
47685W        W 7221  16.617  41.976  11.939
47686W        W 7222  37.336  38.503  13.020
47687W        W 7223  15.758   9.709   0.367
47688W        W 7224  28.563  24.001   2.842
47689W        W 7225  19.639  37.865   4.611
47690W        W 7226  40.340   9.310  14.857
47691W        W 7227  42.007  40.958  10.922
47692W        W 7228  43.911  33.475   0.271
47693W        W 7229  16.101  27.192   3.361
47694W        W 7230  21.017  12.358  13.807
47695W        W 7231  34.605  41.848   1.740
47696W        W 7232  20.239  26.179  11.495
47697W        W 7233  31.633  42.293   4.308
47698W        W 7234  24.553  23.651   3.696
47699W        W 7235   9.882  30.025  14.836
47700W        W 7236  18.166  31.564   0.916
47701W        W 7237   7.839  40.899   3.703
47702W        W 7238  15.315  40.933   2.182
47703W        W 7239  37.861  12.688   3.868
47704W        W 7240  11.778  19.559  12.063
47705W        W 7241  13.685  31.495   4.779
47706W        W 7242  14.272  10.330  10.895
47707W        W 7243  28.947  31.489  14.957
47708W        W 7244  33.474  20.131   4.807
47709W        W 7245   3.868  39.493  12.935
47710W        W 7246  35.925   9.200   2.846
47711W        W 7247   4.273   1.910  13.974
47712W        W 7248  25.530  16.590   9.924
47713W        W 7249  39.370  39.952   4.303
47714W        W 7250   7.196   3.933   2.409
47715W        W 7251   2.229   5.280  13.412
47716W        W 7252  18.245  15.318  13.402
47717W        W 7253  43.340   1.245   4.638
47718W        W 7254   3.886   4.713  12.986
47719W        W 7255  26.587  30.440   2.346
47720W        W 7256   0.875  18.703  13.039
47721W        W 7257  38.976  14.227  11.441
47722W        W 7258  13.789  37.966  14.362
47723W        W 7259  36.842  42.890  14.861
47724W        W 7260  43.949   3.328   4.831
47725W        W 7261  39.445  15.228   1.422
47726W        W 7262  43.397  24.174   2.881
47727W        W 7263  21.599  32.896   1.232
47728W        W 7264  29.651  26.473  13.474
47729W        W 7265  10.358  26.129  14.433
47730W        W 7266   8.229  23.117   1.879
47731W        W 7267  14.593   6.293  14.421
47732W        W 7268   1.251  19.055  12.874
47733W        W 7269  41.930  22.171   1.923
47734W        W 7270   0.887  43.831  13.462
47735W        W 7271  14.185   9.332  14.840
47736W        W 7272  38.877   3.763   2.272
47737W        W 7273  16.174   9.386  11.538
47738W        W 7274  29.475  42.467   3.860
47739W        W 7275  33.502  37.946  11.905
47740W        W 7276  20.135  30.047  13.957
47741W        W 7277  38.381  33.559   0.317
47742W        W 7278   8.780  41.887  14.483
47743W        W 7279  41.993  38.024   3.323
47744W        W 7280  22.518  19.676   0.927
47745W        W 7281  21.060  30.551  14.305
47746W        W 7282  37.548  14.185   2.194
47747W        W 7283   0.301  26.994  10.415
47748W        W 7284  23.162  44.994  13.348
47749W        W 7285  29.016  19.682   2.688
47750W        W 7286   3.766  14.220   3.825
47751W        W 7287  33.886  12.634  13.933
47752W        W 7288  33.128  18.715  14.835
47753W        W 7289  11.189  15.705  11.092
47754W        W 7290  21.536  13.660   1.822
47755W        W 7291  15.726   1.744   1.820
47756W        W 7292  11.255  23.582   1.804
47757W        W 7293  12.174   8.897   5.786
47758W        W 7294  41.814  18.593  13.027
47759W        W 7295  33.941  31.917  12.939
47760W        W 7296  30.503  35.443   1.346
47761W        W 7297  35.937  23.645  14.353
47762W        W 7298  19.200  40.437  11.972
47763W        W 7299  20.673  18.677   1.423
47764W        W 7300  18.778  18.114  13.875
47765W        W 7301  26.505  17.225   1.219
47766W        W 7302   6.746  44.327   1.437
47767W        W 7303  29.450  32.128   0.322
47768W        W 7304  36.065  11.307  13.824
47769W        W 7305  18.282  21.559   2.194
47770W        W 7306  44.389   7.678   2.745
47771W        W 7307  28.444  39.821   1.786
47772W        W 7308  23.177  30.032  11.910
47773W        W 7309  27.085  30.438  11.971
47774W        W 7310  20.768  23.073   3.183
47775W        W 7311  26.651   6.766  12.436
47776W        W 7312  25.144  33.383   1.213
47777W        W 7313  10.182  10.720   4.323
47778W        W 7314  18.731   2.737  11.458
47779W        W 7315  39.401  24.653  13.944
47780W        W 7316  18.168  25.657  13.442
47781W        W 7317   8.704  36.431  10.629
47782W        W 7318  33.038  17.755  13.045
47783W        W 7319  12.261  35.602  11.946
47784W        W 7320   9.341  32.970   2.269
47785W        W 7321  25.113  42.833   4.191
47786W        W 7322  22.227  40.889  14.349
47787W        W 7323  17.086  19.217  14.421
47788W        W 7324   3.941   6.680  11.466
47789W        W 7325  31.120  10.336  13.859
47790W        W 7326  17.684  40.362   0.957
47791W        W 7327   8.266   8.212   2.783
47792W        W 7328  17.573   0.860  11.042
47793W        W 7329  37.047  30.002   1.425
47794W        W 7330   3.369  42.897   5.221
47795W        W 7331  27.621  43.800   3.854
47796W        W 7332  12.750  20.273   0.437
47797W        W 7333  28.018   9.747   1.790
47798W        W 7334  15.122  10.800  12.481
47799W        W 7335  33.011  16.688  10.479
47800W        W 7336  23.108  22.645   3.842
47801W        W 7337  18.670  44.762   4.677
47802W        W 7338  32.452   8.809  14.489
47803W        W 7339  32.427   2.880  12.957
47804W        W 7340   0.977  44.378   4.638
47805W        W 7341  14.139  23.543  11.961
47806W        W 7342   4.413  23.697   2.267
47807W        W 7343  34.512  23.040   4.138
47808W        W 7344  16.247  19.155   1.304
47809W        W 7345  42.990  16.752  13.918
47810W        W 7346  18.152   2.265  11.923
47811W        W 7347   7.693  29.938   0.790
47812W        W 7348  14.702  41.387  12.934
47813W        W 7349   8.875  33.953   1.914
47814W        W 7350  38.966  11.622   1.298
47815W        W 7351  35.018  25.969   2.731
47816W        W 7352  14.828  32.099  12.988
47817W        W 7353  32.478  12.267  11.123
47818W        W 7354  29.026  15.236   4.138
47819W        W 7355  17.587  23.697   0.287
47820W        W 7356  14.319  12.239   1.371
47821W        W 7357  30.077   7.301   4.277
47822W        W 7358   0.412  10.778   2.803
47823W        W 7359   5.865  35.916   3.328
47824W        W 7360  11.162  16.724   3.217
47825W        W 7361  34.930  32.921  11.401
47826W        W 7362   0.450  40.823   2.827
47827W        W 7363  29.986  12.749  11.962
47828W        W 7364  10.375  31.584  14.987
47829W        W 7365  13.792   9.694   1.904
47830W        W 7366  20.191  31.929  10.546
47831W        W 7367  41.030   3.788  11.056
47832W        W 7368  35.416  25.992   5.302
47833W        W 7369  19.108  24.128  13.830
47834W        W 7370  44.402  40.496  10.133
47835W        W 7371  38.400  40.006  12.027
47836W        W 7372  31.113  43.387   1.261
47837W        W 7373  32.123   8.305  11.112
47838W        W 7374  31.900   7.885   0.945
47839W        W 7375   0.486  38.002   2.790
47840W        W 7376   6.894  29.649  14.462
47841W        W 7377  44.485  25.627   3.350
47842W        W 7378  17.184  27.022  11.048
47843W        W 7379  29.997  34.553  14.338
47844W        W 7380  25.560  13.760   2.276
47845W        W 7381  36.592  17.147   0.412
47846W        W 7382  13.759  40.037   2.233
47847W        W 7383  24.545  41.873   3.295
47848W        W 7384  12.721  34.539   3.313
47849W        W 7385  42.317  29.043   1.830
47850W        W 7386  26.997  12.117   4.797
47851W        W 7387  33.593  37.885   3.798
47852W        W 7388  32.420  26.025   3.383
47853W        W 7389   5.802  42.423   0.946
47854W        W 7390  17.660   1.249   1.365
47855W        W 7391  12.629  12.853   4.768
47856W        W 7392   6.866   3.237   4.217
47857W        W 7393  18.156   8.728   4.204
47858W        W 7394  17.683   1.748   3.851
47859W        W 7395  26.005  19.189   1.392
47860W        W 7396  18.200  43.442  11.981
47861W        W 7397  44.762  16.300   0.818
47862W        W 7398  30.429  40.461  13.010
47863W        W 7399  13.236  41.513  12.530
47864W        W 7400  19.058  44.482  12.387
47865W        W 7401   9.227   3.222  13.815
47866W        W 7402  28.098  10.639  10.573
47867W        W 7403  18.108  21.192   0.796
47868W        W 7404  32.424  31.622  14.874
47869W        W 7405  14.628  20.659  11.464
47870W        W 7406   5.252  34.869   0.846
47871W        W 7407  14.688   9.167   4.293
47872W        W 7408  18.676  34.540   9.992
47873W        W 7409  41.793   8.880  12.404
47874W        W 7410   7.727  34.084   4.161
47875W        W 7411   9.230  22.649   0.853
47876W        W 7412  17.753   3.954   0.482
47877W        W 7413   5.278  25.657  10.494
47878W        W 7414   0.378  40.855  14.275
47879W        W 7415   8.215   2.324   2.874
47880W        W 7416  16.178  37.017  13.052
47881W        W 7417  18.123  17.182   5.195
47882W        W 7418  39.998   9.761   3.178
47883W        W 7419  15.771   6.366   0.771
47884W        W 7420  36.532  39.064   3.743
47885W        W 7421  16.210  42.857  12.558
47886W        W 7422  33.395   3.231  14.774
47887W        W 7423  39.025  18.118  13.425
47888W        W 7424  25.669  38.000  13.315
47889W        W 7425  20.251  32.967   1.407
47890W        W 7426   6.212  12.740   3.866
47891W        W 7427  37.417  23.165  13.862
47892W        W 7428   4.236  12.658   1.283
47893W        W 7429   7.262   3.363   0.390
47894W        W 7430   2.789  30.051   5.101
47895W        W 7431  44.833   5.808   2.294
47896W        W 7432  44.447  31.062   3.640
47897W        W 7433  31.108  10.656   2.305
47898W        W 7434  33.489  29.089   3.353
47899W        W 7435  43.400  13.350   1.827
47900W        W 7436   1.831  42.894  11.512
47901W        W 7437  17.183  23.038  11.912
47902W        W 7438  17.129  13.655  11.898
47903W        W 7439  22.599  17.066   3.843
47904W        W 7440  35.585  31.030  14.848
47905W        W 7441   4.232  37.927   1.388
47906W        W 7442  12.317  33.560  12.990
47907W        W 7443   1.379  14.596  14.868
47908W        W 7444   4.803  36.955   3.651
47909W        W 7445  44.769  38.375   2.275
47910W        W 7446  19.246   8.852  10.496
47911W        W 7447  24.566  11.860  13.360
47912W        W 7448  39.063   5.384  14.851
47913W        W 7449  13.318  20.253   2.361
47914W        W 7450  38.488  42.321   3.283
47915W        W 7451  43.910   8.163  12.527
47916W        W 7452  15.088   7.892  14.363
47917W        W 7453  42.352  29.578   0.273
47918W        W 7454   7.905  25.712   5.185
47919W        W 7455  31.993  13.728  14.408
47920W        W 7456  31.143  40.890   3.637
47921W        W 7457  27.452  39.331   2.249
47922W        W 7458   7.737  29.121   4.300
47923W        W 7459   7.330  41.921   3.849
47924W        W 7460   4.742  17.299   0.428
47925W        W 7461  30.960   2.425  12.929
47926W        W 7462   3.456  36.429   5.294
47927W        W 7463  44.943  38.507  11.391
47928W        W 7464  34.073  26.642  12.024
47929W        W 7465  38.519  18.552  10.935
47930W        W 7466  25.473  44.322  12.906
47931W        W 7467  30.625  34.482   4.132
47932W        W 7468  14.727  41.513   3.385
47933W        W 7469  17.563   1.765   1.224
47934W        W 7470   7.789   9.879  11.923
47935W        W 7471  29.990  18.209  12.844
47936W        W 7472   5.389  17.065  12.033
47937W        W 7473  23.733  36.412  12.869
47938W        W 7474  10.346  23.992   0.785
47939W        W 7475   2.758   5.827  13.326
47940W        W 7476  27.540  44.964   4.132
47941W        W 7477   6.728  16.107   2.781
47942W        W 7478  34.115   2.353   0.747
47943W        W 7479  23.155  29.973   1.918
47944W        W 7480  13.750   3.296   0.298
47945W        W 7481  31.523  31.150   0.770
47946W        W 7482  29.523  28.546  14.849
47947W        W 7483  13.804  10.878   4.708
47948W        W 7484  30.062  26.561  14.295
47949W        W 7485  10.286  26.955   0.383
47950W        W 7486  33.437  36.584   4.138
47951W        W 7487  28.131   8.764   2.303
47952W        W 7488  42.504  11.245   5.210
47953W        W 7489   9.822  39.522  14.481
47954W        W 7490  12.647  30.462   0.754
47955W        W 7491   7.804  22.024   3.819
47956W        W 7492   7.826  34.574   0.966
47957W        W 7493   5.224   7.369  13.372
47958W        W 7494  35.039  14.711   1.724
47959W        W 7495  38.946  24.020   4.743
47960W        W 7496  37.049  20.684  13.802
47961W        W 7497  15.821   1.769  11.114
47962W        W 7498  22.234   3.314  12.993
47963W        W 7499  34.406  28.564   2.798
47964W        W 7500  39.418  28.498   3.314
47965W        W 7501  19.180  20.066   0.399
47966W        W 7502  41.445   5.881  14.466
47967W        W 7503  34.030  26.581   5.231
47968W        W 7504  21.194  33.588  10.427
47969W        W 7505   6.677  18.560  14.979
47970W        W 7506  16.727  21.218  12.045
47971W        W 7507   8.166  15.743   4.114
47972W        W 7508  12.837  43.991   3.826
47973W        W 7509  43.303  11.238   1.359
47974W        W 7510  39.950  40.302   2.349
47975W        W 7511  36.409  32.436   1.745
47976W        W 7512  16.231  20.692  10.638
47977W        W 7513  15.772  44.413   5.255
47978W        W 7514  15.757  33.529   4.637
47979W        W 7515  37.944  15.583   1.311
47980W        W 7516  30.921   2.740   1.326
47981W        W 7517  35.999  24.577   3.323
47982W        W 7518  31.529  28.023   3.841
47983W        W 7519  23.648  30.127   4.683
47984W        W 7520   2.823  14.247  12.526
47985W        W 7521  15.285  17.669   1.918
47986W        W 7522   1.316  44.418  10.965
47987W        W 7523   8.731  14.767  14.280
47988W        W 7524   5.865  36.016   0.333
47989W        W 7525  41.959  30.095   3.369
47990W        W 7526  32.426  28.580  12.362
47991W        W 7527  17.149   4.895   3.655
47992W        W 7528  19.748  43.938   4.677
47993W        W 7529  16.193  25.056  11.887
47994W        W 7530  22.661  41.874   4.622
47995W        W 7531  34.559  21.637  13.065
47996W        W 7532  37.369  21.236   2.228
47997W        W 7533  38.363  15.754   9.926
47998W        W 7534  17.154  38.057  11.129
47999W        W 7535  32.523  40.512   1.721
48000W        W 7536  32.007   0.866  11.576
48001W        W 7537  36.535  30.433   5.252
48002W        W 7538  31.555  15.139   2.386
48003W        W 7539  12.846  36.843   1.873
48004W        W 7540  19.045  42.825   4.146
48005W        W 7541  24.203  44.503   0.755
48006W        W 7542  12.666   6.831  12.043
48007W        W 7543  31.147  34.419   0.285
48008W        W 7544  14.098  43.835   4.756
48009W        W 7545  32.989  31.055  13.962
48010W        W 7546  44.283  13.214   2.759
48011W        W 7547  27.642  34.459  11.436
48012W        W 7548   4.299  39.845   2.864
48013W        W 7549  24.164  13.617   2.248
48014W        W 7550  35.367  26.098   1.741
48015W        W 7551  13.709  26.184  12.018
48016W        W 7552  32.610  14.330  13.864
48017W        W 7553   4.838  37.509  13.438
48018W        W 7554  14.749   7.305  10.936
48019W        W 7555   8.364  18.193  11.600
48020W        W 7556  20.613  42.942   4.160
48021W        W 7557   0.882  14.754   1.408
48022W        W 7558  26.462  23.240  11.861
48023W        W 7559  31.583   8.829  12.869
48024W        W 7560  43.452  18.783  13.313
48025W        W 7561  44.282  20.179  12.491
48026W        W 7562   2.391  36.049   2.393
48027W        W 7563  27.637   5.691  11.867
48028W        W 7564   9.254  40.823  12.445
48029W        W 7565  20.150  44.901  10.999
48030W        W 7566  23.109  20.038  12.078
48031W        W 7567  31.508  26.488   3.246
48032W        W 7568  23.050  21.693  12.830
48033W        W 7569  18.614  24.647  14.347
48034W        W 7570  16.289  35.961   1.359
48035W        W 7571  43.392   3.433  10.905
48036W        W 7572  21.084  23.496   1.912
48037W        W 7573   2.847  40.338   4.119
48038W        W 7574  16.209  10.636  12.361
48039W        W 7575  34.608   4.709  10.135
48040W        W 7576  25.163   1.961   4.194
48041W        W 7577  41.466   1.256  12.909
48042W        W 7578  42.995  12.649  12.550
48043W        W 7579  35.076  39.822   3.383
48044W        W 7580  35.553  12.751  12.040
48045W        W 7581  38.028  21.740  12.526
48046W        W 7582  33.417  21.656   0.378
48047W        W 7583   7.907  12.630   0.871
48048W        W 7584  30.570  13.657   0.317
48049W        W 7585   4.846  31.081  10.136
48050W        W 7586   9.651  41.457  12.555
48051W        W 7587  23.171  43.473  10.552
48052W        W 7588   6.707  40.005   2.850
48053W        W 7589  34.390  30.607  10.626
48054W        W 7590  37.926   2.853   1.726
48055W        W 7591   5.755  42.959  13.443
48056W        W 7592  27.636  31.017   4.627
48057W        W 7593  39.560  27.176  12.884
48058W        W 7594   6.706   3.389  10.997
48059W        W 7595   8.740  35.564   2.711
48060W        W 7596  22.670  19.569  13.044
48061W        W 7597  40.349  17.707   2.244
48062W        W 7598  38.558  26.598   4.354
48063W        W 7599   4.725  31.068   3.176
48064W        W 7600  40.932  29.122   0.930
48065W        W 7601  16.108  36.569  10.969
48066W        W 7602   9.165  26.029   0.333
48067W        W 7603  24.990  23.049  11.485
48068W        W 7604  38.355   5.336   1.864
48069W        W 7605  34.922  37.042   1.277
48070W        W 7606  22.249  42.890   0.952
48071W        W 7607  34.114  42.788  10.609
48072W        W 7608   7.264  29.161  13.424
48073W        W 7609  24.151  11.185   4.145
48074W        W 7610  14.599  44.932   0.864
48075W        W 7611  27.665   4.905  13.021
48076W        W 7612  10.246  43.855   1.327
48077W        W 7613  17.726   0.833  10.619
48078W        W 7614  19.547  19.664   1.839
48079W        W 7615   5.222  41.315   3.272
48080W        W 7616  30.460  34.465   0.849
48081W        W 7617  38.916  38.390  12.429
48082W        W 7618   5.897  19.137   2.299
48083W        W 7619  12.149  10.724   2.248
48084W        W 7620  26.182  16.585  13.024
48085W        W 7621  33.892  32.037  10.037
48086W        W 7622   2.269  18.787  11.600
48087W        W 7623  12.350   7.865  13.413
48088W        W 7624  22.239  14.193   2.681
48089W        W 7625   9.212  42.908   4.656
48090W        W 7626  18.178  16.781   0.732
48091W        W 7627  12.150  12.658   1.891
48092W        W 7628  17.781  32.053   1.903
48093W        W 7629   5.307   1.907   5.263
48094W        W 7630  12.294  17.064  14.792
48095W        W 7631   1.469  37.470  13.380
48096W        W 7632  31.985  26.054  13.381
48097W        W 7633  14.661   5.927  13.905
48098W        W 7634   3.237   9.844  13.418
48099W        W 7635  13.808   2.365  11.009
48100W        W 7636  17.779  37.572   3.372
48101W        W 7637  38.906  10.810   4.684
48102W        W 7638  33.421   8.266  14.328
48103W        W 7639  14.310  10.771  10.408
48104W        W 7640  18.619  42.858  11.567
48105W        W 7641  14.602  41.500   4.826
48106W        W 7642  25.125   3.937  10.554
48107W        W 7643  27.479  11.650   0.830
48108W        W 7644  37.980  42.970   4.799
48109W        W 7645  19.728  16.309   2.734
48110W        W 7646  39.987  43.856   4.774
48111W        W 7647  36.515  31.528  14.461
48112W        W 7648   6.306  44.439   0.840
48113W        W 7649  36.927  37.043   3.364
48114W        W 7650  41.412  25.195   0.928
48115W        W 7651  23.045  44.754  11.433
48116W        W 7652   0.967  21.549  12.461
48117W        W 7653   4.319  10.805   4.133
48118W        W 7654   5.325   0.936  12.419
48119W        W 7655  37.033  22.036  11.403
48120W        W 7656  14.124  21.106  10.623
48121W        W 7657  12.261  21.518  13.498
48122W        W 7658  12.325  13.838   2.903
48123W        W 7659  11.184  22.509   4.159
48124W        W 7660   0.271  42.921  14.493
48125W        W 7661  10.219  24.097  14.495
48126W        W 7662  42.976   4.886  10.057
48127W        W 7663   3.331  30.966  11.027
48128W        W 7664   2.956  42.417   1.893
48129W        W 7665  22.722  12.645  13.858
48130W        W 7666   4.297  26.088   1.440
48131W        W 7667  32.017  15.748  13.858
48132W        W 7668  20.072  34.087   2.372
48133W        W 7669   7.196  25.202  10.974
48134W        W 7670  27.156   5.222   1.921
48135W        W 7671   0.367  17.561   2.725
48136W        W 7672  26.194  40.513   0.354
48137W        W 7673   1.835  21.572  13.060
48138W        W 7674  23.713  44.878  10.471
48139W        W 7675  28.953  17.685   3.227
48140W        W 7676  36.504  24.583   2.850
48141W        W 7677  14.656  30.916  12.551
48142W        W 7678  16.233  11.155   2.784
48143W        W 7679  20.126   6.282  10.611
48144W        W 7680  10.670  29.139  13.950
48145W        W 7681  10.148   0.803  14.410
48146W        W 7682  16.094  43.366  13.409
48147W        W 7683  18.791  43.979   4.227
48148W        W 7684   8.720   7.699   4.266
48149W        W 7685  19.767   8.781   2.894
48150W        W 7686  21.167  44.969  12.368
48151W        W 7687  26.131  28.652   2.824
48152W        W 7688  22.504  12.757  11.864
48153W        W 7689  32.565   5.861   2.351
48154W        W 7690  13.224  39.833   1.260
48155W        W 7691  39.524  36.507  14.496
48156W        W 7692   4.725  22.094  12.931
48157W        W 7693  10.776  28.048  13.840
48158W        W 7694   8.754  20.031  11.432
48159W        W 7695  36.393   9.719   1.714
48160W        W 7696  39.973  11.138   0.898
48161W        W 7697  29.983  37.962  13.536
48162W        W 7698   0.371   3.798  11.951
48163W        W 7699   0.802   6.850   1.818
48164W        W 7700  37.057   3.281   2.308
48165W        W 7701  27.995  11.236   0.466
48166W        W 7702  21.661   9.805   4.298
48167W        W 7703   4.920  14.133   5.223
48168W        W 7704  11.159  44.481   4.774
48169W        W 7705  44.459  35.057  13.481
48170W        W 7706  27.174  32.394  14.013
48171W        W 7707  28.671  25.991   4.618
48172W        W 7708  42.869   5.206  11.991
48173W        W 7709  15.588  15.582   4.171
48174W        W 7710  15.688  31.620   1.229
48175W        W 7711  33.534  20.664   2.205
48176W        W 7712  34.937  36.919  11.129
48177W        W 7713  10.193  40.907  11.086
48178W        W 7714  30.023  18.641   3.718
48179W        W 7715  12.826  34.864   3.356
48180W        W 7716  13.701  30.927   3.383
48181W        W 7717  36.953  30.583   2.238
48182W        W 7718   2.430  31.066  13.932
48183W        W 7719  37.520  21.073   1.726
48184W        W 7720  42.450  25.180   1.833
48185W        W 7721  38.865  41.401   1.824
48186W        W 7722  12.662  34.522   4.617
48187W        W 7723  38.856  15.162   3.631
48188W        W 7724   7.292  35.557   4.120
48189W        W 7725  40.939  29.958   0.294
48190W        W 7726  33.093  30.079   3.305
48191W        W 7727  25.643  17.565   0.383
48192W        W 7728  21.519  26.580   3.204
48193W        W 7729  12.165   6.262   0.955
48194W        W 7730  39.947  34.421  14.999
48195W        W 7731  20.666  34.089   0.840
48196W        W 7732  29.098  29.089  10.528
48197W        W 7733   6.197  44.361   4.346
48198W        W 7734   2.765  13.281   1.305
48199W        W 7735  24.658  15.248   2.721
48200W        W 7736   6.915   8.377  10.457
48201W        W 7737  12.339   6.855   3.345
48202W        W 7738   5.208  17.802   4.635
48203W        W 7739  25.557  28.448  13.347
48204W        W 7740  19.649  39.338  10.590
48205W        W 7741  35.942  27.193  13.063
48206W        W 7742  10.220   7.293   3.380
48207W        W 7743  13.797   0.827  14.761
48208W        W 7744  44.307  20.682   1.340
48209W        W 7745  34.977  26.693  14.895
48210W        W 7746  31.074  40.906   4.278
48211W        W 7747  10.210  35.079  12.448
48212W        W 7748  24.666   1.854   3.766
48213W        W 7749  44.882  30.144  13.025
48214W        W 7750  43.772  24.532  13.995
48215W        W 7751  28.069  14.266  10.468
48216W        W 7752  27.059  23.014  14.875
48217W        W 7753  36.517  32.060  11.381
48218W        W 7754  16.290  35.495   1.383
48219W        W 7755  37.374  41.885   4.789
48220W        W 7756   2.838   2.315  13.952
48221W        W 7757  31.912  38.543   1.710
48222W        W 7758  34.471   7.194  11.458
48223W        W 7759  13.815   3.910  12.453
48224W        W 7760   0.366  33.129  14.792
48225W        W 7761   5.273  23.512  14.028
48226W        W 7762  39.954  20.534  14.822
48227W        W 7763   3.414  13.175  14.916
48228W        W 7764  30.453  40.997  12.580
48229W        W 7765  21.093  25.651  11.082
48230W        W 7766   4.875   1.950   2.343
48231W        W 7767   4.738  11.233  13.518
48232W        W 7768  43.365  13.824   1.365
48233W        W 7769  27.124   3.295   4.293
48234W        W 7770  43.495   8.311   3.363
48235W        W 7771   3.734  20.139   2.869
48236W        W 7772  37.546  16.269   3.690
48237W        W 7773   6.372   8.392  14.482
48238W        W 7774  32.100  39.401   4.141
48239W        W 7775  42.504  26.463  14.285
48240W        W 7776   5.206   2.738  10.892
48241W        W 7777  38.567  10.768  14.026
48242W        W 7778  34.529  30.162   2.395
48243W        W 7779  34.452  28.111  12.468
48244W        W 7780  24.049  17.194   0.770
48245W        W 7781   6.373   5.770  12.026
48246W        W 7782  38.020  31.091   0.897
48247W        W 7783   5.928  17.149   1.836
48248W        W 7784  12.780  27.618  14.821
48249W        W 7785  32.558  39.010  10.482
48250W        W 7786   7.677   4.290   2.881
48251W        W 7787   2.884  38.408   3.770
48252W        W 7788  27.134   1.259   4.149
48253W        W 7789  16.653   4.767   3.321
48254W        W 7790   3.761  25.563   5.623
48255W        W 7791  14.826  21.124  12.079
48256W        W 7792  42.300  21.214   0.733
48257W        W 7793  37.388  29.144   2.335
48258W        W 7794  20.169  19.256  14.338
48259W        W 7795  40.853  41.354  13.548
48260W        W 7796  32.467  35.371  14.377
48261W        W 7797  11.172  37.846  13.822
48262W        W 7798  38.521  32.932  12.025
48263W        W 7799  25.983  22.682   5.171
48264W        W 7800  14.714   2.737  14.327
48265W        W 7801   2.306  42.363  14.024
48266W        W 7802  41.041  37.573  11.052
48267W        W 7803  20.190  26.675   0.847
48268W        W 7804   1.934   3.356  13.998
48269W        W 7805  35.592  30.093  13.818
48270W        W 7806  28.660  18.664  10.513
48271W        W 7807  30.051   2.232  11.960
48272W        W 7808   4.342  19.095  14.025
48273W        W 7809  39.416  28.472   2.226
48274W        W 7810  43.875  43.812  13.845
48275W        W 7811  44.430  34.061   3.774
48276W        W 7812   5.878   0.490   1.356
48277W        W 7813   3.327   2.252  11.888
48278W        W 7814  15.746  13.651   2.265
48279W        W 7815  39.474   5.915   3.365
48280W        W 7816   5.901  37.993   0.396
48281W        W 7817  41.423  41.434   4.294
48282W        W 7818  34.535   5.396  10.957
48283W        W 7819  23.052  28.153  10.971
48284W        W 7820  37.997  37.834   0.348
48285W        W 7821  41.896  27.456   1.335
48286W        W 7822  42.849  44.007   3.826
48287W        W 7823  40.998  27.961   0.855
48288W        W 7824  17.243   7.184   4.328
48289W        W 7825  24.216  33.931   1.901
48290W        W 7826  31.901   5.882   4.604
48291W        W 7827  30.949  35.021   3.222
48292W        W 7828  28.455  22.093  11.518
48293W        W 7829  20.529  10.754  11.528
48294W        W 7830  27.468   3.740  11.062
48295W        W 7831  40.031   1.759   4.698
48296W        W 7832  12.248  15.640   3.823
48297W        W 7833  27.059  14.618   1.435
48298W        W 7834  20.175  21.594  10.639
48299W        W 7835  34.034  30.617  11.000
48300W        W 7836  31.583  10.707   3.259
48301W        W 7837   9.875   6.424   1.246
48302W        W 7838  40.044  44.906  12.026
48303W        W 7839  16.079  42.409   2.313
48304W        W 7840  37.896  27.942  13.319
48305W        W 7841   4.418   2.415   4.695
48306W        W 7842   9.162   3.246  12.562
48307W        W 7843  21.591  44.438  14.293
48308W        W 7844  23.162   9.376  12.054
48309W        W 7845   7.214  38.978   3.777
48310W        W 7846  26.639  30.644   0.325
48311W        W 7847   6.205  14.824   3.252
48312W        W 7848  15.283  33.875  12.027
48313W        W 7849  31.430  26.087   1.931
48314W        W 7850   6.233  23.697   3.175
48315W        W 7851  44.870  12.198  13.526
48316W        W 7852  31.547   3.903  13.046
48317W        W 7853  35.054   5.366   0.946
48318W        W 7854  20.158  28.481  11.011
48319W        W 7855  21.711  22.600  10.420
48320W        W 7856   5.695   0.382   2.408
48321W        W 7857  22.593  38.480   2.203
48322W        W 7858  13.347  43.016   1.926
48323W        W 7859  42.984   5.373   1.779
48324W        W 7860  18.058  23.117   2.296
48325W        W 7861   3.384  18.779  11.903
48326W        W 7862  31.054  10.657  12.855
48327W        W 7863  14.115  29.602  11.869
48328W        W 7864   8.732  40.891  12.563
48329W        W 7865   4.802  41.926   2.696
48330W        W 7866  24.550  16.602  13.483
48331W        W 7867  38.470  11.671  11.524
48332W        W 7868  17.666  34.110  11.487
48333W        W 7869  44.418   9.681   2.740
48334W        W 7870  25.168  10.752  10.570
48335W        W 7871   2.725   6.825  14.880
48336W        W 7872  13.239  34.440  11.058
48337W        W 7873  27.009   0.813  11.939
48338W        W 7874  26.163   5.795   1.912
48339W        W 7875  21.529  21.262  14.376
48340W        W 7876   5.198  18.111   4.743
48341W        W 7877  20.069  11.777  13.426
48342W        W 7878  37.836  17.229  10.520
48343W        W 7879  27.652  36.426   0.881
48344W        W 7880  32.942   4.431   1.451
48345W        W 7881  41.844  19.574   3.761
48346W        W 7882   4.774   1.852   0.749
48347W        W 7883   8.224   2.366  14.973
48348W        W 7884  32.035   4.437   3.641
48349W        W 7885  16.689   7.752  11.126
48350W        W 7886  22.179  41.999   3.298
48351W        W 7887  43.958  40.388  11.042
48352W        W 7888  42.329   8.386  14.927
48353W        W 7889  31.984   0.354  14.309
48354W        W 7890  10.774  25.987  11.983
48355W        W 7891  31.020   7.255   1.405
48356W        W 7892  35.905   5.746  10.503
48357W        W 7893  29.002  20.228   2.726
48358W        W 7894   5.750  21.187   2.197
48359W        W 7895  40.463   1.844   0.901
48360W        W 7896  42.813  29.505   4.244
48361W        W 7897  23.544   9.320   0.955
48362W        W 7898  34.934  36.899  14.402
48363W        W 7899  42.509  38.056   2.762
48364W        W 7900   7.212  14.311  13.914
48365W        W 7901  35.934  11.747  11.025
48366W        W 7902   7.196  42.955  14.479
48367W        W 7903  24.662  15.148   4.312
48368W        W 7904   6.309  10.254  13.462
48369W        W 7905  28.061  36.857   4.608
48370W        W 7906  11.709   8.327   5.195
48371W        W 7907   4.794   0.405  12.491
48372W        W 7908  41.881  27.094   1.278
48373W        W 7909  33.046  35.520   0.355
48374W        W 7910  34.094  30.953   2.802
48375W        W 7911  10.186   3.223   4.645
48376W        W 7912  31.629  40.874  12.913
48377W        W 7913   8.267   5.315   2.859
48378W        W 7914  34.543  10.657  11.468
48379W        W 7915  12.295   5.694   4.750
48380W        W 7916  42.469   5.432  10.408
48381W        W 7917   3.375  22.195  12.916
48382W        W 7918  22.030  25.550  14.885
48383W        W 7919  10.697  32.535  14.336
48384W        W 7920  28.932  22.108  11.426
48385W        W 7921  43.861  36.527  14.403
48386W        W 7922  34.022   6.315   3.643
48387W        W 7923  38.919  15.628   0.250
48388W        W 7924  26.175  31.537   4.228
48389W        W 7925  28.098   6.857  10.962
48390W        W 7926  20.168  15.746  14.915
48391W        W 7927  28.500  34.502  14.397
48392W        W 7928  38.369   2.259   5.094
48393W        W 7929  18.551  34.871   4.599
48394W        W 7930  32.441   9.375   2.263
48395W        W 7931  36.064  13.841  11.977
48396W        W 7932  22.240   6.790   1.406
48397W        W 7933  22.075  14.612  10.595
48398W        W 7934  31.407  25.595   2.408
48399W        W 7935  35.468  13.826   4.175
48400W        W 7936  26.123  24.078   4.210
48401W        W 7937  44.495   7.244  13.507
48402W        W 7938  44.947   5.389   4.687
48403W        W 7939  20.266  43.966  12.451
48404W        W 7940  38.438  19.152  13.914
48405W        W 7941  21.109  36.360   9.502
48406W        W 7942   0.391  19.115  10.979
48407W        W 7943   3.345  32.479   2.888
48408W        W 7944  34.488   1.285  14.005
48409W        W 7945  33.949   4.774   4.263
48410W        W 7946  17.157  16.112   4.814
48411W        W 7947  34.476  44.855   3.724
48412W        W 7948   5.782  28.034   2.702
48413W        W 7949  22.659  36.511  13.452
48414W        W 7950  34.372   7.908   1.865
48415W        W 7951   2.886  11.759   3.815
48416W        W 7952  37.907  14.591   3.819
48417W        W 7953  14.171   8.165  13.883
48418W        W 7954  26.967  21.228  12.465
48419W        W 7955  32.557  38.551  11.538
48420W        W 7956  31.583  42.500   2.797
48421W        W 7957  22.051  14.339  12.461
48422W        W 7958  14.808   5.364   4.831
48423W        W 7959  43.502   4.212   4.251
48424W        W 7960  40.504  29.563   3.648
48425W        W 7961  32.527   5.890   2.710
48426W        W 7962   0.894   6.332  10.494
48427W        W 7963  17.132  16.219   1.293
48428W        W 7964  20.657   7.395  11.917
48429W        W 7965  39.865  36.450   1.390
48430W        W 7966  40.861   4.416  12.408
48431W        W 7967  39.465  10.282   4.167
48432W        W 7968  37.042  36.474   3.714
48433W        W 7969  31.152  41.862  13.987
48434W        W 7970  21.703  32.532   0.780
48435W        W 7971  26.009   2.275   0.779
48436W        W 7972  42.875   5.251  14.316
48437W        W 7973  40.926  16.152  12.067
48438W        W 7974  35.376  33.561   0.965
48439W        W 7975  25.560  44.491   2.352
48440W        W 7976  38.424  20.046  11.608
48441W        W 7977  14.196  28.972   2.678
48442W        W 7978  26.506  32.962   2.264
48443W        W 7979  13.676  20.108  14.789
48444W        W 7980  26.656   8.339   4.199
48445W        W 7981  12.760   6.776  13.315
48446W        W 7982  19.678   0.397   4.650
48447W        W 7983  16.302  15.802   0.959
48448W        W 7984  38.429  32.579   0.965
48449W        W 7985   4.900   7.894  10.542
48450W        W 7986   0.334  11.639  12.485
48451W        W 7987  35.466  35.560  11.901
48452W        W 7988  40.470   4.849  12.092
48453W        W 7989  11.745  20.240   3.760
48454W        W 7990  41.298  27.025   2.240
48455W        W 7991   9.311   5.910   2.744
48456W        W 7992  17.183  22.683   5.226
48457W        W 7993  13.657  13.641  10.534
48458W        W 7994  42.356  15.125   2.243
48459W        W 7995  13.791  18.220   0.266
48460W        W 7996   9.352  21.025  11.035
48461W        W 7997  16.216  44.271  10.601
48462W        W 7998  31.404   2.911   2.239
48463W        W 7999  18.241   0.448   0.263
48464W        W 8000  15.798  26.656   3.175
48465W        W 8001   4.265  14.335  13.347
48466W        W 8002  40.808  18.548   3.292
48467W        W 8003   0.275  38.915  13.988
48468W        W 8004  19.194  14.639   1.736
48469W        W 8005   7.248  20.139   0.382
48470W        W 8006   5.735  13.138   1.732
48471W        W 8007   7.731  24.059   4.631
48472W        W 8008  15.778   8.832   2.718
48473W        W 8009  13.651  25.072  14.450
48474W        W 8010  24.041  12.778  12.915
48475W        W 8011  43.306  25.562   2.365
48476W        W 8012  31.514  42.346  14.501
48477W        W 8013  24.209  44.343  10.060
48478W        W 8014   3.302  13.846   1.261
48479W        W 8015  11.142   7.720   1.916
48480W        W 8016  33.572  26.176   0.746
48481W        W 8017  11.211   9.845  13.982
48482W        W 8018  39.340  43.794   1.432
48483W        W 8019  10.329  39.980  12.520
48484W        W 8020   1.325  33.442   0.413
48485W        W 8021   8.203  16.233  14.323
48486W        W 8022  15.223  29.126   1.414
48487W        W 8023  44.276  27.622  14.307
48488W        W 8024   6.316  14.681  11.399
48489W        W 8025   8.738  39.467  14.777
48490W        W 8026  30.910  37.470  12.481
48491W        W 8027   9.248  19.166   2.678
48492W        W 8028  15.155  30.426   4.757
48493W        W 8029   1.312   0.984  11.867
48494W        W 8030  38.482   8.692  12.578
48495W        W 8031  39.436  36.409   0.745
48496W        W 8032  24.212  21.630   2.864
48497W        W 8033  21.551  21.534  11.537
48498W        W 8034  24.574  22.567   9.988
48499W        W 8035  37.475  28.552  11.563
48500W        W 8036  39.859  33.897  14.432
48501W        W 8037  26.112  31.954   4.313
48502W        W 8038  36.857  32.963  13.451
48503W        W 8039  27.946   4.744   9.939
48504W        W 8040   4.784   0.835   2.761
48505W        W 8041  11.247  44.845  11.392
48506W        W 8042  26.549  26.060   4.749
48507W        W 8043  10.176  38.539   2.830
48508W        W 8044  34.418   3.930  12.387
48509W        W 8045   3.310   7.818  12.395
48510W        W 8046   8.397  10.662  13.524
48511W        W 8047  41.017  11.217   4.178
48512W        W 8048  30.614  43.988   1.371
48513W        W 8049  38.902   7.302   1.901
48514W        W 8050   9.391  11.659  11.120
48515W        W 8051   1.936  11.298   5.175
48516W        W 8052  39.324   4.839  13.047
48517W        W 8053  19.647  23.992  10.487
48518W        W 8054   0.398  16.261   0.459
48519W        W 8055  20.607  16.582  11.988
48520W        W 8056  27.107  28.139   2.813
48521W        W 8057  12.264  19.571   4.778
48522W        W 8058  34.908  16.598   3.647
48523W        W 8059  35.889   4.925  11.922
48524W        W 8060  33.057  18.744   4.645
48525W        W 8061  41.506  20.245   3.370
48526W        W 8062  32.445  20.549  14.293
48527W        W 8063  13.275   9.162   0.447
48528W        W 8064   5.268  39.914  11.427
48529W        W 8065  38.394   7.738  14.023
48530W        W 8066  44.882  27.668  10.889
48531W        W 8067   1.923  40.895  14.343
48532W        W 8068   8.761  25.501  13.880
48533W        W 8069  29.039  10.150  11.961
48534W        W 8070  33.386  41.316  13.523
48535W        W 8071  13.808   4.838   3.196
48536W        W 8072  13.275  14.120   1.709
48537W        W 8073  16.623   2.289  14.971
48538W        W 8074  42.850  23.061   4.118
48539W        W 8075  23.234   4.425   1.746
48540W        W 8076  41.896  42.921  10.463
48541W        W 8077  36.398  31.944   1.447
48542W        W 8078  13.321  26.469  11.078
48543W        W 8079   6.279  18.561  12.067
48544W        W 8080   8.842  10.266  10.914
48545W        W 8081  24.724  21.703  13.876
48546W        W 8082   2.913  42.422  11.105
48547W        W 8083  27.497   0.970   4.169
48548W        W 8084  27.941  33.035  11.011
48549W        W 8085  18.663  33.568   1.307
48550W        W 8086  38.491   3.437  12.006
48551W        W 8087   0.354   5.733  11.432
48552W        W 8088  42.032  22.215   1.403
48553W        W 8089  22.571   8.328  11.420
48554W        W 8090  14.319  19.660  12.531
48555W        W 8091  31.111  28.987  13.437
48556W        W 8092  37.463  38.076   1.421
48557W        W 8093   1.348   1.849  14.010
48558W        W 8094  22.622  34.026  10.458
48559W        W 8095  23.207  31.948  10.055
48560W        W 8096  20.548  42.499   3.705
48561W        W 8097  27.091  15.787   1.344
48562W        W 8098  24.660  15.612   1.260
48563W        W 8099  15.214  19.159  12.907
48564W        W 8100  43.896  12.660  13.860
48565W        W 8101  26.163  38.901   2.306
48566W        W 8102  38.902  25.058   4.224
48567W        W 8103   0.293  34.383  14.934
48568W        W 8104  42.366  42.792   3.370
48569W        W 8105  33.933  11.706   0.949
48570W        W 8106  31.518  37.009  11.400
48571W        W 8107   4.241  27.587   1.760
48572W        W 8108  42.301  22.708   2.776
48573W        W 8109  43.799  39.901  14.367
48574W        W 8110  44.929   3.879  14.854
48575W        W 8111   2.450  29.978  14.013
48576W        W 8112  29.964  29.992  14.470
48577W        W 8113  41.934   0.953  11.049
48578W        W 8114  11.681  16.224  11.451
48579W        W 8115  41.992  10.303  14.474
48580W        W 8116  35.440   7.339  13.814
48581W        W 8117  30.569  19.093  14.996
48582W        W 8118  35.538  30.505   5.151
48583W        W 8119  39.950  12.278   2.396
48584W        W 8120  11.350  32.056  12.882
48585W        W 8121  20.637  33.053  11.607
48586W        W 8122  17.655  14.695   3.349
48587W        W 8123  42.498   2.285   0.251
48588W        W 8124  40.358  20.664   4.205
48589W        W 8125   0.385  36.425   1.271
48590W        W 8126   7.872  38.847  14.968
48591W        W 8127  44.820  41.887   1.226
48592W        W 8128  10.701  38.403  13.959
48593W        W 8129  36.036  15.237  11.429
48594W        W 8130  10.860  26.556  12.828
48595W        W 8131  33.600  19.266   3.768
48596W        W 8132  32.611  26.989  11.539
48597W        W 8133   4.378  12.255  10.952
48598W        W 8134  23.043  22.156   3.285
48599W        W 8135  10.717  22.584   0.359
48600W        W 8136  41.418  40.807  13.811
48601W        W 8137  11.726  26.093  12.062
48602W        W 8138  37.931  30.551   0.875
48603W        W 8139  25.100  40.395   3.364
48604W        W 8140   7.385   6.823   3.274
48605W        W 8141   3.373  19.646   3.267
48606W        W 8142   3.287  35.453   1.296
48607W        W 8143   1.789   5.291  12.073
48608W        W 8144   4.768  24.222   2.773
48609W        W 8145  27.010   4.700  11.109
48610W        W 8146  15.784  22.246   3.674
48611W        W 8147  32.423   4.263   4.217
48612W        W 8148   1.773  25.611   3.282
48613W        W 8149  26.173  44.440  12.445
48614W        W 8150  30.555  40.920   4.128
48615W        W 8151   8.691  30.960  13.064
48616W        W 8152  39.903  26.530   1.771
48617W        W 8153  16.299  42.471  14.447
48618W        W 8154  21.733  17.130  14.348
48619W        W 8155  35.948  28.125  11.511
48620W        W 8156  43.955  30.499  13.954
48621W        W 8157  22.705  33.574  12.004
48622W        W 8158  13.780  36.924  10.449
48623W        W 8159  28.483   4.876  12.369
48624W        W 8160   9.699  11.354  13.793
48625W        W 8161  20.711  15.093   4.737
48626W        W 8162  31.628  19.180   2.821
48627W        W 8163   2.958  19.089  10.485
48628W        W 8164   1.970  28.086   1.925
48629W        W 8165  33.390  42.451   3.832
48630W        W 8166  34.394  20.255   3.731
48631W        W 8167  35.577  25.599   1.449
48632W        W 8168  30.026  17.797  13.473
48633W        W 8169   0.340  26.457   1.922
48634W        W 8170   6.855   8.664  13.545
48635W        W 8171   3.714  40.528   3.720
48636W        W 8172  39.939  34.885   4.330
48637W        W 8173  37.846  10.839   2.751
48638W        W 8174  16.670  33.108  11.970
48639W        W 8175  20.767  24.060   0.337
48640W        W 8176  10.351  35.100   0.824
48641W        W 8177  36.844  42.027   1.395
48642W        W 8178  16.774  10.213   1.711
48643W        W 8179  22.047  23.677  10.445
48644W        W 8180   0.907  42.491   0.278
48645W        W 8181  23.176   4.918  10.931
48646W        W 8182   0.980  31.509  11.936
48647W        W 8183  42.803  11.216  12.857
48648W        W 8184  22.079  26.638  14.312
48649W        W 8185  35.087  23.138   2.785
48650W        W 8186  19.729  13.823   4.734
48651W        W 8187  12.223  29.640  12.401
48652W        W 8188  42.815  40.444  14.861
48653W        W 8189   5.787  27.107  13.536
48654W        W 8190   6.854  40.046   4.822
48655W        W 8191  23.541  20.228  10.906
48656W        W 8192  43.906  33.384  10.515
48657W        W 8193  37.837  29.106   4.645
48658W        W 8194  38.838   5.302   2.842
48659W        W 8195  16.784  20.748  12.566
48660W        W 8196   1.909  15.761  12.562
48661W        W 8197  13.703  17.693   1.694
48662W        W 8198  43.935  29.440  11.054
48663W        W 8199  11.288  34.578  13.044
48664W        W 8200  37.485   3.273  11.105
48665W        W 8201  12.220   9.351  12.415
48666W        W 8202  41.362  42.983   1.266
48667W        W 8203   6.739   6.396  10.540
48668W        W 8204  16.595  41.899   1.902
48669W        W 8205   7.876  32.899   0.755
48670W        W 8206   9.252  39.539  12.861
48671W        W 8207  10.353  13.279  14.868
48672W        W 8208   6.318  33.613   1.247
48673W        W 8209  24.646  16.121   2.348
48674W        W 8210  38.443  16.101  14.341
48675W        W 8211  14.823  43.853  12.020
48676W        W 8212  13.781   9.666   2.715
48677W        W 8213  36.925   7.826   2.795
48678W        W 8214  43.418   0.429  14.991
48679W        W 8215  39.352  34.443   3.215
48680W        W 8216  15.231  25.468   1.770
48681W        W 8217  27.539  43.438   2.689
48682W        W 8218  24.013  40.313  13.458
48683W        W 8219  25.690  26.116  12.528
48684W        W 8220  36.560  36.040   1.379
48685W        W 8221  35.450   8.196  12.916
48686W        W 8222   8.893  33.484   4.654
48687W        W 8223   6.395  30.609   5.150
48688W        W 8224  43.350  33.445  11.378
48689W        W 8225  20.087  15.706   1.814
48690W        W 8226  36.946  38.837  14.992
48691W        W 8227  14.595   8.215  13.007
48692W        W 8228  44.466  23.085  14.790
48693W        W 8229  44.425   1.266  13.470
48694W        W 8230  19.198  30.598  11.039
48695W        W 8231  35.438  43.001  14.983
48696W        W 8232   9.395  12.842  12.382
48697W        W 8233  40.429  40.980   3.667
48698W        W 8234  15.254  22.672   4.223
48699W        W 8235  33.891  11.269  12.558
48700W        W 8236  30.164  31.458   3.842
48701W        W 8237  24.600  14.145  10.431
48702W        W 8238  11.250  16.596  13.897
48703W        W 8239  30.446  34.613  12.357
48704W        W 8240  13.654   7.212   2.790
48705W        W 8241   1.418  26.045   3.233
48706W        W 8242  32.563  37.349  11.027
48707W        W 8243  13.132  26.614   0.301
48708W        W 8244  11.235   2.815  11.011
48709W        W 8245  25.145  10.279  13.879
48710W        W 8246  28.178  30.950  14.976
48711W        W 8247  34.370   5.847   3.235
48712W        W 8248  27.181  34.973  10.106
48713W        W 8249   6.259  31.479   2.259
48714W        W 8250   3.900  26.033   1.878
48715W        W 8251   0.386  15.613   4.605
48716W        W 8252  23.502  25.027   4.114
48717W        W 8253   3.415  15.679   2.407
48718W        W 8254   1.341  10.138  12.076
48719W        W 8255   2.438  10.722   0.482
48720W        W 8256  25.039  24.508  10.543
48721W        W 8257  23.621  27.092   3.372
48722W        W 8258   8.898  20.090   3.164
48723W        W 8259  14.253  29.948  14.023
48724W        W 8260  11.309   6.193   3.703
48725W        W 8261  25.530  32.922   1.444
48726W        W 8262   4.420   2.405  10.613
48727W        W 8263  20.593  33.536  11.496
48728W        W 8264  43.780   8.343   3.801
48729W        W 8265   4.239  30.529  10.934
48730W        W 8266  31.529  27.617  12.907
48731W        W 8267  17.566  27.645  11.434
48732W        W 8268  17.146  30.437   4.824
48733W        W 8269  40.885  12.657  13.919
48734W        W 8270  15.257  14.311  13.459
48735W        W 8271  27.601  28.617   4.791
48736W        W 8272  32.088  10.771   0.879
48737W        W 8273  29.433   6.702   3.829
48738W        W 8274  11.262  34.599  10.457
48739W        W 8275  40.351  24.583  10.990
48740W        W 8276  23.667  26.630   3.753
48741W        W 8277  26.056  44.865   3.825
48742W        W 8278  22.142  28.097  13.915
48743W        W 8279   2.776  28.120   3.775
48744W        W 8280  30.654  36.567   0.885
48745W        W 8281  18.579  35.907   3.664
48746W        W 8282  33.588  17.082   2.329
48747W        W 8283  25.140  15.801  11.377
48748W        W 8284  40.904   6.921   4.162
48749W        W 8285  33.903   0.348   1.212
48750W        W 8286  24.022  42.527  13.384
48751W        W 8287  22.174  11.781   3.162
48752W        W 8288  24.146  14.248   1.880
48753W        W 8289  12.198  22.590  14.839
48754W        W 8290   2.806  13.182  12.439
48755W        W 8291  19.726  24.535  11.054
48756W        W 8292  43.281  28.110   1.928
48757W        W 8293  22.164  11.626  14.918
48758W        W 8294  41.903   3.942  11.040
48759W        W 8295  16.195  31.482  10.895
48760W        W 8296  42.964  12.734   1.344
48761W        W 8297  14.164  44.775  10.540
48762W        W 8298  33.574   3.251  14.007
48763W        W 8299   8.279  39.028  14.985
48764W        W 8300  32.396  15.117   3.377
48765W        W 8301  20.062  17.780   4.722
48766W        W 8302  11.815  25.615   1.234
48767W        W 8303  16.608  12.324  14.969
48768W        W 8304  44.846  36.484   1.298
48769W        W 8305  38.977  29.072  12.031
48770W        W 8306  43.455   5.306   4.755
48771W        W 8307  39.336  29.429   4.352
48772W        W 8308  28.521   9.666   0.948
48773W        W 8309  26.546   7.891  10.423
48774W        W 8310  13.843  25.502  10.446
48775W        W 8311  11.254  12.141   3.202
48776W        W 8312   9.751  28.014  13.798
48777W        W 8313   9.814  22.512  10.941
48778W        W 8314   1.834   4.885   0.843
48779W        W 8315  16.698  31.643  13.792
48780W        W 8316  34.370  39.371   2.325
48781W        W 8317  41.843  14.678  12.398
48782W        W 8318  40.818   1.859   3.642
48783W        W 8319  33.965  16.089  11.893
48784W        W 8320  14.283  39.934  14.906
48785W        W 8321  16.713  40.806  12.026
48786W        W 8322  26.173  41.425   1.742
48787W        W 8323   8.175  34.412   1.323
48788W        W 8324   3.755  33.101   4.825
48789W        W 8325  42.824  14.330   4.251
48790W        W 8326  25.492  42.788  11.498
48791W        W 8327  28.667  27.691  13.053
48792W        W 8328  19.697  37.508   3.697
48793W        W 8329   1.445  31.925  13.017
48794W        W 8330  35.596   0.894   3.769
48795W        W 8331  20.204  15.746   1.441
48796W        W 8332  32.945  31.478   3.198
48797W        W 8333  20.729   3.335   0.955
48798W        W 8334  39.019  35.521   3.204
48799W        W 8335  22.249  19.608  10.558
48800W        W 8336  22.679  25.615   4.228
48801W        W 8337  17.284  34.045   1.232
48802W        W 8338  34.927  23.055   2.227
48803W        W 8339  39.879  19.282   1.328
48804W        W 8340   4.277   1.259   2.322
48805W        W 8341  17.248  35.988   0.331
48806W        W 8342  28.499  31.509  12.539
48807W        W 8343  26.691  25.009   2.352
48808W        W 8344   7.705   1.334   4.205
48809W        W 8345  36.452  15.805   2.277
48810W        W 8346  35.408   7.245  10.573
48811W        W 8347  32.554   4.253  14.310
48812W        W 8348  30.991   5.368  13.328
48813W        W 8349  40.863   0.878  14.938
48814W        W 8350  15.722  32.445   3.759
48815W        W 8351  14.800  13.240  14.838
48816W        W 8352  14.221   8.368  12.991
48817W        W 8353  41.992  29.537   1.895
48818W        W 8354  17.625  35.422   3.807
48819W        W 8355  31.140  11.335   0.344
48820W        W 8356  22.077  34.006   4.632
48821W        W 8357  33.624  16.153  12.953
48822W        W 8358  22.596   3.783   3.847
48823W        W 8359  11.630  38.342  11.500
48824W        W 8360  39.849  40.951   1.391
48825W        W 8361   1.910  34.390   0.783
48826W        W 8362  18.113   4.450  13.938
48827W        W 8363  22.711  31.023  11.862
48828W        W 8364   8.353  33.402   4.116
48829W        W 8365   8.731  23.643   3.287
48830W        W 8366  31.578  30.497   4.620
48831W        W 8367  17.598  17.711  13.911
48832W        W 8368  13.750  17.604  14.877
48833W        W 8369  11.733   1.924   3.868
48834W        W 8370  35.406  43.375  11.997
48835W        W 8371  35.519  43.863  11.120
48836W        W 8372   6.837   4.753  14.883
48837W        W 8373  43.971  41.371  11.537
48838W        W 8374  29.642  31.099   1.329
48839W        W 8375  21.716  22.510   0.434
48840W        W 8376  12.804   2.420  12.345
48841W        W 8377  23.654  28.155  10.422
48842W        W 8378  39.939   9.232   1.403
48843W        W 8379  29.028  14.826   1.792
48844W        W 8380  11.843  23.643   3.250
48845W        W 8381  39.004  18.225  14.807
48846W        W 8382   6.400  31.499   3.163
48847W        W 8383   4.902  34.478  10.478
48848W        W 8384  32.062  29.115   1.778
48849W        W 8385   2.842  13.194  10.102
48850W        W 8386  23.061  16.072   1.243
48851W        W 8387  27.157  38.884  14.398
48852W        W 8388  28.111  17.785   1.758
48853W        W 8389  15.282  32.901   3.162
48854W        W 8390  26.645   4.727   3.212
48855W        W 8391  10.700  21.182  11.068
48856W        W 8392  12.349   2.366   0.952
48857W        W 8393  19.543   2.423   0.426
48858W        W 8394   3.379   2.455  14.764
48859W        W 8395   0.984   6.313  11.397
48860W        W 8396  39.410  38.339   0.798
48861W        W 8397  43.946  37.040   3.687
48862W        W 8398  43.005  20.071   2.806
48863W        W 8399   4.726  18.610  11.880
48864W        W 8400  22.635   7.277  13.054
48865W        W 8401   4.775  17.195   3.791
48866W        W 8402  31.603  42.356   3.670
48867W        W 8403  41.519  23.234   3.306
48868W        W 8404  34.054  26.541  10.613
48869W        W 8405  43.812  31.025  13.357
48870W        W 8406  40.949  35.543  13.529
48871W        W 8407  36.050  40.310  12.393
48872W        W 8408   0.936  39.866   0.775
48873W        W 8409  32.920  42.408  11.573
48874W        W 8410  24.133  13.764  12.089
48875W        W 8411  23.731  31.594   0.295
48876W        W 8412  34.449  20.228  12.840
48877W        W 8413   6.767  21.601   0.380
48878W        W 8414  13.835  33.423  11.877
48879W        W 8415  28.056  14.696   1.360
48880W        W 8416   1.824  12.826  10.089
48881W        W 8417   1.354  23.532   9.573
48882W        W 8418  19.688   0.862  13.051
48883W        W 8419  13.695  15.680  10.625
48884W        W 8420  29.156   5.722  13.917
48885W        W 8421  32.132   1.961   4.657
48886W        W 8422  19.605  30.078   0.415
48887W        W 8423  17.124  28.079   2.795
48888W        W 8424   5.741  38.036   1.805
48889W        W 8425  44.343  16.298   1.210
48890W        W 8426  13.665  37.411  11.073
48891W        W 8427  29.978  17.307   0.891
48892W        W 8428  19.623  31.976  11.962
48893W        W 8429  27.161  38.358   3.686
48894W        W 8430  11.739  11.724  14.292
48895W        W 8431   2.425  31.555   3.715
48896W        W 8432  35.459   0.355   2.790
48897W        W 8433   6.213  23.109  10.494
48898W        W 8434  11.696  20.761  14.829
48899W        W 8435  13.726  15.814   4.617
48900W        W 8436  33.888  13.244  13.809
48901W        W 8437  38.029  41.340  13.363
48902W        W 8438   6.692  21.713   3.331
48903W        W 8439   9.773  17.217  14.850
48904W        W 8440  43.824  12.123  13.336
48905W        W 8441  14.282   3.245  13.883
48906W        W 8442  26.597  23.647  13.995
48907W        W 8443  11.208  31.023  14.844
48908W        W 8444  33.397  10.868  11.970
48909W        W 8445  17.217  14.099   3.167
48910W        W 8446  32.075  17.733  12.451
48911W        W 8447  21.185   1.828   2.708
48912W        W 8448   7.871   8.398  13.879
48913W        W 8449  28.490  11.732  11.078
48914W        W 8450   0.341  36.841   2.194
48915W        W 8451  30.474  29.923   0.416
48916W        W 8452  18.612  32.547  12.006
48917W        W 8453  34.024  11.357   1.303
48918W        W 8454   5.423   0.832   2.768
48919W        W 8455  34.920  32.049   3.363
48920W        W 8456  11.769  27.622   2.688
48921W        W 8457  24.074  32.138  13.031
48922W        W 8458  41.437  32.593  11.508
48923W        W 8459  12.135  42.889   0.318
48924W        W 8460   4.832  39.965  10.919
48925W        W 8461  41.526  40.440   1.842
48926W        W 8462   5.844  21.067  12.898
48927W        W 8463   8.164  35.915  12.501
48928W        W 8464  41.872  26.058  13.847
48929W        W 8465  29.145  11.688  12.992
48930W        W 8466  13.601  15.280   4.797
48931W        W 8467   8.698  14.263  12.889
48932W        W 8468  44.497  25.216  11.581
48933W        W 8469  29.437  44.808   3.671
48934W        W 8470  21.234  35.989   0.819
48935W        W 8471  17.197   6.342   2.334
48936W        W 8472  40.897  33.969   1.836
48937W        W 8473  24.663  28.498   3.862
48938W        W 8474  15.246   0.365  12.351
48939W        W 8475  32.473  24.200  14.347
48940W        W 8476  21.167   9.218  11.048
48941W        W 8477   8.219  28.143   1.714
48942W        W 8478   7.367  37.855   2.379
48943W        W 8479  42.029   2.349  11.919
48944W        W 8480  24.488   9.175  12.012
48945W        W 8481  37.476  36.420  14.397
48946W        W 8482  23.703  33.532  12.548
48947W        W 8483  18.060  15.166   0.761
48948W        W 8484  42.889  19.592   3.317
48949W        W 8485  28.164   9.645   4.345
48950W        W 8486   1.935  32.939  13.883
48951W        W 8487  27.673  37.926   4.824
48952W        W 8488  27.093   3.763  10.459
48953W        W 8489   3.384  11.244  14.504
48954W        W 8490  42.842  15.714  14.016
48955W        W 8491  44.958  39.841   3.192
48956W        W 8492  11.283   3.855  12.964
48957W        W 8493  28.947  33.060  13.007
48958W        W 8494  18.134  44.334  13.477
48959W        W 8495  15.787   9.659   4.819
48960W        W 8496  34.438  32.911  11.607
48961W        W 8497  10.875  41.804   4.818
48962W        W 8498  10.216   2.790  13.358
48963W        W 8499  29.645  15.319  13.836
48964W        W 8500  21.613  37.920  10.993
48965W        W 8501  22.162   9.220  13.350
48966W        W 8502  20.764   4.866   3.824
48967W        W 8503  16.140  39.983   2.365
48968W        W 8504  36.454   9.687  13.987
48969W        W 8505   7.368  20.154   4.265
48970W        W 8506   5.894  19.589  14.912
48971W        W 8507   2.725  35.886   1.707
48972W        W 8508  17.225  26.588   1.355
48973W        W 8509  38.546   7.196   1.737
48974W        W 8510   8.734   5.706  10.590
48975W        W 8511  18.101   1.955  14.339
48976W        W 8512   4.365   6.186   3.756
48977W        W 8513  14.329  44.788  11.941
48978W        W 8514  22.552  30.157   3.309
48979W        W 8515  41.868  31.475  11.899
48980W        W 8516  34.030  41.788   3.379
48981W        W 8517  15.275  19.546   4.771
48982W        W 8518  38.894  20.227   3.668
48983W        W 8519  33.908  31.000   3.227
48984W        W 8520  15.192  43.385   3.638
48985W        W 8521  31.070  37.496  11.960
48986W        W 8522  14.228  11.775   2.317
48987W        W 8523  25.497  44.425  10.416
48988W        W 8524  13.669   0.859  13.406
48989W        W 8525  12.693  42.801  12.574
48990W        W 8526  28.612  35.908  13.352
48991W        W 8527  17.089  23.506   4.608
48992W        W 8528  41.842  23.021  11.084
48993W        W 8529  17.254  25.583  12.998
48994W        W 8530  35.952  32.464   1.807
48995W        W 8531   6.353  23.524  14.280
48996W        W 8532   2.408  17.200  13.394
48997W        W 8533   1.402   7.275   4.222
48998W        W 8534  27.969  41.968   1.321
48999W        W 8535  24.626   7.746   5.139
49000W        W 8536  27.540  37.428   0.467
49001W        W 8537  13.249  41.828   3.735
49002W        W 8538  42.319  17.063   1.914
49003W        W 8539   6.868  38.364   4.619
49004W        W 8540  33.882  38.975   0.894
49005W        W 8541  41.839  33.427   2.198
49006W        W 8542  36.977  34.579   1.748
49007W        W 8543   1.330  11.758   2.707
49008W        W 8544  10.140  30.975   3.757
49009W        W 8545   4.378  27.482  12.035
49010W        W 8546  38.501  33.922   4.345
49011W        W 8547  27.519  17.672   3.224
49012W        W 8548  17.175   7.850   2.382
49013W        W 8549  41.031  40.813   2.771
49014W        W 8550  15.619  43.334  13.489
49015W        W 8551  10.151  36.912  13.337
49016W        W 8552   7.244   7.336  13.525
49017W        W 8553  30.144  19.579   4.208
49018W        W 8554  23.630  10.255  12.058
49019W        W 8555  24.641   3.735   0.793
49020W        W 8556  18.118  36.516   3.865
49021W        W 8557   6.343   6.883  11.569
49022W        W 8558  13.208  27.648   2.198
49023W        W 8559  42.906  42.965  13.418
49024W        W 8560  39.830  43.998   2.686
49025W        W 8561  20.637  42.317   3.233
49026W        W 8562   5.837  19.601   4.224
49027W        W 8563  34.872  34.071  11.424
49028W        W 8564  44.847  33.524  10.497
49029W        W 8565  19.691  17.579  13.921
49030W        W 8566  39.851  34.613  10.618
49031W        W 8567  11.248  30.067  13.423
49032W        W 8568  34.950  23.234  10.123
49033W        W 8569  23.537  38.935  10.441
49034W        W 8570   6.863  28.101   1.377
49035W        W 8571  15.597  35.451  13.426
49036W        W 8572  35.454   6.240   2.192
49037W        W 8573   5.343  21.598  11.425
49038W        W 8574   4.894  17.750  14.438
49039W        W 8575   2.333  31.120  10.476
49040W        W 8576  13.192  10.796  10.982
49041W        W 8577   6.685   2.841  13.349
49042W        W 8578  19.644   7.797  12.084
49043W        W 8579  21.617  30.646  11.916
49044W        W 8580  17.238   8.776  13.029
49045W        W 8581   9.275  22.168   3.234
49046W        W 8582  29.544  16.149  13.313
49047W        W 8583   4.721   5.290  12.884
49048W        W 8584  10.871  26.609   0.815
49049W        W 8585  13.218  19.550   2.398
49050W        W 8586  19.213  12.681   4.348
49051W        W 8587  33.444  37.570  12.006
49052W        W 8588   4.891  22.542  13.496
49053W        W 8589  40.376  36.451  11.966
49054W        W 8590  11.311  35.926   2.785
49055W        W 8591   5.386  14.239   4.645
49056W        W 8592  10.317  36.576  13.487
49057W        W 8593  10.664  32.588  10.439
49058W        W 8594  19.150  35.394  12.405
49059W        W 8595  31.626  18.092   3.200
49060W        W 8596  14.253  36.410  10.570
49061W        W 8597  38.032  25.713   4.643
49062W        W 8598  25.606  31.924  13.529
49063W        W 8599  18.578  12.121  13.940
49064W        W 8600  33.092  22.728   4.675
49065W        W 8601   6.768  12.229   0.749
49066W        W 8602  19.234  14.265  12.956
49067W        W 8603  16.648  41.039   4.137
49068W        W 8604  31.440  12.717   3.214
49069W        W 8605  17.282  44.492  14.412
49070W        W 8606  10.865  41.839   3.326
49071W        W 8607  25.037  25.549   3.387
49072W        W 8608  10.829  44.769  14.413
49073W        W 8609  31.029  20.570  12.434
49074W        W 8610  40.391   0.801  13.966
49075W        W 8611  24.004  40.876   3.809
49076W        W 8612   0.834  23.648  14.851
49077W        W 8613  40.966  32.414  10.574
49078W        W 8614  10.708  10.312  14.770
49079W        W 8615  39.495  41.413   4.124
49080W        W 8616  25.617  41.314  13.413
49081W        W 8617  26.468  17.283  11.893
49082W        W 8618  32.026  22.048   0.932
49083W        W 8619  21.221  20.111  14.982
49084W        W 8620  29.653  36.003   2.785
49085W        W 8621   4.928  23.113   3.819
49086W        W 8622   6.912  34.475   2.195
49087W        W 8623  28.056  40.459  14.345
49088W        W 8624  36.865   5.903  12.961
49089W        W 8625  19.679  17.727  11.024
49090W        W 8626  24.593  24.585  14.987
49091W        W 8627  30.533  30.584   3.151
49092W        W 8628   4.295  29.573   4.623
49093W        W 8629  14.336  27.671  10.132
49094W        W 8630  35.000   1.911  13.399
49095W        W 8631  15.663  24.646   2.204
49096W        W 8632   1.428  34.942  11.535
49097W        W 8633   9.302  17.069  11.404
49098W        W 8634  38.558  23.088  11.597
49099W        W 8635  30.080  21.584  14.775
49100W        W 8636  15.816  32.440   0.330
49101W        W 8637   9.374  38.048  12.993
49102W        W 8638  14.150  43.461   1.726
49103W        W 8639  25.066  34.547  13.382
49104W        W 8640  43.821   6.335   4.303
49105W        W 8641   9.878   0.258  13.020
49106W        W 8642  24.575  26.008   4.781
49107W        W 8643  17.747   4.806   3.198
49108W        W 8644  31.021  17.728  12.496
49109W        W 8645  23.576   0.746   1.298
49110W        W 8646  39.831   4.944  13.308
49111W        W 8647  15.655  19.113  12.489
49112W        W 8648  24.080  30.938  12.841
49113W        W 8649  28.105  22.631  10.902
49114W        W 8650   1.451  36.521   1.275
49115W        W 8651  44.868  44.502   1.701
49116W        W 8652  21.217  19.591   5.202
49117W        W 8653  27.543  34.950   1.309
49118W        W 8654  12.299  28.984  13.900
49119W        W 8655   8.376   7.903   3.839
49120W        W 8656  21.094   9.186   2.282
49121W        W 8657   7.220  26.528  12.836
49122W        W 8658  37.067  16.695   4.621
49123W        W 8659  32.014  42.906   5.240
49124W        W 8660   0.909  38.473  14.988
49125W        W 8661  39.051  40.390  12.460
49126W        W 8662   8.868  40.911   3.839
49127W        W 8663  14.144  36.952   2.265
49128W        W 8664  34.609  35.073   3.799
49129W        W 8665  31.545  17.075   0.769
49130W        W 8666  41.863  36.846  11.875
49131W        W 8667  43.006  31.049   3.701
49132W        W 8668   9.166  23.234   3.294
49133W        W 8669  24.537  37.997   3.713
49134W        W 8670   0.250  27.461   2.198
49135W        W 8671   5.901  14.834  14.857
49136W        W 8672  39.352  43.805   0.411
49137W        W 8673  20.072  18.770   3.687
49138W        W 8674  33.562  25.632  13.055
49139W        W 8675  17.659   1.821  10.931
49140W        W 8676   7.825  21.528   3.749
49141W        W 8677   5.913  29.445   4.642
49142W        W 8678  41.042  35.375  11.550
49143W        W 8679  17.119   5.257   2.391
49144W        W 8680   4.438  30.622   3.775
49145W        W 8681  22.612   8.210   3.152
49146W        W 8682  10.259  39.389  14.467
49147W        W 8683  29.511  30.133  12.576
49148W        W 8684   7.324  10.722   2.271
49149W        W 8685  23.497   6.692  13.399
49150W        W 8686  17.216   3.777   3.643
49151W        W 8687  36.098   8.196   4.741
49152W        W 8688  17.284  15.789   2.808
49153W        W 8689  20.050  40.351   1.933
49154W        W 8690   7.183   5.306  11.383
49155W        W 8691  39.952   7.890  13.960
49156W        W 8692   6.282  41.416  14.900
49157W        W 8693  30.503  28.646  14.982
49158W        W 8694   2.389  30.604   4.625
49159W        W 8695  24.004  22.699  12.993
49160W        W 8696  24.094  33.479  14.976
49161W        W 8697  10.201  44.381   1.381
49162W        W 8698  42.985  18.733  11.948
49163W        W 8699   4.870   6.802   3.796
49164W        W 8700  18.748  18.093   0.797
49165W        W 8701  12.841   2.739  11.955
49166W        W 8702  28.480  25.567  12.913
49167W        W 8703  44.926   3.722   3.732
49168W        W 8704  28.583  29.132  11.007
49169W        W 8705  11.143  40.401   1.808
49170W        W 8706  27.190  11.318  12.428
49171W        W 8707  11.355   9.653  14.433
49172W        W 8708  32.440  30.132   4.172
49173W        W 8709   4.250  39.458   2.888
49174W        W 8710  37.475  31.547  12.364
49175W        W 8711  40.534  31.106  11.471
49176W        W 8712  27.051  22.229   1.365
49177W        W 8713  15.202  21.128  12.521
49178W        W 8714  42.408  15.628  11.936
49179W        W 8715  29.603  10.634   4.680
49180W        W 8716   3.718   6.826  12.015
49181W        W 8717   9.663  27.485  14.931
49182W        W 8718  24.198   3.326   3.345
49183W        W 8719  39.471  11.324  10.619
49184W        W 8720  11.758  15.087  13.391
49185W        W 8721   3.402  17.065   3.695
49186W        W 8722  25.130  35.007   0.852
49187W        W 8723  33.474  23.502   3.767
49188W        W 8724  32.522  20.695   1.378
49189W        W 8725   2.748  23.070   4.661
49190W        W 8726  32.903  19.285   4.306
49191W        W 8727  35.467  10.686   1.335
49192W        W 8728  33.515  10.197   5.223
49193W        W 8729  37.552  24.582  10.904
49194W        W 8730  38.850  17.303   0.448
49195W        W 8731   0.335  37.988  14.278
49196W        W 8732  26.061  12.712   1.828
49197W        W 8733  14.160  17.784  12.540
49198W        W 8734   0.266  38.898   3.771
49199W        W 8735  43.475  18.715   2.731
49200W        W 8736  22.503  15.271   3.786
49201W        W 8737  26.197  14.265  12.090
49202W        W 8738   8.284  14.277  10.522
49203W        W 8739  19.060  10.707   2.757
49204W        W 8740  26.040  40.366  13.063
49205W        W 8741  28.494   3.308  10.560
49206W        W 8742  19.242  27.188  14.770
49207W        W 8743  18.143   8.679   1.783
49208W        W 8744  11.819  13.780  13.464
49209W        W 8745  37.059   5.848   1.260
49210W        W 8746  43.832  32.985  13.462
49211W        W 8747  32.456  38.528   2.715
49212W        W 8748   6.710  20.726  14.976
49213W        W 8749  26.504  39.045  10.112
49214W        W 8750  41.845  38.564  13.937
49215W        W 8751  26.109  36.970   3.684
49216W        W 8752   3.215  35.938  12.377
49217W        W 8753   0.384   2.890  14.298
49218W        W 8754  36.400  36.007  12.343
49219W        W 8755   7.251  42.778  13.421
49220W        W 8756   2.352  15.676   1.256
49221W        W 8757  35.490   6.844   2.900
49222W        W 8758  29.518  15.284  10.891
49223W        W 8759  10.832  19.204   0.283
49224W        W 8760  32.915  15.256  10.918
49225W        W 8761  31.452   0.817  13.833
49226W        W 8762  41.485  41.332  14.505
49227W        W 8763   7.910  35.026   3.657
49228W        W 8764  16.174  23.494  14.024
49229W        W 8765  11.729  30.151   0.412
49230W        W 8766  37.504  30.641  14.304
49231W        W 8767  42.460  41.491   0.757
49232W        W 8768  16.738   4.769  13.970
49233W        W 8769  44.852  33.607  11.412
49234W        W 8770  18.627  19.133  14.314
49235W        W 8771  30.009  11.794  11.024
49236W        W 8772   1.270   8.764  11.101
49237W        W 8773  26.662  17.102  12.345
49238W        W 8774   1.940  23.048   9.969
49239W        W 8775  26.655   6.323  13.019
49240W        W 8776  27.649  19.538   4.163
49241W        W 8777   8.878   9.314   1.431
49242W        W 8778   1.238   9.169   1.423
49243W        W 8779  35.398  38.479  14.492
49244W        W 8780  18.556   2.806   2.674
49245W        W 8781   6.199  22.998  12.029
49246W        W 8782  29.621  32.134  12.981
49247W        W 8783  38.567  12.210   0.356
49248W        W 8784   7.827   9.881   0.301
49249W        W 8785  23.157  34.995  12.531
49250W        W 8786   7.401   1.468   4.302
49251W        W 8787  31.929  38.893   5.198
49252W        W 8788   5.224  16.615   1.719
49253W        W 8789  19.653   5.753   4.611
49254W        W 8790  29.950  20.527  14.987
49255W        W 8791  39.025  17.672   1.710
49256W        W 8792   1.319  31.467  11.474
49257W        W 8793  43.436   3.449  14.377
49258W        W 8794  38.515  44.407  10.975
49259W        W 8795  11.796   6.808  13.517
49260W        W 8796  30.552  43.513  10.946
49261W        W 8797  12.166  35.055   1.843
49262W        W 8798  18.235  44.267   2.725
49263W        W 8799  34.556  26.016   0.779
49264W        W 8800  35.597  14.650   4.617
49265W        W 8801  19.628  27.155  11.923
49266W        W 8802  31.044  34.058   4.297
49267W        W 8803  12.274  27.600  14.502
49268W        W 8804  25.643   4.937  11.984
49269W        W 8805  44.986  43.796   3.759
49270W        W 8806  29.528  33.600  10.914
49271W        W 8807  22.116  42.794  13.017
49272W        W 8808   5.314  42.811   3.378
49273W        W 8809   4.831  37.939   4.767
49274W        W 8810  40.443   2.912  11.412
49275W        W 8811   3.947  16.589   2.345
49276W        W 8812  33.539   7.763  11.396
49277W        W 8813  35.491   9.230   3.241
49278W        W 8814  39.037  25.052   0.330
49279W        W 8815   4.944  37.997  11.588
49280W        W 8816  34.081  23.540   4.222
49281W        W 8817  35.991  23.075   1.365
49282W        W 8818   8.860   1.880  14.764
49283W        W 8819  41.459  23.731   3.291
49284W        W 8820  43.020  21.715  14.813
49285W        W 8821  12.297  22.560   1.422
49286W        W 8822  20.101   9.645   3.665
49287W        W 8823  28.658  33.619  12.025
49288W        W 8824  21.197   7.681   1.702
49289W        W 8825  18.620  41.823  13.500
49290W        W 8826  37.471   3.738   4.261
49291W        W 8827  39.002  26.502   4.719
49292W        W 8828  39.325   7.171  14.907
49293W        W 8829  16.793  17.307   3.637
49294W        W 8830  32.529  23.490   1.257
49295W        W 8831  42.921  37.566  12.919
49296W        W 8832  25.973  21.257   3.743
49297W        W 8833  25.195  34.398   1.804
49298W        W 8834  12.329  40.890  13.409
49299W        W 8835  31.942  16.597  12.573
49300W        W 8836   4.856  14.185  14.491
49301W        W 8837   4.265  14.136  11.953
49302W        W 8838  17.263  42.957   4.340
49303W        W 8839   6.797   9.260  13.374
49304W        W 8840  21.247  31.410   3.331
49305W        W 8841  37.524  38.936  14.303
49306W        W 8842  44.309  23.511   3.713
49307W        W 8843  39.827   4.883   1.771
49308W        W 8844  27.024   9.356   1.796
49309W        W 8845  22.106   9.200   2.734
49310W        W 8846  31.641  32.631   0.812
49311W        W 8847  17.713  29.930   1.744
49312W        W 8848   4.918  20.159  11.440
49313W        W 8849  23.177   0.870   3.845
49314W        W 8850  26.194   0.786   4.282
49315W        W 8851   6.260  30.462  10.420
49316W        W 8852  22.547  23.655   1.737
49317W        W 8853   2.316   2.409   0.941
49318W        W 8854  43.952  38.067  12.518
49319W        W 8855  12.142  34.438  14.952
49320W        W 8856  21.044  33.007  11.381
49321W        W 8857  36.854  32.405   4.260
49322W        W 8858  39.000  35.024   0.784
49323W        W 8859   5.194  19.260  12.039
49324W        W 8860  16.606   6.344   4.323
49325W        W 8861   5.218  20.539   1.924
49326W        W 8862  36.935  44.979   3.688
49327W        W 8863  39.435  10.348  11.908
49328W        W 8864   1.475   4.740  12.832
49329W        W 8865  12.136  25.192  14.981
49330W        W 8866  34.061  12.332   0.856
49331W        W 8867  15.276  30.115  13.435
49332W        W 8868  33.070   8.715  12.401
49333W        W 8869   2.249   6.836  13.354
49334W        W 8870  18.140  16.758   4.227
49335W        W 8871   5.397  37.001   2.205
49336W        W 8872  29.951  11.335   3.376
49337W        W 8873  23.140  14.103  14.850
49338W        W 8874  12.224  16.121  12.348
49339W        W 8875  36.845  23.603  10.592
49340W        W 8876  32.911  25.489   0.752
49341W        W 8877  11.659  44.975  11.994
49342W        W 8878   7.315  18.064   1.839
49343W        W 8879  32.111  37.941   3.675
49344W        W 8880  32.997  25.168   2.797
49345W        W 8881  36.412   2.394  12.006
49346W        W 8882  43.492  39.945   0.289
49347W        W 8883  11.138  19.143   3.867
49348W        W 8884   6.742  22.072  14.345
49349W        W 8885   5.826   2.827   1.338
49350W        W 8886  35.086  37.520  13.958
49351W        W 8887  13.601   4.792  14.836
49352W        W 8888  16.730  15.670   3.224
49353W        W 8889  18.562  16.806   2.216
49354W        W 8890  31.054  15.658   4.326
49355W        W 8891  30.471  33.996  12.405
49356W        W 8892   9.714  24.193  14.319
49357W        W 8893  32.550  28.512   4.599
49358W        W 8894  18.243  34.987   2.849
49359W        W 8895  44.902  20.652  10.434
49360W        W 8896  14.295  13.836  11.397
49361W        W 8897  36.372  30.092   2.844
49362W        W 8898  13.627  32.925   0.895
49363W        W 8899  29.523  33.008  12.948
49364W        W 8900  44.834  23.229   3.206
49365W        W 8901  18.664  17.601   0.436
49366W        W 8902  40.905  34.454  13.345
49367W        W 8903   0.311  39.894  14.843
49368W        W 8904  29.480  26.490  12.985
49369W        W 8905  17.291  18.595   4.832
49370W        W 8906  43.279  37.834  13.972
49371W        W 8907  31.516  27.486  14.766
49372W        W 8908  22.233  21.749   1.284
49373W        W 8909   8.894  25.979  14.790
49374W        W 8910  38.456   1.434  14.959
49375W        W 8911   1.311  14.116  10.465
49376W        W 8912  33.594  40.444  10.604
49377W        W 8913   7.360  15.708  14.833
49378W        W 8914   3.858   4.386   2.195
49379W        W 8915   6.245   1.947   1.791
49380W        W 8916  37.560   9.288  14.883
49381W        W 8917  21.111  17.130  10.476
49382W        W 8918  36.380  22.116  12.571
49383W        W 8919  41.494  29.463  10.431
49384W        W 8920  10.320  43.997  10.095
49385W        W 8921  37.522  15.696   3.339
49386W        W 8922  33.005   6.842   4.137
49387W        W 8923   1.856  20.573  12.973
49388W        W 8924   1.851  32.597   0.773
49389W        W 8925  36.064  24.663  13.043
49390W        W 8926  33.979   0.977  12.504
49391W        W 8927   2.245  16.209   3.819
49392W        W 8928  13.203   9.273  14.432
49393W        W 8929   5.391  39.414  12.563
49394W        W 8930  17.800   9.227  13.047
49395W        W 8931  31.020  16.258  13.516
49396W        W 8932  39.488  38.954  10.524
49397W        W 8933  35.915  13.310   0.377
49398W        W 8934  16.772  43.415  11.950
49399W        W 8935   5.807  33.007  11.578
49400W        W 8936   6.789  32.939   2.868
49401W        W 8937  23.637  20.630   3.673
49402W        W 8938  35.947  41.888  11.128
49403W        W 8939  11.679  26.537  13.793
49404W        W 8940   5.788   3.926  12.951
49405W        W 8941  37.381  13.146  13.960
49406W        W 8942  44.259  30.613   4.194
49407W        W 8943  44.388  43.933   1.298
49408W        W 8944  32.019  22.151   1.296
49409W        W 8945   2.879  19.736   3.859
49410W        W 8946  41.446  13.155  12.492
49411W        W 8947  19.749  29.460   2.180
49412W        W 8948  11.760  13.314   4.141
49413W        W 8949  11.655   9.168   9.541
49414W        W 8950  39.040  12.745   9.937
49415W        W 8951  36.580  34.424   0.772
49416W        W 8952  11.651  19.573  13.877
49417W        W 8953   8.684  15.116   2.373
49418W        W 8954   7.263  38.406  13.372
49419W        W 8955  29.167  12.284   0.289
49420W        W 8956  41.341  33.101  11.533
49421W        W 8957  43.016   4.356   0.877
49422W        W 8958  19.249  17.235   1.255
49423W        W 8959  36.395  12.726   0.777
49424W        W 8960  34.889   0.907   4.731
49425W        W 8961  14.828  16.244  13.405
49426W        W 8962   7.683  27.952   2.275
49427W        W 8963  43.960  43.486   0.340
49428W        W 8964   1.353   9.874   0.760
49429W        W 8965  42.001   3.384  14.292
49430W        W 8966   6.409  30.103  10.611
49431W        W 8967  36.546  11.189   4.807
49432W        W 8968   9.873  44.958  11.923
49433W        W 8969   4.242  11.244  14.360
49434W        W 8970  34.013   9.150  13.985
49435W        W 8971  11.722  13.226  10.937
49436W        W 8972  31.455  14.262   4.713
49437W        W 8973  23.531  37.838   3.374
49438W        W 8974   3.758   7.866   3.165
49439W        W 8975  25.588   9.372  11.001
49440W        W 8976   2.808   8.725   2.275
49441W        W 8977  21.653  40.939  14.873
49442W        W 8978  13.814   7.763   5.292
49443W        W 8979  32.583  34.036   4.750
49444W        W 8980  36.094  17.747  11.433
49445W        W 8981  37.953  41.786   4.757
49446W        W 8982  19.590  37.048   2.399
49447W        W 8983  39.502  17.304  10.569
49448W        W 8984  43.288  12.146  12.011
49449W        W 8985   5.328  27.137   2.286
49450W        W 8986   8.166  28.476   2.245
49451W        W 8987   0.265   5.791  13.942
49452W        W 8988  34.514  43.854   3.726
49453W        W 8989  35.490  13.755  11.902
49454W        W 8990  24.073  17.799   3.337
49455W        W 8991  38.401  15.796   1.918
49456W        W 8992  20.083  37.434   2.873
49457W        W 8993  44.934   2.461  11.383
49458W        W 8994  15.769  16.638   1.309
49459W        W 8995  27.992  36.355   3.800
49460W        W 8996  25.032  25.081  14.399
49461W        W 8997  25.484  25.048  12.362
49462W        W 8998  13.200   9.713   3.224
49463W        W 8999  25.481  31.948  13.945
49464W        W 9000  19.698   6.376   2.190
49465W        W 9001  44.008  26.145   3.697
49466W        W 9002  17.618  11.855   2.826
49467W        W 9003  21.089   8.691   3.854
49468W        W 9004   0.915  37.518   1.760
49469W        W 9005  24.499   9.745   3.824
49470W        W 9006  44.328  19.725  13.794
49471W        W 9007   7.224  41.997   2.699
49472W        W 9008   7.905   5.687  10.469
49473W        W 9009  17.640   1.346   4.611
49474W        W 9010  34.005  39.061   1.890
49475W        W 9011  17.610  31.985  12.402
49476W        W 9012  39.043  16.607  14.507
49477W        W 9013   3.858   6.269   2.286
49478W        W 9014  36.528  42.490   4.654
49479W        W 9015   2.311  38.954   2.412
49480W        W 9016  22.046  20.083   5.787
49481W        W 9017  28.605  29.592  12.942
49482W        W 9018  24.212   2.228   4.285
49483W        W 9019  23.024   2.793   4.700
49484W        W 9020  13.113  24.721  12.884
49485W        W 9021  22.024  28.468  10.607
49486W        W 9022   5.877   9.204   3.769
49487W        W 9023  43.829  20.650   4.647
49488W        W 9024  25.496   9.328   3.325
49489W        W 9025  16.292  22.736  11.493
49490W        W 9026   1.955   5.694  10.969
49491W        W 9027  19.285  26.574   0.379
49492W        W 9028  24.198   9.167   1.340
49493W        W 9029   4.216   9.197   2.377
49494W        W 9030  35.389  24.575   4.162
49495W        W 9031   6.681   6.278   0.732
49496W        W 9032  18.052  17.302  11.033
49497W        W 9033  19.256  35.853   1.302
49498W        W 9034   7.258  18.273   0.380
49499W        W 9035  33.379  29.103   3.727
49500W        W 9036  17.293   7.301  14.459
49501W        W 9037  37.537  19.195  11.572
49502W        W 9038   2.457  21.021  11.433
49503W        W 9039   4.402  23.686  10.070
49504W        W 9040  12.816  39.856  14.991
49505W        W 9041  10.361   0.321  13.419
49506W        W 9042   4.944   5.335  12.406
49507W        W 9043  18.749  20.545   2.719
49508W        W 9044  32.562  33.910   2.731
49509W        W 9045  25.173   7.259   9.443
49510W        W 9046  10.350  19.677  10.153
49511W        W 9047   9.197  23.184   4.140
49512W        W 9048  19.707  30.973  13.484
49513W        W 9049  35.913  22.237  13.334
49514W        W 9050  41.823  21.247  14.983
49515W        W 9051  24.047  13.303   3.850
49516W        W 9052  38.062  30.026  11.127
49517W        W 9053  28.559  39.342  11.558
49518W        W 9054   9.845  17.163   1.380
49519W        W 9055   9.208   0.805   9.997
49520W        W 9056  26.634  15.256   1.436
49521W        W 9057  40.896  34.901   2.305
49522W        W 9058   4.793  27.474   4.254
49523W        W 9059  40.430  33.496  13.502
49524W        W 9060  37.020  32.611  10.901
49525W        W 9061   8.301  39.409  11.372
49526W        W 9062  20.160  34.456  14.476
49527W        W 9063  16.656  12.717   2.731
49528W        W 9064  28.169   4.283  10.992
49529W        W 9065  18.068  26.019   0.399
49530W        W 9066   7.826  25.171   1.833
49531W        W 9067  16.614  21.590  13.807
49532W        W 9068  29.647  43.490   1.310
49533W        W 9069  11.648   2.410  12.517
49534W        W 9070  23.585   6.357   3.329
49535W        W 9071  33.551   8.657  11.375
49536W        W 9072  37.998   4.393  14.946
49537W        W 9073  19.208  27.960   3.709
49538W        W 9074   8.320  43.484   2.862
49539W        W 9075  36.568  35.050   4.273
49540W        W 9076  43.511  43.985  13.021
49541W        W 9077  38.521   4.808   0.420
49542W        W 9078  26.966  41.377  13.452
49543W        W 9079  16.194   0.830   3.794
49544W        W 9080  12.774  39.355  13.014
49545W        W 9081  21.675  22.221   4.713
49546W        W 9082   8.217  20.724  14.850
49547W        W 9083  15.608   2.727  13.459
49548W        W 9084  44.954   5.874   1.446
49549W        W 9085   2.926   0.420   4.130
49550W        W 9086   2.292  32.540  11.900
49551W        W 9087  20.673   7.781   2.815
49552W        W 9088   4.367  32.099  11.888
49553W        W 9089  22.565  35.474  12.371
49554W        W 9090  38.368  19.708   0.296
49555W        W 9091  35.956   6.347   1.280
49556W        W 9092   5.256   2.240  11.590
49557W        W 9093  22.570  16.808  14.831
49558W        W 9094  40.539  15.682   9.926
49559W        W 9095  36.866   8.280   1.244
49560W        W 9096  24.986  28.096   0.927
49561W        W 9097  13.808   2.238  12.905
49562W        W 9098  23.635  38.024   0.889
49563W        W 9099   0.933   8.224  12.015
49564W        W 9100  18.769  33.452   0.881
49565W        W 9101  14.614  40.976  14.909
49566W        W 9102  14.625   5.843   4.725
49567W        W 9103  26.677  12.238  11.052
49568W        W 9104   9.766  36.580  10.888
49569W        W 9105   5.708   7.374   2.840
49570W        W 9106  24.634  30.163  11.959
49571W        W 9107  43.457  42.871   0.786
49572W        W 9108  16.299  16.587  13.504
49573W        W 9109   9.355  41.836   4.118
49574W        W 9110  16.672   9.808   3.816
49575W        W 9111  26.162  15.316   1.402
49576W        W 9112   4.748  19.701   3.387
49577W        W 9113  17.270   1.881   3.330
49578W        W 9114  43.314  37.955  10.592
49579W        W 9115  41.399  12.703  11.602
49580W        W 9116   3.269  24.706  14.404
49581W        W 9117  31.523  41.859  12.416
49582W        W 9118  40.031  42.411  13.501
49583W        W 9119  23.621  27.958   3.743
49584W        W 9120  23.175  36.858  11.933
49585W        W 9121  38.450  26.698  11.092
49586W        W 9122  24.122  29.651   4.113
49587W        W 9123  21.571   1.824  12.429
49588W        W 9124  32.993  16.220   3.768
49589W        W 9125  39.893   9.724   2.749
49590W        W 9126  14.166  33.926   0.951
49591W        W 9127  42.819   7.403   4.763
49592W        W 9128  38.994  21.136  14.829
49593W        W 9129   7.276  11.693  12.933
49594W        W 9130   9.359  13.834  13.919
49595W        W 9131   9.306   4.798   4.309
49596W        W 9132  43.014  17.635   4.353
49597W        W 9133  16.120   4.917   4.700
49598W        W 9134  40.445  24.698   3.175
49599W        W 9135  41.803   1.420  11.951
49600W        W 9136  32.958  11.844   4.150
49601W        W 9137  22.577  32.009   0.743
49602W        W 9138   1.810  10.158  12.575
49603W        W 9139  13.231  18.207   3.198
49604W        W 9140   4.265  22.234  12.355
49605W        W 9141  41.336  20.605  13.844
49606W        W 9142  27.520   5.730   1.704
49607W        W 9143   8.282  38.935   3.639
49608W        W 9144  37.426  14.276  12.560
49609W        W 9145  38.428  31.547   4.833
49610W        W 9146  43.464  31.591   3.362
49611W        W 9147   2.374   1.414   0.310
49612W        W 9148  16.231   3.914  12.384
49613W        W 9149  34.390  28.615   2.270
49614W        W 9150  14.238  12.237   3.223
49615W        W 9151   6.860  34.086  14.390
49616W        W 9152  32.084  33.047   3.246
49617W        W 9153  10.333  13.798  13.041
49618W        W 9154  35.390  43.863  14.389
49619W        W 9155  36.536  13.305  12.964
49620W        W 9156  44.818  14.181  10.031
49621W        W 9157   2.389   0.329   1.348
49622W        W 9158  33.048   0.816   5.246
49623W        W 9159  39.503  14.608  10.963
49624W        W 9160  17.584  32.940   4.654
49625W        W 9161  36.431  19.704  12.829
49626W        W 9162  30.559  19.172   2.372
49627W        W 9163  32.977  29.500   4.718
49628W        W 9164  10.286  29.135  13.010
49629W        W 9165   1.285  10.334   4.838
49630W        W 9166  14.698   4.302  13.910
49631W        W 9167  18.749  26.996  11.572
49632W        W 9168  36.936  39.890   4.703
49633W        W 9169   4.205  36.418   0.388
49634W        W 9170  28.068  24.547  13.371
49635W        W 9171  16.601  38.061   2.266
49636W        W 9172  31.480   0.473  14.371
49637W        W 9173  20.208   5.816  14.979
49638W        W 9174  39.379   9.240  10.983
49639W        W 9175   4.755   9.824  10.951
49640W        W 9176  28.673  37.842   3.308
49641W        W 9177  37.997   8.820   2.307
49642W        W 9178  31.575  38.342  12.414
49643W        W 9179  15.175   6.390   4.315
49644W        W 9180   1.841   1.918  13.021
49645W        W 9181  42.423  22.539   3.197
49646W        W 9182  41.865   5.238  11.472
49647W        W 9183  17.267  40.471  14.990
49648W        W 9184   2.413  22.530  13.430
49649W        W 9185  39.398  25.002   3.181
49650W        W 9186  18.051  29.983   0.423
49651W        W 9187  17.616  10.714   0.943
49652W        W 9188  23.148  11.320   1.250
49653W        W 9189  44.804  13.669   5.663
49654W        W 9190  19.092  25.586   4.198
49655W        W 9191  37.365   3.890  14.769
49656W        W 9192  17.240   9.385   2.309
49657W        W 9193  38.840  26.183  11.495
49658W        W 9194  13.173  14.242   4.188
49659W        W 9195   3.299  29.573  11.454
49660W        W 9196  31.544  41.499  14.467
49661W        W 9197  36.950  21.630   1.746
49662W        W 9198  36.020  13.746   0.372
49663W        W 9199   6.189  11.861  10.121
49664W        W 9200  16.312  11.176   0.312
49665W        W 9201  18.625   9.733  10.538
49666W        W 9202  24.988  15.278  12.380
49667W        W 9203  27.196  35.948   1.356
49668W        W 9204  11.136  23.636  11.072
49669W        W 9205  38.537  23.591   2.875
49670W        W 9206   4.224  30.014  10.931
49671W        W 9207  12.181  40.340  11.112
49672W        W 9208  41.942  29.947  11.912
49673W        W 9209  30.088  12.159  10.451
49674W        W 9210  39.555  15.299  13.453
49675W        W 9211  12.361   5.887   4.121
49676W        W 9212  42.890  37.833   4.321
49677W        W 9213  44.782  36.514   3.230
49678W        W 9214  39.887  27.540   0.756
49679W        W 9215  33.090  41.516   2.273
49680W        W 9216  13.813  41.801  13.411
49681W        W 9217  21.706  44.849  13.984
49682W        W 9218   4.292  29.640   2.791
49683W        W 9219  27.478  29.925  12.433
49684W        W 9220  28.163  32.098   9.949
49685W        W 9221  27.467   9.824   2.777
49686W        W 9222  42.005  40.810  14.977
49687W        W 9223  12.640  29.056  10.945
49688W        W 9224  36.986  27.965  12.060
49689W        W 9225  21.199  40.401  14.410
49690W        W 9226  33.057  42.420   2.272
49691W        W 9227  31.413  18.205  14.335
49692W        W 9228  11.328  42.412  10.406
49693W        W 9229  18.753  28.172   3.303
49694W        W 9230  32.973   6.237  12.836
49695W        W 9231  38.422  31.614   4.207
49696W        W 9232  16.720  16.627   2.300
49697W        W 9233  10.759  40.937  10.965
49698W        W 9234  27.632  16.119  11.379
49699W        W 9235  32.132  32.487  11.599
49700W        W 9236  44.476  26.648   2.855
49701W        W 9237  26.107  37.830   2.682
49702W        W 9238  31.566  23.007   2.246
49703W        W 9239  18.773  42.302   3.253
49704W        W 9240  39.998  32.422   2.898
49705W        W 9241   4.446  14.129  14.806
49706W        W 9242  37.455  34.902   1.424
49707W        W 9243  36.015   0.316  12.413
49708W        W 9244  37.036  24.604   2.373
49709W        W 9245  43.022  13.182  12.484
49710W        W 9246  17.656  26.598   0.396
49711W        W 9247  42.924  29.961   0.781
49712W        W 9248  13.346  32.065  14.495
49713W        W 9249   9.730  39.834   2.733
49714W        W 9250  39.994  39.470  10.965
49715W        W 9251  34.963  20.756  14.819
49716W        W 9252  26.156  35.047  14.023
49717W        W 9253  17.129   1.405  11.941
49718W        W 9254  32.088  11.255  12.509
49719W        W 9255  16.801   3.743  11.986
49720W        W 9256  16.177  14.665   1.403
49721W        W 9257  37.484  25.095  11.991
49722W        W 9258   3.899  24.983  12.026
49723W        W 9259  22.168  28.135   1.901
49724W        W 9260  13.318  36.373  13.441
49725W        W 9261   4.847  10.805  14.345
49726W        W 9262  11.834  34.985   0.861
49727W        W 9263   3.777  24.522   4.296
49728W        W 9264  23.150  43.796   3.784
49729W        W 9265   4.939  19.117  13.048
49730W        W 9266  42.299  37.455   1.750
49731W        W 9267  19.572  34.959  11.535
49732W        W 9268  37.923  32.016   3.723
49733W        W 9269  13.698   6.349  13.352
49734W        W 9270   6.807  22.219   1.905
49735W        W 9271  31.973  43.829   2.332
49736W        W 9272  29.487   5.378   4.772
49737W        W 9273   3.843  27.684   2.261
49738W        W 9274  23.200   2.934   3.776
49739W        W 9275  34.453   0.367  12.945
49740W        W 9276  22.708  43.905   4.163
49741W        W 9277   4.344   9.700   2.353
49742W        W 9278   0.847  42.783  11.994
49743W        W 9279  16.243  18.108   0.763
49744W        W 9280  20.702  42.899  11.924
49745W        W 9281  40.310  33.047   2.189
49746W        W 9282  23.728  34.463   1.316
49747W        W 9283  37.510  35.384   3.839
49748W        W 9284  35.466   7.359  13.049
49749W        W 9285  13.326  22.579   0.316
49750W        W 9286  21.206  38.352  14.796
49751W        W 9287  18.717  23.213  13.875
49752W        W 9288  20.060   3.262   2.196
49753W        W 9289  43.383  27.088   2.778
49754W        W 9290  30.962  20.132   2.187
49755W        W 9291   5.706   1.968  11.966
49756W        W 9292  26.466  30.947   3.754
49757W        W 9293  10.651   3.937   4.650
49758W        W 9294  20.541  34.593  12.825
49759W        W 9295  23.074  12.611  13.938
49760W        W 9296  40.818  26.060  14.007
49761W        W 9297  16.216  43.980  12.946
49762W        W 9298  37.918  12.808   3.386
49763W        W 9299  17.110  11.753   0.423
49764W        W 9300   8.730  20.526   3.798
49765W        W 9301  24.186  35.583   0.414
49766W        W 9302  11.278  42.504  12.042
49767W        W 9303  19.722  33.380  14.479
49768W        W 9304  11.224  17.775   4.315
49769W        W 9305  29.966  29.101   4.727
49770W        W 9306   4.872  30.068  14.848
49771W        W 9307  26.595  44.416   2.758
49772W        W 9308  39.940  27.522  13.889
49773W        W 9309  37.556  36.884  12.076
49774W        W 9310  11.715  18.674  13.048
49775W        W 9311  37.501  29.963   1.366
49776W        W 9312  34.491   6.713   3.335
49777W        W 9313  35.506  24.983   3.700
49778W        W 9314  28.048  12.695  11.958
49779W        W 9315  20.526  15.159   0.347
49780W        W 9316  35.918  12.203  11.012
49781W        W 9317  20.584   2.938   0.775
49782W        W 9318  35.522  20.254   3.281
49783W        W 9319  16.151   5.371   1.442
49784W        W 9320  29.556  11.281  12.846
49785W        W 9321  30.073  42.021   3.237
49786W        W 9322  14.291  33.986   2.735
49787W        W 9323  29.576  18.567   3.190
49788W        W 9324  42.388  25.497  13.502
49789W        W 9325  41.494  17.217  11.378
49790W        W 9326  42.932  34.388  12.075
49791W        W 9327  18.121  39.504  11.548
49792W        W 9328  24.112  32.912  14.805
49793W        W 9329  39.004  19.226  13.848
49794W        W 9330   0.792  30.538   1.735
49795W        W 9331  28.027  20.580  11.062
49796W        W 9332  38.482  11.211   4.826
49797W        W 9333  37.510   4.753  11.992
49798W        W 9334  35.073  15.747  12.973
49799W        W 9335  25.069  33.065   1.370
49800W        W 9336  36.495  36.999  12.979
49801W        W 9337  17.072  36.453  14.778
49802W        W 9338   6.890  24.678  12.351
49803W        W 9339  33.089   6.768   3.689
49804W        W 9340  21.690  12.673  11.438
49805W        W 9341  39.496  34.508  11.563
49806W        W 9342  39.045  41.411  13.030
49807W        W 9343  21.146  24.705  13.460
49808W        W 9344  31.563   9.177   1.312
49809W        W 9345  43.442   5.363  13.989
49810W        W 9346  17.235  13.615   3.700
49811W        W 9347  18.296  30.658   3.168
49812W        W 9348  20.587  33.895  14.319
49813W        W 9349   5.349  38.389  11.512
49814W        W 9350  13.349  40.316   9.921
49815W        W 9351  26.157   4.855  14.842
49816W        W 9352  37.007   9.346  10.423
49817W        W 9353  11.866  29.115   4.271
49818W        W 9354  27.596  19.160   1.311
49819W        W 9355  44.882  39.965  14.860
49820W        W 9356  43.368  23.646   3.364
49821W        W 9357  23.520  32.631   3.257
49822W        W 9358  13.844  44.371   0.843
49823W        W 9359  41.794  28.457   3.166
49824W        W 9360  19.161  17.623  11.602
49825W        W 9361  21.592   4.278  14.988
49826W        W 9362   4.287  18.777   0.303
49827W        W 9363  43.833  32.564   0.289
49828W        W 9364  12.142  25.666  14.484
49829W        W 9365  32.944   2.820   4.312
49830W        W 9366  23.556  33.452   1.381
49831W        W 9367  25.490  15.270  12.381
49832W        W 9368  21.034  40.543   2.824
49833W        W 9369  26.039  19.070  12.954
49834W        W 9370   2.307  20.049  13.024
49835W        W 9371  43.314  38.498   3.341
49836W        W 9372  38.000  18.124   1.435
49837W        W 9373  12.227  14.625   4.667
49838W        W 9374  26.687  33.538   1.760
49839W        W 9375  18.074  35.899  13.843
49840W        W 9376  34.969  12.786  11.449
49841W        W 9377   0.273   6.358   4.245
49842W        W 9378  44.799  37.047   1.805
49843W        W 9379   2.745  26.188  11.118
49844W        W 9380   1.343  34.446   1.832
49845W        W 9381  13.730  41.516  14.394
49846W        W 9382  41.434   4.871   3.768
49847W        W 9383  18.062  43.828  14.298
49848W        W 9384  43.441  21.060  10.112
49849W        W 9385  34.552   8.783   1.421
49850W        W 9386   9.846  13.303  12.044
49851W        W 9387   2.810  44.974   2.731
49852W        W 9388   5.790  33.019  12.066
49853W        W 9389  22.598  29.988  12.348
49854W        W 9390   1.308  14.791  14.462
49855W        W 9391  33.958  12.124   4.254
49856W        W 9392  13.700  39.480  14.303
49857W        W 9393   7.236  37.914   3.752
49858W        W 9394  23.693  17.606   3.301
49859W        W 9395  39.827  44.003   4.272
49860W        W 9396  41.387  17.560   2.788
49861W        W 9397  24.093  11.162  13.808
49862W        W 9398  17.792  11.326   4.792
49863W        W 9399  43.945  36.991  12.547
49864W        W 9400  32.998   5.425  10.578
49865W        W 9401  39.535  35.512  10.534
49866W        W 9402  19.095   0.312   0.382
49867W        W 9403  35.039   0.980   3.243
49868W        W 9404  20.156  19.732  12.947
49869W        W 9405  42.378   2.942   2.190
49870W        W 9406  27.149  36.908  10.484
49871W        W 9407  36.548  24.555  14.408
49872W        W 9408  38.894  41.346  10.002
49873W        W 9409  33.409  43.927   0.439
49874W        W 9410  42.892  29.933   2.706
49875W        W 9411  21.142  39.825  13.357
49876W        W 9412  17.679  26.057  11.502
49877W        W 9413   7.706  20.028  12.856
49878W        W 9414  11.837  22.122  11.395
49879W        W 9415  28.445  13.682  14.464
49880W        W 9416  30.439  44.925   3.309
49881W        W 9417  23.035   9.288   5.745
49882W        W 9418  36.093   3.862   1.279
49883W        W 9419  18.635  36.442   2.759
49884W        W 9420   3.335  31.514   3.199
49885W        W 9421  18.552   8.274   0.939
49886W        W 9422  33.585  37.380  10.927
49887W        W 9423  25.685  24.558  14.021
49888W        W 9424  34.012   4.403   0.743
49889W        W 9425  37.052   2.318  13.026
49890W        W 9426   1.432  34.453   4.247
49891W        W 9427  29.458  44.342   5.307
49892W        W 9428  41.988  34.520   0.957
49893W        W 9429  39.901  10.761   3.192
49894W        W 9430   3.248  16.185  14.948
49895W        W 9431  44.416  28.096   0.361
49896W        W 9432  22.616  19.674  11.525
49897W        W 9433  41.008  13.110  14.925
49898W        W 9434  31.637   1.944   1.896
49899W        W 9435  32.940  25.630  14.276
49900W        W 9436  42.016  41.458  13.936
49901W        W 9437  19.553  35.502  13.849
49902W        W 9438   2.867   0.961   0.795
49903W        W 9439  33.049  20.671  13.362
49904W        W 9440   0.768  23.579   5.184
49905W        W 9441  29.938  44.269   3.806
49906W        W 9442  33.617   5.307   0.875
49907W        W 9443  19.761  10.689  13.457
49908W        W 9444  38.829  41.364   1.351
49909W        W 9445   3.270   4.795  12.044
49910W        W 9446  25.601  11.812   3.208
49911W        W 9447  30.075   7.327  13.426
49912W        W 9448  14.684  14.751   0.285
49913W        W 9449   6.225  28.437   2.792
49914W        W 9450  21.086   8.376   3.821
49915W        W 9451  10.180   8.308   5.165
49916W        W 9452  44.814  27.506   4.349
49917W        W 9453  42.378  32.402   3.219
49918W        W 9454  44.985   0.851   4.813
49919W        W 9455  12.849  16.284   1.277
49920W        W 9456  27.593   9.369  11.488
49921W        W 9457  32.951  19.724  14.792
49922W        W 9458  11.220  26.098   1.825
49923W        W 9459  31.624  34.871  12.053
49924W        W 9460   4.825  19.273   1.288
49925W        W 9461  19.544  18.618   4.739
49926W        W 9462  34.507  37.530  11.080
49927W        W 9463   8.260  35.054   3.648
49928W        W 9464  36.867  10.373  10.425
49929W        W 9465   5.696  39.934   2.264
49930W        W 9466   9.378   5.798  10.467
49931W        W 9467  20.072  39.527  11.524
49932W        W 9468   5.406  27.133  12.881
49933W        W 9469  10.344   0.312  11.477
49934W        W 9470   7.220  40.508   0.406
49935W        W 9471  41.887  18.711   3.326
49936W        W 9472  32.394  21.625  12.373
49937W        W 9473  16.265  31.905  12.543
49938W        W 9474   1.905  40.384   1.217
49939W        W 9475  37.852  18.145  14.759
49940W        W 9476   9.192  22.237  13.044
49941W        W 9477  34.421  41.440  12.381
49942W        W 9478  32.440  42.478   2.829
49943W        W 9479  44.296  27.480  12.475
49944W        W 9480  42.418  11.277   9.547
49945W        W 9481  14.096  41.002   4.807
49946W        W 9482   0.488  19.715   2.273
49947W        W 9483   2.362  39.513  11.400
49948W        W 9484  23.559  34.462   4.649
49949W        W 9485  10.152  44.994   1.308
49950W        W 9486  22.705  24.143  12.506
49951W        W 9487  18.650  42.402   2.324
49952W        W 9488  20.648  35.397   1.276
49953W        W 9489   4.850  37.914  13.854
49954W        W 9490  10.202  32.040  14.008
49955W        W 9491   2.397  29.152   4.780
49956W        W 9492  10.325  40.419   0.481
49957W        W 9493  11.738  14.634  10.938
49958W        W 9494  18.064   2.768  12.088
49959W        W 9495   9.325  35.968   2.376
49960W        W 9496   6.812  37.498  10.566
49961W        W 9497  16.315  38.399  13.954
49962W        W 9498  11.712  22.174  13.444
49963W        W 9499  37.919  28.572   2.189
49964W        W 9500  40.815  24.004   1.827
49965W        W 9501  15.290  39.942   4.253
49966W        W 9502  39.811  17.242  12.989
49967W        W 9503  28.473  26.120  13.535
49968W        W 9504  14.728  12.845   5.107
49969W        W 9505  34.893  33.537   5.162
49970W        W 9506  24.178  19.094  13.942
49971W        W 9507   0.961  30.607   4.833
49972W        W 9508  37.021  24.191  11.004
49973W        W 9509   2.755  41.428   1.869
49974W        W 9510  10.775  30.607   4.741
49975W        W 9511  35.597  17.075   4.133
49976W        W 9512  11.157  14.160  14.992
49977W        W 9513  25.669  11.155   2.709
49978W        W 9514  26.566  29.424   3.702
49979W        W 9515   8.394  15.262  10.625
49980W        W 9516  42.808  44.476  10.964
49981W        W 9517   5.694  41.350   3.222
49982W        W 9518  24.521  13.794  13.914
49983W        W 9519  42.885  39.994  12.369
49984W        W 9520  40.524  42.783   1.317
49985W        W 9521  42.370  40.806   3.633
49986W        W 9522  18.595  32.557  11.101
49987W        W 9523  17.110  34.955   0.883
49988W        W 9524  15.204  43.840   4.617
49989W        W 9525   2.860  26.966   4.160
49990W        W 9526   1.306   9.860  14.369
49991W        W 9527  17.677  26.465   3.845
49992W        W 9528   2.852  11.307   4.693
49993W        W 9529  38.010  24.631   0.381
49994W        W 9530  38.487  40.368   1.307
49995W        W 9531  32.984  28.453   3.664
49996W        W 9532  12.779  14.313   5.113
49997W        W 9533  19.664  38.370  10.933
49998W        W 9534  22.238  20.687   1.716
49999W        W 9535  30.646   7.763  14.968
50000W        W 9536  43.288   4.393   1.243
50001W        W 9537  26.593  22.033   5.243
50002W        W 9538  31.484  34.591  13.936
50003W        W 9539  20.128  35.079   0.938
50004W        W 9540  43.018  31.528   2.337
50005W        W 9541  16.589  29.574  13.446
50006W        W 9542   2.328   5.409   2.891
50007W        W 9543  29.530  35.877   3.337
50008W        W 9544   5.884  42.381  13.970
50009W        W 9545  37.506   9.192   2.228
50010W        W 9546   4.415  24.573  12.557
50011W        W 9547  17.278  39.420  10.500
50012W        W 9548  34.923  19.051  12.402
50013W        W 9549  37.897   0.468  12.349
50014W        W 9550   7.889   3.309   5.211
50015W        W 9551  37.402  22.038  11.481
50016W        W 9552  12.313   7.896   3.257
50017W        W 9553  36.919   9.726  13.024
50018W        W 9554  32.024  32.411   0.734
50019W        W 9555   0.274  31.008  14.908
50020W        W 9556  28.999   4.854  14.875
50021W        W 9557   5.757  24.671  14.835
50022W        W 9558  36.591  18.136   1.223
50023W        W 9559   9.766  17.631   3.331
50024W        W 9560   6.248   2.443   1.276
50025W        W 9561  25.491   5.844  12.555
50026W        W 9562  31.135  38.464  11.054
50027W        W 9563   6.330  25.625   4.765
50028W        W 9564  40.447  29.069  12.564
50029W        W 9565  25.069  15.778   4.668
50030W        W 9566  24.042  17.121   4.265
50031W        W 9567  41.497  19.274  12.961
50032W        W 9568  18.246  33.407  10.973
50033W        W 9569  25.101  29.544   0.306
50034W        W 9570  22.505  28.599   3.208
50035W        W 9571  43.930  22.100   3.680
50036W        W 9572   9.777  19.648   1.761
50037W        W 9573  19.072  25.170   1.776
50038W        W 9574   7.171  41.879   4.200
50039W        W 9575  12.199  29.648   1.790
50040W        W 9576  38.979  22.249   4.699
50041W        W 9577   3.315   6.739  12.825
50042W        W 9578  29.554  41.450  10.916
50043W        W 9579   1.341  37.892   4.275
50044W        W 9580  36.347   8.665   1.763
50045W        W 9581  37.003  34.533   3.339
50046W        W 9582  25.116  38.846  11.940
50047W        W 9583   5.193   8.369  11.441
50048W        W 9584  20.124  32.393   1.808
50049W        W 9585  43.892  23.593  14.410
50050W        W 9586  44.264   2.361   2.351
50051W        W 9587  34.902  42.873   2.237
50052W        W 9588   0.821  40.937   4.619
50053W        W 9589   0.746  40.852   0.412
50054W        W 9590  42.011  43.507   2.351
50055W        W 9591  25.969  19.253  12.377
50056W        W 9592   0.932  20.596   1.754
50057W        W 9593   4.212  42.032   0.795
50058W        W 9594   3.408  12.736  12.382
50059W        W 9595  29.437  37.954   1.846
50060W        W 9596   4.362   0.255   4.179
50061W        W 9597  42.421   7.227   2.303
50062W        W 9598  27.985  37.884   1.759
50063W        W 9599  10.184  29.564  10.597
50064W        W 9600  37.080  11.847  11.996
50065W        W 9601  27.096  41.954  11.554
50066W        W 9602  42.325  11.821  14.925
50067W        W 9603  24.108  41.422  14.357
50068W        W 9604   5.360  30.533   4.790
50069W        W 9605  38.065   5.238   2.188
50070W        W 9606   0.488  33.548  13.910
50071W        W 9607  29.011  23.588  14.447
50072W        W 9608  41.428  34.865  12.366
50073W        W 9609  12.725  16.721   1.712
50074W        W 9610  31.909  11.788  11.942
50075W        W 9611  21.620  18.731   1.335
50076W        W 9612  29.948  21.641   0.402
50077W        W 9613  39.862  32.556   2.293
50078W        W 9614  16.596  38.424   3.183
50079W        W 9615  37.049  24.684   4.263
50080W        W 9616  14.622  42.395   2.764
50081W        W 9617  11.322  23.671  14.865
50082W        W 9618  13.230   8.746  14.363
50083W        W 9619  16.687  27.626  12.547
50084W        W 9620   1.253  15.202   3.671
50085W        W 9621  17.751   6.786  14.912
50086W        W 9622  40.944  23.188   0.896
50087W        W 9623  12.144  26.978  14.307
50088W        W 9624   6.349   7.678   4.641
50089W        W 9625  36.994   9.792  14.360
50090W        W 9626   9.328  37.513   2.765
50091W        W 9627   2.422  37.477   3.670
50092W        W 9628  20.082  24.034  14.957
50093W        W 9629  27.993  39.890  12.548
50094W        W 9630  39.465  30.517  12.824
50095W        W 9631  10.252  35.048   5.216
50096W        W 9632  11.284  18.584  12.978
50097W        W 9633  21.052  43.272  12.465
50098W        W 9634   3.839  12.818  12.054
50099W        W 9635   8.805  44.772  13.953
50100W        W 9636  15.689  42.905  13.347
50101W        W 9637  41.005  37.451  13.351
50102W        W 9638  44.443  22.504  13.884
50103W        W 9639  44.391  29.152   3.741
50104W        W 9640  17.760  35.981  10.536
50105W        W 9641  18.703  39.985  14.785
50106W        W 9642  17.705  36.017   3.222
50107W        W 9643  20.657  31.019  14.830
50108W        W 9644  32.531  32.027  10.888
50109W        W 9645   6.394  21.091  12.553
50110W        W 9646  30.451  16.574  11.552
50111W        W 9647  44.977  36.366  10.964
50112W        W 9648  27.605  27.044   2.691
50113W        W 9649  23.642  19.049  11.104
50114W        W 9650  18.550   9.237  12.025
50115W        W 9651   6.293  32.540   2.276
50116W        W 9652   1.879  31.122  11.952
50117W        W 9653  43.793  27.975   4.678
50118W        W 9654  37.932  32.593  14.413
50119W        W 9655  36.498  31.932   5.284
50120W        W 9656  22.592  12.655   1.726
50121W        W 9657  43.347  30.019  13.329
50122W        W 9658  11.692  19.057  13.891
50123W        W 9659  22.137  22.740   1.245
50124W        W 9660  44.898   6.414  10.901
50125W        W 9661  44.377   2.441  14.391
50126W        W 9662  32.416  39.396  14.319
50127W        W 9663  14.112  21.158  13.309
50128W        W 9664  32.998   7.311  14.800
50129W        W 9665   9.172   2.450  14.329
50130W        W 9666  33.612  44.469  13.398
50131W        W 9667   2.721   4.894  11.503
50132W        W 9668  42.484   4.725  13.002
50133W        W 9669  26.031  29.458   4.685
50134W        W 9670  16.767  38.025  13.991
50135W        W 9671  12.124   6.185   3.810
50136W        W 9672  30.431  26.152  11.374
50137W        W 9673  41.792   0.883   4.176
50138W        W 9674  11.751   7.677   2.809
50139W        W 9675  23.001  16.128  11.946
50140W        W 9676  17.264  28.935   1.892
50141W        W 9677  30.950  42.860  13.823
50142W        W 9678  33.099  43.498   1.391
50143W        W 9679  28.102  42.471  13.859
50144W        W 9680  15.240   0.339   2.250
50145W        W 9681  44.385  23.172   2.371
50146W        W 9682  10.733  11.183   2.843
50147W        W 9683  40.328  23.022  14.905
50148W        W 9684  10.650  25.562  14.791
50149W        W 9685  22.201  37.996   2.281
50150W        W 9686  14.138   4.429  12.039
50151W        W 9687  42.527  23.669  14.469
50152W        W 9688  10.694  36.960   4.809
50153W        W 9689  33.130  20.658  13.991
50154W        W 9690  37.924   1.308   2.290
50155W        W 9691  23.190  35.023   9.665
50156W        W 9692  12.331  43.373   2.704
50157W        W 9693  33.580  33.527  14.325
50158W        W 9694  35.870   9.196  14.379
50159W        W 9695  36.026  38.879   2.672
50160W        W 9696  32.479  20.623  11.592
50161W        W 9697  16.124  40.405   2.853
50162W        W 9698   1.380  37.369   2.392
50163W        W 9699  36.568  35.432  13.011
50164W        W 9700  31.636  16.773   3.376
50165W        W 9701  26.015  14.682   0.814
50166W        W 9702  28.585  15.104   1.318
50167W        W 9703  37.512  30.570   1.373
50168W        W 9704  28.082   1.780  14.883
50169W        W 9705  27.600  29.005  13.963
50170W        W 9706  35.903  11.359   0.338
50171W        W 9707  42.014  14.741  12.076
50172W        W 9708  25.995  23.663   0.931
50173W        W 9709   9.829  39.873   4.798
50174W        W 9710  24.228  35.395  12.512
50175W        W 9711  36.015   2.282   2.224
50176W        W 9712  26.616  41.836  14.821
50177W        W 9713  11.229  31.576  11.929
50178W        W 9714  17.240  32.563   0.362
50179W        W 9715  36.970  44.499   0.911
50180W        W 9716  10.650   4.312   4.289
50181W        W 9717   5.909  41.826  13.432
50182W        W 9718   1.425  40.990   3.754
50183W        W 9719  10.875  19.232   1.400
50184W        W 9720  33.597  33.554   2.719
50185W        W 9721  35.539   5.688  13.819
50186W        W 9722  37.516  26.613   1.385
50187W        W 9723  14.140  21.111   4.640
50188W        W 9724   6.755  38.071   4.245
50189W        W 9725  44.487  23.507   2.835
50190W        W 9726  40.926  25.503  11.518
50191W        W 9727  30.588  10.672  14.354
50192W        W 9728  40.873  16.098   3.706
50193W        W 9729  25.635  21.074  12.532
50194W        W 9730  25.599  36.563   1.742
50195W        W 9731   9.646  12.311   0.741
50196W        W 9732   3.310   8.327  14.890
50197W        W 9733   5.337  22.099  14.789
50198W        W 9734  16.136  16.242   2.827
50199W        W 9735   2.797  28.613   3.330
50200W        W 9736  12.333   4.323   9.662
50201W        W 9737  37.452  14.727  10.937
50202W        W 9738  41.981  34.383  14.391
50203W        W 9739   8.329  43.506   0.372
50204W        W 9740   2.938  20.590  10.962
50205W        W 9741  14.195  24.206   0.755
50206W        W 9742  13.173  16.652   1.787
50207W        W 9743   4.287   9.773  14.495
50208W        W 9744  11.363  14.287   2.281
50209W        W 9745   4.216  43.987  14.509
50210W        W 9746  42.347  28.661  11.505
50211W        W 9747  35.517   0.947  12.391
50212W        W 9748  10.686  36.465  11.588
50213W        W 9749   9.847   8.203  14.418
50214W        W 9750  28.628  42.899  13.505
50215W        W 9751   1.339  32.949   3.692
50216W        W 9752  31.582  32.099  13.055
50217W        W 9753  19.753   1.783   2.195
50218W        W 9754   7.753  12.199   0.843
50219W        W 9755  24.615  24.056   2.260
50220W        W 9756   4.753  19.638  11.083
50221W        W 9757  22.557  18.131  10.109
50222W        W 9758  34.481  42.414   1.886
50223W        W 9759  30.909  44.762  12.937
50224W        W 9760  31.898  13.288  10.574
50225W        W 9761  20.540  44.964  13.962
50226W        W 9762   8.755   5.284  13.005
50227W        W 9763  28.103  17.193  12.966
50228W        W 9764  41.952   8.359  10.496
50229W        W 9765  41.452  16.762   0.786
50230W        W 9766  39.379   3.889  13.960
50231W        W 9767  34.060   4.718  11.045
50232W        W 9768   6.325  39.391  10.601
50233W        W 9769  43.821  43.338  10.460
50234W        W 9770  43.304  27.633  11.518
50235W        W 9771  14.290  42.511  10.509
50236W        W 9772  39.016  33.875   4.353
50237W        W 9773  38.394  41.976  13.464
50238W        W 9774   1.799   1.388   0.924
50239W        W 9775  22.719  43.307  14.508
50240W        W 9776  17.774   4.707  12.371
50241W        W 9777  26.071  24.097   0.741
50242W        W 9778  25.561  43.335   2.717
50243W        W 9779  23.233  24.118   2.187
50244W        W 9780   8.696  28.085   2.713
50245W        W 9781   1.755   2.933   1.903
50246W        W 9782  27.970   9.652   4.628
50247W        W 9783   5.273  39.046   0.798
50248W        W 9784  43.272  42.526   4.187
50249W        W 9785  42.388  42.308   4.814
50250W        W 9786   8.814  33.584   2.823
50251W        W 9787  16.092   5.424   0.324
50252W        W 9788  10.210  25.561   1.789
50253W        W 9789  18.624  19.083  12.385
50254W        W 9790  10.304  12.805  12.013
50255W        W 9791  42.786  38.909   4.649
50256W        W 9792  39.554  35.489   4.672
50257W        W 9793  27.683  34.585   0.258
50258W        W 9794  30.613  35.870   2.237
50259W        W 9795   4.837   8.212  14.829
50260W        W 9796  14.230  35.007  14.844
50261W        W 9797  12.814   2.363  14.316
50262W        W 9798  18.640  12.717  12.504
50263W        W 9799   2.795   8.865  13.852
50264W        W 9800  14.210  27.071  12.927
50265W        W 9801  18.204   5.383  11.398
50266W        W 9802  33.882  12.837   3.809
50267W        W 9803  31.148   4.239  12.019
50268W        W 9804  10.276  25.609   4.598
50269W        W 9805  44.826  44.289   3.261
50270W        W 9806  16.764  19.250  11.871
50271W        W 9807  43.795  22.060  13.020
50272W        W 9808  15.209  17.678  14.864
50273W        W 9809  11.626   7.258  10.107
50274W        W 9810  40.321  28.655   3.642
50275W        W 9811  34.941  31.483  13.022
50276W        W 9812  38.569  31.906  12.515
50277W        W 9813  33.425  42.801   5.281
50278W        W 9814  30.588  21.043  10.496
50279W        W 9815  17.198  22.041   2.178
50280W        W 9816  41.942  34.903   0.948
50281W        W 9817  39.425  29.029   3.262
50282W        W 9818  28.648  18.053  14.023
50283W        W 9819  41.986  27.082  14.924
50284W        W 9820  14.831  43.771  11.479
50285W        W 9821  43.489  30.929   3.700
50286W        W 9822  10.174   1.875  12.508
50287W        W 9823  30.102  14.609  10.545
50288W        W 9824   6.841  17.611   0.442
50289W        W 9825  13.617  21.559  13.336
50290W        W 9826  11.269  27.526   4.348
50291W        W 9827   7.170  43.789   2.726
50292W        W 9828  19.170  40.009  13.035
50293W        W 9829  25.157  31.604  14.306
50294W        W 9830  26.178  16.569  11.507
50295W        W 9831  40.316   4.829   1.813
50296W        W 9832  35.487  16.166   4.255
50297W        W 9833  25.206  39.432   2.774
50298W        W 9834   9.800  38.061  14.030
50299W        W 9835   5.207  34.977  14.994
50300W        W 9836  24.639  22.180  12.470
50301W        W 9837  21.240  38.351   9.467
50302W        W 9838  24.545   2.367   2.711
50303W        W 9839  33.066  39.813  14.969
50304W        W 9840  36.403  30.073   4.667
50305W        W 9841  38.903  20.216  11.386
50306W        W 9842  26.952  42.875  13.996
50307W        W 9843  27.653   8.697  12.900
50308W        W 9844  21.236  25.209  13.425
50309W        W 9845  37.972  16.595  13.871
50310W        W 9846   1.309  31.956  11.957
50311W        W 9847  40.944  26.640   3.811
50312W        W 9848  43.410  32.557  13.017
50313W        W 9849  25.024  27.544  12.411
50314W        W 9850  42.312  16.701   2.388
50315W        W 9851  38.937  34.064   4.806
50316W        W 9852  24.508   8.240  12.091
50317W        W 9853  35.437  22.531   3.710
50318W        W 9854  41.867   6.843   2.699
50319W        W 9855  27.157   6.789  13.986
50320W        W 9856  37.450   8.404   4.777
50321W        W 9857   9.361  29.499  11.592
50322W        W 9858   9.698  32.095  11.063
50323W        W 9859  38.569  30.577  12.992
50324W        W 9860  33.546  10.836   4.318
50325W        W 9861  43.827  31.450   0.354
50326W        W 9862  24.603  31.079  12.480
50327W        W 9863  14.715   3.262  12.097
50328W        W 9864  21.612  21.257  10.525
50329W        W 9865  41.034  28.065  10.934
50330W        W 9866   9.235  27.014  12.852
50331W        W 9867  35.439  40.538  10.447
50332W        W 9868  15.583  22.726   0.827
50333W        W 9869  38.476  37.997  11.996
50334W        W 9870  35.509  40.949   2.300
50335W        W 9871  43.847  11.353   1.723
50336W        W 9872  44.916  11.826  13.865
50337W        W 9873  13.649  21.699  14.366
50338W        W 9874  32.588  23.111   1.372
50339W        W 9875  37.408   3.722  13.410
50340W        W 9876  15.220  32.489  13.016
50341W        W 9877  37.076   2.408   1.362
50342W        W 9878  20.203  42.779  13.482
50343W        W 9879  16.612   2.377  13.917
50344W        W 9880  35.598  30.968   3.223
50345W        W 9881  28.608  22.725  11.398
50346W        W 9882  34.574  14.622  13.010
50347W        W 9883  28.936   8.350  13.335
50348W        W 9884  44.948  13.279   4.709
50349W        W 9885   0.344  38.822  14.291
50350W        W 9886  28.626  26.175   3.787
50351W        W 9887  43.509  14.638  11.893
50352W        W 9888  44.386  38.525   3.818
50353W        W 9889  17.081  10.142   4.153
50354W        W 9890  23.580  39.898   4.122
50355W        W 9891  23.630   2.288   5.263
50356W        W 9892   5.867  14.293  14.831
50357W        W 9893  26.138  43.403  11.098
50358W        W 9894  36.917  34.047   3.258
50359W        W 9895  11.651  23.211   0.260
50360W        W 9896  17.675   5.368   2.388
50361W        W 9897   3.398  40.027  10.070
50362W        W 9898  11.766   7.236  11.484
50363W        W 9899  21.720  41.363  14.287
50364W        W 9900   3.257  36.411   3.794
50365W        W 9901  26.581  19.146  10.450
50366W        W 9902  17.284  26.186  12.476
50367W        W 9903  18.690  36.864  13.839
50368W        W 9904   2.447  28.492  14.392
50369W        W 9905  28.033  38.449  10.512
50370W        W 9906  12.726  26.595   4.623
50371W        W 9907  34.433   9.861   2.852
50372W        W 9908  15.794  24.084  12.489
50373W        W 9909  15.294  31.575  14.433
50374W        W 9910   8.165   5.278   1.742
50375W        W 9911   5.852   1.421   0.320
50376W        W 9912  19.138  32.541  11.988
50377W        W 9913   0.300  33.386  11.919
50378W        W 9914  29.453  20.675  12.889
50379W        W 9915  44.982  44.311   0.892
50380W        W 9916  12.637  27.056  11.454
50381W        W 9917   3.373  12.745  12.966
50382W        W 9918  20.106  18.137   2.723
50383W        W 9919  30.490  30.939   3.821
50384W        W 9920  24.601   5.784   1.424
50385W        W 9921  35.908  35.490  11.948
50386W        W 9922  36.005  28.085   2.807
50387W        W 9923  38.874  32.101  14.871
50388W        W 9924   2.819   5.198   4.230
50389W        W 9925  43.979  12.299   0.483
50390W        W 9926   6.194  35.885  14.499
50391W        W 9927  29.149  41.849   4.148
50392W        W 9928  26.016  30.105  14.377
50393W        W 9929  23.560   2.275  11.123
50394W        W 9930   7.187   8.818  10.936
50395W        W 9931  34.577   9.699  11.863
50396W        W 9932  30.039  27.017  11.512
50397W        W 9933  21.583  14.225  11.375
50398W        W 9934  18.622  11.254   4.220
50399W        W 9935  40.052  40.946  11.966
50400W        W 9936  11.783  13.632   2.862
50401W        W 9937  36.858   6.368   3.155
50402W        W 9938   9.239  44.884   1.911
50403W        W 9939   9.857  25.572  11.417
50404W        W 9940  27.958   4.908  11.988
50405W        W 9941  28.520  14.697  13.939
50406W        W 9942  38.075  29.605  13.054
50407W        W 9943  10.727  41.811  12.836
50408W        W 9944   2.417  15.274  12.495
50409W        W 9945  10.871  44.275   4.146
50410W        W 9946  39.429  18.560   4.225
50411W        W 9947   2.274  13.772   0.397
50412W        W 9948   3.436  22.142   2.346
50413W        W 9949  41.961  27.128  10.504
50414W        W 9950   5.799  24.157  13.499
50415W        W 9951   3.334  30.509   4.680
50416W        W 9952  34.535  30.147   4.353
50417W        W 9953  42.980   4.785   1.759
50418W        W 9954  28.055  29.046  14.312
50419W        W 9955  35.017  43.430  12.060
50420W        W 9956  12.140   3.461  10.537
50421W        W 9957  32.007   5.210  12.458
50422W        W 9958   1.329  25.144   2.385
50423W        W 9959  44.971  30.931   2.804
50424W        W 9960   6.856  33.583  13.883
50425W        W 9961  10.798   7.226  12.563
50426W        W 9962  12.676  11.627  12.376
50427W        W 9963   7.255  21.586  14.958
50428W        W 9964   3.337   3.748  10.955
50429W        W 9965  27.550  29.025   4.136
50430W        W 9966   8.333  18.232   2.388
50431W        W 9967  25.478  25.672   2.386
50432W        W 9968   2.729  20.579  13.323
50433W        W 9969  30.518  41.015  10.499
50434W        W 9970  32.950   5.710   4.781
50435W        W 9971  13.717  22.008  11.927
50436W        W 9972  30.562  36.536   3.379
50437W        W 9973  44.784  30.472  13.945
50438W        W 9974  31.622  26.154   0.346
50439W        W 9975   2.351  37.413   2.699
50440W        W 9976  34.509  26.186   0.433
50441W        W 9977  15.644  36.580   4.832
50442W        W 9978  26.624  11.651   5.184
50443W        W 9979  15.131  23.675   4.659
50444W        W 9980  44.779  37.959   2.760
50445W        W 9981  21.164  27.608  12.960
50446W        W 9982  19.264  10.142   3.636
50447W        W 9983  14.276   6.752   3.229
50448W        W 9984   6.260  17.204  14.379
50449W        W 9985  29.040  43.279  12.055
50450W        W 9986  26.581  15.677  13.474
50451W        W 9987  44.783  15.141  13.905
50452W        W 9988  24.075   6.406  13.317
50453W        W 9989   7.225   6.795  11.393
50454W        W 9990  30.527   4.832   3.217
50455W        W 9991  35.941  10.850  12.548
50456W        W 9992  14.159  25.207   0.823
50457W        W 9993  11.671  34.020  10.493
50458W        W 9994  37.576   5.723  14.842
50459W        W 9995  18.672  41.828   3.200
50460W        W 9996  28.106   9.211   0.246
50461W        W 9997  13.126  26.190   3.154
50462W        W 9998  27.028  26.579   1.263
50463W        W 9999  44.401  42.509   4.224
50464W        W10000  34.993  43.824  13.853
50465W        W10001  39.056   4.755   3.295
50466W        W10002   8.825  39.961  12.498
50467W        W10003  24.206  42.379   4.683
50468W        W10004  35.900   9.202  12.850
50469W        W10005  29.160  23.163   4.181
50470W        W10006  16.750  22.594  12.946
50471W        W10007  25.547  16.779   3.361
50472W        W10008  23.184  32.944  12.975
50473W        W10009  39.926  26.969   3.806
50474W        W10010  42.424  43.793  11.564
50475W        W10011  15.265  17.140   0.340
50476W        W10012  31.436  12.808   1.712
50477W        W10013   2.792   7.204   0.881
50478W        W10014  28.065   1.390  14.288
50479W        W10015  29.034   8.221  12.418
50480W        W10016   2.844  11.736   0.916
50481W        W10017  30.513  16.795  14.361
50482W        W10018  44.856  20.566  13.841
50483W        W10019  13.227  35.862  11.477
50484W        W10020  39.426  37.481   2.676
50485W        W10021  36.845  24.134  10.479
50486W        W10022  35.957  12.728  10.446
50487W        W10023  21.168  41.986   2.188
50488W        W10024  18.139  29.952   4.609
50489W        W10025   1.325  34.967   0.954
50490W        W10026  11.831  34.905  11.591
50491W        W10027  43.482   7.708   0.369
50492W        W10028  40.348  30.640  14.354
50493W        W10029  24.557   5.714   1.800
50494W        W10030  17.225   6.885   3.352
50495W        W10031   4.335  38.022   1.788
50496W        W10032  31.533  33.891   1.700
50497W        W10033  21.592  27.948   4.778
50498W        W10034   2.910  22.684   4.806
50499W        W10035   3.303  36.036  10.989
50500W        W10036   7.909  39.415  14.009
50501W        W10037  42.912  14.136  13.040
50502W        W10038   2.864  21.616  10.929
50503W        W10039  14.761  18.716  12.989
50504W        W10040  26.148   6.732  14.294
50505W        W10041   8.189  43.795  12.512
50506W        W10042  10.798  36.464   1.711
50507W        W10043  14.745  24.550  10.994
50508W        W10044  14.281  19.278  10.943
50509W        W10045  21.170  28.461  14.406
50510W        W10046   7.355  13.764   1.799
50511W        W10047  36.583  21.247   1.929
50512W        W10048  37.984  19.158  12.568
50513W        W10049  30.150  38.497  13.837
50514W        W10050   0.312  12.788   1.805
50515W        W10051   0.317  12.205  13.920
50516W        W10052  31.432  26.471  13.017
50517W        W10053  33.117   0.875   4.231
50518W        W10054  37.366  41.039  11.930
50519W        W10055  44.308  11.829  10.990
50520W        W10056   9.809  24.044  12.059
50521W        W10057  40.037  24.054   3.691
50522W        W10058  30.421  44.305  12.883
50523W        W10059  22.164  22.056  12.912
50524W        W10060   5.733   0.886  12.052
50525W        W10061  31.016  19.116   4.758
50526W        W10062   6.691  43.831   1.880
50527W        W10063   2.771  39.967   2.379
50528W        W10064   7.385  35.417   0.879
50529W        W10065  38.395  18.286  13.886
50530W        W10066  32.594  19.577  10.020
50531W        W10067   6.397  33.077  13.797
50532W        W10068  25.673  11.322  12.998
50533W        W10069  40.354  36.095  11.979
50534W        W10070  21.539   4.400  13.064
50535W        W10071  17.799   4.353  13.309
50536W        W10072  37.979  31.450  14.449
50537W        W10073  28.932  10.701   3.378
50538W        W10074  28.472  18.252   0.967
50539W        W10075  34.032  14.334   5.085
50540W        W10076  13.613   6.807  13.011
50541W        W10077   2.370  43.764  14.412
50542W        W10078  12.310   3.275  11.435
50543W        W10079   7.668  10.795  14.376
50544W        W10080  21.209   9.786   0.861
50545W        W10081  12.850  19.174  11.391
50546W        W10082  44.982  34.975   3.711
50547W        W10083  38.462   1.748   1.245
50548W        W10084  39.884   9.318  11.432
50549W        W10085  22.156   8.397   2.682
50550W        W10086  17.638  11.292   1.834
50551W        W10087   3.395   3.764   0.962
50552W        W10088   1.237  29.005   2.714
50553W        W10089  29.151  27.176  13.024
50554W        W10090   5.710  30.598  12.971
50555W        W10091  14.829   1.803  12.416
50556W        W10092   1.926   1.447  10.920
50557W        W10093  35.560   7.685  11.382
50558W        W10094  26.622  41.887   3.154
50559W        W10095  24.540  39.931   4.298
50560W        W10096  29.623  14.109   5.118
50561W        W10097  27.654  18.550   2.188
50562W        W10098  10.747   3.825  10.924
50563W        W10099   0.806  30.105   0.789
50564W        W10100  17.261  29.497  10.923
50565W        W10101  15.329  18.248  13.026
50566W        W10102  29.431  16.744   3.283
50567W        W10103  15.240  40.050  13.887
50568W        W10104  43.898   2.924   2.264
50569W        W10105  23.631  11.864   4.692
50570W        W10106  39.485  11.789   1.720
50571W        W10107   0.419  12.825   1.277
50572W        W10108  20.160  16.235   1.228
50573W        W10109   1.361  44.311   0.315
50574W        W10110   4.883   2.342   3.695
50575W        W10111  33.420  23.493   4.292
50576W        W10112  24.064  16.220   4.164
50577W        W10113  11.684   9.699  10.603
50578W        W10114  26.618  41.326  11.066
50579W        W10115  38.478   5.245   0.455
50580W        W10116   0.766   1.946  13.844
50581W        W10117  19.622  23.552   1.712
50582W        W10118   7.351  22.635   2.773
50583W        W10119  42.777   3.858   2.246
50584W        W10120  13.171   7.742   3.277
50585W        W10121   0.918  44.822   2.196
50586W        W10122  42.856  30.442  11.470
50587W        W10123   5.856  16.723  14.891
50588W        W10124  18.774  12.205  14.926
50589W        W10125  19.098  12.251  11.525
50590W        W10126  38.408  25.974   3.668
50591W        W10127  39.905   7.718  12.371
50592W        W10128   9.807  23.028   3.719
50593W        W10129  33.098  38.987   2.413
50594W        W10130  10.309  19.647  12.877
50595W        W10131  14.103   1.372   4.652
50596W        W10132   3.375  18.231  10.567
50597W        W10133  21.241  31.953   1.883
50598W        W10134  19.152   4.699   3.373
50599W        W10135   3.918   4.396   0.794
50600W        W10136  21.042  33.507   2.794
50601W        W10137  29.013   0.843  13.027
50602W        W10138  25.973  15.241  14.777
50603W        W10139  39.814  37.544   2.673
50604W        W10140  23.155  30.011   4.782
50605W        W10141  24.668  22.100   9.479
50606W        W10142  23.545  34.981   4.302
50607W        W10143  36.454  25.540   3.774
50608W        W10144  26.640  11.271  12.419
50609W        W10145  29.493  42.024  14.815
50610W        W10146  34.603  10.179   4.702
50611W        W10147  12.270   3.293   3.261
50612W        W10148   6.846   1.280  14.990
50613W        W10149  40.005   1.361  10.560
50614W        W10150  36.482  11.208   1.391
50615W        W10151  12.228  38.405  14.279
50616W        W10152  19.728  10.330  12.890
50617W        W10153  41.943  43.977   0.943
50618W        W10154  31.451   6.885  11.552
50619W        W10155  35.379  26.634  10.496
50620W        W10156  42.367   6.754  11.394
50621W        W10157   4.927  44.342  14.770
50622W        W10158  36.433  42.971  12.907
50623W        W10159  31.921  44.784  14.337
50624W        W10160   8.866  35.416   3.242
50625W        W10161  42.971  14.764  12.471
50626W        W10162   7.889   0.251   2.275
50627W        W10163  18.721   6.207  11.878
50628W        W10164  28.592  29.543  11.594
50629W        W10165  31.441  36.569  11.068
50630W        W10166  10.345   1.912  12.020
50631W        W10167  36.469  44.456   4.604
50632W        W10168  17.794  18.126   5.228
50633W        W10169  18.118  21.662   3.721
50634W        W10170  39.980  34.596   4.216
50635W        W10171  28.467   9.181  10.445
50636W        W10172  30.466  35.056  12.974
50637W        W10173  40.424   1.886   2.894
50638W        W10174  17.786  28.967  10.559
50639W        W10175  17.736  44.867   2.317
50640W        W10176  28.050  32.033  13.891
50641W        W10177  24.130   6.251   3.845
50642W        W10178   2.810  31.131   0.937
50643W        W10179  43.975  14.668  11.574
50644W        W10180  20.102   0.833  14.907
50645W        W10181   7.670   4.922   0.473
50646W        W10182  28.999  38.489   2.862
50647W        W10183  28.472  38.444   0.960
50648W        W10184  37.930  12.243  12.472
50649W        W10185  27.125  23.126  11.968
50650W        W10186  44.982  22.166   1.343
50651W        W10187  33.964  40.975  13.472
50652W        W10188  41.524  43.282   0.248
50653W        W10189  43.463   4.350  10.567
50654W        W10190   7.909   9.873   4.827
50655W        W10191  41.468  22.998   1.285
50656W        W10192  44.894  24.139   0.865
50657W        W10193  35.070  25.606  12.885
50658W        W10194  12.679  12.198  13.854
50659W        W10195  30.083  40.352   0.332
50660W        W10196  33.101   5.350   1.278
50661W        W10197  44.372  35.368  14.442
50662W        W10198  20.077  19.665  13.356
50663W        W10199  31.493  19.656   3.794
50664W        W10200  16.644  17.768   9.520
50665W        W10201   2.425  18.699   1.408
50666W        W10202  12.230   5.379  12.829
50667W        W10203   6.776   3.940   2.400
50668W        W10204  26.525  37.432   1.293
50669W        W10205  12.358  35.379   2.795
50670W        W10206  21.068  33.922   1.224
50671W        W10207  14.327  31.100  10.589
50672W        W10208  37.979   3.316   0.425
50673W        W10209  18.099  26.103   2.226
50674W        W10210  11.133  25.214   2.414
50675W        W10211  35.947  33.522  11.565
50676W        W10212  27.132  15.782   2.886
50677W        W10213  10.862  30.579  11.543
50678W        W10214  27.604   4.769   3.662
50679W        W10215   0.434  24.062   1.779
50680W        W10216  24.612  43.872  10.500
50681W        W10217  39.964  27.188  13.333
50682W        W10218  29.054  36.047   2.871
50683W        W10219  26.622  32.550  13.498
50684W        W10220  14.827  41.872   2.363
50685W        W10221  25.622  26.046   0.258
50686W        W10222  24.012  10.200  14.952
50687W        W10223   7.267  39.538   4.274
50688W        W10224   8.394   5.374  11.924
50689W        W10225  26.121   0.277  11.420
50690W        W10226  12.240   0.305  12.867
50691W        W10227  27.600  44.767   0.921
50692W        W10228   3.397   4.834  10.448
50693W        W10229  18.632  22.059   1.749
50694W        W10230  19.743  39.393  13.931
50695W        W10231  27.003  39.535  14.980
50696W        W10232  15.129  41.322  11.388
50697W        W10233  21.109  34.108  13.454
50698W        W10234  43.324  13.797   4.304
50699W        W10235  15.166  24.091  12.352
50700W        W10236  37.421  22.130  14.868
50701W        W10237  30.619  28.127   2.745
50702W        W10238  34.462  22.157   3.819
50703W        W10239  37.946  37.386   4.781
50704W        W10240  29.475  43.791   3.157
50705W        W10241  13.634   1.807   1.911
50706W        W10242   2.369  15.610  10.931
50707W        W10243  26.043  10.804  11.128
50708W        W10244  29.136  12.647  13.808
50709W        W10245  40.017   3.447   4.233
50710W        W10246  31.029  19.712  12.401
50711W        W10247  27.506  22.014   0.883
50712W        W10248  43.288  17.777  14.310
50713W        W10249  16.198  19.718   3.639
50714W        W10250  13.743  24.510   4.677
50715W        W10251  34.544  28.997   4.339
50716W        W10252  36.349  36.397  14.353
50717W        W10253  31.080  31.520  13.544
50718W        W10254   5.868  26.511   3.178
50719W        W10255  12.199  38.447  14.006
50720W        W10256  44.918  24.665  13.308
50721W        W10257  21.569  27.059   1.285
50722W        W10258  17.266   0.402  10.638
50723W        W10259  22.506  12.830   4.124
50724W        W10260  11.687  41.358   9.989
50725W        W10261   4.930  44.977   4.163
50726W        W10262   9.344  16.164  13.426
50727W        W10263  18.088  14.179  14.008
50728W        W10264   7.352  13.148  13.827
50729W        W10265   3.775   4.362  12.945
50730W        W10266   7.726  42.294  12.502
50731W        W10267   0.290  22.052   3.285
50732W        W10268  39.367  10.294   2.197
50733W        W10269  31.624  21.050  13.953
50734W        W10270  13.705  35.068   4.713
50735W        W10271  33.925  36.847  14.792
50736W        W10272  43.961  19.244  13.876
50737W        W10273  38.936  16.718   2.833
50738W        W10274  42.942  14.274  14.868
50739W        W10275   9.310  28.938  12.868
50740W        W10276  14.646   0.468  12.986
50741W        W10277  39.831  39.397   0.364
50742W        W10278  18.121  24.670  10.429
50743W        W10279  28.056  27.447   3.667
50744W        W10280   8.329  44.831   3.760
50745W        W10281   7.295  41.850  13.336
50746W        W10282   9.350  39.416   2.796
50747W        W10283  16.200  27.566   1.288
50748W        W10284  19.111  25.003   3.275
50749W        W10285  27.618  34.503  13.023
50750W        W10286  42.409   5.372  12.065
50751W        W10287  35.503  17.224  11.882
50752W        W10288  35.916   0.419   2.182
50753W        W10289   6.767  21.162   2.816
50754W        W10290  40.844   5.897  14.024
50755W        W10291  34.466  37.997   0.727
50756W        W10292  29.604  44.361   0.850
50757W        W10293  40.514  24.046  12.560
50758W        W10294  22.679   7.366   2.281
50759W        W10295   7.251  34.590  12.503
50760W        W10296  20.187  40.513  13.489
50761W        W10297   8.236  25.669   2.387
50762W        W10298   0.335  35.857   4.664
50763W        W10299  30.627  29.934   2.691
50764W        W10300  35.105   2.800   1.388
50765W        W10301  30.923   9.661   0.741
50766W        W10302  24.684  21.190   0.813
50767W        W10303  30.604  36.008   0.817
50768W        W10304  34.610  33.462   1.377
50769W        W10305   8.659  33.982   2.693
50770W        W10306  30.422   5.929  11.922
50771W        W10307  27.524  28.626  12.501
50772W        W10308  17.730   9.661  11.380
50773W        W10309  43.304  19.193  13.868
50774W        W10310   0.807  29.088  13.464
50775W        W10311  29.175   5.361   2.699
50776W        W10312  32.897  41.853   1.338
50777W        W10313  34.990  34.577  10.969
50778W        W10314  39.928   5.248  12.426
50779W        W10315  24.133  21.530  13.498
50780W        W10316   8.405  16.235   1.243
50781W        W10317  13.681   5.917   4.645
50782W        W10318  17.088   5.892   2.711
50783W        W10319   6.371  34.519   3.794
50784W        W10320  40.344  13.615   4.624
50785W        W10321  13.837   2.766   3.184
50786W        W10322   0.873   2.950  12.034
50787W        W10323  17.062  37.059   0.383
50788W        W10324  22.035  13.672  14.360
50789W        W10325  37.927  27.007   4.276
50790W        W10326  15.207  35.427   4.839
50791W        W10327  22.613   6.345  12.879
50792W        W10328   7.765  24.575  11.124
50793W        W10329  31.149  23.145  10.930
50794W        W10330  36.894   3.298  13.847
50795W        W10331  13.152  33.454   2.418
50796W        W10332  11.745  17.706  13.026
50797W        W10333  42.972  19.542  12.395
50798W        W10334   8.217  42.013  11.441
50799W        W10335  28.100  42.846  10.420
50800W        W10336  19.136  33.084  13.893
50801W        W10337  19.056  15.289  14.391
50802W        W10338  38.039  19.131  11.483
50803W        W10339  20.170  29.165   2.375
50804W        W10340  11.319  10.330   0.291
50805W        W10341  18.184  44.943   3.755
50806W        W10342   0.425  23.144  13.470
50807W        W10343   6.834  35.513  10.950
50808W        W10344  25.175  16.598  12.456
50809W        W10345  15.598  34.929   2.247
50810W        W10346  18.212   1.773  12.378
50811W        W10347   5.693  12.636   4.770
50812W        W10348  35.048  13.625  11.397
50813W        W10349  15.210  19.705   5.233
50814W        W10350  23.703  43.329   4.344
50815W        W10351  41.921  33.054   1.349
50816W        W10352  28.123  32.931  10.524
50817W        W10353  43.448  19.637   0.878
50818W        W10354  16.138  17.165  14.275
50819W        W10355  30.605  27.675   1.706
50820W        W10356  31.116  16.230   4.683
50821W        W10357  22.610  25.977   0.327
50822W        W10358  13.778  29.484  11.435
50823W        W10359  13.135  38.434   3.269
50824W        W10360   8.230  28.619  14.926
50825W        W10361  43.275  34.376   4.658
50826W        W10362  18.149   2.348   2.792
50827W        W10363  32.012  37.924   0.351
50828W        W10364   6.762  23.176   4.130
50829W        W10365   9.331  37.839   1.904
50830W        W10366  41.840   0.887  14.503
50831W        W10367  11.662  30.506   1.702
50832W        W10368  20.208  24.005  10.423
50833W        W10369  28.549   9.824  13.883
50834W        W10370  43.490  41.427  11.045
50835W        W10371  12.341  19.549   1.289
50836W        W10372  16.294  16.758   0.444
50837W        W10373  15.661  21.034  13.321
50838W        W10374  14.132  24.548  13.928
50839W        W10375  13.754  18.056   2.189
50840W        W10376   8.856  36.044  13.488
50841W        W10377  36.394  34.115   1.224
50842W        W10378  32.055  12.270   2.216
50843W        W10379  13.737   8.272   4.649
50844W        W10380  29.445  12.755   0.798
50845W        W10381   7.351  18.142  14.515
50846W        W10382  29.594  33.999   3.288
50847W        W10383   9.241  11.150  13.888
50848W        W10384  21.094  35.963   1.278
50849W        W10385   6.224  31.558   1.888
50850W        W10386  20.652  29.106  12.990
50851W        W10387  21.021   8.775  14.500
50852W        W10388  25.562  35.447  10.887
50853W        W10389   0.807  20.725   3.653
50854W        W10390  11.243  24.039   1.314
50855W        W10391  40.348   2.241   1.724
50856W        W10392   8.348  31.450   4.121
50857W        W10393   0.891   3.421  11.081
50858W        W10394  20.139  30.437  10.072
50859W        W10395  37.836  25.097  12.045
50860W        W10396   9.690   9.247  10.645
50861W        W10397   9.190  21.630   2.853
50862W        W10398   5.240   3.912   1.741
50863W        W10399  38.957  27.590   1.699
50864W        W10400   1.945  29.597   4.154
50865W        W10401   4.720  39.037  13.810
50866W        W10402  19.095   6.385   1.792
50867W        W10403  17.673  18.147   2.900
50868W        W10404  35.505  29.522  13.040
50869W        W10405  12.142   4.775   3.210
50870W        W10406  12.730  24.683  13.855
50871W        W10407  39.812  25.624  12.893
50872W        W10408   1.429  37.369   1.353
50873W        W10409   3.847  11.233   2.297
50874W        W10410  13.329  33.404  14.396
50875W        W10411  44.316  32.934   1.229
50876W        W10412   5.695  10.324  12.350
50877W        W10413  44.778  28.457  13.034
50878W        W10414  10.306  24.692   3.724
50879W        W10415   0.953   3.424   0.925
50880W        W10416  19.754  32.607   4.614
50881W        W10417  10.296   8.779  12.440
50882W        W10418  16.256   3.781  13.398
50883W        W10419  42.467  22.746   0.394
50884W        W10420  42.464  14.246   1.237
50885W        W10421   6.194  19.536   1.382
50886W        W10422  17.565  43.986  12.857
50887W        W10423  36.477  16.718  10.469
50888W        W10424  38.954  15.667   1.444
50889W        W10425  34.041  35.382  14.504
50890W        W10426   9.719  30.568   1.283
50891W        W10427  35.393  12.216  12.381
50892W        W10428  19.085  22.112   1.300
50893W        W10429  20.070  29.613   3.727
50894W        W10430  39.001  43.319   4.704
50895W        W10431  18.139  14.809   4.190
50896W        W10432  39.842   2.423   3.310
50897W        W10433  23.594  10.307   4.144
50898W        W10434   4.867  27.155   2.331
50899W        W10435  19.085  15.815   1.792
50900W        W10436  22.522   1.972   2.862
50901W        W10437  14.646  18.265   4.807
50902W        W10438   5.302   5.194  11.975
50903W        W10439  32.935   6.805  11.391
50904W        W10440   6.397   1.822   0.854
50905W        W10441   4.896  19.273  11.592
50906W        W10442   7.857  35.857   3.713
50907W        W10443   0.809  29.656  12.507
50908W        W10444  18.623  28.118  14.486
50909W        W10445   2.326  37.427  10.629
50910W        W10446  36.995  16.744  10.434
50911W        W10447  22.511  43.005  13.953
50912W        W10448  29.530  17.265   3.756
50913W        W10449  27.644  30.462  13.908
50914W        W10450  34.524  15.260  10.628
50915W        W10451  23.719  29.095   2.718
50916W        W10452  10.217  34.452  10.544
50917W        W10453  28.063  44.276  11.040
50918W        W10454  44.413  10.277   4.730
50919W        W10455  20.055   6.359  12.544
50920W        W10456   3.390  24.669   3.178
50921W        W10457  21.666  34.049   0.840
50922W        W10458  26.970   4.765   2.331
50923W        W10459  28.057  37.958  11.118
50924W        W10460  44.417   2.236  12.463
50925W        W10461   4.402  39.944   3.844
50926W        W10462  14.308   2.435  13.984
50927W        W10463   6.350  42.472   0.392
50928W        W10464  37.483  11.295  14.323
50929W        W10465  30.956  43.390  12.396
50930W        W10466   6.807   2.424  13.468
50931W        W10467   2.324  19.259   4.343
50932W        W10468  31.505  39.010   4.807
50933W        W10469  27.138  25.158  12.565
50934W        W10470  29.097  18.553   3.184
50935W        W10471   7.880  10.747   0.321
50936W        W10472  20.226  24.685  10.425
50937W        W10473  44.886  27.548   1.238
50938W        W10474  19.645  41.337  13.810
50939W        W10475  37.503  40.948  13.321
50940W        W10476  23.650  31.108   1.363
50941W        W10477   1.965  18.191   0.838
50942W        W10478  28.174  21.198   3.189
50943W        W10479  25.666   2.409   3.245
50944W        W10480   6.748  24.167  13.800
50945W        W10481  37.855  11.265  12.882
50946W        W10482   5.305  22.593   4.236
50947W        W10483   4.330  41.890  13.969
50948W        W10484  18.562   0.951   0.866
50949W        W10485  24.007   0.436   0.734
50950W        W10486  16.684  17.276   9.487
50951W        W10487  10.693  25.561  11.097
50952W        W10488  41.499  43.352  14.903
50953W        W10489  27.183  40.978   0.881
50954W        W10490  43.947  23.154  11.091
50955W        W10491  40.820  41.884   3.199
50956W        W10492  33.482   8.334  14.891
50957W        W10493  37.864  34.462  10.963
50958W        W10494   9.248  41.815   2.273
50959W        W10495  25.127  21.674  13.523
50960W        W10496  17.121  19.136   0.262
50961W        W10497  30.121   4.859  14.461
50962W        W10498  38.990  22.645   2.184
50963W        W10499  10.284   8.347  12.983
50964W        W10500   7.827  33.062   2.790
50965W        W10501  31.488   0.807   1.884
50966W        W10502   5.294  44.358  10.444
50967W        W10503  24.587   0.742  12.521
50968W        W10504  27.458   0.827   0.826
50969W        W10505  30.497   0.837   4.195
50970W        W10506   2.920  43.414   0.369
50971W        W10507   8.889  12.836  12.927
50972W        W10508  40.873  43.958   4.673
50973W        W10509  17.729   7.381  14.018
50974W        W10510  34.962  38.441  11.859
50975W        W10511   1.387  34.496  11.443
50976W        W10512  33.585  43.348   1.388
50977W        W10513  16.719  38.426  11.958
50978W        W10514  10.832  12.708   0.244
50979W        W10515  28.471  14.749   0.257
50980W        W10516   6.382  29.545  14.766
50981W        W10517   9.729   4.793   3.346
50982W        W10518  27.531  39.811  13.533
50983W        W10519  40.504  18.081   1.855
50984W        W10520  13.137  24.066   2.843
50985W        W10521  37.887   4.383   4.760
50986W        W10522   5.226  43.435   0.328
50987W        W10523  12.338  42.503   0.862
50988W        W10524   2.236  31.974   1.840
50989W        W10525  15.741  42.524  14.403
50990W        W10526   7.355   5.393  13.795
50991W        W10527  17.560  22.224  11.429
50992W        W10528  29.555  24.009   2.708
50993W        W10529  24.051   1.832  11.378
50994W        W10530  42.891   8.384  12.864
50995W        W10531  20.669  37.576   2.861
50996W        W10532  12.150  36.890  13.824
50997W        W10533  40.414  10.195  13.950
50998W        W10534   2.357  25.640  11.470
50999W        W10535   8.832  42.950   4.126
51000W        W10536  40.513  21.720  11.376
51001W        W10537   5.406   8.859  10.461
51002W        W10538  32.048  21.229  10.483
51003W        W10539   1.875  41.998   3.284
51004W        W10540   0.313  44.390  10.565
51005W        W10541  13.150  31.041   2.696
51006W        W10542  27.172  37.038  12.022
51007W        W10543  35.455  42.010   3.792
51008W        W10544  26.558   3.453  11.589
51009W        W10545  17.688   0.942   1.419
51010W        W10546  13.241  39.059  13.818
51011W        W10547  15.280  23.580  13.892
51012W        W10548  28.144   5.203  13.932
51013W        W10549  35.392  24.675   0.401
51014W        W10550   9.251  16.686   0.868
51015W        W10551  31.581  31.017  13.522
51016W        W10552   0.449  12.622  10.617
51017W        W10553  15.154  18.628   0.897
51018W        W10554  35.467   2.419  13.499
51019W        W10555   0.896  42.321   3.165
51020W        W10556  26.109  33.400  13.363
51021W        W10557   3.375  13.744  14.278
51022W        W10558  10.209   0.781  13.329
51023W        W10559  12.783   0.358  14.810
51024W        W10560  19.554  17.229  11.530
51025W        W10561  27.194  27.038  10.991
51026W        W10562  17.654  29.139  13.882
51027W        W10563   3.937  28.021  13.357
51028W        W10564   3.793  15.204   2.780
51029W        W10565   2.752  32.108  13.337
51030W        W10566  43.463  14.724   9.991
51031W        W10567  26.592  22.093   3.362
51032W        W10568  38.527  17.227   2.680
51033W        W10569  26.620  36.876  10.500
51034W        W10570  23.654  22.197   4.140
51035W        W10571  26.650  11.658   2.753
51036W        W10572   5.846  41.509  14.919
51037W        W10573   8.813  29.575   0.251
51038W        W10574  20.577  30.990  13.950
51039W        W10575   7.255  31.915  12.415
51040W        W10576  15.120  15.791  13.468
51041W        W10577  35.869   7.358  14.940
51042W        W10578  25.170   5.699  10.954
51043W        W10579  41.029  23.516   4.740
51044W        W10580  42.018  29.048   4.246
51045W        W10581  19.283  43.427  11.487
51046W        W10582   3.775  16.612   3.791
51047W        W10583  23.142  44.879  10.600
51048W        W10584  33.061  25.046  13.538
51049W        W10585   2.932  28.468   2.773
51050W        W10586  43.801  41.829   0.394
51051W        W10587  22.120  11.211  12.831
51052W        W10588  10.682  32.889   0.406
51053W        W10589  33.598  34.106   4.818
51054W        W10590  19.591  18.689  12.469
51055W        W10591  26.011  27.506  10.479
51056W        W10592   9.303  25.678   3.287
51057W        W10593  34.926  43.774   5.264
51058W        W10594  25.009   5.329  12.068
51059W        W10595  27.064  38.421  13.053
51060W        W10596   6.405  19.577   0.414
51061W        W10597   3.245  16.595   4.185
51062W        W10598   3.761  39.513  11.987
51063W        W10599  20.652  20.529   3.303
51064W        W10600  10.279  43.894  13.928
51065W        W10601  21.082   7.367   9.593
51066W        W10602  13.151  36.446  10.604
51067W        W10603  27.538  32.929  14.856
51068W        W10604  40.446  16.778  12.363
51069W        W10605   0.865   1.953  12.421
51070W        W10606  28.935   2.846   1.773
51071W        W10607  36.451  32.600  14.785
51072W        W10608  39.045   9.746   1.822
51073W        W10609  24.134  38.490   4.681
51074W        W10610   5.835  17.684  12.025
51075W        W10611  23.553  41.382  11.478
51076W        W10612  10.800  27.656   5.718
51077W        W10613  26.675  33.426   5.116
51078W        W10614  16.121  28.475   4.242
51079W        W10615  26.184  12.325  11.561
51080W        W10616  40.855  14.220   2.786
51081W        W10617  26.050  34.518   0.868
51082W        W10618  29.520  38.929  10.512
51083W        W10619   4.701  17.613  10.571
51084W        W10620  19.146  18.667   1.293
51085W        W10621  17.137  21.573  13.868
51086W        W10622  30.632  44.390   4.614
51087W        W10623  43.951   7.269   0.834
51088W        W10624  35.999  22.045  12.905
51089W        W10625   8.373  12.118  10.592
51090W        W10626  18.166  27.521   0.330
51091W        W10627   6.350   3.438  12.836
51092W        W10628   4.883   4.394  14.907
51093W        W10629  14.115  31.555   3.163
51094W        W10630  19.265   5.744   0.737
51095W        W10631  35.085  40.992  13.881
51096W        W10632  21.584  15.271   2.669
51097W        W10633  23.703  37.997  12.533
51098W        W10634  35.372   4.425  10.947
51099W        W10635  27.977  20.629   3.302
51100W        W10636  16.630  29.032  11.901
51101W        W10637  14.724  25.100  12.454
51102W        W10638   9.684  26.996  14.953
51103W        W10639  30.002  17.238   2.755
51104W        W10640  41.367   1.958   3.212
51105W        W10641   6.231   4.332   0.281
51106W        W10642   5.807  22.083  10.958
51107W        W10643  18.624   6.244  10.493
51108W        W10644   3.448  37.919   2.241
51109W        W10645  39.326  28.142  12.562
51110W        W10646  43.969   2.829  14.025
51111W        W10647  20.165  43.977   1.756
51112W        W10648  41.990  26.489   1.806
51113W        W10649   6.767  16.108   0.819
51114W        W10650  12.252  43.874  13.538
51115W        W10651  26.632  36.941   4.344
51116W        W10652  15.672  11.220   4.629
51117W        W10653  28.970  12.273  14.313
51118W        W10654  20.625  35.592  10.005
51119W        W10655   9.881  25.704  14.022
51120W        W10656  40.376  44.420  13.803
51121W        W10657   0.434  41.972  13.398
51122W        W10658   6.826  13.199   1.401
51123W        W10659  27.538  35.572  13.346
51124W        W10660  39.552   2.436   0.796
51125W        W10661  40.917   9.870   1.929
51126W        W10662   9.237  27.014  13.891
51127W        W10663  11.164  26.565  13.512
51128W        W10664  29.083  41.786   0.394
51129W        W10665  44.806  17.090   0.398
51130W        W10666  22.189  13.643  12.348
51131W        W10667  27.511  37.052  11.995
51132W        W10668  36.975  26.199   3.743
51133W        W10669  18.653  23.565  12.487
51134W        W10670  20.613  41.039   4.313
51135W        W10671   5.231  24.512   3.707
51136W        W10672  31.053  31.533  12.532
51137W        W10673  21.180  17.098   0.356
51138W        W10674  44.366  22.593   0.349
51139W        W10675   9.755  41.820  13.488
51140W        W10676   1.910  13.330   2.417
51141W        W10677  10.223  13.341  13.451
51142W        W10678  34.607  41.905  14.790
51143W        W10679  43.461  10.725  11.964
51144W        W10680   8.883  43.891  14.310
51145W        W10681  29.503  18.065  10.621
51146W        W10682  25.532  23.665  11.603
51147W        W10683  26.583  16.614   2.813
51148W        W10684  14.708  24.194   4.673
51149W        W10685  44.480  14.308   1.377
51150W        W10686  44.980   8.773   1.705
51151W        W10687   8.345  35.937  10.602
51152W        W10688  12.243  10.190  12.411
51153W        W10689  41.374  39.480  12.913
51154W        W10690  36.419   9.725   0.428
51155W        W10691  21.556   0.396   0.897
51156W        W10692  28.515  14.618  11.080
51157W        W10693  27.566  32.609  14.804
51158W        W10694   5.404  21.025  14.882
51159W        W10695  13.194  44.460   4.806
51160W        W10696   4.838   0.919  12.549
51161W        W10697  18.652  41.014   4.816
51162W        W10698  39.908  20.085   2.726
51163W        W10699  31.539  17.103   4.750
51164W        W10700   1.465  19.676   4.294
51165W        W10701  18.790   0.751   5.226
51166W        W10702  34.453  16.575   4.718
51167W        W10703   0.804  25.115   2.780
51168W        W10704   5.918  11.754  12.087
51169W        W10705  44.292  17.304   5.297
51170W        W10706  30.056  39.830   3.658
51171W        W10707  27.128  43.448   2.801
51172W        W10708   1.306  34.068  14.346
51173W        W10709  36.545  25.189  10.077
51174W        W10710  17.303  40.312   1.902
51175W        W10711  26.125   5.431  12.029
51176W        W10712  13.643  36.420  11.037
51177W        W10713  11.308  31.423  14.773
51178W        W10714  33.427  42.291  11.449
51179W        W10715  30.500  11.827   0.397
51180W        W10716  14.825   9.720   3.839
51181W        W10717  34.536  25.557   5.598
51182W        W10718  35.030  32.452  14.285
51183W        W10719  39.525  22.153  12.474
51184W        W10720  36.074  36.867  13.871
51185W        W10721  11.716   0.383  13.950
51186W        W10722  18.629  23.502   9.518
51187W        W10723  10.343  24.029  11.895
51188W        W10724  40.472  35.041  12.384
51189W        W10725  23.589  40.496   3.690
51190W        W10726   5.706  33.075   0.370
51191W        W10727   4.308  26.082  10.410
51192W        W10728  32.590  20.690  14.994
51193W        W10729  18.214  41.329  13.801
51194W        W10730  35.564  19.233  12.946
51195W        W10731  13.245   5.201  14.339
51196W        W10732  37.460  36.866   4.664
51197W        W10733  34.941  44.975   2.683
51198W        W10734  35.006   9.217  14.946
51199W        W10735   9.335  15.637  13.321
51200W        W10736  28.970  24.189   4.781
51201W        W10737  30.912  39.512   0.288
51202W        W10738  20.033  33.424  12.967
51203W        W10739   5.787  22.142  10.576
51204W        W10740  16.790  42.935  10.503
51205W        W10741  14.598   6.779   0.353
51206W        W10742   6.197  10.736   2.215
51207W        W10743  34.868   8.229   3.215
51208W        W10744  10.329   9.315  13.309
51209W        W10745  25.969  34.607  10.641
51210W        W10746  21.029  35.033  13.434
51211W        W10747  36.586   2.910   3.339
51212W        W10748  12.175  10.664   4.320
51213W        W10749  19.566  21.226   5.220
51214W        W10750  15.610  33.001  10.001
51215W        W10751  17.769  30.086   2.832
51216W        W10752  14.672  33.058   2.889
51217W        W10753  36.414  26.014  14.970
51218W        W10754   0.800   5.890   4.646
51219W        W10755  32.626  22.232   3.670
51220W        W10756  41.000   0.378  13.410
51221W        W10757  22.626  38.928  14.809
51222W        W10758  37.905  43.355  12.563
51223W        W10759  20.117  42.471   1.720
51224W        W10760  17.072  10.841  11.978
51225W        W10761  41.324  34.589  12.826
51226W        W10762   2.738  36.367  14.324
51227W        W10763  13.124  25.076  10.983
51228W        W10764  22.108  29.113  10.920
51229W        W10765  26.056  33.085  11.012
51230W        W10766  18.594  27.011   0.483
51231W        W10767  29.547  26.162   3.745
51232W        W10768  33.544  26.596   0.345
51233W        W10769  31.008  30.107  10.518
51234W        W10770  36.528  12.830   2.902
51235W        W10771  13.243  11.223   3.360
51236W        W10772  18.668  35.406  14.919
51237W        W10773  29.096   7.875  14.354
51238W        W10774  16.102  44.908  13.469
51239W        W10775  11.372  17.738  13.880
51240W        W10776  24.551  37.358   2.233
51241W        W10777  11.848  43.356  11.979
51242W        W10778  28.145  44.805   1.846
51243W        W10779  44.753   7.909  12.999
51244W        W10780  17.558  11.633   0.367
51245W        W10781  26.968   8.900  11.566
51246W        W10782  34.045  22.696   1.811
51247W        W10783  24.053  31.975  10.144
51248W        W10784  36.084  23.218   3.291
51249W        W10785  19.171  21.234  13.505
51250W        W10786  26.983  39.062   0.837
51251W        W10787  19.278  38.027   0.957
51252W        W10788  43.951   5.305   2.873
51253W        W10789  21.570  43.937   4.114
51254W        W10790  17.245  11.283   3.859
51255W        W10791  22.224  44.815   3.241
51256W        W10792  22.192  30.165  13.354
51257W        W10793  39.348   9.796  14.032
51258W        W10794  43.395  26.136  11.001
51259W        W10795  29.660  15.782  10.919
51260W        W10796  38.989   6.254   3.231
51261W        W10797  21.645   2.375  11.409
51262W        W10798  16.678  42.392  11.490
51263W        W10799   1.449   9.724  11.856
51264W        W10800  20.049  41.476  10.995
51265W        W10801   7.727  33.069  13.346
51266W        W10802  40.879  21.649   3.829
51267W        W10803  17.699  31.569  13.811
51268W        W10804   0.967  40.481  12.079
51269W        W10805  36.872  32.390  14.362
51270W        W10806  43.437  16.768  14.805
51271W        W10807   0.488   0.777   0.771
51272W        W10808  42.791   5.323   4.770
51273W        W10809  40.515   3.895   4.204
51274W        W10810  26.634   2.358  14.883
51275W        W10811  15.303  27.548  13.792
51276W        W10812  21.155  32.416  13.485
51277W        W10813  33.509  17.653  14.018
51278W        W10814  17.661   7.671  12.366
51279W        W10815  11.712  24.566  11.989
51280W        W10816  26.515   8.810   1.250
51281W        W10817  20.078  44.331  11.411
51282W        W10818  38.046  29.498  10.457
51283W        W10819  40.854  27.584   1.838
51284W        W10820   2.242  32.471  10.507
51285W        W10821   3.383  15.235  13.515
51286W        W10822  26.560  11.214  11.114
51287W        W10823   3.321  29.451   1.220
51288W        W10824  39.535   4.857  12.388
51289W        W10825  44.325   6.797  14.328
51290W        W10826  21.018  26.668   5.136
51291W        W10827  22.721  21.624   3.780
51292W        W10828  10.272  40.459   4.272
51293W        W10829   9.850  21.148  13.376
51294W        W10830   8.831  30.925  14.365
51295W        W10831   3.296  29.568  12.503
51296W        W10832  25.147   6.728  13.924
51297W        W10833  26.068  39.416  12.823
51298W        W10834   2.255  19.064   0.445
51299W        W10835  42.863   7.176  13.466
51300W        W10836  14.824   9.676  10.892
51301W        W10837  23.724   9.775  14.393
51302W        W10838  13.168  27.466   0.390
51303W        W10839  18.137  44.905   4.177
51304W        W10840   8.337  34.086   2.223
51305W        W10841   6.198  34.879  10.598
51306W        W10842  36.456   0.440   2.312
51307W        W10843   4.733  26.187   1.361
51308W        W10844  35.973  17.687  13.018
51309W        W10845   2.778  14.299   4.612
51310W        W10846   9.273  21.185   4.148
51311W        W10847  31.014  27.499   3.246
51312W        W10848  18.284  41.358  14.882
51313W        W10849  24.531  35.043  11.480
51314W        W10850  11.322  26.129  13.504
51315W        W10851  43.905   3.434  11.389
51316W        W10852  34.050   5.788  11.551
51317W        W10853  16.094  23.019  14.816
51318W        W10854   0.931   4.856  14.798
51319W        W10855  31.637  10.275  12.964
51320W        W10856  33.558   2.364  12.438
51321W        W10857  19.080  25.967   0.962
51322W        W10858  13.292  17.132   3.264
51323W        W10859  28.087  20.141  13.823
51324W        W10860  15.590  40.910  10.907
51325W        W10861  11.164   4.309   2.694
51326W        W10862  42.489  30.044  10.929
51327W        W10863  33.101  41.924   0.244
51328W        W10864  15.301  30.146  11.486
51329W        W10865  37.530  36.533  12.415
51330W        W10866  30.566  33.998  10.420
51331W        W10867  39.833  42.858   0.763
51332W        W10868   6.734  19.729  13.053
51333W        W10869  23.092  15.674  14.826
51334W        W10870  19.616   1.902  13.990
51335W        W10871  35.055  28.462   1.789
51336W        W10872  35.507  16.770  13.790
51337W        W10873  41.301  42.975   0.926
51338W        W10874  23.638   3.456   4.338
51339W        W10875   7.749  40.376  14.306
51340W        W10876  10.671  21.531  10.441
51341W        W10877   2.809   4.450  11.892
51342W        W10878  23.001  38.464   4.305
51343W        W10879  28.570  15.798  14.029
51344W        W10880  33.517   9.860  14.506
51345W        W10881  43.333  11.198  14.327
51346W        W10882  37.850  11.161   3.163
51347W        W10883   5.845  17.582   3.242
51348W        W10884  29.032  30.936  13.354
51349W        W10885  23.083  28.172  13.823
51350W        W10886   9.193   1.836  10.597
51351W        W10887   8.217  44.391   0.362
51352W        W10888   9.337  13.671   2.849
51353W        W10889  39.852  18.204  14.824
51354W        W10890  30.006  37.535   2.217
51355W        W10891   9.275  30.953   3.319
51356W        W10892  33.108  23.707  14.819
51357W        W10893   3.790  24.700  12.356
51358W        W10894  26.476  22.009   4.327
51359W        W10895  13.193  42.984  10.487
51360W        W10896  16.636  43.484   2.870
51361W        W10897  16.645  13.247   3.172
51362W        W10898  23.153  25.560  14.436
51363W        W10899  16.106   9.205   3.860
51364W        W10900  17.149   7.822  11.419
51365W        W10901  28.930  35.026   2.665
51366W        W10902  20.534  42.387   0.363
51367W        W10903  31.606  32.625   2.902
51368W        W10904   7.239  42.834  12.071
51369W        W10905  14.324   7.778   5.761
51370W        W10906  33.454  18.054   2.832
51371W        W10907   1.475  38.844   1.891
51372W        W10908  11.867   1.938   3.183
51373W        W10909   7.682  21.692  14.375
51374W        W10910   6.870  18.752   1.287
51375W        W10911   2.779  14.711  11.872
51376W        W10912  37.519  10.377   5.101
51377W        W10913  35.541  17.262  14.833
51378W        W10914  25.532  38.037   2.264
51379W        W10915   7.716  44.478   0.341
51380W        W10916  35.951  41.498  11.081
51381W        W10917  14.752   2.229  14.469
51382W        W10918  15.600  30.413   3.828
51383W        W10919  18.216  22.192   0.870
51384W        W10920  16.570  32.074   2.292
51385W        W10921  36.902  24.099   4.326
51386W        W10922   9.804  41.835   4.822
51387W        W10923  11.687  43.424  14.925
51388W        W10924  39.375  23.219  14.439
51389W        W10925  14.791   1.295   0.897
51390W        W10926   2.460  19.724   2.254
51391W        W10927  33.069  26.672  13.878
51392W        W10928  44.995  29.951   2.741
51393W        W10929  15.289  43.355  10.416
51394W        W10930  20.722  43.345   2.792
51395W        W10931   1.754  22.505   4.158
51396W        W10932  40.402  18.283   1.344
51397W        W10933  40.017   9.387  12.474
51398W        W10934  23.703  32.942  13.440
51399W        W10935  32.924  31.607  13.914
51400W        W10936   2.329  18.233   1.894
51401W        W10937   5.808  27.145  11.027
51402W        W10938  17.119   2.920   4.143
51403W        W10939  28.962   9.266  14.329
51404W        W10940  16.652  40.464  11.575
51405W        W10941  18.094  42.776  14.373
51406W        W10942  22.661  34.540   4.662
51407W        W10943  18.198  12.726  11.901
51408W        W10944  19.746  27.124   2.729
51409W        W10945  41.316  44.837  12.380
51410W        W10946  12.738  36.509  11.866
51411W        W10947  12.628  37.081   3.779
51412W        W10948  18.621  40.938   0.796
51413W        W10949  35.552  11.275  12.942
51414W        W10950   4.387   5.349   2.237
51415W        W10951  10.651  14.107   0.389
51416W        W10952  29.577  14.821  13.522
51417W        W10953  13.145   6.751   2.271
51418W        W10954   0.290  40.964  13.486
51419W        W10955   4.317  12.824   2.360
51420W        W10956  37.491  28.015  13.537
51421W        W10957  30.632  14.158  11.040
51422W        W10958   0.913   4.339   0.780
51423W        W10959  43.469   0.920  12.025
51424W        W10960  43.456  34.433   3.648
51425W        W10961  10.144  43.928   2.831
51426W        W10962  34.959  38.864   3.845
51427W        W10963  20.544  34.071  14.971
51428W        W10964  29.602  26.512  10.134
51429W        W10965   0.860  21.639   0.954
51430W        W10966   8.177  37.413  13.525
51431W        W10967  14.276  28.966   1.859
51432W        W10968  16.677  28.967  14.505
51433W        W10969  44.312   2.888  12.463
51434W        W10970  21.600  32.396   2.750
51435W        W10971  35.399  20.263   1.234
51436W        W10972  20.713  18.135   1.792
51437W        W10973   8.161  13.777  12.478
51438W        W10974  20.089  25.545   1.446
51439W        W10975  44.781  17.110   4.808
51440W        W10976  32.606  37.412   5.098
51441W        W10977  30.152  25.705  14.959
51442W        W10978  16.308  40.025   1.438
51443W        W10979  15.751   6.188  11.049
51444W        W10980  34.098  10.304  10.971
51445W        W10981  33.556  13.777   2.738
51446W        W10982   4.251   9.773  11.978
51447W        W10983  15.157   0.846   0.788
51448W        W10984  18.656   2.447  14.375
51449W        W10985   5.866  43.854  14.488
51450W        W10986   4.739  31.450   2.238
51451W        W10987  30.976  14.831  13.337
51452W        W10988   5.343  34.399   3.782
51453W        W10989  11.358  19.716  11.492
51454W        W10990  23.219  13.670  13.365
51455W        W10991  24.214  32.637   2.741
51456W        W10992  10.285  16.806   1.795
51457W        W10993  27.052  13.290   3.298
51458W        W10994   2.237  22.185   1.797
51459W        W10995   4.900   6.287   4.238
51460W        W10996  34.572  23.711  13.534
51461W        W10997  34.473  28.065   1.923
51462W        W10998   1.965   5.806   0.890
51463W        W10999  33.515   9.353   0.767
51464W        W11000  16.652   1.443   3.711
51465W        W11001  35.426  41.517   3.181
51466W        W11002  22.577  36.548   1.742
51467W        W11003  37.408  44.871   5.699
51468W        W11004  37.580   1.935  13.360
51469W        W11005  43.283  25.098   4.620
51470W        W11006  33.423  37.529   9.936
51471W        W11007  42.334  29.053  14.347
51472W        W11008  30.474   8.725   4.702
51473W        W11009  19.283   2.457  10.578
51474W        W11010  28.087  41.506   2.790
51475W        W11011  42.827  22.032  13.886
51476W        W11012  43.900   6.264  13.864
51477W        W11013  24.165   7.707   0.253
51478W        W11014  22.707  29.117  14.925
51479W        W11015  34.572  38.970  12.023
51480W        W11016  19.670  31.097   0.457
51481W        W11017  35.539  29.557  12.514
51482W        W11018  19.205  40.498  11.458
51483W        W11019  43.909  23.181  13.812
51484W        W11020  23.195   5.418   2.399
51485W        W11021   6.709  33.928  11.601
51486W        W11022  39.028  44.293   0.476
51487W        W11023  13.178   6.388   1.314
51488W        W11024   4.752  26.555   4.626
51489W        W11025  26.119  40.002   1.385
51490W        W11026   1.841  31.021  14.818
51491W        W11027  35.902  16.145   3.188
51492W        W11028  25.151  24.695  13.318
51493W        W11029   9.872   9.823   5.137
51494W        W11030   0.922  13.662  11.113
51495W        W11031   8.333  31.586   2.703
51496W        W11032  18.790  41.490  12.901
51497W        W11033  30.641   2.431   4.785
51498W        W11034   3.270  21.065   3.149
51499W        W11035  10.698  23.589   4.805
51500W        W11036  10.335   5.296  12.448
51501W        W11037  36.068  18.614  12.065
51502W        W11038  43.828   5.245  14.826
51503W        W11039  10.168  24.693  13.488
51504W        W11040  36.088  33.431   4.170
51505W        W11041   1.439  34.542  14.432
51506W        W11042  24.015  29.557  14.013
51507W        W11043  40.007  37.488  13.965
51508W        W11044  42.889   1.430   3.748
51509W        W11045  19.238  43.500   0.459
51510W        W11046  35.390  30.160   0.785
51511W        W11047  29.572  25.963   0.883
51512W        W11048   1.258   8.829   0.363
51513W        W11049  28.111  40.329  12.914
51514W        W11050   7.678   4.892   5.315
51515W        W11051  20.526  22.142   3.314
51516W        W11052  10.384  25.177   1.451
51517W        W11053  18.104  40.899   1.728
51518W        W11054  31.467   5.735   1.304
51519W        W11055  26.023  33.897   1.385
51520W        W11056  10.260   9.677  12.042
51521W        W11057  11.202  15.594  13.944
51522W        W11058  15.146  31.634  12.468
51523W        W11059  12.726  43.467  12.077
51524W        W11060  39.013  37.493   3.276
51525W        W11061   8.304  39.841   1.414
51526W        W11062  27.468  44.452   0.853
51527W        W11063  24.203  15.744   3.367
51528W        W11064  29.051  11.728   2.185
51529W        W11065  32.907  17.245   1.895
51530W        W11066  18.058  35.461  14.879
51531W        W11067  40.508  39.539   0.254
51532W        W11068   0.811  41.873  12.391
51533W        W11069   1.833   9.151  10.560
51534W        W11070  26.209  18.155  13.927
51535W        W11071  11.716  11.736   0.921
51536W        W11072  23.554  26.485   0.844
51537W        W11073  17.123  23.690  12.920
51538W        W11074  33.436  18.695   2.796
51539W        W11075  10.842  37.386  10.461
51540W        W11076  32.000   5.781   2.712
51541W        W11077   5.869  13.811  14.471
51542W        W11078  29.427  25.533   2.309
51543W        W11079   8.334  25.485   4.732
51544W        W11080  38.383  22.997  12.081
51545W        W11081  37.556  43.484  12.440
51546W        W11082  27.149  29.458  13.436
51547W        W11083  19.656  28.596   1.764
51548W        W11084  22.516  42.808   0.340
51549W        W11085   8.242  20.079  14.968
51550W        W11086   3.808  24.988  13.447
51551W        W11087   2.350  28.082  14.802
51552W        W11088  26.638  22.246   4.601
51553W        W11089  20.633  17.633   4.606
51554W        W11090  37.505  16.595   3.352
51555W        W11091   6.413   2.312   4.758
51556W        W11092  10.194  34.420  13.481
51557W        W11093  24.127   6.752   2.253
51558W        W11094  23.201   2.886   0.358
51559W        W11095  40.007  27.038   2.724
51560W        W11096  29.655   3.373  11.936
51561W        W11097  30.026   0.395  14.375
51562W        W11098  39.559   7.781   0.844
51563W        W11099  30.007  17.772   4.751
51564W        W11100   9.742  36.539   1.223
51565W        W11101  21.162  21.232  13.426
51566W        W11102  44.900  35.498   3.811
51567W        W11103  39.984  16.087  14.342
51568W        W11104  21.623  43.488  13.876
51569W        W11105  17.102  43.811  13.798
51570W        W11106  37.381  31.648   1.774
51571W        W11107  26.689  41.844   5.228
51572W        W11108   7.769  20.769   3.170
51573W        W11109  37.394  32.404  13.922
51574W        W11110  21.118  26.496  13.903
51575W        W11111  41.490  24.207   1.383
51576W        W11112  17.740  24.653   2.234
51577W        W11113  14.154  16.109  13.792
51578W        W11114   6.783  13.647   2.362
51579W        W11115  23.703   6.400   1.807
51580W        W11116   7.757  23.999   1.779
51581W        W11117  30.412  42.923  11.545
51582W        W11118   4.745  26.137   0.761
51583W        W11119  24.491  36.988  14.428
51584W        W11120  26.193  37.077   2.394
51585W        W11121  32.548  12.135   4.349
51586W        W11122  11.713   7.680   4.159
51587W        W11123  34.087   0.386  12.065
51588W        W11124   8.400  31.963   1.251
51589W        W11125   1.961  35.991   1.760
51590W        W11126   3.739  12.808   3.701
51591W        W11127  27.637  18.643  13.009
51592W        W11128  15.231  19.274   4.248
51593W        W11129   3.449  39.511   0.327
51594W        W11130  31.990  11.644   2.301
51595W        W11131  37.467  32.633  11.608
51596W        W11132  28.537  24.549  11.524
51597W        W11133  33.575  22.030   2.701
51598W        W11134  40.027  43.293   0.944
51599W        W11135   7.385  37.077  12.503
51600W        W11136   8.296  33.131  11.113
51601W        W11137  38.019   3.294  12.455
51602W        W11138  44.304   3.414   4.150
51603W        W11139   7.338  28.993   9.592
51604W        W11140  40.495  39.487  10.608
51605W        W11141  16.256  44.003  14.949
51606W        W11142  44.798  40.799  10.944
51607W        W11143  15.190  26.465   0.400
51608W        W11144  21.079  39.313  10.560
51609W        W11145  34.888   2.366   0.947
51610W        W11146  18.140  23.667  12.340
51611W        W11147  43.886   2.456   3.636
51612W        W11148   4.449  35.855  14.504
51613W        W11149  19.753  18.672   4.192
51614W        W11150  38.021  14.797   0.265
51615W        W11151  34.049   4.380   2.218
51616W        W11152  43.792  32.391   4.213
51617W        W11153   0.839  34.988  14.435
51618W        W11154  28.484  37.462   1.914
51619W        W11155   3.418  32.447   0.304
51620W        W11156  35.937  42.434  12.530
51621W        W11157  20.223  21.644   0.891
51622W        W11158  25.168   1.768   0.866
51623W        W11159   9.256  10.830   2.253
51624W        W11160  29.656  34.402  14.469
51625W        W11161  38.948  13.783   0.474
51626W        W11162  38.377  14.275  12.567
51627W        W11163  35.597  22.101   4.710
51628W        W11164  12.813   8.769  14.782
51629W        W11165  13.751  41.997  11.478
51630W        W11166   6.370   5.384   4.336
51631W        W11167   9.731  10.340  13.358
51632W        W11168  11.288   5.341   2.360
51633W        W11169   8.895  14.336  11.535
51634W        W11170  27.450  41.028  12.927
51635W        W11171  13.243   0.411  10.126
51636W        W11172  20.123  37.045   4.739
51637W        W11173  31.555  27.516  11.952
51638W        W11174  36.081  15.204  13.461
51639W        W11175  23.111  15.320  13.050
51640W        W11176  28.480  26.507  10.972
51641W        W11177  18.758  35.573  13.513
51642W        W11178  41.921  42.870  13.821
51643W        W11179  27.633   0.835   3.304
51644W        W11180  41.998  17.172  12.019
51645W        W11181  25.145  17.141  14.429
51646W        W11182   6.227  37.845  10.571
51647W        W11183  31.422  36.908   0.801
51648W        W11184  17.068  27.631  10.609
51649W        W11185  12.250   1.422  10.619
51650W        W11186  38.462  41.473  13.892
51651W        W11187  18.285   7.758   3.260
51652W        W11188  21.235   8.675   0.280
51653W        W11189   2.885  39.987  13.990
51654W        W11190  28.944  37.579   2.226
51655W        W11191  30.634   1.287  11.065
51656W        W11192  33.581  41.323  14.437
51657W        W11193  26.116   2.902  13.385
51658W        W11194   8.754  44.263   5.257
51659W        W11195  19.635  11.284  12.865
51660W        W11196  36.422  30.994   1.217
51661W        W11197  38.495  18.248  11.421
51662W        W11198  11.278  20.244  12.475
51663W        W11199  23.581  17.153   3.266
51664W        W11200  17.686  19.262  10.980
51665W        W11201   0.266   8.663  13.544
51666W        W11202  16.143  41.896  14.858
51667W        W11203  27.124  39.822   1.767
51668W        W11204   0.310   7.219   4.189
51669W        W11205  31.972  28.573  14.430
51670W        W11206   3.947   0.297  11.376
51671W        W11207  41.004  32.464  13.391
51672W        W11208  15.769  19.135   3.780
51673W        W11209   9.785  20.141  12.028
51674W        W11210  28.586  32.457  11.919
51675W        W11211  29.959  32.565   1.287
51676W        W11212  36.406  44.906  14.513
51677W        W11213  18.169  26.108  13.948
51678W        W11214  29.659  24.151   4.647
51679W        W11215   2.470  34.567  10.421
51680W        W11216  40.966  42.439   1.881
51681W        W11217  29.607  13.135   4.771
51682W        W11218   2.286  12.268   4.224
51683W        W11219  13.602  38.005   3.705
51684W        W11220  39.413   4.243   9.935
51685W        W11221  25.533  39.447  14.458
51686W        W11222  20.690  34.018   1.846
51687W        W11223   2.471  27.536  12.913
51688W        W11224  25.118  28.079  12.034
51689W        W11225  21.639  13.238  11.372
51690W        W11226  32.130  10.747   3.718
51691W        W11227  29.436  37.434   4.717
51692W        W11228  14.196  10.762  12.026
51693W        W11229  23.121   7.356  13.534
51694W        W11230  43.351  41.818   2.263
51695W        W11231  27.487  34.919   0.271
51696W        W11232  11.247   7.864  14.281
51697W        W11233  10.798  22.075  11.498
51698W        W11234   3.716  11.868  13.445
51699W        W11235  16.741  24.031  11.379
51700W        W11236  26.144  24.095   2.687
51701W        W11237  16.078  35.522   0.948
51702W        W11238  40.316  24.082   4.721
51703W        W11239  24.110  34.943  12.975
51704W        W11240  28.106  40.819  14.506
51705W        W11241   3.333  27.054  11.046
51706W        W11242  14.782  30.016  11.069
51707W        W11243  41.331  11.188   4.256
51708W        W11244  26.497  20.085  14.019
51709W        W11245  17.189  19.062  12.509
51710W        W11246  11.737  16.201  11.953
51711W        W11247   0.354  38.023   2.241
51712W        W11248  25.060  39.958   1.904
51713W        W11249  32.116  39.525  12.897
51714W        W11250  43.775  40.504  13.328
51715W        W11251   8.838  32.110   0.932
51716W        W11252  23.534  23.046   2.397
51717W        W11253  34.918  27.515   2.358
51718W        W11254  18.676  14.194  12.078
51719W        W11255  42.918   3.299  12.548
51720W        W11256  26.957  11.311   4.739
51721W        W11257  42.916  20.245   0.848
51722W        W11258  28.523  15.633  12.031
51723W        W11259  43.891  21.523  13.468
51724W        W11260  17.774  21.112  12.089
51725W        W11261  24.076   2.721  10.889
51726W        W11262   5.724  32.614   0.283
51727W        W11263  31.047  21.169  13.896
51728W        W11264  37.959  11.164  13.369
51729W        W11265  30.053  21.664   2.869
51730W        W11266  29.942   6.382   4.729
51731W        W11267  14.826  37.995   2.413
51732W        W11268   4.205  39.387   4.802
51733W        W11269  17.560   2.357   4.618
51734W        W11270  12.165  14.705   1.441
51735W        W11271   7.393  25.091  12.871
51736W        W11272  44.890  30.423   2.279
51737W        W11273   2.324  22.185   3.178
51738W        W11274  22.059  27.035   3.721
51739W        W11275  14.724  28.465  10.595
51740W        W11276  16.765   4.883   2.209
51741W        W11277  30.637  22.556  14.335
51742W        W11278  26.542   0.931  12.525
51743W        W11279  32.142  39.899   0.776
51744W        W11280  30.995  17.610   4.817
51745W        W11281   1.731  44.331  13.879
51746W        W11282  22.609  15.165   2.772
51747W        W11283   1.320   7.303  12.868
51748W        W11284  44.306  20.256   3.257
51749W        W11285   3.421  43.814   0.922
51750W        W11286  31.114  12.791   4.115
51751W        W11287  19.730  32.526   1.217
51752W        W11288  34.992  28.502  12.413
51753W        W11289  34.972  31.068  10.480
51754W        W11290  31.079  40.316  10.993
51755W        W11291  23.212  26.089  13.957
51756W        W11292  15.607  38.888   4.316
51757W        W11293  28.667  43.486  10.514
51758W        W11294  31.006   9.850   3.781
51759W        W11295   2.235  16.134   4.346
51760W        W11296  10.194  36.426  14.847
51761W        W11297  32.892  16.312   2.878
51762W        W11298  33.972  26.544   0.786
51763W        W11299  38.513  39.850   2.263
51764W        W11300   2.340   3.904   2.773
51765W        W11301  38.334  44.977   4.185
51766W        W11302  24.537  11.344   4.226
51767W        W11303  15.321   7.910  14.898
51768W        W11304  29.163  25.551  13.850
51769W        W11305  10.641  42.337  14.302
51770W        W11306  30.096   8.829  11.403
51771W        W11307  43.875  15.735   1.368
51772W        W11308  42.512  14.247  13.047
51773W        W11309  20.090  40.314   3.773
51774W        W11310  32.530  20.245  12.848
51775W        W11311  13.297  29.035  14.336
51776W        W11312  13.842  43.866   4.136
51777W        W11313  35.464   9.213  13.440
51778W        W11314  28.460  32.569  11.019
51779W        W11315  28.505   1.438   3.161
51780W        W11316  40.469  28.172   4.352
51781W        W11317  43.928   0.364   0.963
51782W        W11318   8.669  29.424   4.203
51783W        W11319  33.432  43.986  14.764
51784W        W11320   0.286  33.584   4.167
51785W        W11321   1.459   0.391   0.354
51786W        W11322  24.079   3.359   1.731
51787W        W11323  15.808   1.290   2.867
51788W        W11324  36.957  14.306   3.629
51789W        W11325  37.511  11.302   0.964
51790W        W11326  26.546  13.684  13.039
51791W        W11327  32.402   6.388   0.966
51792W        W11328  43.509  11.857   2.851
51793W        W11329  34.498   2.337  12.440
51794W        W11330   5.195  35.596  14.972
51795W        W11331  37.057  27.565  10.506
51796W        W11332  10.359  32.509  12.450
51797W        W11333  33.499  35.558  13.326
51798W        W11334  22.516  12.150  11.885
51799W        W11335   6.401  40.010  11.558
51800W        W11336  41.923  21.655  12.564
51801W        W11337  15.110  12.676  11.983
51802W        W11338  42.406  30.038   1.232
51803W        W11339   9.749  40.968  13.387
51804W        W11340  15.084   2.894   4.615
51805W        W11341  20.615  28.167  14.452
51806W        W11342  31.432  40.517   4.135
51807W        W11343  34.111   7.278   0.893
51808W        W11344  29.485  27.070  13.469
51809W        W11345  36.039   7.861   2.678
51810W        W11346  20.647  23.494   1.728
51811W        W11347  15.214  34.561  10.922
51812W        W11348  25.632  24.167   0.891
51813W        W11349  32.904   2.244   1.240
51814W        W11350   0.345  39.415  13.031
51815W        W11351  34.867  24.139   1.439
51816W        W11352  32.135  17.762  13.893
51817W        W11353  37.928  10.288   0.780
51818W        W11354  23.063  14.333   4.159
51819W        W11355  21.202  13.330   0.471
51820W        W11356   3.710  40.418   1.888
51821W        W11357  42.386   0.797  14.933
51822W        W11358  29.998  21.522  13.405
51823W        W11359  41.790  15.817   5.166
51824W        W11360  44.484   8.812   0.344
51825W        W11361  29.066  41.826  13.945
51826W        W11362  27.577  21.734  14.817
51827W        W11363  36.032  13.684  12.441
51828W        W11364  27.592  24.012  13.912
51829W        W11365  42.469   8.774  13.046
51830W        W11366  38.974   6.858  14.408
51831W        W11367   4.396  21.629  13.350
51832W        W11368   2.756  34.565   0.734
51833W        W11369  22.182  11.794   4.791
51834W        W11370   0.272  32.622  13.404
51835W        W11371  43.271   6.347   3.310
51836W        W11372   0.966  12.759  14.428
51837W        W11373  34.434  41.464  11.865
51838W        W11374  18.242  18.655   1.869
51839W        W11375  20.045   8.329   2.671
51840W        W11376   2.379   9.783   1.744
51841W        W11377  28.493  42.371   3.793
51842W        W11378  18.601  17.697  14.772
51843W        W11379  32.551   2.415   4.195
51844W        W11380  23.597  28.669   1.768
51845W        W11381  32.433   4.402  14.979
51846W        W11382   2.866   6.726  13.876
51847W        W11383  10.301  34.520   2.674
51848W        W11384   5.278   5.760  12.475
51849W        W11385   4.373   3.278  13.548
51850W        W11386  14.831   9.752  12.539
51851W        W11387  30.047  43.365  11.949
51852W        W11388  12.333   6.729   0.394
51853W        W11389  25.104  29.047  10.595
51854W        W11390  22.051  23.110   0.292
51855W        W11391   8.686   1.835   2.184
51856W        W11392  40.474  32.946  14.948
51857W        W11393   1.908  29.955  13.985
51858W        W11394  44.980  11.735  11.887
51859W        W11395  27.651  27.679   1.288
51860W        W11396  32.115  31.140   1.815
51861W        W11397   9.282   9.257   0.348
51862W        W11398   7.403  10.357   4.712
51863W        W11399  35.475  13.603   1.855
51864W        W11400  38.922   0.346  13.005
51865W        W11401  43.866   9.853   5.321
51866W        W11402  43.493  28.463   4.665
51867W        W11403  35.919   6.427   0.427
51868W        W11404   1.379  19.751  14.378
51869W        W11405  22.536  14.278   5.179
51870W        W11406   5.430  32.452  13.851
51871W        W11407  23.206  38.990   4.170
51872W        W11408  29.089   8.758  14.859
51873W        W11409   6.229  20.065  14.858
51874W        W11410   6.885  44.833   3.716
51875W        W11411  40.303   6.206  11.534
51876W        W11412   2.462  11.235   4.306
51877W        W11413  11.161  24.676   3.794
51878W        W11414  11.788  29.922  11.125
51879W        W11415  38.009  19.127   0.830
51880W        W11416  35.362  42.782  11.570
51881W        W11417  20.757   8.821   1.427
51882W        W11418  14.138  35.884   3.252
51883W        W11419   4.330   4.722   0.899
51884W        W11420  41.378  28.664   0.312
51885W        W11421   3.272  16.302  13.405
51886W        W11422  15.779  12.638   4.134
51887W        W11423  40.824  40.343   2.745
51888W        W11424   5.429  36.966   3.249
51889W        W11425   2.964  22.167  13.474
51890W        W11426  34.047  26.155  14.776
51891W        W11427  12.264  14.150   3.650
51892W        W11428  29.142  15.684   4.820
51893W        W11429  35.964  12.305  10.555
51894W        W11430  35.444  31.108  11.959
51895W        W11431  36.478  23.229  14.871
51896W        W11432  24.652  39.944  11.428
51897W        W11433   2.285  11.838  12.066
51898W        W11434  29.993  15.700  14.514
51899W        W11435   7.680  28.453   2.273
51900W        W11436  21.737   0.293   2.340
51901W        W11437  24.689  17.115  13.380
51902W        W11438  31.916  34.067   0.473
51903W        W11439  36.005  43.325  13.903
51904W        W11440  12.359  44.415   4.676
51905W        W11441   1.321  29.464   0.843
51906W        W11442  21.176  24.159   1.419
51907W        W11443  22.135  44.259   4.184
51908W        W11444   1.849  25.167  12.439
51909W        W11445  14.135  29.111  10.550
51910W        W11446  33.015   6.322   4.758
51911W        W11447  20.213  27.086   0.383
51912W        W11448  21.703   4.782  14.014
51913W        W11449  44.891  10.734   0.409
51914W        W11450  19.200  24.661   2.338
51915W        W11451  32.050  43.492   0.444
51916W        W11452  16.587  41.295  14.308
51917W        W11453  29.489  33.440   0.388
51918W        W11454  40.502  20.040   2.265
51919W        W11455   1.880  13.162   2.710
51920W        W11456  43.297  14.157   4.141
51921W        W11457  25.045  31.021   0.280
51922W        W11458  44.275  21.679   4.179
51923W        W11459  30.140  29.457  11.036
51924W        W11460  42.867  10.730  12.384
51925W        W11461  23.551  11.773  10.462
51926W        W11462  33.992   0.472  12.908
51927W        W11463  18.645  22.567  11.002
51928W        W11464  29.604  12.725   2.733
51929W        W11465   1.332  32.434   4.799
51930W        W11466   8.264  10.197   1.266
51931W        W11467  36.844  15.774  14.451
51932W        W11468  21.031   2.736  10.986
51933W        W11469  43.357  12.308  14.325
51934W        W11470  32.887  12.349   1.765
51935W        W11471  32.447  18.692   1.736
51936W        W11472  29.933  23.649   2.837
51937W        W11473  28.044  20.031  12.895
51938W        W11474  35.360  35.477  13.806
51939W        W11475  41.009   6.414   2.673
51940W        W11476  43.975   7.255  14.463
51941W        W11477  23.548  10.323   1.878
51942W        W11478  26.587  11.331  13.830
51943W        W11479  19.067  39.955  10.618
51944W        W11480  19.737  33.387   0.880
51945W        W11481  17.707   9.167  11.042
51946W        W11482  14.721  27.966  14.387
51947W        W11483  29.439  44.806  14.941
51948W        W11484  41.361   1.444  10.976
51949W        W11485  15.259   1.867   2.841
51950W        W11486   3.811  24.099   0.788
51951W        W11487   8.236  23.215  11.463
51952W        W11488  23.139  38.022   2.678
51953W        W11489   4.329  15.290   3.189
51954W        W11490  18.657   1.742  14.865
51955W        W11491  36.869  44.800  12.444
51956W        W11492  38.513  23.546  13.424
51957W        W11493   7.322  25.678   2.899
51958W        W11494  17.260  27.470  14.376
51959W        W11495   7.407  33.913  13.405
51960W        W11496   6.923  22.166   0.933
51961W        W11497  15.683  42.433   4.217
51962W        W11498  13.785  31.511  13.997
51963W        W11499  36.877  20.108  13.022
51964W        W11500  31.436  34.557  11.902
51965W        W11501  31.042  11.230  14.012
51966W        W11502  12.319   9.858  11.126
51967W        W11503   2.881  39.342   2.705
51968W        W11504  21.237  26.482  11.604
51969W        W11505  12.133   4.832   0.471
51970W        W11506  20.173  13.244   4.662
51971W        W11507  23.160  22.545   2.784
51972W        W11508  30.468  29.660  13.316
51973W        W11509  35.857  18.274   1.912
51974W        W11510  18.064   4.852   0.827
51975W        W11511  18.783  29.649   9.976
51976W        W11512  37.996  16.677   0.767
51977W        W11513  33.957  32.515   3.843
51978W        W11514   0.455  31.610   0.426
51979W        W11515  40.955   1.866  10.474
51980W        W11516   6.690  44.759  14.514
51981W        W11517  40.411   3.331   4.276
51982W        W11518  43.324  16.105  13.457
51983W        W11519  33.400  39.549  12.919
51984W        W11520   1.965   5.299  12.425
51985W        W11521  31.914  39.862  12.429
51986W        W11522   2.932   6.246   1.901
51987W        W11523  33.585  24.086  13.987
51988W        W11524  13.708  33.459  13.472
51989W        W11525   8.220   0.291   0.257
51990W        W11526   6.185  31.550  12.513
51991W        W11527  42.940   0.437  11.467
51992W        W11528  15.691  42.305  12.413
51993W        W11529  16.687   4.823  14.367
51994W        W11530  43.421   7.751   1.280
51995W        W11531  40.379   6.862   4.285
51996W        W11532  43.007  41.916   1.275
51997W        W11533  29.451   9.685  13.505
51998W        W11534  39.943  10.849  11.550
51999W        W11535   1.432  27.556   3.680
52000W        W11536   6.418  13.208   0.877
52001W        W11537  21.074  38.044   2.869
52002W        W11538  15.089   4.208   3.686
52003W        W11539  12.629  20.535   3.830
52004W        W11540   4.369  11.314   3.766
52005W        W11541   0.443  22.244  14.486
52006W        W11542   9.735  42.457  13.897
52007W        W11543  32.469   0.795   3.170
52008W        W11544  20.728  22.012  13.994
52009W        W11545   6.399  28.509   3.794
52010W        W11546  15.710   4.844   3.721
52011W        W11547  31.440  21.619  13.434
52012W        W11548  34.611  13.815  12.875
52013W        W11549  33.118  13.202   1.235
52014W        W11550   1.408  20.689   1.921
52015W        W11551  10.336  12.652  14.466
52016W        W11552  22.572  26.674   0.785
52017W        W11553  14.592  35.901  13.910
52018W        W11554  40.912   0.248  11.564
52019W        W11555  22.624  27.159  13.918
52020W        W11556  26.473  14.835   3.691
52021W        W11557  13.768  19.610  10.509
52022W        W11558   9.769   5.793  14.789
52023W        W11559  22.099  41.043  10.627
52024W        W11560   2.814  23.091   1.776
52025W        W11561  29.974  36.932   1.231
52026W        W11562  40.940  33.104  14.793
52027W        W11563  30.113  32.446   2.711
52028W        W11564  37.014  32.535  12.376
52029W        W11565   1.443  38.460  13.920
52030W        W11566   6.237   3.917   1.397
52031W        W11567   4.215   7.735   0.322
52032W        W11568  13.782  27.070   1.406
52033W        W11569  42.387  24.108   3.267
52034W        W11570  28.965  32.468  13.489
52035W        W11571   7.820  11.294   4.308
52036W        W11572   3.368  29.985   1.311
52037W        W11573  44.358   9.169  13.838
52038W        W11574   7.326  30.469  14.961
52039W        W11575  42.314  37.447   2.277
52040W        W11576   6.251  14.235  10.414
52041W        W11577   5.308   7.415   5.117
52042W        W11578  34.551   7.784  10.429
52043W        W11579   7.893  34.968  11.511
52044W        W11580  10.806  11.831   2.753
52045W        W11581  34.983  32.549   1.380
52046W        W11582  44.461  40.499   3.367
52047W        W11583  24.104  37.476   4.732
52048W        W11584  33.049  25.964   0.806
52049W        W11585   7.371   3.374   2.341
52050W        W11586   5.807   9.384  13.895
52051W        W11587  44.379  44.351  11.972
52052W        W11588   8.882  32.021  14.435
52053W        W11589   6.310  20.078   1.770
52054W        W11590  42.879  17.230  10.932
52055W        W11591  42.840   7.251   0.379
52056W        W11592   8.670  14.713  10.545
52057W        W11593  31.980  37.518  13.863
52058W        W11594  43.811  26.642   2.354
52059W        W11595  22.695  38.893   3.271
52060W        W11596  23.204  13.680   4.695
52061W        W11597  32.102  39.336   4.783
52062W        W11598   6.919  42.444   1.337
52063W        W11599  44.497  14.664   2.268
52064W        W11600  28.450  16.232  13.421
52065W        W11601   9.752  26.520  13.545
52066W        W11602  33.994  42.409  13.461
52067W        W11603  24.645  27.194  11.450
52068W        W11604  30.436   5.711  14.388
52069W        W11605  25.210  19.742  14.334
52070W        W11606  12.739  39.501   0.286
52071W        W11607  20.084  31.953  14.890
52072W        W11608  17.148  31.507   4.123
52073W        W11609  40.335  43.841   0.266
52074W        W11610   4.287   2.297   0.341
52075W        W11611  36.927  25.963   2.394
52076W        W11612  42.838   6.368  13.805
52077W        W11613  35.021  31.460  11.552
52078W        W11614  21.059  11.327  10.487
52079W        W11615  16.284  19.766   3.169
52080W        W11616  10.275  13.835   4.232
52081W        W11617  14.681  37.554  10.953
52082W        W11618   9.853  10.360   2.183
52083W        W11619  30.432  43.292   0.884
52084W        W11620  26.969  35.471  13.332
52085W        W11621  30.058  29.639  11.939
52086W        W11622   5.257  24.693   4.228
52087W        W11623  24.714  40.352  13.848
52088W        W11624  25.554  29.963  15.000
52089W        W11625   9.833  16.596   3.314
52090W        W11626  24.206  27.945   3.226
52091W        W11627  18.692  43.306   3.842
52092W        W11628  30.001  36.951  10.447
52093W        W11629   4.409  28.671   1.731
52094W        W11630  14.786  22.118   1.407
52095W        W11631   7.800  43.821   2.195
52096W        W11632   1.344   3.766  12.083
52097W        W11633  28.158  19.225   0.308
52098W        W11634   1.945  11.830  10.947
52099W        W11635   5.361  18.639  12.546
52100W        W11636  24.651   0.396   0.418
52101W        W11637  44.006  16.235   0.954
52102W        W11638  26.197  21.734   1.770
52103W        W11639  31.413   7.230  13.949
52104W        W11640  44.345  37.361   1.733
52105W        W11641  35.390  24.155   1.836
52106W        W11642  14.662  17.631   2.251
52107W        W11643   4.380  31.995  10.965
52108W        W11644  21.155  12.805   1.437
52109W        W11645  19.633  19.663   0.771
52110W        W11646   2.423  14.146  12.027
52111W        W11647  10.667  30.509  13.024
52112W        W11648  24.979  20.732  13.347
52113W        W11649  38.391  24.170  10.563
52114W        W11650   4.346  38.921  10.471
52115W        W11651  18.586  25.210  13.806
52116W        W11652   8.313   8.766  14.772
52117W        W11653  39.477   3.917   3.250
52118W        W11654  22.656  19.744  11.031
52119W        W11655  36.852  41.519  13.951
52120W        W11656  31.077  43.512  12.060
52121W        W11657  16.664   0.966  13.990
52122W        W11658  40.820   1.317  13.431
52123W        W11659   2.265  25.967  12.420
52124W        W11660  27.029  39.824   3.633
52125W        W11661  37.905  27.470   0.776
52126W        W11662  24.631  27.048  13.345
52127W        W11663  41.963  13.282   3.175
52128W        W11664  19.122  43.778  10.537
52129W        W11665  15.665   5.303   4.661
52130W        W11666  27.150  19.656  12.418
52131W        W11667  20.653  34.106  10.977
52132W        W11668   3.251  43.308   2.350
52133W        W11669  34.539   4.435  13.459
52134W        W11670   2.449  25.688   2.844
52135W        W11671  10.214  23.080  14.278
52136W        W11672   7.857  36.377   0.373
52137W        W11673  42.929   8.750   3.821
52138W        W11674  32.977  32.900   2.328
52139W        W11675  23.206  43.841  14.002
52140W        W11676   6.803  41.001   0.444
52141W        W11677   1.879  38.834  11.980
52142W        W11678   9.377   5.277   5.127
52143W        W11679   6.784  32.955   2.340
52144W        W11680  15.760  21.057  14.786
52145W        W11681  38.491  36.098  14.484
52146W        W11682  12.287  12.633  10.519
52147W        W11683   2.900  22.696   4.135
52148W        W11684   9.661  18.764  11.866
52149W        W11685   3.336   1.273   1.896
52150W        W11686   6.867  17.725  11.549
52151W        W11687  12.795  10.223   5.738
52152W        W11688   0.437  36.374   3.683
52153W        W11689  29.568  27.549  14.312
52154W        W11690  21.110   8.368  12.351
52155W        W11691  26.604  41.531   4.180
52156W        W11692  34.435   4.372  11.551
52157W        W11693  36.929   9.706   0.921
52158W        W11694  19.111   3.263   1.845
52159W        W11695  26.529  20.188   2.389
52160W        W11696   5.865  36.448   2.789
52161W        W11697   9.188  44.797   3.735
52162W        W11698  21.685  22.221  12.450
52163W        W11699  31.095  32.397  12.562
52164W        W11700  20.169  27.634   2.271
52165W        W11701  37.899  28.179  11.596
52166W        W11702  36.494  11.224  12.501
52167W        W11703  36.514   7.270  12.434
52168W        W11704  44.881  42.469   3.258
52169W        W11705  34.536  11.621   2.867
52170W        W11706  12.828  10.689  12.987
52171W        W11707  17.694   0.753   3.184
52172W        W11708   2.893  37.998  13.960
52173W        W11709  21.075  23.736  10.604
52174W        W11710  39.999  11.719   1.222
52175W        W11711  31.509  13.611   1.909
52176W        W11712   3.424   2.820   0.804
52177W        W11713  12.795  26.198   3.330
52178W        W11714  43.407   9.835  11.004
52179W        W11715  41.000  24.150  14.975
52180W        W11716   6.381  10.650   2.857
52181W        W11717  32.433   6.299  10.980
52182W        W11718  40.965  41.968   0.371
52183W        W11719  37.918  32.093   0.416
52184W        W11720  26.056  24.590  13.029
52185W        W11721  14.622   3.745   3.743
52186W        W11722  44.480   3.759  13.532
52187W        W11723   4.869  18.587  10.918
52188W        W11724   1.448  10.367  11.485
52189W        W11725  23.706  22.114   0.393
52190W        W11726  19.050  31.450   4.144
52191W        W11727  21.681  34.396  11.522
52192W        W11728  43.890  16.246  14.974
52193W        W11729  41.348  44.461  14.981
52194W        W11730  28.011  41.011  11.080
52195W        W11731  27.168   0.260   3.763
52196W        W11732   2.367  21.095  13.360
52197W        W11733  42.016  44.363  13.934
52198W        W11734  32.011  22.097   3.837
52199W        W11735   9.733   7.389  13.915
52200W        W11736  28.076  14.247  12.402
52201W        W11737  41.960  27.030   3.751
52202W        W11738  40.907  27.525   2.739
52203W        W11739  11.345  11.766   2.312
52204W        W11740   4.288  26.059  14.769
52205W        W11741  30.478  19.681  11.600
52206W        W11742  44.451  34.481   1.299
52207W        W11743   2.887  23.998   1.919
52208W        W11744  39.530  29.502   1.316
52209W        W11745  27.954   5.708  12.991
52210W        W11746   1.481  23.633   5.089
52211W        W11747   7.790  39.340  14.418
52212W        W11748  14.744   8.240  13.841
52213W        W11749   9.383  20.720  10.615
52214W        W11750  38.944  12.302   0.306
52215W        W11751  11.676  23.500   1.873
52216W        W11752   1.969  17.602  11.419
52217W        W11753  44.334  37.886   2.815
52218W        W11754   9.709  22.031   4.335
52219W        W11755  20.250  16.809  12.877
52220W        W11756  41.378  27.563  11.063
52221W        W11757  18.695  24.981  12.463
52222W        W11758  37.454  20.044   0.961
52223W        W11759  30.058   8.883  14.475
52224W        W11760   3.435  26.182   3.750
52225W        W11761  38.934  10.716  10.503
52226W        W11762  19.055   4.775   2.833
52227W        W11763  42.029   8.201  11.591
52228W        W11764   5.399   4.880   3.346
52229W        W11765   5.860  29.528   1.410
52230W        W11766  40.899   4.372   4.178
52231W        W11767  31.493  28.557  14.887
52232W        W11768  39.503  42.010   3.147
52233W        W11769  31.428  41.022   4.792
52234W        W11770  17.249  31.152  10.948
52235W        W11771  42.321  33.005  10.628
52236W        W11772   7.248  18.664   2.793
52237W        W11773  15.162  28.517   1.785
52238W        W11774   6.357  38.885   1.210
52239W        W11775   3.254  11.170  13.484
52240W        W11776   0.371  17.161   0.933
52241W        W11777  44.452  32.106  13.849
52242W        W11778  11.130  13.708   3.692
52243W        W11779   9.333   6.877  14.959
52244W        W11780   2.251  12.281  14.781
52245W        W11781   4.240  33.999   2.196
52246W        W11782  39.425  21.105   3.146
52247W        W11783  36.556  24.512   3.209
52248W        W11784  11.743  25.051   4.642
52249W        W11785   9.250  11.133   4.665
52250W        W11786  37.944   6.425   1.925
52251W        W11787  15.645  28.959  10.075
52252W        W11788   0.774  41.932   4.130
52253W        W11789  12.236  36.419   1.280
52254W        W11790  13.334  22.102  10.629
52255W        W11791  40.402  38.405   1.252
52256W        W11792  42.948  41.328  14.318
52257W        W11793  29.432  33.108   3.201
52258W        W11794  30.578  32.548  13.792
52259W        W11795  15.151  43.408  13.863
52260W        W11796   0.982   3.724   1.781
52261W        W11797  41.392  38.513  13.922
52262W        W11798  36.574  36.538   0.818
52263W        W11799  18.605  38.822  13.392
52264W        W11800  38.546  13.301  14.379
52265W        W11801  34.511  27.642   3.645
52266W        W11802  23.700  22.163  13.447
52267W        W11803  21.122  33.477  13.871
52268W        W11804  27.975  23.241  11.598
52269W        W11805  14.148   4.750   2.840
52270W        W11806  24.665  25.157  14.027
52271W        W11807  41.995  17.306  10.585
52272W        W11808  28.151   3.821  11.388
52273W        W11809   4.299  22.649  13.873
52274W        W11810  14.273   5.890  13.028
52275W        W11811  37.881  20.700   4.603
52276W        W11812  24.496  44.432  13.412
52277W        W11813   2.418   9.783  13.797
52278W        W11814   6.183  29.981   3.216
52279W        W11815  36.089  31.619   0.940
52280W        W11816  21.540  28.570  14.828
52281W        W11817  43.918  22.019  14.446
52282W        W11818  19.559  37.027   4.244
52283W        W11819  36.354  41.896  13.896
52284W        W11820   8.331   5.251   3.747
52285W        W11821  11.200  23.014  14.511
52286W        W11822  37.024  13.627   0.483
52287W        W11823  22.626  20.149   3.656
52288W        W11824  28.112  26.507  14.774
52289W        W11825   0.861  29.017  10.586
52290W        W11826  40.840  20.564   1.737
52291W        W11827  32.142  12.634  12.366
52292W        W11828  10.716  42.928  10.127
52293W        W11829  40.340  18.099  11.440
52294W        W11830  25.540  35.524   4.320
52295W        W11831   1.772  41.355   0.311
52296W        W11832   3.909  11.747   0.259
52297W        W11833  17.737  24.691   1.763
52298W        W11834  16.673  30.443   2.721
52299W        W11835  28.613  43.410  12.528
52300W        W11836  35.590  29.541   3.276
52301W        W11837  31.488  30.907  10.981
52302W        W11838  14.721  30.608   1.420
52303W        W11839  19.209  10.790   1.895
52304W        W11840   7.398  36.415   3.340
52305W        W11841  17.074  35.083  10.617
52306W        W11842  31.491   1.855  14.507
52307W        W11843   0.801  28.978  11.586
52308W        W11844  37.053   4.283   1.761
52309W        W11845  43.328  22.725  10.997
52310W        W11846  30.659   7.172  10.466
52311W        W11847  35.869  37.035  12.861
52312W        W11848  19.727   6.195   1.865
52313W        W11849  24.617   1.769  14.840
52314W        W11850   8.708   4.877  12.342
52315W        W11851   8.175  44.985  10.950
52316W        W11852  13.208  40.029  11.439
52317W        W11853   7.786  34.994   0.828
52318W        W11854  12.781  44.330   0.822
52319W        W11855   6.243  19.587   1.823
52320W        W11856  24.648  40.902  11.420
52321W        W11857  13.797  32.058   5.203
52322W        W11858   0.798  23.060  13.514
52323W        W11859  35.003  12.217   0.414
52324W        W11860  31.049  35.488   3.831
52325W        W11861  21.171  18.683   4.684
52326W        W11862  35.505  16.102  14.939
52327W        W11863   8.852  15.682   0.934
52328W        W11864  21.246  11.308   1.240
52329W        W11865  27.658  18.260  10.452
52330W        W11866  14.766   8.699  13.373
52331W        W11867  33.936  16.172  14.943
52332W        W11868  10.706  38.418   4.232
52333W        W11869   4.281  39.871  14.336
52334W        W11870  25.682  19.705   4.693
52335W        W11871  22.681  34.461   4.161
52336W        W11872  43.000   9.676   9.990
52337W        W11873  34.883   8.889   2.891
52338W        W11874  20.261   9.736   4.830
52339W        W11875  28.511   1.407  11.378
52340W        W11876   4.934  28.479  12.470
52341W        W11877   1.390   9.800   2.240
52342W        W11878  19.099  26.142  11.952
52343W        W11879  29.478  10.702   1.730
52344W        W11880  40.364  26.621  12.870
52345W        W11881  23.683  30.933   3.675
52346W        W11882   0.743  11.676   2.752
52347W        W11883  20.657  17.580   2.236
52348W        W11884  10.318  41.983  12.500
52349W        W11885  42.444  22.556  12.574
52350W        W11886  42.376  28.483  12.427
52351W        W11887  38.389  29.462   2.325
52352W        W11888  22.171  32.013   2.372
52353W        W11889  25.148  37.937  14.412
52354W        W11890  42.297  40.350  10.544
52355W        W11891  30.552  34.474  10.998
52356W        W11892  43.775   5.359  13.511
52357W        W11893  23.061   1.284  12.979
52358W        W11894  25.675   5.914   9.947
52359W        W11895   0.874   4.229   3.799
52360W        W11896   5.270  26.695  12.976
52361W        W11897   9.345  20.265   3.362
52362W        W11898  19.156  23.580   9.439
52363W        W11899  17.233  25.216  11.909
52364W        W11900  25.488  36.995  10.626
52365W        W11901  42.807  19.741   3.767
52366W        W11902  37.014  14.300   0.462
52367W        W11903  37.346   5.262   0.446
52368W        W11904  33.409   2.324   3.306
52369W        W11905  43.953   0.824  11.898
52370W        W11906  17.666  21.683   5.243
52371W        W11907  28.080   2.443  10.586
52372W        W11908  30.440  42.403   1.278
52373W        W11909   0.253  24.038   3.189
52374W        W11910  19.145   9.717  12.489
52375W        W11911  25.153  24.214  10.641
52376W        W11912  44.784   3.412  14.330
52377W        W11913  34.948   5.899  10.600
52378W        W11914  12.790  36.075  13.999
52379W        W11915   7.730  44.446  11.610
52380W        W11916  34.526  15.098  14.928
52381W        W11917   1.445  15.709   9.964
52382W        W11918  24.670  18.737   2.868
52383W        W11919  25.624  32.961  12.343
52384W        W11920   6.751  12.797  12.490
52385W        W11921  36.095  40.925  14.391
52386W        W11922  29.928  34.525   1.720
52387W        W11923  44.893  35.372   4.226
52388W        W11924  43.365  17.749  12.372
52389W        W11925  20.525   8.717   3.816
52390W        W11926   3.784   4.698  14.476
52391W        W11927  32.013  39.038  14.863
52392W        W11928  20.655  34.548  14.981
52393W        W11929  18.161  35.868  11.566
52394W        W11930  25.573  20.121  13.917
52395W        W11931  15.213  15.729   4.751
52396W        W11932  33.948  21.755   2.800
52397W        W11933  14.324  14.292   0.938
52398W        W11934  40.463   1.279  14.443
52399W        W11935  25.551   0.406   4.709
52400W        W11936  13.232   2.934  14.326
52401W        W11937  35.534  19.725   0.793
52402W        W11938  17.173  39.408   2.673
52403W        W11939  19.778  35.559   9.505
52404W        W11940  34.094  43.367   4.615
52405W        W11941  13.801  20.143   1.736
52406W        W11942  11.786   7.765  14.956
52407W        W11943  16.137  40.923   1.262
52408W        W11944  44.463  37.390  11.085
52409W        W11945  41.986   5.755   4.630
52410W        W11946   3.891  43.476   2.734
52411W        W11947  21.116  21.085  11.115
52412W        W11948   2.309  10.143   5.276
52413W        W11949  43.399  32.595   3.351
52414W        W11950  31.102  44.271   4.123
52415W        W11951  36.094  23.704  14.973
52416W        W11952  26.049  38.823   4.696
52417W        W11953  18.164  43.371   2.383
52418W        W11954  13.767  43.454   0.359
52419W        W11955  34.933   4.806  13.929
52420W        W11956  41.794  25.656   0.247
52421W        W11957  11.165  34.098  11.568
52422W        W11958  17.150  33.093   4.346
52423W        W11959  30.909   1.974  11.946
52424W        W11960  21.571  34.938  10.551
52425W        W11961  34.971  20.187   3.327
52426W        W11962  16.299   1.931  14.363
52427W        W11963  19.638  23.700  12.913
52428W        W11964  23.604  21.644   4.319
52429W        W11965   1.438  22.106   2.682
52430W        W11966  11.808  35.398  11.436
52431W        W11967  30.925  15.766  10.031
52432W        W11968  27.538   5.762  12.945
52433W        W11969  15.213  10.690  13.054
52434W        W11970   4.295  21.126  11.871
52435W        W11971  19.672  40.013   1.378
52436W        W11972  29.579   9.678  10.624
52437W        W11973  34.054   3.344  10.434
52438W        W11974  14.703  24.518  11.609
52439W        W11975   6.321  15.603  14.280
52440W        W11976  31.927  12.716  10.033
52441W        W11977  14.197   4.815  13.348
52442W        W11978  12.203  44.441   0.398
52443W        W11979   9.721  43.883   1.759
52444W        W11980  24.712  18.665   0.316
52445W        W11981  31.550  16.642   1.850
52446W        W11982  22.655   8.697   1.780
52447W        W11983   5.432   7.812  13.532
52448W        W11984  12.638  25.478   2.829
52449W        W11985  29.936   2.390   4.114
52450W        W11986   1.358  30.570  10.910
52451W        W11987  24.717  11.627  13.938
52452W        W11988  14.199   7.250   0.395
52453W        W11989  14.681  32.588  10.408
52454W        W11990  28.963  43.848  11.919
52455W        W11991  38.481  31.621  14.454
52456W        W11992  37.360   8.675   4.700
52457W        W11993   0.922   6.896  12.448
52458W        W11994  31.016   4.748  13.325
52459W        W11995  31.033   5.806   4.605
52460W        W11996  25.606  32.634   0.748
52461W        W11997  39.827  27.017  12.388
52462W        W11998   7.170  17.299   0.402
52463W        W11999  19.257  44.862  11.413
52464W        W12000   8.814  16.270   1.772
52465W        W12001   5.214   6.870  13.431
52466W        W12002   7.726  16.576  13.314
52467W        W12003   9.327   0.776   3.651
52468W        W12004   6.389  44.997  12.370
52469W        W12005   4.782  11.659  11.886
52470W        W12006  12.647  37.554   3.355
52471W        W12007  15.679   7.372  13.513
52472W        W12008  26.003  32.077   1.231
52473W        W12009  19.641  20.068  14.762
52474W        W12010  44.946  39.419   4.278
52475W        W12011  42.296  27.616  12.534
52476W        W12012  10.693  18.268  13.545
52477W        W12013   6.293  35.441   1.428
52478W        W12014   2.450  37.859   3.652
52479W        W12015  43.844  44.008   2.206
52480W        W12016  23.669  11.363  11.021
52481W        W12017   0.348   7.327   4.637
52482W        W12018  13.739  27.012   2.356
52483W        W12019  19.171  27.093  10.947
52484W        W12020  35.363   9.788   4.167
52485W        W12021  10.742  31.093   1.827
52486W        W12022  24.164  44.467  10.960
52487W        W12023  30.572   2.335   5.159
52488W        W12024  20.223  32.105  14.370
52489W        W12025  11.724  19.741  13.498
52490W        W12026   7.392   0.320  10.616
52491W        W12027   7.387  22.638   4.673
52492W        W12028  35.950  33.462  10.956
52493W        W12029   0.815  21.168   0.915
52494W        W12030  12.345  31.435   2.722
52495W        W12031  30.605   6.205   0.391
52496W        W12032   5.755  26.521  13.062
52497W        W12033  26.457  43.801  10.077
52498W        W12034   4.425  29.627   0.916
52499W        W12035  13.231  38.993   2.396
52500W        W12036  18.082  22.658   3.855
52501W        W12037  12.266   3.863   0.892
52502W        W12038  27.969  19.232   2.197
52503W        W12039  41.985  20.119   4.207
52504W        W12040  29.963  37.861   4.316
52505W        W12041  35.024  31.974   1.395
52506W        W12042  28.106  33.400  12.920
52507W        W12043  11.205  20.749  10.612
52508W        W12044   2.435  34.481   9.942
52509W        W12045  42.954  19.723   2.792
52510W        W12046  18.052   3.406   4.328
52511W        W12047  27.517   1.844  13.040
52512W        W12048   8.323  24.610  10.966
52513W        W12049  35.961  11.776  12.356
52514W        W12050   0.780  14.326   0.296
52515W        W12051   9.236  15.590   0.287
52516W        W12052  32.896  38.073   0.462
52517W        W12053  30.985   4.450   3.377
52518W        W12054  26.122   4.735   1.335
52519W        W12055  43.846   6.753   4.687
52520W        W12056  27.483   0.824  12.358
52521W        W12057  10.713  33.439  11.423
52522W        W12058  34.543  41.819  11.515
52523W        W12059   8.278   6.753   9.961
52524W        W12060  31.445  21.568  12.942
52525W        W12061  14.334   4.776   4.129
52526W        W12062  34.567  27.677  12.077
52527W        W12063  30.483  40.538   1.233
52528W        W12064   5.408  43.776  11.595
52529W        W12065  18.178   3.858   0.815
52530W        W12066  30.050  30.453  12.417
52531W        W12067   7.275  14.778   3.658
52532W        W12068  41.029  17.269  12.061
52533W        W12069   0.977  22.135   2.839
52534W        W12070  17.762  29.558   0.245
52535W        W12071  23.036  11.769  13.525
52536W        W12072  12.185  25.712   1.281
52537W        W12073  12.762  20.227   3.332
52538W        W12074   3.799  24.612  14.383
52539W        W12075   7.308  44.918   4.716
52540W        W12076  44.385  11.810  13.802
52541W        W12077  43.454  26.991   1.263
52542W        W12078  32.433  14.314  13.351
52543W        W12079   2.826  43.437  11.485
52544W        W12080  31.992  34.603  13.521
52545W        W12081  15.785  31.504   3.232
52546W        W12082  24.551   3.876   2.697
52547W        W12083  28.063  22.508   1.395
52548W        W12084   3.756   0.743  12.902
52549W        W12085  36.517  11.643   1.843
52550W        W12086  22.663  35.051   1.895
52551W        W12087  42.302  33.931  11.930
52552W        W12088  26.472   8.343   1.271
52553W        W12089  22.062  38.343   2.744
52554W        W12090   5.831  13.719   2.314
52555W        W12091  33.124  16.632  10.920
52556W        W12092  12.726  24.059   3.753
52557W        W12093  28.665  21.561  10.917
52558W        W12094   6.850  39.861  13.803
52559W        W12095   5.321  17.186   4.287
52560W        W12096  30.416  37.957  14.907
52561W        W12097  43.835  26.055   4.156
52562W        W12098   5.767   6.193  12.000
52563W        W12099  16.780  31.071   0.774
52564W        W12100  16.236  23.992   3.285
52565W        W12101  36.084  13.729  12.958
52566W        W12102   1.420   8.255  12.855
52567W        W12103  34.408  41.861   4.800
52568W        W12104  10.834  12.686   1.934
52569W        W12105  22.192   3.236   3.753
52570W        W12106  23.225   8.362  13.333
52571W        W12107   9.720  35.093  13.356
52572W        W12108  11.725  27.024  14.820
52573W        W12109  14.611   2.410   0.729
52574W        W12110   4.865  28.478   2.329
52575W        W12111  43.438  44.278   3.832
52576W        W12112   4.376  40.999   0.953
52577W        W12113  25.207  18.275  11.998
52578W        W12114  34.562   0.926  12.989
52579W        W12115  23.733  16.776  12.879
52580W        W12116  42.459  39.986  11.949
52581W        W12117   6.845  16.703   3.352
52582W        W12118  11.723  27.061  14.334
52583W        W12119  10.164   1.820   2.236
52584W        W12120  21.032  16.231  13.895
52585W        W12121  19.533   2.915  13.844
52586W        W12122  43.463  36.091  12.954
52587W        W12123   0.444  38.431   4.247
52588W        W12124   4.721   7.297  11.572
52589W        W12125  21.671  10.770   2.714
52590W        W12126  26.519  27.182  12.525
52591W        W12127  20.768  10.817   4.155
52592W        W12128  14.696  11.133   2.412
52593W        W12129   1.798  24.676  12.425
52594W        W12130  22.221  33.921  13.033
52595W        W12131  30.599   3.386   3.217
52596W        W12132  24.160  22.205  13.423
52597W        W12133  16.211  23.199  14.387
52598W        W12134  30.037  39.351   4.677
52599W        W12135  32.987  35.566  11.551
52600W        W12136   6.328  30.419  11.098
52601W        W12137  10.170  37.438  13.837
52602W        W12138  29.498  33.610   5.127
52603W        W12139  26.469  20.236  12.497
52604W        W12140   1.775  29.579  13.032
52605W        W12141  43.956   5.917  14.400
52606W        W12142  40.362   4.784   3.166
52607W        W12143  44.754  43.453   4.347
52608W        W12144  35.491  39.398  11.003
52609W        W12145  12.804  21.246  13.832
52610W        W12146  20.202  32.000  12.973
52611W        W12147  32.902  41.919   4.751
52612W        W12148  17.654  29.981  12.504
52613W        W12149  13.627  34.976  12.520
52614W        W12150  37.910  40.031   2.354
52615W        W12151  19.660  43.004  10.465
52616W        W12152  33.998   7.338   1.290
52617W        W12153  28.513   3.846   2.240
52618W        W12154   8.291   5.314   0.296
52619W        W12155   0.846  38.390   2.746
52620W        W12156  10.741   8.827  11.095
52621W        W12157  26.472  44.839  11.514
52622W        W12158  21.563  16.118   2.381
52623W        W12159  30.130  44.287   4.280
52624W        W12160  36.941  39.368   4.682
52625W        W12161  21.133  22.156   1.299
52626W        W12162   9.329  12.652   3.867
52627W        W12163   2.458  25.605   1.250
52628W        W12164  30.161  20.735   3.176
52629W        W12165  23.048  12.346  12.954
52630W        W12166  27.044  40.482   4.113
52631W        W12167   4.777  39.376   2.246
52632W        W12168   2.903   8.835  13.044
52633W        W12169   8.403  22.204   3.275
52634W        W12170  29.560   7.862  14.932
52635W        W12171  10.673  29.035  12.955
52636W        W12172  22.590  22.184  12.042
52637W        W12173   8.693  18.194  13.858
52638W        W12174   8.187  40.492  14.763
52639W        W12175  39.433  33.875  12.008
52640W        W12176  25.502  24.128  11.951
52641W        W12177  21.071   2.342  11.936
52642W        W12178  30.131  13.637  11.946
52643W        W12179  42.938  11.751  13.307
52644W        W12180   2.802  26.130  11.985
52645W        W12181   1.791   6.876   4.773
52646W        W12182  10.810  31.422  11.387
52647W        W12183  14.230   1.970   3.151
52648W        W12184  12.293  41.304  12.538
52649W        W12185   1.734  13.348  14.335
52650W        W12186   7.824   8.795  11.057
52651W        W12187  32.960   7.331  11.030
52652W        W12188  41.494  11.363   0.803
52653W        W12189  39.891  37.039   2.815
52654W        W12190  40.400  12.743   4.176
52655W        W12191  14.631  20.613  13.896
52656W        W12192  40.997  30.977  13.449
52657W        W12193  40.506  20.598   1.437
52658W        W12194  24.164   8.683   1.741
52659W        W12195  25.194  38.335   4.240
52660W        W12196  36.497   9.153  14.511
52661W        W12197  20.586  33.898  11.972
52662W        W12198  25.616  27.690  10.945
52663W        W12199  36.027  42.459  13.043
52664W        W12200   2.771  26.136   0.908
52665W        W12201  44.288  26.537  10.006
52666W        W12202   7.757  32.974  10.530
52667W        W12203  10.708   6.815  14.003
52668W        W12204  13.231  20.767   3.824
52669W        W12205  12.681  41.871   0.865
52670W        W12206   7.846  41.987   4.319
52671W        W12207  35.927  20.248  11.497
52672W        W12208   1.416   8.227   0.916
52673W        W12209  44.447  25.096   3.275
52674W        W12210   9.160  14.698  13.341
52675W        W12211  31.914  21.114   1.237
52676W        W12212  34.982  27.942   0.878
52677W        W12213  24.038  26.465  14.334
52678W        W12214   2.942  29.136  13.357
52679W        W12215  23.237  17.741   3.184
52680W        W12216   7.843  22.244   4.761
52681W        W12217  38.025   8.657  13.822
52682W        W12218   6.354  30.078   1.908
52683W        W12219  29.485  36.451  13.984
52684W        W12220  21.132  37.431   4.269
52685W        W12221  22.525  29.526   2.711
52686W        W12222   9.271  33.413  14.811
52687W        W12223  24.587  15.204  13.324
52688W        W12224  32.555   7.709   3.350
52689W        W12225  39.421  32.003   5.120
52690W        W12226  11.705  16.268   0.353
52691W        W12227  17.065  36.516   3.159
52692W        W12228  19.692  24.705   3.350
52693W        W12229  42.913   6.413   4.694
52694W        W12230   6.268  10.668  14.409
52695W        W12231  26.646   3.458   3.822
52696W        W12232  25.630  22.583   3.806
52697W        W12233  44.764  37.007  10.641
52698W        W12234  39.488  27.015   3.688
52699W        W12235  44.940  39.031   3.853
52700W        W12236   9.824  21.064   1.743
52701W        W12237   1.756  12.343  10.475
52702W        W12238   5.769  30.593   4.619
52703W        W12239  43.469  12.165   0.963
52704W        W12240  32.581  38.427  13.993
52705W        W12241  36.911  43.950  11.390
52706W        W12242   5.299  32.039   3.328
52707W        W12243  28.528  39.842   2.779
52708W        W12244  14.709   6.724  12.842
52709W        W12245  21.660  38.843   4.305
52710W        W12246  32.482  10.271   0.737
52711W        W12247  25.664  33.493   5.317
52712W        W12248   1.794  25.163   4.787
52713W        W12249  23.096   0.401  13.967
52714W        W12250  17.600  17.690   3.773
52715W        W12251  31.128  21.610  13.961
52716W        W12252  11.835  44.805  10.427
52717W        W12253  11.166  35.456   4.201
52718W        W12254  25.966  15.605   1.347
52719W        W12255   8.656  16.615  13.483
52720W        W12256  29.510  25.089  12.385
52721W        W12257  14.590  10.857  11.958
52722W        W12258  40.518  34.082   2.241
52723W        W12259  32.028  40.395  11.605
52724W        W12260   2.256  27.072   2.318
52725W        W12261  26.976  17.628  10.427
52726W        W12262  25.011  17.597   2.841
52727W        W12263  19.213  40.505  10.605
52728W        W12264  15.150  27.533   0.804
52729W        W12265  36.394  25.991  11.988
52730W        W12266  30.483  12.323  13.496
52731W        W12267   6.880  33.004   0.900
52732W        W12268  40.852  32.018  13.455
52733W        W12269  16.275  39.892  11.455
52734W        W12270  18.102   1.817   2.398
52735W        W12271  21.635  24.668   1.314
52736W        W12272   3.453  13.622   0.794
52737W        W12273  13.788  23.649   0.357
52738W        W12274   8.305   2.253   1.428
52739W        W12275  30.532   0.296  14.408
52740W        W12276  28.064   3.376   1.913
52741W        W12277  16.180  20.557   4.765
52742W        W12278  23.537  23.601   2.879
52743W        W12279  14.618  22.719  11.096
52744W        W12280  43.376  26.129   0.424
52745W        W12281  21.115  22.687   4.250
52746W        W12282  42.290   0.929   2.252
52747W        W12283  41.401  24.166  12.543
52748W        W12284  15.812  34.601  11.572
52749W        W12285  39.056  19.715   4.198
52750W        W12286   9.383  26.021   1.382
52751W        W12287   6.732  11.186   1.281
52752W        W12288  35.454  21.656   2.409
52753W        W12289  34.574  23.058  10.412
52754W        W12290  44.332   3.324   3.174
52755W        W12291   7.789  17.065   2.266
52756W        W12292  38.014  15.788   0.409
52757W        W12293  31.628  24.505  10.046
52758W        W12294  25.160   1.246  13.469
52759W        W12295  44.366  31.059   5.213
52760W        W12296  35.868   2.321  12.989
52761W        W12297  13.671  17.184   4.656
52762W        W12298  18.124  32.446   3.726
52763W        W12299   0.949  37.453   0.829
52764W        W12300  33.553  34.397  10.616
52765W        W12301   0.940  38.978   3.188
52766W        W12302   5.723  12.124   4.728
52767W        W12303  27.563  14.097   3.801
52768W        W12304  35.054  18.561  10.441
52769W        W12305  41.837  40.364   3.722
52770W        W12306   8.666   2.339  12.839
52771W        W12307  39.321  36.858   0.966
52772W        W12308  28.518   2.914  13.054
52773W        W12309  37.509  38.825   2.771
52774W        W12310   7.881  38.552  13.497
52775W        W12311  23.992   8.658   5.098
52776W        W12312  15.100  42.881   0.354
52777W        W12313  13.117  10.753  12.916
52778W        W12314  30.645  16.074  11.866
52779W        W12315  22.117  11.240  11.123
52780W        W12316  18.765   7.769   1.728
52781W        W12317   6.350  38.334  12.920
52782W        W12318   6.892  30.517  14.883
52783W        W12319   3.936  22.185  12.993
52784W        W12320   0.789  29.142  12.998
52785W        W12321  32.502  17.593  12.836
52786W        W12322  34.382  14.642  11.969
52787W        W12323  21.038  40.386  11.506
52788W        W12324  32.521   6.895  12.094
52789W        W12325  40.014  32.509   1.268
52790W        W12326  19.549  18.235  10.902
52791W        W12327  13.732  19.244   4.617
52792W        W12328   4.259  10.341   3.301
52793W        W12329   6.876  31.998   3.189
52794W        W12330  12.165  37.391  14.914
52795W        W12331  40.355  30.008  14.476
52796W        W12332  25.518  41.801  14.294
52797W        W12333  40.487  31.571   3.313
52798W        W12334  10.831  19.272   1.744
52799W        W12335   2.813  24.562  13.423
52800W        W12336  19.259  21.737   1.269
52801W        W12337  11.247  22.106  11.606
52802W        W12338  35.560   2.731   0.467
52803W        W12339  12.270  37.569   3.354
52804W        W12340  17.660  19.190  10.022
52805W        W12341  25.593  21.108  12.990
52806W        W12342  28.138   3.758  14.784
52807W        W12343  38.996  16.122  14.514
52808W        W12344  21.528  37.894   3.219
52809W        W12345  39.491   1.431   3.747
52810W        W12346  36.373  35.027  13.513
52811W        W12347  15.785  35.441  11.908
52812W        W12348  13.653  36.984  13.976
52813W        W12349  23.554  11.284   0.478
52814W        W12350  26.194  26.490  11.090
52815W        W12351   1.441  33.387   4.705
52816W        W12352   9.714   6.366  12.531
52817W        W12353  11.200  13.832   2.727
52818W        W12354  39.362  13.283   3.314
52819W        W12355  22.711  41.915   0.276
52820W        W12356  29.960   7.363  11.855
52821W        W12357  20.528   4.728  11.077
52822W        W12358  32.600  28.999  14.986
52823W        W12359   2.299  17.698  14.877
52824W        W12360  13.697  31.960   4.272
52825W        W12361  29.428  14.671  11.065
52826W        W12362  42.825  42.031  11.416
52827W        W12363  11.299  36.569  13.012
52828W        W12364  38.493  18.266   2.895
52829W        W12365   0.277  31.933  13.502
52830W        W12366  20.263  35.067   1.775
52831W        W12367  22.074  26.599  10.641
52832W        W12368  27.994   9.834  10.623
52833W        W12369  21.175  10.355   4.191
52834W        W12370  31.012  11.356   1.353
52835W        W12371  13.612  29.135  13.964
52836W        W12372  20.664  25.963  11.115
52837W        W12373  42.822   2.446  12.032
52838W        W12374   1.459  20.069  14.340
52839W        W12375  39.026  32.031  13.894
52840W        W12376  21.107  37.991  13.404
52841W        W12377  43.972  17.074   1.380
52842W        W12378  42.408  15.660  11.522
52843W        W12379  34.097  42.778   4.329
52844W        W12380   5.928  26.190  13.998
52845W        W12381  39.882  36.911  11.061
52846W        W12382   0.417  10.287   0.953
52847W        W12383  41.976   8.331   3.218
52848W        W12384  43.444  17.671  12.036
52849W        W12385  38.425   0.326   5.676
52850W        W12386   5.715  13.729  13.924
52851W        W12387  39.999  16.754   0.394
52852W        W12388  29.653  30.148   2.197
52853W        W12389  15.109  11.840  12.520
52854W        W12390   7.265  23.583   0.334
52855W        W12391  26.084  44.273   1.385
52856W        W12392  29.932  34.374  14.937
52857W        W12393  25.105   6.378  14.289
52858W        W12394  10.151  40.015  11.990
52859W        W12395   1.772  35.962   0.967
52860W        W12396  24.572  33.442  10.582
52861W        W12397  26.002  22.151   2.839
52862W        W12398  21.238  10.189  11.518
52863W        W12399  37.499  37.364   3.282
52864W        W12400   2.852  22.192   2.242
52865W        W12401   0.859  41.861   1.222
52866W        W12402  31.946   7.840  10.623
52867W        W12403   2.941  28.525  13.820
52868W        W12404   2.313  28.165  10.924
52869W        W12405  17.148   5.707  10.975
52870W        W12406  22.563  35.363  12.865
52871W        W12407   2.323  11.245   4.621
52872W        W12408  37.920  15.267   1.430
52873W        W12409   6.810   1.294  11.900
52874W        W12410  41.317  12.309   1.384
52875W        W12411  23.605  25.205   1.302
52876W        W12412  43.352  30.066   1.827
52877W        W12413   1.352  34.867  13.950
52878W        W12414  41.849  27.668   4.355
52879W        W12415  24.977  34.059   0.922
52880W        W12416   9.223   7.896  12.983
52881W        W12417  44.783   6.416   9.943
52882W        W12418  36.076  21.536   4.804
52883W        W12419  35.020  25.610  11.436
52884W        W12420  40.549  13.286  14.391
52885W        W12421  24.647  20.042  11.989
52886W        W12422  18.656  38.433   0.400
52887W        W12423  29.651  44.835   1.820
52888W        W12424  26.560  39.834  10.079
52889W        W12425  20.147  31.627   2.808
52890W        W12426  42.835  34.874  14.867
52891W        W12427   3.216  38.340   2.727
52892W        W12428   7.720  19.080  11.073
52893W        W12429  35.068  28.638   1.319
52894W        W12430  43.894  34.585  11.918
52895W        W12431  19.683  16.085  10.505
52896W        W12432   9.787   2.925   1.248
52897W        W12433  39.421  15.200   0.352
52898W        W12434  29.633   5.346  10.571
52899W        W12435   4.750  39.406  12.042
52900W        W12436  35.108  13.623   4.670
52901W        W12437  40.374  13.187   1.827
52902W        W12438  33.392  39.918   4.163
52903W        W12439  31.550  10.305   3.361
52904W        W12440  10.281  43.271   4.732
52905W        W12441  34.004  36.028   1.381
52906W        W12442  19.684   4.324   4.285
52907W        W12443  37.965  10.724   1.412
52908W        W12444  19.040  13.631   2.400
52909W        W12445   7.280  40.479   4.337
52910W        W12446   1.399   3.778  13.022
52911W        W12447  23.062   7.241  11.892
52912W        W12448  32.935  15.582  12.972
52913W        W12449  30.966  21.525   4.184
52914W        W12450  44.409   1.764  13.799
52915W        W12451  32.467  25.639   1.278
52916W        W12452   5.886   8.705   4.653
52917W        W12453  29.036  14.327   1.832
52918W        W12454   8.723  30.516  10.531
52919W        W12455  33.094  20.740  14.920
52920W        W12456  34.551  44.315  11.004
52921W        W12457  11.212   2.774  11.931
52922W        W12458  33.932  44.944  12.041
52923W        W12459  20.621   6.677  11.400
52924W        W12460  39.326  34.436   4.312
52925W        W12461  17.097  20.762  13.477
52926W        W12462  40.365   0.339   3.369
52927W        W12463  23.083   4.317  12.908
52928W        W12464  21.522  32.128   4.735
52929W        W12465  32.403  43.333   2.715
52930W        W12466  41.833   4.410  10.603
52931W        W12467  17.208  32.576  11.891
52932W        W12468  15.158  44.406   1.427
52933W        W12469  27.657   0.494  12.345
52934W        W12470  44.331  19.756   0.893
52935W        W12471  10.204  41.522   0.394
52936W        W12472   8.172  16.181   4.630
52937W        W12473  20.526  26.989   2.312
52938W        W12474   4.411   5.281   3.701
52939W        W12475  27.575  15.682  11.855
52940W        W12476  23.068  11.816   3.631
52941W        W12477  10.263  18.780  12.463
52942W        W12478  29.117  29.637  13.490
52943W        W12479  19.257   7.382  11.466
52944W        W12480  28.640  29.543  14.967
52945W        W12481  12.734  21.138   0.253
52946W        W12482  13.834  34.511   0.258
52947W        W12483  19.672  32.021   1.908
52948W        W12484  16.240  44.979   3.221
52949W        W12485  17.244  32.629   1.780
52950W        W12486  28.560  30.520   3.837
52951W        W12487  27.087  13.628   2.192
52952W        W12488  38.023  40.395  11.377
52953W        W12489   2.248  20.165   0.928
52954W        W12490  33.435  12.238   4.132
52955W        W12491   0.819  17.729   0.423
52956W        W12492  44.934  34.107  13.807
52957W        W12493   2.300  43.965   4.689
52958W        W12494  12.313  36.920   2.738
52959W        W12495   4.255  20.729   1.787
52960W        W12496  26.563  41.911   0.446
52961W        W12497  26.681  35.099   2.748
52962W        W12498  39.961   6.367   0.469
52963W        W12499  15.820  32.472  11.067
52964W        W12500  30.107  40.929   3.790
52965W        W12501   2.783  25.542   0.275
52966W        W12502  36.950  31.966  14.452
52967W        W12503  29.124   9.741   2.419
52968W        W12504   3.352  13.746   4.331
52969W        W12505  11.268  39.482  11.457
52970W        W12506  21.518  34.950   9.960
52971W        W12507  43.380  14.702  13.812
52972W        W12508   9.691  42.526  11.081
52973W        W12509  29.015  43.904  14.358
52974W        W12510  34.985  24.526   0.449
52975W        W12511  30.164  44.486  10.503
52976W        W12512  39.013  41.347  13.953
52977W        W12513  24.587  27.056   0.352
52978W        W12514   5.261  25.007  12.909
52979W        W12515   0.334  14.131   2.776
52980W        W12516  38.041  18.588  12.859
52981W        W12517  41.914  16.107   2.791
52982W        W12518   2.863  13.624  11.926
52983W        W12519  19.634  15.671   0.451
52984W        W12520  41.305  38.390  10.459
52985W        W12521   8.713  39.319   4.819
52986W        W12522  25.533  23.555  10.495
52987W        W12523  21.132   5.735   5.596
52988W        W12524  44.895  29.507   4.715
52989W        W12525  10.673  17.238   0.246
52990W        W12526  32.608  21.738  14.327
52991W        W12527  43.415  10.838  12.524
52992W        W12528  26.191  41.802   3.282
52993W        W12529  32.619  10.152  10.411
52994W        W12530  11.861  34.892  14.773
52995W        W12531  24.639  38.450   1.400
52996W        W12532  44.759   7.709  13.889
52997W        W12533  35.104   7.184  11.105
52998W        W12534   6.730  27.128   1.707
52999W        W12535  29.990  30.531   4.637
53000W        W12536   9.708  41.906  12.440
53001W        W12537  38.348  17.637   2.691
53002W        W12538  44.768  16.164   4.290
53003W        W12539  16.670  35.399   4.808
53004W        W12540  41.931   3.836  10.501
53005W        W12541  33.069  18.110   3.241
53006W        W12542  23.616  35.855   1.917
53007W        W12543  34.056   8.276   0.478
53008W        W12544  22.740  23.031  11.390
53009W        W12545  17.196  17.230  13.344
53010W        W12546  16.169  39.556   3.754
53011W        W12547  31.069  39.358   2.872
53012W        W12548  20.106  22.161  14.846
53013W        W12549  31.585  29.009  14.424
53014W        W12550  10.374  44.855  11.523
53015W        W12551  12.132  40.923   0.378
53016W        W12552  33.894  36.348  10.584
53017W        W12553  34.081   6.276   2.386
53018W        W12554  28.611  29.080   2.183
53019W        W12555   0.324  37.448   2.692
53020W        W12556  17.189  39.843   1.231
53021W        W12557  25.702   2.328  14.280
53022W        W12558  37.399  42.973  11.902
53023W        W12559  17.306  13.208   4.661
53024W        W12560  40.438  19.664   5.298
53025W        W12561  13.627  30.460  14.275
53026W        W12562  17.177  13.115  14.854
53027W        W12563  30.978  39.514   1.928
53028W        W12564  41.970  37.549  10.635
53029W        W12565  25.145  23.512  11.387
53030W        W12566  19.054  13.653   1.869
53031W        W12567   1.375  29.146   3.334
53032W        W12568  16.085  24.090   2.835
53033W        W12569  19.770  29.941  13.478
53034W        W12570  37.033  12.231  11.929
53035W        W12571  43.845   2.789  10.526
53036W        W12572  19.075  39.413   0.334
53037W        W12573   2.772  14.809  12.380
53038W        W12574   5.288  17.675   3.822
53039W        W12575  15.150   8.713   4.208
53040W        W12576   0.912  43.293  12.342
53041W        W12577  39.358  34.558  10.432
53042W        W12578   5.843  19.114  12.381
53043W        W12579  17.625  23.732   3.338
53044W        W12580  15.117  29.424  12.975
53045W        W12581  26.032  40.358  12.065
53046W        W12582  41.836   7.312   0.284
53047W        W12583  28.134  36.496   2.738
53048W        W12584  19.052  24.068   3.191
53049W        W12585  22.115  23.075  14.363
53050W        W12586  27.499  32.401   0.910
53051W        W12587   1.908  38.936  14.320
53052W        W12588   9.229  19.086   0.479
53053W        W12589   1.267   8.874  12.933
53054W        W12590  20.536  13.677  12.426
53055W        W12591  28.166  22.046  10.538
53056W        W12592  23.613   1.798  11.865
53057W        W12593  16.114  15.089   0.812
53058W        W12594  22.502  42.878   1.759
53059W        W12595  32.439  40.432   4.779
53060W        W12596  33.594  37.372   4.312
53061W        W12597  43.425  13.748   2.773
53062W        W12598  38.382  27.554   1.447
53063W        W12599  35.042   4.323   0.245
53064W        W12600  20.134   5.401   0.830
53065W        W12601  43.803  13.152  13.059
53066W        W12602   6.312  26.573  10.043
53067W        W12603  43.396  30.956  12.083
53068W        W12604   2.954   6.377  10.471
53069W        W12605  21.678  16.762  11.961
53070W        W12606  37.490  37.350  12.021
53071W        W12607  21.619  19.253  10.902
53072W        W12608  28.678  23.712  13.914
53073W        W12609  31.913   6.362  11.954
53074W        W12610  34.903  38.564  12.890
53075W        W12611   2.457   8.232   1.777
53076W        W12612  22.716  32.925  14.920
53077W        W12613  32.630   1.925   0.746
53078W        W12614  34.937  23.095  12.552
53079W        W12615  21.714  11.747  10.482
53080W        W12616  19.689  18.079  14.293
53081W        W12617  17.574  29.978  13.308
53082W        W12618  38.876  36.456   3.296
53083W        W12619   8.865  25.082   1.443
53084W        W12620  28.659  31.977  14.276
53085W        W12621  21.641   0.307   1.700
53086W        W12622  40.912  15.225   2.821
53087W        W12623  27.107  28.585  12.924
53088W        W12624  17.608  41.040   1.819
53089W        W12625  31.980   6.217   4.600
53090W        W12626  16.787  22.192  11.014
53091W        W12627   9.797  21.563  11.417
53092W        W12628   6.787  32.539  12.881
53093W        W12629  42.328  22.191   4.210
53094W        W12630  38.560   3.927   0.822
53095W        W12631  39.934   1.262   2.299
53096W        W12632  28.626  31.530   3.189
53097W        W12633  28.977  22.223   0.863
53098W        W12634  22.539   2.365  14.938
53099W        W12635   3.227   1.879  10.023
53100W        W12636  14.767  31.104   3.829
53101W        W12637  37.491  31.636  11.120
53102W        W12638  37.337  19.676   2.829
53103W        W12639   2.286  15.251   0.342
53104W        W12640   5.281  22.178  12.955
53105W        W12641  44.426  39.029   2.230
53106W        W12642  16.567  38.827  10.487
53107W        W12643  43.494  30.144  10.924
53108W        W12644  34.989   3.356   2.333
53109W        W12645  27.566  35.050   2.755
53110W        W12646  44.465  42.417   1.282
53111W        W12647  18.213   8.660  14.918
53112W        W12648  22.736   9.200   3.841
53113W        W12649  24.117  34.954  11.514
53114W        W12650  44.809  37.847   3.834
53115W        W12651  35.360   7.693   0.924
53116W        W12652  25.504   7.308   2.801
53117W        W12653  15.673  16.146   2.373
53118W        W12654  31.097  29.049   1.706
53119W        W12655   9.661   1.310   0.384
53120W        W12656  34.966  41.863  13.024
53121W        W12657  16.288  26.189   1.848
53122W        W12658   6.187  20.149  13.918
53123W        W12659  37.505  14.171  13.895
53124W        W12660   0.402  28.069   2.841
53125W        W12661   0.271  13.204   3.225
53126W        W12662  39.521   7.706  10.994
53127W        W12663  18.239  16.620  10.160
53128W        W12664  32.428   1.809  11.537
53129W        W12665  33.483   7.287   4.197
53130W        W12666  21.602  35.967   3.196
53131W        W12667  21.701  32.575  13.892
53132W        W12668  27.172  14.100   5.228
53133W        W12669  43.470  43.291   0.867
53134W        W12670  14.166  28.147   0.742
53135W        W12671  39.496   8.675   0.857
53136W        W12672  10.725  17.619   3.328
53137W        W12673  23.114  10.794   2.410
53138W        W12674  28.176  13.609   4.597
53139W        W12675  30.044  22.603   3.376
53140W        W12676   2.471  21.151   3.218
53141W        W12677  40.844  31.972   0.864
53142W        W12678  14.809   9.780   4.709
53143W        W12679  44.285   7.195   4.733
53144W        W12680  17.581  18.107   0.345
53145W        W12681  31.130  25.601   1.412
53146W        W12682  29.090  39.891   1.906
53147W        W12683  26.612   0.371   3.648
53148W        W12684   5.348   4.903  14.405
53149W        W12685  42.391  10.721   0.961
53150W        W12686  30.952  10.176   0.269
53151W        W12687  27.191  25.549  14.388
53152W        W12688  34.555  32.603  14.825
53153W        W12689   7.275  26.547  12.369
53154W        W12690  15.243  33.460   1.425
53155W        W12691  42.999  39.525   2.364
53156W        W12692  39.392  37.922   1.311
53157W        W12693  12.762   2.919  11.548
53158W        W12694  23.553  37.035  14.863
53159W        W12695  38.339  10.736   3.805
53160W        W12696  24.994  44.388  12.373
53161W        W12697  36.932  24.134   1.708
53162W        W12698  40.304   1.944  14.326
53163W        W12699  15.666  25.548   3.294
53164W        W12700  30.433   2.295  14.434
53165W        W12701  10.675  21.151   1.392
53166W        W12702  27.632   2.386  11.932
53167W        W12703  31.926  23.674   0.449
53168W        W12704  13.735  32.579  14.317
53169W        W12705  40.388  41.451  10.577
53170W        W12706  22.720  22.219  13.035
53171W        W12707  25.026   2.326   3.162
53172W        W12708  43.002  40.444  14.302
53173W        W12709   2.367   5.828   4.266
53174W        W12710  39.431  30.527   3.715
53175W        W12711  32.568  17.212   4.123
53176W        W12712   6.373  27.651  10.481
53177W        W12713  19.749  14.656  13.453
53178W        W12714   9.373  30.944   5.104
53179W        W12715   3.264  15.761  10.969
53180W        W12716  21.520  23.183   3.649
53181W        W12717  30.034   9.686   0.812
53182W        W12718  31.534  15.224   2.752
53183W        W12719   6.835  43.779  12.983
53184W        W12720  11.743   5.246   0.291
53185W        W12721  36.893  12.815  10.483
53186W        W12722   2.275   8.713   0.409
53187W        W12723  34.450  11.786   2.336
53188W        W12724  25.980  34.615   1.921
53189W        W12725  20.183  26.615   0.373
53190W        W12726   4.398  13.748  14.279
53191W        W12727  11.370  35.542   1.814
53192W        W12728  35.384  37.849   3.159
53193W        W12729  22.104  13.833  14.959
53194W        W12730  29.127  12.301   3.384
53195W        W12731  36.928  25.061   3.676
53196W        W12732  11.696  36.900  12.933
53197W        W12733  25.649  27.468   3.802
53198W        W12734  38.382  34.440   2.382
53199W        W12735  12.706  13.229   3.336
53200W        W12736  20.691  34.020  10.522
53201W        W12737  43.275   2.728  13.320
53202W        W12738   5.921  18.551   2.846
53203W        W12739  14.102   8.700  12.839
53204W        W12740  12.849  37.882   4.247
53205W        W12741   5.339  10.287   2.859
53206W        W12742  20.581   9.200   1.212
53207W        W12743   3.874   8.880   3.831
53208W        W12744  35.416  14.819  13.947
53209W        W12745   8.389  30.014   3.690
53210W        W12746  27.995  39.978  11.897
53211W        W12747  33.548  37.496   1.934
53212W        W12748  36.868  23.076  12.951
53213W        W12749  18.177  18.613  12.903
53214W        W12750   6.680  20.712   1.236
53215W        W12751   8.161  29.079  13.929
53216W        W12752  16.573  30.104   0.313
53217W        W12753  27.153  33.880  13.038
53218W        W12754  14.747  42.929   3.307
53219W        W12755  29.656   5.436   0.823
53220W        W12756  16.274  16.729  10.954
53221W        W12757  31.647  28.534   3.727
53222W        W12758  27.145   8.781   4.669
53223W        W12759   5.235  21.666   4.618
53224W        W12760  35.563  38.410   1.862
53225W        W12761   8.341  22.663   4.743
53226W        W12762   2.227  29.162  13.471
53227W        W12763  16.669  17.787   2.697
53228W        W12764  17.688  23.017  13.514
53229W        W12765  42.796   5.432  10.914
53230W        W12766  18.658  17.792  13.434
53231W        W12767  22.638  22.604  11.526
53232W        W12768  24.207   4.225  11.948
53233W        W12769  14.673  24.215   1.371
53234W        W12770  30.551  33.581  12.966
53235W        W12771  16.748  31.634   4.718
53236W        W12772  18.661  12.720   3.177
53237W        W12773   8.840  44.895   2.318
53238W        W12774  14.317  36.463   3.779
53239W        W12775  39.856  41.308  10.953
53240W        W12776   9.377  29.547   2.259
53241W        W12777  25.982   6.296  14.292
53242W        W12778  18.638  27.613   1.231
53243W        W12779  34.600  23.085   1.842
53244W        W12780  25.034  17.632   1.808
53245W        W12781  40.009  35.988  13.910
53246W        W12782  18.773   1.250  14.760
53247W        W12783  32.504  36.548  14.833
53248W        W12784  10.354  33.019  10.132
53249W        W12785  19.699  44.992   2.707
53250W        W12786  34.404  43.010   4.183
53251W        W12787  34.119   0.311   0.251
53252W        W12788  16.740  44.922  13.365
53253W        W12789  35.420   4.829   0.964
53254W        W12790  38.033  35.568  14.946
53255W        W12791   4.361   4.393   3.261
53256W        W12792  38.910   9.887  10.411
53257W        W12793  26.531  44.289  10.450
53258W        W12794  42.520   5.280  11.402
53259W        W12795  11.719  24.721  12.353
53260W        W12796   8.223  40.842  10.514
53261W        W12797  23.138  35.866  10.413
53262W        W12798  17.676   3.721   3.766
53263W        W12799  16.125   0.877  11.073
53264W        W12800  40.533  10.763   4.778
53265W        W12801   0.437  36.038   1.880
53266W        W12802  41.006  37.558   1.344
53267W        W12803  21.191  19.243  13.962
53268W        W12804  17.068  25.137   1.378
53269W        W12805  15.738  27.095   2.201
53270W        W12806  26.495  26.517  13.059
53271W        W12807  12.338  30.653  13.514
53272W        W12808  33.094  22.605   0.888
53273W        W12809  38.326  39.552   1.412
53274W        W12810  12.286  28.591   2.369
53275W        W12811  33.984   1.354  13.851
53276W        W12812  22.168  41.835   4.668
53277W        W12813  24.094  40.981  11.925
53278W        W12814  41.981  11.304   2.771
53279W        W12815  14.272  43.781  12.468
53280W        W12816  28.959  42.402  14.915
53281W        W12817  22.520  17.693  14.367
53282W        W12818   2.877  23.987   0.827
53283W        W12819   3.825  28.001  14.364
53284W        W12820  22.040  15.163   2.713
53285W        W12821  15.243  12.189  12.019
53286W        W12822   0.818   7.708   4.714
53287W        W12823  44.933  35.358   1.774
53288W        W12824  11.185  41.899  13.896
53289W        W12825  14.330  10.853   3.836
53290W        W12826  13.774   1.775   2.876
53291W        W12827  33.443  19.223   1.245
53292W        W12828  13.702  19.213  13.311
53293W        W12829   2.908  43.885   2.396
53294W        W12830  32.899  22.732   3.309
53295W        W12831   2.766  30.099  12.456
53296W        W12832  19.100  18.212   3.744
53297W        W12833   7.883  21.180  10.454
53298W        W12834   4.703   4.368  13.854
53299W        W12835  13.318  43.516  10.414
53300W        W12836   0.295  34.369   1.907
53301W        W12837  15.763  22.566   2.192
53302W        W12838   2.412  15.327   4.698
53303W        W12839  19.042  16.296  14.937
53304W        W12840  32.950   8.730   5.241
53305W        W12841  21.213  20.612  10.635
53306W        W12842  42.493  31.410  10.534
53307W        W12843  27.969  15.702   5.257
53308W        W12844   6.279  39.856  11.995
53309W        W12845   9.711  28.035   2.405
53310W        W12846  23.572  40.933  12.424
53311W        W12847   5.811  40.508   1.214
53312W        W12848   1.348  19.555  13.375
53313W        W12849  15.699  29.617   3.358
53314W        W12850   6.769  39.321  11.390
53315W        W12851  34.055  30.554   0.793
53316W        W12852  38.869  23.563  14.452
53317W        W12853  40.833  33.383   3.673
53318W        W12854   9.273  43.380   4.306
53319W        W12855  35.878   5.761  11.559
53320W        W12856  23.095  26.178   0.758
53321W        W12857  19.182  37.876  10.464
53322W        W12858  13.753  12.854   2.210
53323W        W12859  20.132  12.630   2.839
53324W        W12860  28.659   6.225   2.295
53325W        W12861  36.540  33.081   0.404
53326W        W12862  14.213  39.828   2.875
53327W        W12863  24.692  21.106  11.877
53328W        W12864   0.984  25.016  14.793
53329W        W12865  25.571  21.129  11.435
53330W        W12866  35.098  37.460   2.266
53331W        W12867  37.408   5.906  10.055
53332W        W12868  26.043  35.599   4.830
53333W        W12869   0.835  35.422   1.741
53334W        W12870  31.939  43.287   2.405
53335W        W12871  26.098  36.013   3.808
53336W        W12872   5.303   8.821  13.526
53337W        W12873   5.364  20.081   1.285
53338W        W12874  29.655  22.057   1.414
53339W        W12875   6.324  12.180   2.239
53340W        W12876  29.045  15.646  10.455
53341W        W12877  35.929   1.281  10.950
53342W        W12878  17.073   2.822  11.869
53343W        W12879  14.633  33.889  14.336
53344W        W12880  34.001  37.577  13.940
53345W        W12881  36.921  10.770   3.815
53346W        W12882   3.288  24.126   3.838
53347W        W12883  25.180  39.489  13.866
53348W        W12884  24.564  23.635   1.827
53349W        W12885  15.594  40.449   4.764
53350W        W12886  13.329  21.089   0.306
53351W        W12887  30.004   8.838  12.481
53352W        W12888  32.983  21.139   2.346
53353W        W12889  37.470  12.778  11.596
53354W        W12890   8.310  43.927  13.547
53355W        W12891  30.036  11.710  12.558
53356W        W12892  24.545  39.440  11.475
53357W        W12893   2.752   0.309   2.231
53358W        W12894  16.679  17.193   5.109
53359W        W12895  25.504  13.349  12.433
53360W        W12896  35.092  12.683   1.314
53361W        W12897  44.429  42.356  14.895
53362W        W12898  38.530   4.257  11.452
53363W        W12899  35.991  33.482   4.682
53364W        W12900  42.793  11.288  13.506
53365W        W12901  22.597  25.175   4.812
53366W        W12902  23.607   2.858   2.184
53367W        W12903  18.229  34.570  13.965
53368W        W12904  39.398  18.201  11.427
53369W        W12905  35.527  37.402   2.403
53370W        W12906   9.198  19.575  11.988
53371W        W12907  23.735  11.171   3.834
53372W        W12908  21.606   3.956  11.875
53373W        W12909  18.750  29.480   2.858
53374W        W12910  10.635  13.228   3.373
53375W        W12911   1.797  14.776  13.514
53376W        W12912  29.106  37.950   2.284
53377W        W12913   4.718  14.682  13.350
53378W        W12914  21.662  42.518  11.934
53379W        W12915  32.129  40.979   4.276
53380W        W12916  31.086  37.557   1.282
53381W        W12917  22.064  10.840   2.715
53382W        W12918  43.979  40.465  12.843
53383W        W12919  37.524  18.185   1.715
53384W        W12920   2.318  16.590  12.853
53385W        W12921   9.256  10.373  13.401
53386W        W12922  25.115   1.828  14.799
53387W        W12923  44.833  20.728  14.449
53388W        W12924  37.495   4.798  14.452
53389W        W12925   3.444   9.705  12.464
53390W        W12926  17.137  36.449  10.983
53391W        W12927  13.164  44.442  13.064
53392W        W12928  28.940  27.983   4.679
53393W        W12929  13.189  32.610   2.211
53394W        W12930  35.076  25.701   1.381
53395W        W12931  21.249  43.275  11.883
53396W        W12932  43.940  31.135  14.992
53397W        W12933  30.996  15.091  13.501
53398W        W12934  13.140   3.282  10.580
53399W        W12935  14.768  21.202  12.968
53400W        W12936  34.041  15.775   3.745
53401W        W12937  20.665  22.012  11.989
53402W        W12938  30.979  44.802  12.426
53403W        W12939   3.383  30.126   4.791
53404W        W12940  22.013  36.048   3.340
53405W        W12941  18.601  17.706  12.367
53406W        W12942  16.157  37.044   4.822
53407W        W12943  14.140  12.355  14.386
53408W        W12944  28.019   1.761   3.149
53409W        W12945  12.258  13.771   4.619
53410W        W12946  42.956  35.358  13.997
53411W        W12947   2.434  44.931   2.732
53412W        W12948  16.607  28.033   4.749
53413W        W12949   1.907  43.967  14.769
53414W        W12950  30.061   0.263  10.457
53415W        W12951  43.828  18.615   0.318
53416W        W12952  30.642   2.828  11.082
53417W        W12953   0.456  40.872   0.815
53418W        W12954  39.991   1.941   4.285
53419W        W12955  18.747  19.700  11.964
53420W        W12956   7.179   2.806   3.314
53421W        W12957   9.316  26.147   4.775
53422W        W12958  17.064  41.431   3.752
53423W        W12959  27.181  25.132   3.216
53424W        W12960  14.195   1.275   1.703
53425W        W12961  25.205   6.255   1.725
53426W        W12962  41.039  27.685   4.341
53427W        W12963  29.023  43.909   4.272
53428W        W12964  13.708   3.358  13.959
53429W        W12965  42.399  27.682   1.426
53430W        W12966  29.990  32.529  13.002
53431W        W12967  23.645  30.497   1.211
53432W        W12968  36.065  20.052   2.203
53433W        W12969  37.079  27.455   2.754
53434W        W12970  43.889  41.522   4.806
53435W        W12971  35.513   0.351  13.039
53436W        W12972  37.502   7.197  13.047
53437W        W12973  11.139  40.469  11.861
53438W        W12974   1.948  32.131   4.733
53439W        W12975  37.492  42.009  13.032
53440W        W12976  30.632  42.889  13.436
53441W        W12977   2.399  29.514  13.995
53442W        W12978   9.186  32.512   4.603
53443W        W12979  10.817  41.854   2.407
53444W        W12980  30.471  19.600  12.461
53445W        W12981   6.699  12.831  13.861
53446W        W12982  18.230  12.789  12.854
53447W        W12983  31.029  13.745   3.696
53448W        W12984  14.809  41.477  10.049
53449W        W12985  21.063  35.929  12.488
53450W        W12986  11.693  12.121   1.789
53451W        W12987   1.439  24.984  14.964
53452W        W12988  42.863  22.598   5.186
53453W        W12989  43.389  29.141   4.819
53454W        W12990  18.051   1.878  11.934
53455W        W12991  25.667  41.841  14.010
53456W        W12992  44.985  30.423   1.726
53457W        W12993  41.459  33.541   4.329
53458W        W12994  19.160  31.464  11.973
53459W        W12995  40.000   0.790   2.305
53460W        W12996  21.222   0.958   4.826
53461W        W12997   8.734  34.507  13.832
53462W        W12998  37.024  31.529   1.863
53463W        W12999  44.984  27.096  12.485
53464W        W13000   5.881  16.081  13.997
53465W        W13001  35.522  34.921  13.044
53466W        W13002  10.795  32.963  11.889
53467W        W13003   0.747  27.980  13.992
53468W        W13004   5.388  43.779  13.374
53469W        W13005   2.454  12.787  13.347
53470W        W13006  26.582  11.289   3.376
53471W        W13007  11.689  35.361   0.928
53472W        W13008   9.393  15.299   4.673
53473W        W13009   1.890  20.234   1.324
53474W        W13010   3.923  27.559  11.106
53475W        W13011  42.859   3.784  14.801
53476W        W13012  35.030  10.716  11.985
53477W        W13013   4.855  22.648   2.340
53478W        W13014   3.794  17.186  11.870
53479W        W13015  43.906  16.750   3.271
53480W        W13016  44.305  32.564  14.442
53481W        W13017  24.004  24.200  10.478
53482W        W13018   7.277  32.938   3.740
53483W        W13019   7.289   3.859   2.787
53484W        W13020  14.261   1.325   3.755
53485W        W13021  32.911   9.388   4.628
53486W        W13022   1.859   9.376   0.430
53487W        W13023  26.673  33.020  11.983
53488W        W13024   3.771  17.116  14.310
53489W        W13025   3.865  31.454  14.972
53490W        W13026  41.298  33.479  10.966
53491W        W13027  35.952  12.276  14.916
53492W        W13028  27.997  12.751   2.362
53493W        W13029  10.162  22.094   4.273
53494W        W13030  17.151  25.012   3.191
53495W        W13031   4.397  24.143  14.032
53496W        W13032   5.259  25.485  13.042
53497W        W13033  17.301  26.641   5.110
53498W        W13034  25.998  39.890  13.917
53499W        W13035  32.522  28.667  14.410
53500W        W13036   8.795  31.009   5.263
53501W        W13037  19.186  15.177   3.869
53502W        W13038   0.324  25.482  11.970
53503W        W13039  43.334   6.212  13.534
53504W        W13040  40.367   7.888  12.847
53505W        W13041  35.997  19.217   3.169
53506W        W13042  17.565  34.543  14.990
53507W        W13043  15.742  43.367   1.761
53508W        W13044   0.940  31.979  13.415
53509W        W13045  31.016   8.832  13.040
53510W        W13046  25.625  44.887  10.947
53511W        W13047   5.842   6.736  14.879
53512W        W13048  26.142  14.764   4.350
53513W        W13049   6.900  42.427  11.384
53514W        W13050  39.427  26.595  13.390
53515W        W13051  34.051  14.309  11.884
53516W        W13052  15.614   8.260   4.319
53517W        W13053  34.989   0.308   1.390
53518W        W13054  17.711  25.073   2.402
53519W        W13055  17.788  16.782   0.270
53520W        W13056  40.924  19.572  14.984
53521W        W13057  35.519  33.580   3.236
53522W        W13058   0.970  30.472   2.200
53523W        W13059  37.024  17.168  10.406
53524W        W13060  13.152   8.797  10.418
53525W        W13061   3.262  31.010  12.375
53526W        W13062  42.785  14.186   2.345
53527W        W13063  33.540  14.101  11.419
53528W        W13064   4.839  39.429  10.946
53529W        W13065   6.916  43.885   1.412
53530W        W13066  31.547  17.233  11.936
53531W        W13067  43.887  39.368  13.030
53532W        W13068  22.057  24.537  12.521
53533W        W13069   2.467  36.448  14.900
53534W        W13070  13.611  24.992  10.556
53535W        W13071  33.506  26.535  14.324
53536W        W13072  23.569   5.397  12.041
53537W        W13073   0.875  25.180  13.471
53538W        W13074   9.732  27.557   0.271
53539W        W13075  32.060  43.942   3.659
53540W        W13076  34.073  16.603   0.409
53541W        W13077  18.631  27.529  14.960
53542W        W13078  37.931  20.734  11.447
53543W        W13079  36.984  10.226  14.968
53544W        W13080  37.434  14.198  11.601
53545W        W13081   4.789  34.547  13.407
53546W        W13082   1.769  42.802  12.975
53547W        W13083  30.518   4.287   2.765
53548W        W13084  13.770  17.252   3.372
53549W        W13085  38.419  15.662  12.903
53550W        W13086  31.593   0.317   2.742
53551W        W13087  19.716  27.524  13.429
53552W        W13088  10.259  32.602  14.002
53553W        W13089  18.550  15.192   4.113
53554W        W13090  17.572  10.739   0.286
53555W        W13091   9.719  11.321  14.482
53556W        W13092  32.604   2.902   3.824
53557W        W13093   6.912  12.728   1.333
53558W        W13094  22.720  14.712   4.220
53559W        W13095  40.892   9.192  13.023
53560W        W13096   6.717  15.234   3.353
53561W        W13097  31.424  37.387  11.983
53562W        W13098  29.668   5.834  11.392
53563W        W13099  17.701  36.959   4.639
53564W        W13100  36.986   6.217   4.652
53565W        W13101   1.397  11.262   0.317
53566W        W13102  37.486  31.044  14.963
53567W        W13103   9.873  34.602   1.888
53568W        W13104  34.466  26.559   1.324
53569W        W13105  43.304  26.111  10.543
53570W        W13106  44.761  35.455  13.361
53571W        W13107  44.464  11.234  12.532
53572W        W13108   2.920  35.566  11.491
53573W        W13109  10.346  29.525   1.843
53574W        W13110  30.489  36.931  10.591
53575W        W13111  19.201  43.929  13.429
53576W        W13112   8.276   1.260   4.837
53577W        W13113  37.362  33.611   5.136
53578W        W13114  34.488  17.215   4.640
53579W        W13115  25.696  27.562  12.983
53580W        W13116   7.385  37.086  13.365
53581W        W13117  43.317  20.592   0.351
53582W        W13118  11.246  43.890   3.244
53583W        W13119   4.722  41.901   4.328
53584W        W13120  34.091  44.416   0.852
53585W        W13121  26.099  20.156   4.347
53586W        W13122  37.525   3.868   4.622
53587W        W13123   2.299   7.704  13.964
53588W        W13124  37.060  44.290   0.473
53589W        W13125  13.707  35.005  14.939
53590W        W13126  33.930   5.884   0.414
53591W        W13127  43.769  42.919  11.586
53592W        W13128   5.931  18.608   2.249
53593W        W13129  22.133  42.405   1.382
53594W        W13130  43.345   2.435  13.911
53595W        W13131  16.682  11.206  13.870
53596W        W13132   9.816  33.529  10.890
53597W        W13133  14.760  37.410   0.272
53598W        W13134  12.725   9.828   5.218
53599W        W13135  17.305  42.004   3.164
53600W        W13136  40.973  17.147   0.744
53601W        W13137  20.211   4.207   2.254
53602W        W13138  44.962  25.048  11.496
53603W        W13139   7.729  10.339  12.490
53604W        W13140  13.768  11.827   1.341
53605W        W13141   0.278  30.452  11.526
53606W        W13142  20.680   3.816  13.874
53607W        W13143  44.330  27.070  11.566
53608W        W13144  37.833  13.115   4.754
53609W        W13145   3.344  35.912  14.991
53610W        W13146  44.845  29.003  12.856
53611W        W13147  32.510  41.851  14.849
53612W        W13148  38.859  12.617   3.850
53613W        W13149  40.391  22.645   1.447
53614W        W13150   5.886  37.482   0.391
53615W        W13151  34.480  15.098   4.796
53616W        W13152  28.954   0.840   2.254
53617W        W13153  16.155  42.524   0.284
53618W        W13154  29.546  28.970  12.398
53619W        W13155  42.526   3.862   0.728
53620W        W13156  44.868   6.419   1.895
53621W        W13157  20.207  39.548   1.797
53622W        W13158  41.355  35.533  11.394
53623W        W13159   6.751  25.048  14.789
53624W        W13160  42.336  23.512  11.377
53625W        W13161  20.567   9.377  12.406
53626W        W13162  32.077  15.589  12.523
53627W        W13163  12.157  32.401   3.796
53628W        W13164  13.306  37.021  11.880
53629W        W13165  11.828  32.420  11.969
53630W        W13166  26.996  42.349   4.346
53631W        W13167   6.777  34.985   2.708
53632W        W13168   4.717  28.028   3.324
53633W        W13169  28.654  16.188  11.579
53634W        W13170   9.387   8.332   0.410
53635W        W13171  41.792  29.599  11.552
53636W        W13172  26.954  38.950   0.343
53637W        W13173   9.210  43.357  11.063
53638W        W13174  30.070  29.094   2.256
53639W        W13175   0.251  31.591   1.388
53640W        W13176   3.856  43.976  10.892
53641W        W13177  26.189  38.967  11.383
53642W        W13178  10.802  35.944   0.889
53643W        W13179  10.759  10.696  12.577
53644W        W13180  17.173  38.068   1.715
53645W        W13181   2.856  43.018  10.600
53646W        W13182  34.932  40.903   4.779
53647W        W13183   0.979  25.100   3.175
53648W        W13184  44.287   1.939  13.464
53649W        W13185  26.114  28.958  10.423
53650W        W13186  28.533  13.640   1.221
53651W        W13187   6.757  24.037  12.573
53652W        W13188  40.538  23.114  14.302
53653W        W13189  14.134  30.143  12.577
53654W        W13190   6.301  15.179  14.936
53655W        W13191  39.002   4.764  13.353
53656W        W13192  22.719  35.941  13.902
53657W        W13193  42.856  29.078  12.952
53658W        W13194  42.308  40.418  14.320
53659W        W13195  28.588   9.162   3.288
53660W        W13196  39.859  27.464   1.242
53661W        W13197  20.543  44.402  10.945
53662W        W13198  14.142  29.525   1.361
53663W        W13199  24.221  43.284   1.827
53664W        W13200  35.913  41.968  13.490
53665W        W13201  16.194  27.670   3.731
53666W        W13202   1.753  18.656  13.935
53667W        W13203   4.828   9.315  13.370
53668W        W13204  18.297  27.118  13.392
53669W        W13205  40.957  29.145  14.016
53670W        W13206  27.607  25.491  12.486
53671W        W13207  24.024  31.405   0.405
53672W        W13208  27.138  33.584  10.098
53673W        W13209  19.075   2.957   1.809
53674W        W13210  44.287   5.917   1.339
53675W        W13211  31.122  36.865   2.181
53676W        W13212  15.745  18.227   2.884
53677W        W13213  19.265  19.183  13.455
53678W        W13214  33.416  16.605   1.811
53679W        W13215  13.715   3.247   4.183
53680W        W13216  13.227  24.532   4.286
53681W        W13217  18.625  27.172  12.414
53682W        W13218  20.556   4.355  13.400
53683W        W13219  21.227   9.268  14.880
53684W        W13220  34.404  14.157  12.912
53685W        W13221  25.669  10.139  10.612
53686W        W13222  31.411  25.988   2.714
53687W        W13223  24.678   7.880  10.905
53688W        W13224  27.164  10.141   1.898
53689W        W13225  17.703  36.578   4.736
53690W        W13226  39.320  32.629  14.964
53691W        W13227   6.346  10.664   4.325
53692W        W13228   9.361  32.137   2.889
53693W        W13229  26.565  44.969  13.352
53694W        W13230  30.605  20.250   1.325
53695W        W13231  24.051   9.785  14.804
53696W        W13232  31.972  38.413  11.893
53697W        W13233  44.421  37.512   3.362
53698W        W13234   8.203   5.311  14.872
53699W        W13235  12.286  15.132   2.856
53700W        W13236  43.439  12.741   1.698
53701W        W13237  32.407  27.965  11.922
53702W        W13238  22.090  24.079  11.477
53703W        W13239  17.137  17.613  11.566
53704W        W13240  41.530   7.307  13.995
53705W        W13241   2.742  34.416  10.630
53706W        W13242  27.531  36.375   3.175
53707W        W13243  14.804  36.404   4.687
53708W        W13244  41.363  44.335   4.735
53709W        W13245   5.930  20.691   1.775
53710W        W13246  42.948  15.206  14.336
53711W        W13247  33.462  33.954  14.313
53712W        W13248  36.464  33.538  13.382
53713W        W13249   1.957  27.580  10.898
53714W        W13250  34.495  33.039   4.272
53715W        W13251  41.940  35.552  12.916
53716W        W13252  22.732  41.885  12.565
53717W        W13253  21.105  40.851   3.771
53718W        W13254   0.771  39.864   2.843
53719W        W13255  37.436  42.775  13.342
53720W        W13256  18.691  14.339  13.526
53721W        W13257  23.207  38.989  14.456
53722W        W13258  25.547  35.451   3.294
53723W        W13259  12.120   4.428   2.219
53724W        W13260   1.325  34.425   1.272
53725W        W13261   7.326   9.849  10.587
53726W        W13262  30.605  15.692  12.380
53727W        W13263   7.870  15.782  11.571
53728W        W13264  17.770  33.468  14.889
53729W        W13265  35.407  42.813   3.199
53730W        W13266   2.251   8.405   4.600
53731W        W13267  14.186  31.058   0.293
53732W        W13268  38.356  29.618   1.923
53733W        W13269  40.357  18.697   3.162
53734W        W13270   4.734   5.824   0.456
53735W        W13271  21.100   4.394   0.966
53736W        W13272   1.951   4.894  14.888
53737W        W13273  38.461  35.912   3.656
53738W        W13274   8.311  18.216   3.277
53739W        W13275  28.115  24.115  14.339
53740W        W13276  19.587  39.979  11.123
53741W        W13277  27.119   4.916  14.854
53742W        W13278  11.722  17.597   1.917
53743W        W13279  13.289  23.134  14.004
53744W        W13280  17.205  15.665  12.408
53745W        W13281   1.791   9.757   0.362
53746W        W13282  17.084  40.982   2.365
53747W        W13283  24.084  23.113  11.435
53748W        W13284   8.838  42.518  14.512
53749W        W13285  37.406  35.076   3.339
53750W        W13286  41.004  23.669  14.970
53751W        W13287  42.829  26.978   4.290
53752W        W13288  38.560  11.166  11.476
53753W        W13289  19.218   3.798   2.335
53754W        W13290  23.225  43.397  12.969
53755W        W13291  43.489  25.531  14.306
53756W        W13292   4.860  44.010  14.502
53757W        W13293  18.288  30.537  14.784
53758W        W13294   6.237  40.817   4.180
53759W        W13295  40.480  26.979  12.975
53760W        W13296  28.999   3.251  12.392
53761W        W13297  43.009   7.822  14.376
53762W        W13298  19.043  29.155   1.340
53763W        W13299  31.015   1.244   4.173
53764W        W13300   2.423  21.599   0.295
53765W        W13301   5.702   8.831  11.612
53766W        W13302  21.658  29.623  11.468
53767W        W13303  30.475   6.313   4.827
53768W        W13304   2.910   3.331   0.789
53769W        W13305  33.987  27.624   2.841
53770W        W13306  26.088  42.012  11.373
53771W        W13307   0.318  16.269   2.711
53772W        W13308  44.999  14.277   3.731
53773W        W13309  22.602  30.917   1.422
53774W        W13310  14.628  32.390   2.877
53775W        W13311  16.252  11.316  12.439
53776W        W13312  40.992  38.353  13.970
53777W        W13313   3.782  34.383   2.263
53778W        W13314  18.559  37.840  11.112
53779W        W13315   8.810  31.416  14.311
53780W        W13316   6.400  40.526   1.883
53781W        W13317  29.431  11.295  11.959
53782W        W13318   0.918  31.427   4.694
53783W        W13319  20.705  30.051   4.747
53784W        W13320  10.228  42.386  13.509
53785W        W13321  37.551  40.484  13.889
53786W        W13322  31.491  41.897   0.739
53787W        W13323  39.313  24.504   1.800
53788W        W13324   6.725   5.921  11.028
53789W        W13325  18.206  15.251  12.835
53790W        W13326  11.310  44.878   0.425
53791W        W13327   7.171  14.194   4.834
53792W        W13328   9.653  29.441  10.947
53793W        W13329  32.085  16.637   2.666
53794W        W13330  28.136  35.987  13.860
53795W        W13331  13.138  17.069  12.461
53796W        W13332   1.789  42.840   0.340
53797W        W13333   4.927  35.419  11.593
53798W        W13334  38.549  40.404   1.895
53799W        W13335   1.274  30.141   9.507
53800W        W13336  31.000  12.693  11.072
53801W        W13337  31.983  25.049  14.353
53802W        W13338  31.577  42.864   1.376
53803W        W13339  42.493  26.519  12.573
53804W        W13340  29.454  35.479  14.875
53805W        W13341   1.395  14.670   1.236
53806W        W13342  42.438  34.610  12.558
53807W        W13343  31.130  38.056   0.481
53808W        W13344   1.340  31.152   2.281
53809W        W13345   2.397  15.088  12.847
53810W        W13346  41.331  25.007   2.187
53811W        W13347  21.672   3.363  14.480
53812W        W13348   2.346  17.580   4.142
53813W        W13349  40.029   6.408   4.224
53814W        W13350  27.511  14.626   2.888
53815W        W13351  38.859  17.801   4.348
53816W        W13352   3.392  32.948   4.611
53817W        W13353  43.937  41.466   2.206
53818W        W13354  36.096  12.735   0.398
53819W        W13355   5.241  26.633  14.899
53820W        W13356   7.180  28.034  14.900
53821W        W13357  17.151  14.675   3.792
53822W        W13358   4.744  32.610  13.008
53823W        W13359   6.838  22.669   3.745
53824W        W13360  33.947   3.355   2.298
53825W        W13361  24.182  42.795  10.611
53826W        W13362  23.506  41.003  14.964
53827W        W13363   3.328   4.244  12.391
53828W        W13364  30.439  19.746  14.477
53829W        W13365   5.341  34.915  10.515
53830W        W13366   7.870   6.390  12.447
53831W        W13367  18.714  44.420   2.208
53832W        W13368  19.759  11.655  10.927
53833W        W13369  38.440  13.182   0.445
53834W        W13370  38.050  33.592   2.269
53835W        W13371  35.973  39.993   1.862
53836W        W13372   4.307  33.896   1.380
53837W        W13373   0.791  32.392  14.498
53838W        W13374  18.059   3.461  14.495
53839W        W13375  10.778  25.573   1.248
53840W        W13376  15.148  11.224   0.359
53841W        W13377   4.934  35.572   3.684
53842W        W13378  32.991  35.562  10.551
53843W        W13379  28.473  18.181  11.396
53844W        W13380  23.041  39.492  14.511
53845W        W13381  38.544   1.740  10.058
53846W        W13382  22.063  36.889   3.352
53847W        W13383  13.711  24.986   1.925
53848W        W13384   6.839  39.929  11.392
53849W        W13385  10.219  20.090  12.848
53850W        W13386   3.318  13.328   2.414
53851W        W13387  35.047  38.849  13.874
53852W        W13388  11.264  36.915   0.828
53853W        W13389   5.402  37.512  10.567
53854W        W13390  22.130   1.356  12.524
53855W        W13391  14.813  26.608  10.095
53856W        W13392  36.477  44.270  11.039
53857W        W13393   2.841  18.711  12.938
53858W        W13394  14.260  11.702   2.706
53859W        W13395   1.790  32.972   1.776
53860W        W13396  36.445  15.681   0.294
53861W        W13397  33.408  26.993  12.831
53862W        W13398  37.853  43.997   0.936
53863W        W13399  28.042  16.785   4.616
53864W        W13400   9.777   8.744   3.181
53865W        W13401  38.023  23.651   0.937
53866W        W13402  15.140  38.515  14.978
53867W        W13403  28.599  41.997  10.570
53868W        W13404  44.861  16.298  14.348
53869W        W13405  26.202  34.383  13.954
53870W        W13406  29.100  32.944  13.812
53871W        W13407  36.430  15.323  11.407
53872W        W13408   4.205   9.739  13.023
53873W        W13409  10.669  44.386  12.509
53874W        W13410   4.407   3.831   3.635
53875W        W13411  34.072  21.257   4.242
53876W        W13412  18.191  11.771  12.380
53877W        W13413  38.370   3.417  10.908
53878W        W13414  31.915   4.764   5.222
53879W        W13415  21.543  16.651  10.575
53880W        W13416  20.057   7.764  10.005
53881W        W13417  20.644  17.073  14.020
53882W        W13418  20.726  28.966   4.603
53883W        W13419   4.739  22.154  10.929
53884W        W13420  41.934  35.907  14.913
53885W        W13421  17.795   3.459  14.979
53886W        W13422  44.002  39.831  10.482
53887W        W13423   6.292  14.175   2.846
53888W        W13424  27.496  11.665  12.894
53889W        W13425  33.446  23.169   0.765
53890W        W13426  15.161  13.836   3.327
53891W        W13427  12.121  20.030  14.830
53892W        W13428  43.015  23.560  13.977
53893W        W13429  40.331  34.882  12.864
53894W        W13430  25.220   8.370   1.286
53895W        W13431  21.215  37.991   4.195
53896W        W13432  20.696  16.813  14.283
53897W        W13433  32.056  28.964   2.755
53898W        W13434   5.921  22.710  14.929
53899W        W13435  22.089  25.611   0.461
53900W        W13436  18.557  28.520  13.027
53901W        W13437   6.274  26.512  10.449
53902W        W13438   1.971  44.392  13.432
53903W        W13439   7.199  15.133   1.696
53904W        W13440  40.936  32.940   0.958
53905W        W13441  31.424   1.466  13.975
53906W        W13442   6.404  23.617  11.561
53907W        W13443  23.063  32.973  14.008
53908W        W13444  35.417  13.739   1.375
53909W        W13445  38.520   6.195   2.839
53910W        W13446   1.299  14.094   0.373
53911W        W13447  13.319  37.926  13.478
53912W        W13448  17.160   7.387  14.908
53913W        W13449  10.159  14.239  10.954
53914W        W13450   8.315  25.217  14.806
53915W        W13451  26.609  23.694   3.782
53916W        W13452   0.907  17.574  13.523
53917W        W13453   9.156  21.571  14.414
53918W        W13454  36.973  14.173   2.287
53919W        W13455  40.479  12.663   0.262
53920W        W13456  31.907  17.271   1.299
53921W        W13457  16.218  10.146  11.075
53922W        W13458  38.481  39.359  13.037
53923W        W13459  34.988  32.434  12.904
53924W        W13460  36.514  19.777  11.497
53925W        W13461  30.608  41.853   2.213
53926W        W13462  33.411  31.040   1.419
53927W        W13463  15.577  21.531  14.823
53928W        W13464   3.926  26.142   5.105
53929W        W13465   7.226  11.172   3.315
53930W        W13466   9.393  36.401  11.599
53931W        W13467  30.440  20.765   4.156
53932W        W13468   9.388  41.501  14.807
53933W        W13469  31.637  22.171   3.316
53934W        W13470  35.538  17.228   3.732
53935W        W13471   7.316   6.380  11.417
53936W        W13472  15.085  28.471  14.506
53937W        W13473  27.458  18.088  11.934
53938W        W13474  18.627  17.188  11.888
53939W        W13475   3.885  31.590   1.373
53940W        W13476  28.086   7.858  10.600
53941W        W13477  34.058  30.148  13.026
53942W        W13478   0.915  12.687  12.422
53943W        W13479  33.562   8.690   5.271
53944W        W13480  26.083   2.301  10.903
53945W        W13481  22.248  41.856   0.902
53946W        W13482  20.729  31.958   3.733
53947W        W13483  26.104  41.935  12.563
53948W        W13484   3.413  41.308   0.806
53949W        W13485  12.674   3.405   5.158
53950W        W13486  22.138  43.772  14.904
53951W        W13487  29.126   5.245  11.430
53952W        W13488   7.332  16.293   1.244
53953W        W13489  23.199   2.353   1.210
53954W        W13490  24.103   2.824  12.977
53955W        W13491   9.212  14.620  13.982
53956W        W13492  37.036  12.835  13.894
53957W        W13493  26.508  42.025   2.214
53958W        W13494  37.048  27.167  11.521
53959W        W13495   5.722  37.560  12.050
53960W        W13496  22.116  17.687  11.880
53961W        W13497  26.646  28.984  11.591
53962W        W13498  38.973  17.213  11.865
53963W        W13499  19.745  22.565   1.762
53964W        W13500  41.317  20.721   1.291
53965W        W13501   3.735  17.601  11.394
53966W        W13502  21.092  34.507   2.807
53967W        W13503  12.792  22.646  13.933
53968W        W13504  11.151  14.248   1.217
53969W        W13505  31.588  30.420  12.073
53970W        W13506  35.104   6.241  14.780
53971W        W13507  20.608  31.037   2.741
53972W        W13508   1.355  36.872  11.388
53973W        W13509  34.504  34.008   1.927
53974W        W13510  21.593  26.208   0.766
53975W        W13511   6.232   4.407  13.058
53976W        W13512   7.417  24.551   1.290
53977W        W13513  16.766  30.419  11.994
53978W        W13514   8.807  35.962  12.069
53979W        W13515   7.690  39.015  13.338
53980W        W13516   3.805   3.895  14.887
53981W        W13517  23.103  18.262  14.765
53982W        W13518  26.091   2.802  10.461
53983W        W13519  44.320   2.400   3.831
53984W        W13520  33.882  32.394  11.859
53985W        W13521  26.636   4.262   1.229
53986W        W13522  41.994  10.269   1.797
53987W        W13523   8.297  16.140  11.467
53988W        W13524   8.307   4.450  14.000
53989W        W13525  29.506  43.843   2.758
53990W        W13526  43.870  26.985   4.183
53991W        W13527  15.809   1.921   2.367
53992W        W13528  22.546   3.822   2.757
53993W        W13529  21.673  23.158  13.961
53994W        W13530  25.216  27.575   1.919
53995W        W13531  27.076  26.058  13.002
53996W        W13532  17.210  23.535   1.866
53997W        W13533  28.600   4.872  14.963
53998W        W13534   5.199  31.025  12.524
53999W        W13535   6.236  24.098   2.323
54000W        W13536  32.968  18.083   1.758
54001W        W13537  23.563  11.640   2.871
54002W        W13538  24.679  28.574  11.603
54003W        W13539  12.802  29.006   1.893
54004W        W13540   3.780  11.854  11.047
54005W        W13541  24.103   5.398  12.946
54006W        W13542  30.646  24.519   3.787
54007W        W13543  27.483  10.281  10.562
54008W        W13544   0.989  31.919  10.435
54009W        W13545  42.022  25.195  11.610
54010W        W13546   6.775  21.234  11.500
54011W        W13547   8.735   2.274   3.800
54012W        W13548  24.199  14.117  10.148
54013W        W13549  11.232  30.462  14.415
54014W        W13550  29.028  15.616   0.392
54015W        W13551  37.426  28.120   0.748
54016W        W13552  21.225  27.003   0.834
54017W        W13553  18.622  35.030   3.643
54018W        W13554  39.923  23.631  12.487
54019W        W13555  31.104  37.525  14.428
54020W        W13556  40.895   4.871   1.784
54021W        W13557   3.354  32.063  12.407
54022W        W13558  17.104  17.090   3.753
54023W        W13559  31.949  13.164   3.204
54024W        W13560  31.567  38.526  13.353
54025W        W13561  10.260  11.324   0.756
54026W        W13562   6.908  17.774  13.889
54027W        W13563  37.037  16.116  14.452
54028W        W13564  13.679  38.842  13.501
54029W        W13565  18.785   3.393  12.425
54030W        W13566  18.243   6.832   1.246
54031W        W13567   5.802  12.738  12.580
54032W        W13568   8.676  25.600  12.061
54033W        W13569  42.449  28.142  12.404
54034W        W13570  13.647  13.308  13.510
54035W        W13571  26.491  36.942   1.373
54036W        W13572   3.349  34.373   0.340
54037W        W13573  39.901  40.928  10.972
54038W        W13574  14.330   2.833  10.561
54039W        W13575  32.487   8.214  14.439
54040W        W13576  39.402  31.128  11.514
54041W        W13577  41.396  30.659  11.550
54042W        W13578  29.072  36.004   3.837
54043W        W13579   0.281  31.548  11.876
54044W        W13580  39.423  19.077   2.857
54045W        W13581  34.440   1.892   2.257
54046W        W13582  39.385   5.700   1.893
54047W        W13583  41.811  16.626   2.257
54048W        W13584  23.175  37.362   1.808
54049W        W13585  40.525  14.762   3.691
54050W        W13586   2.783  44.297  13.354
54051W        W13587   8.750  22.630  12.487
54052W        W13588  27.015  37.884  13.886
54053W        W13589   4.888  41.854  14.304
54054W        W13590  23.072  34.005   0.833
54055W        W13591  42.881  43.514   4.686
54056W        W13592  39.428  25.094   0.774
54057W        W13593  12.216   0.382  10.940
54058W        W13594  32.032  16.679  12.901
54059W        W13595  35.422  32.457   0.305
54060W        W13596   1.967   6.888   3.269
54061W        W13597  20.713  19.743  13.840
54062W        W13598   4.359   7.178   2.203
54063W        W13599  41.451   0.974   4.220
54064W        W13600  26.190   1.283   2.296
54065W        W13601   6.912  40.355  13.438
54066W        W13602  17.142  16.295   1.921
54067W        W13603  13.645  35.020  10.483
54068W        W13604   6.287  26.182   9.615
54069W        W13605   5.890   4.379   1.902
54070W        W13606  22.006  29.957  13.930
54071W        W13607  36.521  19.682  13.809
54072W        W13608  23.634  17.688   0.448
54073W        W13609  14.809  16.757   4.612
54074W        W13610  15.253   3.249   2.879
54075W        W13611  38.953   5.355   3.723
54076W        W13612  23.523  28.557  13.807
54077W        W13613  33.079   9.238  12.956
54078W        W13614  14.192  18.076   3.275
54079W        W13615  24.574  40.413   0.408
54080W        W13616  35.084   8.255  12.448
54081W        W13617  26.027  40.822  14.832
54082W        W13618   7.851  44.946  12.476
54083W        W13619  30.081  34.872   3.224
54084W        W13620  34.051  36.025  12.479
54085W        W13621  12.307   1.381  11.933
54086W        W13622  41.373  13.773   0.339
54087W        W13623  39.909  21.624   4.607
54088W        W13624  27.135  20.029   1.278
54089W        W13625  25.002  18.613  14.908
54090W        W13626  20.143   1.960   3.807
54091W        W13627   6.217  33.484  13.851
54092W        W13628  23.164   8.315   3.657
54093W        W13629  32.424  16.311  13.977
54094W        W13630  23.508  31.408  14.003
54095W        W13631  28.164  39.921  14.956
54096W        W13632   3.450  30.579  13.528
54097W        W13633  21.613   8.165  11.859
54098W        W13634  18.082  21.225  13.478
54099W        W13635  36.584   9.685  11.446
54100W        W13636  30.604  34.497  10.608
54101W        W13637  38.399  42.437   0.953
54102W        W13638  28.138  33.564  11.396
54103W        W13639  19.595  30.008  14.809
54104W        W13640  16.105   6.271   1.306
54105W        W13641  44.292  44.776   3.182
54106W        W13642  29.054  14.803  11.493
54107W        W13643  14.659  13.806   3.236
54108W        W13644   3.850  32.508  14.487
54109W        W13645  31.486   8.353  12.009
54110W        W13646  28.489  24.989  11.092
54111W        W13647   6.772  29.124   2.243
54112W        W13648   4.736   6.723   1.828
54113W        W13649  12.618  24.707   3.853
54114W        W13650  31.136  14.241   4.254
54115W        W13651  43.494  44.905  14.813
54116W        W13652  35.855  38.002   2.709
54117W        W13653   9.270  10.866  13.829
54118W        W13654  31.539  14.728   4.306
54119W        W13655  13.165   2.433  10.501
54120W        W13656  28.164  28.180  11.553
54121W        W13657  29.483  13.796   2.708
54122W        W13658  31.646  41.339  14.016
54123W        W13659  21.624  27.523  13.054
54124W        W13660  30.060  40.971   3.234
54125W        W13661   1.350  16.717  14.914
54126W        W13662  13.229   4.398   3.636
54127W        W13663  16.573  41.832   1.436
54128W        W13664   9.345  31.600  11.592
54129W        W13665   2.917  11.804  11.474
54130W        W13666  35.516  13.323   3.367
54131W        W13667   4.330  16.575   0.923
54132W        W13668  38.976   0.965   9.530
54133W        W13669  22.013   2.424   2.866
54134W        W13670  10.147  40.867  13.445
54135W        W13671  41.825  32.097  11.033
54136W        W13672  40.391  37.398   0.395
54137W        W13673  12.343   5.715  11.049
54138W        W13674  42.282  41.791   0.798
54139W        W13675  17.696  32.076   0.908
54140W        W13676   8.741  30.152  12.016
54141W        W13677  33.990  16.246   4.717
54142W        W13678  15.751   1.392  13.834
54143W        W13679  33.103  43.976   0.410
54144W        W13680  39.386   4.739  11.563
54145W        W13681   8.394  37.911   4.309
54146W        W13682  34.982  15.774  11.960
54147W        W13683  43.850  27.999  12.360
54148W        W13684  38.969   2.908  12.417
54149W        W13685  27.983  11.729   2.334
54150W        W13686  33.572  21.036   1.246
54151W        W13687  10.320  12.148   2.287
54152W        W13688   8.370  43.330  10.556
54153W        W13689  40.009  38.881  10.945
54154W        W13690   6.410  18.176  14.865
54155W        W13691   3.444  11.790  11.454
54156W        W13692  21.021   6.814  12.083
54157W        W13693  24.114  19.076  13.024
54158W        W13694  43.820  19.246   3.351
54159W        W13695  44.270   1.926  10.445
54160W        W13696   5.754  29.006  12.017
54161W        W13697  44.288  40.544   0.257
54162W        W13698  14.810  39.534   4.834
54163W        W13699  28.061  41.956  14.789
54164W        W13700  18.553  10.688  14.397
54165W        W13701   8.725  27.152   2.801
54166W        W13702  21.021  19.564  13.978
54167W        W13703  36.913  33.380  14.805
54168W        W13704  42.908   0.338   2.274
54169W        W13705  15.201  33.917   4.256
54170W        W13706  43.834  34.000  14.425
54171W        W13707  19.667   6.839  10.929
54172W        W13708  33.056  40.804  12.919
54173W        W13709  43.464  34.424  14.428
54174W        W13710  33.431  21.643   4.310
54175W        W13711  14.198  40.017  12.983
54176W        W13712   6.730  43.418  14.806
54177W        W13713  30.467  30.051  11.993
54178W        W13714  33.936  22.230  12.966
54179W        W13715   8.328  38.525   3.236
54180W        W13716  42.455  34.550   1.694
54181W        W13717  12.340  35.102  13.043
54182W        W13718   0.318  34.088  13.016
54183W        W13719  41.889  33.414   0.762
54184W        W13720  24.611  13.652   4.803
54185W        W13721   4.826  17.270   3.165
54186W        W13722  34.529  21.115   2.834
54187W        W13723  39.430  37.541   2.349
54188W        W13724  30.510  19.144  11.611
54189W        W13725  36.443   5.281   0.371
54190W        W13726  29.977  26.540   3.668
54191W        W13727   0.311  35.518  13.049
54192W        W13728  20.662  23.506  11.927
54193W        W13729   5.217  13.215   0.966
54194W        W13730  36.569  43.407  14.376
54195W        W13731  40.364  40.446  13.480
54196W        W13732  13.600  21.572   1.753
54197W        W13733  16.752  27.121  11.481
54198W        W13734  20.129   9.710   2.664
54199W        W13735  24.095  24.218   1.713
54200W        W13736  33.511  21.622   4.640
54201W        W13737  12.159  37.988  14.970
54202W        W13738  19.118  24.611   4.747
54203W        W13739  35.062  34.564   0.871
54204W        W13740  12.649  37.463   2.803
54205W        W13741  36.589  44.501   2.222
54206W        W13742  39.922  15.222   1.774
54207W        W13743  37.029  35.087   4.258
54208W        W13744  18.297   8.763  11.432
54209W        W13745   4.261  36.030   1.396
54210W        W13746  34.456  36.871  13.322
54211W        W13747  36.396  15.613  10.059
54212W        W13748  15.690  43.780  11.591
54213W        W13749  16.672  36.884   2.802
54214W        W13750   0.370  23.162   0.908
54215W        W13751  41.353  16.268   0.916
54216W        W13752  28.952  18.189   2.201
54217W        W13753  16.262  18.663   4.637
54218W        W13754  41.301  38.375   3.765
54219W        W13755  34.074  11.174  10.893
54220W        W13756  17.600  31.441   1.255
54221W        W13757  37.410  26.594   4.123
54222W        W13758  34.928  32.481   2.388
54223W        W13759  39.468  42.985  11.086
54224W        W13760   6.270   0.370  10.436
54225W        W13761  35.976  24.674  14.998
54226W        W13762  16.707  33.027  10.993
54227W        W13763  12.764  39.535   4.758
54228W        W13764  33.503  14.299  13.533
54229W        W13765  14.748  10.783   4.679
54230W        W13766   7.717  32.400   1.361
54231W        W13767  40.940  32.504   4.291
54232W        W13768  22.144  11.259   2.735
54233W        W13769  15.577  38.356   4.121
54234W        W13770  17.304  20.187   1.774
54235W        W13771  33.888  24.622  12.525
54236W        W13772  12.698   5.793  13.827
54237W        W13773  24.980  25.964   4.268
54238W        W13774  24.578  34.886  12.465
54239W        W13775  28.143   4.939  14.488
54240W        W13776  25.213  16.242   2.819
54241W        W13777  40.329  15.608   4.688
54242W        W13778   3.333  41.409   2.746
54243W        W13779  43.831  38.883   1.280
54244W        W13780  14.642  16.235   3.245
54245W        W13781  43.306  18.237  11.064
54246W        W13782  19.556   6.336   1.416
54247W        W13783   9.756  24.593   1.791
54248W        W13784  33.954  34.110   0.354
54249W        W13785  33.625  37.965   4.126
54250W        W13786  28.133  26.027  12.837
54251W        W13787   9.680  35.601   1.704
54252W        W13788  42.458  38.476   2.401
54253W        W13789   4.422  30.999   1.798
54254W        W13790   6.697  20.657   0.250
54255W        W13791   2.292  34.955   1.406
54256W        W13792   0.487  22.084  13.463
54257W        W13793  35.013  17.562  12.980
54258W        W13794  35.369  34.942   1.801
54259W        W13795  31.948   2.238  10.503
54260W        W13796  34.609  15.200  13.987
54261W        W13797   5.743   8.180  11.431
54262W        W13798   7.858   1.824  14.862
54263W        W13799  40.842   3.943   2.188
54264W        W13800  14.610  29.056  12.389
54265W        W13801  43.501   4.432   3.750
54266W        W13802  35.889  28.134  12.038
54267W        W13803  27.952  21.753  11.109
54268W        W13804   9.838   7.746  13.050
54269W        W13805  42.427  43.320   1.344
54270W        W13806  35.862  16.171  14.006
54271W        W13807  33.030   0.789  13.002
54272W        W13808  27.490  13.133   1.343
54273W        W13809  10.377  38.974  12.546
54274W        W13810  29.660  41.944  12.829
54275W        W13811  13.149  15.306   4.351
54276W        W13812  43.932  31.910  14.376
54277W        W13813  25.101  29.029   4.682
54278W        W13814   6.198  36.899  11.062
54279W        W13815   4.320   5.434   0.473
54280W        W13816   3.258  44.865   3.870
54281W        W13817  33.591  23.156  14.303
54282W        W13818  13.129  36.906  14.764
54283W        W13819   4.352   0.441   3.252
54284W        W13820  33.123  23.726  11.481
54285W        W13821  26.111  19.205   2.785
54286W        W13822  42.432  33.604   0.317
54287W        W13823  17.569   8.760   0.304
54288W        W13824   9.228  37.040  13.321
54289W        W13825  42.024  36.939   3.378
54290W        W13826   1.756  43.369  10.955
54291W        W13827  19.140   0.394  10.528
54292W        W13828  44.271  32.463  14.861
54293W        W13829  30.481  36.052   0.373
54294W        W13830   0.368  16.140   1.766
54295W        W13831   5.208   1.930   1.904
54296W        W13832   0.808  32.082   2.315
54297W        W13833   0.463  19.585   4.307
54298W        W13834   9.728  27.165  12.538
54299W        W13835  35.932  39.015  10.049
54300W        W13836  32.482  19.254   4.290
54301W        W13837   7.230  29.460   1.319
54302W        W13838  43.326   9.658   0.828
54303W        W13839  35.498  21.108   0.880
54304W        W13840  33.626  12.332   1.866
54305W        W13841  41.483  43.482   1.901
54306W        W13842  21.115  27.505  12.529
54307W        W13843  20.029   3.351   4.244
54308W        W13844   5.319  32.517  10.895
54309W        W13845  44.481  38.330   1.699
54310W        W13846  12.759  34.580  11.431
54311W        W13847  11.655  42.400  11.555
54312W        W13848  40.853  30.159   1.226
54313W        W13849  42.896  31.607  11.008
54314W        W13850  42.486  21.162   4.224
54315W        W13851   2.414   4.207   2.378
54316W        W13852  19.051   5.905   4.293
54317W        W13853  40.523  18.568   2.749
54318W        W13854  13.107  41.963   4.812
54319W        W13855  28.000  31.047  11.945
54320W        W13856  23.615  24.493   0.898
54321W        W13857  44.278  30.133   1.771
54322W        W13858  16.786  31.104  14.289
54323W        W13859  10.842  32.069  13.950
54324W        W13860  26.537  35.048  10.026
54325W        W13861  17.137   0.847  13.510
54326W        W13862  39.464  30.101  12.477
54327W        W13863  16.111  20.722   2.229
54328W        W13864  28.949  36.515  12.998
54329W        W13865  16.612   7.885   2.299
54330W        W13866   6.803   8.386   1.278
54331W        W13867  37.081  20.090   0.839
54332W        W13868  42.500   2.425   1.248
54333W        W13869  35.582  29.154  10.443
54334W        W13870  21.693  31.929   1.818
54335W        W13871  29.513  28.971   0.484
54336W        W13872   1.822  23.566   3.794
54337W        W13873  35.949  35.864   1.353
54338W        W13874  22.682  34.038   2.718
54339W        W13875  36.378  31.592  14.889
54340W        W13876  32.956  34.423   0.270
54341W        W13877  26.965  13.280   3.755
54342W        W13878  10.701  22.599  12.954
54343W        W13879  14.163   7.712  10.425
54344W        W13880  35.996  29.131  12.944
54345W        W13881  12.704  26.601  11.513
54346W        W13882   5.426   5.828   4.307
54347W        W13883  35.522  36.509   0.826
54348W        W13884  25.095  22.706  13.869
54349W        W13885   1.814  40.312  10.924
54350W        W13886  41.809  26.572  12.341
54351W        W13887  23.217  29.059   1.400
54352W        W13888   9.174  39.948   2.874
54353W        W13889  37.014  23.075  10.497
54354W        W13890   1.873   3.402   1.898
54355W        W13891  18.287  14.787   4.795
54356W        W13892  27.975  27.616  11.929
54357W        W13893   4.887   3.410   0.481
54358W        W13894  33.048   5.374  13.361
54359W        W13895   0.779  18.733  14.465
54360W        W13896   1.974  35.943  14.449
54361W        W13897  17.138  10.674  12.576
54362W        W13898  12.646  27.102   3.311
54363W        W13899  15.194   6.829   0.257
54364W        W13900  39.893  41.937   0.343
54365W        W13901  17.087  22.115  12.900
54366W        W13902  22.017  42.390  13.341
54367W        W13903  35.450  30.612  12.921
54368W        W13904  36.388   4.400  12.096
54369W        W13905  30.908   4.824   4.816
54370W        W13906  12.750  12.251  12.898
54371W        W13907  43.343   6.316  12.398
54372W        W13908  27.498  17.190   3.632
54373W        W13909  38.485  42.941   3.339
54374W        W13910  31.955  20.268   0.434
54375W        W13911   9.795  44.948   0.263
54376W        W13912  21.086  41.310  10.028
54377W        W13913  11.753  41.974  13.027
54378W        W13914  42.791   7.694   3.338
54379W        W13915  42.978  16.207  14.471
54380W        W13916  25.610  20.682   2.884
54381W        W13917  14.714   0.800  12.466
54382W        W13918  33.929  36.408  13.442
54383W        W13919  31.073   7.721   0.370
54384W        W13920  42.328   6.899   2.760
54385W        W13921  44.441   0.450  10.433
54386W        W13922  28.640  29.630   2.829
54387W        W13923  41.983  31.953  13.019
54388W        W13924   5.800  10.759   2.826
54389W        W13925  43.367  39.035   2.870
54390W        W13926  26.191  15.167   0.953
54391W        W13927   3.300   4.814   4.167
54392W        W13928  35.865  12.656  12.909
54393W        W13929   5.722  27.508   4.767
54394W        W13930   8.739  23.702  12.987
54395W        W13931  24.686  23.662   0.928
54396W        W13932   5.291   1.871  14.877
54397W        W13933  13.611  15.124  11.993
54398W        W13934  19.652   0.961  10.913
54399W        W13935   0.865  10.687  10.486
54400W        W13936  20.173  33.490  13.938
54401W        W13937  17.258   6.827  12.090
54402W        W13938  13.339   9.721  12.061
54403W        W13939  11.643  25.193   2.725
54404W        W13940   3.306   7.288  10.616
54405W        W13941  32.616  12.124  14.364
54406W        W13942  10.242   7.741  13.379
54407W        W13943  13.775  13.627   4.789
54408W        W13944  33.996  36.383   3.328
54409W        W13945  33.572   1.871   3.689
54410W        W13946  35.027   4.335  12.986
54411W        W13947  30.072  38.535   4.834
54412W        W13948  15.603  43.891  12.433
54413W        W13949  36.479  22.661  13.405
54414W        W13950  16.687  28.165   4.281
54415W        W13951  25.164  40.946  12.039
54416W        W13952  19.537  13.159  12.380
54417W        W13953  29.929  11.305  14.354
54418W        W13954  20.612  40.518   4.660
54419W        W13955   3.283   5.367   2.738
54420W        W13956   9.862  10.655   4.131
54421W        W13957   8.669  10.824   0.292
54422W        W13958  24.610   8.730  14.479
54423W        W13959   8.753   8.339   3.292
54424W        W13960   5.195   6.312   4.212
54425W        W13961  15.790  41.477   1.808
54426W        W13962  20.605  18.054   2.319
54427W        W13963  34.402   2.791  14.500
54428W        W13964   4.791  15.781   0.386
54429W        W13965  33.059  19.084   0.731
54430W        W13966  39.514  37.513  11.527
54431W        W13967  33.450  22.159  13.805
54432W        W13968   4.877  36.025  10.478
54433W        W13969  31.973  25.478  14.013
54434W        W13970  10.879  25.201  11.014
54435W        W13971  19.188  14.122  12.577
54436W        W13972   1.770   9.807  13.352
54437W        W13973  29.069   3.252  13.965
54438W        W13974   6.399  14.691  12.956
54439W        W13975  38.491  16.809   0.256
54440W        W13976  14.160  37.478   3.322
54441W        W13977  35.495  36.885  11.453
54442W        W13978   3.253   2.753  14.509
54443W        W13979  36.852   4.211   2.403
54444W        W13980  37.889  40.458  12.869
54445W        W13981   1.291  10.710   0.298
54446W        W13982  25.086  21.606  12.951
54447W        W13983   7.277  40.810   0.400
54448W        W13984  24.208   5.193   2.715
54449W        W13985  34.402  38.076   2.710
54450W        W13986  12.794  10.236   1.923
54451W        W13987  11.830   1.271  12.077
54452W        W13988  10.151  21.604   4.339
54453W        W13989  24.604  34.457  10.910
54454W        W13990  23.083   9.193  10.554
54455W        W13991   7.668  42.332   1.844
54456W        W13992  43.385  20.139  12.950
54457W        W13993   2.894  19.746   1.883
54458W        W13994  37.467  13.264   0.860
54459W        W13995  41.363  27.608  11.551
54460W        W13996  27.681  31.087  14.293
54461W        W13997  12.678  13.705  11.488
54462W        W13998  22.223  13.180  12.423
54463W        W13999  24.692  12.139  11.430
54464W        W14000  12.842  11.253   4.786
54465W        W14001  14.219  10.874   9.945
54466W        W14002  12.806  30.577   2.850
54467W        W14003  38.531   2.729  14.925
54468W        W14004  42.792   3.252  13.377
54469W        W14005  23.682  36.956   0.274
54470W        W14006  44.771  36.971  14.311
54471W        W14007  16.169  27.036  12.519
54472W        W14008  38.819  32.436  10.999
54473W        W14009  22.723   9.177  10.995
54474W        W14010  31.053  37.414   3.281
54475W        W14011  34.583  19.144  10.626
54476W        W14012  42.425   2.846   3.797
54477W        W14013  23.081  40.391   0.424
54478W        W14014  40.538  40.906   0.333
54479W        W14015  13.648  16.278  14.768
54480W        W14016  26.044   9.662  11.037
54481W        W14017  25.119  32.013  13.382
54482W        W14018  25.188  40.527  13.838
54483W        W14019  34.523  15.754   0.772
54484W        W14020  33.504  13.845  12.461
54485W        W14021  20.177   3.316   2.882
54486W        W14022  10.675  34.055   4.834
54487W        W14023  25.510  40.312  11.907
54488W        W14024  37.419  39.485   3.382
54489W        W14025  31.021  18.055   4.332
54490W        W14026  36.051  13.307   2.350
54491W        W14027  42.862  31.504  14.495
54492W        W14028  28.574  17.080   1.229
54493W        W14029   0.324  34.117  14.798
54494W        W14030  28.976  25.058   0.926
54495W        W14031  12.144  30.472   1.774
54496W        W14032  38.406  16.621   4.834
54497W        W14033  22.247  12.760  13.047
54498W        W14034  11.249  19.207  11.480
54499W        W14035  21.543  12.333  14.917
54500W        W14036  42.000  28.178  14.352
54501W        W14037  26.637  13.834  12.458
54502W        W14038  15.179   6.876  13.331
54503W        W14039  33.129  19.709  11.023
54504W        W14040   1.815   6.738   0.879
54505W        W14041  34.552  22.252  14.830
54506W        W14042  10.206  20.067  12.017
54507W        W14043  14.750   6.277   0.898
54508W        W14044  37.907   4.932  12.033
54509W        W14045  11.710  22.075   2.231
54510W        W14046  40.317  18.217   0.874
54511W        W14047   4.888   5.886  13.404
54512W        W14048  42.826  15.116   4.772
54513W        W14049  22.015  12.648   0.739
54514W        W14050  44.259  39.410   0.361
54515W        W14051  22.714   8.223   3.799
54516W        W14052   6.374  38.940  13.816
54517W        W14053  25.550  31.503  13.051
54518W        W14054  39.952  30.978   1.340
54519W        W14055  11.221   6.402  12.959
54520W        W14056  14.174  38.496  10.550
54521W        W14057  13.672   6.681   0.333
54522W        W14058  19.060  24.226  10.511
54523W        W14059  17.630   5.735   0.767
54524W        W14060  32.523  33.411   0.455
54525W        W14061  43.858  21.141  13.840
54526W        W14062  14.122  15.787   4.280
54527W        W14063  11.290  24.569  12.354
54528W        W14064   3.359  34.394  12.406
54529W        W14065  17.556  41.380   4.676
54530W        W14066   4.432  22.735  13.412
54531W        W14067  21.573  14.648  12.978
54532W        W14068  22.022  35.434   0.402
54533W        W14069  43.970  16.671   0.304
54534W        W14070  25.618  13.666  11.525
54535W        W14071  34.615   6.186   2.254
54536W        W14072  43.911  15.717  14.470
54537W        W14073  27.056  31.057   2.774
54538W        W14074   2.779  33.046   1.852
54539W        W14075  18.621  38.838  11.540
54540W        W14076  39.397  16.745   3.745
54541W        W14077  32.541   1.851   0.444
54542W        W14078  17.244  35.085   9.984
54543W        W14079  30.094  25.209   2.371
54544W        W14080   7.243   9.250   4.825
54545W        W14081  21.710   3.791  12.874
54546W        W14082  17.615  26.653  14.959
54547W        W14083  22.540  27.956   0.426
54548W        W14084  16.194  14.631   0.458
54549W        W14085  26.126  33.596   0.424
54550W        W14086  10.791  40.323   4.710
54551W        W14087  11.143  15.643   3.270
54552W        W14088   0.910  31.055   2.221
54553W        W14089  42.914  43.399  11.041
54554W        W14090   1.923  15.324   2.681
54555W        W14091  15.783   2.348   0.418
54556W        W14092  10.735  44.976  14.011
54557W        W14093  33.891   8.782  13.442
54558W        W14094  29.605   3.884  11.931
54559W        W14095   0.460  13.748   2.327
54560W        W14096  10.734  13.617   3.219
54561W        W14097  34.014  37.500   3.196
54562W        W14098  16.249   0.926   0.922
54563W        W14099   8.304   2.878   1.418
54564W        W14100   8.784  35.391   4.199
54565W        W14101  19.745  44.992  14.313
54566W        W14102  25.621  43.439   1.801
54567W        W14103  11.268  20.576   2.854
54568W        W14104  38.336   6.737   2.820
54569W        W14105  19.626  20.575  11.471
54570W        W14106   7.399  43.468  13.805
54571W        W14107  25.547  22.192   4.329
54572W        W14108  41.451  23.046  11.118
54573W        W14109  26.124  12.196  13.516
54574W        W14110  36.465   5.917   2.661
54575W        W14111  14.783  23.666   4.200
54576W        W14112  22.164  11.773   3.776
54577W        W14113  34.455  19.681  11.459
54578W        W14114   1.752  10.202  14.325
54579W        W14115   7.324  30.960  11.963
54580W        W14116  35.977  26.202   0.405
54581W        W14117  41.527  28.445   4.734
54582W        W14118  14.212  44.815  11.577
54583W        W14119  19.615  26.621  11.453
54584W        W14120  33.384  23.623  14.994
54585W        W14121  16.171  28.093   2.323
54586W        W14122   8.817   8.789  14.921
54587W        W14123   2.428  10.776   2.261
54588W        W14124  38.553  18.188  13.380
54589W        W14125  17.234  13.344  14.433
54590W        W14126  43.282  23.539   4.709
54591W        W14127  11.205  40.316   2.312
54592W        W14128  32.591  15.160  14.871
54593W        W14129  35.489  39.952  12.515
54594W        W14130  22.645  26.148  14.937
54595W        W14131  31.473  20.201   4.800
54596W        W14132  23.693  17.566  13.449
54597W        W14133   3.353  34.496   3.329
54598W        W14134  29.125  32.960   1.451
54599W        W14135  24.712  26.019   2.789
54600W        W14136  12.764  41.979  12.984
54601W        W14137   6.833  21.753  14.008
54602W        W14138  15.185  42.962   4.158
54603W        W14139   6.280  37.383   3.696
54604W        W14140   9.887  33.993   0.748
54605W        W14141   3.763  27.028  11.572
54606W        W14142  16.258  32.435   3.148
54607W        W14143   3.318  18.165   1.349
54608W        W14144  20.146  33.623   1.779
54609W        W14145  33.433  14.775   0.871
54610W        W14146  23.572   3.869   2.344
54611W        W14147  41.806  10.272   4.350
54612W        W14148  10.811  21.519   1.790
54613W        W14149  27.985  33.070   4.231
54614W        W14150  18.227  34.872   4.828
54615W        W14151  16.673  34.907  14.852
54616W        W14152  24.710   4.787   0.448
54617W        W14153  29.536  36.857   1.873
54618W        W14154  24.042  33.602   4.692
54619W        W14155   5.196  37.468  12.995
54620W        W14156  11.224  25.120  12.481
54621W        W14157   3.775  19.166   2.709
54622W        W14158   6.196   6.809  14.301
54623W        W14159  29.072  23.676  14.028
54624W        W14160  34.978  38.987   2.767
54625W        W14161   7.831   1.378   3.818
54626W        W14162   9.752  44.842   2.250
54627W        W14163   7.245   3.955  13.831
54628W        W14164   5.252  24.020  13.951
54629W        W14165   2.270   2.814   0.876
54630W        W14166  22.224  21.251   1.738
54631W        W14167  34.409  25.622  12.073
54632W        W14168  42.407  28.127   3.338
54633W        W14169  10.710  42.927   4.150
54634W        W14170  24.551  39.500   2.789
54635W        W14171  20.250  30.052  12.381
54636W        W14172  19.065  37.455  13.058
54637W        W14173  41.498   3.230   1.827
54638W        W14174  39.516   8.852   2.397
54639W        W14175  30.080  16.738   2.386
54640W        W14176  33.124   7.802  13.970
54641W        W14177   3.812   7.807  13.917
54642W        W14178  17.265  39.405  12.885
54643W        W14179  39.335  41.913  14.916
54644W        W14180   0.337  38.521   2.771
54645W        W14181  16.662  18.636   3.857
54646W        W14182  43.312  28.488   4.139
54647W        W14183  44.446  31.434  12.995
54648W        W14184   8.236  34.377  11.050
54649W        W14185  27.997  44.335   1.243
54650W        W14186   2.916  30.452  12.969
54651W        W14187   3.440  40.827  14.919
54652W        W14188  31.036  20.628   4.192
54653W        W14189  37.023  34.917  12.862
54654W        W14190  31.068  30.473  12.990
54655W        W14191  31.451  32.115   2.695
54656W        W14192  10.160  36.090  10.628
54657W        W14193  22.161  12.631   0.438
54658W        W14194  31.069   6.255   3.324
54659W        W14195  17.649  12.267  14.844
54660W        W14196  43.440  23.134  14.405
54661W        W14197  32.923  31.979  14.357
54662W        W14198  31.988   4.342   2.822
54663W        W14199   2.775  37.512   1.440
54664W        W14200  16.571  40.429   2.278
54665W        W14201  43.378  10.258  11.076
54666W        W14202  34.036  30.627   4.183
54667W        W14203  37.879  40.961  13.047
54668W        W14204  23.722   7.724   2.326
54669W        W14205  18.735  21.119   0.268
54670W        W14206   0.880   0.467  13.512
54671W        W14207   5.380  25.070  14.415
54672W        W14208   3.266  33.456   1.244
54673W        W14209  32.937  41.998   1.779
54674W        W14210  34.883   0.336  12.565
54675W        W14211   1.436   7.410   4.770
54676W        W14212   9.363  18.095   3.257
54677W        W14213  44.420   8.352  10.645
54678W        W14214  39.941  13.653  10.483
54679W        W14215  18.293  29.161   2.345
54680W        W14216   0.981  35.401   3.777
54681W        W14217   7.201   6.688  14.007
54682W        W14218  18.104   7.676  12.880
54683W        W14219  31.152  12.851   2.805
54684W        W14220  13.720  33.016  11.096
54685W        W14221  20.634  25.555   1.251
54686W        W14222  36.860   4.361   5.155
54687W        W14223  29.591  33.126   4.763
54688W        W14224  18.292   5.388   3.285
54689W        W14225   3.459  16.743  11.982
54690W        W14226  10.666  21.727  13.958
54691W        W14227  10.820  43.372  14.338
54692W        W14228  30.031  24.067   0.900
54693W        W14229  28.471  44.315   4.686
54694W        W14230  39.011  30.592   0.408
54695W        W14231  34.445  39.552   3.860
54696W        W14232  13.733  44.314  10.536
54697W        W14233  25.620  38.547  12.026
54698W        W14234  20.095  25.043   0.271
54699W        W14235  12.161  44.408  11.483
54700W        W14236  41.026  18.267  13.820
54701W        W14237  16.287  39.058   3.182
54702W        W14238  26.003  13.791   4.140
54703W        W14239  22.046  10.739  11.960
54704W        W14240  21.746  20.723  12.954
54705W        W14241   1.365  43.372   4.115
54706W        W14242   3.851  42.482   0.924
54707W        W14243  44.375   3.426  10.486
54708W        W14244   5.910  34.438  14.384
54709W        W14245  15.122  22.720   3.199
54710W        W14246  15.778  44.496  11.456
54711W        W14247   2.459  15.742   5.167
54712W        W14248   4.914  26.624   3.854
54713W        W14249  12.696  17.729   1.786
54714W        W14250  18.713  16.119  10.496
54715W        W14251  44.886   3.460  13.321
54716W        W14252  23.645  27.489  10.939
54717W        W14253  19.191  22.622   1.350
54718W        W14254  22.065   1.447   5.596
54719W        W14255   1.456  35.911  13.503
54720W        W14256   9.682   3.343  14.778
54721W        W14257  18.575  33.114   0.831
54722W        W14258   2.813   3.376   3.635
54723W        W14259  44.377  33.087   1.759
54724W        W14260  39.409  38.410  10.473
54725W        W14261  19.087  33.588   0.935
54726W        W14262  19.578  22.245   4.117
54727W        W14263  13.232  44.294  12.539
54728W        W14264  20.234  41.445   5.285
54729W        W14265   6.193  24.056  14.362
54730W        W14266  44.974  26.008  13.483
54731W        W14267  36.425  32.894   2.688
54732W        W14268  19.129  10.339   3.255
54733W        W14269  35.526  24.582   3.739
54734W        W14270  40.382  25.627   2.860
54735W        W14271   0.866  15.744  11.979
54736W        W14272   6.728  39.930   2.347
54737W        W14273  41.924  26.625   2.782
54738W        W14274  36.027  17.773  10.501
54739W        W14275  14.743  35.518  14.840
54740W        W14276   4.943  20.155   0.872
54741W        W14277   8.733  34.530   0.820
54742W        W14278   1.748   2.919  12.901
54743W        W14279  35.425  32.473  11.986
54744W        W14280  13.734   7.315  12.944
54745W        W14281  41.351  25.125  11.467
54746W        W14282   0.322  31.615   1.934
54747W        W14283   7.254  42.315  10.888
54748W        W14284   1.255  10.838  11.989
54749W        W14285  33.496  42.835   9.993
54750W        W14286  42.877  19.747   4.273
54751W        W14287  11.712  38.355   2.740
54752W        W14288  40.985  13.204  12.410
54753W        W14289  40.460  17.256   5.166
54754W        W14290   1.464  40.438  13.934
54755W        W14291  43.002  22.098  12.571
54756W        W14292  12.337   1.308   3.829
54757W        W14293  19.676  15.613   4.679
54758W        W14294  19.097  26.081  12.430
54759W        W14295   3.764  14.622  11.574
54760W        W14296  44.307  39.555   4.694
54761W        W14297  42.924  21.216   1.394
54762W        W14298  44.348   4.787   1.896
54763W        W14299  26.000  24.706   4.189
54764W        W14300   2.960  31.038  13.953
54765W        W14301  43.914  16.291   9.456
54766W        W14302  35.012   0.291   2.367
54767W        W14303   8.294  25.126   2.875
54768W        W14304   6.204  33.391  13.043
54769W        W14305   9.666  19.242  11.414
54770W        W14306  10.213  16.133   4.194
54771W        W14307  40.902   4.323   1.901
54772W        W14308  44.774   9.814  10.921
54773W        W14309  30.483  10.774   0.866
54774W        W14310  31.136  27.154   2.777
54775W        W14311  28.668  40.979   3.824
54776W        W14312  17.248  17.583   1.818
54777W        W14313   9.312  27.122  14.467
54778W        W14314  19.220  19.736  12.357
54779W        W14315  32.443   5.871   3.651
54780W        W14316  12.734  21.663  10.563
54781W        W14317   9.298  40.450   3.164
54782W        W14318   8.258   9.395   3.671
54783W        W14319  29.603   2.950  14.783
54784W        W14320  17.744  43.367  13.846
54785W        W14321  32.038  36.465  13.003
54786W        W14322  28.972  10.760   0.815
54787W        W14323   5.691   4.280   2.902
54788W        W14324  29.056  33.525   1.783
54789W        W14325  41.948  37.931  11.037
54790W        W14326  24.201  31.634   4.241
54791W        W14327  34.524  24.019  11.982
54792W        W14328   5.914  28.126  13.905
54793W        W14329   3.222  18.162   4.329
54794W        W14330  15.639  30.611   2.285
54795W        W14331  11.762  25.067   0.870
54796W        W14332  39.480  33.941  13.502
54797W        W14333   1.867  26.539   2.275
54798W        W14334  24.144  27.983  13.813
54799W        W14335  15.278   9.720  13.947
54800W        W14336  26.047   6.880  12.390
54801W        W14337   9.834  11.347  12.383
54802W        W14338  44.276  24.535   2.266
54803W        W14339  29.924  13.672   3.859
54804W        W14340  17.677  22.022   2.853
54805W        W14341   7.264  18.091   2.343
54806W        W14342   2.412  44.349   2.395
54807W        W14343  26.498  23.002  12.929
54808W        W14344  30.513  15.625  11.859
54809W        W14345  16.696  20.615  12.008
54810W        W14346   2.801   8.740  13.325
54811W        W14347  34.922  12.166   3.370
54812W        W14348  17.253   7.232  11.991
54813W        W14349  28.506  19.270  12.381
54814W        W14350  18.616  18.248   2.204
54815W        W14351  18.748  14.781  12.986
54816W        W14352  37.875   6.289   2.701
54817W        W14353  29.984  36.445   0.472
54818W        W14354  27.615  17.206   0.305
54819W        W14355   7.838  26.203   9.653
54820W        W14356  39.866   5.213   2.801
54821W        W14357  26.630   8.305  11.587
54822W        W14358  14.831  43.359   3.232
54823W        W14359  35.854  42.828  10.500
54824W        W14360  15.577  19.176  14.286
54825W        W14361  23.207  15.632   2.368
54826W        W14362  25.114   9.834   4.276
54827W        W14363  23.582  13.732   1.846
54828W        W14364  35.471  37.013  13.837
54829W        W14365  32.561  39.993  12.562
54830W        W14366   5.230  42.423   4.257
54831W        W14367  20.129  37.843   2.202
54832W        W14368  35.886  25.126  11.941
54833W        W14369  16.776  17.160  12.413
54834W        W14370  20.557  21.155   3.316
54835W        W14371  32.127  38.373  11.012
54836W        W14372   6.275  32.977   1.436
54837W        W14373  21.226  24.153   4.195
54838W        W14374  34.108  27.082   4.612
54839W        W14375  30.435   9.754   2.667
54840W        W14376  27.676   0.285   4.349
54841W        W14377  38.004  26.145  10.492
54842W        W14378   0.777  15.293   3.238
54843W        W14379  41.900   7.302   2.283
54844W        W14380  30.032   2.336   2.839
54845W        W14381   1.243  36.387   2.787
54846W        W14382  41.344  37.887   3.745
54847W        W14383   8.854   4.373   3.829
54848W        W14384   4.751  36.973  14.449
54849W        W14385  21.253   3.778   2.275
54850W        W14386  10.776  15.291  11.557
54851W        W14387   4.370  37.577  14.940
54852W        W14388   2.884  29.505  12.506
54853W        W14389  32.948   7.382   2.830
54854W        W14390  12.323  24.688  13.455
54855W        W14391  20.532   3.401  12.498
54856W        W14392  28.012  29.637  12.510
54857W        W14393  13.797  21.097  13.922
54858W        W14394  38.468  34.442  12.410
54859W        W14395  37.944  40.849   0.462
54860W        W14396  35.503  32.975  12.397
54861W        W14397   9.657   0.917  14.989
54862W        W14398  29.502  29.444  13.430
54863W        W14399  13.244  30.412  13.859
54864W        W14400  27.617   6.770   4.635
54865W        W14401  37.919  24.492  13.823
54866W        W14402  16.732  25.015  11.900
54867W        W14403  35.948  37.055  12.538
54868W        W14404  19.146  22.027   1.768
54869W        W14405  35.916  10.812  14.346
54870W        W14406  21.067   5.872   4.197
54871W        W14407  10.877   4.362   0.326
54872W        W14408  27.977   8.332   3.662
54873W        W14409  44.322  20.190  10.441
54874W        W14410  24.045  24.076  10.941
54875W        W14411   5.433  17.160  13.459
54876W        W14412  10.214  24.522  11.524
54877W        W14413   4.412  20.269   0.457
54878W        W14414  18.272  28.676  14.463
54879W        W14415  32.018  11.753   2.707
54880W        W14416  12.156  19.060   2.375
54881W        W14417  12.321  37.369  10.518
54882W        W14418  37.046  37.520  12.881
54883W        W14419  14.306   1.860   1.238
54884W        W14420   7.833  35.968   3.152
54885W        W14421   3.885  41.956   4.128
54886W        W14422  43.792  25.120   3.691
54887W        W14423  27.524  11.845   0.406
54888W        W14424   7.337  28.583  12.402
54889W        W14425  20.210   4.866  14.288
54890W        W14426  24.639  36.930   1.223
54891W        W14427  25.496  15.643   5.092
54892W        W14428   5.811  28.610   3.185
54893W        W14429  40.920  41.032  14.502
54894W        W14430  14.828   3.914   2.194
54895W        W14431  13.764  23.167   4.774
54896W        W14432  12.850  28.676   4.218
54897W        W14433  25.566  29.545  10.588
54898W        W14434  28.623   0.790  14.446
54899W        W14435  35.602  25.037  14.323
54900W        W14436   5.391  37.977  11.933
54901W        W14437  28.180  19.280  12.418
54902W        W14438   5.748   0.260  11.125
54903W        W14439  12.759  11.193   4.343
54904W        W14440   9.383  33.448   4.733
54905W        W14441   9.162  29.047  13.857
54906W        W14442  39.844  30.496  13.985
54907W        W14443   3.286  17.640   4.179
54908W        W14444  24.501  25.180   3.657
54909W        W14445  17.103  42.823  14.428
54910W        W14446  18.146  31.431  12.072
54911W        W14447   3.240  14.140  13.428
54912W        W14448  43.883  44.422  10.535
54913W        W14449  44.850  30.641  11.397
54914W        W14450  17.602  32.988  14.015
54915W        W14451  34.061  25.117   1.925
54916W        W14452  36.509  30.019  14.869
54917W        W14453  15.244  12.615   3.677
54918W        W14454  36.098  19.720  13.518
54919W        W14455  19.089  16.244   2.745
54920W        W14456   6.188  44.858  14.790
54921W        W14457  12.160  25.033  12.965
54922W        W14458   7.304  36.917   0.919
54923W        W14459  10.713  22.035   0.759
54924W        W14460  25.069  17.690  10.033
54925W        W14461  13.745  24.547  13.423
54926W        W14462  25.652  28.672  11.479
54927W        W14463  36.367  21.517   4.674
54928W        W14464  26.996  31.599   4.114
54929W        W14465  18.227  36.996   3.679
54930W        W14466  21.642   2.948  14.292
54931W        W14467  44.438  34.928   2.883
54932W        W14468  11.831  16.567   0.726
54933W        W14469  18.781  41.961   4.785
54934W        W14470  25.519  11.368  10.438
54935W        W14471  26.552  41.874  10.524
54936W        W14472  26.124  17.218   2.229
54937W        W14473  16.642  24.220  14.813
54938W        W14474  26.026  32.555   0.437
54939W        W14475  12.627   4.796   2.742
54940W        W14476  23.679  41.962   1.738
54941W        W14477  18.257  13.757   1.755
54942W        W14478   3.826  25.546   3.732
54943W        W14479   4.806  11.330   4.322
54944W        W14480  33.603  38.518  10.456
54945W        W14481   3.795  17.192  13.056
54946W        W14482   6.218  16.608  14.500
54947W        W14483  12.793  17.674  13.797
54948W        W14484  32.579   1.382   1.760
54949W        W14485  18.240   9.372  10.421
54950W        W14486   1.880  20.152   3.638
54951W        W14487  20.710  25.158  10.558
54952W        W14488  32.564  12.744   4.834
54953W        W14489   7.390  40.948  14.786
54954W        W14490  30.062   6.239   3.200
54955W        W14491  28.486  17.190  12.844
54956W        W14492  42.011  37.909   2.731
54957W        W14493  29.982  15.718  11.014
54958W        W14494   1.470  20.565  13.978
54959W        W14495  12.172  13.740  10.984
54960W        W14496  17.757  36.927  14.890
54961W        W14497   8.769  40.351  13.795
54962W        W14498  33.889  24.700   4.837
54963W        W14499   9.813  26.499   1.895
54964W        W14500  25.169  13.351   0.466
54965W        W14501  39.515  41.396  11.564
54966W        W14502  17.730  39.446   3.181
54967W        W14503   6.210  28.168   4.115
54968W        W14504  12.687  30.594   4.775
54969W        W14505  24.111  41.042   1.212
54970W        W14506  19.223  16.567   0.275
54971W        W14507  36.416  22.674  13.039
54972W        W14508  22.146   4.389   1.426
54973W        W14509  28.180  23.598   1.296
54974W        W14510  15.599  40.342  11.882
54975W        W14511   7.335  31.437   1.286
54976W        W14512  44.827  42.448   2.201
54977W        W14513  44.914  38.543  13.903
54978W        W14514  19.237  40.829   2.747
54979W        W14515  25.488  20.069  11.392
54980W        W14516   2.902  37.837  14.885
54981W        W14517  38.403  17.745  14.774
54982W        W14518  42.281  26.147  12.523
54983W        W14519   4.433  38.452   1.766
54984W        W14520   8.367   4.915   1.298
54985W        W14521  38.377  22.191   1.711
54986W        W14522  20.752  13.158  14.501
54987W        W14523  40.806  44.855   4.195
54988W        W14524  14.745  29.993   3.836
54989W        W14525  29.118  17.613   2.700
54990W        W14526   8.811  19.104  10.941
54991W        W14527  41.378  16.628   4.762
54992W        W14528  43.786  26.684  13.532
54993W        W14529  39.826  32.121   0.431
54994W        W14530  12.156  27.521   5.271
54995W        W14531  21.085  20.687   3.153
54996W        W14532  32.622   4.731   0.312
54997W        W14533  15.754  36.964  10.971
54998W        W14534   8.861  37.511  10.904
54999W        W14535  11.752   1.429   2.199
55000W        W14536   5.845  36.019  10.583
55001W        W14537  27.977   0.812   3.811
55002W        W14538  35.036  22.624   0.770
55003W        W14539  19.149  34.469  14.902
55004W        W14540  17.600  16.608  12.824
55005W        W14541   7.758  36.077   0.887
55006W        W14542   2.397   5.244  10.440
55007W        W14543  35.097  42.485  13.860
55008W        W14544  26.078  40.022  12.905
55009W        W14545  13.652   5.359   0.357
55010W        W14546  33.567  24.116   3.682
55011W        W14547  15.737   3.788  10.411
55012W        W14548   0.264   1.440  11.906
55013W        W14549  17.231   2.725   3.359
55014W        W14550  43.853  39.859  14.776
55015W        W14551  10.680  22.054   3.351
55016W        W14552  18.606  11.274   3.830
55017W        W14553  25.979   3.712  10.407
55018W        W14554  36.889  34.020   0.379
55019W        W14555  27.644  34.477   1.895
55020W        W14556  14.144   7.798  13.332
55021W        W14557  41.373  37.503   0.316
55022W        W14558  35.604  38.066  11.040
55023W        W14559  17.240  15.777  11.500
55024W        W14560  35.596  37.562  11.526
55025W        W14561  18.710  29.491   3.796
55026W        W14562  34.544  38.034  12.015
55027W        W14563  14.200  38.991  10.639
55028W        W14564  24.529  38.923   4.297
55029W        W14565   3.323  18.108   2.337
55030W        W14566  44.876  11.860  14.985
55031W        W14567  32.008  21.684  10.558
55032W        W14568  18.743  17.226   3.240
55033W        W14569   8.366  36.960  11.989
55034W        W14570  34.503  28.946   3.822
55035W        W14571  10.273   4.828   4.659
55036W        W14572  36.048   1.461   0.287
55037W        W14573  24.660   6.867  11.907
55038W        W14574  31.642  44.819   0.346
55039W        W14575   8.351  24.558  13.474
55040W        W14576   0.830  37.489   2.288
55041W        W14577  37.913  33.431  14.999
55042W        W14578   1.829  21.628   4.264
55043W        W14579   0.319  42.321  13.006
55044W        W14580  21.597  14.247  13.328
55045W        W14581  16.268  44.324   2.774
55046W        W14582  27.641  34.411   0.769
55047W        W14583  42.780  43.014   4.309
55048W        W14584  37.831  13.810   4.225
55049W        W14585  24.538  37.866  14.357
55050W        W14586  30.968   0.489   4.250
55051W        W14587  17.122   9.177   3.871
55052W        W14588  10.833  14.170  12.846
55053W        W14589  32.579  40.369   2.679
55054W        W14590   4.903   6.184   1.749
55055W        W14591  31.645  44.478  13.319
55056W        W14592  32.582  30.163  12.846
55057W        W14593  33.541  39.386  13.491
55058W        W14594  43.323   0.938  14.841
55059W        W14595   5.347   1.252  11.603
55060W        W14596   0.288  28.012  14.796
55061W        W14597  16.114  25.512   4.696
55062W        W14598  22.195  43.348   0.854
55063W        W14599  17.611  39.383  10.893
55064W        W14600  20.673  16.114  13.880
55065W        W14601  28.440  12.679  12.520
55066W        W14602  18.207   0.417  12.045
55067W        W14603   9.809  10.183   3.656
55068W        W14604  36.941  28.944  13.882
55069W        W14605  17.290  35.465  14.463
55070W        W14606   6.809  35.931   2.679
55071W        W14607  33.455  38.076  12.499
55072W        W14608  15.212  44.271   1.895
55073W        W14609  43.020  13.204  14.437
55074W        W14610  14.691   7.813  11.412
55075W        W14611  39.409   2.355  12.345
55076W        W14612  17.086  38.959   3.710
55077W        W14613  34.480  42.945   2.286
55078W        W14614  23.135  44.856  14.921
55079W        W14615  32.915   1.393  12.055
55080W        W14616   2.898  41.862   2.805
55081W        W14617  41.042  20.205  12.974
55082W        W14618  40.983  14.279   3.782
55083W        W14619   3.755  27.633  11.902
55084W        W14620   6.203  34.109   4.346
55085W        W14621  24.227  36.916  13.476
55086W        W14622  29.951  15.790   3.685
55087W        W14623   1.738  43.391   5.292
55088W        W14624   3.227  21.597  14.478
55089W        W14625  37.981   5.418   9.671
55090W        W14626  44.889   9.869   2.677
55091W        W14627  33.426  40.422   1.351
55092W        W14628   7.855  32.438  13.952
55093W        W14629  40.810  31.000   1.434
55094W        W14630  44.347  13.284   1.763
55095W        W14631  40.421  17.691   2.717
55096W        W14632  38.478   2.902  13.010
55097W        W14633  29.580  28.949   3.155
55098W        W14634  42.836   6.239   0.809
55099W        W14635  34.894  25.552   3.188
55100W        W14636  31.939   6.215   1.841
55101W        W14637  42.391  18.265  14.888
55102W        W14638  17.618  35.031  14.842
55103W        W14639   1.917  17.193  14.404
55104W        W14640  40.046  35.912   0.952
55105W        W14641  40.048   5.704  13.398
55106W        W14642   2.383   3.728   3.718
55107W        W14643  25.172   8.182  11.519
55108W        W14644  23.503  13.116  14.800
55109W        W14645  39.046  39.406  14.978
55110W        W14646  38.826   9.862   1.324
55111W        W14647  25.197   9.676   2.788
55112W        W14648  40.414  26.209   3.384
55113W        W14649  27.107  33.083  12.449
55114W        W14650  18.224  22.007   3.316
55115W        W14651  22.192  10.734  13.806
55116W        W14652  43.931  29.165   4.745
55117W        W14653  40.429   6.791  12.357
55118W        W14654  15.131  35.078  14.801
55119W        W14655  13.297  31.052  12.888
55120W        W14656  39.317  14.207  11.586
55121W        W14657  37.528   8.857  12.866
55122W        W14658  22.033  33.598  11.562
55123W        W14659  38.922  40.403  13.394
55124W        W14660  30.103  27.502  13.828
55125W        W14661  10.289  26.166  13.375
55126W        W14662   7.343  10.675  10.577
55127W        W14663  29.440  32.966  10.927
55128W        W14664  35.011  23.032   1.918
55129W        W14665   0.776  33.060  10.593
55130W        W14666  29.632   1.815   3.358
55131W        W14667  19.623  20.705   5.161
55132W        W14668  15.692  21.701   3.639
55133W        W14669   3.319   4.368  14.876
55134W        W14670  42.892  42.464   3.296
55135W        W14671  33.421  12.206  10.520
55136W        W14672  33.441  24.681   4.127
55137W        W14673  10.716  30.977   2.834
55138W        W14674  36.394  32.516   3.778
55139W        W14675  11.832  23.700   3.814
55140W        W14676   3.944  34.920  14.494
55141W        W14677   2.324  30.468   0.422
55142W        W14678  20.604  17.773  14.984
55143W        W14679  42.900   3.798  12.389
55144W        W14680   6.837  36.381  12.901
55145W        W14681  27.060  23.114  10.899
55146W        W14682  36.917   2.419   4.180
55147W        W14683  41.393   2.422  13.879
55148W        W14684  14.588  44.429   2.178
55149W        W14685  12.717  33.394   3.348
55150W        W14686   1.418  18.125  12.381
55151W        W14687  20.163  39.985  11.610
55152W        W14688  32.438  26.482  10.940
55153W        W14689   7.344  28.515  14.780
55154W        W14690  37.580  20.063  13.361
55155W        W14691  25.486  24.138   1.312
55156W        W14692  22.186  36.535   0.924
55157W        W14693  28.460  12.268  10.494
55158W        W14694  42.024  42.374   4.784
55159W        W14695  36.483  16.204  12.359
55160W        W14696  14.817  12.760   4.216
55161W        W14697  14.818  37.881  10.992
55162W        W14698  29.156  11.214   4.622
55163W        W14699   0.308  29.150  13.384
55164W        W14700  29.931  16.642   0.772
55165W        W14701  31.935  31.069  11.111
55166W        W14702   6.692  18.652  11.442
55167W        W14703  33.546  37.453   2.362
55168W        W14704   5.750  34.413   3.166
55169W        W14705  19.767  34.416  14.924
55170W        W14706  21.724  32.598  12.347
55171W        W14707  28.101  22.172  11.444
55172W        W14708  42.442  44.364  10.619
55173W        W14709   4.857  13.629  14.857
55174W        W14710  34.055  35.545   2.204
55175W        W14711  21.233  19.565   1.267
55176W        W14712   9.836  19.261   0.833
55177W        W14713   1.282  34.534  12.003
55178W        W14714  40.808  41.309  14.352
55179W        W14715  17.598   2.753  12.960
55180W        W14716  38.490   1.365   0.888
55181W        W14717   2.793   5.916   2.718
55182W        W14718  37.532   4.847   0.370
55183W        W14719  22.078  24.632   0.288
55184W        W14720  23.573  35.076   1.699
55185W        W14721  37.083  24.566  10.414
55186W        W14722  10.250  41.892  11.541
55187W        W14723  10.723  17.271  10.461
55188W        W14724  21.662  19.273  14.445
55189W        W14725   2.870  23.696  10.439
55190W        W14726  36.016  36.587  11.873
55191W        W14727  44.317  37.438  13.505
55192W        W14728  13.310  19.608  12.454
55193W        W14729   6.860  37.083   2.714
55194W        W14730  24.639   0.346   4.732
55195W        W14731  14.638  23.721  12.886
55196W        W14732  13.204  30.982  14.300
55197W        W14733  23.147   9.842  14.334
55198W        W14734  35.008   2.825  12.386
55199W        W14735  25.157  36.571   1.278
55200W        W14736  33.057   6.809   1.319
55201W        W14737  42.813   8.679  14.305
55202W        W14738  44.973  24.097  13.911
55203W        W14739  33.035  11.329   4.774
55204W        W14740   4.837  24.504  14.014
55205W        W14741  16.619   0.354  10.959
55206W        W14742   5.259   3.434  12.521
55207W        W14743  23.169  32.016  13.350
55208W        W14744  10.299  27.663   5.660
55209W        W14745  35.445   1.899   9.628
55210W        W14746  38.334  32.486  10.609
55211W        W14747  30.522  29.073  12.388
55212W        W14748  25.678  15.609   5.614
55213W        W14749  41.398  10.656  13.055
55214W        W14750  28.529  37.533  14.446
55215W        W14751  40.340  39.467   3.294
55216W        W14752  37.909  14.235  13.938
55217W        W14753   4.824  32.108   9.968
55218W        W14754  24.043  23.093   1.903
55219W        W14755   9.321   3.895  12.481
55220W        W14756  33.088  41.366   4.291
55221W        W14757  37.459  21.571   0.847
55222W        W14758  31.095  40.837  12.013
55223W        W14759  27.522  30.499  10.931
55224W        W14760  34.390  22.599  12.457
55225W        W14761  38.486   5.230   3.785
55226W        W14762  30.921  40.807  14.857
55227W        W14763  42.391  29.424   2.202
55228W        W14764  10.166  17.283  14.775
55229W        W14765  12.277  14.303  11.989
55230W        W14766  12.636  10.861   1.847
55231W        W14767  17.595  26.186   0.844
55232W        W14768  13.792  14.225   0.305
55233W        W14769  30.612  13.713   2.398
55234W        W14770   9.285  39.904  12.581
55235W        W14771   4.723   5.760  13.036
55236W        W14772  36.555   9.304   0.424
55237W        W14773   5.273  40.052  13.396
55238W        W14774  37.479  27.509  12.551
55239W        W14775  37.927  11.713   3.677
55240W        W14776  11.717  43.513   4.114
55241W        W14777  29.937  41.884   1.354
55242W        W14778   5.835  10.201   3.851
55243W        W14779  31.466  11.830   2.340
55244W        W14780  17.734  18.544   0.824
55245W        W14781  30.048  26.577  10.603
55246W        W14782  13.156   6.305  13.827
55247W        W14783  29.542  30.144  14.013
55248W        W14784  30.454  41.479  12.412
55249W        W14785  34.895  16.599  13.453
55250W        W14786   3.912  20.190  13.418
55251W        W14787   8.873   1.834   0.929
55252W        W14788  37.569  27.511   4.116
55253W        W14789   4.368   2.730  13.017
55254W        W14790   0.860   3.426   2.822
55255W        W14791  37.022  22.594   1.868
55256W        W14792  33.911  12.285   1.906
55257W        W14793   3.892   7.818  13.318
55258W        W14794  22.027  16.115  10.598
55259W        W14795  28.519  33.444  10.968
55260W        W14796  31.060  42.437  14.982
55261W        W14797  19.573   3.913  10.603
55262W        W14798  33.556  18.674  13.979
55263W        W14799   1.955  23.734  12.887
55264W        W14800  15.154   4.391   1.436
55265W        W14801  43.964  11.706   2.392
55266W        W14802  18.198  26.697   3.727
55267W        W14803  11.698  21.037  13.852
55268W        W14804  19.591  42.303   2.698
55269W        W14805   6.804   9.266  13.834
55270W        W14806  38.859  30.659   3.846
55271W        W14807  41.428  12.216   5.126
55272W        W14808   8.373  17.664   1.329
55273W        W14809  37.430  12.146  10.617
55274W        W14810   8.337  20.767  13.987
55275W        W14811  18.697  25.160   1.723
55276W        W14812  13.661  38.072  11.917
55277W        W14813  43.387  34.475  13.505
55278W        W14814  33.078  44.838  12.883
55279W        W14815  29.453  32.949  12.045
55280W        W14816  25.048  36.362  14.842
55281W        W14817   3.940  31.632  14.394
55282W        W14818  34.462  41.494   2.279
55283W        W14819  30.022  34.935   1.400
55284W        W14820  11.318  19.672  13.915
55285W        W14821  39.031  20.261   4.224
55286W        W14822  13.331  36.010   2.760
55287W        W14823  19.062  26.165   4.134
55288W        W14824  25.493  27.631   1.759
55289W        W14825  25.529  36.546  12.470
55290W        W14826  37.569  28.645   0.953
55291W        W14827  38.444  44.792  14.506
55292W        W14828  30.126  14.690  12.493
55293W        W14829   8.376  35.989   3.868
55294W        W14830  31.597  30.570   2.794
55295W        W14831  11.856   9.349  11.491
55296W        W14832   3.218  13.797   3.694
55297W        W14833  13.638  33.026  12.579
55298W        W14834   9.707  13.228  13.503
55299W        W14835  26.112   6.692   0.265
55300W        W14836  18.121  32.075   1.837
55301W        W14837  11.857  25.578  13.351
55302W        W14838  28.488   9.810   2.388
55303W        W14839   4.768  14.627   0.284
55304W        W14840   4.358  42.825   2.736
55305W        W14841   9.385   1.468  10.524
55306W        W14842   2.374  26.137   0.792
55307W        W14843  26.998  27.075   3.631
55308W        W14844  31.035  38.032   1.710
55309W        W14845   4.275  38.501   2.864
55310W        W14846  41.886  16.737   3.259
55311W        W14847  31.049  24.175  12.984
55312W        W14848  29.602  35.992  11.581
55313W        W14849  18.248  10.358  13.021
55314W        W14850  13.830  34.488  11.983
55315W        W14851  23.623  44.442   0.354
55316W        W14852  33.497  10.301   0.412
55317W        W14853  25.501  29.152   1.248
55318W        W14854  36.031  11.358  11.053
55319W        W14855   0.274  35.576   4.770
55320W        W14856  12.813   9.218   0.453
55321W        W14857   2.273  24.521   4.158
55322W        W14858   6.863  20.588  12.936
55323W        W14859  37.412  15.198  12.953
55324W        W14860  42.900  16.174  12.045
55325W        W14861  38.442   0.326   3.317
55326W        W14862  22.189   2.838   4.640
55327W        W14863  14.265   3.780   0.883
55328W        W14864  37.942  41.400  10.603
55329W        W14865   7.351  40.501  12.505
55330W        W14866  40.810  44.971   0.751
55331W        W14867   1.747  42.284  12.544
55332W        W14868   7.732   1.273   3.175
55333W        W14869  21.223   6.830   3.339
55334W        W14870  28.046  14.175   1.728
55335W        W14871   8.252  43.396  12.857
55336W        W14872  29.035  42.391   4.211
55337W        W14873   6.883   5.756   3.164
55338W        W14874   4.898  31.091  10.940
55339W        W14875  24.219  33.603   3.702
55340W        W14876   5.723  16.691   2.689
55341W        W14877   1.849  25.084   1.426
55342W        W14878  17.117   6.252   1.440
55343W        W14879   0.935  37.472   4.346
55344W        W14880  25.640  15.799   1.400
55345W        W14881  26.206   9.182   4.656
55346W        W14882  26.103  36.409   2.874
55347W        W14883  33.576   8.175  11.988
55348W        W14884  28.036  39.415  13.019
55349W        W14885  11.800  37.378  13.918
55350W        W14886  20.147  39.897   2.884
55351W        W14887  17.593  15.164   0.407
55352W        W14888  40.798  32.090  14.819
55353W        W14889  31.931  26.959   4.826
55354W        W14890  44.320  14.231  11.946
55355W        W14891  37.054  35.086   1.838
55356W        W14892  20.097   9.365  11.574
55357W        W14893  41.870  36.465   4.194
55358W        W14894   8.667  38.505   0.261
55359W        W14895  39.369  21.749   1.720
55360W        W14896  21.667  37.088   1.313
55361W        W14897  34.877  10.752  13.875
55362W        W14898  21.068  20.645   4.273
55363W        W14899  16.117  35.913   5.294
55364W        W14900   3.903  44.448   2.670
55365W        W14901  41.447  26.472  14.998
55366W        W14902  18.717  39.411  12.940
55367W        W14903   0.872  13.169   0.389
55368W        W14904  38.974   3.242  11.887
55369W        W14905  43.429  28.939   3.295
55370W        W14906  38.897  11.340  13.411
55371W        W14907  21.240   5.213  10.119
55372W        W14908  12.624  18.752  13.438
55373W        W14909   7.404  14.285  13.317
55374W        W14910  41.477  31.551   1.313
55375W        W14911  18.076  25.116   5.156
55376W        W14912  29.470  23.183  14.956
55377W        W14913  35.886  11.209  12.535
55378W        W14914   8.191   0.364   1.262
55379W        W14915  14.740  28.987  14.400
55380W        W14916  17.253  30.109  12.994
55381W        W14917   1.806   9.281   3.279
55382W        W14918  39.532  17.199   4.171
55383W        W14919  27.593  40.881  11.470
55384W        W14920   4.861  32.631  11.552
55385W        W14921  25.134   6.200  12.905
55386W        W14922  30.946  19.700   1.388
55387W        W14923  19.639   3.446  14.815
55388W        W14924  37.963   3.403   4.839
55389W        W14925  23.068  27.684   1.721
55390W        W14926   4.765   4.943  10.494
55391W        W14927  17.557  12.742   3.653
55392W        W14928   2.915  28.436   0.474
55393W        W14929   9.736  39.061   2.867
55394W        W14930   5.767  28.653   4.617
55395W        W14931  40.887  12.844  11.593
55396W        W14932   8.680   8.762   9.971
55397W        W14933  25.489  23.600   4.712
55398W        W14934  23.230  11.849  12.936
55399W        W14935  20.039   9.864   0.827
55400W        W14936   2.842  17.675  11.372
55401W        W14937  41.400  24.664  14.389
55402W        W14938  44.873  16.579  11.503
55403W        W14939  19.089  14.775   3.748
55404W        W14940  26.669  36.864  12.450
55405W        W14941   9.887   4.878   1.843
55406W        W14942  44.477  20.156   1.753
55407W        W14943  16.804  20.193   0.736
55408W        W14944  38.918  22.019   2.202
55409W        W14945   1.296   3.256   0.448
55410W        W14946  43.784  17.694   2.331
55411W        W14947  25.703   3.784   1.909
55412W        W14948  21.074  17.760  12.550
55413W        W14949  31.496  35.007  12.460
55414W        W14950  43.461  29.501   1.927
55415W        W14951   3.265   0.821  10.532
55416W        W14952  30.522   9.285  14.412
55417W        W14953  15.645  44.902   1.400
55418W        W14954  34.985  16.803   4.658
55419W        W14955   1.775  21.244  13.813
55420W        W14956   1.472  43.504   0.247
55421W        W14957  26.073   6.349   4.722
55422W        W14958  24.702   0.788  11.512
55423W        W14959  40.473  28.172  14.861
55424W        W14960  27.120  32.069   3.837
55425W        W14961  21.176  13.639   2.198
55426W        W14962  16.805  28.550   0.765
55427W        W14963  36.014  39.962  12.851
55428W        W14964  41.448   1.861   1.259
55429W        W14965  23.047  39.347  13.869
55430W        W14966   6.316   0.442  13.965
55431W        W14967  30.486   6.412  13.917
55432W        W14968  38.040  22.561   0.778
55433W        W14969  28.057  41.454  13.944
55434W        W14970  19.246  13.759   3.761
55435W        W14971  30.151  13.691   4.219
55436W        W14972  33.611  44.847   4.773
55437W        W14973   0.937  21.744  13.315
55438W        W14974  40.360  36.529  13.011
55439W        W14975  26.464  23.148   0.886
55440W        W14976  37.940  12.303   3.289
55441W        W14977  23.240  34.062   1.697
55442W        W14978  39.465  14.119  10.612
55443W        W14979  26.010  12.794  13.429
55444W        W14980  44.906  39.020   2.360
55445W        W14981  37.443   0.812   4.186
55446W        W14982  39.364   2.294   4.122
55447W        W14983  41.486   3.731  13.474
55448W        W14984  18.748   5.205  11.406
55449W        W14985  33.923   7.724   0.946
55450W        W14986  26.149  16.140  12.510
55451W        W14987  11.730  24.021   2.304
55452W        W14988   6.409   6.225  13.900
55453W        W14989  16.165  21.605  12.858
55454W        W14990  23.091  12.751   4.350
55455W        W14991  34.462   1.794  11.028
55456W        W14992  15.704  42.990   4.160
55457W        W14993   5.263  31.411  12.416
55458W        W14994  20.743  19.079   0.890
55459W        W14995  15.198  29.466   2.706
55460W        W14996  30.123  25.629  12.347
55461W        W14997  44.926  34.585  14.319
55462W        W14998  22.515  17.152   1.223
55463W        W14999   2.744  23.241   3.382
55464W        W15000  43.988   3.286  12.928
55465W        W15001  23.200  24.520  13.376
55466W        W15002  41.029  10.277  13.971
55467W        W15003  14.167  25.031   0.372
55468W        W15004  25.511  22.209  10.416
55469W        W15005   0.757  35.919  12.925
55470W        W15006  20.615  33.043   0.434
55471W        W15007  18.096  11.212   1.789
55472W        W15008  26.702   3.345  11.955
55473W        W15009   5.383  10.325  12.095
55474W        W15010  38.917  27.010   0.353
55475W        W15011  22.515  29.615  12.512
55476W        W15012  36.871  16.086   1.727
55477W        W15013  30.621  38.416   1.904
55478W        W15014   9.175  30.031  11.479
55479W        W15015  35.976  34.926   3.740
55480W        W15016  22.591  30.145   0.734
55481W        W15017  39.408   3.771   2.773
55482W        W15018   7.297  17.198   3.711
55483W        W15019  11.336  16.189  14.815
55484W        W15020  41.326   1.380   0.870
55485W        W15021   9.801   5.889   2.197
55486W        W15022  26.478   6.699   1.433
55487W        W15023  39.348  23.662   1.699
55488W        W15024  21.547   3.952   1.828
55489W        W15025  13.182   6.330   4.625
55490W        W15026  25.687  42.325   0.441
55491W        W15027  19.201  32.112   1.889
55492W        W15028  30.140  41.872  12.084
55493W        W15029  10.649  38.459  11.510
55494W        W15030   6.872  20.555   0.737
55495W        W15031  30.123  35.527  13.326
55496W        W15032   4.772  41.983   3.818
55497W        W15033  32.497  11.762  11.880
55498W        W15034  23.987   9.769  13.371
55499W        W15035  18.617   2.362   1.298
55500W        W15036   8.196  37.950  14.925
55501W        W15037  14.678  31.454  10.561
55502W        W15038  37.357  43.316   1.904
55503W        W15039  26.072  36.383   3.274
55504W        W15040  30.593   4.919  11.113
55505W        W15041  13.334  40.484  12.911
55506W        W15042   3.344  10.190  11.558
55507W        W15043   6.825   6.704  14.474
55508W        W15044  21.704  24.680   2.729
55509W        W15045  38.375  17.143  14.499
55510W        W15046  27.182  39.449   2.411
55511W        W15047  35.403  14.316  13.902
55512W        W15048  14.121  16.707   1.274
55513W        W15049  26.534  22.666  10.583
55514W        W15050  14.790  27.616   2.332
55515W        W15051  28.582  14.158  10.431
55516W        W15052  30.025   1.277  12.898
55517W        W15053   4.866   9.647  11.586
55518W        W15054  20.067  22.175  12.859
55519W        W15055  21.710   8.749   1.407
55520W        W15056   0.291   9.668  13.324
55521W        W15057  11.244   5.687   1.768
55522W        W15058  42.334  44.489   4.733
55523W        W15059  29.488  31.120   0.431
55524W        W15060   2.822  27.620   4.258
55525W        W15061  17.209   3.218   1.408
55526W        W15062   4.800   4.214   1.396
55527W        W15063  32.509  12.682   1.225
55528W        W15064  12.162  22.631  14.423
55529W        W15065  42.286  42.031   1.368
55530W        W15066  25.140  24.574   3.760
55531W        W15067  18.671  22.697   3.170
55532W        W15068   2.455  12.337  11.444
55533W        W15069  43.351   2.848  13.903
55534W        W15070  38.425  30.419  13.377
55535W        W15071  35.559  23.575   3.860
55536W        W15072  37.497  30.589  11.067
55537W        W15073  26.158  11.716   2.745
55538W        W15074  15.189  13.616  12.019
55539W        W15075  27.094  12.800   4.700
55540W        W15076  26.586  14.270  13.856
55541W        W15077   9.248  39.480  14.467
55542W        W15078  19.567  39.854  13.390
55543W        W15079  28.120   8.293   2.191
55544W        W15080  35.017   1.294   3.292
55545W        W15081  28.568   1.931   1.902
55546W        W15082  32.077  25.692   3.206
55547W        W15083  23.676  13.299   2.688
55548W        W15084  35.532  30.633  14.970
55549W        W15085  24.179  36.864   5.773
55550W        W15086  39.319  24.190  12.366
55551W        W15087  35.038   2.293  13.874
55552W        W15088  43.321   9.838   5.152
55553W        W15089  31.486  32.508  14.394
55554W        W15090  27.070  34.604  14.391
55555W        W15091  26.658  32.602  14.758
55556W        W15092  29.998  23.629  14.954
55557W        W15093   8.170  18.053  13.853
55558W        W15094   1.392  21.666   1.416
55559W        W15095  25.187  21.602  11.060
55560W        W15096   4.291  23.730   4.666
55561W        W15097  42.442  18.256   1.394
55562W        W15098  32.606  14.721  13.905
55563W        W15099   7.771  25.475  11.919
55564W        W15100  21.626   6.813   0.402
55565W        W15101  34.889  24.588  13.896
55566W        W15102  30.413  11.867  13.957
55567W        W15103   3.942  40.815   1.935
55568W        W15104  30.421  27.109  12.973
55569W        W15105   4.419  27.999  11.507
55570W        W15106  38.841   8.367   2.742
55571W        W15107  38.029  19.065   1.379
55572W        W15108  17.667  32.074   3.766
55573W        W15109  38.897   7.728  11.052
55574W        W15110  11.782  41.474  11.494
55575W        W15111  44.465  10.851   4.225
55576W        W15112  17.632  39.448  13.851
55577W        W15113  43.344  21.207   3.307
55578W        W15114   4.826  43.485  12.961
55579W        W15115   0.959  25.652  12.493
55580W        W15116  27.068  23.560  14.282
55581W        W15117  37.358  19.773  12.545
55582W        W15118  22.634   9.348  12.351
55583W        W15119  26.001  18.760   3.214
55584W        W15120  14.796  27.487   0.469
55585W        W15121   3.458   4.256   4.215
55586W        W15122   1.907  23.079   0.269
55587W        W15123  32.959  17.166  12.016
55588W        W15124   9.261  38.537  13.841
55589W        W15125  14.284  13.721  13.464
55590W        W15126  11.197   9.161   4.250
55591W        W15127  25.111   8.380   3.327
55592W        W15128  13.631  33.888   3.824
55593W        W15129  35.515  31.618   0.795
55594W        W15130  32.005  36.931  11.494
55595W        W15131  40.454  42.398   0.944
55596W        W15132  31.617  19.582  14.434
55597W        W15133  26.105  28.619  14.396
55598W        W15134  23.659  11.687   4.249
55599W        W15135  40.307  28.607   2.312
55600W        W15136  15.232  40.019  11.457
55601W        W15137  20.064   1.324  12.982
55602W        W15138   3.355  20.550  10.434
55603W        W15139  35.943  25.000   3.220
55604W        W15140  29.098  14.200  14.843
55605W        W15141   1.368  18.055   4.678
55606W        W15142  26.123   7.839   0.392
55607W        W15143  21.525   7.412  12.417
55608W        W15144  44.821  23.650   1.302
55609W        W15145   0.912  32.429  10.911
55610W        W15146   1.442  41.863  14.456
55611W        W15147  28.955  36.075  12.943
55612W        W15148  21.242  44.940  10.993
55613W        W15149  12.319  27.526   0.922
55614W        W15150   2.275  25.159   3.706
55615W        W15151   2.832  24.180  10.426
55616W        W15152  39.409  39.516  13.424
55617W        W15153  30.559  13.768  11.999
55618W        W15154  39.839  26.046  10.601
55619W        W15155   8.373  34.034   3.666
55620W        W15156  25.642   3.364  12.005
55621W        W15157  38.874  41.309   4.793
55622W        W15158  14.227  11.766   0.962
55623W        W15159  36.392  40.983   0.744
55624W        W15160  32.058  35.446   2.231
55625W        W15161   3.813  23.659   2.760
55626W        W15162   7.232  14.631  14.027
55627W        W15163  35.589  21.189   4.348
55628W        W15164  43.871  32.932  11.029
55629W        W15165  19.146  19.777   3.202
55630W        W15166  25.681   7.391  12.835
55631W        W15167  44.327  37.522  14.850
55632W        W15168  39.849  41.036   4.726
55633W        W15169  41.839   9.737  13.445
55634W        W15170  18.621  16.740   2.764
55635W        W15171  17.163   0.933  14.513
55636W        W15172  29.517   0.467   1.380
55637W        W15173  11.247   0.835   3.146
55638W        W15174  32.923  32.016   5.264
55639W        W15175  24.027  24.604   4.220
55640W        W15176  42.940  13.753   1.292
55641W        W15177   7.703   8.319  12.416
55642W        W15178  30.119  31.076  11.935
55643W        W15179   7.239  28.648   2.367
55644W        W15180  23.730  44.997  12.394
55645W        W15181  43.364   6.875  13.541
55646W        W15182  39.428   6.426   0.945
55647W        W15183  35.546  30.455   1.423
55648W        W15184   6.280  26.679   2.179
55649W        W15185  34.421  44.367   1.360
55650W        W15186  39.943  15.673   4.678
55651W        W15187   9.754  26.092  13.321
55652W        W15188  20.067  38.522   1.834
55653W        W15189  28.623  24.543  12.855
55654W        W15190  22.155  33.021  10.125
55655W        W15191  17.673  18.256   1.364
55656W        W15192  25.626  31.934   1.315
55657W        W15193  23.021  39.855  11.470
55658W        W15194   2.313  27.588  11.042
55659W        W15195   1.278  12.741   4.750
55660W        W15196  18.604  40.307  12.867
55661W        W15197  42.304  10.237  12.370
55662W        W15198  20.671  30.003  14.276
55663W        W15199  13.260  41.388   5.095
55664W        W15200  28.667  30.074   0.897
55665W        W15201   0.922  14.335  12.569
55666W        W15202   9.284  31.465   2.738
55667W        W15203  15.253  16.593   1.858
55668W        W15204  37.359  40.849   0.275
55669W        W15205   8.695   8.686  13.940
55670W        W15206  40.345  35.966   0.808
55671W        W15207  10.632  26.554   2.747
55672W        W15208   0.289  37.533  12.885
55673W        W15209  39.849  12.785  14.826
55674W        W15210  10.267  35.410   4.132
55675W        W15211  43.923  39.351   0.479
55676W        W15212  33.402  38.894  12.530
55677W        W15213   6.305   9.653  14.500
55678W        W15214  12.761  34.901  11.555
55679W        W15215  30.073   7.218  11.448
55680W        W15216  34.961  24.599  10.515
55681W        W15217  16.587  10.679  10.955
55682W        W15218  31.924   7.894   0.406
55683W        W15219   7.787  37.001  11.587
55684W        W15220  40.928  29.962   0.760
55685W        W15221  21.082  16.589   3.319
55686W        W15222  25.973  18.617  10.610
55687W        W15223  30.089  15.763  12.090
55688W        W15224  41.449   2.898  10.464
55689W        W15225   2.898  41.342  10.474
55690W        W15226  37.561  25.707   0.388
55691W        W15227   7.893  15.786  14.345
55692W        W15228  32.050  43.767   2.701
55693W        W15229  40.517  20.557  13.512
55694W        W15230   9.693   5.691   0.812
55695W        W15231   0.793  28.975   0.368
55696W        W15232  14.724  23.055   3.268
55697W        W15233  28.435  28.082  10.453
55698W        W15234   5.225  11.199   3.189
55699W        W15235   9.700   4.841  12.517
55700W        W15236  23.112  19.085   2.403
55701W        W15237  30.628   5.409  14.359
55702W        W15238  18.131  26.022  13.372
55703W        W15239  23.182  38.984   3.807
55704W        W15240  29.953   1.859   2.347
55705W        W15241  29.518  25.518   0.473
55706W        W15242  43.002  43.481  13.437
55707W        W15243  12.832  18.111  14.313
55708W        W15244  26.173   6.339  14.012
55709W        W15245   1.937  16.252  12.874
55710W        W15246   1.837  35.363   3.821
55711W        W15247  33.933   4.716  14.975
55712W        W15248  12.652  43.368  12.580
55713W        W15249  35.372  22.682   4.620
55714W        W15250   1.954  29.046  11.051
55715W        W15251  24.021  44.917   4.128
55716W        W15252   8.712  29.528  12.007
55717W        W15253  22.162  21.751   2.872
55718W        W15254  23.125  39.952  13.460
55719W        W15255  18.087  22.707  13.399
55720W        W15256   2.900  40.956   4.685
55721W        W15257  29.164   9.738  13.389
55722W        W15258  40.413   9.700  11.514
55723W        W15259  41.005  39.994  14.916
55724W        W15260   8.670  21.156   1.247
55725W        W15261  41.015  43.949   3.695
55726W        W15262  27.672   4.443   0.905
55727W        W15263   8.339  20.650   4.757
55728W        W15264  30.148  28.511  10.480
55729W        W15265  27.497  27.543   3.279
55730W        W15266  27.587  17.693  14.381
55731W        W15267  27.011  30.636  10.443
55732W        W15268   6.802  38.859   3.651
55733W        W15269  28.066  21.513   3.269
55734W        W15270  28.018  40.005  14.317
55735W        W15271  44.348  18.647  14.331
55736W        W15272  12.231   3.868  12.504
55737W        W15273  30.005  23.584   3.855
55738W        W15274  29.530  34.584   4.240
55739W        W15275  31.014   6.857  11.378
55740W        W15276  32.920  42.930  14.969
55741W        W15277  37.834  28.063  11.048
55742W        W15278  28.643  10.360  14.824
55743W        W15279  25.176  41.503   2.766
55744W        W15280  30.079  29.651   4.324
55745W        W15281  38.379  16.668   2.234
55746W        W15282  20.245  10.679   3.743
55747W        W15283  44.952  25.013   2.673
55748W        W15284   7.266  20.244   5.250
55749W        W15285   6.272  12.709   0.738
55750W        W15286   3.221  21.075   0.742
55751W        W15287  41.921  21.601   1.810
55752W        W15288  28.589  35.536  12.528
55753W        W15289   0.344   8.386   4.659
55754W        W15290  20.180  15.784   0.786
55755W        W15291  22.579  33.893   4.638
55756W        W15292  14.731  35.556  12.498
55757W        W15293  13.751   2.395   0.313
55758W        W15294  35.454  33.090   1.241
55759W        W15295  39.870  11.366  10.090
55760W        W15296  28.493  14.234  12.050
55761W        W15297  15.756  19.769  14.777
55762W        W15298  28.645  15.146   4.149
55763W        W15299  11.636  13.114  12.860
55764W        W15300   3.225   2.732   3.362
55765W        W15301   0.325   8.742   1.902
55766W        W15302  35.413  37.016   4.292
55767W        W15303  35.924  34.440   1.217
55768W        W15304  29.585   9.718  12.973
55769W        W15305  15.610  33.556   0.244
55770W        W15306   8.237  39.522   2.771
55771W        W15307  28.558   2.921   3.865
55772W        W15308  27.535  20.704   3.178
55773W        W15309  40.903  14.254  13.899
55774W        W15310  19.223  33.016   0.476
55775W        W15311  11.727   0.350   2.716
55776W        W15312   2.741  19.631   1.231
55777W        W15313  19.692  36.410  14.977
55778W        W15314  33.527  40.048  12.500
55779W        W15315  44.945  44.858  12.974
55780W        W15316  40.351  42.300   3.831
55781W        W15317  36.988  44.385  12.516
55782W        W15318  18.586  38.538  10.987
55783W        W15319  26.534  42.427  12.402
55784W        W15320  20.230  42.873   2.867
55785W        W15321  21.608  34.540   3.264
55786W        W15322  35.457  34.607   3.199
55787W        W15323  29.053  23.516  12.077
55788W        W15324  29.468   8.681   1.811
55789W        W15325  31.044  43.299  11.454
55790W        W15326  19.229  38.415  12.496
55791W        W15327   8.845  24.188  13.545
55792W        W15328  39.361  14.106   4.310
55793W        W15329   8.667   8.854  13.492
55794W        W15330   7.892  16.685  14.380
55795W        W15331  34.032  27.035  10.566
55796W        W15332   7.320  38.474  13.813
55797W        W15333  21.066  30.116   3.216
55798W        W15334  40.849  36.036  13.994
55799W        W15335   7.731  15.684   3.313
55800W        W15336  31.596  23.507  10.493
55801W        W15337   1.930  35.515  10.603
55802W        W15338  14.720  32.428   1.374
55803W        W15339  29.547   8.795   4.170
55804W        W15340  40.831  42.424   4.697
55805W        W15341   8.883  28.065  13.389
55806W        W15342  28.550  43.923  13.930
55807W        W15343  39.429  23.563   5.232
55808W        W15344  18.586  11.294  12.347
55809W        W15345  26.992  14.641   3.386
55810W        W15346  41.813  43.021   2.758
55811W        W15347  41.855  32.428   2.329
55812W        W15348   9.805  19.674   4.761
55813W        W15349   9.262  13.295  11.026
55814W        W15350  34.486  40.868   3.321
55815W        W15351  39.875  21.230   2.216
55816W        W15352  39.007  28.047   2.316
55817W        W15353  12.852  43.326  13.491
55818W        W15354  37.853   9.700   1.376
55819W        W15355  12.701  43.461  13.060
55820W        W15356  37.511  15.772   5.102
55821W        W15357   6.361  21.025   1.901
55822W        W15358  28.053  27.955   0.768
55823W        W15359  20.719  24.071   2.264
55824W        W15360  44.374  39.480  14.005
55825W        W15361   6.358  20.595   1.713
55826W        W15362  22.735  40.941   1.887
55827W        W15363  44.385  20.733  14.894
55828W        W15364  18.242  35.960  13.484
55829W        W15365  44.910  37.485   0.860
55830W        W15366  31.116  16.622  13.353
55831W        W15367  31.059  39.978  10.977
55832W        W15368  24.144  31.519  14.354
55833W        W15369  29.016  14.660   2.184
55834W        W15370  25.999   4.943   5.166
55835W        W15371  22.174  18.573  13.489
55836W        W15372  12.174  29.655   2.365
55837W        W15373  16.679  34.914  10.902
55838W        W15374  42.874  24.170  13.790
55839W        W15375  18.598   4.347   0.740
55840W        W15376  42.963  35.094  10.984
55841W        W15377   9.830  32.450   3.678
55842W        W15378  18.051  18.199   3.847
55843W        W15379  31.139   1.471   4.789
55844W        W15380  19.219  36.496  10.937
55845W        W15381  25.516   1.308   4.130
55846W        W15382  37.548   6.385  13.989
55847W        W15383  35.531  19.623  14.785
55848W        W15384  19.188  17.677  12.993
55849W        W15385   9.209  40.349  14.964
55850W        W15386   6.246  12.126   0.401
55851W        W15387   2.370  34.582  13.317
55852W        W15388  15.259  34.511  12.466
55853W        W15389  32.509  43.836  13.826
55854W        W15390  13.342   3.782   0.395
55855W        W15391  29.051  13.303  13.348
55856W        W15392   0.856   0.281   4.835
55857W        W15393  17.223  33.401  11.494
55858W        W15394  10.834  29.993  13.821
55859W        W15395  22.122  37.383   4.676
55860W        W15396  18.144  11.831   1.257
55861W        W15397  10.868  27.112   2.366
55862W        W15398   8.680  14.601  11.502
55863W        W15399  42.897  30.500  11.097
55864W        W15400   2.737   1.240   0.429
55865W        W15401  13.838  30.919  13.450
55866W        W15402  41.944   7.290  13.388
55867W        W15403  25.062  13.710  13.803
55868W        W15404   4.797  36.939   2.871
55869W        W15405  40.800  17.656  10.562
55870W        W15406  15.764  25.593  14.924
55871W        W15407   2.311   5.251   0.327
55872W        W15408  31.914  26.158   4.331
55873W        W15409  18.703  34.573  12.397
55874W        W15410  21.044  42.928  13.541
55875W        W15411   7.898  27.636  13.052
55876W        W15412  22.026   0.860  12.860
55877W        W15413  12.750   9.356  12.068
55878W        W15414  19.189  32.611  11.079
55879W        W15415  16.254  37.576   0.825
55880W        W15416  39.892  17.121   3.688
55881W        W15417  34.558  22.107   1.875
55882W        W15418   8.859   9.390  11.027
55883W        W15419  19.741  36.578   3.337
55884W        W15420  19.597  25.197  11.001
55885W        W15421  21.113  33.099   2.731
55886W        W15422  26.498  15.681   4.303
55887W        W15423  32.994   6.212   2.271
55888W        W15424  11.221   2.789   4.689
55889W        W15425  35.948  25.575  11.478
55890W        W15426  39.375  35.417   3.377
55891W        W15427  13.725  34.387  13.479
55892W        W15428  40.324  28.094   2.419
55893W        W15429   6.784   4.365   2.329
55894W        W15430  10.670   8.283  12.861
55895W        W15431  37.407  27.473   0.303
55896W        W15432  43.327   4.344  13.429
55897W        W15433  37.536  29.500   1.249
55898W        W15434  41.788   6.390  14.768
55899W        W15435  30.018   3.232   2.662
55900W        W15436  27.568  40.328  10.633
55901W        W15437  14.226  31.547  11.461
55902W        W15438  43.961  21.260   2.889
55903W        W15439  15.685   7.677  14.932
55904W        W15440   3.729  35.448  11.949
55905W        W15441  16.190  23.707  14.961
55906W        W15442  26.680  13.764   0.407
55907W        W15443   9.682  20.604   4.230
55908W        W15444  32.939  17.077  13.429
55909W        W15445  42.388  11.654   1.348
55910W        W15446   7.702  30.618   4.751
55911W        W15447   0.406   7.817   1.894
55912W        W15448   6.831   8.370  13.342
55913W        W15449  25.601  32.052  12.406
55914W        W15450  37.848  25.036  14.438
55915W        W15451  41.452  15.681  11.066
55916W        W15452  37.837  26.065   1.450
55917W        W15453  22.557  10.182   5.199
55918W        W15454  10.221  41.473   4.648
55919W        W15455  29.168  30.556  13.448
55920W        W15456  15.593   3.847  14.019
55921W        W15457   4.898  10.638   2.355
55922W        W15458  33.885   7.812  10.445
55923W        W15459  20.550  17.267  11.477
55924W        W15460  27.944  31.082   0.733
55925W        W15461   2.314  16.113   4.731
55926W        W15462   3.395  20.138  13.314
55927W        W15463  21.241  35.882   3.211
55928W        W15464  32.423  31.969   2.832
55929W        W15465  13.134  22.021   0.923
55930W        W15466  27.953  31.647  11.969
55931W        W15467   7.257  43.505  11.969
55932W        W15468  26.634   4.800  13.374
55933W        W15469   0.380  41.850   2.224
55934W        W15470   2.459  41.029  12.449
55935W        W15471  39.885  40.933  12.552
55936W        W15472  44.505   1.821  12.040
55937W        W15473   3.734  10.643  10.420
55938W        W15474  18.175   1.963  13.920
55939W        W15475  38.550  35.986   4.679
55940W        W15476   0.387  17.663   0.921
55941W        W15477   6.306   0.387  14.917
55942W        W15478   0.401  32.604  12.479
55943W        W15479  32.566  44.932  11.000
55944W        W15480  39.338  41.306   0.903
55945W        W15481  34.459  41.997  13.958
55946W        W15482  44.984  22.226   0.794
55947W        W15483  29.109  38.407   4.815
55948W        W15484  19.619   1.830  10.635
55949W        W15485  25.111  11.245   3.287
55950W        W15486  34.903  18.787   3.675
55951W        W15487  24.564  38.421  11.126
55952W        W15488  41.370  34.607  13.863
55953W        W15489  27.193  23.639   1.771
55954W        W15490  14.653   1.857  12.826
55955W        W15491  15.647  39.844  14.347
55956W        W15492  26.066  31.966  14.791
55957W        W15493  36.383  23.077   0.752
55958W        W15494  19.222   9.723   1.783
55959W        W15495  18.221  13.639   0.955
55960W        W15496   2.452  35.916  13.055
55961W        W15497  25.649  36.946   3.380
55962W        W15498  14.197  27.667  12.526
55963W        W15499  40.985   1.403  11.119
55964W        W15500   4.769  15.096   1.223
55965W        W15501  14.596  11.736   2.709
55966W        W15502  30.070  17.596  12.861
55967W        W15503  29.610  20.587  14.768
55968W        W15504   9.374  44.872  14.387
55969W        W15505  35.919  12.726   4.745
55970W        W15506  17.773  25.710   4.626
55971W        W15507   2.922  44.979  13.399
55972W        W15508  33.127  27.115   0.330
55973W        W15509  30.421   0.782   1.316
55974W        W15510  28.016  38.343   4.119
55975W        W15511  15.600  16.103  10.996
55976W        W15512  12.287  11.641  12.344
55977W        W15513  15.187  16.719  14.004
55978W        W15514   1.446   3.954  14.291
55979W        W15515  15.159   1.369   4.648
55980W        W15516  41.024  20.698   3.309
55981W        W15517   5.756   5.264  12.854
55982W        W15518  11.199  17.729   1.379
55983W        W15519  37.015  33.054  11.018
55984W        W15520  12.716  24.999  11.487
55985W        W15521   0.982  30.102  12.906
55986W        W15522  30.020  34.014  11.422
55987W        W15523  41.347  35.433  13.424
55988W        W15524  37.048  41.826   1.838
55989W        W15525   2.433  25.060  12.451
55990W        W15526   6.205   6.857  12.434
55991W        W15527  35.945  26.582   2.414
55992W        W15528  18.755  18.109   2.773
55993W        W15529  30.500  39.325   4.130
55994W        W15530  27.970  28.602   0.858
55995W        W15531  24.151  31.602  12.967
55996W        W15532   2.359  41.855  13.546
55997W        W15533   1.478  16.250  14.514
55998W        W15534  30.951  35.014  10.421
55999W        W15535  34.496  17.072   4.227
56000W        W15536  12.157   6.238   1.333
56001W        W15537  31.534  35.875  10.624
56002W        W15538  33.907   7.248  14.413
56003W        W15539  19.660  34.893   1.783
56004W        W15540  18.598   9.309   0.769
56005W        W15541  13.321  12.351   3.831
56006W        W15542  38.438  37.947  12.966
56007W        W15543  19.220  33.036   0.945
56008W        W15544  11.351  22.232   0.321
56009W        W15545  20.722  30.621  13.977
56010W        W15546   1.299  16.737   4.326
56011W        W15547   9.177  10.377   0.435
56012W        W15548  44.929  37.437   3.668
56013W        W15549  28.526   6.286   0.904
56014W        W15550   5.301  27.623   2.868
56015W        W15551  34.573  31.568  10.999
56016W        W15552  41.832  23.220  11.948
56017W        W15553  29.625  30.594  10.028
56018W        W15554  11.857  26.628  11.606
56019W        W15555  33.066  23.099  12.514
56020W        W15556   1.756  22.685  11.380
56021W        W15557  15.133  21.125   0.774
56022W        W15558   5.884  15.798  11.123
56023W        W15559   1.770  36.956   4.674
56024W        W15560  40.943  20.073  13.815
56025W        W15561  12.335   1.262  12.381
56026W        W15562  39.468  22.553   0.299
56027W        W15563   5.699   3.443   1.775
56028W        W15564  19.758  40.509   4.750
56029W        W15565  23.196  25.523  10.545
56030W        W15566   0.370  33.464   0.372
56031W        W15567  38.896  28.610   0.449
56032W        W15568  40.821  43.470  11.477
56033W        W15569   3.729  32.890  10.532
56034W        W15570  42.905  23.584  10.979
56035W        W15571  10.689  22.195  12.488
56036W        W15572  42.982  37.967   2.731
56037W        W15573  17.136  25.102  10.089
56038W        W15574  40.384   6.428   5.172
56039W        W15575  35.013   8.223   2.865
56040W        W15576  25.469  38.907  14.508
56041W        W15577  11.828  14.758   3.745
56042W        W15578  15.587  41.492  11.416
56043W        W15579  14.249  25.190  14.314
56044W        W15580  17.652  27.064  10.452
56045W        W15581   5.690   3.945  14.021
56046W        W15582  39.998  11.354  12.024
56047W        W15583   6.411   6.182   0.756
56048W        W15584  20.234  42.803  14.368
56049W        W15585  38.026  18.165  13.964
56050W        W15586  16.111   3.373   0.340
56051W        W15587   7.695   4.770  11.857
56052W        W15588  28.169  31.525   0.476
56053W        W15589  26.987  12.751   5.276
56054W        W15590   7.368   2.914  14.382
56055W        W15591   8.280   9.799  13.847
56056W        W15592   3.797  43.934   3.638
56057W        W15593  24.062  33.481   3.301
56058W        W15594  43.875   4.239   4.346
56059W        W15595  41.348  22.250   0.951
56060W        W15596  38.489  14.745  10.963
56061W        W15597  44.006  39.050  12.884
56062W        W15598  35.575  19.754  10.909
56063W        W15599  36.427  18.740   0.371
56064W        W15600  40.314   2.944  12.541
56065W        W15601  24.170   1.439  12.381
56066W        W15602  25.604  12.170   1.797
56067W        W15603  43.467  33.063   4.687
56068W        W15604  14.637  22.044   3.267
56069W        W15605  40.045   4.303  10.897
56070W        W15606   9.285  30.522  12.035
56071W        W15607  34.936  35.926  11.867
56072W        W15608   1.351  29.918  11.881
56073W        W15609  23.622  27.459   0.471
56074W        W15610  22.033  42.813  14.782
56075W        W15611  22.627  26.694  10.519
56076W        W15612  31.968  16.766  10.566
56077W        W15613  41.032  27.537   2.257
56078W        W15614  14.809  22.528   4.183
56079W        W15615  39.875  19.191  10.594
56080W        W15616  24.088  12.358  10.472
56081W        W15617  38.412  36.485   0.773
56082W        W15618  21.635  35.857   1.762
56083W        W15619  37.032  25.113  10.612
56084W        W15620  38.035  33.012  12.030
56085W        W15621   7.815   7.763   4.215
56086W        W15622  25.035   4.852   0.735
56087W        W15623   4.879  14.823   4.638
56088W        W15624  26.695  23.699  11.047
56089W        W15625  18.761  30.093  12.360
56090W        W15626  25.506  29.546   1.816
56091W        W15627  27.124  43.310  12.517
56092W        W15628  12.774  15.261  14.978
56093W        W15629  30.467   0.455   1.348
56094W        W15630  28.937  30.046   0.313
56095W        W15631  17.685  25.705  11.507
56096W        W15632  44.776  43.469  12.548
56097W        W15633   5.713   0.304  11.950
56098W        W15634   6.774  37.365  13.848
56099W        W15635   4.821  32.420  10.480
56100W        W15636  35.514  43.960   4.209
56101W        W15637  22.130  40.462  11.492
56102W        W15638  41.927  23.181  14.774
56103W        W15639  22.136  38.992   3.321
56104W        W15640  33.975  29.106  13.882
56105W        W15641   8.890  22.598   0.332
56106W        W15642  32.515  27.527   4.160
56107W        W15643  27.974   4.884  10.532
56108W        W15644  16.182   8.217  12.355
56109W        W15645   1.933  38.953  13.361
56110W        W15646  11.713  15.685   4.698
56111W        W15647   1.914  39.864   0.393
56112W        W15648  11.332   7.784   2.831
56113W        W15649   0.350  30.595   2.222
56114W        W15650  32.889  15.319   2.724
56115W        W15651  39.875  12.776  11.005
56116W        W15652  38.914   9.840  11.590
56117W        W15653   9.286  31.564  14.483
56118W        W15654  36.082  25.172  13.375
56119W        W15655  19.571   0.747   4.263
56120W        W15656   8.893  26.987  11.890
56121W        W15657  27.079   9.156  12.420
56122W        W15658   4.713  14.754  12.876
56123W        W15659  15.667  34.881  11.504
56124W        W15660  14.776  13.338  10.631
56125W        W15661   6.341  24.498  14.813
56126W        W15662  17.285  38.556  14.336
56127W        W15663  41.309  30.470   2.767
56128W        W15664  14.328   9.368  14.506
56129W        W15665  35.550  15.296   2.769
56130W        W15666   6.338  12.731  13.034
56131W        W15667  13.839  28.144   2.217
56132W        W15668  42.029  44.370  12.824
56133W        W15669  33.129   9.689  10.887
56134W        W15670   6.805  32.967  13.878
56135W        W15671  39.983   5.343  14.011
56136W        W15672   3.333  22.010  14.811
56137W        W15673   5.697  39.446   2.711
56138W        W15674  25.575  30.112   1.907
56139W        W15675  14.617  25.057   4.669
56140W        W15676  18.282  12.304   4.613
56141W        W15677  35.055  23.560   5.196
56142W        W15678  14.797  20.594   3.305
56143W        W15679  16.666  36.529  12.389
56144W        W15680  23.085  26.702   2.285
56145W        W15681  28.503  23.141   4.151
56146W        W15682  42.452  24.120   1.852
56147W        W15683  23.637   0.265  12.546
56148W        W15684  29.588   8.796  14.506
56149W        W15685  42.889  28.573   4.195
56150W        W15686  20.550  40.462  10.433
56151W        W15687  40.409  39.969  12.396
56152W        W15688  24.709  17.110  12.851
56153W        W15689  19.222  26.659  12.959
56154W        W15690  32.943  19.141   1.303
56155W        W15691   9.267  25.156   9.560
56156W        W15692  40.883  24.718  12.999
56157W        W15693  38.416  24.996   2.291
56158W        W15694  33.504  16.585   1.321
56159W        W15695   4.897  44.457   5.300
56160W        W15696  15.115  40.877  13.943
56161W        W15697  33.964  37.938  12.083
56162W        W15698   9.703  42.837  13.836
56163W        W15699  16.187  39.931  12.946
56164W        W15700   6.385  38.370   0.871
56165W        W15701   2.954  31.953  11.064
56166W        W15702  21.257   0.875  13.490
56167W        W15703  19.282  38.966  11.526
56168W        W15704   6.853  43.386  12.002
56169W        W15705  27.453  41.502  13.019
56170W        W15706   1.341  20.202  14.853
56171W        W15707  34.869   4.350   4.237
56172W        W15708  17.721  14.711  14.885
56173W        W15709  33.118  20.735  14.361
56174W        W15710  25.531   3.374  11.462
56175W        W15711  20.029  31.549  11.399
56176W        W15712   8.200  44.325   4.634
56177W        W15713   3.448  15.810   5.134
56178W        W15714  40.956  44.477  10.544
56179W        W15715   5.413   9.810   0.361
56180W        W15716  30.079   8.351   1.758
56181W        W15717  12.280  12.707   0.737
56182W        W15718  21.190  13.812   1.744
56183W        W15719  26.023  16.629  10.478
56184W        W15720  35.507  17.796  14.516
56185W        W15721  33.462  33.984   3.814
56186W        W15722  35.430  23.070  13.450
56187W        W15723  19.113  40.007   3.205
56188W        W15724  22.091  29.089  14.466
56189W        W15725  14.250  25.188   4.790
56190W        W15726   1.351  41.032   4.649
56191W        W15727  32.132  43.014   2.209
56192W        W15728  43.994   1.472   1.221
56193W        W15729  30.618  44.951  11.032
56194W        W15730  15.227  30.956   3.828
56195W        W15731  19.760  40.428  12.082
56196W        W15732   0.469   8.839   0.886
56197W        W15733  43.340  14.172  13.802
56198W        W15734  42.780   9.715   1.890
56199W        W15735  30.129  18.782  12.020
56200W        W15736  40.946  13.610   0.931
56201W        W15737  24.554  11.299   1.784
56202W        W15738  35.911  42.801  14.453
56203W        W15739  26.059   7.401  12.492
56204W        W15740  36.928  13.281   3.756
56205W        W15741  25.148  10.356   2.855
56206W        W15742  21.216   5.858   2.250
56207W        W15743   1.865  29.102   1.287
56208W        W15744   3.714   8.251  12.568
56209W        W15745   8.709   5.771  13.330
56210W        W15746  28.560  41.371   2.760
56211W        W15747  44.955  14.333  12.554
56212W        W15748   9.726  29.656  10.522
56213W        W15749  27.628  29.564  13.503
56214W        W15750  31.077   2.472   4.338
56215W        W15751  44.337  29.588   2.887
56216W        W15752  38.971   5.842  13.457
56217W        W15753  42.343  32.019  11.521
56218W        W15754  12.341  19.655  13.381
56219W        W15755  29.423  15.106  12.001
56220W        W15756  39.516   9.768   3.241
56221W        W15757  34.978  25.192   2.301
56222W        W15758   0.870  31.945   1.869
56223W        W15759  11.182  35.949  14.339
56224W        W15760  23.734   2.383   3.731
56225W        W15761  13.350  21.686   2.267
56226W        W15762  13.156  30.092   3.165
56227W        W15763  24.116  12.824   4.821
56228W        W15764  10.163   6.358   1.866
56229W        W15765   1.425  33.491  14.447
56230W        W15766  40.841  27.563   0.855
56231W        W15767  34.564   7.306  14.362
56232W        W15768  23.724  17.293   0.918
56233W        W15769   4.449  36.011   2.679
56234W        W15770   3.786  29.062   1.281
56235W        W15771  16.243  39.039  10.405
56236W        W15772  13.134   4.882   3.150
56237W        W15773  21.589  23.643  10.546
56238W        W15774   1.959  38.824  12.827
56239W        W15775   5.688  43.394  14.278
56240W        W15776   7.877  44.485   3.180
56241W        W15777  38.447   5.720   4.729
56242W        W15778   7.822  18.646  12.432
56243W        W15779   6.417  28.139  10.013
56244W        W15780   3.299  40.376  11.917
56245W        W15781  20.763   2.835   4.247
56246W        W15782  14.650   5.728  11.478
56247W        W15783  15.253  35.945  12.040
56248W        W15784  40.978   5.255   2.732
56249W        W15785   9.273  22.077   3.716
56250W        W15786  32.032   3.434   3.838
56251W        W15787   8.279  14.747   3.678
56252W        W15788  40.318  26.613   2.352
56253W        W15789  18.094  28.170  14.934
56254W        W15790  38.548  37.392   3.382
56255W        W15791   9.383  25.528  13.430
56256W        W15792  10.268   8.679   4.809
56257W        W15793  41.516  11.322   1.779
56258W        W15794   8.257   1.907  10.911
56259W        W15795  29.552  27.085  12.829
56260W        W15796  33.401  29.667  13.807
56261W        W15797  16.085  21.076  12.031
56262W        W15798  15.280   0.402   4.138
56263W        W15799  36.062   6.681  11.096
56264W        W15800  42.380  13.617   0.726
56265W        W15801  42.916  13.329   1.887
56266W        W15802  15.138  19.664   0.419
56267W        W15803   2.803  43.937  12.485
56268W        W15804  43.419   1.780   0.956
56269W        W15805  43.969  22.158   4.222
56270W        W15806  35.406  12.247  14.839
56271W        W15807   3.338  19.688  12.543
56272W        W15808  20.642  14.640  11.537
56273W        W15809  44.983  15.130   3.647
56274W        W15810  36.856  39.376   1.247
56275W        W15811  17.127  43.507  13.960
56276W        W15812  31.450  12.252  13.445
56277W        W15813  13.651  20.705   2.322
56278W        W15814  35.569   3.353   4.339
56279W        W15815  33.437  26.562  12.868
56280W        W15816  29.641  44.469  11.449
56281W        W15817  30.971  21.169  12.829
56282W        W15818  20.702   7.320   3.217
56283W        W15819  15.314   7.317  11.890
56284W        W15820  37.987  24.160   1.333
56285W        W15821  44.945  21.131  12.559
56286W        W15822  18.576  29.020  10.409
56287W        W15823  10.353  39.050  11.584
56288W        W15824  44.857  35.874   2.896
56289W        W15825   9.658  44.339   3.674
56290W        W15826  18.712  23.121   3.641
56291W        W15827   1.303  42.787  10.909
56292W        W15828   8.828  42.448  12.487
56293W        W15829  35.372  42.490   3.294
56294W        W15830   9.258   1.322  13.836
56295W        W15831   6.240   7.301  11.116
56296W        W15832  27.573  40.363  13.975
56297W        W15833  17.106  14.794  13.936
56298W        W15834  22.140  42.437  13.959
56299W        W15835  41.321  32.916  12.881
56300W        W15836  27.180  37.477   0.388
56301W        W15837  38.937  22.683   2.808
56302W        W15838  12.171  26.165   2.319
56303W        W15839  26.566  38.455  13.830
56304W        W15840  39.946  24.054   2.294
56305W        W15841  14.218   6.380  12.989
56306W        W15842  28.034  29.101  14.874
56307W        W15843  22.205  16.273  12.557
56308W        W15844  40.903  22.130   2.870
56309W        W15845  34.107  37.882  12.430
56310W        W15846  31.942  23.688   3.206
56311W        W15847  38.990  30.583  11.471
56312W        W15848  38.905  24.653   0.963
56313W        W15849  16.092  25.176  10.450
56314W        W15850  36.926   9.212   2.666
56315W        W15851  12.618  18.292   0.849
56316W        W15852  28.655  15.160  12.901
56317W        W15853   8.739   4.232   0.748
56318W        W15854  35.949  15.814   2.777
56319W        W15855  15.139  25.999   0.866
56320W        W15856  25.704  21.181  13.329
56321W        W15857  33.964   7.359   1.799
56322W        W15858  42.458  12.157   0.816
56323W        W15859  13.182  34.463   2.300
56324W        W15860  14.817  27.191  11.874
56325W        W15861  14.814  32.134  12.572
56326W        W15862  16.609   7.705  11.486
56327W        W15863  28.143  34.586   4.682
56328W        W15864  25.980  10.146   3.848
56329W        W15865  24.199   0.974  13.391
56330W        W15866  40.978   9.211   4.340
56331W        W15867   6.723  42.935  13.431
56332W        W15868  17.097  35.089   0.360
56333W        W15869  33.887  40.330  11.532
56334W        W15870   1.405   3.397   1.343
56335W        W15871  22.701  18.767  11.573
56336W        W15872  34.996  25.531   3.669
56337W        W15873  13.762  23.057   1.869
56338W        W15874  37.433  31.459  10.423
56339W        W15875  41.032   8.781  12.925
56340W        W15876   1.288  28.178  10.903
56341W        W15877   7.858  20.242   2.764
56342W        W15878  43.774  43.989  11.877
56343W        W15879   0.772  31.578   1.832
56344W        W15880  43.304   5.305   4.297
56345W        W15881   6.374  40.432  13.043
56346W        W15882  31.479   5.234   2.734
56347W        W15883  25.130  25.662  10.547
56348W        W15884  29.949  34.523   2.413
56349W        W15885  17.076  16.621  10.160
56350W        W15886  17.677  42.338  13.359
56351W        W15887  20.528  18.783   2.698
56352W        W15888  21.637   5.891  10.459
56353W        W15889  13.288  28.958   2.411
56354W        W15890  18.770  28.163  12.533
56355W        W15891  43.838   5.781   3.240
56356W        W15892  44.362  12.250  13.952
56357W        W15893  43.475   8.260  13.005
56358W        W15894  36.378   8.211   0.797
56359W        W15895  39.478  24.511  10.576
56360W        W15896  41.882   3.334  12.920
56361W        W15897   5.718   3.276  10.539
56362W        W15898   2.956  20.765   2.710
56363W        W15899  35.071  24.553   2.699
56364W        W15900  30.043  23.197  12.093
56365W        W15901  30.162  35.435   0.772
56366W        W15902  10.221  20.725  12.889
56367W        W15903  20.549  23.234   9.983
56368W        W15904  31.582   9.878  12.935
56369W        W15905  29.943  39.386  11.579
56370W        W15906   6.406   5.900   1.820
56371W        W15907  27.683  18.259  13.877
56372W        W15908  20.617  44.003   2.755
56373W        W15909  16.701  43.424   2.242
56374W        W15910  21.625  34.117  12.521
56375W        W15911  11.187  21.174  11.455
56376W        W15912  32.419   9.850  12.561
56377W        W15913   6.263   3.727   0.288
56378W        W15914  19.240  44.430  12.853
56379W        W15915  16.083  43.469  14.509
56380W        W15916  13.328  38.503   3.643
56381W        W15917  27.962   9.742   0.259
56382W        W15918  26.673   4.809   3.746
56383W        W15919  35.478  29.575   0.855
56384W        W15920  10.343  37.087  11.459
56385W        W15921  23.614  24.550   3.749
56386W        W15922  20.645   0.943   0.280
56387W        W15923  19.684  16.192  11.609
56388W        W15924  30.047   1.382  10.500
56389W        W15925  42.870  29.946  13.371
56390W        W15926  39.976  24.675  14.499
56391W        W15927   0.922  31.432   1.392
56392W        W15928  42.914   2.383  11.592
56393W        W15929   0.272   4.741  11.127
56394W        W15930  33.966  19.775   1.399
56395W        W15931  31.434  36.377  14.967
56396W        W15932  13.716   4.764  10.541
56397W        W15933  44.267  11.232   2.807
56398W        W15934  26.637  16.073   1.287
56399W        W15935  16.638  44.445   2.793
56400W        W15936   8.870   7.242  13.847
56401W        W15937  29.100   7.822  12.964
56402W        W15938   5.812  25.141   4.192
56403W        W15939  41.321  23.223   3.775
56404W        W15940  40.875  35.511   1.442
56405W        W15941   2.328   5.786  13.414
56406W        W15942  11.820  11.651   2.180
56407W        W15943   3.939  42.301  10.928
56408W        W15944  14.754  12.354  11.610
56409W        W15945  15.297  14.104   2.722
56410W        W15946  24.526  22.633  10.422
56411W        W15947  38.547  33.534   2.845
56412W        W15948   2.230  19.063   3.224
56413W        W15949  29.035  13.137  14.414
56414W        W15950   4.701   7.373   4.836
56415W        W15951  39.470   6.409   1.918
56416W        W15952   2.292  44.470   3.272
56417W        W15953  41.502  44.796   3.676
56418W        W15954  32.635  24.598   5.134
56419W        W15955  20.206  33.073   4.234
56420W        W15956  24.132   6.799   2.683
56421W        W15957  31.930  23.042  13.947
56422W        W15958  15.813   5.837  11.377
56423W        W15959  30.535  24.536  12.005
56424W        W15960  17.754   3.825   4.319
56425W        W15961  20.230   7.414  13.451
56426W        W15962  12.164  34.463  13.906
56427W        W15963  31.052   8.709   3.686
56428W        W15964  10.823  28.958   2.798
56429W        W15965  42.300  19.064   3.355
56430W        W15966  21.545  35.604   3.312
56431W        W15967  19.204  26.098  12.988
56432W        W15968   0.937  13.239  10.553
56433W        W15969   5.280  33.051   3.632
56434W        W15970  10.324  40.402   3.190
56435W        W15971  26.029  40.341   4.311
56436W        W15972  24.038  23.075  14.998
56437W        W15973  39.401  43.901  11.867
56438W        W15974  35.951   5.282   2.674
56439W        W15975   9.223  21.172  14.480
56440W        W15976   8.406   7.711  12.537
56441W        W15977  14.788  42.938  12.944
56442W        W15978  20.102  21.078   0.817
56443W        W15979   1.365  12.336   5.195
56444W        W15980  20.049  14.679  14.484
56445W        W15981  24.980  23.572   4.318
56446W        W15982  33.955  20.029   3.800
56447W        W15983  36.858  44.474   5.184
56448W        W15984  42.024  22.194  11.612
56449W        W15985  33.509  18.660   0.793
56450W        W15986  29.173  43.787   0.820
56451W        W15987   3.377  18.166   2.874
56452W        W15988  16.760  36.476  10.539
56453W        W15989  42.404  35.396   3.652
56454W        W15990  21.529   2.858   4.251
56455W        W15991  21.089  32.125  12.436
56456W        W15992   6.786  11.743  11.105
56457W        W15993   4.773  21.262  11.379
56458W        W15994  21.096  11.712   3.223
56459W        W15995  30.921  42.298   1.926
56460W        W15996   3.234  33.023  10.539
56461W        W15997  18.623  29.067   3.258
56462W        W15998  40.952  15.157   3.838
56463W        W15999  33.048   2.452  12.029
56464W        W16000  28.165  26.650  12.994
56465W        W16001  20.698  29.935   1.822
56466W        W16002  36.950  26.007  13.467
56467W        W16003   8.805   4.712   5.165
56468W        W16004  10.842  43.854  14.319
56469W        W16005  22.632  17.782   2.309
56470W        W16006   1.817  34.391   3.290
56471W        W16007   4.746   0.917   4.334
56472W        W16008  19.058   3.907   4.124
56473W        W16009  29.051  10.864   3.738
56474W        W16010  11.650  23.208   0.799
56475W        W16011  21.049  16.726  10.031
56476W        W16012  10.291  13.755  10.913
56477W        W16013  26.573  42.378  14.357
56478W        W16014  39.921  13.238  13.044
56479W        W16015  22.624  27.598  13.868
56480W        W16016  37.372  14.179  10.537
56481W        W16017  28.079  17.266   0.404
56482W        W16018  34.378   7.849   3.199
56483W        W16019  21.622  27.005  12.383
56484W        W16020  25.667  40.373  13.868
56485W        W16021  20.045  35.420   2.269
56486W        W16022  40.038   9.722   0.317
56487W        W16023  33.947  29.143   4.791
56488W        W16024  44.294  33.103  11.078
56489W        W16025  17.573  11.270  14.342
56490W        W16026  41.793  28.108   3.823
56491W        W16027   5.437  17.125   2.707
56492W        W16028  44.293  17.697   0.965
56493W        W16029  24.002  38.021   0.360
56494W        W16030  17.787  36.873   2.392
56495W        W16031   4.941  32.460  14.494
56496W        W16032  24.635  10.747   3.335
56497W        W16033  12.354  25.177  13.482
56498W        W16034   3.353  34.577  11.032
56499W        W16035  26.125   1.743  14.819
56500W        W16036  39.501   2.931  11.019
56501W        W16037  19.636  33.082   3.678
56502W        W16038  30.424  22.097   3.252
56503W        W16039  32.488   4.745  11.122
56504W        W16040  18.625  36.845   2.412
56505W        W16041   1.433  43.503  12.089
56506W        W16042  10.658  39.056   4.827
56507W        W16043  33.069  12.275   3.215
56508W        W16044  24.228  30.956   2.795
56509W        W16045   8.360  28.063   0.869
56510W        W16046  23.038  33.891   4.638
56511W        W16047  37.023   6.215   2.670
56512W        W16048   3.838  40.465   4.703
56513W        W16049  40.377  25.017   4.317
56514W        W16050  17.274  17.098  13.922
56515W        W16051   6.193  17.285  11.502
56516W        W16052  21.651  11.281   4.174
56517W        W16053  37.898  35.996   0.757
56518W        W16054  18.253  32.576   2.739
56519W        W16055   5.764  25.210   0.478
56520W        W16056  37.851  41.845  11.475
56521W        W16057  31.566  20.212  12.385
56522W        W16058  35.860  28.473  11.098
56523W        W16059   9.829   5.327   1.411
56524W        W16060  12.237   7.203  14.448
56525W        W16061  15.655  34.442   0.848
56526W        W16062  41.304   4.273   1.392
56527W        W16063  41.423  24.009   3.185
56528W        W16064  22.724  28.049   4.333
56529W        W16065  40.427  11.153  13.537
56530W        W16066  29.635   0.979   2.719
56531W        W16067  37.461  39.910  14.322
56532W        W16068  11.841  40.904   0.338
56533W        W16069  21.634  19.261  14.773
56534W        W16070  19.188  22.031   0.444
56535W        W16071  12.700  27.620  11.036
56536W        W16072  28.595   3.297  13.357
56537W        W16073  25.112   0.893  14.902
56538W        W16074  20.628  41.003   4.641
56539W        W16075   5.321  24.162  14.968
56540W        W16076  40.932  12.310  14.826
56541W        W16077  28.947  16.271   1.832
56542W        W16078  19.548  20.656   1.363
56543W        W16079  26.677  32.932   0.911
56544W        W16080  26.101  33.020  14.878
56545W        W16081  15.237  38.033   4.713
56546W        W16082  13.140  24.005   3.782
56547W        W16083  15.129   1.747   0.793
56548W        W16084  29.535  11.671  14.450
56549W        W16085  26.609  14.221   0.404
56550W        W16086  19.201   1.454  11.544
56551W        W16087  32.471  44.893  14.902
56552W        W16088  32.078  38.544   0.839
56553W        W16089  19.193  30.466  12.095
56554W        W16090  30.071  10.222   0.950
56555W        W16091  26.523   8.883   3.727
56556W        W16092  37.889  14.834  12.035
56557W        W16093  28.454  26.490   3.631
56558W        W16094  11.138  10.164  10.466
56559W        W16095  40.966  31.445  12.009
56560W        W16096  41.978  31.427   4.185
56561W        W16097   2.293  32.974   3.790
56562W        W16098  23.203  37.873  12.919
56563W        W16099  40.509  20.536  13.906
56564W        W16100  40.496  13.242  14.993
56565W        W16101  28.578   6.200   3.776
56566W        W16102  15.268  43.505  12.363
56567W        W16103   2.889   4.818  14.887
56568W        W16104   1.250  38.847   3.207
56569W        W16105  38.877  29.619  12.897
56570W        W16106  39.349  29.582  12.924
56571W        W16107  16.734  37.443  12.533
56572W        W16108  39.051  31.528  10.503
56573W        W16109  16.293   6.780  13.906
56574W        W16110  39.506  14.622   0.312
56575W        W16111  17.256  39.945  11.413
56576W        W16112  28.435  37.061   1.211
56577W        W16113  42.948  28.499   3.365
56578W        W16114   5.858  34.064   1.354
56579W        W16115  11.821  35.436  14.014
56580W        W16116  32.470  21.205   1.912
56581W        W16117  37.017  39.852   0.260
56582W        W16118   1.875  18.284  10.995
56583W        W16119  13.269  30.977  10.897
56584W        W16120  22.692  25.523  10.048
56585W        W16121  17.283  18.230   0.847
56586W        W16122  16.644  32.591  11.566
56587W        W16123   7.680   0.926   0.435
56588W        W16124  21.621  33.091   1.744
56589W        W16125   0.904  41.888   3.669
56590W        W16126  40.549  42.466  12.945
56591W        W16127  24.133  15.201  13.880
56592W        W16128  29.984  41.893  14.860
56593W        W16129  44.313  39.889   0.416
56594W        W16130  42.823  35.396  11.030
56595W        W16131  44.477  21.614   0.881
56596W        W16132  25.141   8.300  14.974
56597W        W16133  43.906  41.980   4.115
56598W        W16134  12.626  19.647  12.525
56599W        W16135  29.119   4.814   2.257
56600W        W16136  14.810  24.992  11.567
56601W        W16137  37.485  41.987   1.393
56602W        W16138  32.930  30.076   3.829
56603W        W16139  20.702   1.424   3.383
56604W        W16140  41.885  43.961  14.850
56605W        W16141  38.403  17.714  12.859
56606W        W16142  17.774  15.615  11.060
56607W        W16143   8.280  39.532  10.910
56608W        W16144  10.719  35.512  11.570
56609W        W16145  18.743  34.969   3.285
56610W        W16146   3.406  34.098  12.919
56611W        W16147   9.277  11.708   4.716
56612W        W16148  16.096  20.624  12.493
56613W        W16149   3.384  40.547  13.888
56614W        W16150  12.689  41.815  11.606
56615W        W16151  44.915  22.182   2.761
56616W        W16152  12.183  13.772   1.864
56617W        W16153  40.427  42.030   0.888
56618W        W16154  13.303  13.115  14.328
56619W        W16155  28.601  35.559  14.839
56620W        W16156  35.498  34.937  11.389
56621W        W16157   2.294  27.649  12.375
56622W        W16158   3.718  20.219   4.641
56623W        W16159  21.530  25.216  11.403
56624W        W16160  16.278  29.602   4.788
56625W        W16161  24.565   2.788   2.779
56626W        W16162  43.285  14.656  12.998
56627W        W16163  13.721  19.065  13.890
56628W        W16164   9.176  44.285  14.514
56629W        W16165  32.610   2.250  12.037
56630W        W16166  44.757  25.155   5.789
56631W        W16167  43.994  29.604   3.784
56632W        W16168  29.670  19.579   2.847
56633W        W16169  13.839  35.374   1.885
56634W        W16170  40.346  19.759   1.819
56635W        W16171  25.048   0.903   1.237
56636W        W16172  24.985  11.198   3.809
56637W        W16173   1.789  13.671   4.231
56638W        W16174  32.984  44.777   4.160
56639W        W16175  13.821  42.414  12.945
56640W        W16176  40.323  44.457   1.813
56641W        W16177   0.478  29.668  11.901
56642W        W16178  31.924   6.835   0.281
56643W        W16179  36.936  17.779   4.293
56644W        W16180  24.181  44.855  12.495
56645W        W16181   9.715  39.998   1.407
56646W        W16182  41.293   2.451  12.916
56647W        W16183   5.215  44.418   4.146
56648W        W16184  21.701  24.992   3.215
56649W        W16185  15.134  20.647  13.844
56650W        W16186  31.547   1.310  10.479
56651W        W16187  28.965   4.288  12.437
56652W        W16188  32.924   5.733   2.719
56653W        W16189  38.893   0.338   2.197
56654W        W16190  20.050  37.957  13.010
56655W        W16191  22.116  34.492  12.403
56656W        W16192   2.743  31.011   4.318
56657W        W16193  18.194  28.514  14.813
56658W        W16194  39.967   6.330  13.977
56659W        W16195  40.449   3.717  13.059
56660W        W16196  41.440  20.091  13.400
56661W        W16197   1.269   1.336  13.506
56662W        W16198  22.673  11.362   2.866
56663W        W16199   6.340  35.493  12.925
56664W        W16200  32.059  25.523   0.433
56665W        W16201  28.680  27.092  12.471
56666W        W16202   6.831  39.064   0.427
56667W        W16203  27.153  27.985  10.525
56668W        W16204   3.256  30.057   2.872
56669W        W16205  30.056  28.156  11.945
56670W        W16206  36.524  17.136  10.449
56671W        W16207  12.845   2.377   1.450
56672W        W16208  15.304  19.145  14.004
56673W        W16209  22.108  39.869   4.788
56674W        W16210  37.582  30.066   4.334
56675W        W16211  12.610  43.913   2.415
56676W        W16212   7.882   8.895   3.752
56677W        W16213  16.734   2.256   4.297
56678W        W16214   7.208  43.409  14.473
56679W        W16215  17.242  25.096  14.941
56680W        W16216  26.496  40.018  12.428
56681W        W16217  41.445  25.713  12.892
56682W        W16218  22.661  26.675  14.346
56683W        W16219   1.435  20.612  12.490
56684W        W16220  28.565  16.783   2.738
56685W        W16221   1.976   9.203  12.060
56686W        W16222  28.611   2.824  11.079
56687W        W16223  23.518  14.272  13.917
56688W        W16224  14.304  25.549  14.831
56689W        W16225  22.196  29.542   4.127
56690W        W16226   3.906   7.860  12.888
56691W        W16227  24.044  37.453   4.273
56692W        W16228  12.218  16.609  14.905
56693W        W16229  42.979  13.170  12.958
56694W        W16230  44.796  37.837  13.812
56695W        W16231  40.947  11.296   9.509
56696W        W16232  21.535  15.291  12.845
56697W        W16233  16.089  44.297   1.450
56698W        W16234  34.538  25.073  11.008
56699W        W16235   9.244  32.561   2.321
56700W        W16236   0.439  34.464   3.783
56701W        W16237   4.410  19.150   1.328
56702W        W16238  27.018   6.427   1.416
56703W        W16239  22.712   3.937   1.262
56704W        W16240   9.364  27.095  13.332
56705W        W16241  35.990  38.069  13.371
56706W        W16242   5.435   7.874  11.462
56707W        W16243  37.491  14.618   1.848
56708W        W16244  44.938  38.921  12.870
56709W        W16245   2.815  14.305   2.664
56710W        W16246  35.565   6.905  13.529
56711W        W16247  42.015   4.238  13.330
56712W        W16248   3.756  10.153  11.493
56713W        W16249  28.612  39.961  10.913
56714W        W16250   6.714  16.673  10.575
56715W        W16251   7.877  28.616  11.095
56716W        W16252  44.801   3.762   4.191
56717W        W16253  17.718   8.689   0.728
56718W        W16254  10.693  36.915  11.560
56719W        W16255  30.512  12.848  14.408
56720W        W16256  20.207  33.950   1.765
56721W        W16257  40.309   9.886   4.149
56722W        W16258  33.938   3.850  13.843
56723W        W16259  18.231  40.869   2.312
56724W        W16260  36.437  40.418  10.427
56725W        W16261  34.532  28.185   1.426
56726W        W16262  40.833  43.768   2.385
56727W        W16263   5.241  30.114  14.286
56728W        W16264  36.918  20.108  12.008
56729W        W16265  30.453  21.637   3.341
56730W        W16266  30.160  17.567   3.213
56731W        W16267  37.993   3.405   0.775
56732W        W16268  12.744  40.908  12.438
56733W        W16269  38.388  15.235  13.407
56734W        W16270  31.970  39.041  11.038
56735W        W16271   0.402  37.392   5.115
56736W        W16272  25.687  11.145   3.373
56737W        W16273   3.282  30.084  11.468
56738W        W16274  30.509  19.193   3.801
56739W        W16275  16.117   7.219  11.453
56740W        W16276  28.474  32.892   2.209
56741W        W16277  39.411  39.976   1.238
56742W        W16278   2.274  26.524  12.534
56743W        W16279   0.255  22.216  13.987
56744W        W16280   2.290   5.928   2.738
56745W        W16281  24.592  20.687  14.912
56746W        W16282  17.616  29.017  14.498
56747W        W16283  44.861  28.126   0.898
56748W        W16284  38.547  26.534  13.478
56749W        W16285  11.635  18.668  11.537
56750W        W16286  30.134  16.183  13.901
56751W        W16287  29.141  24.210   3.300
56752W        W16288  15.701  23.062   2.728
56753W        W16289   2.904  26.541  10.118
56754W        W16290  22.178  38.927   0.744
56755W        W16291   4.743  14.652   5.241
56756W        W16292  43.380  24.616   1.302
56757W        W16293  26.098   3.903   2.361
56758W        W16294  19.212  19.068  12.068
56759W        W16295  25.213  34.452  14.893
56760W        W16296  27.596  22.175  14.497
56761W        W16297  15.611  42.369   4.735
56762W        W16298  27.038  34.915   0.415
56763W        W16299  25.042   8.209   1.901
56764W        W16300   1.943  37.870   1.404
56765W        W16301  43.910  11.665   1.842
56766W        W16302   8.897   2.880   0.790
56767W        W16303  23.612  35.396   0.796
56768W        W16304  23.631  20.651  14.374
56769W        W16305  13.664  40.506   4.172
56770W        W16306  13.652  10.252  11.967
56771W        W16307  35.525  31.937   0.289
56772W        W16308  12.151  26.064  10.409
56773W        W16309  22.533  19.609  14.872
56774W        W16310  11.189  24.104   3.707
56775W        W16311  33.902  26.650   1.881
56776W        W16312  13.270  19.103  13.807
56777W        W16313  23.507  18.546  12.536
56778W        W16314  18.105   1.821  10.553
56779W        W16315  26.656  17.718  13.333
56780W        W16316  29.950  14.792   3.323
56781W        W16317  12.170   2.916   3.321
56782W        W16318  31.475  44.771  14.330
56783W        W16319  24.206  38.464  13.882
56784W        W16320  33.067  34.979  12.366
56785W        W16321  40.854  20.626  11.489
56786W        W16322  24.509  23.240   2.707
56787W        W16323  17.632  12.319   3.693
56788W        W16324  19.134  35.434  11.962
56789W        W16325  40.965  13.271   3.299
56790W        W16326   7.708  15.808   4.738
56791W        W16327  32.026  34.523  13.925
56792W        W16328   4.333  28.169  11.121
56793W        W16329   8.335  41.786  12.895
56794W        W16330   5.763  14.140   3.328
56795W        W16331  34.897  39.856  13.307
56796W        W16332   8.883  30.452   0.949
56797W        W16333  44.410  20.250   1.386
56798W        W16334  42.870  10.766   4.749
56799W        W16335  34.991  11.320  10.537
56800W        W16336  12.221  35.055  12.383
56801W        W16337   5.383  20.040  12.450
56802W        W16338  23.052  25.023  10.495
56803W        W16339  21.732  18.646   3.851
56804W        W16340  43.854  17.111   2.698
56805W        W16341  27.006  10.222  10.154
56806W        W16342   5.430  27.050   2.766
56807W        W16343  23.584  34.497   2.811
56808W        W16344  35.386  25.500  11.033
56809W        W16345  44.827  26.995  12.949
56810W        W16346  28.603  33.533  12.470
56811W        W16347  39.890  24.625   2.214
56812W        W16348  21.215  38.506   2.290
56813W        W16349   0.473  18.614  14.961
56814W        W16350   9.191  41.318   3.838
56815W        W16351  11.351  18.603  10.486
56816W        W16352  34.116  33.413   1.786
56817W        W16353  43.301  35.413   3.378
56818W        W16354  13.627  39.518   1.821
56819W        W16355   1.366   2.323  14.335
56820W        W16356  16.156  32.469   1.265
56821W        W16357  34.553   3.217   3.147
56822W        W16358  33.874  42.028   2.727
56823W        W16359  28.943  19.662   4.333
56824W        W16360  25.035  33.539   2.885
56825W        W16361  30.016  24.005   2.880
56826W        W16362  36.450  41.915  13.017
56827W        W16363  16.808  13.172  12.026
56828W        W16364  32.584  30.624   0.927
56829W        W16365  20.668  41.417   3.819
56830W        W16366  12.156  11.666  14.807
56831W        W16367   4.371   8.749  11.030
56832W        W16368   5.337  32.605  11.918
56833W        W16369  43.847  37.047  14.510
56834W        W16370  11.361  39.963   2.713
56835W        W16371  12.127  28.665  12.895
56836W        W16372   1.953  22.677  13.038
56837W        W16373  16.722  25.061   4.733
56838W        W16374   2.235  35.062   1.734
56839W        W16375  22.685  18.641  14.885
56840W        W16376  30.116  44.003  12.077
56841W        W16377  34.544  12.688   0.960
56842W        W16378   5.333   0.297  13.465
56843W        W16379   4.773   9.786   3.369
56844W        W16380  10.175  36.536  10.952
56845W        W16381  26.676   0.810  11.510
56846W        W16382  40.537   0.920   2.263
56847W        W16383   1.364  24.176   9.677
56848W        W16384  19.642  33.385  11.074
56849W        W16385   9.384  28.504  12.466
56850W        W16386  32.931   6.865  13.811
56851W        W16387  16.263  13.612  12.019
56852W        W16388  15.629  38.471  13.849
56853W        W16389   0.956   2.835  10.960
56854W        W16390  10.671  33.876   3.189
56855W        W16391  41.513  40.023  13.914
56856W        W16392  30.629  21.632  13.822
56857W        W16393  27.641   8.235   1.855
56858W        W16394  13.821  21.025  10.437
56859W        W16395  43.854   3.373  10.471
56860W        W16396  24.710  41.297  10.638
56861W        W16397  32.478  28.635   3.328
56862W        W16398   0.405  37.941  11.610
56863W        W16399   8.724   2.293  11.597
56864W        W16400  10.846   6.762  14.801
56865W        W16401   0.272  17.733  10.566
56866W        W16402  20.692  19.199  13.862
56867W        W16403  14.192   4.375  14.451
56868W        W16404  42.988  29.561   2.832
56869W        W16405   5.263  22.700   3.275
56870W        W16406  36.045  10.307   3.335
56871W        W16407  29.104  34.458  11.385
56872W        W16408  15.126  29.513   3.749
56873W        W16409  22.195  28.447  12.492
56874W        W16410  19.111   5.866  13.845
56875W        W16411  44.503  15.693  13.444
56876W        W16412  16.196  20.185   1.266
56877W        W16413  16.092  35.949  13.445
56878W        W16414  33.530  20.044  10.131
56879W        W16415  40.981  21.202  14.906
56880W        W16416  16.675  29.062  14.765
56881W        W16417  35.423  40.310  12.523
56882W        W16418  18.088  28.450   0.366
56883W        W16419  16.774  16.200   0.800
56884W        W16420  36.453  24.069  12.411
56885W        W16421  13.152  10.634   1.735
56886W        W16422  28.496   5.878  11.596
56887W        W16423  13.833  25.707   3.347
56888W        W16424  29.080  28.018  14.362
56889W        W16425  19.619   5.203  12.506
56890W        W16426   1.915  24.632  11.062
56891W        W16427  14.800  22.534  12.875
56892W        W16428  38.337  30.049  11.481
56893W        W16429  33.539  12.614  14.821
56894W        W16430  32.007  44.903  12.377
56895W        W16431  36.376  21.046   2.718
56896W        W16432   1.263  35.399   4.829
56897W        W16433   7.892  14.682   3.287
56898W        W16434   2.468  20.693  13.816
56899W        W16435  28.548  16.142  10.929
56900W        W16436   5.849  26.074  10.534
56901W        W16437  24.586   0.411   4.230
56902W        W16438  29.059  12.134   1.404
56903W        W16439  21.653  15.682   3.382
56904W        W16440  17.307  27.621  13.408
56905W        W16441   1.463  30.131   0.874
56906W        W16442  27.009  32.969  13.796
56907W        W16443   6.696   9.339   1.694
56908W        W16444  41.421   8.379   3.856
56909W        W16445  35.865  40.546  14.020
56910W        W16446   5.857   3.828  11.973
56911W        W16447   0.397  19.271   3.386
56912W        W16448   9.716  29.647  13.019
56913W        W16449  13.304   5.696  14.508
56914W        W16450  13.276  35.950   1.793
56915W        W16451  18.684  31.451   4.180
56916W        W16452  29.506  28.486   1.857
56917W        W16453  43.425  44.280  12.852
56918W        W16454   2.964  20.625   2.215
56919W        W16455   8.214  40.530  11.508
56920W        W16456  28.045   8.338  12.422
56921W        W16457  23.149   3.237   2.729
56922W        W16458   3.310  19.096   2.727
56923W        W16459  41.904   3.456  11.547
56924W        W16460   6.280  44.486  10.952
56925W        W16461  34.967  41.850  12.435
56926W        W16462  33.511  16.078   2.328
56927W        W16463  22.226  37.422   2.667
56928W        W16464  38.513  39.381   2.807
56929W        W16465  37.924  21.521  13.532
56930W        W16466  31.572  15.619  13.953
56931W        W16467   4.932  30.508  13.466
56932W        W16468  14.307  35.941   4.698
56933W        W16469  36.502   3.907   2.373
56934W        W16470  36.023  22.167   2.357
56935W        W16471  19.118  37.447   1.722
56936W        W16472  13.630   8.688  14.436
56937W        W16473  38.872  14.118  12.998
56938W        W16474  37.980  23.238   4.173
56939W        W16475   0.982  36.392  11.566
56940W        W16476  12.787  38.889   1.321
56941W        W16477   0.826  11.645  14.514
56942W        W16478  36.355   8.325  14.492
56943W        W16479   5.830  40.525  11.510
56944W        W16480   9.722  14.713   1.231
56945W        W16481  30.997  43.328   3.679
56946W        W16482  32.515   8.737   4.679
56947W        W16483  40.416  23.064  10.601
56948W        W16484   7.390  13.821  12.409
56949W        W16485  20.617  22.626   4.782
56950W        W16486  35.402  43.002   3.780
56951W        W16487  29.519  11.260  13.494
56952W        W16488  17.236  31.924  13.043
56953W        W16489  33.957   9.350   0.749
56954W        W16490   6.280  22.102  10.424
56955W        W16491  14.748  37.393   4.203
56956W        W16492  10.664   9.188  12.450
56957W        W16493  25.665  37.443  14.460
56958W        W16494  38.339  40.507   4.147
56959W        W16495  43.896  10.730   3.740
56960W        W16496  39.521  16.224  11.603
56961W        W16497  11.670  25.207  10.489
56962W        W16498  16.802   1.835   1.212
56963W        W16499  39.455  29.997  14.515
56964W        W16500  11.671  39.376  11.062
56965W        W16501  19.693   3.448   3.166
56966W        W16502  11.713   2.824   0.782
56967W        W16503  37.929  23.666  11.477
56968W        W16504  34.937  42.866   0.266
56969W        W16505   9.783  18.164   0.346
56970W        W16506  43.440  39.812   5.255
56971W        W16507  26.192  31.126  12.887
56972W        W16508   1.920  14.256   1.286
56973W        W16509  25.565  25.650  13.804
56974W        W16510  44.796  32.443   2.246
56975W        W16511  12.251  32.068   4.645
56976W        W16512   9.704   6.808  14.412
56977W        W16513  29.023  32.460   2.309
56978W        W16514  20.537  36.912  12.565
56979W        W16515  14.603  24.978   0.444
56980W        W16516  11.219  17.136  11.050
56981W        W16517  23.720  38.493   2.669
56982W        W16518  36.049  37.054   2.710
56983W        W16519  43.406  15.645  13.339
56984W        W16520  19.719  43.278  12.476
56985W        W16521   5.689  34.552   4.664
56986W        W16522  36.489  24.641  12.477
56987W        W16523  37.428  31.579   3.243
56988W        W16524  15.158  44.921  11.922
56989W        W16525  27.569  36.065  13.406
56990W        W16526   2.897  18.127  13.359
56991W        W16527  11.690  10.651   1.896
56992W        W16528   0.310  31.098   4.735
56993W        W16529  34.398  14.167   3.747
56994W        W16530  25.180  18.739  12.969
56995W        W16531  25.523  15.707  12.892
56996W        W16532   3.317   3.366   1.856
56997W        W16533  36.964  38.908  10.623
56998W        W16534  25.516  20.620   3.644
56999W        W16535  40.036   3.362   1.880
57000W        W16536  12.833  43.013  11.072
57001W        W16537  11.303  25.576   3.822
57002W        W16538   3.837  44.902  11.098
57003W        W16539  42.364   4.380   2.249
57004W        W16540  28.615  13.320   2.809
57005W        W16541  25.967  36.366  11.498
57006W        W16542  29.555  15.184  14.856
57007W        W16543  17.087  20.123  13.829
57008W        W16544  31.571  20.623   4.124
57009W        W16545   7.677  28.047   4.194
57010W        W16546   3.834  24.670   0.793
57011W        W16547  18.773  23.527   1.818
57012W        W16548   7.350  32.134  13.498
57013W        W16549  44.811  44.939   0.869
57014W        W16550   9.886  30.618  12.908
57015W        W16551  10.290  43.335   1.818
57016W        W16552   8.317  35.459   0.911
57017W        W16553  44.453   8.190  11.982
57018W        W16554  41.910  26.462  11.920
57019W        W16555  26.637  18.231  12.833
57020W        W16556   4.283  15.324   2.851
57021W        W16557   1.290  23.126  11.558
57022W        W16558  34.045  10.267   0.370
57023W        W16559  14.599  22.166  12.530
57024W        W16560  35.499  11.814  14.439
57025W        W16561  33.489   2.806  14.881
57026W        W16562  27.690  11.825   3.802
57027W        W16563  38.053  43.325   5.734
57028W        W16564  39.402  25.050  11.868
57029W        W16565  11.212  37.934   2.203
57030W        W16566  21.524  21.668   5.082
57031W        W16567  10.860  26.101   0.314
57032W        W16568  28.046  29.523   4.696
57033W        W16569  33.968   5.238  14.473
57034W        W16570  37.357  10.686   1.701
57035W        W16571  40.492  40.420  13.822
57036W        W16572  21.608  29.544  12.006
57037W        W16573  31.444  31.636   0.805
57038W        W16574  29.929  29.098  13.958
57039W        W16575  15.586   5.371   3.369
57040W        W16576  41.296  38.391   2.207
57041W        W16577  17.147  42.018   2.296
57042W        W16578  11.207  20.732   0.408
57043W        W16579   5.869  18.781   3.667
57044W        W16580  34.934  33.024  14.949
57045W        W16581   4.760  19.737   4.178
57046W        W16582  22.687  18.115   5.089
57047W        W16583  22.562  11.779   0.822
57048W        W16584  31.977   0.390   9.999
57049W        W16585  33.488  39.912   2.201
57050W        W16586  32.139   8.687   4.213
57051W        W16587  30.519  17.101  12.965
57052W        W16588  14.735  38.060   1.764
57053W        W16589   2.888  15.739   2.823
57054W        W16590   2.358  35.571  14.444
57055W        W16591  33.463  32.115  13.958
57056W        W16592  28.076  20.682  14.870
57057W        W16593  22.679   3.439  13.538
57058W        W16594   6.298  25.583  12.952
57059W        W16595   7.367  12.329   2.792
57060W        W16596  40.859   5.275   3.374
57061W        W16597   4.269  31.121  11.612
57062W        W16598  20.252  27.494  11.583
57063W        W16599   9.356   8.182  14.013
57064W        W16600  17.284  25.084  13.419
57065W        W16601  40.464  37.364  13.810
57066W        W16602  38.855  26.999   1.451
57067W        W16603  39.538  17.193  14.935
57068W        W16604  27.949  12.755   0.948
57069W        W16605   4.406  18.566  13.835
57070W        W16606  22.571   7.266   0.793
57071W        W16607  35.419  26.647  11.561
57072W        W16608   7.299  32.068   2.716
57073W        W16609  30.544  30.021   3.864
57074W        W16610  21.643  33.424  13.822
57075W        W16611  17.691  29.991   3.786
57076W        W16612  30.022  40.016   0.358
57077W        W16613  34.048  25.062   4.258
57078W        W16614  38.441  28.675  12.891
57079W        W16615  21.661   3.451   3.280
57080W        W16616  15.256  13.163  11.058
57081W        W16617  35.015  31.414   0.440
57082W        W16618  17.629  11.306   3.691
57083W        W16619  25.533  36.555   1.262
57084W        W16620   6.411  26.571   3.318
57085W        W16621  35.538  42.364   3.696
57086W        W16622   9.813  29.988  10.522
57087W        W16623  24.709  38.441  14.782
57088W        W16624  10.207  10.849  10.902
57089W        W16625  17.616  22.087  10.931
57090W        W16626  34.604  42.817  12.858
57091W        W16627  40.856  20.598  13.874
57092W        W16628   4.363   7.237   4.139
57093W        W16629  28.066  12.150   0.320
57094W        W16630  21.225  26.144   4.823
57095W        W16631   7.749  28.637  12.373
57096W        W16632   1.844  37.977  12.850
57097W        W16633   5.320  13.726   2.666
57098W        W16634   5.232  44.937   0.360
57099W        W16635  34.552  44.927   0.813
57100W        W16636  35.045  24.149  14.378
57101W        W16637   8.807  11.676   4.723
57102W        W16638  23.624  10.687   4.284
57103W        W16639  22.657  42.287  14.469
57104W        W16640   5.282   1.318   2.872
57105W        W16641  11.261  20.582  14.822
57106W        W16642  17.619  31.122   4.274
57107W        W16643  25.146  43.875  11.953
57108W        W16644   2.383  42.473   2.341
57109W        W16645   7.727  27.658   1.290
57110W        W16646  39.416  22.608   2.879
57111W        W16647   1.302   1.740   4.824
57112W        W16648  26.098  18.755  13.984
57113W        W16649  17.265  23.167   1.311
57114W        W16650  42.300  30.494  11.110
57115W        W16651  44.885   5.761  13.048
57116W        W16652  20.147  40.924   2.796
57117W        W16653  34.097  41.902  14.314
57118W        W16654  42.892  24.166  11.516
57119W        W16655  32.950  44.423  13.982
57120W        W16656   7.329  41.900   4.604
57121W        W16657   3.291   4.252   2.845
57122W        W16658   4.225  22.202  11.515
57123W        W16659  38.548  19.084  10.428
57124W        W16660   3.460  14.311  11.461
57125W        W16661  21.606  43.931  10.531
57126W        W16662  10.181  25.169   1.743
57127W        W16663  25.491  24.481  13.332
57128W        W16664  43.360  37.550  10.642
57129W        W16665  19.774   6.872  11.528
57130W        W16666  17.618  24.532  10.484
57131W        W16667  27.110  24.997   1.892
57132W        W16668  36.362  44.912  12.508
57133W        W16669   4.935  38.047  11.048
57134W        W16670  10.241  25.617   1.219
57135W        W16671  32.511   3.933  12.953
57136W        W16672  21.262  30.575   0.923
57137W        W16673  13.154  43.427  13.001
57138W        W16674  26.677   5.364   0.356
57139W        W16675   1.272  40.932  12.833
57140W        W16676  33.548   3.824   1.385
57141W        W16677  10.725  16.175   3.347
57142W        W16678  29.120  12.331  12.043
57143W        W16679  11.763  33.073   2.745
57144W        W16680   0.851  31.049   2.819
57145W        W16681   0.425  43.956  13.020
57146W        W16682  34.554  39.005  12.974
57147W        W16683  18.133  16.800   0.418
57148W        W16684  32.067  18.647   1.326
57149W        W16685  35.577   4.446   0.732
57150W        W16686   4.225  41.485  11.063
57151W        W16687   1.809  34.531   2.856
57152W        W16688  30.123   7.908   2.761
57153W        W16689  26.110  34.077  12.091
57154W        W16690  42.513  31.405  13.980
57155W        W16691  31.544  24.716  11.939
57156W        W16692   5.335  23.228   2.387
57157W        W16693  26.083  20.662   0.450
57158W        W16694   8.396   1.452  13.530
57159W        W16695   4.878  23.540   4.781
57160W        W16696  38.483   5.200   2.865
57161W        W16697  28.537  21.155  11.508
57162W        W16698  34.114   9.162  14.427
57163W        W16699  20.097  27.055   3.727
57164W        W16700   5.327   6.918   1.905
57165W        W16701  17.704  34.585  10.573
57166W        W16702   9.270  41.387  10.033
57167W        W16703  31.420   1.945  12.510
57168W        W16704  14.312  44.766  14.903
57169W        W16705  21.175  26.046   5.118
57170W        W16706  13.836   9.274  12.539
57171W        W16707  29.523  42.289  13.804
57172W        W16708  16.621  11.319   1.361
57173W        W16709  30.599  29.000   4.294
57174W        W16710   8.274  15.145  13.814
57175W        W16711  39.360   0.799  14.395
57176W        W16712   2.419  29.137  10.628
57177W        W16713  36.041  34.442   1.880
57178W        W16714  41.857  30.506  12.488
57179W        W16715  29.923  13.312   4.225
57180W        W16716  17.652  22.668   0.471
57181W        W16717  34.101  30.505  12.443
57182W        W16718  30.129  25.629   3.632
57183W        W16719  22.707  44.437  12.353
57184W        W16720  21.757  16.260  12.917
57185W        W16721  24.052  39.938   9.977
57186W        W16722  19.091  23.703  13.440
57187W        W16723   2.956   3.816   3.228
57188W        W16724  42.286  12.789   1.750
57189W        W16725  14.750  23.121   0.890
57190W        W16726  17.592  40.384   4.681
57191W        W16727   6.722  28.014   2.748
57192W        W16728  44.390  26.107   3.813
57193W        W16729  34.088  17.166  11.063
57194W        W16730  17.072  21.555  10.961
57195W        W16731  42.810  44.993   0.455
57196W        W16732  31.575  35.878   1.771
57197W        W16733  33.893  33.944   3.830
57198W        W16734   5.747   5.754   0.295
57199W        W16735  42.954  22.175  12.928
57200W        W16736  12.649  10.156  11.037
57201W        W16737  11.816  23.187  10.519
57202W        W16738  41.799  27.973  12.571
57203W        W16739  37.996   6.891  13.499
57204W        W16740   0.870  43.450  10.453
57205W        W16741   7.708  18.203   4.342
57206W        W16742  34.954  10.858   1.258
57207W        W16743  32.574  29.069  10.565
57208W        W16744  19.656  16.233   1.430
57209W        W16745  14.640  25.185  10.024
57210W        W16746   3.346  23.717  14.315
57211W        W16747  42.867  30.442   4.672
57212W        W16748  30.932  31.926   5.142
57213W        W16749  39.528  20.125   1.792
57214W        W16750  22.225   2.878   5.743
57215W        W16751  33.614  41.845   4.724
57216W        W16752  18.658  20.266  13.407
57217W        W16753  37.513  30.579  10.026
57218W        W16754  15.154  11.352   1.387
57219W        W16755  17.195  21.097   4.723
57220W        W16756  33.414  20.706  11.106
57221W        W16757  11.257  19.574  14.318
57222W        W16758  21.622  32.084  12.363
57223W        W16759   8.240  15.585  11.464
57224W        W16760  31.111  19.159   1.320
57225W        W16761  40.414  30.100  12.980
57226W        W16762  38.346   3.370   4.136
57227W        W16763   5.413  11.344   2.716
57228W        W16764  21.140  44.799   0.242
57229W        W16765  28.592  11.274  13.901
57230W        W16766  14.793   6.900  11.493
57231W        W16767  33.451  38.830   1.906
57232W        W16768  15.215  23.715  11.402
57233W        W16769   7.255  27.983  10.994
57234W        W16770  32.573  32.527   3.728
57235W        W16771  34.447  20.558  11.516
57236W        W16772  40.885  31.477   4.609
57237W        W16773  42.419  23.138  12.466
57238W        W16774  21.197  43.928  11.910
57239W        W16775  17.143  14.601  11.958
57240W        W16776  39.976   5.816   1.266
57241W        W16777  14.792  38.359  10.996
57242W        W16778  26.049  13.809  13.019
57243W        W16779  28.541  28.157   0.373
57244W        W16780   0.402  18.581  11.374
57245W        W16781  21.636  25.219  14.803
57246W        W16782  11.135  41.001   0.266
57247W        W16783  23.170  34.465  10.405
57248W        W16784  12.624  21.141  11.108
57249W        W16785  14.332   6.846  13.927
57250W        W16786  36.013  29.572   2.739
57251W        W16787  38.390   5.751  11.060
57252W        W16788  39.920   8.759   1.366
57253W        W16789  37.372  17.606  13.000
57254W        W16790  23.195  26.482   3.663
57255W        W16791   9.708  11.173  13.380
57256W        W16792  28.449  22.615   3.734
57257W        W16793  37.454  34.077  12.841
57258W        W16794  40.471  29.605   2.273
57259W        W16795   9.154  21.674  13.911
57260W        W16796  12.362  34.911  13.876
57261W        W16797   0.492  21.732   1.415
57262W        W16798  16.261  26.507  12.555
57263W        W16799  20.237  23.636  13.804
57264W        W16800  31.003  13.243  13.454
57265W        W16801  29.460  25.051   9.517
57266W        W16802  28.668   0.408   0.747
57267W        W16803   9.725  35.888   1.319
57268W        W16804  14.248   3.768  12.095
57269W        W16805   1.476  40.977  14.395
57270W        W16806  29.494  33.546   2.178
57271W        W16807  18.258  37.560   4.753
57272W        W16808  43.844   6.873   0.875
57273W        W16809  23.055  27.517   2.404
57274W        W16810  12.683  26.564   2.221
57275W        W16811  42.478   2.815  12.078
57276W        W16812  24.603  11.841  11.964
57277W        W16813  40.054  14.591  12.364
57278W        W16814   7.403   9.679  14.768
57279W        W16815  30.082   1.851  11.979
57280W        W16816  21.040  41.371  13.365
57281W        W16817  12.767  27.645   2.754
57282W        W16818   4.233  24.516   0.783
57283W        W16819  29.644  13.779  14.818
57284W        W16820  25.660   9.751  13.469
57285W        W16821  30.963  18.263   3.362
57286W        W16822  19.648  27.682  10.954
57287W        W16823  17.168  27.981  13.952
57288W        W16824  18.790  37.864  11.928
57289W        W16825  32.101  42.819   2.714
57290W        W16826  11.181  15.767   1.271
57291W        W16827   2.934  14.201  11.940
57292W        W16828  39.429  31.000  14.455
57293W        W16829   1.371  14.785  11.427
57294W        W16830  24.706   7.727   4.290
57295W        W16831  42.283  44.868   3.383
57296W        W16832  19.276  16.714  12.379
57297W        W16833  33.530  27.661   1.809
57298W        W16834   9.267  39.943   0.728
57299W        W16835  41.024  42.939   2.695
57300W        W16836  36.098  26.962   5.618
57301W        W16837  27.136  44.409   1.436
57302W        W16838  16.225  11.212  12.902
57303W        W16839   2.830  10.356  11.397
57304W        W16840  30.515  26.628   0.367
57305W        W16841   8.240   5.403  10.511
57306W        W16842   9.366  39.833  14.979
57307W        W16843   4.272  13.676  11.122
57308W        W16844   8.688   7.361   2.844
57309W        W16845  33.441  12.676  12.502
57310W        W16846  25.000  42.521  11.971
57311W        W16847  44.010  36.560   1.279
57312W        W16848  24.148   0.283  12.873
57313W        W16849  18.285  27.111   3.373
57314W        W16850   4.250  12.253   3.157
57315W        W16851   8.218  44.960  10.439
57316W        W16852  34.934  23.994   2.319
57317W        W16853   0.470   1.827   2.773
57318W        W16854  26.105   9.246  14.481
57319W        W16855  27.507  14.120  10.553
57320W        W16856  36.910  25.711  14.815
57321W        W16857  34.111  39.412  14.335
57322W        W16858  25.586  16.165  13.323
57323W        W16859  11.154   3.727  10.590
57324W        W16860   1.369  13.756   4.679
57325W        W16861   3.893   8.670  12.476
57326W        W16862  36.978  23.196   1.307
57327W        W16863  31.522   7.910  11.372
57328W        W16864  20.066  35.983   2.180
57329W        W16865  30.625  18.650   0.328
57330W        W16866  44.479  33.591  12.037
57331W        W16867  44.890  37.443   5.095
57332W        W16868   5.765   1.754  10.469
57333W        W16869  18.193  33.416   4.752
57334W        W16870  17.224  30.479   2.259
57335W        W16871  18.225  40.864  12.472
57336W        W16872  18.226  18.296   5.618
57337W        W16873   4.708  24.484   0.322
57338W        W16874  39.397  19.196   1.845
57339W        W16875  42.874  28.091  12.923
57340W        W16876  44.321   8.232   1.761
57341W        W16877  27.108  10.260   0.306
57342W        W16878  44.759  16.251   2.257
57343W        W16879  40.373  11.784  14.478
57344W        W16880  11.730  25.125  11.380
57345W        W16881  29.041  29.939   3.339
57346W        W16882   9.701   2.274   4.637
57347W        W16883  28.558   4.763  10.920
57348W        W16884   5.742   4.791   4.620
57349W        W16885  31.634   0.366  13.372
57350W        W16886  42.331  10.672   3.283
57351W        W16887  30.989  32.474   3.203
57352W        W16888  28.599  14.707  10.585
57353W        W16889  10.730  28.465  10.597
57354W        W16890  29.934   2.459   2.303
57355W        W16891  38.843  26.131   1.273
57356W        W16892  21.719  44.298  11.072
57357W        W16893  20.158  17.235  11.492
57358W        W16894  19.117   5.265   4.825
57359W        W16895  29.437  13.761   2.205
57360W        W16896  38.984   5.201  12.869
57361W        W16897  29.627  21.619   0.472
57362W        W16898  35.573   7.806  10.440
57363W        W16899  37.387   4.847  10.967
57364W        W16900  35.001   1.240  11.886
57365W        W16901  14.604  33.889   2.359
57366W        W16902  19.617   9.169  13.916
57367W        W16903  30.001   5.900   3.704
57368W        W16904  21.204   8.210   3.220
57369W        W16905  43.993  26.031   4.652
57370W        W16906  24.557  25.991  12.356
57371W        W16907  14.256  33.432   0.364
57372W        W16908  44.941  43.020   2.668
57373W        W16909   3.377  34.390  10.628
57374W        W16910  22.726  27.941  13.397
57375W        W16911  19.669  11.131  14.996
57376W        W16912  41.021  29.553   0.877
57377W        W16913   3.772   3.913   3.157
57378W        W16914  11.735  43.305  10.557
57379W        W16915  29.002  25.175   3.822
57380W        W16916  10.232  14.283  13.863
57381W        W16917  22.151   9.359  11.041
57382W        W16918  44.812  27.181   1.818
57383W        W16919  33.898  10.185  13.974
57384W        W16920   3.838  44.891   1.726
57385W        W16921  10.315   3.286  10.617
57386W        W16922  34.026   2.758   2.702
57387W        W16923  16.663  26.084   3.315
57388W        W16924   9.795  21.223   0.733
57389W        W16925   6.207  30.537   4.780
57390W        W16926  30.514  10.201  11.027
57391W        W16927  36.474   9.317  13.823
57392W        W16928  15.616  16.315   0.878
57393W        W16929  38.011   1.893  10.893
57394W        W16930  33.574  24.066  12.845
57395W        W16931  38.875  43.833   2.351
57396W        W16932  10.262   3.230  10.916
57397W        W16933  43.339  30.990  10.422
57398W        W16934  23.628   3.287  14.876
57399W        W16935  26.084  30.938  11.126
57400W        W16936  35.002  10.747  12.837
57401W        W16937  36.881  23.597  11.604
57402W        W16938  18.070  38.056  14.000
57403W        W16939  26.071  38.976  10.553
57404W        W16940  39.495  36.385   2.327
57405W        W16941   6.908  24.703  13.808
57406W        W16942  28.482  12.641   4.228
57407W        W16943  42.976  39.979  11.871
57408W        W16944  17.288  37.952   4.716
57409W        W16945  40.303  37.546  14.927
57410W        W16946  16.075  24.018  12.013
57411W        W16947  36.006  41.989   2.248
57412W        W16948  20.079  38.513  10.450
57413W        W16949  29.091  13.640   2.671
57414W        W16950  24.188  26.491  10.472
57415W        W16951   5.738  41.803   0.388
57416W        W16952  20.182  11.718  13.015
57417W        W16953   2.375  34.889   2.317
57418W        W16954   6.369   4.348  13.940
57419W        W16955  36.985  21.172   4.269
57420W        W16956  17.605   2.751  13.472
57421W        W16957  17.160  18.144   1.378
57422W        W16958  34.540  30.487  14.451
57423W        W16959  32.437  12.739  14.905
57424W        W16960   4.343  39.039  13.486
57425W        W16961   6.274  43.908  14.367
57426W        W16962  15.618  26.003   1.369
57427W        W16963  42.520   9.394   1.367
57428W        W16964  14.269  23.050  12.008
57429W        W16965  30.916  25.988  12.033
57430W        W16966   1.417  16.675   3.760
57431W        W16967  10.692   3.385   1.701
57432W        W16968  29.170  44.368  10.901
57433W        W16969  28.033  33.926   2.732
57434W        W16970  17.573  30.440  13.811
57435W        W16971  17.277   6.189  13.895
57436W        W16972  35.896   7.816   4.750
57437W        W16973  13.687  44.375  14.829
57438W        W16974  21.691  20.104   1.358
57439W        W16975   3.244  37.542   5.114
57440W        W16976  30.930  14.100   3.662
57441W        W16977  26.491  19.643  12.995
57442W        W16978  10.375  10.138  11.490
57443W        W16979  32.896   2.957   0.727
57444W        W16980  24.671  20.201   2.303
57445W        W16981  41.022  31.013   1.932
57446W        W16982  37.520  23.158   1.930
57447W        W16983   7.208  13.738  10.486
57448W        W16984  13.663  11.262   2.330
57449W        W16985   8.781  37.931  14.910
57450W        W16986  22.538  21.183  14.812
57451W        W16987  26.157  39.019  12.981
57452W        W16988  29.637  11.357   3.849
57453W        W16989   5.230  25.707  11.566
57454W        W16990  27.136  22.131  12.992
57455W        W16991   1.258  24.139   3.272
57456W        W16992  11.142  37.896   0.864
57457W        W16993  31.097  34.881   0.743
57458W        W16994  10.832  26.015   3.223
57459W        W16995  28.643  26.675  13.033
57460W        W16996  42.973   5.830  12.835
57461W        W16997  43.414  42.889  12.087
57462W        W16998  14.807  38.569  12.062
57463W        W16999  34.582  16.274  13.824
57464W        W17000   3.831  22.511  14.414
57465W        W17001  15.211  37.572   3.153
57466W        W17002  34.566  23.176  10.160
57467W        W17003  30.959  35.871   2.409
57468W        W17004  17.766  22.715   0.880
57469W        W17005  24.708  20.115  13.876
57470W        W17006  27.940  42.915   9.968
57471W        W17007  23.217   3.806   0.744
57472W        W17008  16.586  35.033  12.951
57473W        W17009  44.289  43.276  12.930
57474W        W17010   6.805  10.844   1.335
57475W        W17011  16.210  32.111   2.224
57476W        W17012  36.929  14.289   1.888
57477W        W17013  29.166   6.417  10.921
57478W        W17014  30.452   6.903   2.298
57479W        W17015  11.653  16.613   2.376
57480W        W17016  32.058  36.381   0.766
57481W        W17017  37.031  14.807  11.460
57482W        W17018  31.578  33.437  12.552
57483W        W17019  22.112   3.928   0.295
57484W        W17020  26.683  13.337   4.837
57485W        W17021   4.815  28.087   0.789
57486W        W17022  12.631   5.710  12.379
57487W        W17023  25.697  13.121   0.744
57488W        W17024  19.735  41.020  14.000
57489W        W17025  25.142  29.163   3.233
57490W        W17026   4.254  20.259  11.976
57491W        W17027  20.659  39.351  12.063
57492W        W17028  15.755  22.567   1.306
57493W        W17029  40.047  23.125  12.021
57494W        W17030  40.989  14.732  11.494
57495W        W17031  10.319   0.289  10.489
57496W        W17032  41.318  31.054  10.518
57497W        W17033  42.322  27.962   4.352
57498W        W17034  38.390  19.702   1.253
57499W        W17035  25.047  28.013  10.903
57500W        W17036  37.520  31.402  14.966
57501W        W17037   8.846  44.291   3.843
57502W        W17038  21.751  26.965   1.795
57503W        W17039  26.975  44.793  13.885
57504W        W17040  31.592   6.392  12.899
57505W        W17041   7.347  17.083  12.042
57506W        W17042   8.704  11.772  13.307
57507W        W17043  33.467  33.464  14.868
57508W        W17044  27.552  15.784  10.555
57509W        W17045   9.661  40.831   4.247
57510W        W17046  24.169   2.410   5.177
57511W        W17047   5.880  16.641   3.789
57512W        W17048  31.906  26.613   0.327
57513W        W17049  21.587  13.145   2.315
57514W        W17050   9.311  26.968   0.293
57515W        W17051  41.410  12.812   0.315
57516W        W17052  31.419  38.379  13.864
57517W        W17053  14.738   0.410  14.356
57518W        W17054   1.833   7.272   1.792
57519W        W17055   3.390  16.191   4.326
57520W        W17056   7.195   0.748  12.095
57521W        W17057  22.103  29.555   3.727
57522W        W17058  10.712   0.387  11.913
57523W        W17059  20.159  21.106  11.027
57524W        W17060  17.793  29.122   3.708
57525W        W17061  10.360  25.152   2.328
57526W        W17062  20.055  22.577   0.745
57527W        W17063  43.291  19.588  10.066
57528W        W17064  36.587   0.858  12.049
57529W        W17065  14.715  18.684  12.080
57530W        W17066   3.802  11.261  12.926
57531W        W17067  39.370  34.463   2.711
57532W        W17068  12.217  17.727   4.663
57533W        W17069  13.179  39.820   2.393
57534W        W17070   7.376   4.911  12.083
57535W        W17071   1.378  16.686   2.676
57536W        W17072   2.244  17.272  10.503
57537W        W17073  23.626  36.889   1.764
57538W        W17074  34.978   3.294  11.461
57539W        W17075  26.184  36.580  13.533
57540W        W17076  39.422  44.315   0.447
57541W        W17077  12.277  36.453   3.848
57542W        W17078  11.727   9.728  10.939
57543W        W17079   8.863   3.452   3.189
57544W        W17080  29.664  16.136  10.512
57545W        W17081  16.605  16.318  14.027
57546W        W17082  41.515  24.647  11.418
57547W        W17083  39.823  12.123  11.523
57548W        W17084  27.123   5.289   0.813
57549W        W17085  33.055  22.226  14.308
57550W        W17086  21.064   1.838  13.924
57551W        W17087  39.854   3.410   4.823
57552W        W17088  41.476  42.943  14.791
57553W        W17089  28.594  42.462  11.378
57554W        W17090  23.141  33.457  10.539
57555W        W17091  42.890   0.255  14.945
57556W        W17092  38.541  24.024  12.041
57557W        W17093   3.244   8.292   1.873
57558W        W17094  42.358   4.821   2.749
57559W        W17095  26.544  14.615  11.064
57560W        W17096  35.007  36.999   3.724
57561W        W17097   7.411  42.027   0.405
57562W        W17098  10.850   0.321   3.278
57563W        W17099   0.907  15.815  10.998
57564W        W17100  25.972  23.017  11.069
57565W        W17101   3.222  30.527  11.500
57566W        W17102   0.808  22.737   3.760
57567W        W17103  41.031  39.922   4.282
57568W        W17104  17.141  30.469  11.946
57569W        W17105  21.190  32.511   3.687
57570W        W17106  21.560   6.293  13.959
57571W        W17107  39.810  31.998   5.231
57572W        W17108  12.709  37.545   2.413
57573W        W17109  32.983   9.860   3.632
57574W        W17110   1.921  40.398   4.264
57575W        W17111  41.924  14.608   2.686
57576W        W17112  28.529  38.850   4.657
57577W        W17113  34.034  33.565   1.229
57578W        W17114  11.801  12.317  14.790
57579W        W17115  10.782  18.608  11.456
57580W        W17116  11.294  37.486   4.733
57581W        W17117  10.303   5.304  14.857
57582W        W17118   2.757  40.978   0.473
57583W        W17119  24.043  37.364  13.470
57584W        W17120  14.636  14.146   0.426
57585W        W17121  12.834   6.428   1.729
57586W        W17122  20.138  43.498  13.802
57587W        W17123  25.563  20.110   3.820
57588W        W17124  39.919  16.291   4.334
57589W        W17125  27.185  15.649   5.084
57590W        W17126  28.606  38.842  12.829
57591W        W17127  26.080   4.780   3.285
57592W        W17128  10.238  18.289  11.472
57593W        W17129   1.439  37.414  14.886
57594W        W17130  42.287  16.154  11.051
57595W        W17131  14.687   6.400   1.914
57596W        W17132  17.235  21.633   0.841
57597W        W17133  31.505  43.469  12.539
57598W        W17134  13.311   3.753   3.175
57599W        W17135  10.167  41.331   1.900
57600W        W17136  18.155   3.892   2.866
57601W        W17137   6.420  20.590  12.845
57602W        W17138  34.090   8.340   1.906
57603W        W17139  32.400  11.241  13.373
57604W        W17140  24.707  11.168   1.395
57605W        W17141  30.943  11.166   0.759
57606W        W17142  22.058  22.204  11.966
57607W        W17143  35.057  11.865  13.316
57608W        W17144  41.956  18.113   2.831
57609W        W17145  36.556  30.648  12.842
57610W        W17146  12.308  23.581   3.762
57611W        W17147  39.033   9.251  11.062
57612W        W17148  13.232   0.400  11.874
57613W        W17149  40.853  28.066  13.362
57614W        W17150  25.050  18.751   2.261
57615W        W17151  39.413   8.733   1.733
57616W        W17152  16.243  21.105   1.436
57617W        W17153  36.499  25.057  13.911
57618W        W17154  12.693  25.677   1.854
57619W        W17155  21.557  35.069  10.903
57620W        W17156  11.716  19.272   0.862
57621W        W17157  34.918  26.637  10.894
57622W        W17158  38.963  20.126  11.976
57623W        W17159  39.955  23.068   0.939
57624W        W17160  21.524  38.991   0.453
57625W        W17161   3.945  20.544   3.718
57626W        W17162  42.501  15.638  14.413
57627W        W17163  17.129  19.739   0.257
57628W        W17164  30.950  40.906  14.483
57629W        W17165  13.626  10.755  13.368
57630W        W17166  20.198  41.023   4.178
57631W        W17167  37.455   5.200  11.964
57632W        W17168  30.418  27.056   2.236
57633W        W17169  21.051   2.898  14.869
57634W        W17170   9.830   9.191   3.272
57635W        W17171   3.405  40.022   3.826
57636W        W17172   7.724  14.726   1.246
57637W        W17173   3.777  31.110  14.988
57638W        W17174  21.145  14.717  11.970
57639W        W17175  32.051  39.039   3.226
57640W        W17176  11.722   9.355  12.842
57641W        W17177  40.980   9.825  11.920
57642W        W17178  37.423  26.550   3.803
57643W        W17179  41.977  42.299  10.955
57644W        W17180  21.146   0.948  12.379
57645W        W17181  34.498  23.734  12.423
57646W        W17182  42.020  39.937  11.924
57647W        W17183   1.810  11.228  13.014
57648W        W17184  10.671  12.363   4.309
57649W        W17185  30.939   2.770   3.282
57650W        W17186  19.280  16.630  10.479
57651W        W17187  26.685  41.984  14.406
57652W        W17188  26.461   9.358  13.034
57653W        W17189   3.786  36.896   0.296
57654W        W17190  11.782  20.123  12.944
57655W        W17191  24.164  10.777   0.908
57656W        W17192   4.209  34.023   3.352
57657W        W17193   8.176  22.508   3.369
57658W        W17194  10.822  43.448  12.095
57659W        W17195  35.369  28.452  11.927
57660W        W17196  24.604  30.982  14.967
57661W        W17197  42.353  35.078   1.324
57662W        W17198  25.199   6.727   0.393
57663W        W17199   7.171   3.812   0.319
57664W        W17200  38.332  31.081  12.856
57665W        W17201  11.340  25.532   1.728
57666W        W17202  38.985  21.233   0.855
57667W        W17203  22.212  43.440  13.024
57668W        W17204   0.464  13.622   2.742
57669W        W17205   9.860  11.724   4.731
57670W        W17206   2.352  19.641   9.991
57671W        W17207  44.832  40.509  12.573
57672W        W17208  18.749  29.167  11.420
57673W        W17209   7.277  32.050  14.942
57674W        W17210  43.506  18.628  10.544
57675W        W17211   6.420  34.609   2.381
57676W        W17212   2.361  10.763  10.441
57677W        W17213  44.784  17.283  12.987
57678W        W17214  26.981  40.928   3.690
57679W        W17215  40.483  36.029  11.527
57680W        W17216  43.443  27.599  10.897
57681W        W17217   1.842  31.068  12.991
57682W        W17218  40.545  36.355  13.449
57683W        W17219  16.805  34.482  10.553
57684W        W17220  44.984   0.915  12.080
57685W        W17221  28.178  23.618  13.049
57686W        W17222   9.174  34.866  14.484
57687W        W17223  24.086  38.983   4.655
57688W        W17224  10.278  13.164   4.209
57689W        W17225  36.957  42.402  14.281
57690W        W17226   6.397  29.022   9.586
57691W        W17227  12.302   3.751   9.976
57692W        W17228   6.428  43.414  13.530
57693W        W17229  20.171  38.554   4.120
57694W        W17230  43.787  32.079  12.468
57695W        W17231   9.373  26.069  10.907
57696W        W17232   1.741  31.617  10.521
57697W        W17233  13.603  28.988   1.733
57698W        W17234  18.618  20.088  14.317
57699W        W17235  24.646   8.313  14.473
57700W        W17236   0.910  16.757  13.541
57701W        W17237  43.869  37.013   4.807
57702W        W17238  19.194  19.173  10.025
57703W        W17239  28.991  13.150  11.479
57704W        W17240  10.673   3.267  10.081
57705W        W17241   4.752  24.039   1.238
57706W        W17242   2.315  23.015  13.488
57707W        W17243  13.344  24.537   3.285
57708W        W17244   6.291  11.827   1.228
57709W        W17245  27.185   3.378  10.951
57710W        W17246  34.955  14.172  13.317
57711W        W17247  13.194  39.048   4.192
57712W        W17248  29.097  10.146  14.427
57713W        W17249  15.237  34.470   4.271
57714W        W17250   3.438  39.969  10.920
57715W        W17251  28.597  34.926  13.513
57716W        W17252  12.660  13.109   1.305
57717W        W17253  17.092  36.981   2.670
57718W        W17254  42.001  29.507   3.228
57719W        W17255  32.025   4.833   4.186
57720W        W17256  18.057  35.591  13.476
57721W        W17257   8.759  23.712   1.306
57722W        W17258   1.954  39.909   1.835
57723W        W17259  19.617  28.669   0.412
57724W        W17260   0.306  36.024   2.260
57725W        W17261   8.175   7.335  10.460
57726W        W17262  43.412  11.822   1.286
57727W        W17263  10.640  32.951  12.854
57728W        W17264  11.768  42.338   3.829
57729W        W17265  24.993  44.815  14.876
57730W        W17266  26.671  22.739   1.894
57731W        W17267  35.504  13.662  13.436
57732W        W17268  20.268  39.054   3.638
57733W        W17269  41.904  26.188  12.521
57734W        W17270  21.653   6.885  12.345
57735W        W17271   2.420  19.644  14.474
57736W        W17272   5.348  33.553  13.857
57737W        W17273  23.619   3.376   5.299
57738W        W17274  17.155  35.070  14.975
57739W        W17275   2.391   4.815  14.509
57740W        W17276  12.840   6.747  14.330
57741W        W17277  44.372  34.046  11.423
57742W        W17278  27.104  19.285   0.270
57743W        W17279  43.488  16.630   3.302
57744W        W17280   1.804  30.548   4.616
57745W        W17281  29.161   8.709   1.875
57746W        W17282  38.899   8.296  14.372
57747W        W17283  26.028  12.713  11.072
57748W        W17284  32.052  30.106  13.001
57749W        W17285  43.880  18.609  12.355
57750W        W17286   8.808  36.353  12.482
57751W        W17287  20.651  36.430   3.315
57752W        W17288  35.871  12.201   2.744
57753W        W17289  41.905  26.496   0.293
57754W        W17290  26.481   0.957   2.741
57755W        W17291  13.755  36.881   4.222
57756W        W17292  13.727   6.305   0.255
57757W        W17293  19.135   7.752  13.960
57758W        W17294  31.132  13.271  10.117
57759W        W17295  34.916  13.642  12.839
57760W        W17296  38.929  30.019   0.753
57761W        W17297  28.049  34.100   3.849
57762W        W17298   0.469  21.699   4.737
57763W        W17299  34.587   7.338  14.803
57764W        W17300  10.303  14.784   9.930
57765W        W17301  32.583   1.434  11.543
57766W        W17302  36.012  13.143  12.461
57767W        W17303  18.552  43.472   3.318
57768W        W17304   0.458  38.061   1.724
57769W        W17305  29.540   1.751  12.980
57770W        W17306  36.451   2.804   4.324
57771W        W17307  39.841  27.512   4.688
57772W        W17308  44.455  24.601   4.752
57773W        W17309  42.944   1.805   3.152
57774W        W17310  42.459  29.113   4.251
57775W        W17311  44.345   1.880  14.940
57776W        W17312  43.872  32.030  14.853
57777W        W17313  30.553  38.877  12.089
57778W        W17314  42.008   1.791  10.975
57779W        W17315   6.840  24.040   3.825
57780W        W17316  19.595  31.152  14.381
57781W        W17317  30.913   8.368  14.021
57782W        W17318  30.444  17.583  11.936
57783W        W17319  35.371  44.262  14.307
57784W        W17320   0.969   9.364   1.698
57785W        W17321  43.298  32.063   0.451
57786W        W17322  12.267  38.566  11.890
57787W        W17323  39.858   3.763   2.869
57788W        W17324   8.717  27.970  13.037
57789W        W17325  31.505  43.017   1.730
57790W        W17326   6.279  24.661   4.806
57791W        W17327  23.611   6.410   0.940
57792W        W17328  27.968  44.385   9.925
57793W        W17329  29.649  38.547   3.185
57794W        W17330  43.365  39.546  13.870
57795W        W17331  20.125   2.788  12.528
57796W        W17332  11.867   3.774  13.835
57797W        W17333   6.836  34.483  13.808
57798W        W17334   5.693  34.040   2.863
57799W        W17335  42.834  19.057  11.873
57800W        W17336  20.108  23.172  13.900
57801W        W17337  22.658  41.955  10.501
57802W        W17338  23.053  33.974   1.283
57803W        W17339   1.421  33.070   1.262
57804W        W17340  11.280  31.939  13.996
57805W        W17341  26.570  38.074   1.873
57806W        W17342   6.341   1.818  14.912
57807W        W17343  41.908  39.814   0.874
57808W        W17344  44.818  37.048   3.735
57809W        W17345  26.966  17.209   3.754
57810W        W17346  26.541  22.709  12.455
57811W        W17347  44.773  34.478  12.560
57812W        W17348  21.544   2.734  14.951
57813W        W17349  15.299  20.058  11.576
57814W        W17350   6.289   5.413   1.391
57815W        W17351  34.615  31.087   2.225
57816W        W17352   3.951   2.466   2.745
57817W        W17353   5.929  33.624  14.030
57818W        W17354  29.541  43.447  11.037
57819W        W17355   1.894   0.753  12.912
57820W        W17356  16.210  12.847  13.808
57821W        W17357  42.787  40.000  10.433
57822W        W17358  39.474  21.201   1.749
57823W        W17359  35.459  24.577   9.582
57824W        W17360   9.800  20.747   3.666
57825W        W17361  18.217  37.404  10.604
57826W        W17362  24.527  25.089   0.295
57827W        W17363  19.723  27.663   0.282
57828W        W17364  10.798   4.352   4.650
57829W        W17365  29.445  26.104  13.887
57830W        W17366  39.362  12.783   0.269
57831W        W17367  10.655  16.267   4.159
57832W        W17368   2.734  16.205  13.830
57833W        W17369   4.330  12.785   3.286
57834W        W17370  39.872  17.740   0.433
57835W        W17371  30.459  31.046  13.392
57836W        W17372   3.264  44.856   4.348
57837W        W17373   2.463  32.136   2.723
57838W        W17374  18.228   9.382   2.776
57839W        W17375  42.434  42.512  11.394
57840W        W17376   2.425   8.285  11.593
57841W        W17377   0.442  34.964  12.341
57842W        W17378  32.059   2.927   2.870
57843W        W17379  35.106  18.718   0.293
57844W        W17380   0.878  13.726   3.366
57845W        W17381   8.315  29.425   4.144
57846W        W17382  23.136  35.581  13.836
57847W        W17383  31.028  23.688   5.264
57848W        W17384   3.755  10.299  12.066
57849W        W17385  25.995   4.365   3.692
57850W        W17386  12.126   9.328  10.024
57851W        W17387   2.796  29.573   4.335
57852W        W17388  25.140  23.556  14.383
57853W        W17389  10.318  44.272   4.836
57854W        W17390   9.762  21.737  10.971
57855W        W17391  33.512  38.397  13.036
57856W        W17392   1.966   0.969   1.316
57857W        W17393  24.038   3.828   3.832
57858W        W17394  25.187  16.114  12.501
57859W        W17395  16.276   0.930  10.033
57860W        W17396  20.673  11.142  13.797
57861W        W17397  42.942  21.164  14.433
57862W        W17398  17.733  34.906   3.264
57863W        W17399  27.107  15.095   1.731
57864W        W17400  17.249  17.560   5.177
57865W        W17401  18.165  36.097   0.742
57866W        W17402  26.027  27.527   2.281
57867W        W17403  25.049  13.617   3.745
57868W        W17404  18.696  28.527  14.852
57869W        W17405  24.990   8.873  10.596
57870W        W17406   7.369  34.969   0.360
57871W        W17407  27.581  25.971   2.383
57872W        W17408  21.069  22.181  10.566
57873W        W17409  29.633  42.014   4.223
57874W        W17410  29.478  41.377  14.870
57875W        W17411  17.657  34.936   3.735
57876W        W17412  20.625  18.168  10.924
57877W        W17413   1.290  12.783  13.878
57878W        W17414   2.311  21.740  14.367
57879W        W17415  37.857  13.264  12.402
57880W        W17416  40.443  34.446  10.644
57881W        W17417  31.142  18.725   2.302
57882W        W17418  43.994   8.793   0.833
57883W        W17419  33.949  20.634  12.490
57884W        W17420  11.736   1.748  11.085
57885W        W17421  13.768   0.947  11.072
57886W        W17422   3.725  32.634   0.911
57887W        W17423  42.954   5.201  13.933
57888W        W17424  42.493  14.318   5.102
57889W        W17425   4.710   6.240   3.653
57890W        W17426   5.205  43.428  14.812
57891W        W17427   2.925  43.511  13.831
57892W        W17428  23.595  13.825   2.304
57893W        W17429  10.737  41.027  12.448
57894W        W17430  33.455  25.041   3.320
57895W        W17431  13.688   2.229  12.425
57896W        W17432  39.942  20.046   0.841
57897W        W17433  20.107  26.557   4.224
57898W        W17434  30.079   4.287  13.835
57899W        W17435  42.475   3.352  10.464
57900W        W17436  33.062  23.622  13.356
57901W        W17437  27.663  39.890  12.545
57902W        W17438  39.990  44.008   1.336
57903W        W17439  18.246  24.690   0.812
57904W        W17440  13.225  18.644   3.162
57905W        W17441  33.013  33.878  12.341
57906W        W17442  42.977  30.644   0.838
57907W        W17443  23.690   5.753   5.687
57908W        W17444  30.061   5.338   1.736
57909W        W17445  14.135  19.569  11.119
57910W        W17446   5.754  40.499  12.526
57911W        W17447  28.969  24.028   2.237
57912W        W17448   2.404  39.885  10.431
57913W        W17449  20.742   5.197   9.461
57914W        W17450  25.020   8.737   1.336
57915W        W17451   2.247  11.340  11.932
57916W        W17452  32.122   8.832   0.476
57917W        W17453  37.877   6.897  11.586
57918W        W17454  17.234  28.945  11.000
57919W        W17455  26.539  30.998   0.960
57920W        W17456   5.282  41.952  12.379
57921W        W17457  31.459  10.223   0.459
57922W        W17458   3.403  28.644  14.940
57923W        W17459  27.984   5.306   1.803
57924W        W17460  16.095  19.060   9.937
57925W        W17461  24.670  18.576   2.320
57926W        W17462   7.903  21.580   3.153
57927W        W17463  23.493  44.326  13.476
57928W        W17464  41.937  29.057   1.724
57929W        W17465   5.438   0.477   0.967
57930W        W17466   3.324  23.098   4.267
57931W        W17467  15.166  41.973  12.972
57932W        W17468  40.433  23.693   2.774
57933W        W17469  26.087  16.179   0.428
57934W        W17470  34.582  41.850  12.364
57935W        W17471  37.503  32.523  13.385
57936W        W17472  31.538  14.610  13.906
57937W        W17473  11.624   3.414  13.008
57938W        W17474  37.525   5.278  14.809
57939W        W17475  33.519  31.136  12.520
57940W        W17476  32.995  39.850   2.780
57941W        W17477  23.734  42.852   1.397
57942W        W17478   5.703   4.304  13.426
57943W        W17479  32.018  12.705   4.196
57944W        W17480  12.260  18.704   3.747
57945W        W17481   7.264  15.255  14.363
57946W        W17482   1.869  41.013   4.760
57947W        W17483  43.816  38.515   1.213
57948W        W17484  37.083   7.677   0.899
57949W        W17485   4.237   5.376  12.860
57950W        W17486  35.470  36.425  10.461
57951W        W17487  25.471  18.694  14.337
57952W        W17488  25.058  25.141  14.012
57953W        W17489  27.669  29.447  11.861
57954W        W17490  40.019  44.885  11.080
57955W        W17491  14.771  30.493   3.688
57956W        W17492   5.931   9.780  11.863
57957W        W17493   1.315  35.583  10.580
57958W        W17494  41.926  27.611   0.388
57959W        W17495  14.301  37.468   4.826
57960W        W17496  36.066  32.432  12.902
57961W        W17497   4.409  43.476   3.770
57962W        W17498  20.068  14.647   0.828
57963W        W17499  39.410  28.056  14.965
57964W        W17500  13.673  27.459   2.227
57965W        W17501   2.796  30.563   1.423
57966W        W17502  12.190  23.147  11.022
57967W        W17503  38.855  28.555   4.760
57968W        W17504  12.708  28.992  14.973
57969W        W17505  32.503  30.513  10.105
57970W        W17506   8.827   0.494   2.878
57971W        W17507   0.252  21.543  12.524
57972W        W17508  10.803  12.335  10.915
57973W        W17509  33.588  18.119   0.749
57974W        W17510  18.097  36.034   4.278
57975W        W17511  31.985  16.106  10.432
57976W        W17512  42.485  22.136   3.650
57977W        W17513  12.359  44.783   1.372
57978W        W17514   2.940  10.291  12.994
57979W        W17515  18.620  16.586   4.266
57980W        W17516   1.767  27.964   0.285
57981W        W17517  41.339   9.328   3.294
57982W        W17518  16.094   2.353  11.532
57983W        W17519  44.953   2.447  11.863
57984W        W17520  27.054  31.144  11.513
57985W        W17521  29.618  35.412   3.740
57986W        W17522   0.339  34.382   1.387
57987W        W17523  38.348   9.232  12.852
57988W        W17524   5.318  35.362   4.178
57989W        W17525  38.512  34.908   0.959
57990W        W17526  33.419  11.804   3.168
57991W        W17527  16.078  23.658  12.089
57992W        W17528  38.442  37.030   1.285
57993W        W17529  26.465  25.110  12.907
57994W        W17530  22.204  28.537   2.223
57995W        W17531  37.944  14.306  12.039
57996W        W17532  27.560  21.038   3.753
57997W        W17533   5.758   3.342  14.942
57998W        W17534  42.375  34.870  10.540
57999W        W17535   4.369  40.405   3.752
58000W        W17536  34.915  34.050   4.810
58001W        W17537  44.469  10.776  12.409
58002W        W17538   1.964   8.180  12.379
58003W        W17539  30.539  33.033   2.394
58004W        W17540   1.916  11.331   2.804
58005W        W17541  43.370   5.395   2.665
58006W        W17542  26.640   5.236   1.873
58007W        W17543  42.898  17.605  13.923
58008W        W17544  38.543  41.019  12.441
58009W        W17545  19.279  11.342  10.532
58010W        W17546   0.385  29.626  10.970
58011W        W17547   0.810  13.654   2.775
58012W        W17548   4.351  35.596  11.610
58013W        W17549  44.916  43.510  11.585
58014W        W17550  44.452  38.990   1.699
58015W        W17551  26.468   0.853  10.888
58016W        W17552  23.537   3.312  12.539
58017W        W17553  26.170  21.188   4.605
58018W        W17554   1.869  23.058   1.845
58019W        W17555  28.523  19.614  10.927
58020W        W17556  15.278  19.233   2.901
58021W        W17557  30.535   0.962  10.904
58022W        W17558  31.496  36.370   3.240
58023W        W17559  26.494  25.650   1.868
58024W        W17560  11.787  32.535  12.453
58025W        W17561  30.461  25.708   2.284
58026W        W17562  14.209  10.868   3.285
58027W        W17563  17.075   6.729  14.437
58028W        W17564  14.323  30.456   1.414
58029W        W17565   6.794   2.841   0.895
58030W        W17566  36.501  34.435  14.294
58031W        W17567  24.614  19.084  14.995
58032W        W17568   3.793  31.462   2.708
58033W        W17569  34.952  17.074   0.775
58034W        W17570  37.938  37.503  14.489
58035W        W17571   7.821  13.163  10.561
58036W        W17572  13.800   9.159   1.783
58037W        W17573  41.795  17.643  14.422
58038W        W17574   2.305  24.225   1.307
58039W        W17575  34.943   2.307  12.985
58040W        W17576   8.819  44.900  12.339
58041W        W17577   6.374  35.093   4.813
58042W        W17578   3.896  35.407   4.599
58043W        W17579  31.151  35.862   3.146
58044W        W17580  17.672   4.288  14.420
58045W        W17581  44.994  26.690   0.948
58046W        W17582  25.117   3.948   3.192
58047W        W17583  36.014   5.224   3.234
58048W        W17584  22.579  38.904  11.447
58049W        W17585  41.983   9.335  11.987
58050W        W17586  30.465  34.485  13.989
58051W        W17587  11.772  11.667  11.599
58052W        W17588  30.011  43.993  14.331
58053W        W17589  24.149  27.067  13.957
58054W        W17590  36.875  24.990  11.081
58055W        W17591  42.329  33.520   1.260
58056W        W17592   4.402  24.670   2.184
58057W        W17593  30.142  34.378   0.930
58058W        W17594  44.801  36.085   1.372
58059W        W17595  10.774   3.782  12.854
58060W        W17596  18.611  29.053   4.152
58061W        W17597  13.254  18.186  13.318
58062W        W17598  43.493   7.731   3.847
58063W        W17599  13.311   3.914   0.879
58064W        W17600  28.979  38.394  12.857
58065W        W17601  35.452   6.915   2.326
58066W        W17602  28.671   3.869   3.289
58067W        W17603  34.506  36.526  13.457
58068W        W17604  31.967   7.374  13.967
58069W        W17605  39.406   5.788   4.715
58070W        W17606  31.099   3.217   4.250
58071W        W17607   2.412  13.205   2.733
58072W        W17608   3.952  21.142   2.789
58073W        W17609  37.836   6.722  14.327
58074W        W17610  12.819  35.379   0.254
58075W        W17611  14.273   4.817   1.363
58076W        W17612  39.048   6.824   2.749
58077W        W17613  15.770  21.552  10.510
58078W        W17614   5.386  28.177   1.906
58079W        W17615  27.175   0.366  11.480
58080W        W17616   3.925   4.244  14.382
58081W        W17617  16.763  24.720   0.872
58082W        W17618  38.390   8.681   0.911
58083W        W17619  22.622  38.359  13.425
58084W        W17620   3.826  17.780   2.809
58085W        W17621   9.817   1.315   4.766
58086W        W17622  32.044   4.759   1.211
58087W        W17623  16.074  34.537  11.603
58088W        W17624   6.782   0.287  12.448
58089W        W17625  12.270   2.463  12.047
58090W        W17626   2.790   4.402   4.352
58091W        W17627  20.658  44.831  14.837
58092W        W17628  36.556  23.140  13.940
58093W        W17629  38.971  35.018  12.061
58094W        W17630  20.668  41.420  13.808
58095W        W17631  20.265  16.139  13.434
58096W        W17632   4.936  19.072  13.935
58097W        W17633  19.239   6.292   0.833
58098W        W17634  40.472   1.241   1.724
58099W        W17635  31.589  30.604  13.449
58100W        W17636   2.723  36.020  10.953
58101W        W17637  36.437   3.232   3.690
58102W        W17638  17.228  41.013  10.562
58103W        W17639  11.680   3.403   3.648
58104W        W17640  18.545  11.197   0.432
58105W        W17641  19.750  37.496   2.865
58106W        W17642  15.320  20.074   5.196
58107W        W17643  40.489   2.332  11.533
58108W        W17644  27.502  41.863  14.771
58109W        W17645  29.934  39.384   1.437
58110W        W17646  40.981  40.903  10.449
58111W        W17647  17.101  26.974   4.286
58112W        W17648   8.878  40.409  13.309
58113W        W17649  11.175  21.090   4.719
58114W        W17650  35.451  43.896  13.364
58115W        W17651  24.202  32.614   0.814
58116W        W17652  14.215  15.112  11.916
58117W        W17653  38.892   0.886   0.956
58118W        W17654  15.088  42.408  14.424
58119W        W17655  39.326  25.711  11.442
58120W        W17656  13.822  10.350   4.328
58121W        W17657  43.810  35.451  11.401
58122W        W17658  10.154  34.085   0.856
58123W        W17659  24.210  29.167   0.268
58124W        W17660  33.496  38.332  12.515
58125W        W17661  41.469  25.624  10.619
58126W        W17662   6.359  22.031  13.352
58127W        W17663  18.108  41.335  14.446
58128W        W17664  20.253  17.126   4.114
58129W        W17665  34.391   6.304   2.713
58130W        W17666   9.244  20.697   1.300
58131W        W17667  41.336   8.879   0.802
58132W        W17668  38.986  25.195  14.342
58133W        W17669  37.427   8.800   1.777
58134W        W17670   2.330  28.664  12.572
58135W        W17671  25.590   7.731  12.383
58136W        W17672   6.796  18.131   0.856
58137W        W17673   9.781  44.787  14.808
58138W        W17674   5.392  31.453  13.923
58139W        W17675  35.015  33.947   4.201
58140W        W17676  44.833  33.499  13.861
58141W        W17677  24.579   7.400  11.447
58142W        W17678  41.409  15.619   4.822
58143W        W17679   9.389  11.823  14.802
58144W        W17680  28.077  35.495  10.520
58145W        W17681  27.160  28.545   3.736
58146W        W17682  27.185   9.709  14.295
58147W        W17683   6.916  40.460  14.318
58148W        W17684   5.234  16.109  12.852
58149W        W17685  21.682  24.685  10.637
58150W        W17686  27.592   5.280   1.805
58151W        W17687  19.281  13.173   3.156
58152W        W17688  12.158  27.013   4.264
58153W        W17689  13.772   4.319   3.761
58154W        W17690  21.702   3.388  13.335
58155W        W17691  27.135  23.031  10.564
58156W        W17692   3.862  39.345   0.936
58157W        W17693   2.376   4.783   4.724
58158W        W17694   9.745  25.649   4.635
58159W        W17695  27.654  43.008  10.450
58160W        W17696  42.022  12.343   1.810
58161W        W17697  35.013  15.645  14.446
58162W        W17698  30.427  35.471  11.565
58163W        W17699  36.437  25.140   4.293
58164W        W17700  29.557  40.418  10.028
58165W        W17701  40.969   5.927   3.232
58166W        W17702  44.340  31.080  10.542
58167W        W17703  11.291  33.546  10.972
58168W        W17704  15.097  18.619  10.542
58169W        W17705   1.468  19.087  10.527
58170W        W17706  13.267  43.813  11.954
58171W        W17707  25.621  30.918   4.332
58172W        W17708  29.483  35.049  14.413
58173W        W17709  42.958  43.332  12.474
58174W        W17710  21.162   9.327   4.126
58175W        W17711  29.652  14.668  12.050
58176W        W17712  36.459   0.376   3.319
58177W        W17713  12.678  22.555  10.895
58178W        W17714  37.006  11.165   4.339
58179W        W17715   1.275  18.652  14.470
58180W        W17716  25.648  44.939  10.549
58181W        W17717  24.152   1.277   4.258
58182W        W17718  37.042  39.435  14.874
58183W        W17719  32.138   7.740  13.867
58184W        W17720   6.277  16.690  10.611
58185W        W17721   4.383   8.374   0.395
58186W        W17722  31.521  17.191  10.632
58187W        W17723  43.957   8.320   0.954
58188W        W17724  35.590  29.584   0.320
58189W        W17725  15.809  24.492   1.427
58190W        W17726   0.487  14.145  12.543
58191W        W17727  18.711  10.758   1.344
58192W        W17728  38.442  30.441  14.419
58193W        W17729  15.274  42.829  15.000
58194W        W17730  21.741   1.440   0.411
58195W        W17731  36.021  12.811  13.986
58196W        W17732  22.180  15.773   1.416
58197W        W17733  33.083  39.945   1.411
58198W        W17734  11.175  30.026  11.588
58199W        W17735  40.987  20.116  14.765
58200W        W17736  23.076  40.427   5.101
58201W        W17737  30.549  18.552  13.870
58202W        W17738  43.459  30.446  14.932
58203W        W17739  32.056  31.071  13.837
58204W        W17740   3.460   6.327   5.109
58205W        W17741  35.870  27.646   3.384
58206W        W17742   6.252   4.754   4.602
58207W        W17743  33.556  26.491  10.530
58208W        W17744  12.318  39.538  13.436
58209W        W17745   0.463   9.158   1.383
58210W        W17746  23.180  37.070  12.838
58211W        W17747  44.010  16.581  14.884
58212W        W17748   8.227  42.525   0.800
58213W        W17749  13.779  15.732  11.537
58214W        W17750   9.841  18.196  11.610
58215W        W17751  20.622  13.125   2.895
58216W        W17752  14.630   2.785  13.860
58217W        W17753  25.661  27.085   2.888
58218W        W17754  31.401  40.831   4.302
58219W        W17755  22.184  34.478   2.780
58220W        W17756  35.455  22.178   2.779
58221W        W17757  13.691  40.034   1.342
58222W        W17758  28.104  26.100   2.856
58223W        W17759  19.076   5.829  13.477
58224W        W17760   9.262  14.683   2.712
58225W        W17761  18.561  33.980   2.851
58226W        W17762  30.061  21.164   0.314
58227W        W17763  39.997  33.122   1.778
58228W        W17764  31.624  33.030  14.358
58229W        W17765   5.224  40.546   0.285
58230W        W17766  40.956   7.688   3.248
58231W        W17767  21.192  17.637   3.217
58232W        W17768  14.210   6.880   2.866
58233W        W17769  27.534  33.577   2.798
58234W        W17770  39.537  27.450  12.068
58235W        W17771  30.097   5.710   4.678
58236W        W17772   8.802  39.367  12.884
58237W        W17773  33.051   8.680   3.167
58238W        W17774  35.444  13.799  11.608
58239W        W17775   1.864  17.143  10.923
58240W        W17776  15.580  19.735   1.917
58241W        W17777  28.184  30.616   0.790
58242W        W17778   2.919  40.339   0.817
58243W        W17779  10.242  27.122   3.191
58244W        W17780  12.357  36.858   1.321
58245W        W17781  22.724  23.108  10.450
58246W        W17782  34.555   1.400  10.977
58247W        W17783   5.348   1.302  13.892
58248W        W17784  29.095  40.516   2.240
58249W        W17785  26.685  44.978  12.093
58250W        W17786  39.364  27.537  14.963
58251W        W17787   8.838   9.874  12.580
58252W        W17788  29.976   3.350  12.400
58253W        W17789   2.965  40.838   3.704
58254W        W17790   1.395  26.654  13.964
58255W        W17791   3.752   8.224  11.986
58256W        W17792  42.996  41.830  12.080
58257W        W17793  28.613  32.040   1.802
58258W        W17794  14.149  36.098  13.015
58259W        W17795  30.428  13.306  10.614
58260W        W17796  36.999  14.101  13.828
58261W        W17797  22.604   3.731  14.921
58262W        W17798  38.569  30.092  13.904
58263W        W17799   7.878  38.328   3.302
58264W        W17800  33.985  35.534   2.796
58265W        W17801  42.930  42.902   2.189
58266W        W17802  12.783  14.248   3.781
58267W        W17803   9.738  17.078   4.751
58268W        W17804  39.520   7.390   4.696
58269W        W17805  27.638  15.635  14.019
58270W        W17806  44.847  39.891   1.717
58271W        W17807  28.137  17.568  14.451
58272W        W17808  12.191  40.486   0.882
58273W        W17809   6.289  34.961   2.794
58274W        W17810  28.093  14.116   3.250
58275W        W17811  18.560  25.153   3.759
58276W        W17812  29.078   1.446  12.013
58277W        W17813  12.703  44.335   1.899
58278W        W17814   4.761  41.510  13.945
58279W        W17815  31.571  27.145  12.451
58280W        W17816  15.710  43.443   3.635
58281W        W17817  23.152  13.252   2.269
58282W        W17818  16.196  11.730  13.901
58283W        W17819  40.949  11.281   5.169
58284W        W17820  32.486  28.075  11.579
58285W        W17821  39.338   6.405  13.407
58286W        W17822  31.976  16.229  10.962
58287W        W17823  34.468  18.157  11.431
58288W        W17824  15.173  38.382   2.849
58289W        W17825   1.848  13.186   0.253
58290W        W17826  42.501   7.242  12.339
58291W        W17827  16.741   1.825   3.226
58292W        W17828  13.165  44.984   0.934
58293W        W17829  43.482   0.435   3.324
58294W        W17830  13.320   6.415   2.300
58295W        W17831   5.753  33.915   3.234
58296W        W17832  44.793  21.122  10.602
58297W        W17833  24.547  10.220  11.585
58298W        W17834  33.883  25.656  14.845
58299W        W17835  12.856  43.014   2.281
58300W        W17836  37.360  42.029  14.350
58301W        W17837   5.416  13.802  14.374
58302W        W17838   1.482  10.731  13.396
58303W        W17839   1.889  13.249   4.826
58304W        W17840  42.384  15.167  12.397
58305W        W17841  38.936  17.207   3.802
58306W        W17842  35.028  14.203   2.836
58307W        W17843  20.121  39.992  10.938
58308W        W17844  43.896  33.622   2.768
58309W        W17845  33.540   7.685   1.362
58310W        W17846  12.322   0.936   0.768
58311W        W17847  33.984   6.789   0.451
58312W        W17848  21.215   0.825   1.399
58313W        W17849  18.784  33.954  14.385
58314W        W17850  36.040  18.205  10.475
58315W        W17851   8.363  19.268  11.871
58316W        W17852  35.537  26.146  14.020
58317W        W17853   7.800   6.709   0.772
58318W        W17854  21.051  14.831   3.727
58319W        W17855  41.811   2.928   2.783
58320W        W17856  27.002   6.860   2.886
58321W        W17857  15.735  17.563  12.062
58322W        W17858  27.523  27.988  14.516
58323W        W17859  16.081  26.135   0.838
58324W        W17860  13.646  22.618  14.982
58325W        W17861   0.257  32.558   2.274
58326W        W17862  19.204  40.933   4.125
58327W        W17863  29.141   5.384   1.805
58328W        W17864  37.535  33.443   0.470
58329W        W17865  37.838  38.907   0.385
58330W        W17866   8.233  22.691  14.339
58331W        W17867  36.991  18.663   4.135
58332W        W17868  19.630  33.493   5.281
58333W        W17869   1.947  13.672  12.922
58334W        W17870  17.299  24.725   3.153
58335W        W17871  23.025  39.896   1.403
58336W        W17872  16.602  23.043   2.373
58337W        W17873  14.211  25.183  11.489
58338W        W17874  44.339  13.813  13.910
58339W        W17875  44.260  21.172  11.562
58340W        W17876  30.583  22.183  13.909
58341W        W17877  14.628  34.121   1.740
58342W        W17878  20.627  14.175   3.630
58343W        W17879  30.995  13.187   1.799
58344W        W17880   6.810   2.852   3.323
58345W        W17881   2.920  19.768   3.200
58346W        W17882   1.899  20.115  13.489
58347W        W17883  35.415  27.618   2.209
58348W        W17884  12.651  44.384   4.339
58349W        W17885  30.155  30.555   3.787
58350W        W17886  34.000  31.010  12.058
58351W        W17887  26.996  21.512   0.871
58352W        W17888  44.963   3.403   4.338
58353W        W17889  21.573  28.972   1.298
58354W        W17890  16.095   9.773   2.268
58355W        W17891   4.828  19.112  13.532
58356W        W17892  24.580  44.483   0.246
58357W        W17893  28.510  32.126  12.900
58358W        W17894  25.708  28.471   3.743
58359W        W17895   6.740  42.904  10.587
58360W        W17896  27.546  23.717   4.809
58361W        W17897  18.563  11.161   2.802
58362W        W17898  15.297   4.805   9.933
58363W        W17899  37.969  43.769   3.683
58364W        W17900  17.240   5.817   4.157
58365W        W17901  27.125  37.433   1.375
58366W        W17902  26.153  42.937  10.411
58367W        W17903  17.189  22.048   4.325
58368W        W17904  23.569  26.200  12.932
58369W        W17905  13.338  16.161   3.788
58370W        W17906  12.344   8.392  13.501
58371W        W17907  23.733  18.241   1.433
58372W        W17908  24.156  39.452  14.778
58373W        W17909   0.816   8.740   4.812
58374W        W17910  21.750  17.239   4.328
58375W        W17911  40.948  34.083  12.434
58376W        W17912  18.772  18.788   0.315
58377W        W17913  37.516  36.887  11.432
58378W        W17914  13.646  11.746   0.836
58379W        W17915  12.822   2.918  10.458
58380W        W17916  20.681  16.287  13.370
58381W        W17917  22.095  24.609   0.752
58382W        W17918  15.188  43.497  11.565
58383W        W17919  16.627   4.419  10.633
58384W        W17920  37.933  37.348   3.154
58385W        W17921  27.085  40.845   1.876
58386W        W17922  10.145  36.388   2.769
58387W        W17923  32.074  35.481   2.820
58388W        W17924   0.488  31.639  11.072
58389W        W17925  43.448   3.737   2.744
58390W        W17926   2.364  15.778   2.359
58391W        W17927  28.008   9.320   3.247
58392W        W17928  18.176  13.201  11.373
58393W        W17929  19.677  20.604   3.353
58394W        W17930  41.870  22.708   1.399
58395W        W17931  40.382  22.723   0.837
58396W        W17932  42.923  23.717  12.075
58397W        W17933   8.377  34.006  14.339
58398W        W17934  28.536  19.679  14.446
58399W        W17935  16.132  14.796  11.010
58400W        W17936  27.087  38.938   2.180
58401W        W17937   6.834  12.656   2.392
58402W        W17938  16.244  37.972   0.836
58403W        W17939   4.754  38.998  11.886
58404W        W17940  21.743  30.646  14.507
58405W        W17941  28.153  31.407  14.990
58406W        W17942  18.703  25.675   4.337
58407W        W17943  34.947  25.524   4.280
58408W        W17944  16.625  34.450  11.392
58409W        W17945  21.218   4.348  11.098
58410W        W17946   4.256  20.639   4.688
58411W        W17947  14.645  38.326   3.783
58412W        W17948  23.052  32.407  11.101
58413W        W17949  26.956   4.421  11.390
58414W        W17950  18.698   5.276  13.506
58415W        W17951  40.372  31.129  12.492
58416W        W17952  41.017   5.195  11.050
58417W        W17953  13.280  30.992  13.360
58418W        W17954  18.177  28.561   1.265
58419W        W17955  34.508  37.469  12.003
58420W        W17956  11.642  23.110  11.420
58421W        W17957   4.846  34.903  12.465
58422W        W17958   8.270  30.013   0.764
58423W        W17959  17.645  38.409  14.289
58424W        W17960  30.907   5.854  14.355
58425W        W17961  30.416  20.526  13.449
58426W        W17962   9.711   6.781   9.956
58427W        W17963  10.216   7.774   3.258
58428W        W17964   1.351  22.712   4.339
58429W        W17965  28.177   7.179  12.904
58430W        W17966   3.872  31.911  11.926
58431W        W17967  12.851   3.777   4.130
58432W        W17968  33.021  40.948  10.978
58433W        W17969  13.316  41.840  14.314
58434W        W17970  25.206  16.685   1.765
58435W        W17971  23.074   4.840  11.530
58436W        W17972  16.623  41.339  10.998
58437W        W17973  37.383  17.172   4.626
58438W        W17974  30.656  25.168   4.175
58439W        W17975  38.892  27.021   2.796
58440W        W17976  37.431  15.725  10.908
58441W        W17977  30.982  39.909  11.963
58442W        W17978  16.240  38.550  14.405
58443W        W17979  25.616  23.000   0.744
58444W        W17980  31.445   0.324  14.932
58445W        W17981  27.182   2.828  13.460
58446W        W17982  27.154  14.769   4.829
58447W        W17983  35.913  29.447  11.419
58448W        W17984  11.691  16.253   1.449
58449W        W17985  26.107  16.740  13.875
58450W        W17986  42.816  17.578  12.096
58451W        W17987   7.310  21.143   2.302
58452W        W17988  35.601  33.462  14.275
58453W        W17989  31.456   0.878  14.420
58454W        W17990  39.318  39.535  14.289
58455W        W17991  22.501  42.367  11.081
58456W        W17992  22.710  27.499   1.376
58457W        W17993  18.240  20.716   0.319
58458W        W17994  30.135  36.085   2.365
58459W        W17995  25.024  14.777  11.987
58460W        W17996  44.380  23.496  13.926
58461W        W17997  42.949   9.203  11.487
58462W        W17998   9.176   6.905   0.867
58463W        W17999  39.821  33.421  14.794
58464W        W18000  23.614  37.422  14.841
58465W        W18001  43.351  32.570  14.979
58466W        W18002  23.223  24.190  13.396
58467W        W18003  39.971  38.554  12.441
58468W        W18004   2.948   2.442  12.824
58469W        W18005  34.577   0.492  14.477
58470W        W18006   4.766   0.266   3.247
58471W        W18007   0.772  29.537   4.311
58472W        W18008  17.068   9.844  12.973
58473W        W18009   4.880  11.368  13.060
58474W        W18010  15.661  33.102  11.428
58475W        W18011  42.466  15.124   3.634
58476W        W18012  12.831  14.216   3.329
58477W        W18013  17.159  37.388  13.054
58478W        W18014  26.553  20.555   1.909
58479W        W18015   6.237   4.701  14.872
58480W        W18016  12.846  44.391   2.827
58481W        W18017  44.844   2.924   0.851
58482W        W18018  20.075  26.196   2.407
58483W        W18019  35.003  36.560   2.795
58484W        W18020  39.453  10.371  14.775
58485W        W18021   8.832  33.914   3.357
58486W        W18022  44.934  32.480   1.319
58487W        W18023  18.059  40.513  13.940
58488W        W18024  35.482   4.698  13.853
58489W        W18025   9.216   1.774  14.793
58490W        W18026  42.032   1.946  10.512
58491W        W18027  16.749   4.362  11.446
58492W        W18028  43.924  10.289   5.266
58493W        W18029  32.420  40.975   2.715
58494W        W18030  43.393  10.357  12.917
58495W        W18031   4.807  20.633  12.357
58496W        W18032  16.742   9.200  12.028
58497W        W18033  18.647  39.361  12.394
58498W        W18034  16.215  19.090   9.525
58499W        W18035  26.642  21.144  11.958
58500W        W18036  13.174  21.566  14.929
58501W        W18037  35.001   1.841  14.965
58502W        W18038  44.754  42.925   0.858
58503W        W18039  27.975  41.007   2.245
58504W        W18040  15.141  20.675   2.205
58505W        W18041   6.729   0.853  11.465
58506W        W18042  13.729  36.492   2.389
58507W        W18043  21.144  11.139   4.323
58508W        W18044  29.571  37.054   0.455
58509W        W18045  43.855  22.021   3.319
58510W        W18046  16.181  32.394  14.831
58511W        W18047   5.721   1.279  13.814
58512W        W18048  42.839  41.866   0.479
58513W        W18049  26.167  40.884  11.989
58514W        W18050  35.086  34.116   3.208
58515W        W18051   4.352   6.866   3.678
58516W        W18052  44.956  22.615  12.389
58517W        W18053  19.648  27.151   3.787
58518W        W18054   3.863  39.368   4.620
58519W        W18055  44.792   8.816   3.164
58520W        W18056   1.856   4.719   1.439
58521W        W18057  10.873  35.368   0.271
58522W        W18058  33.023  32.030  13.980
58523W        W18059  40.900   1.771   9.991
58524W        W18060  29.663  12.754  12.456
58525W        W18061  42.002  33.535  11.408
58526W        W18062  31.425  20.534  13.870
58527W        W18063  37.880  26.693   9.977
58528W        W18064  41.520  10.290  12.375
58529W        W18065  11.863   7.878  11.060
58530W        W18066  29.936  39.449  14.921
58531W        W18067  29.600  14.223  11.905
58532W        W18068  13.332   9.821  12.369
58533W        W18069  11.651  32.015   1.882
58534W        W18070  44.444   8.264   0.785
58535W        W18071  13.662  30.106   1.855
58536W        W18072  12.828  23.600   3.711
58537W        W18073   2.880  21.077  11.562
58538W        W18074  19.069  34.934  14.874
58539W        W18075  40.428  43.336   0.421
58540W        W18076  36.428  32.139   0.751
58541W        W18077  10.145  40.851  14.335
58542W        W18078   1.343  27.540  14.409
58543W        W18079  40.933  10.327  12.042
58544W        W18080  39.028   3.843  14.991
58545W        W18081  13.751  14.136   1.371
58546W        W18082  40.963  32.500   2.845
58547W        W18083  43.770   9.835  11.481
58548W        W18084   8.852  25.620   2.701
58549W        W18085  20.586  18.588  12.835
58550W        W18086  27.015  22.622  10.476
58551W        W18087  11.275  34.099  14.822
58552W        W18088   6.856  16.810  14.846
58553W        W18089  44.464  15.142  11.550
58554W        W18090  34.084  10.310   0.961
58555W        W18091  38.000  34.502  12.828
58556W        W18092  25.121   8.795  14.798
58557W        W18093  29.932  19.655  12.470
58558W        W18094  38.822  25.989   4.346
58559W        W18095  10.379  29.515  11.989
58560W        W18096  35.852   7.769   0.965
58561W        W18097  44.888  37.429   2.193
58562W        W18098   4.279  11.766  11.586
58563W        W18099  39.874   6.227  14.382
58564W        W18100  28.659  41.010  10.498
58565W        W18101  23.167  26.032   2.853
58566W        W18102  28.658  23.167  13.319
58567W        W18103  25.134  21.570   2.279
58568W        W18104  42.029   2.230   4.811
58569W        W18105  25.669  37.006  10.987
58570W        W18106  40.804  28.030   2.902
58571W        W18107  32.000  40.414   2.348
58572W        W18108   0.352  37.031   4.809
58573W        W18109   3.241  12.711  12.068
58574W        W18110  33.905  28.133  10.955
58575W        W18111   1.349  30.970   1.441
58576W        W18112  25.496  36.992  14.910
58577W        W18113  26.065  17.287  14.419
58578W        W18114  27.507  11.128  14.438
58579W        W18115  36.958  41.467   1.735
58580W        W18116  36.041   6.199  10.451
58581W        W18117  38.903  36.529  11.022
58582W        W18118  43.499  18.739  11.499
58583W        W18119  30.919   7.356   9.920
58584W        W18120   2.446  12.235   1.933
58585W        W18121  23.586  36.534   2.859
58586W        W18122  28.663  44.847  13.537
58587W        W18123  15.117   5.390  14.837
58588W        W18124  26.492  32.626   0.415
58589W        W18125   2.335  35.994  11.388
58590W        W18126  15.329  23.546   2.357
58591W        W18127  22.048  41.927  11.424
58592W        W18128  29.634   9.763  11.051
58593W        W18129  26.563  37.570  10.526
58594W        W18130   9.190   1.929  12.438
58595W        W18131  18.711  30.952  12.514
58596W        W18132  33.885  17.124   2.301
58597W        W18133  39.403  25.708   4.286
58598W        W18134  36.448  44.834   3.797
58599W        W18135  43.957  38.347  11.503
58600W        W18136  32.005   8.228   4.287
58601W        W18137  37.965   1.922  10.448
58602W        W18138  10.270  28.120   4.205
58603W        W18139  18.637  22.646  12.907
58604W        W18140  12.195  21.234  14.405
58605W        W18141  26.162  35.982   2.366
58606W        W18142  11.370   1.848  10.575
58607W        W18143  17.559   4.878  11.514
58608W        W18144  29.098  42.942   1.347
58609W        W18145  42.966  13.707   2.401
58610W        W18146  38.543   0.263   0.854
58611W        W18147  35.106  25.093   3.306
58612W        W18148  14.770  41.375  14.821
58613W        W18149  39.037  16.165   0.422
58614W        W18150  26.670  24.111   2.884
58615W        W18151   7.757  29.501  11.559
58616W        W18152  31.453   5.691   2.412
58617W        W18153  16.295  11.193  11.874
58618W        W18154  35.941  44.855  10.512
58619W        W18155  31.136  23.723  10.068
58620W        W18156  40.355  29.097  11.940
58621W        W18157  26.105  14.239  13.348
58622W        W18158  10.651  34.526   2.756
58623W        W18159  34.498  22.644  11.906
58624W        W18160  11.293  17.727  11.952
58625W        W18161   7.326  22.531   1.934
58626W        W18162  31.010  33.496   1.423
58627W        W18163  11.828  21.631  10.086
58628W        W18164  43.869  44.759  12.408
58629W        W18165  42.371  33.117   1.930
58630W        W18166  27.046  38.954   3.214
58631W        W18167  16.262  19.611   0.326
58632W        W18168  36.413   3.383   0.881
58633W        W18169  36.517  19.664   1.408
58634W        W18170  31.122   7.334  13.840
58635W        W18171  34.863  28.087   1.243
58636W        W18172  23.558   1.761   2.900
58637W        W18173  24.028  24.590  14.358
58638W        W18174   6.299   9.876  10.479
58639W        W18175  11.724   6.413  12.911
58640W        W18176  34.958  17.275  11.882
58641W        W18177  20.078  30.439  11.098
58642W        W18178  26.466  33.389  11.525
58643W        W18179   3.248  16.591  11.409
58644W        W18180  14.778  10.306   0.771
58645W        W18181  25.547  21.649   3.209
58646W        W18182  40.923  43.358   1.381
58647W        W18183  42.980  18.566  12.516
58648W        W18184  27.670  33.965  12.565
58649W        W18185  24.206  22.082  10.576
58650W        W18186  39.824  10.709  12.463
58651W        W18187  35.421   4.331   3.238
58652W        W18188  24.137  15.796  13.355
58653W        W18189  19.650  28.018  13.419
58654W        W18190  24.503  26.021  11.111
58655W        W18191   8.670   6.413   4.724
58656W        W18192  43.366  26.633  13.398
58657W        W18193  27.054  24.209   4.713
58658W        W18194   5.885  32.422  11.879
58659W        W18195   0.912   7.364   2.283
58660W        W18196  44.907  28.435   4.174
58661W        W18197  14.678  31.571   2.249
58662W        W18198   6.302  38.834  13.453
58663W        W18199  42.958  20.091  14.426
58664W        W18200  23.100  37.581  13.405
58665W        W18201   0.823  39.403  13.497
58666W        W18202  10.806  24.087  12.954
58667W        W18203  23.525   7.346   3.271
58668W        W18204  13.700   1.902   0.927
58669W        W18205  44.358   5.209  11.000
58670W        W18206  31.946  30.081   0.847
58671W        W18207  36.849  35.398  13.425
58672W        W18208  36.962   6.353   3.743
58673W        W18209   7.885  23.027   3.701
58674W        W18210   3.951  28.572  14.339
58675W        W18211  13.743  44.268   0.471
58676W        W18212  16.114  17.143  11.406
58677W        W18213  13.137  35.042  14.775
58678W        W18214  41.477  24.543   0.329
58679W        W18215  31.902  22.561  12.366
58680W        W18216  25.061  11.715  10.618
58681W        W18217  26.506   9.727  10.469
58682W        W18218  40.332  24.489   4.658
58683W        W18219  16.155   9.252  14.401
58684W        W18220   4.444  31.571   1.436
58685W        W18221  15.326   9.272   4.676
58686W        W18222  27.941  25.140  13.987
58687W        W18223   9.156  31.116  10.006
58688W        W18224  30.646  36.943   4.696
58689W        W18225  12.648  30.630  10.899
58690W        W18226  43.903   7.777  11.470
58691W        W18227  32.595  34.380  11.591
58692W        W18228  29.622  17.589  10.982
58693W        W18229   7.284  33.973  10.545
58694W        W18230  18.782  40.886  11.999
58695W        W18231  34.589  43.487   4.630
58696W        W18232   0.409   9.182   4.750
58697W        W18233  20.178  41.395  11.513
58698W        W18234  37.945   9.163  11.612
58699W        W18235  16.573  33.543   1.746
58700W        W18236  36.077  30.424  12.557
58701W        W18237  26.061  22.711   4.168
58702W        W18238  40.344  15.272  12.522
58703W        W18239  42.417  40.872   3.335
58704W        W18240  12.665  34.437   1.909
58705W        W18241  12.159  16.568   1.307
58706W        W18242  26.059  12.713  11.920
58707W        W18243  34.097   4.445  14.843
58708W        W18244  44.005  34.881  14.002
58709W        W18245   0.744  27.067  13.434
58710W        W18246  28.565  17.167  11.594
58711W        W18247  30.077  17.752  14.002
58712W        W18248  26.148  43.357   1.720
58713W        W18249  17.708  41.515   1.296
58714W        W18250  37.525   8.168   1.301
58715W        W18251  18.701  43.514  13.369
58716W        W18252   0.787  22.046  13.936
58717W        W18253  42.446  35.927   1.285
58718W        W18254  43.380  30.996   3.187
58719W        W18255   9.389   9.644  12.902
58720W        W18256  33.110  29.607  11.874
58721W        W18257  30.584   1.480  11.577
58722W        W18258   7.900  28.963  14.978
58723W        W18259  35.445  23.119  11.050
58724W        W18260  44.308  42.502   2.783
58725W        W18261  25.025  29.634  13.968
58726W        W18262  28.663  23.734  13.417
58727W        W18263  25.564  22.152  12.835
58728W        W18264   7.902  27.638   5.126
58729W        W18265  37.944   4.809   3.654
58730W        W18266  10.330  17.236   1.330
58731W        W18267   2.828  23.067  11.016
58732W        W18268  18.552  18.252  12.501
58733W        W18269   8.826  26.631   0.442
58734W        W18270  40.962  18.285  12.450
58735W        W18271  24.191  10.698  10.955
58736W        W18272  17.261   4.748   0.420
58737W        W18273   5.795  30.949   0.813
58738W        W18274  34.576  37.905  13.937
58739W        W18275  39.347  12.306  14.400
58740W        W18276   3.850   5.907  14.770
58741W        W18277  19.735  34.006   3.766
58742W        W18278   0.936  12.145   3.790
58743W        W18279  36.913  29.491  11.085
58744W        W18280   3.429   1.264  12.507
58745W        W18281  12.713  30.959   4.663
58746W        W18282  18.678   1.863   1.809
58747W        W18283  25.015  15.177  14.844
58748W        W18284  33.592   7.401  14.478
58749W        W18285  32.907   0.884   3.377
58750W        W18286  22.020  12.747  13.980
58751W        W18287  27.564  38.396   3.232
58752W        W18288  23.650  33.576  11.437
58753W        W18289  29.433  30.084  10.446
58754W        W18290   6.185  44.998  13.422
58755W        W18291  35.574   5.775  14.846
58756W        W18292  19.774  41.861  13.920
58757W        W18293   8.779  33.384  11.980
58758W        W18294  37.560  23.067   0.318
58759W        W18295  24.099  23.612   0.458
58760W        W18296  31.462  22.022  14.902
58761W        W18297  17.306   8.339  10.433
58762W        W18298  30.143  38.904   2.231
58763W        W18299  19.229  27.493  11.578
58764W        W18300  28.167  35.441   1.791
58765W        W18301   2.471  17.138   1.378
58766W        W18302  23.020  28.533  12.347
58767W        W18303  18.557  11.304  13.391
58768W        W18304  19.141  12.693  14.790
58769W        W18305   1.388  31.465  12.531
58770W        W18306  25.019   8.319   4.152
58771W        W18307  17.281  44.377  13.501
58772W        W18308  12.167  25.647  12.364
58773W        W18309  42.893  20.710   2.203
58774W        W18310  12.259  23.494   4.641
58775W        W18311  17.064  19.593   2.667
58776W        W18312  24.995  43.341  12.480
58777W        W18313  44.011  35.375  11.024
58778W        W18314  13.831  32.127  14.937
58779W        W18315  22.650   0.938  12.901
58780W        W18316  17.207  31.406   2.351
58781W        W18317  21.235  44.400   1.215
58782W        W18318   2.339   3.289  14.352
58783W        W18319  27.051  22.509   4.755
58784W        W18320   7.801  32.603  14.765
58785W        W18321   4.852  12.817   1.388
58786W        W18322  11.629  32.958   4.261
58787W        W18323  42.031  18.074  14.894
58788W        W18324  42.364  39.363   2.685
58789W        W18325  24.656  12.140  14.354
58790W        W18326   8.405  23.191   3.205
58791W        W18327  10.227  43.987  12.916
58792W        W18328  14.636  42.993  10.481
58793W        W18329  42.442  24.674   4.677
58794W        W18330  34.977  44.414   3.149
58795W        W18331  27.188  14.795  12.506
58796W        W18332  38.453  26.080   2.194
58797W        W18333   6.204  14.222   4.323
58798W        W18334  16.203  19.571  13.020
58799W        W18335  21.547  14.313   4.249
58800W        W18336  22.580  29.507  12.859
58801W        W18337  25.685  44.982   0.250
58802W        W18338  24.119   8.822  12.358
58803W        W18339   0.907  26.695   5.222
58804W        W18340  44.801  34.051   1.844
58805W        W18341   4.905  44.872   3.331
58806W        W18342  23.003  42.795  12.399
58807W        W18343  18.632   7.699   0.366
58808W        W18344  31.010  44.377   2.367
58809W        W18345   0.296  12.233   2.754
58810W        W18346  23.679  35.516   0.363
58811W        W18347   6.217  26.172   3.635
58812W        W18348  23.576  30.485   1.814
58813W        W18349   5.415   1.480  12.425
58814W        W18350  13.841  18.100   3.844
58815W        W18351  41.913  31.118   1.269
58816W        W18352  36.054  36.548   1.702
58817W        W18353  18.055   6.203   0.809
58818W        W18354   1.333   7.798   4.645
58819W        W18355  31.550  32.983  12.344
58820W        W18356  37.916  13.111  11.522
58821W        W18357   0.304  39.446  13.973
58822W        W18358  15.131  34.049  13.409
58823W        W18359  20.081  28.603   2.226
58824W        W18360  13.295  25.503  10.630
58825W        W18361  34.098  38.016  14.802
58826W        W18362  13.255  20.612   1.721
58827W        W18363  12.229   2.347   1.436
58828W        W18364   1.866  12.619   4.763
58829W        W18365  42.843  28.987  10.500
58830W        W18366  26.988  10.656  12.576
58831W        W18367  13.634  27.946  10.984
58832W        W18368  33.024  21.213  11.993
58833W        W18369  29.666  43.014  10.571
58834W        W18370  16.234  44.396  12.457
58835W        W18371  42.820  14.340   1.699
58836W        W18372  20.076   9.274   3.260
58837W        W18373  14.094  36.075   3.836
58838W        W18374   3.716  30.937   3.776
58839W        W18375  21.706  14.742  12.560
58840W        W18376  26.125  10.274   2.288
58841W        W18377  22.087  17.756   1.410
58842W        W18378  21.734  44.440   0.380
58843W        W18379   6.222  44.786   3.746
58844W        W18380  39.406  19.580  14.317
58845W        W18381  24.654  15.612   3.156
58846W        W18382   7.735  16.126   3.279
58847W        W18383  34.428  41.883   0.358
58848W        W18384  39.996  21.060  13.537
58849W        W18385  20.242   0.747  10.584
58850W        W18386   0.286  43.779  14.414
58851W        W18387  35.472  37.516   3.645
58852W        W18388  37.892  17.569  12.034
58853W        W18389  12.267  19.695   2.686
58854W        W18390  26.685   1.424  13.858
58855W        W18391  26.193  34.577  14.771
58856W        W18392   7.355  20.599   2.191
58857W        W18393  32.405  35.555  13.874
58858W        W18394  31.505  27.585   0.385
58859W        W18395  20.624   4.408   4.757
58860W        W18396  15.327  39.368  14.463
58861W        W18397  26.108  19.559  12.419
58862W        W18398  31.921  13.710   0.821
58863W        W18399   3.409  17.610   2.400
58864W        W18400  44.483  32.479   3.177
58865W        W18401   4.874  12.125  10.922
58866W        W18402   8.811   4.434  13.029
58867W        W18403  25.474  22.067   3.783
58868W        W18404  17.098  33.417   2.792
58869W        W18405  26.667   0.344   9.951
58870W        W18406  28.958  36.462   4.750
58871W        W18407  33.591  27.510   4.177
58872W        W18408  18.142   4.725   2.210
58873W        W18409   6.210  19.565  11.498
58874W        W18410   4.276  33.560   4.156
58875W        W18411  10.679  40.899  12.076
58876W        W18412  16.305  42.399   2.756
58877W        W18413  23.606  22.518   1.408
58878W        W18414  33.395  31.557   3.194
58879W        W18415  31.984  43.353   1.393
58880W        W18416  15.748  44.778   1.886
58881W        W18417   9.196   7.807  12.530
58882W        W18418  13.201  31.925  10.469
58883W        W18419  23.156  26.113   3.762
58884W        W18420  34.021  16.283  13.409
58885W        W18421  23.225   3.291   0.872
58886W        W18422  17.696   3.437  11.477
58887W        W18423  27.005  36.499  13.987
58888W        W18424  29.550  26.544  10.573
58889W        W18425  12.361  16.647   0.360
58890W        W18426  37.982  44.471  13.796
58891W        W18427  34.447  44.472   2.738
58892W        W18428  37.957   4.436  12.547
58893W        W18429  11.165  39.461   1.821
58894W        W18430  39.363  37.570  12.092
58895W        W18431   5.220  41.983   2.288
58896W        W18432  38.957  23.048  13.410
58897W        W18433  30.473  42.922  14.391
58898W        W18434  12.184  38.900  14.289
58899W        W18435  35.947  18.160   1.346
58900W        W18436   0.899  23.084  14.340
58901W        W18437  42.487  40.849  12.440
58902W        W18438   5.388  26.541   5.216
58903W        W18439  43.513  39.456  10.951
58904W        W18440  23.219  43.454   3.298
58905W        W18441  33.469   5.831   3.647
58906W        W18442  32.140  29.919   3.799
58907W        W18443  30.147  43.008  12.352
58908W        W18444  42.359  38.874  14.995
58909W        W18445  27.659  39.549   3.186
58910W        W18446   3.807  41.963   3.719
58911W        W18447   9.694  19.665  13.902
58912W        W18448  29.175  36.440  13.965
58913W        W18449  24.664  28.669   1.263
58914W        W18450  21.065   7.828   2.250
58915W        W18451  26.642  36.972   3.864
58916W        W18452  30.623  31.514  13.018
58917W        W18453   6.315  15.099  13.527
58918W        W18454  14.191   6.878   1.264
58919W        W18455   1.803  41.025  12.472
58920W        W18456  38.346  29.114  14.886
58921W        W18457  42.916  28.082  13.920
58922W        W18458  28.104  34.458   1.867
58923W        W18459  37.950   6.203   9.992
58924W        W18460  16.275  26.986  10.440
58925W        W18461  17.179  44.374  14.861
58926W        W18462  40.937  38.951   0.439
58927W        W18463   5.218  35.560   1.397
58928W        W18464  32.974  25.182   1.726
58929W        W18465   9.205  33.046   2.756
58930W        W18466  28.997  22.535  11.415
58931W        W18467  44.917   1.764  10.632
58932W        W18468  32.435  17.572  12.480
58933W        W18469  21.642  25.670  11.575
58934W        W18470   2.957  20.726   1.232
58935W        W18471  37.436   7.700   2.885
58936W        W18472  10.272  40.323   2.805
58937W        W18473  40.804  44.001  14.775
58938W        W18474  32.071   5.718  11.055
58939W        W18475   7.667   6.293  10.461
58940W        W18476  17.192  35.903   0.786
58941W        W18477  39.875  28.569   4.758
58942W        W18478  32.460  38.012   4.250
58943W        W18479   0.897  36.475   0.796
58944W        W18480  13.791  11.677   1.749
58945W        W18481  31.588  12.616   3.860
58946W        W18482  25.511  14.182  14.351
58947W        W18483  21.543  22.566   2.355
58948W        W18484  28.511  29.938   2.411
58949W        W18485  34.465  39.387  12.560
58950W        W18486  11.175  30.049   4.718
58951W        W18487  42.013  23.520   0.916
58952W        W18488  20.627   0.988  11.059
58953W        W18489  44.967  24.581   1.928
58954W        W18490  26.180  17.268   1.846
58955W        W18491   1.481  41.943   1.855
58956W        W18492  42.977   4.234   3.679
58957W        W18493   4.403  10.279  14.289
58958W        W18494  11.323  24.602   3.217
58959W        W18495   7.895  29.530   0.395
58960W        W18496   8.283  38.415   4.289
58961W        W18497  29.500  18.715  12.078
58962W        W18498  13.277   0.782  14.972
58963W        W18499  23.522  25.637  12.523
58964W        W18500  27.602  26.172  11.521
58965W        W18501  15.312  32.107  13.928
58966W        W18502  25.680  41.987   3.851
58967W        W18503  28.091   2.294  14.406
58968W        W18504  42.819  40.302   2.376
58969W        W18505  43.006  38.382   2.402
58970W        W18506  13.704  18.628  12.848
58971W        W18507   3.785  41.879   2.709
58972W        W18508  38.887   8.272  11.051
58973W        W18509  19.075  32.960   1.811
58974W        W18510  15.324  26.538  14.944
58975W        W18511  24.031   7.415   1.813
58976W        W18512  22.137  29.547   1.382
58977W        W18513  21.029  41.436   2.325
58978W        W18514  27.545  25.503  13.419
58979W        W18515  28.441  21.698   1.781
58980W        W18516  44.780  23.660  13.939
58981W        W18517  43.481  19.668  14.309
58982W        W18518   3.259  41.913  11.045
58983W        W18519  18.630  12.328  10.918
58984W        W18520  17.160   9.775  13.467
58985W        W18521   0.251   0.493  14.819
58986W        W18522  13.700   3.811  14.988
58987W        W18523  39.468   7.897   4.728
58988W        W18524   0.771  20.137  13.542
58989W        W18525  35.937  18.603   0.361
58990W        W18526  12.745  26.158   5.263
58991W        W18527   8.335  37.500  12.062
58992W        W18528   3.955  15.161   1.398
58993W        W18529  17.091  29.940   0.344
58994W        W18530   1.778  23.082  12.941
58995W        W18531  37.961   0.333   3.796
58996W        W18532  44.911   1.816   1.270
58997W        W18533  33.555  26.024   1.395
58998W        W18534  29.045  35.477   3.376
58999W        W18535  23.062  42.335   1.321
59000W        W18536  39.926   2.250  14.800
59001W        W18537  42.885  36.352   2.369
59002W        W18538  30.558  40.330   4.809
59003W        W18539  30.154   8.666  12.971
59004W        W18540  30.090  37.566   4.772
59005W        W18541   4.734  37.565   1.347
59006W        W18542   3.251  36.961   0.444
59007W        W18543  25.687  24.983   5.141
59008W        W18544  12.336  18.067  11.947
59009W        W18545  43.784   3.888  12.514
59010W        W18546  31.499  39.813   0.398
59011W        W18547   6.274  34.417  14.817
59012W        W18548  28.574  20.052  11.529
59013W        W18549   8.687  35.080   4.743
59014W        W18550   2.333   9.321   0.252
59015W        W18551  24.227  30.087   4.759
59016W        W18552   4.402  27.593   2.692
59017W        W18553  12.720  37.548  10.921
59018W        W18554   4.404  29.048  13.349
59019W        W18555   2.355  32.524   2.748
59020W        W18556  27.525  13.796   1.448
59021W        W18557  14.220  30.960   3.663
59022W        W18558   8.181  10.716   2.196
59023W        W18559   6.360  11.638  13.875
59024W        W18560  34.537   0.962  11.073
59025W        W18561  11.221  14.810   0.467
59026W        W18562  40.046  44.847  11.462
59027W        W18563  11.285  10.731   5.802
59028W        W18564  42.304  30.655   0.451
59029W        W18565  43.809  24.703  14.442
59030W        W18566  31.504  22.175   0.471
59031W        W18567  16.684  25.131   1.372
59032W        W18568  22.675  27.158   0.391
59033W        W18569  14.792  42.359  10.507
59034W        W18570   4.788   8.347   5.275
59035W        W18571  40.969  31.043  11.454
59036W        W18572  11.271   0.945  11.492
59037W        W18573  33.506  10.349   1.783
59038W        W18574  42.791  33.883   3.760
59039W        W18575  12.176  23.537   4.179
59040W        W18576  18.764  27.552  14.285
59041W        W18577  33.514  32.012   3.278
59042W        W18578  17.556   0.981  12.930
59043W        W18579  34.499   7.792  11.066
59044W        W18580  34.063  35.074   0.301
59045W        W18581  23.217  40.998   0.357
59046W        W18582  18.630  35.915  13.319
59047W        W18583  13.221  41.325   2.812
59048W        W18584  20.187  41.966   0.731
59049W        W18585   7.333   8.364  12.848
59050W        W18586  24.622  14.219   4.265
59051W        W18587  30.950  36.593  13.533
59052W        W18588   0.821  27.166  12.487
59053W        W18589  35.979  37.461   2.877
59054W        W18590  40.423  39.839  12.073
59055W        W18591  27.160  29.017  13.868
59056W        W18592  27.508  10.332   2.706
59057W        W18593   3.451  24.042   0.309
59058W        W18594   7.911   7.712  13.034
59059W        W18595  30.907   5.228  14.828
59060W        W18596  43.472  13.301  13.030
59061W        W18597   6.245  22.179   2.186
59062W        W18598   6.881  33.929  10.926
59063W        W18599  25.670  35.446   5.640
59064W        W18600   1.772  22.046   0.372
59065W        W18601  41.854  13.701   1.290
59066W        W18602   2.869  12.122  11.534
59067W        W18603  43.888  11.718  10.993
59068W        W18604   2.920  15.135  14.468
59069W        W18605  43.790  13.840  12.998
59070W        W18606  14.705  35.552  13.992
59071W        W18607  44.814  10.381   4.754
59072W        W18608  26.096   4.443  13.353
59073W        W18609  36.382  25.114  14.296
59074W        W18610  30.962  31.063   4.715
59075W        W18611  25.198  21.041   0.728
59076W        W18612  26.040   8.724   0.940
59077W        W18613  30.416  34.404   2.348
59078W        W18614  26.208  30.622  13.981
59079W        W18615  42.355  25.033  12.051
59080W        W18616   1.901  17.785   1.723
59081W        W18617  29.508  36.551   4.316
59082W        W18618  37.368   4.858   0.767
59083W        W18619   1.907  39.900   0.786
59084W        W18620   3.398  18.161   1.873
59085W        W18621  34.988  36.418  10.524
59086W        W18622  20.067  25.989   1.254
59087W        W18623   3.376   1.946   3.289
59088W        W18624  37.394  31.042   4.250
59089W        W18625  36.417  28.937   4.137
59090W        W18626  31.951  33.610  13.471
59091W        W18627  43.885  12.192  14.505
59092W        W18628  43.958  28.554   0.370
59093W        W18629  25.131   3.908  11.939
59094W        W18630  42.480  43.275  14.790
59095W        W18631  25.218  36.503   3.743
59096W        W18632   9.864  41.994  12.978
59097W        W18633  37.557  25.181  14.908
59098W        W18634  37.379  44.427  14.508
59099W        W18635  32.554  22.673  12.038
59100W        W18636  25.968  27.953   2.806
59101W        W18637  22.714  11.203  12.566
59102W        W18638  12.168  38.840   2.771
59103W        W18639   8.179  14.256  14.826
59104W        W18640  24.657  12.795  10.929
59105W        W18641  40.365  12.821   1.835
59106W        W18642   9.668  32.139   1.841
59107W        W18643   9.671  38.374  14.889
59108W        W18644  38.501  36.882  13.880
59109W        W18645  35.588  19.073   2.357
59110W        W18646  21.594   2.332   3.785
59111W        W18647  21.227  31.641  14.808
59112W        W18648  16.601  13.212  11.009
59113W        W18649  40.900  20.254   0.928
59114W        W18650  30.012  42.829   1.742
59115W        W18651  30.040  38.469  12.519
59116W        W18652   6.297  41.951   3.633
59117W        W18653   3.382  15.233  12.829
59118W        W18654   0.783  20.583  11.612
59119W        W18655  39.481  15.779  13.006
59120W        W18656   3.892  43.335   1.896
59121W        W18657  17.773  12.231   0.834
59122W        W18658   7.232   3.327   0.906
59123W        W18659  25.611   5.346  12.006
59124W        W18660   9.868   3.349  12.053
59125W        W18661   6.785  21.114   3.164
59126W        W18662  16.733  23.170   4.271
59127W        W18663  22.029  19.077  10.909
59128W        W18664  19.054  23.592  14.442
59129W        W18665  38.905  31.522  11.965
59130W        W18666  12.675   3.459  14.313
59131W        W18667  18.716  11.701   2.701
59132W        W18668   0.891  16.752  10.901
59133W        W18669  26.579  31.126  10.591
59134W        W18670  14.313  23.137   0.374
59135W        W18671   0.816  10.312   1.399
59136W        W18672  32.504  39.508  11.419
59137W        W18673  42.888  16.117  11.575
59138W        W18674   0.447  34.873   4.693
59139W        W18675  41.484  14.762   9.672
59140W        W18676  35.070  43.427   2.786
59141W        W18677   2.745   5.388  11.936
59142W        W18678  37.963  29.432  11.088
59143W        W18679  36.476  44.928   3.283
59144W        W18680  38.395   6.233  11.114
59145W        W18681   7.812  14.186  10.940
59146W        W18682  22.113   7.704   0.729
59147W        W18683  40.975  27.095   2.863
59148W        W18684   2.906   2.927   1.760
59149W        W18685  19.208  42.314   0.267
59150W        W18686   4.240  15.142  13.469
59151W        W18687   1.915  26.163  12.007
59152W        W18688  34.519  44.455   0.284
59153W        W18689  15.288  27.049  11.399
59154W        W18690   7.333  26.161   0.961
59155W        W18691  37.453  27.645  14.913
59156W        W18692  30.915  38.862  12.576
59157W        W18693   7.763  32.591   4.322
59158W        W18694  13.602  12.660   1.827
59159W        W18695  28.025  11.755  14.902
59160W        W18696  12.681  18.726   2.216
59161W        W18697  42.027   5.205  11.017
59162W        W18698  24.052  20.274  13.815
59163W        W18699  22.719  35.066   3.233
59164W        W18700  35.380  29.445  14.999
59165W        W18701  23.497  31.983   1.362
59166W        W18702  18.241   2.824  14.362
59167W        W18703  43.795  29.115   3.805
59168W        W18704  27.034   2.353   3.298
59169W        W18705  30.563  44.383  12.043
59170W        W18706  10.675  25.981  12.527
59171W        W18707  32.101   0.771  10.490
59172W        W18708  25.973  33.079   4.741
59173W        W18709  33.496   7.867  11.979
59174W        W18710  16.665  38.486   2.725
59175W        W18711  16.783  10.220   0.960
59176W        W18712  40.030  28.107   0.266
59177W        W18713  22.585  27.650  14.414
59178W        W18714  12.804   2.427  14.805
59179W        W18715   6.803   7.818  12.392
59180W        W18716  10.342  36.038   0.752
59181W        W18717  16.666  33.041  13.988
59182W        W18718  29.475  27.505   2.669
59183W        W18719  23.543  17.586  13.798
59184W        W18720  32.110   0.949   3.759
59185W        W18721  26.654  11.186  10.019
59186W        W18722   1.838  31.921   2.227
59187W        W18723   7.704  22.649  12.972
59188W        W18724  37.559  25.166   4.169
59189W        W18725  41.891   7.724   0.365
59190W        W18726  26.457  39.974   5.230
59191W        W18727   2.338  28.977  14.410
59192W        W18728  29.968  34.408   3.732
59193W        W18729   1.905  40.974   1.752
59194W        W18730  30.972  20.204   0.362
59195W        W18731  28.004  35.862   4.292
59196W        W18732  32.929   6.240   3.792
59197W        W18733   4.320  17.614   1.357
59198W        W18734  22.123  41.346   3.668
59199W        W18735  13.616  25.216  13.057
59200W        W18736   7.257  10.769  12.343
59201W        W18737  23.591   2.228  11.560
59202W        W18738   8.860   3.334  14.956
59203W        W18739  22.060  20.206   1.218
59204W        W18740  27.620  44.290  10.630
59205W        W18741  29.465  12.778  10.467
59206W        W18742  18.669  27.070   1.250
59207W        W18743  38.484  39.517   2.190
59208W        W18744  20.192   8.878  14.475
59209W        W18745  15.248  44.826   0.273
59210W        W18746  15.124  36.512  13.394
59211W        W18747  30.544   8.194  10.964
59212W        W18748  34.023  42.962  13.509
59213W        W18749  16.199  43.843   2.208
59214W        W18750  19.638  20.223   3.215
59215W        W18751   1.951   2.297  14.860
59216W        W18752  43.516  43.344  14.456
59217W        W18753   8.749   8.678   5.126
59218W        W18754  35.444  22.536  10.963
59219W        W18755  20.059  13.602   2.281
59220W        W18756  28.587   6.280  11.086
59221W        W18757  33.883  10.750   0.961
59222W        W18758  21.686  11.794  12.480
59223W        W18759  27.072  26.544   3.335
59224W        W18760  27.589  13.248   3.837
59225W        W18761   8.271   9.681  10.549
59226W        W18762   9.689  31.433  11.446
59227W        W18763   9.669  39.922  14.920
59228W        W18764  33.422  31.546  10.895
59229W        W18765   2.910   6.293  13.928
59230W        W18766  20.575   2.361  13.963
59231W        W18767  34.510   7.379   3.166
59232W        W18768  29.124  34.611   3.379
59233W        W18769  20.681   8.735   1.845
59234W        W18770  35.870   1.482   0.860
59235W        W18771  19.228  12.287  14.444
59236W        W18772  30.043  41.922   4.344
59237W        W18773  23.687  28.520  14.357
59238W        W18774  32.970   8.672  13.027
59239W        W18775  26.074  21.624  14.510
59240W        W18776  20.616  25.183  12.050
59241W        W18777  21.132   2.795  12.923
59242W        W18778  29.578   3.852   3.279
59243W        W18779  41.864  32.580   1.725
59244W        W18780  13.622  17.563  10.627
59245W        W18781   7.823  10.187   1.440
59246W        W18782   3.884   8.734  10.493
59247W        W18783  11.184  27.479   0.474
59248W        W18784  16.146   4.899  12.894
59249W        W18785  31.622  13.702   3.156
59250W        W18786  26.038   1.471  12.008
59251W        W18787  42.891  37.999  12.575
59252W        W18788  40.893  29.539  14.314
59253W        W18789  32.084  38.438   4.822
59254W        W18790  32.501   7.290   1.744
59255W        W18791  21.160  40.916  10.612
59256W        W18792  12.642  36.006  11.931
59257W        W18793   0.967  37.381  13.456
59258W        W18794   8.767  43.514   0.803
59259W        W18795  16.077  29.490   4.145
59260W        W18796  32.040  40.545  11.982
59261W        W18797   2.940  36.380   3.213
59262W        W18798  11.672  16.173  14.820
59263W        W18799  16.312   8.873  10.119
59264W        W18800  13.816  22.217  10.969
59265W        W18801  30.015  30.654  14.492
59266W        W18802  20.093  22.169   2.891
59267W        W18803  10.789  40.895   4.222
59268W        W18804   0.412  41.299   0.377
59269W        W18805  23.069   1.901   4.155
59270W        W18806   9.172  44.964   4.708
59271W        W18807  16.670  14.692  10.454
59272W        W18808  44.458  43.993  14.383
59273W        W18809   4.360  26.699   4.248
59274W        W18810  15.137   7.860   4.630
59275W        W18811  23.129  38.421  13.394
59276W        W18812  25.578  27.013   0.860
59277W        W18813  13.670  32.948   2.726
59278W        W18814  13.778  17.258  11.046
59279W        W18815  17.085  29.998   4.246
59280W        W18816   7.308   2.291   2.264
59281W        W18817   6.726  25.520  13.792
59282W        W18818  11.201  40.495  12.833
59283W        W18819  21.681  11.673   4.225
59284W        W18820  16.254  26.539   1.821
59285W        W18821  41.977  30.441  11.613
59286W        W18822  25.109  32.024  10.521
59287W        W18823  22.035  39.893   2.336
59288W        W18824  31.034  26.497   2.371
59289W        W18825  30.983  10.189   2.685
59290W        W18826   2.277  42.835  13.326
59291W        W18827  13.132   3.879  10.642
59292W        W18828   2.388  39.555  10.489
59293W        W18829  34.012  31.967  12.344
59294W        W18830   8.254  32.604   0.332
59295W        W18831  21.722  33.125  12.546
59296W        W18832  22.594  22.214  11.059
59297W        W18833   5.343  18.725  11.907
59298W        W18834  20.674  32.065   0.373
59299W        W18835  20.120  31.995   1.301
59300W        W18836  42.382  41.043   4.780
59301W        W18837  43.844  31.407   1.856
59302W        W18838   4.364  40.534  14.418
59303W        W18839  32.951   8.276  13.794
59304W        W18840  10.661  12.816  10.598
59305W        W18841  38.447  10.685  12.554
59306W        W18842  36.095  26.969  14.960
59307W        W18843  33.971  32.572   2.202
59308W        W18844  20.104   6.281   3.160
59309W        W18845  43.015   9.257  14.954
59310W        W18846  27.552  26.012   1.855
59311W        W18847  23.067  18.669   0.377
59312W        W18848   8.892  22.220   2.688
59313W        W18849   1.880  41.411   3.270
59314W        W18850  19.057   2.736  12.426
59315W        W18851  21.202   4.723   3.808
59316W        W18852  34.993  24.672   2.181
59317W        W18853  26.675   6.742  12.859
59318W        W18854  27.471  12.752   4.254
59319W        W18855  38.512  41.479   4.251
59320W        W18856  16.215  43.440   2.749
59321W        W18857  11.148  22.730   1.849
59322W        W18858   7.888   8.368   3.162
59323W        W18859  24.198  31.643  13.858
59324W        W18860  34.908   1.912  12.061
59325W        W18861   9.315  17.795   2.844
59326W        W18862  28.078   2.355  11.886
59327W        W18863  40.442  35.601   2.782
59328W        W18864  43.377   0.416   4.610
59329W        W18865  40.037  23.189  12.504
59330W        W18866  36.986  41.855   0.389
59331W        W18867   8.362   9.734  13.503
59332W        W18868  38.977   2.271  10.147
59333W        W18869  20.122   9.709  14.418
59334W        W18870  32.608  23.212   2.703
59335W        W18871  26.657  34.506  12.870
59336W        W18872  42.435  38.394  10.574
59337W        W18873  25.986   4.938  11.496
59338W        W18874  42.912  21.602  13.847
59339W        W18875  41.430  10.744  11.445
59340W        W18876  42.865   5.917  11.606
59341W        W18877  26.552  39.451   0.885
59342W        W18878  37.873   7.186   2.745
59343W        W18879  44.281  32.994  11.973
59344W        W18880   9.761  34.085   1.415
59345W        W18881  40.327  22.102  14.499
59346W        W18882   1.380  10.676  13.044
59347W        W18883   2.871   0.265  14.947
59348W        W18884  10.168  16.262  11.536
59349W        W18885   5.718   6.254   4.332
59350W        W18886  17.128  42.942   2.833
59351W        W18887  42.784  28.660  10.403
59352W        W18888  26.094  39.535   2.851
59353W        W18889  43.402  16.626   1.933
59354W        W18890  38.523  11.856  11.090
59355W        W18891  29.028  13.828  11.025
59356W        W18892  17.606  12.154   1.930
59357W        W18893  20.069  22.744  14.978
59358W        W18894  13.324  17.697   2.723
59359W        W18895  38.335  31.493  12.867
59360W        W18896  11.153  41.398   2.787
59361W        W18897  15.227  37.582   3.711
59362W        W18898  22.518   7.223  13.830
59363W        W18899   4.385  25.988   3.659
59364W        W18900  41.825   9.373  13.026
59365W        W18901   1.362  27.187   1.273
59366W        W18902   0.359  20.550   0.771
59367W        W18903  11.703  35.064  11.110
59368W        W18904  23.064  44.951   0.878
59369W        W18905  29.974  10.720  13.017
59370W        W18906  23.223  30.591  10.484
59371W        W18907  34.940  25.118   1.889
59372W        W18908  31.617  38.433   3.778
59373W        W18909  30.654  14.811   4.245
59374W        W18910   4.759  38.820  12.855
59375W        W18911  44.351  39.916  11.856
59376W        W18912  41.325  24.583  10.488
59377W        W18913  27.615  39.044  14.422
59378W        W18914  39.419  20.699   3.696
59379W        W18915  17.666   6.729   0.474
59380W        W18916  43.785   7.254   0.422
59381W        W18917   4.209  42.829   2.402
59382W        W18918  19.080  37.973  13.948
59383W        W18919  30.111  40.871  12.883
59384W        W18920  18.590  32.008  13.308
59385W        W18921   5.742  32.586  11.061
59386W        W18922  33.116  16.571   2.742
59387W        W18923  14.655  34.550   3.288
59388W        W18924  14.799  19.270  14.950
59389W        W18925  15.125   7.860   1.211
59390W        W18926  28.562  33.086  13.436
59391W        W18927  32.452  22.724   3.382
59392W        W18928  42.028  33.905   1.770
59393W        W18929  41.991  12.736  13.038
59394W        W18930  11.326  42.357   2.222
59395W        W18931  39.436   1.974   1.383
59396W        W18932   3.276   2.359   0.285
59397W        W18933  28.155  28.018  10.011
59398W        W18934  19.262  43.834  14.366
59399W        W18935  15.696  21.684   4.834
59400W        W18936  17.195   0.788   1.762
59401W        W18937   0.961  20.099  13.975
59402W        W18938  37.417  44.390  13.412
59403W        W18939   3.242  35.027   2.314
59404W        W18940   1.472   5.807  14.879
59405W        W18941  14.276  23.210   0.798
59406W        W18942  27.015  41.329   2.308
59407W        W18943  32.536  17.801  11.584
59408W        W18944  44.381  31.478   1.240
59409W        W18945  25.029  39.962  11.123
59410W        W18946  35.014  12.217  12.976
59411W        W18947  26.961  23.697   4.600
59412W        W18948  34.960  41.033  10.582
59413W        W18949  16.596   6.391   1.249
59414W        W18950  27.568  19.556  11.438
59415W        W18951   9.307   9.697   2.306
59416W        W18952  16.261  10.375  14.858
59417W        W18953   3.289  43.922  11.915
59418W        W18954  12.216  12.836   3.771
59419W        W18955  42.432   0.270   3.156
59420W        W18956   8.211  14.263   3.669
59421W        W18957  27.084   4.826   0.825
59422W        W18958  30.633  19.123  13.504
59423W        W18959  24.159  19.691   0.286
59424W        W18960  27.528  41.870   2.338
59425W        W18961  43.833  30.528   0.959
59426W        W18962  31.420  31.003  10.538
59427W        W18963   5.409  21.529  10.446
59428W        W18964  27.126   5.809  13.512
59429W        W18965   2.275  37.471   5.277
59430W        W18966  23.670   4.401  12.440
59431W        W18967   6.848   7.895  12.943
59432W        W18968  29.664   6.297   9.926
59433W        W18969   0.800  25.473   2.261
59434W        W18970  11.791  26.127  14.378
59435W        W18971  10.870  11.667  12.418
59436W        W18972  29.524  22.681  12.434
59437W        W18973   1.264  27.645   3.184
59438W        W18974   9.228  43.270   0.371
59439W        W18975  32.433  41.939   1.254
59440W        W18976   2.302  34.096   3.871
59441W        W18977  22.667  29.073  13.009
59442W        W18978  42.334  17.644  14.802
59443W        W18979  11.832   1.277  11.505
59444W        W18980  21.254  27.102   1.318
59445W        W18981  12.304  23.034  10.505
59446W        W18982  39.866  20.561   0.847
59447W        W18983  44.493  37.834   1.377
59448W        W18984  25.667  26.093  13.355
59449W        W18985  14.339  14.615  13.900
59450W        W18986  26.552  40.363  12.886
59451W        W18987  16.166  25.975  10.990
59452W        W18988  17.215  43.290  12.074
59453W        W18989  10.846  16.582  13.933
59454W        W18990   7.215  34.009  14.990
59455W        W18991  13.718  42.431   0.420
59456W        W18992   8.826  26.187   3.346
59457W        W18993  24.111  12.199  14.320
59458W        W18994  32.403  11.184   1.248
59459W        W18995  35.485   0.439  11.488
59460W        W18996  34.397  29.994  12.421
59461W        W18997   1.919  44.904   2.699
59462W        W18998   9.395   3.395   3.279
59463W        W18999  32.421  13.343  12.824
59464W        W19000  29.589  31.620  10.947
59465W        W19001  25.100  31.939  10.041
59466W        W19002  31.992  20.254   4.149
59467W        W19003  16.634  23.108  13.377
59468W        W19004  34.564  28.041  11.566
59469W        W19005  30.551  20.103  10.479
59470W        W19006   1.977  14.656  13.898
59471W        W19007  21.719   9.683   0.870
59472W        W19008  32.448  42.032   4.278
59473W        W19009  28.540  10.787   2.790
59474W        W19010   4.937   0.326   1.328
59475W        W19011  35.956  21.053   2.213
59476W        W19012  12.784  34.502   4.193
59477W        W19013  20.098  40.825  14.772
59478W        W19014   0.786  33.599   0.861
59479W        W19015  16.705  41.386  12.952
59480W        W19016  23.682  19.691  14.853
59481W        W19017  38.538  13.724   1.919
59482W        W19018  36.056  30.523   4.302
59483W        W19019  25.040  39.411   4.708
59484W        W19020   5.296   7.767   1.830
59485W        W19021  27.463  38.874   0.953
59486W        W19022  31.966   9.342  11.896
59487W        W19023  18.573   7.409   4.345
59488W        W19024  13.692  33.408  12.425
59489W        W19025  41.966   7.411  10.015
59490W        W19026  26.618  24.210   4.148
59491W        W19027  36.564  40.510  12.579
59492W        W19028   2.820  44.465   1.739
59493W        W19029  43.463   2.334   3.806
59494W        W19030  23.223  16.807   1.883
59495W        W19031  33.021  14.132   4.670
59496W        W19032  44.981  14.202  14.788
59497W        W19033   4.204  37.911  12.414
59498W        W19034  40.549  28.567  12.998
59499W        W19035  40.005  36.896   1.915
59500W        W19036  11.868   5.320  12.395
59501W        W19037  44.940  21.745  13.336
59502W        W19038  32.510   1.358  10.593
59503W        W19039  15.726  13.789  11.060
59504W        W19040   4.444  13.208  13.997
59505W        W19041  12.792   8.708   4.739
59506W        W19042  10.767  13.695   0.807
59507W        W19043  22.622  39.359   2.316
59508W        W19044  26.061  41.868  13.004
59509W        W19045  14.278  38.406   4.159
59510W        W19046  28.140  26.199  11.059
59511W        W19047  37.974   9.237  10.466
59512W        W19048  32.997  19.096  10.484
59513W        W19049   5.714   3.438   1.376
59514W        W19050   2.256   7.898   3.699
59515W        W19051  42.486   2.258  13.367
59516W        W19052  10.753  44.757  11.118
59517W        W19053  10.203  29.918   1.728
59518W        W19054  12.362  37.069  12.375
59519W        W19055  39.535  37.983  13.330
59520W        W19056  29.653   4.722  11.464
59521W        W19057  14.593  19.135   4.801
59522W        W19058  42.495  16.124  10.504
59523W        W19059  22.105   0.981  11.085
59524W        W19060  21.254  41.884  13.992
59525W        W19061  13.235  21.180  11.577
59526W        W19062  13.292  14.759   4.675
59527W        W19063  31.434  17.793  11.512
59528W        W19064  22.054   5.303   1.425
59529W        W19065  36.021   8.297  13.356
59530W        W19066  25.633  40.339   3.266
59531W        W19067  31.051  14.154  12.445
59532W        W19068  40.506  17.728   4.608
59533W        W19069  24.188  13.790  14.479
59534W        W19070   6.293  37.073  11.519
59535W        W19071  19.686  24.497  14.995
59536W        W19072  18.236  17.737   1.290
59537W        W19073  22.033  25.598  12.392
59538W        W19074  25.610  13.681   1.348
59539W        W19075   0.870  18.105   2.826
59540W        W19076  13.645  43.399   1.368
59541W        W19077  28.587  40.950   1.305
59542W        W19078  19.729   3.936  11.375
59543W        W19079  26.167  35.025   2.352
59544W        W19080  25.667   9.388   0.431
59545W        W19081   9.724  13.791   1.709
59546W        W19082   6.738   6.761   2.688
59547W        W19083   4.240  12.249  14.457
59548W        W19084  10.359  41.810   3.291
59549W        W19085   8.264   5.851   4.178
59550W        W19086  18.639  17.681  10.550
59551W        W19087  34.560   4.267   5.291
59552W        W19088  43.309  34.382  12.090
59553W        W19089   0.417  17.744   3.217
59554W        W19090  43.329   0.464  10.952
59555W        W19091  33.588  10.803  14.361
59556W        W19092  22.597  17.567  13.398
59557W        W19093  43.781  37.381   3.368
59558W        W19094  34.437  44.817  13.010
59559W        W19095  18.124  35.547  11.398
59560W        W19096  18.075  14.787   0.335
59561W        W19097   1.747   5.758  12.960
59562W        W19098   9.187  40.006  11.857
59563W        W19099   9.149  38.357   1.310
59564W        W19100  13.315  33.129   2.734
59565W        W19101  18.753  37.523   2.398
59566W        W19102  36.470  35.016   0.845
59567W        W19103  34.395  39.488  12.908
59568W        W19104  15.312   8.237  12.501
59569W        W19105  28.026  30.515   1.441
59570W        W19106  17.772   7.681   3.787
59571W        W19107  42.884  40.982  11.515
59572W        W19108  44.475   3.879  11.485
59573W        W19109  38.026  15.218  14.441
59574W        W19110  39.354  38.073   0.415
59575W        W19111  15.133  18.648   0.341
59576W        W19112  28.135   4.820   1.884
59577W        W19113  17.665  13.188   2.886
59578W        W19114  22.701   9.280  13.861
59579W        W19115  35.916  26.173   2.349
59580W        W19116  29.129  29.505  11.089
59581W        W19117   0.899   8.360  11.592
59582W        W19118  21.598  10.238   0.265
59583W        W19119  36.890  23.493  12.872
59584W        W19120  22.581  26.068  13.407
59585W        W19121  43.483  35.437  11.038
59586W        W19122  25.057  11.744  14.344
59587W        W19123  16.297  31.646  14.919
59588W        W19124  23.571  24.220   3.153
59589W        W19125   9.773  20.035  14.837
59590W        W19126  30.944  30.146   4.122
59591W        W19127   9.769  25.625  12.428
59592W        W19128  26.044  16.790   2.721
59593W        W19129  13.108  42.408   0.392
59594W        W19130  31.618  33.124   1.253
59595W        W19131  25.561   0.847   4.704
59596W        W19132   8.875  24.504   4.276
59597W        W19133  26.613  37.060  12.010
59598W        W19134  37.345   7.326   4.764
59599W        W19135   3.297  11.728  12.842
59600W        W19136   6.309  40.510   2.375
59601W        W19137  35.093  22.244  11.512
59602W        W19138  15.727  40.516   2.818
59603W        W19139  10.154  36.446  11.983
59604W        W19140  42.921   2.867  14.985
59605W        W19141  40.353  37.579   1.780
59606W        W19142  39.958   4.766   0.430
59607W        W19143  12.253   7.677  10.128
59608W        W19144  37.934   6.294  12.032
59609W        W19145   5.874  41.849  13.004
59610W        W19146  40.930  15.720   0.431
59611W        W19147   6.188  29.456   1.903
59612W        W19148  33.079   7.792  14.422
59613W        W19149   8.365  24.626  12.007
59614W        W19150  20.675  33.431   0.748
59615W        W19151  15.284  21.152   2.808
59616W        W19152  11.832  38.865   3.648
59617W        W19153  39.422  17.769   2.783
59618W        W19154   5.931  19.737  12.416
59619W        W19155  18.149  42.295  13.801
59620W        W19156  38.859  28.055   1.699
59621W        W19157  44.931  35.514  10.427
59622W        W19158   3.939  25.031   0.858
59623W        W19159   4.777  38.477   1.706
59624W        W19160  23.597  36.947   4.759
59625W        W19161  44.362  38.343  14.448
59626W        W19162  37.493  14.330   1.272
59627W        W19163   0.786  41.987  10.523
59628W        W19164   6.211  23.151  14.917
59629W        W19165  28.488  14.116  10.914
59630W        W19166  14.704  32.490  13.479
59631W        W19167   5.781   3.872   1.833
59632W        W19168   5.310   7.898   3.276
59633W        W19169  35.599  19.099   4.351
59634W        W19170  38.356  22.690   4.817
59635W        W19171  30.972  13.292  13.854
59636W        W19172  18.564   9.663  11.991
59637W        W19173  24.670  15.130  13.849
59638W        W19174  35.583   8.837  11.065
59639W        W19175  43.302  42.298   0.943
59640W        W19176  36.985  26.035   1.233
59641W        W19177  28.654  32.003   3.165
59642W        W19178  22.094   9.150  12.838
59643W        W19179  33.439  29.133  10.905
59644W        W19180  13.204   4.204   4.719
59645W        W19181   0.457  20.029  10.593
59646W        W19182  17.626  25.631   1.721
59647W        W19183  23.723  21.123  14.899
59648W        W19184  42.414   6.326   0.426
59649W        W19185  24.145  28.980  13.461
59650W        W19186  35.546  14.268  12.026
59651W        W19187  13.665  30.009  14.933
59652W        W19188   5.373  11.654   4.218
59653W        W19189  34.523  28.006  13.942
59654W        W19190   9.770  13.221  14.392
59655W        W19191  32.523  13.205   0.832
59656W        W19192   0.917  17.623   4.671
59657W        W19193  28.008  12.332  13.514
59658W        W19194  34.938   0.817  11.384
59659W        W19195   2.863  30.612   0.873
59660W        W19196  31.529   6.792  10.938
59661W        W19197  41.337  28.157   1.256
59662W        W19198  26.051  21.671   5.662
59663W        W19199  35.923  36.083  12.972
59664W        W19200   0.859  39.046  14.510
59665W        W19201  38.028  37.436  12.033
59666W        W19202   9.270  22.180  13.981
59667W        W19203  13.258  28.459  12.994
59668W        W19204  43.307  19.584   1.931
59669W        W19205  35.073  42.843  12.458
59670W        W19206   7.318  14.816   4.248
59671W        W19207  26.188  39.558   4.297
59672W        W19208  42.954  13.637   1.759
59673W        W19209  16.781   8.836  14.988
59674W        W19210  12.789  31.148  10.421
59675W        W19211  17.747  18.619   2.202
59676W        W19212  32.099  16.731  14.020
59677W        W19213   0.944  33.491  11.481
59678W        W19214  19.555  19.250  14.440
59679W        W19215  18.248   4.242  12.452
59680W        W19216   7.672  32.563   0.438
59681W        W19217  24.692  21.592  11.408
59682W        W19218  13.229  38.906  13.367
59683W        W19219  36.098  19.744  10.525
59684W        W19220  32.084  19.205  11.071
59685W        W19221  15.215  38.932  11.527
59686W        W19222   8.828  32.440   4.222
59687W        W19223   0.820  20.650  10.610
59688W        W19224  35.496  42.006  14.948
59689W        W19225   3.881   2.372   0.261
59690W        W19226   8.705  23.721   0.922
59691W        W19227  34.040  29.966   4.299
59692W        W19228  35.560  16.145   0.275
59693W        W19229  23.191  27.117  10.497
59694W        W19230  26.969  30.082   4.780
59695W        W19231  40.007  41.900  13.857
59696W        W19232   3.280  31.645  12.343
59697W        W19233  28.010  26.681  13.984
59698W        W19234  11.706  29.578   3.256
59699W        W19235   8.199  26.127   1.364
59700W        W19236   4.336  36.919  13.441
59701W        W19237  41.790   4.282   4.312
59702W        W19238  29.531  13.282  14.370
59703W        W19239  37.555  13.294  12.000
59704W        W19240  32.512  41.882  12.453
59705W        W19241  24.494  32.427   2.223
59706W        W19242   9.663   5.387   3.324
59707W        W19243   5.773   8.184  14.438
59708W        W19244  32.985  11.737  12.849
59709W        W19245  25.662  17.594  13.324
59710W        W19246  33.895  25.992   2.208
59711W        W19247  26.969  42.903  14.958
59712W        W19248   9.280   1.439  14.792
59713W        W19249  31.980   3.397   2.373
59714W        W19250  31.432  17.210   1.804
59715W        W19251  27.676   1.937   0.922
59716W        W19252  39.427  32.547  11.993
59717W        W19253   9.304  10.335   2.860
59718W        W19254  11.748   5.734  11.585
59719W        W19255  32.128  21.661  14.813
59720W        W19256  38.352  43.415  14.355
59721W        W19257  44.999  19.536  12.431
59722W        W19258  35.590  42.833   0.938
59723W        W19259   7.700  30.079  13.880
59724W        W19260  27.520  37.420   4.717
59725W        W19261  13.637  12.263   4.766
59726W        W19262  38.501  14.214   2.248
59727W        W19263  31.095  36.975  14.840
59728W        W19264  34.552  23.142  13.010
59729W        W19265  27.104   5.852  11.963
59730W        W19266  26.084   5.739   5.208
59731W        W19267  32.578  42.396  13.974
59732W        W19268  44.390   8.769   1.266
59733W        W19269  24.109   3.904  12.385
59734W        W19270  23.551  15.716  10.643
59735W        W19271  23.539  15.688   1.294
59736W        W19272  11.187   3.796   1.815
59737W        W19273  17.303  31.944  10.599
59738W        W19274  29.006  34.534   0.909
59739W        W19275  30.420  10.788   3.246
59740W        W19276  30.914  18.205  11.424
59741W        W19277  13.224  19.154   0.939
59742W        W19278   2.253  12.346   0.312
59743W        W19279  11.779   6.866   0.466
59744W        W19280  29.055  12.189  13.905
59745W        W19281   3.377  22.746  14.820
59746W        W19282   2.357  40.951   2.767
59747W        W19283  16.179  34.072   2.317
59748W        W19284  33.005  23.106  10.983
59749W        W19285  42.454  31.113   2.216
59750W        W19286  25.651  28.094  10.964
59751W        W19287  26.495  17.742   1.212
59752W        W19288  13.676  39.426   4.305
59753W        W19289  37.016  41.998  13.887
59754W        W19290   5.312   5.770  14.791
59755W        W19291  36.386  35.576  13.944
59756W        W19292  37.338  44.009   1.294
59757W        W19293  34.425  23.109  14.814
59758W        W19294  15.750  38.924   2.850
59759W        W19295  41.538  12.752  12.460
59760W        W19296  10.800  16.118   4.663
59761W        W19297  44.809  39.539  11.020
59762W        W19298  15.241  37.002  13.342
59763W        W19299   9.212  25.618  11.082
59764W        W19300  15.312  23.171   0.792
59765W        W19301   8.719  12.761   2.669
59766W        W19302  43.864  38.368   2.311
59767W        W19303   9.807  39.990   4.134
59768W        W19304  22.523  13.291   4.184
59769W        W19305   7.209  24.069  10.978
59770W        W19306  27.958  44.957  12.557
59771W        W19307  16.695  37.040  13.388
59772W        W19308  42.863  27.103   0.743
59773W        W19309   0.974  17.122   4.599
59774W        W19310  35.953   2.315  14.352
59775W        W19311  41.835   0.748  10.538
59776W        W19312  33.042   5.203   3.312
59777W        W19313  42.885  37.429   2.713
59778W        W19314  40.337  35.854  13.022
59779W        W19315  14.161   7.349  10.151
59780W        W19316  22.710   6.777  13.899
59781W        W19317   2.329   7.720  11.407
59782W        W19318  19.156  42.519   1.215
59783W        W19319  24.704  19.258  13.034
59784W        W19320  36.421  44.810  13.832
59785W        W19321   8.230   4.344   4.251
59786W        W19322   4.726   8.881  14.431
59787W        W19323   4.403  41.536  13.545
59788W        W19324  25.966  26.986  10.555
59789W        W19325  19.614  41.311   2.821
59790W        W19326  15.293  43.503  11.864
59791W        W19327  23.028  42.787   1.347
59792W        W19328  19.220   3.268  10.494
59793W        W19329  19.651  27.573   4.151
59794W        W19330   3.793  21.017   4.338
59795W        W19331  40.501  40.438  10.990
59796W        W19332  36.419   8.880  12.487
59797W        W19333  25.128  44.940   0.877
59798W        W19334  36.981  32.141  11.482
59799W        W19335  35.007   3.878   1.928
59800W        W19336   5.830  19.222  13.479
59801W        W19337  40.850  20.165  11.976
59802W        W19338  13.628  41.431  13.404
59803W        W19339   8.261  10.328   3.762
59804W        W19340  18.660  43.816  13.495
59805W        W19341  19.108  17.579  13.377
59806W        W19342   5.837   9.777  12.907
59807W        W19343  43.868  13.119  10.606
59808W        W19344  10.789  42.919   2.188
59809W        W19345  32.061  11.265   0.373
59810W        W19346  31.909   5.426  14.506
59811W        W19347  18.595  41.536   3.756
59812W        W19348  12.318   5.199   0.760
59813W        W19349  34.102  18.161   1.931
59814W        W19350  19.072  29.124  12.399
59815W        W19351   4.271  15.202  13.824
59816W        W19352  28.961  31.636   2.277
59817W        W19353  12.780  44.467  10.891
59818W        W19354  36.944  35.964  13.833
59819W        W19355  41.360  25.622   4.251
59820W        W19356   5.429   9.347   2.253
59821W        W19357  25.546  19.621   3.794
59822W        W19358  23.234   6.188   2.679
59823W        W19359  30.460  17.102  12.468
59824W        W19360  15.205   5.791  11.040
59825W        W19361   5.788   8.214   4.676
59826W        W19362  29.933  25.193  10.927
59827W        W19363  24.089  17.071  10.416
59828W        W19364   9.368  23.029  14.865
59829W        W19365  24.048   0.461  10.458
59830W        W19366   5.352  43.314   1.758
59831W        W19367  17.802   3.436  13.053
59832W        W19368  41.496  39.543   4.743
59833W        W19369  43.877  15.642   1.930
59834W        W19370  18.159  22.646  13.847
59835W        W19371  37.080   7.686  11.981
59836W        W19372   9.216  36.015  11.954
59837W        W19373   9.349   7.307  11.395
59838W        W19374  29.613  38.334   0.401
59839W        W19375  42.309  26.185   3.798
59840W        W19376  23.128  21.059   3.828
59841W        W19377  34.963   5.896   0.461
59842W        W19378  42.002   6.219   2.800
59843W        W19379  17.757   7.291   4.331
59844W        W19380  16.718  30.028   3.215
59845W        W19381   1.975   3.448  13.328
59846W        W19382   8.859  18.163   1.831
59847W        W19383  39.813  42.363   3.833
59848W        W19384   7.909  30.096  11.863
59849W        W19385  23.237   9.828   4.615
59850W        W19386  26.571  38.931   1.707
59851W        W19387  35.852   4.405  14.512
59852W        W19388  14.637  35.032   0.314
59853W        W19389  17.669  11.168  12.441
59854W        W19390   6.243  35.053   1.796
59855W        W19391   0.802   2.834  13.025
59856W        W19392  15.651  13.742   4.276
59857W        W19393  10.336  39.065  10.959
59858W        W19394  22.507   5.361  14.997
59859W        W19395  33.943  20.104  12.471
59860W        W19396  23.610  34.866  11.897
59861W        W19397  24.069  26.555  11.066
59862W        W19398   7.788  31.054   0.907
59863W        W19399   2.736  14.623   1.381
59864W        W19400  40.548  21.232   0.248
59865W        W19401  40.354  25.694   1.328
59866W        W19402   1.438  20.256   3.331
59867W        W19403   2.794   3.448  14.493
59868W        W19404  39.476  20.547  13.429
59869W        W19405  12.203  44.374   3.661
59870W        W19406  37.343  23.699  14.998
59871W        W19407  35.403  13.349  13.004
59872W        W19408  40.984  42.003   2.692
59873W        W19409  28.441   1.977  14.956
59874W        W19410  31.991  36.364   3.386
59875W        W19411  34.607  22.562  14.981
59876W        W19412  43.410   4.904   2.269
59877W        W19413  37.009  35.574  12.523
59878W        W19414   5.875   2.957   4.818
59879W        W19415  22.642  40.023   3.198
59880W        W19416  27.076   7.852   1.289
59881W        W19417   4.399  30.429  13.462
59882W        W19418  10.324   6.709   0.349
59883W        W19419   6.891   2.867   4.194
59884W        W19420  12.263  21.041  11.898
59885W        W19421   2.872  16.120  11.903
59886W        W19422  11.182  29.144  10.978
59887W        W19423  20.248  44.008   3.312
59888W        W19424   5.237  16.204   1.328
59889W        W19425  44.397   6.229   1.912
59890W        W19426  17.783  28.605  12.497
59891W        W19427   6.824  38.969   2.693
59892W        W19428  34.914   1.429  14.441
59893W        W19429  23.612  20.047   4.746
59894W        W19430  43.975  27.977  11.008
59895W        W19431  30.436  18.184  10.931
59896W        W19432  24.642  28.956   4.676
59897W        W19433  14.122   0.383  11.025
59898W        W19434  24.543  26.137  12.853
59899W        W19435  21.166  13.292  13.954
59900W        W19436  42.445  31.043  14.958
59901W        W19437  13.686  43.447   4.154
59902W        W19438  18.057  19.665   0.399
59903W        W19439  33.984   1.328  12.035
59904W        W19440  40.967   1.894   2.304
59905W        W19441  21.189  11.644  14.413
59906W        W19442   2.966  36.389  12.463
59907W        W19443   2.816  34.971  11.980
59908W        W19444  15.179  11.286  11.029
59909W        W19445  38.872  19.643  12.418
59910W        W19446  25.146  15.329   1.833
59911W        W19447  29.020  38.054  12.490
59912W        W19448  39.912  24.555  12.831
59913W        W19449  29.174  23.499  14.974
59914W        W19450  42.973  13.273   5.158
59915W        W19451   0.822  40.315   1.298
59916W        W19452  43.841  20.225  12.065
59917W        W19453  13.297  16.224   3.275
59918W        W19454  39.876  42.016   0.751
59919W        W19455   0.454   6.234   2.771
59920W        W19456  27.021  10.142   4.184
59921W        W19457   9.717  25.114   9.593
59922W        W19458  35.935  21.728  14.296
59923W        W19459  38.824  18.610  12.850
59924W        W19460  37.520  42.467   3.793
59925W        W19461  24.185  17.224  10.985
59926W        W19462  24.067   2.781  14.434
59927W        W19463  43.361  29.133  12.012
59928W        W19464  11.728  22.995  12.022
59929W        W19465  42.945  10.818   1.357
59930W        W19466   0.398  22.601  11.058
59931W        W19467  39.387  19.756  11.988
59932W        W19468  12.731   1.899   1.450
59933W        W19469  39.443  17.597  14.873
59934W        W19470  27.562  27.454   2.184
59935W        W19471  11.806   2.298   4.827
59936W        W19472  30.625   8.733   0.402
59937W        W19473  17.739   7.318  11.075
59938W        W19474  11.667  30.640  14.866
59939W        W19475  17.584  17.659  14.772
59940W        W19476  26.691   4.734   4.237
59941W        W19477  16.582  36.841  11.086
59942W        W19478  30.951  14.771  14.970
59943W        W19479  25.187  43.354   2.340
59944W        W19480  29.450  26.572   3.657
59945W        W19481  24.665  17.619  13.328
59946W        W19482  11.645  35.022  10.078
59947W        W19483  21.186  28.162  13.831
59948W        W19484  17.286  33.557   1.319
59949W        W19485   0.824   5.280   1.756
59950W        W19486  32.574  24.197   5.188
59951W        W19487  13.303  32.959   4.732
59952W        W19488  42.031   9.812  11.957
59953W        W19489  31.921  44.294  12.412
59954W        W19490   5.846  16.694  13.469
59955W        W19491  34.545   0.272  10.477
59956W        W19492  33.451  30.000   4.667
59957W        W19493   3.888  15.190   3.829
59958W        W19494  31.549  35.391   1.875
59959W        W19495  29.507  21.668   4.733
59960W        W19496  24.489   3.308  14.452
59961W        W19497  20.041   5.312  13.476
59962W        W19498   2.731  42.989   1.279
59963W        W19499  24.636  23.617  14.931
59964W        W19500  13.840  37.515  12.568
59965W        W19501  28.638  42.845   4.806
59966W        W19502  23.986  11.197  10.991
59967W        W19503  21.203   4.824   2.710
59968W        W19504  19.060  31.025   0.932
59969W        W19505  32.021  10.215   3.657
59970W        W19506  31.490   6.893   3.773
59971W        W19507  12.613  21.242   2.364
59972W        W19508  22.655  13.824  12.964
59973W        W19509  16.766   3.446  10.441
59974W        W19510  33.404  19.174  12.974
59975W        W19511  41.858  19.171  14.469
59976W        W19512  19.744  32.407   4.212
59977W        W19513  30.463  15.188  11.457
59978W        W19514  21.703  22.711  11.896
59979W        W19515  23.492  30.961  13.360
59980W        W19516  18.602  17.740   4.655
59981W        W19517   1.876  16.139   1.230
59982W        W19518  20.721  22.682  13.892
59983W        W19519   3.245  31.909   0.747
59984W        W19520  41.975  12.282   0.762
59985W        W19521  37.086   0.250   2.857
59986W        W19522  37.004  19.693  13.892
59987W        W19523  25.114  24.128   4.335
59988W        W19524  43.855  20.724  10.923
59989W        W19525  18.065  30.478   4.806
59990W        W19526   0.358  16.306  12.567
59991W        W19527  17.573  41.969   2.364
59992W        W19528  32.999  10.760   2.893
59993W        W19529  10.753  13.757   2.742
59994W        W19530  44.797  37.555   3.329
59995W        W19531   4.826   3.306   3.166
59996W        W19532  41.473  17.731  11.970
59997W        W19533  24.532  34.118  12.979
59998W        W19534  26.180  13.706   3.650
59999W        W19535  20.198   8.656   4.257
60000W        W19536  14.803   5.282  12.858
60001W        W19537   3.385  34.567  14.444
60002W        W19538  23.710  15.147  10.892
60003W        W19539  15.115  12.662   2.326
60004W        W19540  13.293  28.131  11.586
60005W        W19541   3.435  32.121   0.311
60006W        W19542  41.900  33.079   4.162
60007W        W19543  33.876  43.822  10.455
60008W        W19544  39.041   7.275   4.763
60009W        W19545  17.763  43.828   2.206
60010W        W19546  14.601  14.141   4.807
60011W        W19547  13.314  42.968   0.336
60012W        W19548  28.525  37.570  11.437
60013W        W19549  20.180  14.109   3.341
60014W        W19550  11.175  28.655   4.214
60015W        W19551   1.367  33.496   0.838
60016W        W19552  19.669  26.660   4.161
60017W        W19553  22.680  33.078   5.143
60018W        W19554  38.389   3.437   3.149
60019W        W19555  32.974  29.953  14.021
60020W        W19556   0.960  44.422  10.981
60021W        W19557  37.946   3.304   1.290
60022W        W19558   8.247  19.083   3.343
60023W        W19559  26.118  25.137   1.874
60024W        W19560  12.131  33.089  12.832
60025W        W19561  16.243  25.484  12.907
60026W        W19562  27.445  41.391   1.848
60027W        W19563  38.429   4.440   2.215
60028W        W19564  20.251  35.419   5.715
60029W        W19565  27.544  28.072   3.180
60030W        W19566  36.472  42.369   0.889
60031W        W19567  32.597  40.521  10.633
60032W        W19568  19.716  21.522   4.307
60033W        W19569   3.219  41.994   4.719
60034W        W19570  35.434  43.892  13.819
60035W        W19571   1.962   1.773  13.451
60036W        W19572  36.002   4.263   0.925
60037W        W19573  29.141  39.907   2.280
60038W        W19574  32.096  33.555  11.607
60039W        W19575  44.970  19.170  13.050
60040W        W19576  42.381  28.973   0.359
60041W        W19577  21.024  44.796  12.964
60042W        W19578   9.702   0.848   0.307
60043W        W19579  31.980   4.916  13.846
60044W        W19580  25.666  20.528  13.053
60045W        W19581  12.179   9.658  10.434
60046W        W19582  21.589  23.146  11.588
60047W        W19583  30.455  24.184  11.930
60048W        W19584   3.907  13.238   4.179
60049W        W19585  12.251  33.921   3.198
60050W        W19586  23.503  22.576  12.449
60051W        W19587  34.950  34.400  11.424
60052W        W19588  34.035  35.441  13.881
60053W        W19589   0.943   4.864   5.179
60054W        W19590  38.967  38.331   0.853
60055W        W19591   8.200   4.204  11.537
60056W        W19592  22.706   6.265  10.915
60057W        W19593  17.127   4.337  11.436
60058W        W19594  19.703  16.759  14.786
60059W        W19595   7.681  37.010   0.901
60060W        W19596   9.261  31.937  11.923
60061W        W19597  11.259  43.308  14.415
60062W        W19598  36.068  33.415   1.437
60063W        W19599  18.186  40.370  10.470
60064W        W19600   6.902  42.511   2.877
60065W        W19601  41.335  37.357  12.935
60066W        W19602  36.050  24.198  11.063
60067W        W19603  38.462  20.107  10.529
60068W        W19604   4.865  41.425  13.531
60069W        W19605  26.121  15.099  11.873
60070W        W19606   1.413  14.768   9.940
60071W        W19607   8.226   9.883   0.349
60072W        W19608   6.201  22.697   1.913
60073W        W19609  27.530  13.652   0.909
60074W        W19610  23.011  16.139  14.366
60075W        W19611  18.093   0.821  12.470
60076W        W19612  16.658  24.088   0.433
60077W        W19613   0.315  24.194   0.805
60078W        W19614  22.134  35.053  11.066
60079W        W19615  19.587  33.907   2.342
60080W        W19616  13.215  35.086   3.184
60081W        W19617  39.500  20.076   3.776
60082W        W19618  21.175  28.537  11.493
60083W        W19619  39.331  12.622   1.329
60084W        W19620  33.405  43.778   3.276
60085W        W19621  33.989  24.063   2.338
60086W        W19622  44.505  22.245   3.342
60087W        W19623  24.684  43.816   3.632
60088W        W19624  27.692  13.283  13.332
60089W        W19625  28.440  32.951  12.479
60090W        W19626  17.276  42.922   5.283
60091W        W19627  24.160  33.913   1.256
60092W        W19628  41.450  10.781  13.997
60093W        W19629  13.619   4.394   4.303
60094W        W19630   1.413  11.179   1.809
60095W        W19631  10.354   9.243  11.053
60096W        W19632   0.903  15.285   0.390
60097W        W19633  39.458  14.710   1.747
60098W        W19634  19.234  15.099   1.917
60099W        W19635  32.053  11.285   3.746
60100W        W19636   0.943   9.788  12.344
60101W        W19637  44.825  43.460   2.766
60102W        W19638  35.521  40.404  13.402
60103W        W19639  25.634  42.833  11.985
60104W        W19640  13.627  14.132   3.640
60105W        W19641  22.010  16.129   3.800
60106W        W19642  29.143   6.889  11.087
60107W        W19643  37.933  44.496   4.650
60108W        W19644  29.060  43.351   4.199
60109W        W19645   1.832  19.114   1.891
60110W        W19646  16.212  20.674   0.350
60111W        W19647  20.579  21.556   1.805
60112W        W19648   4.789  24.633   3.868
60113W        W19649  33.883   7.786   2.735
60114W        W19650  36.855   2.858  14.902
60115W        W19651   3.452  36.429   0.786
60116W        W19652  31.018  37.980  11.543
60117W        W19653  15.768  14.713   1.825
60118W        W19654   8.721   5.687  12.899
60119W        W19655  41.024   4.898  12.900
60120W        W19656  42.967  40.022   1.354
60121W        W19657  41.324  15.754   5.231
60122W        W19658  25.992  28.003   3.307
60123W        W19659   8.733   9.706  13.880
60124W        W19660  39.975  19.600   0.861
60125W        W19661  43.931   8.209   1.750
60126W        W19662  17.710   3.355  10.571
60127W        W19663   2.822  34.923  12.934
60128W        W19664  23.047  12.320  13.360
60129W        W19665  11.863  30.002   4.230
60130W        W19666  16.302   7.806   0.823
60131W        W19667  21.073   0.845   3.706
60132W        W19668  30.910   0.758   0.845
60133W        W19669  29.483  12.250  10.927
60134W        W19670  44.458   2.454   0.298
60135W        W19671  16.232   9.771   0.277
60136W        W19672  19.722  33.092  12.905
60137W        W19673   8.304   4.349  10.549
60138W        W19674  38.983   4.841  13.061
60139W        W19675  15.783  33.903   2.233
60140W        W19676  32.050  21.206   5.186
60141W        W19677  34.115  28.625  13.033
60142W        W19678  31.063  40.324  10.495
60143W        W19679  15.619  24.132  12.983
60144W        W19680  20.634  41.463  13.378
60145W        W19681  29.644   3.928   0.292
60146W        W19682  10.732  16.726  14.886
60147W        W19683  11.820   9.837  13.944
60148W        W19684  18.579  19.221   1.220
60149W        W19685  35.900  41.012   1.795
60150W        W19686  28.626  34.570  14.775
60151W        W19687  27.094  43.330  13.484
60152W        W19688  36.009   7.773  11.529
60153W        W19689  19.280  44.291   4.146
60154W        W19690  19.193  31.086   2.288
60155W        W19691   3.749  18.127  10.417
60156W        W19692  37.866   7.257   4.821
60157W        W19693  24.134  14.260   2.400
60158W        W19694  11.206  38.879   2.891
60159W        W19695   6.787  15.655   4.639
60160W        W19696  23.014   1.262   0.389
60161W        W19697  19.135  26.031  10.595
60162W        W19698  39.536  24.601  13.436
60163W        W19699   3.733   7.383   2.719
60164W        W19700  27.468   2.746   0.737
60165W        W19701   8.784  37.453   1.729
60166W        W19702  37.435  35.926  13.505
60167W        W19703  18.056  43.824   4.294
60168W        W19704  22.019  31.013   0.433
60169W        W19705   1.425  20.074  13.328
60170W        W19706   7.385  42.495  11.982
60171W        W19707  40.024  11.693  14.962
60172W        W19708  25.640  28.124   3.188
60173W        W19709   7.878  35.403  12.524
60174W        W19710   6.889  23.608  12.000
60175W        W19711  36.038  14.319  10.512
60176W        W19712  18.597  32.017  10.927
60177W        W19713  20.183  34.064  10.418
60178W        W19714  13.705  41.843  12.865
60179W        W19715  38.466   1.797   1.708
60180W        W19716  18.733   3.314   5.107
60181W        W19717  34.947  16.596   1.443
60182W        W19718  22.504  23.528  14.284
60183W        W19719  37.549  29.093  14.969
60184W        W19720  16.725  22.226   4.289
60185W        W19721   2.800  16.724   2.190
60186W        W19722  34.095  37.476  12.964
60187W        W19723  38.545  34.527   4.727
60188W        W19724  43.470  24.607  11.866
60189W        W19725   6.797  35.957  12.017
60190W        W19726   1.333  39.837   2.318
60191W        W19727  30.598  27.598   4.814
60192W        W19728  35.583  19.159   2.691
60193W        W19729   0.287   1.398   3.368
60194W        W19730  40.376  38.888  14.895
60195W        W19731   8.843  28.969   1.314
60196W        W19732  40.400  37.579  14.511
60197W        W19733  15.267   8.699   2.800
60198W        W19734  38.070  13.193   3.815
60199W        W19735  18.771  23.018  10.635
60200W        W19736   5.417  44.830  12.341
60201W        W19737  15.203  40.022  10.581
60202W        W19738  26.183  11.655   0.333
60203W        W19739  29.065   2.950   0.899
60204W        W19740  36.081  28.528   3.246
60205W        W19741  43.313   5.890  10.473
60206W        W19742  38.854  29.045  10.128
60207W        W19743  21.139  25.204  12.377
60208W        W19744   7.329  21.020   0.327
60209W        W19745   8.168  27.567  14.893
60210W        W19746  32.425  43.851   3.673
60211W        W19747  15.777  11.785  10.478
60212W        W19748  22.640  24.214   0.927
60213W        W19749  33.422  18.657   5.193
60214W        W19750  10.643  39.427   1.772
60215W        W19751  12.348   4.319   2.790
60216W        W19752  34.003   2.458   3.801
60217W        W19753  30.490  12.226  11.377
60218W        W19754   2.348  36.973  13.393
60219W        W19755  31.905  13.813   4.744
60220W        W19756  32.587  29.437   0.349
60221W        W19757  19.221  39.058   2.831
60222W        W19758  31.441  20.620  14.855
60223W        W19759  38.883  24.623  12.046
60224W        W19760  44.285  29.602  10.625
60225W        W19761  38.568  43.924  11.007
60226W        W19762  19.604  10.191   1.259
60227W        W19763   0.417  21.130   5.322
60228W        W19764  14.141  38.462  14.302
60229W        W19765   0.251  19.199  13.854
60230W        W19766  33.590  32.096  12.919
60231W        W19767   5.901  16.311  11.442
60232W        W19768   4.790  38.552   4.295
60233W        W19769   4.446  28.578  14.505
60234W        W19770  12.823   4.707  10.571
60235W        W19771  29.137  41.864  12.064
60236W        W19772  33.935  17.734   4.323
60237W        W19773  41.389  34.896  14.866
60238W        W19774   9.787  20.208  10.593
60239W        W19775  15.729  12.335  13.326
60240W        W19776   9.326  37.552   2.325
60241W        W19777  22.649  20.252   2.329
60242W        W19778  27.989  37.419   4.276
60243W        W19779  39.534   3.747   3.723
60244W        W19780  16.145  34.416  13.434
60245W        W19781  35.928  29.434   3.243
60246W        W19782   3.409  35.392   0.820
60247W        W19783  32.459  33.121   3.359
60248W        W19784  27.594  45.000  11.919
60249W        W19785  22.021  27.149   0.428
60250W        W19786  24.607  34.392  14.966
60251W        W19787   8.850  24.213  14.400
60252W        W19788   5.904   9.806  13.951
60253W        W19789  42.373  20.542  11.095
60254W        W19790  11.305  12.188   0.264
60255W        W19791  33.521  18.548  12.481
60256W        W19792  38.408  26.959   4.763
60257W        W19793   4.449  29.962  11.583
60258W        W19794  37.359  10.174  10.987
60259W        W19795  42.513  34.413  14.463
60260W        W19796  33.434   0.922  14.920
60261W        W19797  30.091  41.443  13.016
60262W        W19798   3.764  19.133  13.004
60263W        W19799  29.965  19.122  14.005
60264W        W19800  41.504  17.658  12.966
60265W        W19801  31.099  15.647  13.410
60266W        W19802   7.906   4.228   0.913
60267W        W19803  13.744  41.973   0.895
60268W        W19804  22.665   5.251   1.935
60269W        W19805  31.078  16.765  11.375
60270W        W19806  18.072  13.700  13.357
60271W        W19807   5.834  39.335   4.613
60272W        W19808   5.757  25.131   2.709
60273W        W19809  26.200  10.741   2.732
60274W        W19810   5.235  12.137  14.991
60275W        W19811  11.825   2.761   1.266
60276W        W19812  27.634   8.295  13.492
60277W        W19813  30.146  13.750   2.692
60278W        W19814  35.444  43.953   3.809
60279W        W19815  29.430  23.130   4.685
60280W        W19816  27.069  22.687   9.995
60281W        W19817  29.647   7.769  12.407
60282W        W19818  39.410  36.517   0.455
60283W        W19819  34.040  16.280   0.368
60284W        W19820   7.340  33.457   3.781
60285W        W19821  39.442   5.351   1.283
60286W        W19822  11.662  19.219   4.241
60287W        W19823   1.341   3.852  11.440
60288W        W19824  28.158  34.915  13.529
60289W        W19825  19.066  36.966   3.845
60290W        W19826  40.543   8.368   3.774
60291W        W19827  39.329   7.749  11.503
60292W        W19828  26.046  32.439  13.439
60293W        W19829   0.809   0.473  10.455
60294W        W19830  36.084  35.489   0.373
60295W        W19831  16.627  17.272  10.987
60296W        W19832   9.687  32.408  12.826
60297W        W19833  22.602  33.030  10.582
60298W        W19834  44.467   9.185  10.476
60299W        W19835  36.449  24.219  14.860
60300W        W19836  40.547  32.501   4.700
60301W        W19837  15.273  42.314  11.915
60302W        W19838  30.971  32.593  14.335
60303W        W19839  20.032  38.896  12.464
60304W        W19840  44.905  21.687   4.116
60305W        W19841   2.870  15.596  11.931
60306W        W19842   0.858  13.309  13.541
60307W        W19843  29.471   2.387   1.733
60308W        W19844  44.972  30.414   0.806
60309W        W19845  26.146   3.893  11.563
60310W        W19846  27.475  21.187  12.961
60311W        W19847  25.112  37.359   2.416
60312W        W19848  17.578  14.313   1.901
60313W        W19849  44.289  19.544   5.096
60314W        W19850  12.248  31.459  13.867
60315W        W19851  21.637  15.582  11.963
60316W        W19852  28.954  39.328  13.423
60317W        W19853   7.202   4.286   3.661
60318W        W19854  11.764  42.863  13.509
60319W        W19855  43.001  16.260   2.732
60320W        W19856  22.115  30.448  14.429
60321W        W19857  32.016  23.532   4.152
60322W        W19858  20.115  11.267   2.200
60323W        W19859  23.022   2.769   0.860
60324W        W19860  10.151  17.802   4.247
60325W        W19861  29.930  22.161   1.314
60326W        W19862   2.926   1.963  12.980
60327W        W19863  27.512  16.177   2.406
60328W        W19864  41.440  43.839  10.928
60329W        W19865   0.319  32.627  11.495
60330W        W19866   5.736  18.703   4.738
60331W        W19867  36.487  42.359  10.520
60332W        W19868   1.844  25.558   2.237
60333W        W19869   6.685  14.732   2.298
60334W        W19870   2.771   7.764   1.449
60335W        W19871  15.221  32.936   3.821
60336W        W19872  22.118  17.562  13.451
60337W        W19873  21.127  39.501  13.920
60338W        W19874  30.593  22.238  10.461
60339W        W19875  36.938  42.462   0.391
60340W        W19876  22.726  22.721   1.919
60341W        W19877   2.735  36.512  13.811
60342W        W19878  30.960  35.592  10.442
60343W        W19879  28.527  33.975  12.382
60344W        W19880  38.887  43.387  12.386
60345W        W19881  37.505   1.835   3.200
60346W        W19882  44.895  33.531  14.318
60347W        W19883  38.949  28.109  13.860
60348W        W19884  33.062  34.897   2.357
60349W        W19885  18.160  16.803  13.505
60350W        W19886   3.450   0.861  13.484
60351W        W19887  39.417  44.895   4.791
60352W        W19888  37.044  40.342   4.222
60353W        W19889  19.085   9.210  11.421
60354W        W19890   8.302   5.196  12.521
60355W        W19891  25.053  23.187  10.414
60356W        W19892  10.215  21.719  11.001
60357W        W19893  41.039  40.816  11.453
60358W        W19894  20.555  11.160  11.474
60359W        W19895  10.284  19.137   0.939
60360W        W19896  37.423  40.907   2.897
60361W        W19897  34.493  13.189  14.381
60362W        W19898   1.960  20.163   2.786
60363W        W19899  44.262   7.892  13.836
60364W        W19900  44.474   7.763  11.481
60365W        W19901  43.979   3.451  13.373
60366W        W19902  39.055   9.885   0.257
60367W        W19903   8.309   1.735  12.988
60368W        W19904  15.207  42.977   2.235
60369W        W19905  30.094  11.325   1.901
60370W        W19906   7.234  20.726  11.556
60371W        W19907  24.982  20.613  10.031
60372W        W19908   9.282  29.656  10.526
60373W        W19909   4.722   9.833   1.805
60374W        W19910  16.277  35.995   4.328
60375W        W19911  12.165  23.559  14.906
60376W        W19912  24.640  26.136   3.184
60377W        W19913  23.494  30.961  12.504
60378W        W19914  18.769  10.862  10.562
60379W        W19915   8.682  24.170  10.611
60380W        W19916   8.816  42.927   1.930
60381W        W19917  38.548  23.103  13.018
60382W        W19918  14.213   1.432   3.166
60383W        W19919  16.630  18.775   1.235
60384W        W19920   6.874  41.012  11.907
60385W        W19921   2.433  34.588   3.704
60386W        W19922  33.091  44.830  13.426
60387W        W19923   8.264  30.153   3.251
60388W        W19924  25.113  19.268  10.529
60389W        W19925  41.463  35.095   4.245
60390W        W19926  35.065   7.754   1.219
60391W        W19927  35.990   5.810   1.750
60392W        W19928  37.503  27.003  11.540
60393W        W19929  39.956   2.732  12.409
60394W        W19930   8.234  32.965   1.849
60395W        W19931  28.961  25.643   2.886
60396W        W19932   1.288   9.179   4.714
60397W        W19933  25.621  36.960   5.194
60398W        W19934  34.567  13.122  11.129
60399W        W19935  30.478  15.741   0.444
60400W        W19936   9.736  12.143  14.796
60401W        W19937  43.015  38.042   2.264
60402W        W19938  33.398  37.062   3.832
60403W        W19939   7.819  43.504  10.485
60404W        W19940  35.045  39.995  11.561
60405W        W19941  23.608  34.520  10.087
60406W        W19942  41.990  43.884  13.478
60407W        W19943   1.976  27.692  14.817
60408W        W19944  27.091   0.349   2.229
60409W        W19945  35.382   9.739  11.972
60410W        W19946  38.537  43.289   4.280
60411W        W19947  24.137  14.114  10.487
60412W        W19948   7.911   7.834   2.397
60413W        W19949  43.861   5.318  10.947
60414W        W19950  11.327  12.840   4.827
60415W        W19951  14.723  18.219  13.873
60416W        W19952  31.032   0.966  13.326
60417W        W19953  17.079   4.796   3.285
60418W        W19954  10.187   8.656   1.443
60419W        W19955  37.557  34.477  11.973
60420W        W19956  11.843  19.599   5.146
60421W        W19957  23.597  15.310  14.852
60422W        W19958  32.115  43.894   1.229
60423W        W19959   2.270  26.664   3.166
60424W        W19960   7.807  39.409   4.772
60425W        W19961  14.188  38.494  13.844
60426W        W19962   0.492   0.412   1.709
60427W        W19963  43.301  41.494   0.374
60428W        W19964  42.361  26.601   1.753
60429W        W19965   2.323  40.481  14.913
60430W        W19966  32.074  10.772  14.030
60431W        W19967  13.138  22.547  10.411
60432W        W19968  36.052  40.337   3.228
60433W        W19969  41.370   9.739   2.354
60434W        W19970   5.834  24.678   1.301
60435W        W19971   6.788  13.785   3.331
60436W        W19972   1.239   6.316   3.655
60437W        W19973  21.586  32.948   0.913
60438W        W19974  41.325  36.380   1.755
60439W        W19975  14.234  17.189  13.800
60440W        W19976   1.310  20.555   0.953
60441W        W19977   5.263  23.672   3.723
60442W        W19978  40.866  35.579  14.900
60443W        W19979  25.116   7.773  14.371
60444W        W19980   1.850  39.840   2.240
60445W        W19981  14.198  33.101   1.436
60446W        W19982  21.086  29.494  12.575
60447W        W19983   0.957  35.005   4.181
60448W        W19984  37.023  20.251  12.457
60449W        W19985   0.810  35.529   3.279
60450W        W19986   7.172  15.787   2.711
60451W        W19987   8.740  40.313   5.203
60452W        W19988   1.246  37.042  12.982
60453W        W19989  10.755  40.849   4.775
60454W        W19990   5.211  22.707   3.767
60455W        W19991  38.341  15.261  13.898
60456W        W19992  33.512  22.060   3.812
60457W        W19993  30.928  36.502   2.274
60458W        W19994  12.645  26.170   3.632
60459W        W19995  41.018  15.156  10.609
60460W        W19996   1.873   2.406  11.552
60461W        W19997  42.779   4.421  13.882
60462W        W19998  37.493  12.839  14.368
60463W        W19999  25.686  40.980  11.869
60464W        W20000  43.843  32.118   3.246
60465W        W20001  25.681   9.168   2.796
60466W        W20002  43.371  21.063  14.839
60467W        W20003   8.833  18.620   0.445
60468W        W20004  37.848  36.038  14.386
60469W        W20005  22.199  36.937   1.274
60470W        W20006  30.140  44.802  11.470
60471W        W20007   4.888   4.771  11.545
60472W        W20008   9.717  13.718   1.239
60473W        W20009  13.790  36.097  11.404
60474W        W20010  43.443  16.601   4.299
60475W        W20011  34.865  27.597   4.229
60476W        W20012  29.567  23.991  14.388
60477W        W20013   4.869   1.826  10.470
60478W        W20014  42.905  28.040  12.512
60479W        W20015  34.593   6.293  13.343
60480W        W20016  18.604   2.845  14.904
60481W        W20017  28.475  32.511  12.358
60482W        W20018   6.888  41.520   1.750
60483W        W20019   3.241   8.242   2.203
60484W        W20020  31.986  43.006   1.760
60485W        W20021   3.440  17.100  14.501
60486W        W20022  26.585   1.823   3.733
60487W        W20023  26.621  31.950  11.611
60488W        W20024  22.143   9.749  13.537
60489W        W20025  26.954  19.148  14.832
60490W        W20026  40.935  16.206  12.493
60491W        W20027  38.474  39.390  13.483
60492W        W20028  34.082  43.399  12.038
60493W        W20029  14.161  18.183   2.243
60494W        W20030  16.762   9.753  11.096
60495W        W20031  40.891  20.522   1.268
60496W        W20032  18.712  38.984  14.762
60497W        W20033   7.373   1.271   0.800
60498W        W20034  40.479  27.186   3.168
60499W        W20035   7.802  25.470  14.030
60500W        W20036  31.975   7.410  10.137
60501W        W20037  23.570  34.389  13.408
60502W        W20038  14.777  30.552  13.846
60503W        W20039  33.517  32.542  12.003
60504W        W20040   7.683  19.211   3.315
60505W        W20041  16.585  28.064   2.336
60506W        W20042  26.186   6.339  14.769
60507W        W20043  33.605   1.915   2.262
60508W        W20044  34.398  44.413  10.576
60509W        W20045  44.866  42.909   2.411
60510W        W20046  42.778  11.346  12.339
60511W        W20047  39.923   2.742  14.817
60512W        W20048  18.728  22.108  12.379
60513W        W20049  17.276  27.189   1.430
60514W        W20050  18.125  14.777   1.870
60515W        W20051  22.723  17.086  14.278
60516W        W20052   1.411   6.364   2.382
60517W        W20053   0.769  24.973   0.760
60518W        W20054   6.216  15.592   0.395
60519W        W20055   9.274  12.818   1.793
60520W        W20056  31.637  37.337   4.753
60521W        W20057  27.125  37.558   4.300
60522W        W20058  40.450  41.294  12.374
60523W        W20059  25.095  14.604  11.546
60524W        W20060  40.978  38.486   4.648
60525W        W20061  23.609  10.368   1.399
60526W        W20062  19.545   4.310   0.839
60527W        W20063  26.071  34.596  13.333
60528W        W20064  35.546  29.021  10.898
60529W        W20065   6.334   2.939   4.187
60530W        W20066  15.799  37.942   4.157
60531W        W20067   3.937  26.505   1.335
60532W        W20068  17.238  14.196  12.445
60533W        W20069  21.666  13.326  11.051
60534W        W20070  30.504  12.826  11.007
60535W        W20071  27.156   1.424   1.227
60536W        W20072  41.918  32.627   3.316
60537W        W20073  24.229  31.129   4.248
60538W        W20074  43.300   4.884   1.876
60539W        W20075  34.070  12.791  11.588
60540W        W20076   9.303  38.533   0.922
60541W        W20077   7.821  33.597   3.240
60542W        W20078  13.171  32.572  14.305
60543W        W20079  26.643  25.549  14.373
60544W        W20080  37.426   8.678   2.876
60545W        W20081  18.253   2.747   4.250
60546W        W20082  24.526  38.998  10.409
60547W        W20083  26.176  43.783   3.706
60548W        W20084  18.255  17.771  11.371
60549W        W20085  32.051  12.252  12.523
60550W        W20086  44.425  36.868   1.420
60551W        W20087  13.244  35.420  11.062
60552W        W20088  37.564  21.188  13.498
60553W        W20089   1.393   6.365   0.383
60554W        W20090  33.520  15.821   2.210
60555W        W20091  23.169  27.142   1.729
60556W        W20092  10.857  44.469  11.092
60557W        W20093  38.474  39.329  14.382
60558W        W20094  20.752  23.662  12.566
60559W        W20095   8.776  25.611   2.369
60560W        W20096   6.764  35.483  12.963
60561W        W20097  41.929  21.706  11.538
60562W        W20098  16.311  33.422   2.887
60563W        W20099  27.034  32.089   0.921
60564W        W20100  33.005  23.498   3.818
60565W        W20101  35.426   6.342   0.787
60566W        W20102  11.663  23.540   0.410
60567W        W20103   1.840  26.608  10.077
60568W        W20104  16.304  42.517  10.982
60569W        W20105  36.567  36.935  11.123
60570W        W20106  21.724  29.608   3.146
60571W        W20107   7.381  42.388   4.763
60572W        W20108  38.931  25.503   1.441
60573W        W20109   1.864  10.167   3.734
60574W        W20110  25.163  34.073  12.940
60575W        W20111  40.391  21.746   3.296
60576W        W20112  20.174  38.820   2.306
60577W        W20113  27.558  43.017  12.487
60578W        W20114  12.249  37.920  12.008
60579W        W20115   1.942   9.238  13.434
60580W        W20116  33.504  35.018   4.696
60581W        W20117  21.207   1.768   1.818
60582W        W20118  35.052  35.586  11.423
60583W        W20119   3.862  21.634   1.367
60584W        W20120   6.740  38.388  12.067
60585W        W20121   3.818  37.379  10.460
60586W        W20122  30.943   6.316   4.286
60587W        W20123   6.824  24.091  10.523
60588W        W20124  17.092  15.784  14.886
60589W        W20125  17.575  44.996  14.963
60590W        W20126  12.191  20.176   4.145
60591W        W20127   3.376  43.823   2.684
60592W        W20128  13.177  18.167   2.821
60593W        W20129  15.711   3.312   2.279
60594W        W20130  18.744  42.384  14.451
60595W        W20131   3.833  26.473   3.293
60596W        W20132  23.735   0.789   4.306
60597W        W20133   8.834  43.479   3.799
60598W        W20134   2.914  17.234   0.279
60599W        W20135  30.079   2.439  12.992
60600W        W20136  37.972  33.884   4.646
60601W        W20137   9.881  29.437   2.359
60602W        W20138  39.498  17.204   0.941
60603W        W20139   4.917  12.150   2.851
60604W        W20140  39.558  24.058   4.163
60605W        W20141   9.301  36.457   3.772
60606W        W20142  15.177  40.870  14.925
60607W        W20143  28.564  36.543   3.281
60608W        W20144   1.454  21.027  10.544
60609W        W20145  34.967  42.930   5.151
60610W        W20146  21.044   5.319   3.723
60611W        W20147  28.117  14.297  10.107
60612W        W20148  15.651   3.360  14.812
60613W        W20149  41.000  14.698   2.837
60614W        W20150  36.956  25.110  14.462
60615W        W20151  16.136  41.870  11.906
60616W        W20152   5.308  24.003  10.557
60617W        W20153  18.660  17.562   4.327
60618W        W20154  27.575   9.857  13.791
60619W        W20155  39.876  28.527   2.291
60620W        W20156  12.162  36.864  12.939
60621W        W20157  24.153  22.074  12.342
60622W        W20158  31.043  38.551  12.965
60623W        W20159  40.411  39.999  14.002
60624W        W20160  34.965  33.045  11.930
60625W        W20161  37.079  35.526   1.390
60626W        W20162  18.087  35.571   3.749
60627W        W20163   6.378  23.069  12.396
60628W        W20164  31.985   9.678  12.093
60629W        W20165   5.294  33.125  12.088
60630W        W20166  35.909  16.607   0.323
60631W        W20167   1.409  31.152   0.359
60632W        W20168  42.407  19.257  10.563
60633W        W20169  23.031  35.501  14.759
60634W        W20170   5.851  27.940  14.356
60635W        W20171  14.223  32.555   2.764
60636W        W20172  11.289  39.908   4.278
60637W        W20173  19.226  31.613   2.308
60638W        W20174   1.764  30.625  14.322
60639W        W20175  33.474  41.409   1.806
60640W        W20176   9.702  23.111   0.382
60641W        W20177  25.215  42.354   0.441
60642W        W20178  16.656  30.464  11.425
60643W        W20179  20.606  38.348  13.821
60644W        W20180  32.035  19.624   1.709
60645W        W20181  44.262  32.496   2.715
60646W        W20182  42.353  35.574   0.847
60647W        W20183  44.908  24.211  12.005
60648W        W20184   6.676  25.645  13.536
60649W        W20185  35.412  39.869  11.463
60650W        W20186  43.464  13.106   2.368
60651W        W20187   6.272  30.580   2.716
60652W        W20188  31.535  13.627  13.936
60653W        W20189   7.697  36.041   1.312
60654W        W20190   3.852  35.512  12.388
60655W        W20191   8.767  33.882   4.244
60656W        W20192  31.072  10.310  14.408
60657W        W20193  34.099  10.791   4.713
60658W        W20194  12.162  11.782  10.984
60659W        W20195  21.694   8.213  12.465
60660W        W20196   7.736  27.065   0.796
60661W        W20197   1.408  10.162   0.830
60662W        W20198  10.726  13.749   4.190
60663W        W20199  19.611  22.720  12.542
60664W        W20200  23.095  27.640  13.825
60665W        W20201  19.582  28.620  12.904
60666W        W20202   5.429  16.714   3.345
60667W        W20203  30.915  29.453   3.180
60668W        W20204  24.103   7.407   4.747
60669W        W20205  44.822   9.702  11.506
60670W        W20206  20.672   6.702  13.487
60671W        W20207  17.712  16.785   0.914
60672W        W20208  23.055  20.211  12.952
60673W        W20209  39.916  37.393   2.413
60674W        W20210  26.657  38.925  13.850
60675W        W20211  31.099  24.045  14.376
60676W        W20212  32.434  10.235   3.815
60677W        W20213  12.131  25.065  11.113
60678W        W20214  17.635  19.268  12.493
60679W        W20215  42.476  18.709  13.989
60680W        W20216  17.752   5.237  13.435
60681W        W20217  27.665   8.710  11.437
60682W        W20218  15.606  32.398  13.799
60683W        W20219   9.310  35.452  10.622
60684W        W20220  21.031  25.179   4.749
60685W        W20221  24.149   8.724  12.887
60686W        W20222  42.309   2.344   4.819
60687W        W20223  31.994   3.387  12.843
60688W        W20224  33.885  39.357   3.801
60689W        W20225  35.544  20.576   3.215
60690W        W20226   8.188  28.943  11.540
60691W        W20227  24.162  22.124  13.047
60692W        W20228  16.287  44.345  12.869
60693W        W20229   4.233  33.043  14.341
60694W        W20230  20.689  36.014   4.149
60695W        W20231  17.574  19.732   1.428
60696W        W20232   0.457   8.404  11.876
60697W        W20233  11.736   3.832  11.877
60698W        W20234  37.985   5.438  14.427
60699W        W20235  22.151  12.644   2.662
60700W        W20236   7.861  38.486  14.411
60701W        W20237  38.567  19.077  13.537
60702W        W20238  27.665  39.404   1.350
60703W        W20239  10.248  42.971   3.278
60704W        W20240  25.523   4.448   9.607
60705W        W20241  40.922   4.870   3.156
60706W        W20242  24.632  17.682   1.810
60707W        W20243  27.664  33.389   2.200
60708W        W20244  12.206   2.822  13.809
60709W        W20245  23.034  15.697  12.842
60710W        W20246  41.043  15.729  13.038
60711W        W20247  11.301  20.621  11.374
60712W        W20248  27.519  18.066  12.970
60713W        W20249  11.209  23.589  12.456
60714W        W20250  33.102  21.717   1.437
60715W        W20251  20.765  19.627   2.363
60716W        W20252  28.119   3.829   3.146
60717W        W20253  44.758  31.102   4.772
60718W        W20254  28.151  32.542  10.632
60719W        W20255  33.984  15.706  10.568
60720W        W20256  22.683   6.217   2.719
60721W        W20257   9.393  40.869  10.549
60722W        W20258  28.932   1.969  13.422
60723W        W20259   2.266  36.355  12.047
60724W        W20260  13.688  41.399  14.833
60725W        W20261   8.736  43.800  10.160
60726W        W20262  33.103   6.905  11.120
60727W        W20263  14.590  18.742  14.426
60728W        W20264  40.050  21.592   3.783
60729W        W20265   3.293   2.404   4.738
60730W        W20266  18.738  24.571   1.364
60731W        W20267  27.686  39.066  11.127
60732W        W20268  24.127   1.898  14.770
60733W        W20269   4.220   2.458  14.803
60734W        W20270  36.938  34.067  14.331
60735W        W20271  34.867  38.554   0.408
60736W        W20272  42.926  10.655  14.387
60737W        W20273  33.391  44.840  12.389
60738W        W20274  22.631  22.193  10.582
60739W        W20275  27.125   7.291   2.247
60740W        W20276  17.564  18.194   1.898
60741W        W20277  36.572  20.071  12.064
60742W        W20278  25.618  21.718   2.350
60743W        W20279  33.054  18.141  14.330
60744W        W20280  34.070   5.388  14.813
60745W        W20281  39.865  34.491  14.334
60746W        W20282  18.652  16.599   1.353
60747W        W20283  13.186  30.451   1.744
60748W        W20284  25.125  26.525   0.888
60749W        W20285   6.752   6.428   2.382
60750W        W20286  20.232   0.313  11.555
60751W        W20287  32.053  34.971   2.664
60752W        W20288  21.577  29.979  12.536
60753W        W20289  40.016   7.890   3.264
60754W        W20290  25.558  41.295   1.847
60755W        W20291  27.127   6.764  14.282
60756W        W20292   4.318   5.905  11.608
60757W        W20293   5.433  34.094  13.814
60758W        W20294  40.893  36.886  12.867
60759W        W20295  42.475  15.792   3.710
60760W        W20296  33.589  26.605   3.280
60761W        W20297   7.716  40.953   0.891
60762W        W20298  18.589  14.812  13.355
60763W        W20299  21.623  19.744   1.286
60764W        W20300   5.394  37.545  14.858
60765W        W20301  19.240   5.697  11.432
60766W        W20302  15.153   4.358  11.444
60767W        W20303  41.519  27.569  14.908
60768W        W20304  33.050   4.426  13.022
60769W        W20305  18.748  10.220   2.268
60770W        W20306   4.791  36.936   2.308
60771W        W20307  24.702  33.924  11.413
60772W        W20308  15.711   6.855   2.833
60773W        W20309   6.383  12.760   2.397
60774W        W20310  26.563   8.363   1.764
60775W        W20311  30.021  20.122   2.238
60776W        W20312  33.929  39.998   3.804
60777W        W20313  20.532  17.133  13.001
60778W        W20314  31.945   0.934  13.376
60779W        W20315  32.908  12.731  13.450
60780W        W20316  31.615  31.617  11.433
60781W        W20317  14.706   8.225  10.038
60782W        W20318   7.283   9.269  14.934
60783W        W20319  23.652   6.258   5.246
60784W        W20320   7.900  22.589   1.838
60785W        W20321  33.034  25.149   0.857
60786W        W20322  20.194  25.964   2.878
60787W        W20323  16.072  29.920  13.058
60788W        W20324  28.563  36.480  13.899
60789W        W20325  41.376  44.296   1.704
60790W        W20326  20.201  25.027   3.866
60791W        W20327  12.257  27.996   4.238
60792W        W20328  20.712  18.137  11.995
60793W        W20329   6.800  32.412   4.702
60794W        W20330  42.284  10.867  14.027
60795W        W20331  20.602  36.940   0.962
60796W        W20332  35.577  32.493   1.805
60797W        W20333  11.226   0.417  12.021
60798W        W20334   8.894   1.867   2.894
60799W        W20335  40.352  14.710  12.924
60800W        W20336  41.438  39.820  14.462
60801W        W20337  25.162  29.963   2.409
60802W        W20338  39.882  24.681   1.367
60803W        W20339  26.192  15.763  12.551
60804W        W20340  35.553  44.499  14.806
60805W        W20341  38.066  21.542  14.835
60806W        W20342   6.239  23.224  10.894
60807W        W20343  40.539  41.377   0.872
60808W        W20344   9.806  32.095   5.296
60809W        W20345  26.022  35.598   1.769
60810W        W20346  23.170  33.945  14.886
60811W        W20347   1.771   9.163   4.782
60812W        W20348   7.285  25.693  10.974
60813W        W20349   9.190  24.085   0.867
60814W        W20350  26.206  29.506   2.736
60815W        W20351  19.617  10.187  12.468
60816W        W20352   7.733  41.968  14.280
60817W        W20353  34.897  39.870  11.046
60818W        W20354  33.492   8.816   3.266
60819W        W20355  12.253  31.898   4.351
60820W        W20356  15.626   1.947  14.342
60821W        W20357  37.461  24.571   1.390
60822W        W20358  13.327  43.438   0.951
60823W        W20359  12.194  44.304  13.807
60824W        W20360  43.343  34.974   4.351
60825W        W20361  43.910  10.324  12.882
60826W        W20362  30.042  43.811   3.229
60827W        W20363  10.735  35.075  12.900
60828W        W20364  38.553  41.328  14.767
60829W        W20365  33.917  40.849   3.745
60830W        W20366  23.195  34.511   3.815
60831W        W20367  19.618  27.186  13.488
60832W        W20368  27.534   2.763   3.311
60833W        W20369   4.249   3.913  13.811
60834W        W20370   1.927  27.447   9.476
60835W        W20371  34.950  26.613  12.082
60836W        W20372  26.702  37.379  13.030
60837W        W20373  15.797  12.154   2.850
60838W        W20374  33.123  39.559   3.250
60839W        W20375  26.067  26.571   3.387
60840W        W20376  26.976  31.907  10.604
60841W        W20377  25.657  13.635  12.416
60842W        W20378  12.819   0.289   4.774
60843W        W20379  32.010  27.607  14.774
60844W        W20380   6.887  33.975   1.287
60845W        W20381  30.564  28.180  14.347
60846W        W20382  41.801  18.101  11.013
60847W        W20383   5.782   5.289  12.579
60848W        W20384   8.366  14.644   3.271
60849W        W20385  31.900  32.941  11.479
60850W        W20386  26.034  31.486   2.882
60851W        W20387  17.659  20.184  12.005
60852W        W20388   6.403  35.596  10.538
60853W        W20389   9.222  11.687   1.261
60854W        W20390  10.216  14.701  11.444
60855W        W20391  16.078  31.463  13.820
60856W        W20392  14.602  39.956   3.795
60857W        W20393  42.895  13.336   0.827
60858W        W20394  21.179  30.655   9.967
60859W        W20395  37.511  27.544  11.501
60860W        W20396  25.551  32.066  11.097
60861W        W20397  37.959  39.502   4.728
60862W        W20398  12.620  37.362  14.786
60863W        W20399  19.189  29.616  11.015
60864W        W20400   1.963   8.865  12.916
60865W        W20401  36.948  38.953  13.991
60866W        W20402  31.009  22.657  14.431
60867W        W20403  23.518  25.560   1.699
60868W        W20404  19.246   4.377  13.376
60869W        W20405   5.242  39.007   3.753
60870W        W20406   6.916  21.738  11.415
60871W        W20407   7.805  15.794   3.773
60872W        W20408  26.997  13.707  11.506
60873W        W20409  36.539  28.678   2.663
60874W        W20410  43.494  33.610   1.740
60875W        W20411  23.052  24.494  11.604
60876W        W20412  27.138  22.139  13.419
60877W        W20413   9.872  41.305  14.925
60878W        W20414  35.595  15.200  14.279
60879W        W20415  21.703  31.066   3.194
60880W        W20416  43.376  10.313   2.800
60881W        W20417   8.659  32.121   1.912
60882W        W20418  37.854  25.053   0.291
60883W        W20419  13.272   6.415   0.455
60884W        W20420  35.552   9.709  12.871
60885W        W20421  13.302  37.558   4.308
60886W        W20422   9.874  17.117  12.891
60887W        W20423  33.115  15.664  11.990
60888W        W20424  20.179  17.575   5.313
60889W        W20425  36.979  17.696  14.924
60890W        W20426   5.868  28.623   2.257
60891W        W20427   5.793  18.101   4.635
60892W        W20428  14.140  18.628   0.479
60893W        W20429  13.761  15.209  14.989
60894W        W20430  14.597  26.543  14.937
60895W        W20431  30.622   5.879   2.206
60896W        W20432  44.769  27.635   0.433
60897W        W20433  32.097  13.754   0.319
60898W        W20434  31.007  13.238  10.936
60899W        W20435   8.861  22.630   4.207
60900W        W20436  40.506  34.091   3.381
60901W        W20437   5.294  24.101  12.419
60902W        W20438  40.332  27.654   1.216
60903W        W20439  35.566  10.795   2.750
60904W        W20440   3.235  20.178  10.479
60905W        W20441  25.180  43.315  11.592
60906W        W20442  25.655   2.806   2.881
60907W        W20443  19.645  44.268   5.254
60908W        W20444  14.147  38.947   0.317
60909W        W20445  10.782  13.642   1.383
60910W        W20446   3.382  18.268   0.878
60911W        W20447   2.745   7.880  10.409
60912W        W20448  22.109  22.171  11.123
60913W        W20449   0.977  22.101   0.252
60914W        W20450  25.160  18.139  10.643
60915W        W20451  39.835   7.767   4.795
60916W        W20452  15.689  17.216   4.148
60917W        W20453  44.853  26.160   0.933
60918W        W20454  18.557  12.769   2.786
60919W        W20455  34.582   1.267   0.339
60920W        W20456  36.578   5.705  13.515
60921W        W20457  12.208  29.056  14.884
60922W        W20458  33.595   6.245  14.892
60923W        W20459  11.746  37.950  11.547
60924W        W20460  19.559  14.157   2.258
60925W        W20461  37.920  31.599   0.777
60926W        W20462  42.350  31.960   0.385
60927W        W20463  12.803  21.042  12.011
60928W        W20464   3.717  19.178   0.933
60929W        W20465  27.673  26.995   4.183
60930W        W20466   5.770  37.547  11.079
60931W        W20467  41.816   5.894   3.184
60932W        W20468  16.664  23.689   2.347
60933W        W20469  18.767   1.301   4.296
60934W        W20470   5.315  28.156   1.235
60935W        W20471  35.050  32.967  13.973
60936W        W20472  38.427   1.344   2.665
60937W        W20473  15.817   0.379  13.830
60938W        W20474  29.660   9.383  13.912
60939W        W20475  34.952   0.397   1.698
60940W        W20476   6.282  11.127   1.797
60941W        W20477   1.328  44.999   3.147
60942W        W20478  25.591  15.120  13.909
60943W        W20479   2.425  39.892  13.397
60944W        W20480  40.397  15.739  13.060
60945W        W20481  20.077  30.918   2.685
60946W        W20482  30.612  29.034   1.385
60947W        W20483   1.402  18.264  11.934
60948W        W20484  18.774   4.895  14.836
60949W        W20485   6.237  16.258   1.403
60950W        W20486  34.559  24.692  14.955
60951W        W20487  43.445   5.750  14.940
60952W        W20488   1.459  44.401   0.777
60953W        W20489  10.352  27.138   1.865
60954W        W20490  31.000   0.903   2.763
60955W        W20491  43.493   3.885  11.381
60956W        W20492  29.475   8.175  10.947
60957W        W20493  34.442  28.970   1.236
60958W        W20494  39.505  36.491   3.784
60959W        W20495  32.048  33.587   0.958
60960W        W20496  22.181   5.806  10.006
60961W        W20497   7.844  18.219   1.800
60962W        W20498  37.523   0.383  12.059
60963W        W20499  37.381  19.283  13.418
60964W        W20500  10.177  36.919   2.783
60965W        W20501  14.326  14.154  12.093
60966W        W20502  33.574  34.540  12.463
60967W        W20503  22.094  23.511   0.936
60968W        W20504  17.078  41.358   4.163
60969W        W20505  20.715   1.812  14.758
60970W        W20506  25.688  22.513   3.324
60971W        W20507  10.218  20.102  14.312
60972W        W20508   4.734  32.091   4.705
60973W        W20509   1.897  31.945  10.583
60974W        W20510  16.587   1.975  14.947
60975W        W20511  24.978   3.853  14.862
60976W        W20512   8.326   2.377  11.579
60977W        W20513   5.401  26.070   0.418
60978W        W20514  13.320  43.360  11.043
60979W        W20515  42.845  36.908  10.532
60980W        W20516   9.177   4.945   1.368
60981W        W20517  41.301   0.372   2.678
60982W        W20518  10.234  39.542   0.376
60983W        W20519   2.851  41.453  12.958
60984W        W20520  39.543   6.265   4.658
60985W        W20521  28.990  12.810  11.076
60986W        W20522  20.236  18.160  11.030
60987W        W20523   3.933  25.540  13.398
60988W        W20524  25.119  41.524   1.736
60989W        W20525  23.045  31.925   2.900
60990W        W20526  37.435  30.518  14.826
60991W        W20527   7.219  44.827   0.464
60992W        W20528  14.642  11.758   1.780
60993W        W20529  24.611  44.459   2.362
60994W        W20530  29.439  15.621   4.245
60995W        W20531  18.594  22.655   3.837
60996W        W20532  24.205  27.686   3.285
60997W        W20533  27.125  42.779   2.878
60998W        W20534   4.370  43.486   2.891
60999W        W20535  43.896  15.215   1.791
61000W        W20536  27.559   2.818  12.394
61001W        W20537   3.947   1.743  14.417
61002W        W20538  22.129  13.221  11.015
61003W        W20539  32.986  44.947   1.238
61004W        W20540   2.765  10.162   4.617
61005W        W20541  16.689  16.244  13.431
61006W        W20542  29.555  38.820  13.925
61007W        W20543  39.956   8.735  12.545
61008W        W20544  41.364  10.235  11.386
61009W        W20545  24.209   1.240   0.285
61010W        W20546  14.327  13.764   1.850
61011W        W20547   3.768  19.606   9.997
61012W        W20548  19.613   7.261  11.485
61013W        W20549  35.494  41.482   1.779
61014W        W20550  34.995  16.162  14.808
61015W        W20551  20.272   4.356   3.844
61016W        W20552  32.116  36.978   0.341
61017W        W20553  27.165  29.522   0.901
61018W        W20554  23.061  14.225   3.273
61019W        W20555   2.903  35.586  14.293
61020W        W20556  31.486  17.644   4.269
61021W        W20557   7.277   3.450  13.899
61022W        W20558  34.050  37.560   5.290
61023W        W20559  15.787  38.466  14.302
61024W        W20560   0.983  34.040  11.002
61025W        W20561  17.734   3.362  10.940
61026W        W20562  38.560  11.258  13.436
61027W        W20563  15.220  19.086  11.932
61028W        W20564   5.810  30.046  12.906
61029W        W20565  17.074  23.998  14.962
61030W        W20566  12.658  21.668   0.443
61031W        W20567  12.805  22.555  10.582
61032W        W20568   1.859  23.190   2.745
61033W        W20569   7.380  33.592  14.974
61034W        W20570  18.718   8.858   2.309
61035W        W20571  40.966  43.014   0.780
61036W        W20572  35.474  23.612   0.364
61037W        W20573   1.842  44.287   1.826
61038W        W20574   4.894  33.049   5.243
61039W        W20575  18.652  25.541  12.395
61040W        W20576   0.969  16.088  10.595
61041W        W20577  28.616   0.299  11.012
61042W        W20578  28.978  23.145  13.465
61043W        W20579  23.571  35.029  11.445
61044W        W20580  30.485  28.615   0.782
61045W        W20581  19.653  18.790  14.341
61046W        W20582  12.650  10.149   2.408
61047W        W20583  16.705  13.736  12.379
61048W        W20584   2.416  17.601  14.496
61049W        W20585  32.923  40.819   1.224
61050W        W20586  23.494  34.005  14.786
61051W        W20587  44.897  15.682   3.867
61052W        W20588  33.933   1.261  10.978
61053W        W20589  22.071  13.198  11.439
61054W        W20590  29.962   4.938  14.763
61055W        W20591  19.542  29.630   3.797
61056W        W20592  36.525  29.530  11.533
61057W        W20593   7.370  19.184   0.938
61058W        W20594  12.284  31.484  12.355
61059W        W20595  32.984  37.024  10.988
61060W        W20596  27.651   5.786   2.812
61061W        W20597  23.525   0.319   2.383
61062W        W20598  36.462  24.655  10.987
61063W        W20599  23.024  37.901  12.553
61064W        W20600  21.562   6.268   0.250
61065W        W20601   7.817  16.761  11.858
61066W        W20602  13.831   7.376  14.436
61067W        W20603  31.542  39.467   4.145
61068W        W20604  34.533  22.238   3.286
61069W        W20605  22.545  35.069  10.426
61070W        W20606  15.255  36.551   3.816
61071W        W20607  41.818   9.741  14.900
61072W        W20608  27.118   0.766   0.352
61073W        W20609  19.745  20.718   1.700
61074W        W20610  17.649  36.903  10.984
61075W        W20611  22.166  12.688  13.435
61076W        W20612  19.757  31.925   0.757
61077W        W20613   5.278  32.585  14.405
61078W        W20614  18.667  14.166   5.111
61079W        W20615  19.643  31.511  12.956
61080W        W20616  43.405  43.880  10.613
61081W        W20617  30.587  42.298  10.898
61082W        W20618  35.441   0.854  13.475
61083W        W20619  44.413  32.127  11.116
61084W        W20620  40.393  22.536  11.067
61085W        W20621  17.298  25.107   1.881
61086W        W20622  26.136  37.447  14.859
61087W        W20623  13.327   1.801  12.078
61088W        W20624  43.324  25.104   4.203
61089W        W20625   6.358   0.373  10.151
61090W        W20626  40.875  17.154   3.767
61091W        W20627  11.637   2.341   2.816
61092W        W20628  11.856  35.927   0.736
61093W        W20629   4.328  24.082  14.950
61094W        W20630  43.994   6.195  11.052
61095W        W20631  36.493  32.926  10.635
61096W        W20632   9.805   4.417   4.644
61097W        W20633   9.846  20.599  12.847
61098W        W20634  29.993  34.387  11.122
61099W        W20635   8.887  16.643   2.714
61100W        W20636  32.023   3.840   2.688
61101W        W20637  13.232  32.095  11.451
61102W        W20638  14.692  26.604   0.450
61103W        W20639  21.529  20.609   2.189
61104W        W20640  33.576  39.324   2.890
61105W        W20641  27.024  17.209  12.889
61106W        W20642  34.002  36.861   4.705
61107W        W20643   8.324  37.912   3.178
61108W        W20644  19.272  25.010   2.338
61109W        W20645  27.523  26.467  14.467
61110W        W20646   9.379  12.315  10.576
61111W        W20647  23.574  12.740   1.707
61112W        W20648   1.373   7.790  10.977
61113W        W20649  43.512  39.398  13.531
61114W        W20650  17.692  20.738   1.709
61115W        W20651   6.297  35.040  10.928
61116W        W20652  38.929  42.299   1.386
61117W        W20653   4.301  27.119   3.707
61118W        W20654  31.978  29.958  13.428
61119W        W20655  44.984  22.027  12.580
61120W        W20656  19.242  11.681   4.163
61121W        W20657  25.993   8.748  13.834
61122W        W20658  38.565   8.291  15.000
61123W        W20659  23.698  19.052   1.246
61124W        W20660   9.680   9.785  12.945
61125W        W20661   7.363  10.689   4.831
61126W        W20662  25.063   0.482   4.164
61127W        W20663   1.778   9.298   1.262
61128W        W20664  31.977  31.129   4.269
61129W        W20665  29.642  27.677  13.984
61130W        W20666  41.487  25.547   2.742
61131W        W20667   6.373   8.249   4.279
61132W        W20668  23.240  23.133  14.781
61133W        W20669  25.102  15.258  13.540
61134W        W20670   1.414   0.322  11.543
61135W        W20671  20.727  18.766  11.519
61136W        W20672   4.937  39.022   2.679
61137W        W20673  33.528  37.527  11.567
61138W        W20674  31.123  11.826   4.277
61139W        W20675  22.662  12.850   3.850
61140W        W20676  19.058  30.636   3.808
61141W        W20677  34.958  21.017   0.925
61142W        W20678  26.526  44.817  13.832
61143W        W20679  37.533  42.452   0.814
61144W        W20680  42.029   5.224  12.833
61145W        W20681  14.632  29.470  10.932
61146W        W20682  35.917  30.966   2.896
61147W        W20683  40.374   2.800  13.476
61148W        W20684  14.754  34.378  13.854
61149W        W20685  15.753  28.554   1.753
61150W        W20686  10.763  17.780  11.468
61151W        W20687  10.871   8.220  10.081
61152W        W20688  30.020  33.956   4.288
61153W        W20689  43.489   2.750   3.744
61154W        W20690   9.865  30.519  14.884
61155W        W20691   9.150  16.586  12.905
61156W        W20692  28.086  33.940   2.290
61157W        W20693  36.088  33.887  13.862
61158W        W20694  26.146  19.073   1.747
61159W        W20695  13.784  23.099   3.634
61160W        W20696  38.824  10.706  12.090
61161W        W20697   9.781  31.026   9.497
61162W        W20698  30.089  37.887   2.802
61163W        W20699  40.440  22.129   4.792
61164W        W20700  19.111  10.258  11.410
61165W        W20701  40.812  28.628  14.360
61166W        W20702  34.434   3.425   3.840
61167W        W20703  37.037  17.214   2.708
61168W        W20704  13.271  18.586   0.362
61169W        W20705   0.898  12.157   2.298
61170W        W20706   3.419   2.738   2.356
61171W        W20707  30.111  26.659  12.056
61172W        W20708  25.552  16.798   2.359
61173W        W20709  27.060  19.739   1.351
61174W        W20710  20.659  28.991  14.372
61175W        W20711  10.762  31.072  11.946
61176W        W20712  35.055  29.478   2.692
61177W        W20713  37.943  27.563   4.285
61178W        W20714  20.612  16.211  14.349
61179W        W20715  39.927   1.804  10.548
61180W        W20716  40.431  27.680  12.465
61181W        W20717   1.887  17.266   2.226
61182W        W20718  14.744   6.288  14.905
61183W        W20719  11.779  38.914   1.383
61184W        W20720  30.108  14.789   2.668
61185W        W20721  42.809  32.073  13.335
61186W        W20722  43.467   7.828  10.501
61187W        W20723  11.735  17.271  13.366
61188W        W20724  17.766  30.096   1.390
61189W        W20725  18.152  14.098   2.774
61190W        W20726   1.275   3.279  12.073
61191W        W20727  25.556  28.669  13.930
61192W        W20728   8.267  34.521   2.690
61193W        W20729  31.942  29.168  14.472
61194W        W20730   6.356  20.680   1.232
61195W        W20731  36.005  24.677   9.648
61196W        W20732  26.535  22.085  13.832
61197W        W20733   3.430  20.546  12.385
61198W        W20734  11.764   1.734   4.774
61199W        W20735  22.521  41.920   3.747
61200W        W20736  35.580   3.799   3.298
61201W        W20737  33.892   8.799  14.946
61202W        W20738  36.472   0.822  12.933
61203W        W20739  42.025  37.017   2.241
61204W        W20740   6.752  14.695   1.790
61205W        W20741  32.418   7.702  12.398
61206W        W20742  16.588   9.698  10.449
61207W        W20743  31.528  22.672   2.865
61208W        W20744  22.503  13.624  14.882
61209W        W20745  15.271  22.127  14.296
61210W        W20746  42.426  26.493  12.090
61211W        W20747  38.405  32.633  12.443
61212W        W20748  25.107  41.922  13.891
61213W        W20749  17.253   9.840  14.948
61214W        W20750  39.849  17.214   4.813
61215W        W20751  19.140  12.356   2.860
61216W        W20752  36.860  30.646   4.181
61217W        W20753  31.623  19.050  11.604
61218W        W20754   9.770  13.200   0.367
61219W        W20755  37.526  30.541  13.338
61220W        W20756  44.940  34.031  12.445
61221W        W20757  15.614   6.392  12.076
61222W        W20758  33.411  21.602  13.330
61223W        W20759  23.207  42.854   4.695
61224W        W20760  18.168  39.330  11.051
61225W        W20761  44.449   1.296  10.994
61226W        W20762  44.351  22.122   4.691
61227W        W20763   5.374  18.703   3.792
61228W        W20764  11.164  16.132   2.408
61229W        W20765  27.042  23.618  12.497
61230W        W20766  11.352  15.306  10.903
61231W        W20767  26.552  19.736   3.324
61232W        W20768  23.984  39.510   0.459
61233W        W20769  29.090  35.395   1.889
61234W        W20770  30.156  25.625  11.972
61235W        W20771  14.656   3.380  10.549
61236W        W20772  24.639  20.719   4.742
61237W        W20773  23.048   4.228  13.950
61238W        W20774   3.296  25.549   1.784
61239W        W20775  33.598  40.021   3.359
61240W        W20776  21.137  10.825  12.403
61241W        W20777  20.727   9.851  12.529
61242W        W20778   0.787  21.550  11.076
61243W        W20779  32.925  43.332   0.904
61244W        W20780  41.857  41.861   4.703
61245W        W20781  16.243  22.043  14.804
61246W        W20782  44.849   7.194  12.356
61247W        W20783  11.816  15.279   0.291
61248W        W20784   7.202  18.774  14.019
61249W        W20785  40.480  16.183  10.463
61250W        W20786  20.084  26.474  11.891
61251W        W20787  18.553   9.685  13.911
61252W        W20788  33.960   4.292  10.954
61253W        W20789  44.803   1.900  13.825
61254W        W20790  40.499  26.562  12.577
61255W        W20791   2.807   1.411  12.835
61256W        W20792  31.916  29.065   1.342
61257W        W20793   4.899  18.639   3.269
61258W        W20794  10.650  28.935   0.399
61259W        W20795  39.903   4.356   2.787
61260W        W20796  35.901  44.397   4.838
61261W        W20797  32.512   6.693  13.508
61262W        W20798  12.619   7.196  11.856
61263W        W20799  27.038   6.357   4.709
61264W        W20800  16.600  42.816  11.916
61265W        W20801  12.179  11.650   1.787
61266W        W20802  12.816  21.222   3.198
61267W        W20803  26.170  26.498  10.502
61268W        W20804  16.667  26.101   0.451
61269W        W20805   9.702   1.437   1.736
61270W        W20806  16.224   2.264   4.134
61271W        W20807   0.754  34.899  13.403
61272W        W20808  23.189  23.006   0.391
61273W        W20809   6.297  43.320  11.115
61274W        W20810  33.523  44.291   2.219
61275W        W20811  38.882   1.924  14.790
61276W        W20812  28.090  16.200   2.251
61277W        W20813  36.918  14.700  13.434
61278W        W20814  30.137  25.474   0.364
61279W        W20815  19.178   3.947  11.545
61280W        W20816  10.636   7.356   0.397
61281W        W20817   2.906   5.237   3.857
61282W        W20818  32.087  20.202   2.245
61283W        W20819   6.839   1.397  10.534
61284W        W20820  37.393  27.096  13.507
61285W        W20821  38.389  32.954   3.695
61286W        W20822  16.758  44.295   4.344
61287W        W20823  43.806  23.172   3.711
61288W        W20824  34.979   2.771  14.872
61289W        W20825  40.868  15.129  12.557
61290W        W20826   7.890  41.484   1.216
61291W        W20827  25.040  10.143   4.225
61292W        W20828  33.102  13.683   1.297
61293W        W20829  23.703  16.632  12.493
61294W        W20830   5.734   4.805  11.454
61295W        W20831   5.757  13.699   4.649
61296W        W20832  25.119   2.357  12.033
61297W        W20833   0.859  41.796   2.247
61298W        W20834  34.389  39.969   0.868
61299W        W20835  27.134   2.245   4.640
61300W        W20836  40.415   3.928  12.340
61301W        W20837  18.725   5.346  11.086
61302W        W20838  34.504  36.998  12.538
61303W        W20839  30.623  27.977   1.395
61304W        W20840  17.090  23.677   3.798
61305W        W20841  18.129   8.174  12.938
61306W        W20842   7.906   3.953   2.798
61307W        W20843   2.966  20.629  14.366
61308W        W20844  40.548   4.274  14.926
61309W        W20845  13.273  30.453   0.472
61310W        W20846  24.090   2.430   1.771
61311W        W20847   8.752  38.451   1.770
61312W        W20848  35.918  25.100  12.551
61313W        W20849  23.186  22.628   4.345
61314W        W20850  40.456  23.158   2.811
61315W        W20851  30.626   1.322   1.361
61316W        W20852  17.768  31.582  14.973
61317W        W20853   8.185  27.674   2.835
61318W        W20854  28.037  25.672   2.200
61319W        W20855  29.525  17.775   4.291
61320W        W20856  13.152  32.417   3.190
61321W        W20857  29.032  19.273  10.612
61322W        W20858   4.270  36.881   4.114
61323W        W20859  27.671  39.837  10.457
61324W        W20860  30.117  18.579   4.744
61325W        W20861  34.965  15.092  11.545
61326W        W20862  15.812  33.547   1.761
61327W        W20863  11.755  15.792  11.915
61328W        W20864  12.150  44.964  12.420
61329W        W20865  26.987   6.417  14.333
61330W        W20866  18.134  38.552   0.760
61331W        W20867  40.887  21.064   1.750
61332W        W20868  32.568   7.808   0.906
61333W        W20869  40.387  37.557   5.173
61334W        W20870  13.828  11.719  11.095
61335W        W20871  33.975  17.638   2.822
61336W        W20872  24.584  12.314  13.835
61337W        W20873  10.168  37.541  12.895
61338W        W20874  30.051  44.842   0.454
61339W        W20875   6.257  17.264   2.271
61340W        W20876   9.157  31.512   4.765
61341W        W20877   1.293  27.623   2.738
61342W        W20878  25.174  34.888   3.287
61343W        W20879   5.815  20.188   0.341
61344W        W20880  22.069  22.020  11.585
61345W        W20881  44.262  30.528  11.437
61346W        W20882  34.095  43.860   3.329
61347W        W20883  32.390  11.349   3.382
61348W        W20884  33.131   4.278  13.959
61349W        W20885  39.939  22.114   3.337
61350W        W20886  43.392  10.227   0.359
61351W        W20887  35.883   8.370   2.720
61352W        W20888  11.867  31.004   0.797
61353W        W20889   0.968  22.157   2.261
61354W        W20890  33.909  37.067  11.411
61355W        W20891  23.554  24.561  13.497
61356W        W20892  38.013  38.334   0.956
61357W        W20893   9.256  36.955   0.317
61358W        W20894  24.155  25.992  13.419
61359W        W20895  29.037   6.832   0.449
61360W        W20896  34.547  31.602  12.967
61361W        W20897  40.841  19.187  14.424
61362W        W20898  12.787  22.026  10.566
61363W        W20899  21.582  18.579   0.317
61364W        W20900  20.613  27.112   4.292
61365W        W20901  37.426   1.928   2.299
61366W        W20902   1.366  26.624  13.461
61367W        W20903   3.884   4.272   3.664
61368W        W20904   9.167  36.028   0.342
61369W        W20905   8.216  38.546   4.694
61370W        W20906  38.342   8.322   0.386
61371W        W20907  21.551  44.857  13.457
61372W        W20908  43.359  18.097   0.303
61373W        W20909  23.655   9.747   3.751
61374W        W20910  25.083  12.632  13.533
61375W        W20911  38.904  40.010  13.028
61376W        W20912  16.686   0.977   0.339
61377W        W20913  26.117   1.344  14.971
61378W        W20914  11.361  37.999  13.371
61379W        W20915  39.918  15.121   0.741
61380W        W20916   4.214   6.317   1.287
61381W        W20917  43.867  43.341   3.159
61382W        W20918  15.813   6.691   3.806
61383W        W20919   6.330  29.621  11.120
61384W        W20920  16.254  31.015   1.833
61385W        W20921   9.181  40.539   4.316
61386W        W20922  28.666  37.951   4.678
61387W        W20923  39.865  25.023  11.576
61388W        W20924  11.853  13.807   9.945
61389W        W20925  18.644  25.151   0.335
61390W        W20926  28.145  25.482  13.439
61391W        W20927  10.367  19.095   0.442
61392W        W20928  12.774  23.715   4.155
61393W        W20929  10.769  18.257   1.357
61394W        W20930  38.335  16.793   1.225
61395W        W20931   1.421   1.839   3.727
61396W        W20932   6.354  33.001  14.327
61397W        W20933  39.975   1.809   0.389
61398W        W20934  24.528  17.625   2.836
61399W        W20935   3.424  30.465   2.757
61400W        W20936   9.687  30.914  11.482
61401W        W20937  26.529  17.146  13.419
61402W        W20938  18.556  13.124  14.373
61403W        W20939   5.726  26.164  12.969
61404W        W20940  19.272  27.974  12.457
61405W        W20941  41.041   3.870   3.797
61406W        W20942  32.456  16.740  14.838
61407W        W20943  23.106  20.094  10.917
61408W        W20944  39.888  24.164   0.349
61409W        W20945  42.997  13.678  13.390
61410W        W20946  23.073  37.489  11.420
61411W        W20947  42.030  44.933   4.777
61412W        W20948  35.016  28.169  12.883
61413W        W20949  34.873  39.533   0.382
61414W        W20950  33.551  11.799   2.222
61415W        W20951  21.650  25.623   2.275
61416W        W20952  27.615  24.022   4.269
61417W        W20953  34.050  38.903  10.424
61418W        W20954  30.100  20.580   0.327
61419W        W20955   2.756  42.828   0.848
61420W        W20956  35.443  24.214   4.281
61421W        W20957  19.755  27.943   1.897
61422W        W20958   3.326  41.889   5.177
61423W        W20959  20.653  41.893   0.479
61424W        W20960  44.860  16.673   4.673
61425W        W20961  42.341  14.694   2.753
61426W        W20962   0.424  11.691   1.257
61427W        W20963   2.907  39.533   3.221
61428W        W20964   6.357  33.605  14.422
61429W        W20965  10.381   7.204  12.934
61430W        W20966  10.640  35.595  13.307
61431W        W20967  21.211  33.470   4.219
61432W        W20968   8.881  31.635  13.845
61433W        W20969  23.570   4.921   4.148
61434W        W20970  36.509  43.800   0.430
61435W        W20971  40.904  14.214   0.387
61436W        W20972  18.637  33.990   2.404
61437W        W20973  40.916  11.843  14.961
61438W        W20974   9.743  41.470  11.880
61439W        W20975  41.933  43.497   3.322
61440W        W20976  29.578  23.720  12.518
61441W        W20977  32.955  20.580   2.353
61442W        W20978  41.883  29.550   2.323
61443W        W20979  13.333  29.918  14.943
61444W        W20980  23.577  30.972   4.239
61445W        W20981   6.205  43.806  12.010
61446W        W20982  26.963   9.322  10.949
61447W        W20983  37.871  11.714   0.292
61448W        W20984  23.145  21.145  14.808
61449W        W20985   5.851  30.461   4.301
61450W        W20986   4.432  28.120   4.233
61451W        W20987  40.512  34.984   1.732
61452W        W20988  37.957  25.605  13.357
61453W        W20989  37.977  36.352   1.826
61454W        W20990   5.866   9.838  13.532
61455W        W20991  39.489   6.854  14.847
61456W        W20992  14.169  19.555  10.466
61457W        W20993   5.927   6.310  11.013
61458W        W20994  24.715  41.788  13.022
61459W        W20995  13.729  28.055   3.254
61460W        W20996  40.372  11.624   4.719
61461W        W20997  20.717   4.743  12.564
61462W        W20998  17.741  39.013  13.798
61463W        W20999  42.522  19.690   0.855
61464W        W21000   7.865  23.626   1.338
61465W        W21001   4.902  30.043   2.196
61466W        W21002  14.652  14.309  11.920
61467W        W21003  27.542  23.996   4.693
61468W        W21004  27.094  37.900  11.051
61469W        W21005  36.557  39.967  14.495
61470W        W21006  10.729  18.278  12.079
61471W        W21007  17.801   9.834   3.836
61472W        W21008  19.272  23.232   5.165
61473W        W21009  17.638  34.969   0.341
61474W        W21010  36.907  36.372   4.284
61475W        W21011  33.573  35.956   0.253
61476W        W21012  23.221  36.460   2.317
61477W        W21013  19.626  17.727   1.705
61478W        W21014  10.682  12.258  14.934
61479W        W21015   6.268  23.018   0.424
61480W        W21016   6.900  37.407  12.920
61481W        W21017  13.284  33.409  10.635
61482W        W21018  30.923   4.306  14.877
61483W        W21019  14.641  42.030  13.862
61484W        W21020   5.241   5.908  12.931
61485W        W21021  21.260  17.601  14.764
61486W        W21022  44.413  24.714   0.482
61487W        W21023  18.088  39.560  14.814
61488W        W21024  44.798  12.719  14.796
61489W        W21025  24.673  20.231   3.371
61490W        W21026   2.952  36.081   0.249
61491W        W21027  33.026  10.304  11.121
61492W        W21028  31.577  36.848   0.474
61493W        W21029  34.563   4.216  12.001
61494W        W21030   5.295  38.477  14.303
61495W        W21031   0.387  36.428  11.422
61496W        W21032  39.037  30.920  11.484
61497W        W21033   6.378  40.472   5.295
61498W        W21034   4.896   6.265  13.462
61499W        W21035  40.829  17.152   2.902
61500W        W21036  37.036   3.928   4.218
61501W        W21037  43.388  17.142   1.436
61502W        W21038   8.242  11.853   0.787
61503W        W21039  13.654   3.852  10.978
61504W        W21040   5.874  11.334   0.475
61505W        W21041  33.554  36.588   1.397
61506W        W21042   1.790  22.536  13.453
61507W        W21043  22.578  11.640  12.525
61508W        W21044  28.019  36.095  13.483
61509W        W21045   7.709   5.333   3.805
61510W        W21046   5.927  14.719   0.263
61511W        W21047   7.833  18.699  12.932
61512W        W21048  15.102  32.610   2.821
61513W        W21049   5.240  33.535   1.268
61514W        W21050  43.984   5.709   4.348
61515W        W21051  12.626  44.306  10.504
61516W        W21052  39.899  12.295   3.755
61517W        W21053  38.019  13.675  12.890
61518W        W21054  21.225  11.136  12.880
61519W        W21055   4.395  36.894  12.975
61520W        W21056  23.099  21.212  11.035
61521W        W21057  13.293  37.897  12.866
61522W        W21058  33.962  38.030   1.318
61523W        W21059  26.071  11.731   0.922
61524W        W21060  14.631  16.121  10.566
61525W        W21061   1.381  28.591  11.457
61526W        W21062   7.850  12.668  10.159
61527W        W21063  30.426  12.335  12.845
61528W        W21064  19.683  24.026  11.378
61529W        W21065  36.997  41.791   2.856
61530W        W21066   4.892  24.015  13.924
61531W        W21067  36.460  14.168   0.419
61532W        W21068  36.452   7.224  11.128
61533W        W21069  22.626   9.691  10.497
61534W        W21070  17.565  35.856  14.831
61535W        W21071  28.962  27.569   1.451
61536W        W21072  38.393  23.119  12.343
61537W        W21073   1.376  19.576  10.908
61538W        W21074  40.491  22.997  12.534
61539W        W21075  17.630  19.671  13.384
61540W        W21076   3.272  14.243  11.892
61541W        W21077  33.100  26.568  13.435
61542W        W21078  16.778  32.582   0.750
61543W        W21079  12.313   1.971   3.710
61544W        W21080   0.901  11.789   3.719
61545W        W21081  30.597  10.365  11.424
61546W        W21082   3.815  10.857   2.714
61547W        W21083  23.074   5.391   2.792
61548W        W21084  42.424  44.445   0.286
61549W        W21085  32.485  14.136  12.548
61550W        W21086   5.355  28.137   4.174
61551W        W21087  24.974  31.578  11.896
61552W        W21088  15.275  19.168  14.915
61553W        W21089  30.928  36.863   1.809
61554W        W21090  29.952   4.769  13.058
61555W        W21091  39.334   9.220  14.824
61556W        W21092  31.937  35.560   4.128
61557W        W21093  25.526   8.194   2.267
61558W        W21094  31.532  18.257   0.947
61559W        W21095   6.689  11.792   0.251
61560W        W21096   6.744  23.725   4.320
61561W        W21097   3.807   4.263   4.326
61562W        W21098   5.330   1.758   2.756
61563W        W21099   2.841  21.727   4.267
61564W        W21100  10.301  40.326   3.782
61565W        W21101  38.483  36.474   3.808
61566W        W21102  37.346   1.247  12.468
61567W        W21103  40.801   3.772   1.339
61568W        W21104  14.805  28.453   0.326
61569W        W21105  43.351  40.797   1.700
61570W        W21106  34.881  13.754   2.193
61571W        W21107  15.670  44.328   0.399
61572W        W21108  25.623   0.779  12.019
61573W        W21109  33.391  16.092   1.401
61574W        W21110  14.813   4.771   4.234
61575W        W21111   5.201  15.094  12.574
61576W        W21112  22.011  22.145   4.757
61577W        W21113  40.449  31.442  13.904
61578W        W21114  30.595  37.018   4.120
61579W        W21115  35.406  28.117   3.679
61580W        W21116  29.093  10.822   4.215
61581W        W21117   6.889  27.622   0.360
61582W        W21118  44.930   4.706   4.646
61583W        W21119  39.489  39.460   1.708
61584W        W21120  40.847   5.281  14.871
61585W        W21121  38.005   7.217   5.271
61586W        W21122  42.473  16.712   0.273
61587W        W21123  31.095  25.597   3.290
61588W        W21124  10.368  30.907  11.379
61589W        W21125  13.115  15.261  13.975
61590W        W21126  34.507   9.360   4.632
61591W        W21127  19.573   4.919   1.289
61592W        W21128  24.180   1.476  14.894
61593W        W21129  26.510  32.587   4.148
61594W        W21130  43.937  41.840  12.344
61595W        W21131  35.596  40.367   2.338
61596W        W21132  13.728  34.582  12.349
61597W        W21133   6.211   1.920  12.917
61598W        W21134  27.105   4.322  13.390
61599W        W21135  13.781  27.161  14.415
61600W        W21136  27.013   2.883   1.289
61601W        W21137  24.976  36.453   0.817
61602W        W21138  11.868  16.279   4.801
61603W        W21139  10.760  34.092  13.502
61604W        W21140  28.098  39.537   3.249
61605W        W21141  18.273  16.763   1.210
61606W        W21142  11.712  23.664  11.497
61607W        W21143  16.625   8.327  12.830
61608W        W21144   4.422   5.875   2.795
61609W        W21145  44.282  12.830  14.913
61610W        W21146  20.630  37.938   3.225
61611W        W21147   1.284   5.213  12.498
61612W        W21148   7.213   6.186  12.019
61613W        W21149  30.983  34.414   2.324
61614W        W21150   3.930  31.555   3.265
61615W        W21151   6.871  22.536  11.549
61616W        W21152  35.384  13.703   3.364
61617W        W21153  32.965  37.835  12.419
61618W        W21154  15.816  10.688   1.336
61619W        W21155  11.201  16.638  11.035
61620W        W21156  33.507  16.732  11.116
61621W        W21157  22.021  30.035   2.701
61622W        W21158  31.968  33.411  14.892
61623W        W21159   4.286  41.344  11.536
61624W        W21160  21.258  41.989  14.998
61625W        W21161   1.297  24.540  10.415
61626W        W21162  28.681  18.092   2.360
61627W        W21163  19.095  31.444  13.335
61628W        W21164  36.419  38.474   0.900
61629W        W21165   4.907  38.377   3.287
61630W        W21166  10.734  10.308  10.407
61631W        W21167  23.217   7.413   4.296
61632W        W21168   0.268  28.627  11.599
61633W        W21169  44.266  18.757  14.876
61634W        W21170  39.955  40.985   1.866
61635W        W21171   5.900  24.208  14.489
61636W        W21172  28.000  35.877   0.886
61637W        W21173  18.128  40.020  11.405
61638W        W21174  33.897  24.146  12.431
61639W        W21175  43.462  43.011   2.889
61640W        W21176  36.925  11.332   0.871
61641W        W21177  24.114  15.228   3.238
61642W        W21178   2.932  33.083  10.410
61643W        W21179   3.804  19.137   1.224
61644W        W21180   4.243  30.103  12.913
61645W        W21181  15.252   6.302   4.662
61646W        W21182  23.060  22.192  11.911
61647W        W21183  39.892   6.195  13.422
61648W        W21184  31.427  32.408  14.775
61649W        W21185   2.259  30.144  10.478
61650W        W21186  36.009   3.824  14.863
61651W        W21187  10.708  29.629  14.289
61652W        W21188   9.308  28.082   2.838
61653W        W21189  17.592  28.998   1.696
61654W        W21190  14.263  38.510  12.904
61655W        W21191   7.362   6.689  14.934
61656W        W21192  37.416  41.339   4.247
61657W        W21193   0.481   5.809   4.222
61658W        W21194  34.988   5.903  14.450
61659W        W21195  44.885  21.023  14.424
61660W        W21196   9.380  40.997   0.739
61661W        W21197  20.757  18.567  14.468
61662W        W21198  23.124  34.371  13.493
61663W        W21199  28.481   4.439   0.404
61664W        W21200  30.628  33.383  13.854
61665W        W21201  27.990  12.766   4.645
61666W        W21202   3.949  25.962   0.415
61667W        W21203  30.553  24.160  11.030
61668W        W21204  35.580   4.362   0.334
61669W        W21205  14.265   5.243  14.330
61670W        W21206  14.159  27.141   2.740
61671W        W21207  18.695   9.185   4.131
61672W        W21208  32.414  10.816   4.285
61673W        W21209  33.456  26.118  11.891
61674W        W21210  33.496  15.142   3.315
61675W        W21211  16.665  26.483  12.006
61676W        W21212  27.952  11.740   0.442
61677W        W21213   9.166  40.867  11.451
61678W        W21214  42.021  33.607   1.756
61679W        W21215   2.296  21.689  13.999
61680W        W21216  28.145  29.450  11.015
61681W        W21217   0.299   9.856   2.195
61682W        W21218  42.958  28.139   2.208
61683W        W21219  23.616   0.815   2.409
61684W        W21220  13.732  11.334   0.354
61685W        W21221  31.545  38.040  12.564
61686W        W21222  14.132  34.909   0.314
61687W        W21223  27.155  20.555  11.512
61688W        W21224  41.962  36.522  11.952
61689W        W21225  34.568  32.039   1.329
61690W        W21226  19.054  20.568   2.302
61691W        W21227  30.506  28.625   1.221
61692W        W21228   2.334  22.720   3.847
61693W        W21229  43.954  29.985  14.429
61694W        W21230  35.009  34.107   3.737
61695W        W21231   1.952  15.709  12.966
61696W        W21232  11.670   4.832  11.394
61697W        W21233  29.439  13.311   3.385
61698W        W21234   5.305  23.518   0.441
61699W        W21235  41.310   5.810   1.701
61700W        W21236  35.402  41.526  11.980
61701W        W21237  13.723  31.030   2.694
61702W        W21238   3.299  23.053  13.039
61703W        W21239   4.762  44.283  10.470
61704W        W21240  32.577  13.292  14.327
61705W        W21241  37.844   2.793  12.974
61706W        W21242   8.785  20.580   1.740
61707W        W21243  27.560  34.040   0.809
61708W        W21244   1.916  44.915   4.116
61709W        W21245  35.076   9.767  11.425
61710W        W21246  38.883  21.604   0.920
61711W        W21247  35.879  18.245   4.627
61712W        W21248  25.579  14.233   3.243
61713W        W21249   3.923  26.142  12.495
61714W        W21250   5.760  41.952  11.425
61715W        W21251  18.122  24.215  10.428
61716W        W21252  30.441  13.665   4.172
61717W        W21253  40.923  27.585  11.867
61718W        W21254  17.659   5.270   1.741
61719W        W21255  15.768   5.892  11.091
61720W        W21256  40.934  15.209   0.837
61721W        W21257  12.287  34.971   0.894
61722W        W21258  25.042  18.057   0.750
61723W        W21259  34.949  26.686   1.421
61724W        W21260   0.932  11.755   2.188
61725W        W21261  37.435  21.574   1.705
61726W        W21262  35.571  44.961   0.417
61727W        W21263  17.222  24.022   2.734
61728W        W21264  35.900   4.777   1.817
61729W        W21265  20.265  33.066   4.817
61730W        W21266  16.663   8.353  13.921
61731W        W21267  12.327  16.214  14.804
61732W        W21268  28.930  31.421  12.350
61733W        W21269  14.193  39.552   0.409
61734W        W21270  40.005  27.558   3.218
61735W        W21271  12.618  43.959  14.425
61736W        W21272  11.271   2.815  13.964
61737W        W21273   0.484   0.293  12.488
61738W        W21274  25.106  38.443  14.780
61739W        W21275  35.069  41.325   2.838
61740W        W21276   8.249  37.425   4.610
61741W        W21277  14.119  31.017  10.890
61742W        W21278   9.889  24.714   4.345
61743W        W21279   4.317   6.373  14.512
61744W        W21280  12.711  14.768   1.781
61745W        W21281  32.902  21.259  14.414
61746W        W21282  34.062   0.392  14.508
61747W        W21283  42.456  16.126  11.586
61748W        W21284  38.852   0.840  14.493
61749W        W21285  40.480  19.159   4.165
61750W        W21286  14.718  41.870  14.464
61751W        W21287   9.392  34.500  12.513
61752W        W21288  31.527  21.181   4.340
61753W        W21289  20.680  15.807   4.623
61754W        W21290   4.856  27.943  14.834
61755W        W21291  17.306  16.310   3.182
61756W        W21292   6.261  23.534   4.286
61757W        W21293  42.824  34.439   3.335
61758W        W21294  18.227  19.138  14.932
61759W        W21295  23.234   0.763   1.294
61760W        W21296  37.389  20.126  13.809
61761W        W21297  25.028  19.745   9.983
61762W        W21298   8.382  13.108   2.808
61763W        W21299  20.723  25.994  12.955
61764W        W21300  37.848   4.852   4.281
61765W        W21301  21.164  25.650   3.342
61766W        W21302  23.988  30.091  13.010
61767W        W21303  20.532  27.544   4.725
61768W        W21304  33.120  31.107  13.382
61769W        W21305  40.893  11.207   4.646
61770W        W21306   6.890  31.581  12.432
61771W        W21307  40.485  12.748  11.555
61772W        W21308  42.441  41.425  11.072
61773W        W21309  34.870   7.340  12.993
61774W        W21310  26.522   7.899   2.804
61775W        W21311  24.068  28.629   2.668
61776W        W21312   6.735  15.228  13.316
61777W        W21313   6.722   2.305  13.029
61778W        W21314  38.393  13.714  11.516
61779W        W21315  21.717  18.104   1.316
61780W        W21316  23.633  16.728   0.272
61781W        W21317   3.803  21.673  10.933
61782W        W21318   0.754  32.506   0.276
61783W        W21319  38.001   2.932   3.743
61784W        W21320  27.489  42.455   0.304
61785W        W21321  41.463  32.446   3.305
61786W        W21322  20.142  13.830   0.815
61787W        W21323  18.213  13.292   2.721
61788W        W21324  42.954   0.865  13.902
61789W        W21325  33.939  28.102  11.456
61790W        W21326  43.859  17.287  10.929
61791W        W21327  18.254  28.438  11.456
61792W        W21328  34.964  30.620   0.929
61793W        W21329  26.541  36.531   4.774
61794W        W21330  18.275  18.133  13.963
61795W        W21331   8.854   6.295   1.784
61796W        W21332  16.182  24.662  10.616
61797W        W21333   4.246  39.012   2.756
61798W        W21334  37.545  44.992   3.147
61799W        W21335  21.577  20.274  12.934
61800W        W21336  34.440  43.297  13.021
61801W        W21337  25.623  39.025  11.888
61802W        W21338  16.246  36.088   3.369
61803W        W21339  23.502   3.225   0.758
61804W        W21340   7.247  43.994   4.172
61805W        W21341  10.263  30.418   5.642
61806W        W21342  41.858  21.110   1.334
61807W        W21343  16.673   3.800  14.419
61808W        W21344   7.728  31.627  12.579
61809W        W21345   1.823   1.959  14.343
61810W        W21346  32.524   1.249   2.672
61811W        W21347  26.614  24.093   0.814
61812W        W21348  14.238  25.136   2.698
61813W        W21349   2.890   2.885  13.495
61814W        W21350  28.560   4.337  11.090
61815W        W21351  40.879  34.031   4.714
61816W        W21352  34.056  38.407   4.126
61817W        W21353   5.312  20.732   2.862
61818W        W21354  26.571  18.131  12.487
61819W        W21355  29.016  38.828  12.070
61820W        W21356   4.402  23.103   4.612
61821W        W21357  32.465  16.808  11.562
61822W        W21358  38.527  25.178  10.907
61823W        W21359   2.303   6.188  10.493
61824W        W21360  30.416  22.247  11.903
61825W        W21361  42.017  23.735  14.378
61826W        W21362   9.824  38.877  10.984
61827W        W21363  10.784   0.353   0.280
61828W        W21364   9.241  29.071  11.901
61829W        W21365   4.933   6.252  10.439
61830W        W21366  23.022  36.500  13.500
61831W        W21367  31.590   0.770   0.280
61832W        W21368   1.884   8.876  10.414
61833W        W21369  18.662  31.513   3.313
61834W        W21370  14.259  43.455   3.171
61835W        W21371  10.774   7.683   1.288
61836W        W21372  38.496  19.741  12.027
61837W        W21373  36.009  25.545  14.009
61838W        W21374  35.542  12.775  14.341
61839W        W21375  21.060  25.001  10.002
61840W        W21376  35.872  34.976  10.641
61841W        W21377   2.879  21.037   2.206
61842W        W21378  36.907  39.315  10.620
61843W        W21379  31.613   3.946   2.828
61844W        W21380  38.416   3.713  11.382
61845W        W21381   2.938  12.780  13.478
61846W        W21382  31.091   9.734   1.411
61847W        W21383  28.107  38.996  13.994
61848W        W21384  38.377  31.924   3.196
61849W        W21385  37.449  19.251  13.972
61850W        W21386   5.346   9.253   0.435
61851W        W21387   2.959  19.165   4.217
61852W        W21388  37.459  16.249  10.475
61853W        W21389  31.447   1.933  13.533
61854W        W21390  41.824   5.391   0.746
61855W        W21391  30.147   8.261   2.759
61856W        W21392  38.873  36.544   0.792
61857W        W21393  19.147  22.631   4.149
61858W        W21394  14.104  21.174  13.007
61859W        W21395   8.695  16.174  13.418
61860W        W21396  13.272  23.644   5.183
61861W        W21397  39.533  43.789  13.430
61862W        W21398  12.794  28.653  13.810
61863W        W21399  16.570  32.636  12.919
61864W        W21400  15.616   3.370   1.796
61865W        W21401  17.213   3.421  11.479
61866W        W21402  26.148  34.027  14.825
61867W        W21403  32.080  25.138  11.083
61868W        W21404  29.596   0.875  14.923
61869W        W21405   5.269  29.591  12.433
61870W        W21406  23.012  12.704  14.308
61871W        W21407  10.879  29.097  13.406
61872W        W21408  33.497   6.761   4.290
61873W        W21409   1.283  23.621   3.317
61874W        W21410   2.323  37.921   0.362
61875W        W21411  32.117   7.894  14.494
61876W        W21412  39.376  10.217   3.224
61877W        W21413  15.297  13.669   2.879
61878W        W21414  26.046  34.388  11.455
61879W        W21415  25.668  12.219   0.432
61880W        W21416  26.510   1.329   3.764
61881W        W21417  44.276  33.445  14.023
61882W        W21418  17.712  36.011   4.296
61883W        W21419  33.381  42.946   1.736
61884W        W21420  38.565  35.059   3.375
61885W        W21421  13.302  38.822  12.902
61886W        W21422  14.141  38.486  12.365
61887W        W21423  24.207  24.207   0.269
61888W        W21424  18.586  26.532   3.742
61889W        W21425  22.231  18.231  10.908
61890W        W21426   0.470  44.332   0.738
61891W        W21427  15.319  17.240  14.969
61892W        W21428  13.293   9.664   1.705
61893W        W21429  40.358  44.302   0.738
61894W        W21430   7.676  30.488  11.599
61895W        W21431  21.091  41.880  12.964
61896W        W21432  39.899  42.937  13.854
61897W        W21433  39.368   5.802  10.481
61898W        W21434  22.159   4.302   0.345
61899W        W21435  29.972  44.852   1.709
61900W        W21436  29.962  36.500   3.366
61901W        W21437  27.182  26.971   4.684
61902W        W21438  38.991  26.122   2.345
61903W        W21439   6.220   9.647   1.309
61904W        W21440  34.055   3.856   1.301
61905W        W21441  43.956   0.872   2.795
61906W        W21442   9.816   2.346   1.444
61907W        W21443  14.166  33.437  11.013
61908W        W21444  27.464  35.926   3.200
61909W        W21445   7.749   5.883  14.295
61910W        W21446   4.271  17.276  11.924
61911W        W21447  34.005   1.393   0.763
61912W        W21448  15.273  11.733   1.743
61913W        W21449  11.311  30.081  10.991
61914W        W21450  21.046  35.416   3.151
61915W        W21451   2.451  44.484  12.996
61916W        W21452  18.092  36.970  14.507
61917W        W21453  20.140   9.315   0.335
61918W        W21454  28.006  30.445  14.894
61919W        W21455   8.242  43.478   2.225
61920W        W21456  30.550   4.242  11.498
61921W        W21457  21.617  21.530  14.466
61922W        W21458  13.149   7.229  13.829
61923W        W21459  43.842  35.604   0.923
61924W        W21460  42.517  38.051  13.030
61925W        W21461  17.096  28.932  14.391
61926W        W21462   9.381   8.848   2.274
61927W        W21463  15.108  30.923   1.254
61928W        W21464   4.449   5.280  11.509
61929W        W21465  33.964  39.936   1.394
61930W        W21466  28.011  17.625   4.660
61931W        W21467  44.834  32.038  11.405
61932W        W21468  15.310  13.811  10.503
61933W        W21469   8.681  24.639  10.520
61934W        W21470  34.928  29.010   4.267
61935W        W21471  35.554  14.195  14.275
61936W        W21472   2.233  44.779  10.912
61937W        W21473   2.236   5.707   3.226
61938W        W21474  36.879  36.572  11.396
61939W        W21475   5.720  28.975  13.414
61940W        W21476   0.257  38.852  13.365
61941W        W21477  12.214  20.198  13.915
61942W        W21478  40.927  20.269  11.415
61943W        W21479   8.773  12.206  14.856
61944W        W21480  40.809  18.644   0.262
61945W        W21481   4.730  25.631   0.925
61946W        W21482  37.464  38.360  12.416
61947W        W21483  17.647  25.975  10.993
61948W        W21484  29.563  14.255   0.959
61949W        W21485  20.570  28.083  10.940
61950W        W21486  37.478  16.621  13.352
61951W        W21487  14.629   6.256  13.833
61952W        W21488  25.127  23.058  13.906
61953W        W21489  39.519  26.501  12.948
61954W        W21490  15.624  19.603  10.917
61955W        W21491  25.526  32.427  13.062
61956W        W21492  22.598  33.966   4.250
61957W        W21493  28.970  26.046   0.249
61958W        W21494  25.128  25.017  13.468
61959W        W21495  19.194   9.228   4.624
61960W        W21496  18.096  13.208   1.763
61961W        W21497  44.455  18.089   1.844
61962W        W21498  40.487   4.302   0.878
61963W        W21499   5.272   9.202  13.926
61964W        W21500  12.835  29.080  14.473
61965W        W21501  40.495  42.313   4.133
61966W        W21502  17.105  20.715   3.337
61967W        W21503  40.005  35.527   4.807
61968W        W21504  10.739   6.775  13.518
61969W        W21505   0.472  22.023   1.889
61970W        W21506  14.825  29.139  14.948
61971W        W21507  13.655  34.479  14.992
61972W        W21508  28.072  13.132   2.844
61973W        W21509  15.773  20.115  14.023
61974W        W21510  26.523  27.044  10.601
61975W        W21511  13.207   2.766  14.763
61976W        W21512  16.115  11.245  10.613
61977W        W21513  18.147  11.664   2.369
61978W        W21514   6.297  34.549  11.554
61979W        W21515   4.433  39.528  14.839
61980W        W21516   9.872  23.041  12.829
61981W        W21517  31.064  39.842  10.498
61982W        W21518  39.346  23.727   3.152
61983W        W21519  35.017  38.045  14.939
61984W        W21520  39.026  21.660   1.313
61985W        W21521  22.127  37.485  11.099
61986W        W21522  24.051  22.638  13.377
61987W        W21523  17.781   0.448   4.600
61988W        W21524  37.077  35.005   2.383
61989W        W21525   2.860  10.858  10.899
61990W        W21526  27.977  24.057   2.279
61991W        W21527  27.632  11.340   3.285
61992W        W21528  35.385  40.427  10.968
61993W        W21529  39.454   2.313   3.709
61994W        W21530  21.223  12.739   2.199
61995W        W21531  24.125  39.942   1.303
61996W        W21532   1.885  11.758   9.928
61997W        W21533  19.276  44.971  13.889
61998W        W21534  41.952   9.688   0.935
61999W        W21535  21.721   4.261   0.247
62000W        W21536  15.269   6.267  14.934
62001W        W21537  14.244  17.690   4.806
62002W        W21538  35.855  39.948   0.481
62003W        W21539  13.640   2.733   2.339
62004W        W21540  44.392  44.377  12.939
62005W        W21541  25.511  22.026   0.300
62006W        W21542   9.800  33.422  12.934
62007W        W21543  20.647  30.561  12.576
62008W        W21544  18.050   8.316   1.393
62009W        W21545  24.683  14.686   0.837
62010W        W21546   9.797  14.766  12.002
62011W        W21547  35.585  25.133  11.592
62012W        W21548   6.731  43.897   3.799
62013W        W21549  35.867  24.548   1.443
62014W        W21550  22.207  44.010  12.852
62015W        W21551   9.889   6.836  11.401
62016W        W21552  26.129  27.655  13.325
62017W        W21553  36.078  36.091   3.337
62018W        W21554  44.776  36.590   0.840
62019W        W21555  15.681  32.020   2.862
62020W        W21556  39.857  13.700  12.993
62021W        W21557  12.163  25.687   1.779
62022W        W21558  29.024  43.864  11.406
62023W        W21559   8.316  18.142   4.135
62024W        W21560  33.417  23.545  14.420
62025W        W21561   7.691  13.781   2.888
62026W        W21562  36.437  40.324   5.236
62027W        W21563  36.508  44.004  12.923
62028W        W21564  21.561  25.484   1.387
62029W        W21565  13.225  29.556   1.779
62030W        W21566  29.635  25.026   2.802
62031W        W21567   2.273  28.962   1.865
62032W        W21568  29.112  28.678  11.496
62033W        W21569  27.195  27.956   1.932
62034W        W21570  15.235   4.347  10.550
62035W        W21571  35.866  17.179   3.769
62036W        W21572  21.604   1.270   2.242
62037W        W21573  34.576  12.271   2.879
62038W        W21574  31.483  19.734   2.761
62039W        W21575  29.099  37.536   1.879
62040W        W21576  14.142  39.369  13.024
62041W        W21577  18.673  17.281   0.481
62042W        W21578  19.587  41.862   2.238
62043W        W21579  39.423  11.665  11.536
62044W        W21580   9.661  31.440  10.965
62045W        W21581  39.433  23.527  11.448
62046W        W21582  40.390  33.564   3.260
62047W        W21583  21.619  16.704  13.330
62048W        W21584  19.114  31.446   2.720
62049W        W21585  29.446  23.701   4.725
62050W        W21586  37.009   1.891  11.028
62051W        W21587  15.578  28.497   3.261
62052W        W21588  40.045  39.417   1.396
62053W        W21589  23.569  24.153   3.692
62054W        W21590  44.480   8.285   4.737
62055W        W21591  44.492  16.223  12.037
62056W        W21592  25.155  27.169  14.368
62057W        W21593  25.584  27.168   1.306
62058W        W21594  20.523  10.351  12.402
62059W        W21595  31.078  31.084  11.507
62060W        W21596  12.199  32.925   2.337
62061W        W21597   5.421   9.249   1.841
62062W        W21598  29.954  12.831  12.505
62063W        W21599   0.857  37.867   3.797
62064W        W21600  41.839  41.505   4.739
62065W        W21601   1.306  39.954   1.334
62066W        W21602  16.767  41.533   3.167
62067W        W21603  21.731  16.240  14.899
62068W        W21604  10.140  24.629  14.018
62069W        W21605  19.744  43.364  14.355
62070W        W21606  26.607   3.446   2.666
62071W        W21607  41.469  28.611   2.257
62072W        W21608  11.176  34.488  13.366
62073W        W21609  35.966  36.910  14.897
62074W        W21610  23.107  32.918  11.892
62075W        W21611  19.621  13.248   3.696
62076W        W21612  43.960  13.785   3.277
62077W        W21613  43.859  25.973  14.996
62078W        W21614  20.566  32.593   2.867
62079W        W21615  42.791   1.255  11.949
62080W        W21616  18.250  22.214   2.257
62081W        W21617   4.759  38.880  10.980
62082W        W21618  41.824  33.890  13.978
62083W        W21619  21.260  24.480   0.474
62084W        W21620  15.294  41.526   3.295
62085W        W21621  23.539  29.433  14.829
62086W        W21622  37.924   8.228  11.899
62087W        W21623  20.743  25.089   2.208
62088W        W21624   1.968   9.794  11.571
62089W        W21625  20.131  42.028  14.009
62090W        W21626  11.749  18.766   3.838
62091W        W21627  39.958  26.168   2.899
62092W        W21628  24.056  18.240   2.757
62093W        W21629  43.836  44.969   0.952
62094W        W21630   8.216  30.598  11.895
62095W        W21631  15.657  11.834  12.365
62096W        W21632  30.063  13.262   2.284
62097W        W21633  44.321   5.873  12.523
62098W        W21634  43.466  28.469   1.268
62099W        W21635   5.690  18.284  10.638
62100W        W21636  40.879  17.105  13.471
62101W        W21637   3.742  24.636   3.356
62102W        W21638  16.569   1.941  12.853
62103W        W21639  12.693  26.571   1.700
62104W        W21640  19.554  12.156  14.784
62105W        W21641   8.382  13.744  14.312
62106W        W21642   0.456  24.623  11.431
62107W        W21643  27.552  42.403   3.832
62108W        W21644  36.046  19.545  11.946
62109W        W21645  10.769  10.867   4.722
62110W        W21646  17.723  20.108   1.309
62111W        W21647  22.205   9.256   3.806
62112W        W21648   2.881  18.246   2.418
62113W        W21649   6.679  23.039   4.755
62114W        W21650  29.063   7.727   0.814
62115W        W21651  24.109   0.354   3.297
62116W        W21652  13.695   3.946   4.727
62117W        W21653  31.946   7.890  14.938
62118W        W21654  44.906  28.638   9.994
62119W        W21655   9.791   1.265   0.831
62120W        W21656  13.187  26.478  10.078
62121W        W21657   1.851  17.786   3.791
62122W        W21658  24.167  28.027  11.508
62123W        W21659  40.340   5.345  10.614
62124W        W21660  30.560   0.931  14.372
62125W        W21661  34.375  10.792  14.920
62126W        W21662  34.973  38.479   1.223
62127W        W21663  37.012  37.413  12.483
62128W        W21664   4.794   6.768   0.431
62129W        W21665  20.699  21.673   0.412
62130W        W21666  30.462   7.263  13.981
62131W        W21667  40.349  31.910   0.275
62132W        W21668   0.979  44.804  10.456
62133W        W21669  12.644  28.610  11.036
62134W        W21670   9.647  21.248  10.933
62135W        W21671  24.203  39.025  14.422
62136W        W21672  36.424  10.358   1.382
62137W        W21673  35.375  17.717   2.856
62138W        W21674  25.597   5.246  14.457
62139W        W21675  14.174  13.619   3.643
62140W        W21676  29.510  30.439   0.373
62141W        W21677   6.188  29.962  11.431
62142W        W21678   0.885  32.071   3.869
62143W        W21679  26.552  21.659  13.315
62144W        W21680  23.182   7.815  14.380
62145W        W21681  39.038  32.069   0.811
62146W        W21682  40.543  36.986   2.248
62147W        W21683  28.104  11.633  10.538
62148W        W21684  23.596  38.448   4.295
62149W        W21685  35.019  31.910   2.258
62150W        W21686  29.988  41.999   2.855
62151W        W21687   1.825  29.624   4.654
62152W        W21688  31.453   0.792  13.063
62153W        W21689  25.148   5.892   3.754
62154W        W21690   1.263  22.022   1.729
62155W        W21691  31.413  43.390   1.778
62156W        W21692  26.191  41.937   3.697
62157W        W21693  35.911  34.606  12.088
62158W        W21694   8.732  34.003  12.523
62159W        W21695   1.826  30.141   0.886
62160W        W21696  40.850  36.409  12.453
62161W        W21697  22.244  13.620   3.309
62162W        W21698  29.024  25.028   3.188
62163W        W21699  26.594  42.478   2.894
62164W        W21700   1.353  30.116  12.928
62165W        W21701  24.524  22.247   4.294
62166W        W21702  10.184  39.540  12.512
62167W        W21703   2.300   9.685  12.478
62168W        W21704  12.287  35.596  14.497
62169W        W21705   4.701  27.566   3.674
62170W        W21706  41.965   5.796  11.978
62171W        W21707  27.618  20.259  13.938
62172W        W21708  14.627  37.575  14.024
62173W        W21709  16.212  13.144  14.447
62174W        W21710   4.227  15.681   0.433
62175W        W21711  18.564  32.981   2.236
62176W        W21712   1.798  28.984   1.857
62177W        W21713  27.150  32.080   3.378
62178W        W21714   2.287  23.156  13.019
62179W        W21715  39.868   1.839  14.941
62180W        W21716  29.995  26.965  10.495
62181W        W21717  14.110  34.072   1.352
62182W        W21718  25.545  11.720  10.016
62183W        W21719  24.724  24.209  13.423
62184W        W21720  28.997  19.607   0.751
62185W        W21721  27.003  27.013   2.799
62186W        W21722  10.206  21.144  12.968
62187W        W21723  25.712  28.635   1.390
62188W        W21724  44.347  18.051  13.000
62189W        W21725   8.710  34.869   0.836
62190W        W21726  41.295   8.654  14.398
62191W        W21727  30.028  25.049   4.228
62192W        W21728  28.139  19.198   9.653
62193W        W21729  34.387  17.689   2.819
62194W        W21730  24.148  40.861  13.798
62195W        W21731  38.052  34.446  12.521
62196W        W21732  16.632  36.984   4.278
62197W        W21733  35.387  27.055  14.303
62198W        W21734  31.447  15.708  13.027
62199W        W21735   0.831  44.479  13.459
62200W        W21736  27.628  15.093  11.038
62201W        W21737  37.345   5.408  12.403
62202W        W21738  26.624  43.489   1.258
62203W        W21739  39.024  19.167  11.389
62204W        W21740  20.598  20.134   4.176
62205W        W21741  15.139   4.257   1.777
62206W        W21742  32.142  36.540  14.339
62207W        W21743  41.348   2.233   4.265
62208W        W21744  39.040  39.911   4.246
62209W        W21745  10.302   7.251   1.385
62210W        W21746  11.127  21.663  11.401
62211W        W21747  33.523  40.001   0.442
62212W        W21748  39.908  24.526   0.835
62213W        W21749  25.676  18.573  11.882
62214W        W21750  35.918   7.749  14.818
62215W        W21751  35.895   5.719  13.840
62216W        W21752  44.787  24.704   4.132
62217W        W21753  32.395  36.879  14.403
62218W        W21754   3.405   6.692  14.764
62219W        W21755  24.527  10.774   1.289
62220W        W21756  35.422  21.020  14.392
62221W        W21757  37.887  42.812   3.221
62222W        W21758   9.881  16.747   0.418
62223W        W21759  38.419   8.280  11.450
62224W        W21760   4.801   9.785  13.533
62225W        W21761  22.176   5.362  13.973
62226W        W21762  38.992  24.055  11.967
62227W        W21763   7.301   1.761   4.261
62228W        W21764  38.453  27.043   2.408
62229W        W21765   5.826  34.447   2.238
62230W        W21766  20.674  35.856   4.774
62231W        W21767   6.890   8.226   0.354
62232W        W21768  37.556   5.809   2.407
62233W        W21769  21.176  34.535  13.515
62234W        W21770  19.682  27.464  12.010
62235W        W21771  22.215  39.408  14.843
62236W        W21772  35.865  10.295   5.321
62237W        W21773   5.712   8.291  11.924
62238W        W21774  28.681  38.848   0.255
62239W        W21775   8.660  40.359   3.364
62240W        W21776  13.729  27.981   5.294
62241W        W21777  10.647  29.486   0.388
62242W        W21778  30.105  37.388   0.877
62243W        W21779  18.083   2.236  14.966
62244W        W21780  24.127  20.179  12.524
62245W        W21781  44.386   6.242  11.414
62246W        W21782  34.403  34.581   3.278
62247W        W21783  36.492  42.021   3.240
62248W        W21784   3.761  36.089  14.481
62249W        W21785  39.402  24.981  14.938
62250W        W21786  27.642  34.603  10.962
62251W        W21787  31.415  33.046   4.809
62252W        W21788  20.031  38.895  12.980
62253W        W21789  36.472  32.506  10.590
62254W        W21790  41.442  41.312   1.331
62255W        W21791  32.416  21.203  12.914
62256W        W21792   8.402   2.268   0.302
62257W        W21793  33.008   7.381   1.275
62258W        W21794   6.277  31.045   1.241
62259W        W21795  25.673  12.840   4.334
62260W        W21796   6.761  26.559   4.701
62261W        W21797  37.502  20.648  13.994
62262W        W21798  11.232  12.300  12.086
62263W        W21799   6.769  34.092   1.820
62264W        W21800  10.199  29.983  11.947
62265W        W21801  44.838  35.385  13.990
62266W        W21802  32.567  28.970  11.892
62267W        W21803  42.454  24.690  10.631
62268W        W21804   4.797   7.876   4.118
62269W        W21805  39.839  16.793   4.728
62270W        W21806  26.123  29.564   0.866
62271W        W21807  24.099   4.358  13.434
62272W        W21808  10.332  11.138  11.392
62273W        W21809  41.306  14.748  13.943
62274W        W21810  44.312  14.811  12.038
62275W        W21811   6.402  43.458  11.390
62276W        W21812  28.593   2.846   1.766
62277W        W21813  27.089   1.278  12.469
62278W        W21814  17.623  15.153  10.944
62279W        W21815  12.303  28.673   0.428
62280W        W21816  37.029  22.136   2.800
62281W        W21817  23.577  34.058  13.369
62282W        W21818  10.760   1.771   1.706
62283W        W21819  41.010  12.845  10.642
62284W        W21820  11.316  37.981   1.846
62285W        W21821   8.793  38.009   0.856
62286W        W21822  33.396  39.528   3.184
62287W        W21823  41.294  10.171  14.461
62288W        W21824  19.771  24.519   4.682
62289W        W21825   6.254  39.947  11.046
62290W        W21826   7.209  26.576  10.078
62291W        W21827  31.902   6.852   1.876
62292W        W21828  38.405  22.546   4.256
62293W        W21829  14.816   1.278   3.208
62294W        W21830  28.981  17.782   3.808
62295W        W21831   9.295  43.930   1.325
62296W        W21832  36.050  30.053   1.415
62297W        W21833  22.634  13.292   1.406
62298W        W21834  12.710   9.269  10.423
62299W        W21835  30.509  11.684  12.433
62300W        W21836  16.274  35.536   3.831
62301W        W21837  25.137  18.560   4.131
62302W        W21838  20.237  11.806   4.203
62303W        W21839  31.603  34.490   1.771
62304W        W21840  35.481  39.417   1.836
62305W        W21841  38.042  23.581  12.904
62306W        W21842  32.402   1.298  13.349
62307W        W21843   7.889   9.729  13.488
62308W        W21844  36.903  37.339  13.964
62309W        W21845   6.831  21.654  13.430
62310W        W21846   5.748  14.628   1.700
62311W        W21847   0.359   2.319   3.174
62312W        W21848   3.908  12.324  11.579
62313W        W21849  37.002   5.243   4.659
62314W        W21850   5.814  44.448  11.389
62315W        W21851  40.850  21.648  11.090
62316W        W21852  36.063  37.485  14.352
62317W        W21853  31.491  18.576   4.769
62318W        W21854  13.836  21.214  12.075
62319W        W21855  40.993  35.397   2.787
62320W        W21856   1.800  40.435  10.583
62321W        W21857  37.505  42.998  13.818
62322W        W21858  37.018  10.200   4.673
62323W        W21859  42.958  20.071  10.939
62324W        W21860  32.076   9.768   2.731
62325W        W21861  10.230  41.361  14.331
62326W        W21862   5.238  21.523  14.001
62327W        W21863  11.643  43.839   3.242
62328W        W21864  23.639   7.886  12.533
62329W        W21865  25.205  15.150   1.229
62330W        W21866  16.218  19.114  12.545
62331W        W21867  44.813  19.596   5.170
62332W        W21868   3.709  23.015  13.033
62333W        W21869   9.316  43.386  11.916
62334W        W21870  25.710  29.159   0.371
62335W        W21871  35.896   0.444   2.811
62336W        W21872   2.866   3.824  11.961
62337W        W21873  34.376  28.023  12.900
62338W        W21874  42.016   3.332   4.284
62339W        W21875  10.759  29.955   2.376
62340W        W21876  12.657  22.590  12.533
62341W        W21877   4.720  31.907   4.238
62342W        W21878   0.833  24.015   0.861
62343W        W21879  37.536   1.372  14.946
62344W        W21880  28.507  24.559  13.981
62345W        W21881  13.719   0.264   4.695
62346W        W21882   8.186  36.530   1.275
62347W        W21883  30.475  39.908   3.317
62348W        W21884  13.773  17.784  13.918
62349W        W21885   1.374  31.507   2.901
62350W        W21886  14.617  17.612  12.575
62351W        W21887  16.284  37.459  10.408
62352W        W21888  17.659  13.316  11.057
62353W        W21889   5.266  37.534   4.308
62354W        W21890  31.967   1.361  11.910
62355W        W21891  24.081   2.401  14.338
62356W        W21892  39.843  42.792   3.150
62357W        W21893   7.830  38.508   4.654
62358W        W21894   8.679  10.357  11.454
62359W        W21895  44.862  36.591   1.918
62360W        W21896  29.001  39.029  12.973
62361W        W21897  26.994  17.112  11.542
62362W        W21898  44.878  34.480  10.552
62363W        W21899  14.598  28.519  13.371
62364W        W21900  37.834  28.558  10.970
62365W        W21901  34.010  33.415   4.623
62366W        W21902  30.139  26.114  12.531
62367W        W21903  11.279  43.325  12.913
62368W        W21904   1.785  42.436   0.736
62369W        W21905  44.335  35.937  10.904
62370W        W21906  37.034  41.916  12.378
62371W        W21907  22.604  10.646  11.957
62372W        W21908   6.697  29.112  11.060
62373W        W21909  38.352  29.101   2.758
62374W        W21910  22.161   9.313  11.426
62375W        W21911  43.274  30.494  11.094
62376W        W21912   0.483  38.856   2.708
62377W        W21913  36.915   6.292  11.447
62378W        W21914  34.490  24.589   3.327
62379W        W21915  15.217  26.080   3.786
62380W        W21916  37.056  21.082   1.891
62381W        W21917  43.399  18.654  14.920
62382W        W21918   8.354   6.261   3.782
62383W        W21919  14.189   5.892  11.020
62384W        W21920  41.452  25.504  11.052
62385W        W21921   5.368  37.841  14.440
62386W        W21922  24.097  26.097   3.284
62387W        W21923  13.156  25.482  12.888
62388W        W21924  19.076  43.982   1.412
62389W        W21925  29.578  22.615   0.346
62390W        W21926   2.785  39.895   3.223
62391W        W21927   3.828  41.923  11.995
62392W        W21928  28.438  22.730  14.773
62393W        W21929  36.444  40.420   4.809
62394W        W21930   0.427  18.747   0.346
62395W        W21931  42.447   1.476   4.731
62396W        W21932   0.455  31.076   1.728
62397W        W21933  10.865  10.324   4.739
62398W        W21934  11.213  15.084   2.408
62399W        W21935  34.077  41.307  10.459
62400W        W21936  14.287  39.058   2.853
62401W        W21937  37.900   2.390   3.243
62402W        W21938   1.322  15.217   2.749
62403W        W21939   6.390   0.989   0.244
62404W        W21940   4.841  16.646  12.373
62405W        W21941  39.560  24.059   0.965
62406W        W21942  24.086  30.024  12.545
62407W        W21943  39.987   6.749   2.870
62408W        W21944   6.860   6.231  12.826
62409W        W21945  41.826   6.358   3.669
62410W        W21946  22.119  40.315  10.921
62411W        W21947  20.644  18.668  14.937
62412W        W21948   1.381   7.674  13.366
62413W        W21949  17.071  27.145  11.553
62414W        W21950  23.209  33.517  14.897
62415W        W21951  24.725   2.720   0.904
62416W        W21952   5.717  32.905   4.242
62417W        W21953  34.879  17.581   4.231
62418W        W21954  43.453  30.917   0.852
62419W        W21955  20.656  35.069   0.928
62420W        W21956   0.915  16.767  12.869
62421W        W21957  24.596  31.497   4.810
62422W        W21958  43.385   3.757  14.025
62423W        W21959  27.179  28.668  14.498
62424W        W21960  40.501  11.757   2.364
62425W        W21961   6.427  14.329   1.384
62426W        W21962   4.268  16.268   4.203
62427W        W21963  18.054  43.021   0.857
62428W        W21964   2.344  40.405  11.005
62429W        W21965  14.775  33.076  11.464
62430W        W21966  31.081  33.444   4.820
62431W        W21967  10.774  20.274   0.795
62432W        W21968   1.393  44.464  12.953
62433W        W21969  32.497  24.687   1.256
62434W        W21970  18.673  15.598  14.482
62435W        W21971  34.062  10.663  10.461
62436W        W21972  13.683  43.796   3.846
62437W        W21973  40.809   2.813  12.362
62438W        W21974   4.707   0.342  11.085
62439W        W21975  18.734   3.334  13.494
62440W        W21976  36.000  23.219  14.922
62441W        W21977  13.306  11.173  10.478
62442W        W21978  12.212  21.207  10.905
62443W        W21979  32.543   9.806   2.349
62444W        W21980  26.105  37.883  13.325
62445W        W21981  37.984  35.418  11.893
62446W        W21982  35.421  40.482   2.847
62447W        W21983  30.506  22.663   0.251
62448W        W21984  19.768  32.064  10.906
62449W        W21985   5.213  22.042   3.178
62450W        W21986   5.768  23.644   4.240
62451W        W21987  29.996  21.606   4.670
62452W        W21988  15.249  29.136  14.311
62453W        W21989  21.513   3.757   3.661
62454W        W21990  29.452  11.718   4.306
62455W        W21991  42.887  29.464   0.371
62456W        W21992   9.390  19.147  11.453
62457W        W21993  17.592  27.991   2.338
62458W        W21994   5.863   4.747  13.025
62459W        W21995  10.278  34.116  14.992
62460W        W21996   5.330  24.720  14.332
62461W        W21997  11.673  42.780   1.760
62462W        W21998  31.033  20.037   4.274
62463W        W21999  43.474  32.985   0.301
62464W        W22000   9.242  15.620   2.814
62465W        W22001  38.906  41.814   1.249
62466W        W22002  11.713  32.530  11.062
62467W        W22003  13.150  11.855  14.899
62468W        W22004  10.851  44.402  14.314
62469W        W22005  14.172  20.250   5.280
62470W        W22006  13.681  11.663  14.955
62471W        W22007   5.197  29.532  13.970
62472W        W22008  29.574   0.421   0.303
62473W        W22009  42.932  33.117   4.658
62474W        W22010   9.833   4.243   4.348
62475W        W22011  36.364  18.188   4.229
62476W        W22012  10.784  24.033  13.972
62477W        W22013  18.616  15.244   1.339
62478W        W22014  40.355   6.252  10.435
62479W        W22015  14.321  28.491   0.359
62480W        W22016  35.542  27.147   4.808
62481W        W22017  13.604  32.044  11.080
62482W        W22018   9.871   5.842  11.083
62483W        W22019  31.999  24.008   4.818
62484W        W22020  42.990  28.155  10.900
62485W        W22021  40.442  17.621   0.809
62486W        W22022  34.591   1.288   1.911
62487W        W22023  15.752  43.866   4.214
62488W        W22024  34.104  20.196   4.233
62489W        W22025  31.476   5.331   1.439
62490W        W22026  35.435  40.964  11.411
62491W        W22027  10.235  24.229  13.824
62492W        W22028   5.340   5.926   0.455
62493W        W22029  25.029   1.883  12.873
62494W        W22030   7.415  26.195   5.176
62495W        W22031  21.089  24.228   4.795
62496W        W22032  11.216  12.837  12.872
62497W        W22033   3.350   1.324  13.458
62498W        W22034   6.823  17.147  14.394
62499W        W22035  42.450  13.732   4.822
62500W        W22036  19.586  40.994  12.086
62501W        W22037  30.136  31.137  12.536
62502W        W22038  20.244  33.507  10.450
62503W        W22039   2.444  40.991  13.439
62504W        W22040  11.268  24.021  14.351
62505W        W22041  37.938  21.608   1.789
62506W        W22042  27.607  23.237   2.404
62507W        W22043  11.205  36.494  11.576
62508W        W22044  18.755  43.802  14.503
62509W        W22045  43.773  29.089   2.803
62510W        W22046  26.690  27.652   4.204
62511W        W22047  39.866   4.805  14.436
62512W        W22048  19.778   1.436  11.443
62513W        W22049  21.113  30.606   2.708
62514W        W22050  42.815  29.513  10.986
62515W        W22051   6.334  44.884   1.884
62516W        W22052  34.582  15.727  11.123
62517W        W22053  23.735  25.015  11.436
62518W        W22054   1.969  24.981  13.535
62519W        W22055   4.398  33.391  14.292
62520W        W22056  14.746   4.826   0.882
62521W        W22057  18.619  26.578   5.133
62522W        W22058  14.214   6.736   2.183
62523W        W22059  37.429  33.521   1.387
62524W        W22060   8.361  13.726   4.255
62525W        W22061   0.482   2.846  10.990
62526W        W22062  44.800   8.881  12.880
62527W        W22063  29.535  21.209   2.886
62528W        W22064  21.030  13.227  12.356
62529W        W22065  23.592  30.491   2.415
62530W        W22066  19.746  33.405  10.435
62531W        W22067   5.921  21.129  13.399
62532W        W22068  10.759  23.030  12.018
62533W        W22069  42.802  32.463   2.406
62534W        W22070   5.917  27.658   1.721
62535W        W22071  14.676  34.539   1.269
62536W        W22072  10.878  37.899  12.057
62537W        W22073  21.670  23.500   3.338
62538W        W22074   6.223   3.357  10.024
62539W        W22075  11.632   4.379   0.786
62540W        W22076   5.364  36.374   1.306
62541W        W22077  22.107  41.370  14.926
62542W        W22078  26.057   3.798  11.022
62543W        W22079  33.083  36.586   2.759
62544W        W22080  31.953  26.496   2.888
62545W        W22081  36.059  41.842   0.951
62546W        W22082  31.089   3.808  14.302
62547W        W22083  12.208  15.597   2.258
62548W        W22084  38.484  17.720   3.663
62549W        W22085   6.284   4.817  12.532
62550W        W22086  17.183  22.045   3.759
62551W        W22087  14.249  17.783  11.920
62552W        W22088  28.166  35.955  11.462
62553W        W22089   3.240   9.668  10.571
62554W        W22090  34.472  23.567   0.753
62555W        W22091  23.561  23.706   3.323
62556W        W22092  36.039  28.502  11.964
62557W        W22093  19.072  36.561   1.788
62558W        W22094   7.770  32.088   1.720
62559W        W22095  43.911  20.200  14.929
62560W        W22096  44.891  40.316   1.227
62561W        W22097  17.112   6.259  10.130
62562W        W22098  16.764   0.397   4.283
62563W        W22099  40.325  12.844  14.953
62564W        W22100  21.580   7.202  11.421
62565W        W22101  27.640  40.533  14.340
62566W        W22102  31.433  36.099   3.243
62567W        W22103  24.554  38.529  14.022
62568W        W22104  16.566  40.933  11.074
62569W        W22105  43.412  14.134   3.804
62570W        W22106  12.345   2.472  11.422
62571W        W22107  44.462  38.898  11.882
62572W        W22108  25.986   2.768  12.543
62573W        W22109  26.496   4.911   1.831
62574W        W22110   4.279   8.847   3.276
62575W        W22111  12.247   9.365  13.317
62576W        W22112  20.083  19.063   4.742
62577W        W22113  20.602  21.038   2.404
62578W        W22114  21.190  17.305   4.664
62579W        W22115  40.448  37.948  14.821
62580W        W22116  10.801  30.426  10.891
62581W        W22117  32.548  37.402  11.467
62582W        W22118  10.150   0.836  11.025
62583W        W22119  39.393   8.170   3.352
62584W        W22120  32.601  44.903   3.257
62585W        W22121  37.861  28.963  12.927
62586W        W22122  15.759  33.490   2.416
62587W        W22123  20.525  34.414   1.224
62588W        W22124  23.033  13.737  11.519
62589W        W22125   7.325  31.908  10.411
62590W        W22126  17.293  15.144   1.727
62591W        W22127  42.893  36.098   1.826
62592W        W22128  21.157  43.309   3.644
62593W        W22129   4.879  41.800   5.101
62594W        W22130  19.039   0.903  10.641
62595W        W22131  24.118  41.517   1.327
62596W        W22132  30.072  23.635   1.337
62597W        W22133  25.962  43.381   1.253
62598W        W22134   8.691  21.598   2.839
62599W        W22135  23.188  33.564   2.260
62600W        W22136   0.868  25.042   0.464
62601W        W22137  32.410   7.892  11.424
62602W        W22138  14.154  28.554   3.661
62603W        W22139  17.123  38.430   1.864
62604W        W22140  33.925  44.902   2.898
62605W        W22141  31.465  33.083   4.308
62606W        W22142  35.960  40.019   2.667
62607W        W22143  14.711  32.527  11.471
62608W        W22144  16.637   8.160  11.457
62609W        W22145  15.809   3.838  11.058
62610W        W22146  17.638  42.379  12.348
62611W        W22147  35.524   5.343   3.744
62612W        W22148   9.751   6.225   0.334
62613W        W22149  19.279  18.263  14.967
62614W        W22150   0.250  14.653   0.481
62615W        W22151   2.806   9.826   4.684
62616W        W22152  38.383  11.312  11.927
62617W        W22153   4.739  21.599  13.863
62618W        W22154  42.830   0.329   0.922
62619W        W22155  14.246  28.985   1.271
62620W        W22156  29.536  10.688  10.506
62621W        W22157  22.014  27.682  11.570
62622W        W22158   7.697  27.537   0.267
62623W        W22159  20.596  13.279  14.828
62624W        W22160  11.799   5.919  11.117
62625W        W22161   3.899  43.447   1.285
62626W        W22162  18.169  18.088   0.307
62627W        W22163  24.203  34.026  12.052
62628W        W22164  22.684  17.147  10.535
62629W        W22165  12.652  38.516   4.258
62630W        W22166  21.578  42.775  11.996
62631W        W22167  15.266  38.932  10.575
62632W        W22168   0.391  20.186   1.907
62633W        W22169  19.705  25.061   4.653
62634W        W22170  40.430  23.025   3.750
62635W        W22171   4.377  26.072   1.884
62636W        W22172   0.293  16.136   0.822
62637W        W22173  16.777  36.960   1.933
62638W        W22174  26.480   5.827   4.322
62639W        W22175  11.739   3.858   1.920
62640W        W22176  30.933  30.459  13.811
62641W        W22177  27.962  12.170  14.361
62642W        W22178   3.742   1.364   2.703
62643W        W22179  44.468   8.404   1.294
62644W        W22180  32.447  30.939  12.018
62645W        W22181  23.230   5.385  13.341
62646W        W22182   5.340  25.201  13.929
62647W        W22183   7.666  41.381   4.772
62648W        W22184   5.739  32.981   3.675
62649W        W22185   3.223   8.370   2.763
62650W        W22186  38.415  32.467   4.124
62651W        W22187  29.040  24.487  12.951
62652W        W22188   5.313  24.117   4.651
62653W        W22189  38.973  38.905  12.880
62654W        W22190   6.879  10.643  11.013
62655W        W22191  38.525  18.196  10.967
62656W        W22192  12.738  25.067  10.612
62657W        W22193   2.749  44.905  13.801
62658W        W22194  18.288  43.969   0.842
62659W        W22195  28.666  33.518   3.698
62660W        W22196  35.080  39.920   1.923
62661W        W22197  32.491  35.436   2.275
62662W        W22198   9.684  23.203  11.082
62663W        W22199   2.381  33.905   1.800
62664W        W22200   0.250  22.148  12.420
62665W        W22201  23.547  22.152   3.832
62666W        W22202  18.250  21.204  11.562
62667W        W22203  34.429   5.285   2.364
62668W        W22204  41.797  15.596   0.288
62669W        W22205  43.869  10.687   0.962
62670W        W22206  38.020   5.803   1.815
62671W        W22207  18.132  12.827  14.378
62672W        W22208  17.149   0.409   0.796
62673W        W22209   0.964   8.337  11.042
62674W        W22210  19.120   1.284   4.205
62675W        W22211  44.296  37.045  12.387
62676W        W22212  27.447  20.194   2.327
62677W        W22213  44.988  25.145  12.914
62678W        W22214  12.298  29.445  10.477
62679W        W22215  29.457  41.425   2.716
62680W        W22216  16.684  31.615   0.289
62681W        W22217  23.121  32.524   2.410
62682W        W22218   2.819  17.567  14.329
62683W        W22219  16.593   8.775   4.255
62684W        W22220   7.834   4.828  12.383
62685W        W22221  35.892  15.086   3.239
62686W        W22222  25.101   9.363   3.227
62687W        W22223  12.159  16.696  10.461
62688W        W22224  24.648  26.109  10.598
62689W        W22225   8.842  22.148   0.327
62690W        W22226  12.715  27.145   3.738
62691W        W22227  14.314   6.815  12.951
62692W        W22228   8.252  19.759   1.312
62693W        W22229  18.577  36.854   0.956
62694W        W22230  27.952  40.828  13.869
62695W        W22231   4.418   5.205   1.448
62696W        W22232  36.563  14.321   1.844
62697W        W22233  44.400  12.282   0.772
62698W        W22234  38.833  39.859   0.782
62699W        W22235  41.795  34.376  13.961
62700W        W22236  10.688  12.701  12.910
62701W        W22237  29.620  26.037  11.391
62702W        W22238  38.485  17.661   0.347
62703W        W22239  30.152  19.552  13.373
62704W        W22240  43.832  18.685   0.834
62705W        W22241  10.204  39.556   4.659
62706W        W22242   9.695  27.599  11.119
62707W        W22243  44.339  37.534   5.217
62708W        W22244  14.588   7.910   4.686
62709W        W22245   0.341  44.889   3.312
62710W        W22246  35.443  39.882   0.956
62711W        W22247  17.666  16.238   2.417
62712W        W22248   3.843  30.501   1.834
62713W        W22249  36.932  25.508   2.888
62714W        W22250  18.145  11.857   4.214
62715W        W22251  28.000   1.774   4.212
62716W        W22252   7.312   6.225   0.400
62717W        W22253  17.171   5.707  13.893
62718W        W22254  28.019  17.179   1.344
62719W        W22255  10.140  39.999  13.332
62720W        W22256   8.855  41.787  12.394
62721W        W22257  12.716   9.366   1.361
62722W        W22258  16.746  15.704   2.200
62723W        W22259  16.599  40.041   2.864
62724W        W22260  18.095  35.007  12.568
62725W        W22261  39.325  43.375   4.815
62726W        W22262   8.319  40.532   3.818
62727W        W22263  24.619  24.089   1.702
62728W        W22264   9.352  21.244   2.766
62729W        W22265  31.930  37.931  14.812
62730W        W22266  21.583  43.018   4.628
62731W        W22267  22.054  10.161  14.000
62732W        W22268  31.426   9.229  10.409
62733W        W22269  13.835  32.077   0.770
62734W        W22270  39.846  31.067  13.538
62735W        W22271  30.432  40.518   0.387
62736W        W22272  23.019  22.213   1.269
62737W        W22273  28.515   2.964   0.394
62738W        W22274  32.618   5.202  10.559
62739W        W22275   1.253  13.248  14.455
62740W        W22276  38.430  22.088  11.976
62741W        W22277  37.908  35.538  10.563
62742W        W22278  21.182  42.828   1.273
62743W        W22279  44.366  42.493  13.807
62744W        W22280  20.041   1.848   1.344
62745W        W22281  36.036  39.382  10.428
62746W        W22282  40.968  36.510   2.345
62747W        W22283   7.335  27.130   2.823
62748W        W22284  15.201  42.413   3.181
62749W        W22285   6.205  26.593   9.638
62750W        W22286  41.840  30.966   3.787
62751W        W22287  36.866   4.318  11.114
62752W        W22288  44.920  10.878  10.599
62753W        W22289  35.408   7.802   2.258
62754W        W22290   2.262  44.268  10.991
62755W        W22291   3.296   9.734   2.881
62756W        W22292   7.293  20.200   3.189
62757W        W22293  10.247  22.166   1.888
62758W        W22294  28.490   4.242  10.488
62759W        W22295  13.225  12.743  14.782
62760W        W22296   2.802  11.853  14.800
62761W        W22297  39.973  42.886   3.665
62762W        W22298  31.026  42.790  14.300
62763W        W22299  20.679  31.620  14.890
62764W        W22300  24.101  42.482  14.351
62765W        W22301  25.549  24.976   3.811
62766W        W22302  37.516  34.493  13.379
62767W        W22303  16.266  34.891   4.199
62768W        W22304   1.841  29.954  11.441
62769W        W22305  41.533  21.136  14.784
62770W        W22306  41.296   8.769   1.815
62771W        W22307  34.588  10.286  11.874
62772W        W22308  11.369   2.863  13.023
62773W        W22309  33.625  43.821   2.415
62774W        W22310  29.919  20.262  13.483
62775W        W22311  31.596   6.338   4.127
62776W        W22312  27.944  11.339   4.813
62777W        W22313  27.471   4.434   4.239
62778W        W22314  37.528  36.548   4.686
62779W        W22315   7.337  44.379  11.911
62780W        W22316  44.903  36.363  13.980
62781W        W22317  44.457   2.445  11.448
62782W        W22318  22.241  14.292   4.185
62783W        W22319   6.324  28.435   0.474
62784W        W22320  20.218  19.702   2.188
62785W        W22321  36.951  41.918  11.582
62786W        W22322  22.597  40.844  14.990
62787W        W22323   4.707  23.663  13.359
62788W        W22324  27.000  28.126   3.219
62789W        W22325  36.467   6.266   2.369
62790W        W22326  29.058  27.163   2.693
62791W        W22327  41.880   1.457  11.015
62792W        W22328  44.484  18.277  14.767
62793W        W22329  38.359  36.855   2.290
62794W        W22330  23.057   4.419   4.722
62795W        W22331  32.912  13.312  12.421
62796W        W22332  27.692  39.430  11.104
62797W        W22333   5.772  26.683  14.839
62798W        W22334  37.944  42.451   2.374
62799W        W22335  18.124   3.832   4.314
62800W        W22336  17.688   9.213  11.912
62801W        W22337  18.266  35.966   2.714
62802W        W22338  30.941  12.243   2.350
62803W        W22339  24.535  28.449  10.529
62804W        W22340   1.458  43.835  13.438
62805W        W22341   0.406  22.660   1.328
62806W        W22342  24.551  22.100   0.737
62807W        W22343  43.306  14.742   4.323
62808W        W22344  42.434   2.962  12.516
62809W        W22345   6.775  36.890  14.790
62810W        W22346  24.007   4.702  14.809
62811W        W22347  21.097  39.531   0.305
62812W        W22348  27.611  32.446  10.436
62813W        W22349  10.373  12.193  10.533
62814W        W22350  28.628   0.778   2.373
62815W        W22351   5.271  39.426  10.619
62816W        W22352  24.679   9.688  12.995
62817W        W22353  44.406   5.294  14.004
62818W        W22354  30.614  26.490  11.048
62819W        W22355  30.924  23.156   1.350
62820W        W22356  29.651  25.014   4.265
62821W        W22357   3.937  33.411   3.681
62822W        W22358  42.495  37.435   3.290
62823W        W22359   0.960  42.879  13.863
62824W        W22360  17.063  26.091  14.903
62825W        W22361  11.318  35.066   3.826
62826W        W22362  11.202  20.679  13.905
62827W        W22363  30.447  38.951  11.063
62828W        W22364  34.508  23.053   0.895
62829W        W22365  42.497  22.108   0.761
62830W        W22366  12.857  21.519   3.362
62831W        W22367  10.671  19.551   2.248
62832W        W22368  12.118   5.204  12.425
62833W        W22369   4.773   5.299  10.497
62834W        W22370  31.944  21.626  13.331
62835W        W22371  41.536  25.969   2.403
62836W        W22372  35.882  37.987   2.388
62837W        W22373  15.178   0.445   3.265
62838W        W22374   5.891  31.584  13.811
62839W        W22375  26.138   0.333   2.829
62840W        W22376  12.646   1.891   3.264
62841W        W22377   4.213  23.568  13.519
62842W        W22378  12.156  12.852  14.945
62843W        W22379  43.456  40.901  11.436
62844W        W22380  38.941  35.080  14.021
62845W        W22381  17.291  22.666   3.223
62846W        W22382  10.739  30.028   5.702
62847W        W22383  38.851  43.328   4.323
62848W        W22384  17.604  12.274   1.277
62849W        W22385  21.239   7.282   0.374
62850W        W22386   3.392  42.897  12.069
62851W        W22387  39.850  16.281   0.882
62852W        W22388  44.433   8.218   0.432
62853W        W22389  16.122  28.646   1.775
62854W        W22390  22.088  32.903  11.076
62855W        W22391  19.693   5.874  12.387
62856W        W22392  12.729   7.817  13.492
62857W        W22393   3.263  22.130   3.752
62858W        W22394   8.392  23.086  13.494
62859W        W22395  35.358  28.498   1.355
62860W        W22396  15.311  20.204   0.844
62861W        W22397  40.531   9.206   4.678
62862W        W22398  44.378  18.693   0.369
62863W        W22399   3.722  24.056  13.414
62864W        W22400  10.768  28.504   2.701
62865W        W22401  32.021  28.649  11.940
62866W        W22402  23.155   4.239  11.515
62867W        W22403  17.691  24.496  13.977
62868W        W22404   2.867  10.311   3.307
62869W        W22405  19.587  24.503   2.761
62870W        W22406  36.995  44.760  13.874
62871W        W22407  11.648  15.086   4.817
62872W        W22408  17.157  23.551   2.823
62873W        W22409  18.756  37.473   1.933
62874W        W22410  33.022  36.881   0.821
62875W        W22411  27.030  41.496  11.455
62876W        W22412  22.012   5.816   1.221
62877W        W22413  24.557  31.642   3.801
62878W        W22414  19.717  34.563  12.432
62879W        W22415  26.082  27.000  11.915
62880W        W22416  32.948   8.827   3.786
62881W        W22417  37.069  14.637  11.955
62882W        W22418  25.038  22.210   3.846
62883W        W22419  44.294   4.345  12.543
62884W        W22420  29.097  32.902   2.706
62885W        W22421  20.584  13.230  12.048
62886W        W22422  29.139  33.108   3.380
62887W        W22423  15.707  26.498  14.470
62888W        W22424   5.294  17.080   4.802
62889W        W22425  34.953  25.137   4.729
62890W        W22426  18.209  29.445   3.736
62891W        W22427  18.230  34.482   4.308
62892W        W22428  19.623  24.604  11.875
62893W        W22429  26.046  17.195  10.986
62894W        W22430  43.357  24.682   2.799
62895W        W22431  12.758   4.351  11.972
62896W        W22432  13.109   7.765   0.440
62897W        W22433  39.836  22.625  12.402
62898W        W22434  39.937  13.112   2.787
62899W        W22435  10.330  23.699   3.224
62900W        W22436  17.766  32.623  13.503
62901W        W22437   4.441   9.195  14.503
62902W        W22438  38.528  35.927  13.844
62903W        W22439  31.016  12.214   3.246
62904W        W22440  20.577   6.209   0.278
62905W        W22441  10.633  43.965  11.570
62906W        W22442  13.325  33.559  12.522
62907W        W22443  27.060  28.169  12.987
62908W        W22444  10.373  43.812   4.686
62909W        W22445  37.509  40.315  11.032
62910W        W22446  26.188  40.534   3.715
62911W        W22447  15.662  43.479  13.826
62912W        W22448  29.599  31.527   3.674
62913W        W22449  12.218   7.796   2.752
62914W        W22450   0.867  24.015   2.827
62915W        W22451  43.339  33.034   0.803
62916W        W22452  18.765  14.238  14.337
62917W        W22453  12.840   4.880  12.025
62918W        W22454  13.213  24.482  11.023
62919W        W22455  43.806  17.076   1.850
62920W        W22456  13.310   0.437   3.855
62921W        W22457  27.556  30.942   2.800
62922W        W22458  23.222   3.880   1.809
62923W        W22459  14.726  14.134  10.911
62924W        W22460  25.629  34.548  14.507
62925W        W22461  19.707  21.100   4.763
62926W        W22462   1.880  30.955   1.271
62927W        W22463   4.749   1.755  13.943
62928W        W22464  31.446   2.757   4.154
62929W        W22465  41.821   7.882  12.378
62930W        W22466  24.503   9.186   3.843
62931W        W22467  18.271  28.514   2.402
62932W        W22468  36.086  32.467  13.416
62933W        W22469   7.254  12.360  14.841
62934W        W22470  36.064  12.630  12.415
62935W        W22471  14.102  35.485  11.444
62936W        W22472  24.023  33.068   3.811
62937W        W22473  15.300   3.772   1.696
62938W        W22474   3.236  34.407   1.797
62939W        W22475   2.448  43.437   2.699
62940W        W22476   8.378  18.271   0.285
62941W        W22477   7.886   5.217  13.013
62942W        W22478  19.739   0.334   2.222
62943W        W22479  38.361  25.043  13.034
62944W        W22480  30.080  27.596   4.675
62945W        W22481  27.573   8.822   1.229
62946W        W22482  24.505  24.508   4.663
62947W        W22483  17.567  31.450   1.731
62948W        W22484   7.346  43.301   2.713
62949W        W22485  41.881  19.631  14.978
62950W        W22486  25.987   8.219   0.741
62951W        W22487  27.971  27.040  10.985
62952W        W22488  29.499  10.287   4.629
62953W        W22489   5.823   2.870  14.399
62954W        W22490   5.277  26.605   3.745
62955W        W22491   8.670   1.442   0.372
62956W        W22492   3.718   8.305   1.863
62957W        W22493  32.105  14.823   4.740
62958W        W22494  24.564  31.517  10.901
62959W        W22495  12.725   8.218   2.322
62960W        W22496  22.685  42.375  10.008
62961W        W22497  34.488  16.316  13.352
62962W        W22498  21.623   5.884   4.214
62963W        W22499  43.818   8.313   2.408
62964W        W22500   7.367   4.841   4.838
62965W        W22501  24.180   2.943   0.890
62966W        W22502  34.088  26.047   3.836
62967W        W22503   5.359  23.726   4.767
62968W        W22504  23.029   5.698  13.853
62969W        W22505  29.525   3.734  11.585
62970W        W22506  19.636  26.065   3.833
62971W        W22507  36.894   3.416   4.346
62972W        W22508  23.673  22.205   2.785
62973W        W22509  31.046  41.529  13.382
62974W        W22510  16.579  14.224  13.909
62975W        W22511  40.488  39.005   3.853
62976W        W22512  34.432  22.149  13.385
62977W        W22513  13.713  17.684   3.677
62978W        W22514   5.833  15.319   2.236
62979W        W22515  40.031  41.815  12.010
62980W        W22516  20.528   0.488  12.576
62981W        W22517  38.995  21.151   1.384
62982W        W22518   3.856  17.602  13.954
62983W        W22519  28.100  16.573   3.798
62984W        W22520  44.386  34.398  10.138
62985W        W22521  21.085  27.043   3.867
62986W        W22522  33.529   1.756   3.248
62987W        W22523   9.392  38.568  11.871
62988W        W22524  44.480  19.091   4.755
62989W        W22525  32.583  13.819   2.861
62990W        W22526   5.798  33.020   2.662
62991W        W22527  29.483  35.051   3.312
62992W        W22528   9.346  19.603   3.233
62993W        W22529  39.897  20.527  11.078
62994W        W22530  38.904  19.211  10.549
62995W        W22531  33.591  41.006   0.824
62996W        W22532   5.251  26.546   3.353
62997W        W22533  27.082  18.751   3.697
62998W        W22534  28.180  11.726  10.901
62999W        W22535  12.777  13.203   2.866
63000W        W22536  32.052  21.708  12.855
63001W        W22537  19.572   3.270   2.314
63002W        W22538  11.716  18.555  10.558
63003W        W22539  24.048  40.861   4.206
63004W        W22540  33.385  22.701   0.426
63005W        W22541  18.063  10.154   4.122
63006W        W22542  14.241  28.081  11.092
63007W        W22543   4.750  23.017   5.231
63008W        W22544  30.037  41.351  13.971
63009W        W22545  20.570  41.936   0.967
63010W        W22546  10.862   0.311   1.737
63011W        W22547  16.216  26.084  13.052
63012W        W22548  33.479  12.263   0.917
63013W        W22549  35.596  15.634   3.854
63014W        W22550  14.815  42.914  14.274
63015W        W22551  27.039  44.857   3.221
63016W        W22552  43.874  31.577  10.532
63017W        W22553   8.208  31.088   3.792
63018W        W22554  21.576  30.433   5.225
63019W        W22555  43.853  26.607   0.844
63020W        W22556  24.026   9.163  13.973
63021W        W22557  34.039  31.024  11.537
63022W        W22558  32.012  31.991   1.406
63023W        W22559  24.658  32.534  13.403
63024W        W22560  17.211  10.305   0.739
63025W        W22561  32.121  24.698  14.940
63026W        W22562  15.089  16.155   3.849
63027W        W22563  13.153   4.868   0.910
63028W        W22564  15.162  30.512   0.730
63029W        W22565  40.323  26.675  13.370
63030W        W22566  17.190  40.854   1.399
63031W        W22567  26.148  15.813  10.516
63032W        W22568  21.058  32.601   4.333
63033W        W22569  32.491   5.425   1.808
63034W        W22570   6.702   3.299  12.368
63035W        W22571  16.311   3.387  11.571
63036W        W22572   7.871   7.696   1.805
63037W        W22573  38.827   3.735   0.908
63038W        W22574  16.811  33.432  14.801
63039W        W22575  17.271  33.559   1.717
63040W        W22576  28.618  23.697  11.434
63041W        W22577  42.785   5.726  11.120
63042W        W22578  31.101  28.175  13.333
63043W        W22579   6.826  29.667   4.183
63044W        W22580  42.966   4.862  14.005
63045W        W22581  32.107  17.081   1.922
63046W        W22582  14.148  31.595  10.602
63047W        W22583   8.400  12.697   4.690
63048W        W22584  34.934  23.555  12.552
63049W        W22585   4.255  10.215  11.893
63050W        W22586  31.934  15.213   3.846
63051W        W22587   9.385  20.224   1.696
63052W        W22588  42.488  40.907  11.606
63053W        W22589  33.575  32.080   4.280
63054W        W22590  40.351  39.373   2.730
63055W        W22591  36.520  12.803  11.128
63056W        W22592  16.730  32.929   3.649
63057W        W22593  41.352   0.801   0.273
63058W        W22594  20.580  34.962  10.956
63059W        W22595   8.666  38.004  10.538
63060W        W22596  36.092  20.676   0.324
63061W        W22597  42.443  35.965  13.011
63062W        W22598  41.036  26.050   2.355
63063W        W22599   3.873  19.155  14.512
63064W        W22600  44.398  43.364   4.790
63065W        W22601  39.408  11.361  11.937
63066W        W22602   9.179   5.783  14.399
63067W        W22603  22.704  41.946  12.051
63068W        W22604  40.335  38.900  13.342
63069W        W22605  32.921  16.180   4.262
63070W        W22606  33.387  16.775   0.301
63071W        W22607   9.208  43.827   1.898
63072W        W22608  20.144  39.022  11.116
63073W        W22609  31.910  14.825   1.923
63074W        W22610  11.643  40.895  14.809
63075W        W22611  28.636  41.839   1.758
63076W        W22612  28.568  39.053   4.348
63077W        W22613  16.145  28.010  14.822
63078W        W22614  10.778  14.208   4.269
63079W        W22615  10.378   9.345  13.971
63080W        W22616  44.402  34.057  13.912
63081W        W22617  20.268  39.433  14.807
63082W        W22618  42.961  33.002  11.530
63083W        W22619   8.877  17.605  11.028
63084W        W22620  29.649  23.698  11.060
63085W        W22621  13.724  24.995   3.376
63086W        W22622  12.241  42.906  12.015
63087W        W22623  11.340  29.634  11.932
63088W        W22624   3.401  24.594   3.787
63089W        W22625  24.642  37.928  10.584
63090W        W22626  20.257  16.626   1.337
63091W        W22627   5.212  29.053   0.895
63092W        W22628  44.906  19.257  13.405
63093W        W22629  35.865   9.828   0.840
63094W        W22630  12.725  30.438  11.382
63095W        W22631  11.697  12.277   2.895
63096W        W22632  11.354  14.713  10.591
63097W        W22633  10.339  13.209  14.378
63098W        W22634  36.014  27.543  14.933
63099W        W22635  14.705  14.338   1.412
63100W        W22636  15.789  36.489  11.912
63101W        W22637  15.316  16.306   1.918
63102W        W22638   9.709  41.497   2.203
63103W        W22639  20.534  14.237   1.327
63104W        W22640  40.048  25.542  14.930
63105W        W22641  28.594  13.779  14.816
63106W        W22642  39.888  34.884  14.852
63107W        W22643   6.715   1.474   4.344
63108W        W22644   7.265  40.323  10.553
63109W        W22645  21.602  15.287   4.283
63110W        W22646  25.693  39.881  14.942
63111W        W22647  27.113  29.031   4.713
63112W        W22648  24.545  39.349   2.337
63113W        W22649  31.505  25.006   2.371
63114W        W22650  32.916  16.746   1.430
63115W        W22651   9.282  24.593  11.582
63116W        W22652   3.921  41.028   2.715
63117W        W22653   7.743  39.448   1.356
63118W        W22654  44.337  34.481  14.763
63119W        W22655  22.030  22.073   1.847
63120W        W22656  27.947   5.279  11.976
63121W        W22657  21.176  17.260  14.405
63122W        W22658  36.442  35.043  13.049
63123W        W22659  26.482  12.740   2.811
63124W        W22660  34.923  23.990   0.291
63125W        W22661  26.661   4.738  12.370
63126W        W22662  18.717  38.839   4.163
63127W        W22663  20.200   5.203   4.311
63128W        W22664  10.283  10.677   4.662
63129W        W22665   1.470   0.306   3.347
63130W        W22666  12.737  36.997  10.557
63131W        W22667  43.805  40.953  11.502
63132W        W22668   6.854  44.932  14.888
63133W        W22669  29.174  42.318   0.937
63134W        W22670  39.007  35.871  14.310
63135W        W22671   0.884  23.194  13.967
63136W        W22672  20.604  35.076  11.990
63137W        W22673  43.442  22.589  13.487
63138W        W22674  14.702  14.169   9.922
63139W        W22675   7.862  16.707  10.900
63140W        W22676  27.132  37.851   0.774
63141W        W22677  18.131  21.714   1.326
63142W        W22678  41.377  35.602  13.944
63143W        W22679  39.532   0.872   4.606
63144W        W22680   4.415  25.614  13.956
63145W        W22681   6.214  18.130   4.259
63146W        W22682  41.015   4.844  13.378
63147W        W22683  14.652  12.711   0.445
63148W        W22684  10.332  38.552   4.676
63149W        W22685  27.956  15.263  13.309
63150W        W22686  21.247  20.251  13.930
63151W        W22687   8.267   6.292  13.439
63152W        W22688  41.987  28.969   2.360
63153W        W22689   2.966  33.514  14.373
63154W        W22690  13.832  12.856   2.776
63155W        W22691   1.906  16.808   4.608
63156W        W22692   4.203  22.660   1.836
63157W        W22693  15.735  20.107  13.367
63158W        W22694  33.994  29.653  11.080
63159W        W22695  30.948  41.364  14.329
63160W        W22696  10.754  29.121  11.447
63161W        W22697  15.300   1.336   0.482
63162W        W22698  22.125  22.190   2.719
63163W        W22699  37.006  18.187   1.848
63164W        W22700  24.189   4.871   3.384
63165W        W22701  34.053  24.572  12.887
63166W        W22702   1.905  23.047  14.355
63167W        W22703   4.832  20.110  14.841
63168W        W22704  34.064  42.458  10.480
63169W        W22705  16.293  18.254  14.430
63170W        W22706   0.478  20.762   2.760
63171W        W22707  28.977  23.703   4.782
63172W        W22708  13.626  30.050   4.158
63173W        W22709   7.308  32.426   0.469
63174W        W22710   3.257  17.117   2.235
63175W        W22711  37.427  37.969  14.319
63176W        W22712  27.976  17.252   0.967
63177W        W22713  13.785  14.728  13.511
63178W        W22714  23.048  28.525  11.535
63179W        W22715  21.050  14.104   0.864
63180W        W22716  26.141   9.302  10.936
63181W        W22717  19.204  17.744  11.916
63182W        W22718   2.761  29.485   0.315
63183W        W22719  43.392  26.190   1.402
63184W        W22720  10.302  29.590   5.305
63185W        W22721  21.227  30.043  11.980
63186W        W22722  32.036   6.311  14.841
63187W        W22723  30.091  17.577   0.450
63188W        W22724  33.466  38.888  11.495
63189W        W22725   5.903   7.884  13.361
63190W        W22726   5.807  19.601   3.343
63191W        W22727  25.119  11.227  10.929
63192W        W22728  32.103  20.651   2.387
63193W        W22729  36.967  33.117   3.385
63194W        W22730  25.159   7.788   2.311
63195W        W22731  35.502  19.740  12.041
63196W        W22732  41.875  12.316  12.898
63197W        W22733  42.418  32.499   3.635
63198W        W22734  25.576   7.214  13.958
63199W        W22735  10.691  32.105   1.378
63200W        W22736  40.873  21.105   4.178
63201W        W22737  25.477   3.260  13.457
63202W        W22738  26.550  25.021   0.810
63203W        W22739  36.902  42.327  13.986
63204W        W22740  26.054  22.593  12.381
63205W        W22741  32.583  34.117   4.346
63206W        W22742  19.672   0.270   3.376
63207W        W22743  22.623  41.395   1.316
63208W        W22744  23.608  11.194   4.630
63209W        W22745  19.257   0.284  12.339
63210W        W22746  21.658   0.429   3.152
63211W        W22747  17.269  37.521   5.210
63212W        W22748  10.178   6.281  14.845
63213W        W22749  10.336   8.756  13.327
63214W        W22750  40.336  17.748  13.948
63215W        W22751  22.120  30.467  11.533
63216W        W22752  33.039  19.560  14.010
63217W        W22753  14.223  10.361   1.798
63218W        W22754   9.375  23.088  13.453
63219W        W22755  42.029   0.809   0.416
63220W        W22756  34.933  10.365  14.950
63221W        W22757  30.136   1.894  10.579
63222W        W22758  38.340  15.163   3.845
63223W        W22759  12.123  27.552  10.462
63224W        W22760  33.071   9.211   0.742
63225W        W22761  11.307   9.777   2.811
63226W        W22762  38.847  16.783   2.347
63227W        W22763  20.695  30.431   3.752
63228W        W22764  43.011  33.528   1.246
63229W        W22765   7.905  34.456  13.841
63230W        W22766  12.134   0.345   1.428
63231W        W22767  42.810  15.706  13.314
63232W        W22768  43.502  10.742   5.712
63233W        W22769   6.866  34.894   4.213
63234W        W22770  27.190  19.162  14.370
63235W        W22771  13.813  43.498   1.709
63236W        W22772  42.334  37.034   4.815
63237W        W22773  39.490   9.775   4.142
63238W        W22774   3.728   6.311   0.836
63239W        W22775  33.624  31.026  13.814
63240W        W22776  31.459   8.167   2.330
63241W        W22777  22.586  15.753   2.259
63242W        W22778  40.915  35.405   4.795
63243W        W22779  25.528  33.019   3.862
63244W        W22780  28.004   8.722  13.970
63245W        W22781  30.119  25.579   0.859
63246W        W22782  23.115   0.306   3.305
63247W        W22783  33.960  40.982  11.374
63248W        W22784  19.610  28.074  11.453
63249W        W22785  33.895  24.179  13.822
63250W        W22786  23.137  29.556  10.496
63251W        W22787   2.254  38.924   5.133
63252W        W22788  20.617  39.903  12.004
63253W        W22789   7.711  44.262  12.950
63254W        W22790  36.907   8.286  14.324
63255W        W22791   0.978  44.470   4.246
63256W        W22792   4.848  42.929  13.458
63257W        W22793  22.553  38.342   3.301
63258W        W22794  21.542   7.366   3.630
63259W        W22795  15.780  15.779   1.281
63260W        W22796  43.874  18.269   0.880
63261W        W22797  11.199  23.549   2.699
63262W        W22798  40.034  14.225  11.077
63263W        W22799  10.244   8.698   3.659
63264W        W22800  20.198   2.281  10.959
63265W        W22801  36.893  16.622   2.234
63266W        W22802  28.578  13.287   1.213
63267W        W22803   1.975   8.884   0.756
63268W        W22804  34.080  22.214  13.941
63269W        W22805  27.991   4.333   0.298
63270W        W22806  12.806  21.090  10.556
63271W        W22807   2.831  28.599   3.855
63272W        W22808  40.522  10.261   1.792
63273W        W22809  25.590  19.585  13.843
63274W        W22810  13.695   1.428   4.174
63275W        W22811   5.228  41.504   1.722
63276W        W22812   6.806  35.433  10.421
63277W        W22813   9.345  39.949   4.239
63278W        W22814  42.332  44.384  11.433
63279W        W22815  35.980   0.815   3.156
63280W        W22816  37.040  18.081   4.695
63281W        W22817   8.839  17.176  13.380
63282W        W22818  12.149  22.511   2.400
63283W        W22819  43.950  26.138  12.841
63284W        W22820  32.440   0.375   1.323
63285W        W22821  36.949   3.351  10.002
63286W        W22822  34.865  30.488  12.521
63287W        W22823  13.759   6.830   5.129
63288W        W22824  35.562  23.530  14.903
63289W        W22825  20.261  32.028  12.527
63290W        W22826  22.034  12.780   4.662
63291W        W22827  29.473   7.188  13.024
63292W        W22828  30.114  16.297  14.279
63293W        W22829  26.657   3.752   3.187
63294W        W22830   2.293   0.290   3.745
63295W        W22831  31.434  35.970  11.474
63296W        W22832  28.459  11.779   1.308
63297W        W22833  17.224   6.391  14.481
63298W        W22834   8.377   7.774  11.537
63299W        W22835   1.445  11.283  12.946
63300W        W22836  38.013  30.119   4.137
63301W        W22837  11.693  20.584   4.175
63302W        W22838  16.159  41.377   0.905
63303W        W22839  39.847   5.715  14.908
63304W        W22840  28.956  40.364   3.364
63305W        W22841  37.913  16.084  13.972
63306W        W22842  30.630   9.743   2.266
63307W        W22843  35.965  11.824   4.138
63308W        W22844  33.477  10.719   0.897
63309W        W22845  31.449  40.506   2.688
63310W        W22846  29.024   8.333  13.998
63311W        W22847  32.435  11.846  14.893
63312W        W22848  12.635   8.686  14.381
63313W        W22849   1.480  35.420  11.505
63314W        W22850   0.390  34.462  14.494
63315W        W22851  29.469  34.466   2.827
63316W        W22852   9.163  40.024   1.424
63317W        W22853  12.807   1.796  13.353
63318W        W22854  17.781  19.186   2.814
63319W        W22855  21.533  33.576   4.724
63320W        W22856  19.061   0.477   3.331
63321W        W22857  19.753  13.275   2.720
63322W        W22858   8.847  43.307  12.865
63323W        W22859  41.485  14.240   3.678
63324W        W22860  18.262  44.423  14.513
63325W        W22861   9.294  36.450  12.995
63326W        W22862  35.003  24.596  11.403
63327W        W22863  12.244   1.290   1.745
63328W        W22864  21.555  35.929   0.905
63329W        W22865   2.322   7.192   5.242
63330W        W22866   1.755   9.873   3.696
63331W        W22867   6.198  16.798   4.330
63332W        W22868  12.662  12.124   2.837
63333W        W22869  18.153   3.357  12.473
63334W        W22870   8.832  20.635  10.976
63335W        W22871  13.615  41.908  11.039
63336W        W22872  18.293  14.231   1.922
63337W        W22873  29.525  10.787   0.258
63338W        W22874  16.716  27.015   4.168
63339W        W22875  33.017  20.101  13.900
63340W        W22876  31.405  13.128   3.253
63341W        W22877  37.908  15.224  12.467
63342W        W22878  34.897  23.131   4.218
63343W        W22879   7.899   5.839   0.328
63344W        W22880   3.313   0.437  14.915
63345W        W22881   9.297  38.347   4.263
63346W        W22882   9.662   2.463  11.556
63347W        W22883  12.155   8.733  14.303
63348W        W22884   6.342  11.269  13.937
63349W        W22885  17.715  18.685  14.494
63350W        W22886   9.171  24.203  13.914
63351W        W22887   6.371  41.369   1.746
63352W        W22888  31.068  16.721  10.920
63353W        W22889  42.930  35.443   0.362
63354W        W22890  16.663  39.844   4.185
63355W        W22891  44.918  39.442  11.440
63356W        W22892   1.240  39.327   1.225
63357W        W22893  38.882   5.268   2.193
63358W        W22894  23.125  36.962  13.997
63359W        W22895  44.404   6.895  10.559
63360W        W22896  21.737  26.085   2.232
63361W        W22897   1.404  25.714  14.914
63362W        W22898  35.951  20.151  10.595
63363W        W22899  21.561  28.577  11.606
63364W        W22900  44.865  20.229   2.416
63365W        W22901  10.651  22.059  13.512
63366W        W22902  32.966  21.153   1.341
63367W        W22903  10.214   9.338   4.168
63368W        W22904   7.247  40.458   3.365
63369W        W22905  31.433  39.876   4.721
63370W        W22906  26.524   8.788  10.996
63371W        W22907  24.112  11.726  10.005
63372W        W22908  37.341  18.698  12.912
63373W        W22909  38.053  25.161   4.344
63374W        W22910  20.726  23.693   3.656
63375W        W22911  40.365  18.217   0.466
63376W        W22912  40.538  12.229  10.418
63377W        W22913  26.605  39.819   1.289
63378W        W22914  22.605  31.924   1.333
63379W        W22915   5.740  43.870   4.177
63380W        W22916  35.963  19.650   0.904
63381W        W22917  17.077   3.376   1.735
63382W        W22918  26.487  22.635   4.670
63383W        W22919  28.077  30.463  11.610
63384W        W22920  39.544  20.729   2.193
63385W        W22921  43.981  30.959   3.217
63386W        W22922  23.148   4.274  10.418
63387W        W22923  25.965  13.118  14.810
63388W        W22924   9.883  30.527  10.630
63389W        W22925   1.825  39.850   3.331
63390W        W22926  30.131   8.270  14.972
63391W        W22927  27.453   8.386  14.372
63392W        W22928   5.394  24.076   0.776
63393W        W22929   1.339  22.162   4.343
63394W        W22930  37.504   8.755   1.266
63395W        W22931   7.316  33.402   1.860
63396W        W22932  36.585   9.156   3.805
63397W        W22933   4.806  37.883   3.320
63398W        W22934  32.494   0.786  12.922
63399W        W22935  25.104  31.083  13.477
63400W        W22936  24.121  31.608  11.373
63401W        W22937  13.784  28.488   4.305
63402W        W22938   0.939  30.513   2.871
63403W        W22939   8.668  35.487  12.847
63404W        W22940  10.238  33.618   4.778
63405W        W22941  16.283  13.766  12.993
63406W        W22942  30.424  36.448  11.455
63407W        W22943  30.658  14.297   4.161
63408W        W22944  24.996  23.589  10.474
63409W        W22945  41.805  34.932   2.817
63410W        W22946  13.201  42.880  12.518
63411W        W22947   2.384  16.209   3.178
63412W        W22948   5.334   5.861   4.660
63413W        W22949  34.078  23.221  12.850
63414W        W22950   6.919  13.631  11.998
63415W        W22951  13.624  19.776   0.455
63416W        W22952   4.725   0.833  13.432
63417W        W22953  22.714  16.179  11.068
63418W        W22954  32.064   2.274  14.317
63419W        W22955  11.851   9.214   0.459
63420W        W22956  38.502  31.552  12.002
63421W        W22957  24.227  21.684  14.933
63422W        W22958   5.265  43.800   2.325
63423W        W22959   2.443  27.094   2.856
63424W        W22960  12.671  33.609   4.115
63425W        W22961  43.786  44.858  14.959
63426W        W22962  24.495   7.375  12.463
63427W        W22963  17.124  11.722   4.802
63428W        W22964  30.538  10.269  14.995
63429W        W22965  10.188  34.606   0.374
63430W        W22966  43.914  38.001  11.039
63431W        W22967  32.564  19.740   4.168
63432W        W22968  44.326  30.932  14.006
63433W        W22969  39.053  25.038   5.311
63434W        W22970   9.739  27.998  14.917
63435W        W22971  32.960  16.182  11.920
63436W        W22972  24.613  15.665   2.218
63437W        W22973   5.874   3.807  14.280
63438W        W22974  36.020   1.284  14.970
63439W        W22975   8.728  41.964  14.880
63440W        W22976  35.876  14.667   1.805
63441W        W22977   2.417  16.583  11.034
63442W        W22978  33.919  37.499  14.896
63443W        W22979   8.229  16.296   2.786
63444W        W22980  44.462  40.458  14.327
63445W        W22981  38.373  37.904   4.289
63446W        W22982  11.159  19.763  10.486
63447W        W22983  20.261  39.906  10.449
63448W        W22984  41.532   7.216   4.266
63449W        W22985  13.812  24.586   3.705
63450W        W22986  18.174  42.332   1.342
63451W        W22987  23.599  34.524  14.782
63452W        W22988  41.509  23.623  13.839
63453W        W22989  32.105  27.662   1.301
63454W        W22990  39.991  29.480   0.454
63455W        W22991   7.789   8.371   1.282
63456W        W22992   7.201  29.545  11.892
63457W        W22993  42.992  15.163   1.386
63458W        W22994  38.554   6.317  12.371
63459W        W22995   7.899  28.558  13.362
63460W        W22996  17.068  25.998   2.831
63461W        W22997  25.984  33.878   3.146
63462W        W22998  20.084   9.840   0.340
63463W        W22999  12.679  24.071   0.789
63464W        W23000  34.078  21.572   1.706
63465W        W23001  10.836   1.825  13.039
63466W        W23002  23.618   0.435   2.662
63467W        W23003  28.498  41.951  10.921
63468W        W23004  28.048   1.769   1.741
63469W        W23005  22.076  23.091  12.025
63470W        W23006  35.457   7.845  12.577
63471W        W23007  29.012  15.813   0.876
63472W        W23008  31.912  33.907  13.975
63473W        W23009  44.407  41.535  13.867
63474W        W23010  17.281  26.563  10.514
63475W        W23011   2.725  13.319  12.876
63476W        W23012  34.535  35.598  11.475
63477W        W23013  38.850   4.206  14.324
63478W        W23014  11.782  42.282   3.240
63479W        W23015   6.261  13.765   4.818
63480W        W23016  21.734   7.695   1.218
63481W        W23017  30.434   8.692   2.418
63482W        W23018   6.210  13.738   2.400
63483W        W23019  16.109  22.034   0.473
63484W        W23020  42.514   3.272  14.945
63485W        W23021   0.396  27.155  14.429
63486W        W23022  19.253   2.791  11.571
63487W        W23023  31.923  18.140  14.304
63488W        W23024  28.620  38.558  14.870
63489W        W23025  39.336  42.880   2.348
63490W        W23026  40.860  21.548  12.364
63491W        W23027  21.245   7.842  10.027
63492W        W23028   2.417   1.793  14.835
63493W        W23029   6.195  20.233  14.305
63494W        W23030  41.826  14.673  10.476
63495W        W23031  28.461   8.663   1.754
63496W        W23032  40.982  30.566   4.258
63497W        W23033  26.672  36.938  13.037
63498W        W23034  11.268  13.191  14.978
63499W        W23035   3.917  13.808   1.299
63500W        W23036  27.112   3.242  11.435
63501W        W23037  26.610   4.420   5.142
63502W        W23038   9.794  22.029   0.818
63503W        W23039  14.589   3.751   0.399
63504W        W23040  12.708  39.978  12.827
63505W        W23041  24.498   0.489   0.783
63506W        W23042   3.328  14.156   2.286
63507W        W23043   3.270  32.391   0.814
63508W        W23044  20.248   9.382  12.411
63509W        W23045  19.614  33.481   4.795
63510W        W23046  42.893  34.450   3.758
63511W        W23047  34.911  42.386  14.769
63512W        W23048  11.690  27.158  12.851
63513W        W23049  12.768  39.380  13.420
63514W        W23050  42.447   3.453  11.000
63515W        W23051  28.548  35.076   2.384
63516W        W23052   2.889  26.690  14.960
63517W        W23053   9.745  10.645   1.213
63518W        W23054  30.001   2.764   4.282
63519W        W23055  38.396   8.204   4.198
63520W        W23056  22.584   9.330   4.683
63521W        W23057  44.338  43.014  12.493
63522W        W23058  30.984  30.568   1.302
63523W        W23059  18.588  42.016   1.256
63524W        W23060  15.227   0.864   1.794
63525W        W23061   6.904  35.449   1.364
63526W        W23062  26.651   9.877  11.945
63527W        W23063   4.247   2.930   0.387
63528W        W23064  33.408  17.619  12.001
63529W        W23065  37.338  40.977  14.909
63530W        W23066  42.936  23.702   3.266
63531W        W23067   3.379  10.792   0.408
63532W        W23068  39.419  41.518  13.310
63533W        W23069  16.278   8.869   4.704
63534W        W23070  18.591   2.309  11.513
63535W        W23071  24.195  38.546  14.358
63536W        W23072  28.149  35.369  12.408
63537W        W23073  34.369  41.352   3.744
63538W        W23074   8.250  15.736   3.808
63539W        W23075   1.447  23.213   1.436
63540W        W23076  40.453   6.241  10.145
63541W        W23077  39.351  26.968   0.360
63542W        W23078  10.195  11.224   1.803
63543W        W23079   9.825  20.074   1.421
63544W        W23080  13.758   9.151   3.737
63545W        W23081   4.802  37.349  10.020
63546W        W23082  24.080  17.641  13.508
63547W        W23083  16.231  44.833  12.083
63548W        W23084   6.233  30.912  12.949
63549W        W23085  41.502  38.868  13.975
63550W        W23086  25.078  11.372  14.790
63551W        W23087  25.638  21.653  12.960
63552W        W23088  25.697  23.583   2.798
63553W        W23089  11.220  24.000  12.383
63554W        W23090  38.945  28.568  10.450
63555W        W23091  13.799  25.638   0.785
63556W        W23092  33.511  17.749   3.822
63557W        W23093   2.757  22.246   4.197
63558W        W23094  27.555   2.873  11.543
63559W        W23095  31.518  17.623  12.044
63560W        W23096  26.104  33.608  12.083
63561W        W23097  39.047  35.522  13.921
63562W        W23098  11.664  10.216   3.259
63563W        W23099  37.914  33.567   0.315
63564W        W23100  26.497  30.028  10.493
63565W        W23101   5.259  13.337  14.877
63566W        W23102   1.364   4.418   4.598
63567W        W23103  31.466   7.280  14.951
63568W        W23104  26.535  14.098   4.688
63569W        W23105  10.220  10.179  12.990
63570W        W23106  22.694  36.043  12.470
63571W        W23107  15.146  26.659  12.891
63572W        W23108  40.894  15.244   4.688
63573W        W23109  44.929   8.275   2.369
63574W        W23110   1.914  20.642   0.324
63575W        W23111  28.983  21.153  10.911
63576W        W23112  18.124   8.333   3.745
63577W        W23113  35.001  23.165   0.387
63578W        W23114  32.444  34.900   3.829
63579W        W23115  35.101  32.539   4.127
63580W        W23116   1.896  17.099  10.530
63581W        W23117   7.312  32.472   3.714
63582W        W23118  16.118  36.079  14.846
63583W        W23119  39.855   8.788   3.847
63584W        W23120  37.362   8.189  13.462
63585W        W23121  31.051   4.336  13.862
63586W        W23122  16.307  28.537  10.411
63587W        W23123   6.254  22.118  11.052
63588W        W23124   3.440  13.283  10.918
63589W        W23125  30.036  39.878   1.742
63590W        W23126  40.033  22.545  14.294
63591W        W23127  13.818  37.898   1.749
63592W        W23128   1.397   9.765   5.217
63593W        W23129  12.207  39.368  10.938
63594W        W23130  30.089  26.530   0.752
63595W        W23131  32.563  27.558  12.395
63596W        W23132  27.489   2.922  11.921
63597W        W23133  25.687   8.801   4.735
63598W        W23134  18.789   6.388   3.334
63599W        W23135  40.539  13.107   3.185
63600W        W23136  38.556   8.221  12.031
63601W        W23137  41.370  41.355   0.959
63602W        W23138  10.226  36.096  11.564
63603W        W23139   5.398   3.796  12.513
63604W        W23140  12.807   3.433  12.986
63605W        W23141   4.752  28.616  10.532
63606W        W23142  30.944   3.778  10.912
63607W        W23143  26.995  10.747  14.788
63608W        W23144  20.648  37.337   4.824
63609W        W23145  24.138  42.866   9.987
63610W        W23146   4.896  41.302   1.227
63611W        W23147  22.071  16.256  11.513
63612W        W23148   5.899  11.817  14.381
63613W        W23149  42.867  29.991  12.824
63614W        W23150   6.916  26.120   2.378
63615W        W23151  25.519  14.638  14.399
63616W        W23152  39.939  22.045   0.472
63617W        W23153  23.668  14.098   1.775
63618W        W23154   6.200   8.657   0.336
63619W        W23155  18.075   4.421  11.858
63620W        W23156  30.472  10.685  13.535
63621W        W23157  44.330  23.655   1.783
63622W        W23158  23.984  24.494   1.739
63623W        W23159   4.799  23.660  14.892
63624W        W23160  22.232   1.477  13.538
63625W        W23161  36.853  18.679  12.455
63626W        W23162  29.565  31.110  13.539
63627W        W23163  40.991  28.937  11.482
63628W        W23164  32.498  20.753  13.895
63629W        W23165   4.224  26.529   5.258
63630W        W23166  12.844   9.775   0.839
63631W        W23167  10.346  42.871  13.991
63632W        W23168   3.282  10.178   2.405
63633W        W23169   7.804  21.628   4.304
63634W        W23170  44.928  36.468  11.921
63635W        W23171  42.413  22.015   0.366
63636W        W23172   5.385  29.455   4.173
63637W        W23173  25.994  34.579   4.789
63638W        W23174   8.804  25.669   9.666
63639W        W23175  35.431  10.269   3.632
63640W        W23176  10.723  32.951   1.902
63641W        W23177  23.681  44.873   0.309
63642W        W23178   4.256  22.183  14.390
63643W        W23179   1.945  15.222  14.347
63644W        W23180  15.240  16.726   3.331
63645W        W23181  32.455   4.828   4.674
63646W        W23182  31.538   4.850  10.621
63647W        W23183  18.676  35.452  11.590
63648W        W23184  34.461  14.188  14.026
63649W        W23185  37.839  44.311  14.857
63650W        W23186   6.267  29.664  11.477
63651W        W23187  17.712   4.900  10.552
63652W        W23188  28.572  17.302   4.770
63653W        W23189  40.451  33.411  12.476
63654W        W23190   8.160  35.453   0.331
63655W        W23191  16.247  16.600  10.578
63656W        W23192  20.601  21.695  13.376
63657W        W23193  30.558  14.297  11.904
63658W        W23194  13.339  31.002   3.733
63659W        W23195  38.855  31.024   2.839
63660W        W23196  24.023  20.763  14.329
63661W        W23197  43.953  24.583  14.846
63662W        W23198  36.030  17.112  14.815
63663W        W23199  11.721  24.634   0.255
63664W        W23200  22.661  19.082  14.499
63665W        W23201  36.414  34.902  10.127
63666W        W23202  11.755  23.686  12.404
63667W        W23203  22.577  36.362   3.169
63668W        W23204  29.946   2.733   0.445
63669W        W23205  23.000   8.300   4.616
63670W        W23206   1.456   6.197   2.842
63671W        W23207   8.254  17.657   4.159
63672W        W23208   1.911  29.166  10.476
63673W        W23209  31.110  10.876  12.541
63674W        W23210  39.416  37.969  13.873
63675W        W23211  39.036  41.852   1.816
63676W        W23212   6.215   5.235  12.836
63677W        W23213  13.169   5.232   1.403
63678W        W23214  39.352  14.685   3.786
63679W        W23215  26.590  34.928   9.601
63680W        W23216   8.365  30.417  10.553
63681W        W23217  17.101  44.802   1.777
63682W        W23218  17.165  38.039  13.334
63683W        W23219   5.257  19.694  14.353
63684W        W23220  43.877  44.753  12.982
63685W        W23221  41.797  24.154   4.635
63686W        W23222  35.439  11.696  13.833
63687W        W23223  44.906  26.489   4.195
63688W        W23224   5.259  36.961   3.823
63689W        W23225  40.519  27.595  13.527
63690W        W23226  41.495  27.147  14.412
63691W        W23227  40.408  36.845   3.710
63692W        W23228   4.306  44.794  12.058
63693W        W23229  41.990   5.727  12.538
63694W        W23230  25.171  21.712   4.633
63695W        W23231   8.889  38.995  14.385
63696W        W23232   6.849  41.523   2.880
63697W        W23233   5.875  24.053  12.913
63698W        W23234  35.013  30.999   0.447
63699W        W23235  29.560  27.052   4.711
63700W        W23236  41.893  34.515   2.349
63701W        W23237  33.403  33.386   3.834
63702W        W23238  34.906   3.431  10.949
63703W        W23239  38.879  17.132   4.240
63704W        W23240  40.965   2.451   0.890
63705W        W23241   7.775  38.927   4.154
63706W        W23242  16.233  10.280  13.030
63707W        W23243   9.675  12.805  12.830
63708W        W23244  41.313  27.510  11.984
63709W        W23245  42.410  10.254   2.852
63710W        W23246  34.955  41.916   2.283
63711W        W23247  11.206  39.381   2.710
63712W        W23248  23.171  31.574   2.243
63713W        W23249  11.313  14.621   1.321
63714W        W23250  16.219   4.312  14.356
63715W        W23251  44.916  38.011  14.910
63716W        W23252  39.414  44.269  11.895
63717W        W23253  28.099  35.494  13.470
63718W        W23254  23.239  29.617   1.398
63719W        W23255  20.040  37.564   3.297
63720W        W23256   3.785  19.696   3.315
63721W        W23257  13.137  27.147   4.785
63722W        W23258  22.138  32.018  13.798
63723W        W23259  28.164  19.567  10.462
63724W        W23260  25.074   1.871   2.214
63725W        W23261   7.685  11.715  12.555
63726W        W23262  20.180  42.489  14.818
63727W        W23263  16.237  36.037   1.763
63728W        W23264  28.646  44.489  13.040
63729W        W23265  39.861  30.012  11.890
63730W        W23266  27.168  30.651   2.237
63731W        W23267   8.810  39.545   3.734
63732W        W23268  31.906  29.494   3.229
63733W        W23269  22.229  38.980   0.303
63734W        W23270  33.083  17.743  14.782
63735W        W23271   5.813  40.448   1.787
63736W        W23272  38.988   7.838   0.450
63737W        W23273  33.546  24.075   2.710
63738W        W23274   1.883  22.224  12.345
63739W        W23275  19.720  28.524  12.543
63740W        W23276  23.032  17.753   5.204
63741W        W23277  16.080  14.797  13.355
63742W        W23278  43.806   1.457  11.492
63743W        W23279  38.423  13.705   3.694
63744W        W23280   7.778   2.426   5.083
63745W        W23281  38.923  18.751   5.126
63746W        W23282  40.872  22.999   1.874
63747W        W23283  30.917  37.458   0.839
63748W        W23284  36.886  28.675   3.669
63749W        W23285  30.026  37.527  12.029
63750W        W23286  38.463  27.988   3.208
63751W        W23287  13.159  38.392  10.933
63752W        W23288  25.672  28.178   4.795
63753W        W23289   1.846  24.615   1.415
63754W        W23290  37.441  26.982   3.354
63755W        W23291  24.675   2.249  11.395
63756W        W23292  27.170  35.910  14.388
63757W        W23293  29.963  16.208  12.856
63758W        W23294  29.637  23.240  13.500
63759W        W23295  11.140  21.661   2.304
63760W        W23296  34.963  17.109   5.187
63761W        W23297  25.102  10.671   2.776
63762W        W23298  29.174  42.346  13.920
63763W        W23299  19.653  44.393  13.512
63764W        W23300  25.061  24.695   2.842
63765W        W23301  12.660  24.984  14.300
63766W        W23302  31.130  34.920  13.413
63767W        W23303   1.975   2.304  12.992
63768W        W23304   3.849  26.639   2.403
63769W        W23305  44.299  14.816  10.121
63770W        W23306  41.364  10.158  11.994
63771W        W23307   4.301  33.531  12.091
63772W        W23308  20.274  42.335  11.582
63773W        W23309  18.211  24.551   3.647
63774W        W23310   2.904  42.876  13.845
63775W        W23311  23.592   0.275  13.350
63776W        W23312   6.803  15.806   1.839
63777W        W23313  28.962  39.332   1.257
63778W        W23314  22.010   5.922   5.148
63779W        W23315  18.742  41.358  10.457
63780W        W23316  16.811  27.530  10.988
63781W        W23317   2.786  11.629  10.950
63782W        W23318  20.612  20.751   0.916
63783W        W23319  37.876   5.431   3.326
63784W        W23320  17.071   4.786  13.422
63785W        W23321   0.980  39.986  13.337
63786W        W23322  13.112  24.029  12.973
63787W        W23323  25.046  25.151   1.935
63788W        W23324  44.811   0.405   2.721
63789W        W23325   0.363  40.543   0.796
63790W        W23326  25.547  38.028   3.267
63791W        W23327  35.502  18.278  10.529
63792W        W23328   1.946  36.416  12.084
63793W        W23329  25.519   4.366   0.266
63794W        W23330  42.320  42.968   1.919
63795W        W23331  15.738  37.862  13.336
63796W        W23332  21.081   5.355   0.740
63797W        W23333  11.737   5.376  11.434
63798W        W23334  32.467   3.906  12.560
63799W        W23335  10.182  19.079   4.174
63800W        W23336   1.738  26.059  10.964
63801W        W23337  16.703  37.017  13.832
63802W        W23338   7.267  30.558   3.683
63803W        W23339   3.763  16.791  13.881
63804W        W23340  41.860   1.849  14.010
63805W        W23341   4.801  29.446   1.908
63806W        W23342  35.061  37.987  12.976
63807W        W23343  34.442  42.526   2.385
63808W        W23344   5.933  43.995   1.874
63809W        W23345  44.816  25.046   1.405
63810W        W23346  33.933   4.284  11.973
63811W        W23347  39.894  36.364   3.837
63812W        W23348  28.966  40.386  13.313
63813W        W23349  27.481   4.438  13.850
63814W        W23350  32.614   4.853   9.988
63815W        W23351   8.166  25.494  11.875
63816W        W23352  11.847  29.461   9.955
63817W        W23353  10.243   2.777   2.792
63818W        W23354  10.851  38.419   0.339
63819W        W23355   0.936   2.884  13.439
63820W        W23356  34.944  25.052  12.421
63821W        W23357  32.075  17.076  14.872
63822W        W23358  22.128  33.594  10.112
63823W        W23359  35.092  15.132  14.903
63824W        W23360  33.500   9.812   3.848
63825W        W23361  26.590  30.504   0.901
63826W        W23362   0.894   1.761   3.646
63827W        W23363  22.604   6.243   4.316
63828W        W23364  24.023  14.623   1.766
63829W        W23365  15.715  21.544   2.218
63830W        W23366   4.389  29.010  14.965
63831W        W23367   4.246  35.861   3.653
63832W        W23368  28.971   3.840   2.272
63833W        W23369   9.364   7.901   5.187
63834W        W23370  15.286   8.355   3.814
63835W        W23371  35.551  32.955  13.432
63836W        W23372  43.463   9.707   1.399
63837W        W23373  26.155  16.215   1.815
63838W        W23374  37.998  43.001   1.737
63839W        W23375  29.631   2.733   4.701
63840W        W23376  11.724  29.133  11.406
63841W        W23377  22.233  44.439   3.362
63842W        W23378  37.512  25.678  14.906
63843W        W23379  14.108  11.824   0.377
63844W        W23380   1.768  10.284   0.799
63845W        W23381   0.792  16.756   4.305
63846W        W23382  36.035  11.699   0.879
63847W        W23383  40.365  20.587  12.946
63848W        W23384  27.064  23.539  12.901
63849W        W23385  35.426  31.589  12.367
63850W        W23386  39.935  35.596  10.590
63851W        W23387  38.931  19.647   0.907
63852W        W23388  41.477  12.833   0.830
63853W        W23389  25.181  28.002   4.306
63854W        W23390  27.455  17.127  14.930
63855W        W23391  41.483   2.925   4.232
63856W        W23392  14.123  30.990   0.757
63857W        W23393  33.962  31.958  12.050
63858W        W23394  25.104  22.098  14.811
63859W        W23395   5.313  11.854   0.305
63860W        W23396   9.845  37.368  13.955
63861W        W23397  15.763  36.845  10.603
63862W        W23398  24.114   5.698   2.754
63863W        W23399  36.963   7.868   3.677
63864W        W23400  13.771   3.237  10.532
63865W        W23401  33.402  22.998   1.778
63866W        W23402  35.979   8.302   0.835
63867W        W23403  20.038  28.085   1.904
63868W        W23404  15.670  19.768   3.344
63869W        W23405  28.629  38.003  11.099
63870W        W23406   9.716   3.351   1.756
63871W        W23407  33.546  30.483   5.270
63872W        W23408  12.626  25.057   1.745
63873W        W23409  38.035   5.852   1.245
63874W        W23410  25.012  40.445  13.537
63875W        W23411  24.119  38.922  11.118
63876W        W23412  33.453  22.176  13.406
63877W        W23413  14.322  39.033  13.859
63878W        W23414  21.695   5.870   2.182
63879W        W23415   1.433  14.274   1.213
63880W        W23416  15.759  40.367  10.457
63881W        W23417  10.764  37.037   3.637
63882W        W23418  34.885  13.325  12.476
63883W        W23419  19.718  33.395   2.352
63884W        W23420  36.027  16.637   4.346
63885W        W23421  41.499  22.641  13.018
63886W        W23422  37.888  23.237  12.480
63887W        W23423  31.954  25.704   4.692
63888W        W23424   9.305  27.972   3.381
63889W        W23425  32.496   0.336   2.396
63890W        W23426  19.041  21.699  12.031
63891W        W23427  16.616  24.492  13.436
63892W        W23428  30.104  27.548  12.967
63893W        W23429  42.499  32.410  12.831
63894W        W23430  27.491   1.370  13.941
63895W        W23431  30.640   2.961  12.079
63896W        W23432  21.584  12.286   1.427
63897W        W23433  11.753  17.297  14.966
63898W        W23434   5.237  22.539   1.284
63899W        W23435  33.098  20.133   2.825
63900W        W23436   8.218  15.264  13.462
63901W        W23437  19.160   3.739   0.855
63902W        W23438  11.766  25.010   2.273
63903W        W23439   4.732   3.383   0.908
63904W        W23440   8.313  43.288  13.840
63905W        W23441  37.987  40.050  10.074
63906W        W23442  20.591  30.950  12.894
63907W        W23443   7.284  38.444  11.380
63908W        W23444  22.512  13.772   4.609
63909W        W23445  33.439  42.873   3.739
63910W        W23446  35.474   8.207  10.487
63911W        W23447   4.378  37.544  13.955
63912W        W23448  32.481  32.416  12.985
63913W        W23449  20.636  18.646   4.725
63914W        W23450  41.336  19.581  12.883
63915W        W23451  43.823  15.649   3.251
63916W        W23452  14.283  22.630   4.625
63917W        W23453  15.594   2.424   1.740
63918W        W23454  23.054   0.370  14.375
63919W        W23455  25.976  36.056  13.907
63920W        W23456  37.536  28.177  10.494
63921W        W23457  40.308   8.724  14.353
63922W        W23458  42.298  16.310   0.390
63923W        W23459  36.083  26.047  11.408
63924W        W23460  40.970   5.895   4.625
63925W        W23461  32.989  18.266  13.980
63926W        W23462   7.900  19.632   1.821
63927W        W23463   0.374  41.788  14.503
63928W        W23464   3.246  10.768   1.234
63929W        W23465   4.423   0.280   1.803
63930W        W23466  38.975  16.198  11.884
63931W        W23467  25.050  38.463  13.498
63932W        W23468  16.793  40.004  13.812
63933W        W23469  33.583  31.065   3.188
63934W        W23470  26.480  25.694  13.409
63935W        W23471  41.437  23.712   2.333
63936W        W23472   3.256   2.268  14.434
63937W        W23473   8.744  26.951   3.287
63938W        W23474  30.654  41.509   3.191
63939W        W23475   4.441  40.348  14.991
63940W        W23476  38.872   1.851  13.913
63941W        W23477  19.597  27.536  12.896
63942W        W23478  10.299   6.235   4.148
63943W        W23479  40.927   8.857   3.153
63944W        W23480   4.399  22.064  12.018
63945W        W23481  12.211  13.345  14.426
63946W        W23482  33.552   2.829   2.783
63947W        W23483  34.956  24.523  13.369
63948W        W23484   2.373  29.933  11.026
63949W        W23485  26.076  10.236   0.433
63950W        W23486  28.597  32.944  13.853
63951W        W23487  11.721  32.931  11.127
63952W        W23488  23.082   2.943   3.245
63953W        W23489  10.718  41.506  14.011
63954W        W23490  16.645   0.366   4.735
63955W        W23491  23.150  24.973  14.019
63956W        W23492  32.482  32.139   1.833
63957W        W23493  17.730  33.394  14.320
63958W        W23494  37.561  44.458   1.445
63959W        W23495  18.678  32.510   3.785
63960W        W23496  43.379  22.106   0.261
63961W        W23497   5.922  27.194   1.377
63962W        W23498  43.281  41.934   2.809
63963W        W23499  28.590  24.080   3.220
63964W        W23500  14.748  16.737  12.837
63965W        W23501   1.876  23.038  11.900
63966W        W23502  19.545  25.536   1.258
63967W        W23503  24.682  43.508   3.867
63968W        W23504  18.720   1.888  12.557
63969W        W23505  32.580  15.083   0.321
63970W        W23506  15.228  10.171  12.534
63971W        W23507  17.303  31.898   2.799
63972W        W23508   5.192  40.970   1.891
63973W        W23509  27.948  38.372  10.088
63974W        W23510  21.206  24.624  11.981
63975W        W23511   7.745  44.471   4.343
63976W        W23512   1.332  17.784  13.843
63977W        W23513   4.773  24.991   2.202
63978W        W23514  26.621  21.047   4.151
63979W        W23515  10.222  24.175   1.283
63980W        W23516   0.869  41.329  14.910
63981W        W23517  14.319  30.916   3.229
63982W        W23518  36.861  13.635  13.547
63983W        W23519  38.549  22.645  11.462
63984W        W23520  40.798  33.104  12.552
63985W        W23521  26.513  22.609  13.942
63986W        W23522   0.881  22.672   1.439
63987W        W23523  28.115  19.655  14.884
63988W        W23524  36.561  18.732   0.728
63989W        W23525  18.690   2.841  11.046
63990W        W23526   9.647  21.037  12.981
63991W        W23527  36.075  36.378  12.452
63992W        W23528  29.521   8.782   3.186
63993W        W23529  26.515  25.197  10.469
63994W        W23530  40.448  26.041   4.171
63995W        W23531  34.578   1.471   3.744
63996W        W23532   4.355  25.202  14.378
63997W        W23533  21.647  31.045  10.904
63998W        W23534  12.149  11.333   0.827
63999W        W23535  20.714  12.284   3.240
64000W        W23536  39.506  42.776  12.557
64001W        W23537  19.164  32.133  12.525
64002W        W23538  21.698  38.900  13.407
64003W        W23539  43.018  40.045  12.956
64004W        W23540  12.691  13.807  14.287
64005W        W23541  40.980   9.361   0.306
64006W        W23542   7.221  17.093  13.984
64007W        W23543  15.787   6.905   0.395
64008W        W23544  27.508  17.091  14.305
64009W        W23545   3.809  22.039   4.620
64010W        W23546  19.656  32.402  10.895
64011W        W23547  43.321   8.282   4.817
64012W        W23548  20.100  21.561  13.904
64013W        W23549  16.591   6.758   1.407
64014W        W23550  22.205   1.935  13.435
64015W        W23551   9.723  30.479  11.948
64016W        W23552  44.261  35.894   3.317
64017W        W23553  37.866  36.974   3.870
64018W        W23554   1.319  10.855   1.336
64019W        W23555  25.544  43.959   1.914
64020W        W23556  38.880  20.754  13.878
64021W        W23557  23.193  40.856   1.232
64022W        W23558   3.262   1.307  10.912
64023W        W23559  34.957   5.700  13.359
64024W        W23560   2.722   3.347  12.437
64025W        W23561  21.193  39.977   1.387
64026W        W23562  40.475  31.970   1.251
64027W        W23563  29.643   8.353   3.247
64028W        W23564  10.207  29.589   2.887
64029W        W23565  44.959   3.285  11.870
64030W        W23566   7.872  11.673   2.233
64031W        W23567  38.982  43.280   2.291
64032W        W23568  44.755  12.652   3.173
64033W        W23569  18.126   1.469   0.314
64034W        W23570   7.360   2.228  10.474
64035W        W23571  26.034  17.168   3.813
64036W        W23572  33.949  16.103   3.788
64037W        W23573  30.970  36.467   4.147
64038W        W23574  20.215  32.492   0.483
64039W        W23575  20.182  23.173  13.495
64040W        W23576  15.689   8.856  10.565
64041W        W23577  16.120  14.213   1.211
64042W        W23578  36.888  31.584   4.711
64043W        W23579   7.314   7.753  12.393
64044W        W23580   4.944  28.562  11.890
64045W        W23581  17.176  14.167   1.737
64046W        W23582  30.596  20.180  14.370
64047W        W23583  44.993  40.916   1.287
64048W        W23584   1.449   4.853  13.814
64049W        W23585  10.320  25.042  12.933
64050W        W23586  13.273  34.872   4.723
64051W        W23587  38.448  26.528   3.850
64052W        W23588  40.452  35.008  14.469
64053W        W23589  41.941  10.840   3.375
64054W        W23590   9.369   2.283  10.907
64055W        W23591  36.040   2.946  11.541
64056W        W23592  13.238   6.331  14.791
64057W        W23593  10.791  44.375   4.775
64058W        W23594  30.121  28.064  14.868
64059W        W23595  31.621  42.434   1.274
64060W        W23596  21.123  44.896   3.324
64061W        W23597  43.801  44.003   4.675
64062W        W23598  13.637  43.836  14.935
64063W        W23599  32.963  29.611   1.852
64064W        W23600   8.892   2.330  12.493
64065W        W23601   2.240   0.771  10.989
64066W        W23602  11.786   4.850  14.310
64067W        W23603  43.413  30.472   0.289
64068W        W23604  44.491  30.473  14.352
64069W        W23605  44.280  31.504   4.744
64070W        W23606  38.870  29.529  11.462
64071W        W23607  16.112  31.648   0.269
64072W        W23608   6.874  11.721   0.850
64073W        W23609  12.690   2.266   3.199
64074W        W23610  17.615  38.477  14.871
64075W        W23611  41.905  19.160  10.931
64076W        W23612  31.466  31.137   3.361
64077W        W23613  14.766  15.808  11.013
64078W        W23614  17.716  41.815   1.725
64079W        W23615  20.755  35.432  14.818
64080W        W23616  32.609  22.061   3.300
64081W        W23617  34.970  27.579  11.858
64082W        W23618  42.007  21.661  14.808
64083W        W23619   0.442   0.271  12.034
64084W        W23620  41.452  13.751   1.795
64085W        W23621   7.879  44.260  14.401
64086W        W23622  31.515   3.215   1.845
64087W        W23623   0.823  24.690  11.999
64088W        W23624  38.333  29.447   2.785
64089W        W23625   5.292  14.293   3.378
64090W        W23626  28.487  29.480   0.339
64091W        W23627   8.206   3.272   1.351
64092W        W23628  35.401  39.035   4.725
64093W        W23629  10.860  16.109   0.458
64094W        W23630  20.557  26.679  10.948
64095W        W23631  24.600  28.560  14.983
64096W        W23632   7.700  16.608   2.360
64097W        W23633  22.033  13.123   2.348
64098W        W23634  13.692  21.611  13.843
64099W        W23635  26.097  19.038  10.537
64100W        W23636  23.139  29.572   3.312
64101W        W23637  43.852  39.338   3.796
64102W        W23638  23.508  29.520   1.386
64103W        W23639  28.624  29.153  14.384
64104W        W23640  42.775   2.362  12.507
64105W        W23641   1.473  20.135  10.994
64106W        W23642  29.162  28.496  13.052
64107W        W23643   0.363  13.135  13.827
64108W        W23644  36.431  21.103   2.224
64109W        W23645   3.955  10.809   0.280
64110W        W23646  17.590  19.249   2.238
64111W        W23647  30.965  42.848   1.695
64112W        W23648  16.315  15.753   0.397
64113W        W23649  16.598  10.151  14.013
64114W        W23650  20.108  13.334  11.881
64115W        W23651   4.338  23.544  10.431
64116W        W23652  19.088  29.004   2.712
64117W        W23653  34.101  16.614   1.378
64118W        W23654  21.705  12.668  13.344
64119W        W23655  27.196   8.365   2.787
64120W        W23656   7.327  14.113  14.797
64121W        W23657   3.757   2.773  14.307
64122W        W23658  29.570  41.927  13.446
64123W        W23659   0.336  19.750  11.002
64124W        W23660  24.081   3.300  10.973
64125W        W23661  14.283  36.966   0.769
64126W        W23662  39.938  15.196  14.990
64127W        W23663   7.886  12.152   0.372
64128W        W23664  42.923  21.217  12.067
64129W        W23665  14.663  26.959   2.840
64130W        W23666  18.639  13.190   3.305
64131W        W23667  30.611   9.356   2.768
64132W        W23668  38.363  10.676  12.957
64133W        W23669  20.244  36.001  10.494
64134W        W23670  35.948  27.614  11.039
64135W        W23671  41.799  22.058   3.349
64136W        W23672  37.035  33.877  13.338
64137W        W23673   9.260  10.769  12.076
64138W        W23674  28.176  44.373  11.456
64139W        W23675  15.190  37.432   4.791
64140W        W23676  30.095   9.661   2.358
64141W        W23677  19.228  11.691   1.810
64142W        W23678  29.038  19.762  14.023
64143W        W23679  31.146   9.324   2.352
64144W        W23680   3.814  12.710  11.432
64145W        W23681  17.597   6.729  14.508
64146W        W23682   7.365   5.348   1.914
64147W        W23683  12.633   1.909  12.929
64148W        W23684  37.081  27.533   4.337
64149W        W23685  32.414   6.837   2.682
64150W        W23686   4.750  34.593   0.345
64151W        W23687  43.291   9.729  14.452
64152W        W23688  15.728   0.291   4.805
64153W        W23689  12.175  30.081  11.603
64154W        W23690  31.412  34.951   3.844
64155W        W23691  17.781   5.261   0.401
64156W        W23692   9.885  35.048   1.838
64157W        W23693  40.503  35.384  13.875
64158W        W23694  20.225  35.858  11.054
64159W        W23695  15.750  31.907  12.447
64160W        W23696   6.800  10.372   5.280
64161W        W23697   0.918   3.888   3.237
64162W        W23698   5.313  35.447   3.810
64163W        W23699  35.903  36.489  13.463
64164W        W23700  41.956  17.124  12.897
64165W        W23701  34.011  13.304   3.195
64166W        W23702  16.182   4.367  10.403
64167W        W23703  32.974   0.471  10.994
64168W        W23704  38.074  43.468   1.220
64169W        W23705   2.851  28.966  10.969
64170W        W23706   2.344   2.384  11.083
64171W        W23707  23.088   8.167  10.539
64172W        W23708   3.389  29.046   3.721
64173W        W23709  31.533  29.467  11.453
64174W        W23710  33.888   9.787  12.852
64175W        W23711   6.786  43.450   0.879
64176W        W23712  20.543  25.610   0.901
64177W        W23713   7.332  17.716  11.001
64178W        W23714  42.011   2.232  12.885
64179W        W23715  16.182  13.675  11.009
64180W        W23716   2.260  36.423   1.831
64181W        W23717  22.030  24.164  11.104
64182W        W23718  30.921  23.143   4.182
64183W        W23719   2.765  20.549   4.729
64184W        W23720  15.699  24.097   0.949
64185W        W23721  32.431  44.496  13.886
64186W        W23722  40.915  24.991  11.432
64187W        W23723  32.468  38.364   1.793
64188W        W23724  15.640  26.021  14.289
64189W        W23725   3.243  38.056   4.641
64190W        W23726  14.261  40.998  11.587
64191W        W23727  31.619  16.310   3.748
64192W        W23728   4.336  30.049  13.962
64193W        W23729  31.000   7.711  10.970
64194W        W23730  21.083   0.797   0.447
64195W        W23731  27.461  37.458   0.766
64196W        W23732  17.174   3.847  10.995
64197W        W23733  30.414   5.706   2.784
64198W        W23734  22.590  42.317   3.794
64199W        W23735  23.552  42.302  11.944
64200W        W23736  38.533  17.642   1.739
64201W        W23737  38.996  29.484   5.188
64202W        W23738  17.626  19.639   0.867
64203W        W23739   4.774   7.828  13.992
64204W        W23740   3.841  19.620   2.351
64205W        W23741  12.337   4.726   0.769
64206W        W23742  11.852   3.259   1.826
64207W        W23743   8.282  37.039   0.926
64208W        W23744  44.414  43.903   2.362
64209W        W23745   7.201  25.550   3.697
64210W        W23746  39.536  16.770   0.254
64211W        W23747  40.798  36.959  10.527
64212W        W23748   0.748  19.712  14.511
64213W        W23749  14.771  15.090   3.337
64214W        W23750   8.237  12.797   0.789
64215W        W23751  23.143  12.305   1.910
64216W        W23752  18.156   0.316   3.721
64217W        W23753  26.593  38.967   5.222
64218W        W23754  26.207   1.440   4.240
64219W        W23755   5.822  18.246   0.941
64220W        W23756   4.876  37.853   1.328
64221W        W23757  20.555  11.236   4.609
64222W        W23758  34.959  19.261  14.998
64223W        W23759  34.068  38.377  11.599
64224W        W23760  16.709   3.444   3.352
64225W        W23761  43.817  14.664   0.338
64226W        W23762  19.605  15.747   0.828
64227W        W23763  11.632   6.826   2.890
64228W        W23764  14.229  23.076  14.960
64229W        W23765  25.475  23.693   0.935
64230W        W23766  31.021  21.156  10.977
64231W        W23767  28.548  10.229   2.282
64232W        W23768  28.996  12.190  11.579
64233W        W23769   2.725   8.323   1.396
64234W        W23770  30.433  24.564  12.989
64235W        W23771  16.263  26.486   4.745
64236W        W23772  30.056  40.867   2.813
64237W        W23773  10.659  20.254  11.093
64238W        W23774  20.248   3.258  14.960
64239W        W23775  34.894  26.151   4.137
64240W        W23776  27.667  42.972  13.405
64241W        W23777   8.223  42.867  14.342
64242W        W23778  25.620  28.081  13.829
64243W        W23779  17.689  18.266  10.642
64244W        W23780  41.448  18.066  10.413
64245W        W23781   9.660  37.961  10.895
64246W        W23782  44.879  22.684  12.840
64247W        W23783  18.090  40.417  11.413
64248W        W23784  14.301  20.106   3.692
64249W        W23785  17.772  26.981  14.803
64250W        W23786  22.180  32.395  12.962
64251W        W23787  40.308   5.394  13.791
64252W        W23788  41.824  22.055  12.554
64253W        W23789   0.949  39.454   4.722
64254W        W23790  38.030  26.178   2.778
64255W        W23791  23.011  23.609   0.833
64256W        W23792   4.351  19.681   2.257
64257W        W23793  13.699   9.688   3.264
64258W        W23794  34.955  42.994  13.839
64259W        W23795  22.157  16.222  11.861
64260W        W23796  10.360   4.828   1.773
64261W        W23797  29.968  31.103   0.284
64262W        W23798   8.689   6.192  13.340
64263W        W23799  26.983  17.641   3.252
64264W        W23800   0.305  41.868  12.915
64265W        W23801   2.954  39.439  14.795
64266W        W23802  44.762  32.984  14.893
64267W        W23803  32.979  30.160  11.038
64268W        W23804  16.276  21.639   2.217
64269W        W23805  25.501  29.939  11.462
64270W        W23806  14.660  24.628   3.217
64271W        W23807  30.461  41.467   2.889
64272W        W23808   4.277  25.059   4.630
64273W        W23809   7.746  19.771  12.035
64274W        W23810   0.831  10.662   1.355
64275W        W23811  39.420  20.620  11.443
64276W        W23812  21.556  19.200   9.674
64277W        W23813  16.605  38.015  11.077
64278W        W23814  14.635  19.592   4.743
64279W        W23815  10.161  43.895   1.916
64280W        W23816  21.719   2.843   0.885
64281W        W23817  40.972  31.109  13.918
64282W        W23818  24.086   5.293  10.971
64283W        W23819  32.600  35.386  10.463
64284W        W23820  38.941   1.950  10.019
64285W        W23821  30.658  39.378   3.812
64286W        W23822   2.800  21.196   4.193
64287W        W23823  19.599  38.067   1.435
64288W        W23824  42.775  36.846   4.663
64289W        W23825  35.459   3.836  14.770
64290W        W23826   4.764  10.793   0.864
64291W        W23827  42.389   2.791   3.168
64292W        W23828   5.400  11.279   4.745
64293W        W23829  44.799  34.551   3.722
64294W        W23830  25.482  30.446  10.028
64295W        W23831  26.025  18.566   0.391
64296W        W23832  40.324  30.008   2.775
64297W        W23833  18.285   4.408  14.339
64298W        W23834   2.884   6.396   0.887
64299W        W23835   5.867  35.955   1.771
64300W        W23836  24.036  18.674   2.341
64301W        W23837  26.469  39.395   2.239
64302W        W23838  11.365  18.594  12.058
64303W        W23839  16.585  38.982  12.029
64304W        W23840  27.652  17.662   9.607
64305W        W23841  15.316  16.660   2.844
64306W        W23842  36.852  15.807  12.086
64307W        W23843  24.531  28.657  11.993
64308W        W23844  34.548  40.317  12.366
64309W        W23845  18.672  15.714  13.328
64310W        W23846   3.839  36.474   3.797
64311W        W23847  17.578  33.892   1.210
64312W        W23848  20.097   6.371  14.979
64313W        W23849  28.165   6.351   0.888
64314W        W23850  15.119  44.934   0.844
64315W        W23851  11.785   3.320   5.321
64316W        W23852  19.602  34.950   3.701
64317W        W23853   1.447  43.929   2.881
64318W        W23854   2.851  29.146   1.719
64319W        W23855  25.997  28.019   4.639
64320W        W23856  16.697   8.663   0.470
64321W        W23857  25.112  24.041  11.923
64322W        W23858  37.435  14.294  12.927
64323W        W23859  21.571  27.450  14.789
64324W        W23860  19.182  35.093  11.024
64325W        W23861  28.938  37.984   0.908
64326W        W23862  40.547   0.279   2.396
64327W        W23863  39.982  28.154   3.385
64328W        W23864  34.083  42.495   2.409
64329W        W23865  43.802  21.131  10.927
64330W        W23866  19.751  15.770  13.797
64331W        W23867  36.467  39.478   3.734
64332W        W23868  22.656  21.075   0.936
64333W        W23869  40.436  27.130  12.091
64334W        W23870   8.673  29.920   4.119
64335W        W23871  40.999   6.291  10.983
64336W        W23872  21.681  19.694   0.840
64337W        W23873   9.167   5.798  14.863
64338W        W23874   9.217   6.265  10.584
64339W        W23875  21.053   0.333  14.336
64340W        W23876  37.372  22.624  14.497
64341W        W23877  34.462  33.430  14.394
64342W        W23878   4.217  12.646   4.603
64343W        W23879  37.505  25.173  11.016
64344W        W23880  30.570  11.246   4.193
64345W        W23881  23.223  39.397  11.020
64346W        W23882  17.142  34.572   0.815
64347W        W23883  19.770   0.835   5.215
64348W        W23884   1.311  31.936   3.347
64349W        W23885   8.390  10.774  10.432
64350W        W23886  19.588  21.540  12.405
64351W        W23887  13.617  38.905   4.667
64352W        W23888  42.026   3.409   3.731
64353W        W23889  43.773  34.427  10.445
64354W        W23890  42.435  14.239  14.445
64355W        W23891   7.251  17.257   2.810
64356W        W23892  31.984  39.878   3.161
64357W        W23893  22.577  21.707  14.778
64358W        W23894  17.175  23.158  10.599
64359W        W23895  16.222   2.899   3.162
64360W        W23896  36.971   6.872  13.348
64361W        W23897  14.127  24.194   2.790
64362W        W23898  29.669  24.651   0.884
64363W        W23899   6.383  31.642   1.440
64364W        W23900   5.919  16.669  10.419
64365W        W23901   6.917  36.584  14.982
64366W        W23902   7.774  26.954   3.205
64367W        W23903   5.335   1.416  13.521
64368W        W23904  22.706   9.886  12.012
64369W        W23905  39.492  16.694   0.798
64370W        W23906  31.594  33.596   4.791
64371W        W23907  34.987   5.293  12.461
64372W        W23908  14.765  18.642   4.244
64373W        W23909  42.827   8.292   1.743
64374W        W23910  19.262   4.822   4.299
64375W        W23911  21.217  36.449  14.497
64376W        W23912   0.894  31.609  10.484
64377W        W23913  37.427  15.631  12.860
64378W        W23914  42.333  30.041   3.666
64379W        W23915  38.030   5.916   3.859
64380W        W23916  38.376  19.282   0.786
64381W        W23917  25.636  26.678   0.280
64382W        W23918   5.254  33.075  10.583
64383W        W23919  19.566  30.985   3.764
64384W        W23920  17.592  18.721   5.774
64385W        W23921  41.984  37.339   2.769
64386W        W23922  26.969  33.005  10.497
64387W        W23923  23.236  23.727  13.881
64388W        W23924  16.133  27.003  11.906
64389W        W23925   0.869  36.578  11.929
64390W        W23926  34.462  16.569   1.804
64391W        W23927  27.543  39.026   2.223
64392W        W23928  34.995   7.308   1.827
64393W        W23929   8.779   8.357  10.491
64394W        W23930  15.729  44.386  10.602
64395W        W23931  30.571  19.655  13.496
64396W        W23932  16.778  22.011   1.830
64397W        W23933  15.616   7.217   1.717
64398W        W23934  24.481   6.713   1.889
64399W        W23935  12.144  44.292   0.918
64400W        W23936  10.245  11.319   3.193
64401W        W23937   3.350  33.601  12.993
64402W        W23938   8.344  42.967  13.893
64403W        W23939   8.844   5.754  10.909
64404W        W23940  13.696  13.168   4.769
64405W        W23941   0.971  24.112   3.172
64406W        W23942   7.197  38.963   2.393
64407W        W23943   1.737  35.542  13.894
64408W        W23944  39.816  43.298  13.933
64409W        W23945   1.362  26.027  13.525
64410W        W23946   3.410  22.174   1.915
64411W        W23947  24.637  29.651   2.325
64412W        W23948  22.515  24.115  11.412
64413W        W23949   1.792  38.904   4.834
64414W        W23950  15.630  11.323   0.942
64415W        W23951  37.494   8.256   3.807
64416W        W23952  37.524  10.217   4.340
64417W        W23953  21.702  23.133  12.865
64418W        W23954   3.326  25.713  11.936
64419W        W23955  26.547  15.805   4.697
64420W        W23956  10.844  16.213  13.877
64421W        W23957  25.202  39.534   9.989
64422W        W23958  34.522  26.046   5.275
64423W        W23959  31.940  44.940   4.155
64424W        W23960   6.283  23.107   4.795
64425W        W23961  29.935  34.478  12.074
64426W        W23962  39.537  39.980   3.180
64427W        W23963  32.088  26.549   3.263
64428W        W23964  10.804   4.445  12.503
64429W        W23965  30.461  10.190   2.264
64430W        W23966  28.168  22.533   2.887
64431W        W23967  15.145  21.584  10.923
64432W        W23968   0.306  44.794   1.800
64433W        W23969  43.458   8.818  13.352
64434W        W23970  31.089  39.315  13.056
64435W        W23971   0.383  31.128  10.571
64436W        W23972  19.684  35.933   3.638
64437W        W23973  24.539  43.477  14.978
64438W        W23974  25.559  22.631   0.417
64439W        W23975  24.498   5.395  12.996
64440W        W23976   8.734   2.363   2.404
64441W        W23977   4.932  11.296  10.450
64442W        W23978  22.112  43.812  12.476
64443W        W23979  17.298  29.999   0.800
64444W        W23980   2.931   6.718  10.889
64445W        W23981  25.675  38.002  11.570
64446W        W23982  41.821  35.525   0.739
64447W        W23983  12.613  34.401  10.979
64448W        W23984   5.814  25.081  13.803
64449W        W23985  39.812   8.689   2.181
64450W        W23986  12.152   3.235  12.947
64451W        W23987  43.832  40.020   4.749
64452W        W23988  16.120  33.426   3.370
64453W        W23989  16.790  39.461  10.969
64454W        W23990  44.414   7.233  11.516
64455W        W23991  32.497   5.926   1.254
64456W        W23992   3.878  27.982   0.253
64457W        W23993   6.779  42.334   3.385
64458W        W23994  44.813  42.885   0.424
64459W        W23995  17.205  37.483   3.830
64460W        W23996  16.656   0.404  13.930
64461W        W23997  27.017  18.136   2.865
64462W        W23998  27.041  40.347   3.643
64463W        W23999  18.128  38.067  14.938
64464W        W24000  24.539  37.926   4.278
64465W        W24001  21.175  23.101  14.897
64466W        W24002   0.773   9.666  11.448
64467W        W24003  44.430  16.306  10.938
64468W        W24004   8.778  42.426   4.672
64469W        W24005  29.552  33.590  11.894
64470W        W24006   9.694   9.174   1.295
64471W        W24007  19.714   9.177   1.349
64472W        W24008  13.204  11.629  13.330
64473W        W24009  13.235  11.256  12.001
64474W        W24010  19.089  13.782   4.691
64475W        W24011  21.538  18.758  12.073
64476W        W24012   7.306  37.408  10.926
64477W        W24013  11.277  27.568   5.281
64478W        W24014  13.840  42.406   1.785
64479W        W24015  23.554  27.612  14.916
64480W        W24016   8.815  28.178  12.493
64481W        W24017   9.809  11.707  12.496
64482W        W24018   1.777  43.354  11.601
64483W        W24019  15.306   1.887  13.372
64484W        W24020  39.508  26.960   2.665
64485W        W24021  38.526  29.012  12.092
64486W        W24022  31.965   0.281   3.836
64487W        W24023   0.404   4.424  12.470
64488W        W24024  30.095  15.645  12.454
64489W        W24025  43.270  29.158   2.762
64490W        W24026  26.589  42.467   0.294
64491W        W24027  20.625  41.988  14.791
64492W        W24028  36.851  15.261  11.545
64493W        W24029  35.565  24.588  12.035
64494W        W24030  10.360   9.174  14.957
64495W        W24031  12.210   6.707   2.666
64496W        W24032  12.354   7.834   0.295
64497W        W24033  38.362  24.718   3.780
64498W        W24034  33.007  14.602  10.512
64499W        W24035  20.243  18.599   0.930
64500W        W24036   9.767  42.018   2.187
64501W        W24037  34.105  31.996   3.708
64502W        W24038  35.447  40.323   4.192
64503W        W24039   6.816   9.729  12.840
64504W        W24040  19.620  23.119   1.933
64505W        W24041  28.169  23.504   3.678
64506W        W24042  17.636  28.120  14.421
64507W        W24043   7.761  33.978  14.470
64508W        W24044   2.726  42.331   3.635
64509W        W24045  38.417  26.466  12.504
64510W        W24046  38.356  38.390   4.684
64511W        W24047  42.507  14.612  13.873
64512W        W24048  42.326  35.419  10.566
64513W        W24049  10.265   1.770  11.501
64514W        W24050  25.695  36.399   0.925
64515W        W24051  29.528  44.984  10.435
64516W        W24052  43.411  35.084   3.762
64517W        W24053   3.443  33.584  12.000
64518W        W24054  31.050  32.903   0.933
64519W        W24055  31.647  35.994  11.857
64520W        W24056  32.442  43.795   3.203
64521W        W24057  34.479  25.209  12.095
64522W        W24058  38.931  28.986   2.230
64523W        W24059  31.026  44.363  14.768
64524W        W24060   6.387  33.528   0.810
64525W        W24061  35.951   6.861  13.799
64526W        W24062   9.889  25.573   5.729
64527W        W24063   9.661  22.614   1.417
64528W        W24064  21.575  12.805   0.884
64529W        W24065   7.305   5.801   1.413
64530W        W24066  38.538  28.559  14.812
64531W        W24067   9.254  15.797   5.215
64532W        W24068   4.254   2.805  11.933
64533W        W24069  35.411  18.707  14.478
64534W        W24070  23.694  21.146   3.697
64535W        W24071  35.579   3.757   1.815
64536W        W24072  12.280  18.219   1.709
64537W        W24073  18.641  14.822   3.865
64538W        W24074  30.541  32.539  12.043
64539W        W24075  28.651  34.901   2.737
64540W        W24076  42.827  16.145   1.769
64541W        W24077  24.669  40.315  11.489
64542W        W24078  28.180  26.687   3.273
64543W        W24079   3.757   7.841  11.098
64544W        W24080   0.753   3.742  14.016
64545W        W24081   0.876  34.471  14.972
64546W        W24082   3.389   7.243  10.030
64547W        W24083  31.428  35.590   3.852
64548W        W24084  25.527  38.888  13.401
64549W        W24085   1.735  39.834   4.303
64550W        W24086   5.869   0.334   0.282
64551W        W24087   9.846   0.920  12.438
64552W        W24088  31.924  23.595  11.430
64553W        W24089  44.889   9.783   0.881
64554W        W24090  23.536  13.846  11.442
64555W        W24091  43.424  43.333  11.967
64556W        W24092  27.079   2.809   4.638
64557W        W24093  18.243  13.798   3.756
64558W        W24094  24.510  13.274  10.961
64559W        W24095  24.504  28.502   4.692
64560W        W24096   9.647  18.608  14.783
64561W        W24097  31.483   7.701   1.303
64562W        W24098   6.395  27.131   9.530
64563W        W24099   2.246   9.783  12.987
64564W        W24100  40.353  13.685   0.892
64565W        W24101  15.718  30.016   4.800
64566W        W24102  41.949  25.585   3.674
64567W        W24103  13.299  36.960  13.509
64568W        W24104  33.621  24.703  11.997
64569W        W24105  20.104  36.058   1.220
64570W        W24106   6.921  34.435   1.758
64571W        W24107  42.955  11.226   3.224
64572W        W24108  42.363  17.607   3.275
64573W        W24109   1.790  31.424   4.796
64574W        W24110  17.588  10.364   3.233
64575W        W24111  15.773   0.372  14.442
64576W        W24112  21.635  22.118   1.874
64577W        W24113  21.608   6.823   2.241
64578W        W24114   6.185  23.630  13.925
64579W        W24115  12.642  41.532   2.367
64580W        W24116  33.382  14.811  11.374
64581W        W24117   4.413  41.888   2.739
64582W        W24118  36.984   3.727  12.887
64583W        W24119  28.601  24.651  13.381
64584W        W24120  19.767   6.207  13.924
64585W        W24121  41.805  32.602   2.717
64586W        W24122  12.677  41.856  10.467
64587W        W24123  17.234  39.969   2.371
64588W        W24124  16.577   6.224  12.040
64589W        W24125  40.879  13.264   1.728
64590W        W24126  18.609  42.975  12.466
64591W        W24127  31.538  11.772  10.572
64592W        W24128  30.619  33.101  14.949
64593W        W24129  33.525   7.218   2.689
64594W        W24130   2.353  34.609   4.350
64595W        W24131  14.621  10.853  12.556
64596W        W24132  26.654   9.764  10.102
64597W        W24133  14.238  18.174  12.575
64598W        W24134  17.616  40.831  11.437
64599W        W24135  18.692   6.699  14.433
64600W        W24136  41.331  43.283   0.917
64601W        W24137  10.647  25.052  11.395
64602W        W24138   7.396  35.381   1.805
64603W        W24139  31.137  38.520  12.392
64604W        W24140  43.429  11.662   2.407
64605W        W24141   0.829  20.134  11.435
64606W        W24142   4.877  21.228   3.293
64607W        W24143  18.602  36.044   2.848
64608W        W24144  23.185   7.771   2.294
64609W        W24145  33.388  15.303   1.240
64610W        W24146  13.756  44.974   4.137
64611W        W24147  25.504  26.171  13.019
64612W        W24148  34.517   2.317   0.841
64613W        W24149   4.274  34.403  10.474
64614W        W24150  22.682   1.782  14.852
64615W        W24151  31.623   4.261  14.505
64616W        W24152  44.780  35.583  12.439
64617W        W24153   3.841  30.605  14.361
64618W        W24154  33.426   6.722  11.906
64619W        W24155   9.254   7.716  10.022
64620W        W24156  24.665   7.285   2.372
64621W        W24157   8.894   9.236   3.214
64622W        W24158  28.645   5.699   3.360
64623W        W24159  32.627  17.579   3.855
64624W        W24160  23.596  29.169  14.788
64625W        W24161   0.986  15.682   2.843
64626W        W24162   7.757  10.181   4.630
64627W        W24163  30.495  18.638   2.728
64628W        W24164  35.988  18.696   2.208
64629W        W24165  16.269  25.185   1.857
64630W        W24166  11.644  27.131   9.522
64631W        W24167  23.139  13.198  12.414
64632W        W24168  43.331  31.016  12.404
64633W        W24169   0.335  35.372   3.168
64634W        W24170  40.503   5.368   0.960
64635W        W24171  27.601  41.949   3.325
64636W        W24172  23.574  23.729   0.755
64637W        W24173  12.796  11.663   0.353
64638W        W24174  22.076   4.296  12.514
64639W        W24175  40.546  32.069  10.982
64640W        W24176   7.212   5.399   4.747
64641W        W24177  24.115  41.941  10.629
64642W        W24178  19.710  38.950   3.257
64643W        W24179  33.569  43.776  10.512
64644W        W24180  12.301  40.483   3.316
64645W        W24181  28.017   3.872   0.337
64646W        W24182  31.119   4.773  13.913
64647W        W24183  18.073  31.078  13.951
64648W        W24184  18.599   3.914  14.023
64649W        W24185  37.932   6.347   4.654
64650W        W24186  31.575  17.726  11.077
64651W        W24187  43.973   0.946  11.528
64652W        W24188  28.538  19.271   1.384
64653W        W24189  14.320  43.974  10.476
64654W        W24190   2.777  17.670  11.993
64655W        W24191  26.513  16.615   3.260
64656W        W24192  12.295  41.796   2.894
64657W        W24193  44.431  36.098  11.411
64658W        W24194  34.035  44.829   3.633
64659W        W24195  43.768  26.073   1.370
64660W        W24196  14.279  31.572   1.831
64661W        W24197  24.563  43.808   2.289
64662W        W24198   8.290  24.502   3.352
64663W        W24199  24.999  32.894  14.812
64664W        W24200  19.640  36.903  11.876
64665W        W24201   2.301  22.114   2.316
64666W        W24202  25.542   2.950  13.413
64667W        W24203  38.869  23.148   2.884
64668W        W24204  15.798  25.147  11.021
64669W        W24205   2.392  41.405  12.576
64670W        W24206  40.486  29.633   3.297
64671W        W24207  44.767  41.028  10.612
64672W        W24208  22.194  13.210  14.465
64673W        W24209  42.438  11.223   9.920
64674W        W24210  44.277  35.395   4.622
64675W        W24211  40.884  38.562   3.370
64676W        W24212  24.989  39.479   4.191
64677W        W24213  19.066  22.623   3.672
64678W        W24214   5.826  17.629  13.865
64679W        W24215  41.389  40.825   2.417
64680W        W24216  38.923  14.795   2.259
64681W        W24217  42.031  33.625   4.726
64682W        W24218  40.838  23.213  12.064
64683W        W24219  21.732  26.531   4.155
64684W        W24220  29.539  38.863   4.352
64685W        W24221  14.605  15.106   4.652
64686W        W24222  19.557  18.564  13.504
64687W        W24223  34.102  42.292   1.751
64688W        W24224  38.463  36.473  11.076
64689W        W24225  41.035  34.592  11.977
64690W        W24226  17.095  37.877   2.305
64691W        W24227  43.789   2.302  11.012
64692W        W24228  23.664  34.433  12.477
64693W        W24229   3.913   9.739  14.947
64694W        W24230  18.228  35.955   4.693
64695W        W24231   6.842  21.183   0.257
64696W        W24232  28.988   7.884   4.667
64697W        W24233  24.173   5.251  12.009
64698W        W24234  38.465  33.471   3.782
64699W        W24235   8.657  22.179  12.085
64700W        W24236  36.978  27.167   0.248
64701W        W24237  32.553  21.151   1.425
64702W        W24238  25.976  11.310   4.614
64703W        W24239  16.318  36.907   3.683
64704W        W24240   0.910  31.532   2.882
64705W        W24241  21.166  33.402  12.971
64706W        W24242   0.279  23.084  11.917
64707W        W24243  34.442  31.482  11.520
64708W        W24244  14.732  36.064  11.427
64709W        W24245  25.042   9.810   3.171
64710W        W24246   8.689  25.498   5.611
64711W        W24247  34.062  16.088   1.873
64712W        W24248   7.895  14.258   2.750
64713W        W24249   6.835   2.458  12.573
64714W        W24250  43.404  41.978  11.919
64715W        W24251   1.778  40.528  14.339
64716W        W24252  32.937  24.210   3.758
64717W        W24253   8.284  26.086  13.855
64718W        W24254  13.207  37.878  14.337
64719W        W24255  35.107  21.065   4.300
64720W        W24256   8.705   7.263   1.247
64721W        W24257  27.067  12.327   0.839
64722W        W24258  33.894  36.069  14.848
64723W        W24259   6.780  11.149  10.911
64724W        W24260   3.933  22.730  12.951
64725W        W24261  38.387  33.436  11.576
64726W        W24262  25.694  39.520  13.817
64727W        W24263  36.432  35.013  11.496
64728W        W24264  17.087  31.607  13.471
64729W        W24265  24.030  32.053   0.455
64730W        W24266  34.559  37.914  14.469
64731W        W24267  29.116  41.517   0.753
64732W        W24268  38.851  38.511   2.725
64733W        W24269  41.984  39.025   3.204
64734W        W24270  19.178  43.378  14.970
64735W        W24271  21.662   9.269  12.461
64736W        W24272  22.628  19.085   1.368
64737W        W24273   0.950  24.152   1.442
64738W        W24274  26.643  23.524   2.844
64739W        W24275   6.260  41.929  11.920
64740W        W24276   5.231  26.537  14.309
64741W        W24277  38.439  13.702   3.386
64742W        W24278  25.002  20.759   5.318
64743W        W24279  20.555   5.203  11.076
64744W        W24280  32.015   6.688  12.904
64745W        W24281  16.708  13.816   2.224
64746W        W24282  36.464  10.869  13.830
64747W        W24283   9.734  13.218   0.819
64748W        W24284   0.888  11.336  12.990
64749W        W24285  39.352  38.444  11.069
64750W        W24286  21.063  41.812   2.810
64751W        W24287  30.655  28.670  14.345
64752W        W24288  28.984  17.130  11.965
64753W        W24289  28.562  40.847  12.992
64754W        W24290  43.830   7.293   3.192
64755W        W24291  43.948  43.448  12.477
64756W        W24292   4.723  10.176   4.338
64757W        W24293  17.258  28.578   4.280
64758W        W24294  32.457  22.734  13.875
64759W        W24295   0.333  44.288  11.504
64760W        W24296  18.675  32.992  14.005
64761W        W24297   9.825  24.529  13.016
64762W        W24298  43.890  16.582   2.313
64763W        W24299  24.703  30.540  12.569
64764W        W24300   9.732  10.315  14.315
64765W        W24301  20.699  31.520   2.847
64766W        W24302   7.181  32.965  11.059
64767W        W24303  40.330  21.114  12.420
64768W        W24304   3.329  34.944   3.802
64769W        W24305  23.095  41.497  10.611
64770W        W24306  29.494  18.128   1.261
64771W        W24307  29.499  20.642   1.330
64772W        W24308  41.786  25.048   0.852
64773W        W24309  13.711  38.961  14.505
64774W        W24310   0.456   3.756   0.737
64775W        W24311   7.868  37.463  13.353
64776W        W24312   2.758  22.512  11.485
64777W        W24313  23.595  22.189  11.975
64778W        W24314  23.073  14.602   0.280
64779W        W24315  11.667  43.348   2.390
64780W        W24316   7.327  44.460  10.070
64781W        W24317  41.424   9.383  10.598
64782W        W24318  12.269  21.710   1.263
64783W        W24319  26.631  42.807  11.875
64784W        W24320  24.183  21.113   2.725
64785W        W24321  10.658  16.782   1.298
64786W        W24322  12.265  41.438  10.933
64787W        W24323  40.451  10.724   4.269
64788W        W24324  27.603  29.016  12.012
64789W        W24325   6.888  27.534  13.821
64790W        W24326  40.376  43.341   4.805
64791W        W24327  27.127  39.053  10.542
64792W        W24328  28.554  29.012  14.929
64793W        W24329  39.931  11.671  10.958
64794W        W24330   9.337  39.425  12.542
64795W        W24331   3.305   3.943  11.989
64796W        W24332  33.517  35.903  13.951
64797W        W24333   6.321  41.443  14.512
64798W        W24334  11.235  19.260  13.979
64799W        W24335  40.456  33.385   2.896
64800W        W24336   9.303   4.358  11.106
64801W        W24337  32.050  28.104  11.868
64802W        W24338  33.990  41.344   0.388
64803W        W24339  23.228  40.931   1.717
64804W        W24340  16.233  34.034  14.373
64805W        W24341  44.819  18.780  10.405
64806W        W24342  32.455   4.917   0.766
64807W        W24343  24.630  41.031   3.206
64808W        W24344  29.078  25.158  13.924
64809W        W24345  35.505  15.677  14.768
64810W        W24346   9.671   1.250   1.419
64811W        W24347  11.675  37.902  14.792
64812W        W24348  22.009  20.567  11.468
64813W        W24349  19.268   7.691  12.064
64814W        W24350  17.195   2.319   3.192
64815W        W24351  15.119  38.842  12.031
64816W        W24352  10.707   6.360  11.401
64817W        W24353  34.610  32.066  10.604
64818W        W24354  19.745  24.021   2.759
64819W        W24355  17.182  13.180  12.899
64820W        W24356  32.483  17.774   4.827
64821W        W24357  27.048  43.362   0.470
64822W        W24358   7.219  32.890   4.235
64823W        W24359  30.499  39.994  11.992
64824W        W24360  14.099  14.689  13.548
64825W        W24361  35.577   9.661   1.386
64826W        W24362  25.514   0.762   3.748
64827W        W24363  32.511   3.903  10.438
64828W        W24364  13.807  22.579  11.453
64829W        W24365  12.260  36.953  14.836
64830W        W24366  41.949  10.346  11.464
64831W        W24367  17.110   1.937   2.338
64832W        W24368  14.683  34.979  11.978
64833W        W24369  42.464  20.742   2.403
64834W        W24370  18.257  28.639  13.879
64835W        W24371  28.633  21.683  13.324
64836W        W24372  15.745  22.710  13.804
64837W        W24373  20.524  13.172  12.960
64838W        W24374  14.321  35.521  13.027
64839W        W24375   8.242  33.094  12.951
64840W        W24376  33.473   0.344  10.103
64841W        W24377  33.061  16.116   3.311
64842W        W24378   9.335   6.248   0.363
64843W        W24379  15.250  19.759   1.873
64844W        W24380  16.695  13.751   2.672
64845W        W24381  34.564  14.249   4.340
64846W        W24382  18.051  43.971  14.868
64847W        W24383  31.133  36.848   0.817
64848W        W24384  36.983  30.992  10.917
64849W        W24385  43.803  12.171  14.841
64850W        W24386  26.177  18.077   3.370
64851W        W24387  25.005   0.890   2.261
64852W        W24388   9.214  44.442   1.714
64853W        W24389  26.554  10.669  13.813
64854W        W24390  32.491   1.747   1.713
64855W        W24391  39.901  24.005   0.857
64856W        W24392  22.116  16.260  14.857
64857W        W24393  32.582  10.864   3.290
64858W        W24394  26.613   1.295   1.294
64859W        W24395  41.528   2.364  13.359
64860W        W24396  22.628  44.478   4.783
64861W        W24397  20.616   7.329   3.657
64862W        W24398   7.214  43.460  13.365
64863W        W24399  28.641  22.706   1.790
64864W        W24400  14.727  26.526  10.592
64865W        W24401   5.832   8.824   2.813
64866W        W24402  11.823  24.213  14.786
64867W        W24403  44.304   3.793   1.694
64868W        W24404  18.766  30.651   4.653
64869W        W24405  26.461   6.820   4.678
64870W        W24406  44.375  10.688  14.813
64871W        W24407  40.011   2.400  12.401
64872W        W24408  24.689  21.706   1.860
64873W        W24409  37.060  21.123   0.821
64874W        W24410  43.771   1.946  14.498
64875W        W24411  14.321   2.373  12.881
64876W        W24412   5.400   9.786   3.818
64877W        W24413  20.165  17.647  12.833
64878W        W24414  31.972   3.903  14.453
64879W        W24415  33.522  16.593   3.231
64880W        W24416  15.724  10.230  10.149
64881W        W24417  30.449   4.778  13.533
64882W        W24418  26.112  28.968   1.850
64883W        W24419  33.570  34.058  13.901
64884W        W24420  16.729   3.382   3.680
64885W        W24421   1.365  29.619  12.064
64886W        W24422  39.817  31.473   1.702
64887W        W24423  20.169  13.138   3.669
64888W        W24424  17.085  29.174   0.304
64889W        W24425  33.626  41.817  12.462
64890W        W24426  18.633  32.038  12.397
64891W        W24427  30.478   9.296   1.920
64892W        W24428  13.665  40.017   3.287
64893W        W24429   4.381   0.899  10.637
64894W        W24430  39.027  18.638  10.491
64895W        W24431  12.361   3.931  11.879
64896W        W24432  16.642  35.855   2.778
64897W        W24433  41.031  42.477  12.857
64898W        W24434  15.123  20.743  11.493
64899W        W24435  11.806  40.485  10.122
64900W        W24436   4.309  36.922   1.265
64901W        W24437  42.472   1.258  11.414
64902W        W24438  10.697   3.721   3.856
64903W        W24439  30.099   9.862  14.968
64904W        W24440   6.857  27.155  10.050
64905W        W24441   1.758  15.732   0.279
64906W        W24442  44.422  22.123  10.049
64907W        W24443  27.981  27.627  13.944
64908W        W24444  43.433  15.107   0.846
64909W        W24445   6.762  18.268   4.318
64910W        W24446  25.145  21.678  10.464
64911W        W24447  14.770  13.621  10.510
64912W        W24448  27.615  15.777  10.970
64913W        W24449  20.119   7.857  14.344
64914W        W24450  41.509   7.729   4.784
64915W        W24451   4.442  11.754   2.862
64916W        W24452  30.457  11.312   2.352
64917W        W24453  37.973  38.387   4.692
64918W        W24454  29.163  42.333  13.503
64919W        W24455  26.460   4.424  12.357
64920W        W24456  37.516  44.815   5.244
64921W        W24457  26.165  35.023  11.893
64922W        W24458   3.902  15.122  14.453
64923W        W24459  11.836  18.237   3.839
64924W        W24460   4.442   4.919  11.990
64925W        W24461   7.877  14.834  11.581
64926W        W24462  31.592  15.750   3.233
64927W        W24463  13.167  17.137  10.575
64928W        W24464  43.496  24.212  12.966
64929W        W24465   7.414  25.986   4.781
64930W        W24466  24.598  35.036  13.367
64931W        W24467  39.541  19.078  13.951
64932W        W24468   8.769   3.927   1.862
64933W        W24469   5.725  32.033  14.776
64934W        W24470  27.125   6.701   4.688
64935W        W24471  35.422  37.399   1.822
64936W        W24472  18.616  43.513   1.383
64937W        W24473  24.534   8.179   2.228
64938W        W24474   4.708  32.913   4.171
64939W        W24475   1.803  30.427  13.865
64940W        W24476  41.793  15.181   2.346
64941W        W24477  16.799  10.223  12.025
64942W        W24478  30.023  42.820   4.124
64943W        W24479  26.142   7.186  10.636
64944W        W24480  40.857  13.268  10.898
64945W        W24481  22.230   8.829  10.414
64946W        W24482   7.173  39.555   1.291
64947W        W24483  14.700  26.578   0.858
64948W        W24484  35.437  27.078  10.606
64949W        W24485  39.399  35.090  11.877
64950W        W24486   7.250   4.789   0.410
64951W        W24487  39.408  11.214  13.019
64952W        W24488  36.075  44.989   1.913
64953W        W24489  14.721   8.768  10.405
64954W        W24490  40.418  30.494   3.305
64955W        W24491  11.285  12.684   3.307
64956W        W24492  33.032   4.291  13.316
64957W        W24493  35.963  24.215  11.534
64958W        W24494   2.292  18.113  12.888
64959W        W24495  29.580  44.463   3.363
64960W        W24496  24.084  41.489   4.222
64961W        W24497  43.947  16.096  11.389
64962W        W24498   1.457  41.020  12.518
64963W        W24499  18.176  35.091  14.490
64964W        W24500   8.194  16.779   2.206
64965W        W24501  11.772  32.126  12.920
64966W        W24502   5.257  42.524   3.329
64967W        W24503  34.396  17.097   0.819
64968W        W24504  30.161  41.332   3.289
64969W        W24505   6.365   1.448   3.345
64970W        W24506  15.655  26.499  12.938
64971W        W24507  22.606  24.656  12.887
64972W        W24508   4.247  36.488   3.366
64973W        W24509   4.727  44.954   4.777
64974W        W24510   3.811   3.734  10.916
64975W        W24511  30.443  22.682   3.190
64976W        W24512   7.351  25.136   1.229
64977W        W24513  34.612  30.532   1.910
64978W        W24514  19.771  11.808  11.559
64979W        W24515   6.900  22.998  11.458
64980W        W24516  13.757  41.903  10.429
64981W        W24517  42.361  43.481   2.394
64982W        W24518   6.234  40.460  13.496
64983W        W24519  27.160   9.875   3.683
64984W        W24520  20.679  31.469   1.894
64985W        W24521  16.226  36.351   4.656
64986W        W24522  10.372  43.331  12.043
64987W        W24523  17.690  29.577  13.502
64988W        W24524  26.138   7.777   0.737
64989W        W24525  38.327  13.712  14.280
64990W        W24526  40.321  23.505   0.435
64991W        W24527  42.513  28.479   0.475
64992W        W24528   1.733  36.391   0.767
64993W        W24529  44.434  27.959   2.366
64994W        W24530  37.530  20.746  12.889
64995W        W24531  36.587   9.679   1.230
64996W        W24532   4.289  10.692  12.861
64997W        W24533  27.534  32.492   2.774
64998W        W24534  42.914   7.174   2.825
64999W        W24535  44.893  37.531   4.185
65000W        W24536  10.244  24.199   3.637
65001W        W24537   6.395  19.252  11.930
65002W        W24538  24.108  33.936  13.548
65003W        W24539  26.516  37.003  13.463
65004W        W24540  40.433  38.405   3.340
65005W        W24541  42.409  11.683  11.386
65006W        W24542  13.714  38.355   1.788
65007W        W24543  36.565   9.300   2.886
65008W        W24544   1.821  15.711   4.333
65009W        W24545  44.481  10.867   2.675
65010W        W24546  30.589  38.865  10.034
65011W        W24547  36.052  37.531   3.672
65012W        W24548  42.452   0.768   4.164
65013W        W24549  27.511   8.893   1.912
65014W        W24550  29.994   3.857  14.787
65015W        W24551  12.748   3.716   2.764
65016W        W24552  32.465  21.210   0.279
65017W        W24553  10.300   2.410  11.914
65018W        W24554   4.745   8.767   1.892
65019W        W24555   8.183  12.669  14.946
65020W        W24556   2.381   6.251  11.100
65021W        W24557  31.103  14.679   0.381
65022W        W24558  13.800  20.640  13.354
65023W        W24559  35.518  19.573   2.360
65024W        W24560  14.646  20.128  11.458
65025W        W24561  24.197   8.181   5.244
65026W        W24562   7.738  23.582  11.040
65027W        W24563   1.956   1.477   1.436
65028W        W24564  11.160  14.731   0.870
65029W        W24565  35.081  13.210  10.904
65030W        W24566  23.990  34.467  11.973
65031W        W24567  36.916   7.706  13.378
65032W        W24568  41.498   5.818   1.373
65033W        W24569  43.984  38.949  12.396
65034W        W24570  36.557  19.253  11.430
65035W        W24571  43.860  36.001  11.558
65036W        W24572   4.721  12.135   1.715
65037W        W24573  29.472  39.440   0.254
65038W        W24574  17.121  35.593   3.854
65039W        W24575  37.969  28.547   4.316
65040W        W24576  23.997  23.606  14.969
65041W        W24577  10.337   6.348   3.203
65042W        W24578   9.330  19.277   1.717
65043W        W24579  17.255  31.492  11.861
65044W        W24580  36.370   9.773   3.321
65045W        W24581   9.766  25.493  10.947
65046W        W24582   9.841   6.257  11.954
65047W        W24583  37.415   0.465  13.354
65048W        W24584  37.350  23.223  14.965
65049W        W24585  17.709  41.302   2.871
65050W        W24586  29.118  40.363  11.064
65051W        W24587  29.920  36.088  12.860
65052W        W24588  14.214  28.949   0.427
65053W        W24589   4.279  18.552   0.746
65054W        W24590  28.954  11.362   3.694
65055W        W24591  28.536   4.219  12.340
65056W        W24592   0.868  29.932  13.446
65057W        W24593  44.424  18.051   4.674
65058W        W24594  18.692  10.834   0.902
65059W        W24595   1.916  29.520   0.402
65060W        W24596  31.096  24.478   0.252
65061W        W24597  43.471   7.405   3.205
65062W        W24598  22.184  41.369  13.888
65063W        W24599  29.933  19.201   1.775
65064W        W24600  24.485  26.617   4.610
65065W        W24601  16.178  26.614  14.453
65066W        W24602  10.347  34.034   2.873
65067W        W24603   9.319  26.497  14.813
65068W        W24604  11.857  34.050   3.800
65069W        W24605  43.859   4.879  14.329
65070W        W24606   8.727  19.596  13.860
65071W        W24607  30.644   7.717   4.749
65072W        W24608  37.020  40.904  11.535
65073W        W24609  12.186  26.651   2.202
65074W        W24610  24.043  34.461   1.732
65075W        W24611  25.707  15.818  13.420
65076W        W24612   3.945   4.896  10.050
65077W        W24613  25.565  10.689  11.927
65078W        W24614  13.682  10.747  10.556
65079W        W24615  18.051  44.403  11.394
65080W        W24616  14.130  31.458  11.866
65081W        W24617   4.790  37.064  13.838
65082W        W24618  11.690  12.669  12.483
65083W        W24619  32.472  38.401  14.392
65084W        W24620  15.099  33.570   0.247
65085W        W24621  30.557  18.776   5.272
65086W        W24622  13.726  10.282  11.012
65087W        W24623  41.535  35.545   0.950
65088W        W24624  36.583  40.940  13.536
65089W        W24625   0.935  37.967  10.981
65090W        W24626  42.972  28.507  12.996
65091W        W24627  39.050  27.103  14.323
65092W        W24628  43.410   1.249   2.801
65093W        W24629  22.576  34.508   2.355
65094W        W24630   2.905  22.513   0.902
65095W        W24631  10.335  24.186   4.703
65096W        W24632  13.167  30.034  11.938
65097W        W24633  10.167   7.327  13.331
65098W        W24634  27.167   3.263  12.410
65099W        W24635  25.568  25.131  14.964
65100W        W24636  31.487   1.393   0.326
65101W        W24637  25.175  35.471   4.162
65102W        W24638  30.918  25.696   2.357
65103W        W24639  17.122  30.129   3.672
65104W        W24640  26.458  33.521  14.353
65105W        W24641  29.455  23.024  11.117
65106W        W24642  34.078  21.168  12.570
65107W        W24643  17.788   1.420  10.554
65108W        W24644   1.887  43.843  14.439
65109W        W24645   9.300  16.236  13.807
65110W        W24646  36.877   4.406   3.210
65111W        W24647  26.616  20.191   3.659
65112W        W24648  16.243  31.901   3.286
65113W        W24649  34.558  18.147  11.103
65114W        W24650  40.518  30.438   3.744
65115W        W24651   9.207   1.400   2.264
65116W        W24652  14.095  22.594   4.122
65117W        W24653   2.731  20.263   4.188
65118W        W24654  40.512  40.471  10.518
65119W        W24655   3.329  12.780  14.833
65120W        W24656  20.059  31.600   4.827
65121W        W24657  22.227  18.776   4.757
65122W        W24658  30.488  23.208   0.380
65123W        W24659  39.498   6.787  14.295
65124W        W24660  21.191  17.100  11.867
65125W        W24661   8.192  42.303   4.765
65126W        W24662  38.047  30.417  11.457
65127W        W24663  11.800   6.331   2.668
65128W        W24664  17.614  17.127   2.178
65129W        W24665  26.659  28.160   3.683
65130W        W24666  31.570  15.812  12.381
65131W        W24667   7.792  30.050  12.497
65132W        W24668  32.494  41.909   0.417
65133W        W24669  33.921  28.534  11.927
65134W        W24670  36.863   8.829  10.643
65135W        W24671  23.704  22.567   1.800
65136W        W24672  15.132  21.743   2.682
65137W        W24673  37.893  34.931  13.319
65138W        W24674   2.825   2.230   2.722
65139W        W24675  41.928  29.459   4.736
65140W        W24676  24.095  27.056   4.814
65141W        W24677  16.136  18.696   4.324
65142W        W24678  38.909  43.405   1.783
65143W        W24679   1.877  24.211   3.840
65144W        W24680  26.686  40.853  13.353
65145W        W24681  40.874  33.564   0.381
65146W        W24682  44.757   0.361   3.264
65147W        W24683  22.562  34.949   4.632
65148W        W24684  22.669  25.100   0.878
65149W        W24685  39.351   2.800   4.154
65150W        W24686  26.580  28.071  13.053
65151W        W24687  30.949  31.032   1.424
65152W        W24688  38.551  31.091   4.135
65153W        W24689  40.041  12.305   4.243
65154W        W24690  25.145  14.694   0.855
65155W        W24691  20.626  26.041   2.205
65156W        W24692  26.540  21.139   1.285
65157W        W24693  36.371  31.144   2.264
65158W        W24694   0.891  24.492   3.378
65159W        W24695  39.374   8.397   3.757
65160W        W24696  18.658  16.802  12.454
65161W        W24697  25.965  17.760  11.954
65162W        W24698  22.222  35.555  13.537
65163W        W24699  12.312  25.980   5.775
65164W        W24700  15.702   4.811  14.364
65165W        W24701  25.181  41.386   3.865
65166W        W24702  18.564   4.834   2.213
65167W        W24703   4.879  40.927  12.838
65168W        W24704  37.998  31.048  13.440
65169W        W24705  40.522  37.470   3.771
65170W        W24706   9.305  14.767  12.501
65171W        W24707  35.397  33.586   4.123
65172W        W24708  30.016   7.359   3.819
65173W        W24709   3.236  14.219   3.759
65174W        W24710  41.441  35.941   0.890
65175W        W24711   3.454  18.789   3.375
65176W        W24712  32.886   3.234   1.247
65177W        W24713  44.875   2.235  12.855
65178W        W24714  17.677   6.759  13.923
65179W        W24715  21.619  17.790  13.969
65180W        W24716  20.039  34.921   2.345
65181W        W24717  18.625  13.284   4.838
65182W        W24718  12.240   2.399  12.419
65183W        W24719   1.348  39.000  13.372
65184W        W24720   3.273  39.412   4.149
65185W        W24721  13.129  15.234  13.357
65186W        W24722  18.094  31.408   4.157
65187W        W24723   4.779  39.061  11.546
65188W        W24724  19.049  14.669  11.868
65189W        W24725  33.489  37.037   9.956
65190W        W24726   2.847  33.023  12.085
65191W        W24727  40.368  10.822  13.978
65192W        W24728  34.461   8.318   4.147
65193W        W24729  26.086  14.128   2.371
65194W        W24730  32.607  36.919   0.359
65195W        W24731  30.645  43.898   3.305
65196W        W24732   3.382  31.450  12.087
65197W        W24733   8.823  39.421   1.340
65198W        W24734  21.540  18.549  11.503
65199W        W24735   5.889   0.383  12.992
65200W        W24736   2.823  24.711   2.736
65201W        W24737   5.847   0.910  11.063
65202W        W24738  15.266  13.779   2.411
65203W        W24739   1.348  15.591   3.219
65204W        W24740  21.584  32.596  14.469
65205W        W24741  20.248  35.956   1.792
65206W        W24742  20.536   1.771  13.507
65207W        W24743  41.815   8.739  12.826
65208W        W24744  42.505  38.874   1.819
65209W        W24745  44.270  28.027  11.993
65210W        W24746   1.277  39.435   1.848
65211W        W24747  10.807  21.542   1.340
65212W        W24748   3.890   5.695  10.925
65213W        W24749  37.385  33.622  14.330
65214W        W24750  36.516  14.115  11.960
65215W        W24751  33.989  36.401  11.485
65216W        W24752   8.191  28.614  11.964
65217W        W24753  10.284  41.336  13.026
65218W        W24754  19.750  15.145  11.103
65219W        W24755  44.896  39.421  13.461
65220W        W24756   1.286  16.759  11.377
65221W        W24757   9.867  23.130   0.820
65222W        W24758  11.352   3.733  14.513
65223W        W24759  29.016  39.519  12.381
65224W        W24760  41.937  18.191   1.246
65225W        W24761  28.110  17.655  10.066
65226W        W24762  13.309  44.346   3.334
65227W        W24763  32.024  42.777  11.452
65228W        W24764   8.385  12.273   4.131
65229W        W24765  28.179  22.220   2.849
65230W        W24766  10.362  10.182   3.290
65231W        W24767  17.740  29.632   1.359
65232W        W24768  41.396  31.537  13.926
65233W        W24769  40.811   9.325   1.732
65234W        W24770  25.009   4.871   1.716
65235W        W24771  21.739  36.044   1.433
65236W        W24772  31.946   5.706   0.825
65237W        W24773  39.318  14.752  11.542
65238W        W24774  12.751  39.061   1.848
65239W        W24775  24.581  24.722   2.321
65240W        W24776  42.828  32.899  10.931
65241W        W24777  12.797  37.564   0.739
65242W        W24778   4.211  19.585   4.298
65243W        W24779  14.160  38.521  10.084
65244W        W24780  26.079  36.364  12.927
65245W        W24781  22.719  24.717  11.561
65246W        W24782  35.968  12.843   1.308
65247W        W24783  26.701  35.546  14.471
65248W        W24784  19.766  33.476  13.792
65249W        W24785   6.271  37.959   0.476
65250W        W24786  32.476  41.832  13.797
65251W        W24787  30.486  19.626   1.292
65252W        W24788  23.193   4.306   4.332
65253W        W24789  14.326  40.452  11.462
65254W        W24790  40.309  32.112  13.480
65255W        W24791   8.778  22.101  11.396
65256W        W24792  21.688  31.637   1.228
65257W        W24793  19.246  14.680  10.519
65258W        W24794  32.974  22.225   1.410
65259W        W24795   8.234  18.758   3.345
65260W        W24796  30.942   7.713   3.198
65261W        W24797  40.020  36.021   0.301
65262W        W24798  22.506   3.317   3.297
65263W        W24799  21.649  39.040  12.832
65264W        W24800   9.326  10.656   2.759
65265W        W24801   5.696  26.115   2.770
65266W        W24802  13.305  16.156   0.850
65267W        W24803  33.941   5.273  13.979
65268W        W24804  12.761  33.932   0.340
65269W        W24805  29.465   4.935  14.792
65270W        W24806   8.833   3.436   4.182
65271W        W24807  38.900  36.379   3.692
65272W        W24808  27.466  23.580   3.842
65273W        W24809  44.808  19.756  12.039
65274W        W24810  28.974  12.813   0.752
65275W        W24811  19.597  15.593   2.390
65276W        W24812  35.916  25.050   4.744
65277W        W24813  33.565  32.093  10.446
65278W        W24814  21.041  25.577   1.415
65279W        W24815  34.455   8.378  12.882
65280W        W24816  39.833   5.314   0.828
65281W        W24817  25.136  36.871  10.540
65282W        W24818  44.443  19.188   2.769
65283W        W24819  30.055  24.628   3.181
65284W        W24820  39.044  22.706   4.219
65285W        W24821  19.126  38.559   2.669
65286W        W24822  38.475  29.151   2.366
65287W        W24823  39.474  10.798   3.265
65288W        W24824  17.147  35.109  14.478
65289W        W24825   8.401  39.870   1.828
65290W        W24826  44.009  33.617  11.601
65291W        W24827   1.330  27.028  10.551
65292W        W24828   4.278   1.791  13.491
65293W        W24829  44.269  35.093   4.340
65294W        W24830  34.031  24.521   2.228
65295W        W24831   8.781  35.075   1.373
65296W        W24832  33.393   8.271  10.584
65297W        W24833  32.608  25.174   3.721
65298W        W24834   6.842  21.572   2.858
65299W        W24835   3.366  10.793   4.173
65300W        W24836  18.257  15.634   3.250
65301W        W24837   8.342  21.146  12.372
65302W        W24838   5.801  33.502  11.921
65303W        W24839  32.393  31.088   1.749
65304W        W24840  37.023  28.003  13.963
65305W        W24841   4.434   1.461   4.317
65306W        W24842  36.589  12.335  10.431
65307W        W24843  11.147   0.811  12.872
65308W        W24844  23.010  39.941  11.036
65309W        W24845   1.301  33.521  12.382
65310W        W24846   8.840  24.178   0.847
65311W        W24847  18.776  36.984  12.972
65312W        W24848  31.560  42.482  12.447
65313W        W24849  29.665  42.900  14.354
65314W        W24850  35.504   8.865   0.852
65315W        W24851   4.843  41.409  11.935
65316W        W24852   6.920  13.217   2.288
65317W        W24853  13.604  24.572  10.552
65318W        W24854  10.319   5.729  12.074
65319W        W24855   1.809  31.541   3.243
65320W        W24856  36.083   8.850  14.388
65321W        W24857   1.965  30.007  14.835
65322W        W24858  41.970   9.674  14.337
65323W        W24859  29.999  27.639  10.529
65324W        W24860  22.243   3.461   3.308
65325W        W24861  32.948  31.484  12.854
65326W        W24862  16.642  44.379  11.546
65327W        W24863  16.089  13.213   1.847
65328W        W24864  13.273  34.050   2.250
65329W        W24865  21.717  35.436   2.690
65330W        W24866   6.352  13.657  14.358
65331W        W24867  30.119  40.812  11.863
65332W        W24868  17.730  18.770  14.972
65333W        W24869  17.226   7.690  12.085
65334W        W24870  32.573   6.754   2.280
65335W        W24871  36.896  29.571   4.791
65336W        W24872   4.734  38.932  12.456
65337W        W24873  28.078  40.814  12.029
65338W        W24874  30.460  18.595   1.356
65339W        W24875  30.955  28.069   3.629
65340W        W24876  42.450  38.502   4.350
65341W        W24877   5.878  32.975  10.501
65342W        W24878  29.601  34.882   9.937
65343W        W24879  19.621  14.709  12.378
65344W        W24880  31.035  33.961  14.460
65345W        W24881  22.664  27.993  14.494
65346W        W24882   1.909   1.737  12.042
65347W        W24883  29.129  32.957  11.433
65348W        W24884  41.846  40.975   3.636
65349W        W24885  20.721  24.070   1.887
65350W        W24886  31.553  14.788  14.819
65351W        W24887  36.872  20.102   1.770
65352W        W24888   2.933  39.365   1.240
65353W        W24889  20.583  29.424  13.308
65354W        W24890  19.565  27.958  11.113
65355W        W24891  13.299   1.361  14.930
65356W        W24892  23.581  36.923   2.321
65357W        W24893  26.195  12.299  12.947
65358W        W24894  26.174   0.467  13.475
65359W        W24895  22.175   9.867   2.385
65360W        W24896  18.051   3.943   2.264
65361W        W24897  24.112   7.307  12.855
65362W        W24898  19.627  37.389   2.219
65363W        W24899  38.958   7.803  11.973
65364W        W24900  18.698  28.555  10.543
65365W        W24901  16.663   7.307  12.068
65366W        W24902  40.998   5.323  12.530
65367W        W24903  37.952   2.362  11.887
65368W        W24904  23.196   5.361   0.371
65369W        W24905   6.710   3.253   4.738
65370W        W24906  23.583  25.630   4.320
65371W        W24907  22.194  19.637  14.032
65372W        W24908  35.009  37.053  13.798
65373W        W24909  27.058  41.978   2.379
65374W        W24910  43.014  21.261   1.856
65375W        W24911  28.978  11.626   3.764
65376W        W24912  37.990  34.598   1.368
65377W        W24913  14.267  23.577   4.704
65378W        W24914   0.932  18.074   3.768
65379W        W24915  21.066  17.654   1.264
65380W        W24916  20.719   9.348  13.405
65381W        W24917  39.878   2.792   1.243
65382W        W24918   7.196  18.133  13.378
65383W        W24919  35.492   3.390   3.328
65384W        W24920  36.356  36.394   4.146
65385W        W24921  16.279   7.367  14.819
65386W        W24922  19.073  37.893   3.226
65387W        W24923  28.099  30.983  12.890
65388W        W24924   5.843  22.683  10.414
65389W        W24925  34.467   6.696   0.291
65390W        W24926  12.116  29.024  12.094
65391W        W24927  21.747  22.711  13.949
65392W        W24928  35.574   3.314  14.343
65393W        W24929   4.703  22.174   4.615
65394W        W24930   6.906  29.513  12.825
65395W        W24931   4.225   3.726   0.812
65396W        W24932  11.710  41.304   1.863
65397W        W24933   8.854  41.502   0.302
65398W        W24934   9.265  35.476  13.379
65399W        W24935   0.906  15.236   1.785
65400W        W24936  10.301   1.880   3.304
65401W        W24937  43.345  43.418   1.386
65402W        W24938  18.770   1.392   1.423
65403W        W24939  25.069  19.131   0.374
65404W        W24940  29.117  15.278  12.440
65405W        W24941  30.476  12.139   0.346
65406W        W24942  13.240  39.872   1.823
65407W        W24943  41.015   5.881  11.437
65408W        W24944   9.186  23.665   2.903
65409W        W24945  27.032  23.082   0.866
65410W        W24946  37.493   6.188   4.314
65411W        W24947  25.506  21.694   1.368
65412W        W24948   1.257  36.874   1.857
65413W        W24949  14.228  11.247  11.477
65414W        W24950   7.770  37.916  14.451
65415W        W24951   1.407  31.115   3.211
65416W        W24952   7.374   6.190  14.307
65417W        W24953  40.036  12.666   0.295
65418W        W24954  38.470  38.570  14.953
65419W        W24955  24.115  30.593  10.446
65420W        W24956  18.725   2.752   4.821
65421W        W24957  33.603   6.407   4.323
65422W        W24958  33.491  22.042   2.401
65423W        W24959  34.027  24.718  10.593
65424W        W24960  42.364  32.521  13.882
65425W        W24961  21.076   8.237   1.355
65426W        W24962  23.990  20.058   3.692
65427W        W24963  17.694   9.255  14.429
65428W        W24964  22.242  44.351   2.835
65429W        W24965   3.227  28.083  13.330
65430W        W24966  16.236  32.047   4.710
65431W        W24967  13.694  24.613   4.192
65432W        W24968   1.890  39.396  10.613
65433W        W24969  15.159  19.681   0.906
65434W        W24970  37.847  17.124  12.935
65435W        W24971   9.800   4.863  11.537
65436W        W24972  35.490  38.382  10.441
65437W        W24973  24.552  38.856   1.932
65438W        W24974  22.061  31.513   1.433
65439W        W24975  35.928  43.833  12.529
65440W        W24976  21.577  44.920   2.280
65441W        W24977  28.950  22.670   2.334
65442W        W24978  43.312  10.650  14.903
65443W        W24979  42.821   7.904   1.352
65444W        W24980  10.368  24.112  10.972
65445W        W24981  21.570  24.582  14.454
65446W        W24982   0.928  30.469  13.044
65447W        W24983  39.497  32.482  12.411
65448W        W24984  43.455  18.126   9.950
65449W        W24985  25.218  29.493   1.314
65450W        W24986  42.793  20.532   3.757
65451W        W24987  44.874  19.705  14.963
65452W        W24988  38.451  11.678  14.484
65453W        W24989  32.414  13.334   3.662
65454W        W24990  41.911   6.814  12.833
65455W        W24991  40.471  36.395  10.906
65456W        W24992  41.519  13.230  11.028
65457W        W24993  30.428  38.869   4.710
65458W        W24994  22.688   5.278  13.379
65459W        W24995  14.594  25.168  14.015
65460W        W24996  10.747  23.098  13.894
65461W        W24997  32.938  15.234  12.529
65462W        W24998  37.056  17.750   2.718
65463W        W24999  39.920  34.552   3.178
65464W        W25000  27.535  32.943   3.290
65465W        W25001  21.546  21.191   2.662
65466W        W25002   1.243  15.177   0.785
65467W        W25003  15.244  11.328  11.556
65468W        W25004  12.832   7.372  12.547
65469W        W25005  29.556   9.306  11.081
65470W        W25006  44.920  25.601   2.368
65471W        W25007   9.324   6.782   4.266
65472W        W25008  14.588  24.219   3.267
65473W        W25009  38.522  14.644   1.794
65474W        W25010  19.607  42.973  14.911
65475W        W25011  29.519  18.788  10.462
65476W        W25012  40.339  38.490  14.311
65477W        W25013  22.063   8.368   0.803
65478W        W25014  43.320  11.708   3.193
65479W        W25015  36.005  31.032  12.345
65480W        W25016  38.331  34.962   3.724
65481W        W25017   1.848  20.545  11.380
65482W        W25018  43.895   1.379   0.855
65483W        W25019   6.905  44.825   1.301
65484W        W25020  16.273  42.427   4.233
65485W        W25021  27.604  42.887  13.969
65486W        W25022  12.732  39.436   4.169
65487W        W25023  30.552  21.139  12.371
65488W        W25024  34.995   4.273  13.990
65489W        W25025   4.840  13.262   0.355
65490W        W25026  17.595  22.104  12.916
65491W        W25027  43.995  25.096  10.148
65492W        W25028  12.637  38.925  11.454
65493W        W25029  13.643   7.290   3.752
65494W        W25030  35.861  14.228  11.082
65495W        W25031  16.260  32.984  12.401
65496W        W25032  40.948  21.664   3.160
65497W        W25033   0.447  21.170  14.961
65498W        W25034  25.121  24.158  11.554
65499W        W25035  20.674   7.838   0.332
65500W        W25036  23.532  18.732  13.539
65501W        W25037  43.909  33.522   3.654
65502W        W25038  13.238  42.883  12.966
65503W        W25039  42.971  39.435  13.920
65504W        W25040   4.805  40.926   0.726
65505W        W25041  15.765  23.070  14.301
65506W        W25042  43.911  22.744   4.717
65507W        W25043   3.302  10.377   1.815
65508W        W25044  33.624  24.642   2.769
65509W        W25045  22.663  26.571  11.609
65510W        W25046  32.468  29.091   1.694
65511W        W25047   2.838  44.819   3.264
65512W        W25048  25.504  40.959   1.881
65513W        W25049  40.328   4.375   2.308
65514W        W25050  33.909   5.228   4.756
65515W        W25051   0.363   7.781   4.330
65516W        W25052  18.195  36.038   0.369
65517W        W25053   0.976  29.976  12.396
65518W        W25054  12.157  27.114   5.307
65519W        W25055  16.603  22.609   0.801
65520W        W25056  29.073  37.872  13.022
65521W        W25057   0.253  35.534  13.533
65522W        W25058  22.042  39.395   1.914
65523W        W25059   8.358  23.078  11.993
65524W        W25060  21.164  35.425  12.347
65525W        W25061  43.889  19.554   2.687
65526W        W25062   4.353  27.060   2.674
65527W        W25063   6.374  25.697   4.254
65528W        W25064  44.882  28.150  14.275
65529W        W25065  17.105  36.889  13.027
65530W        W25066  35.091  25.632  14.447
65531W        W25067  24.985  23.990   5.157
65532W        W25068  15.803  39.358  12.936
65533W        W25069  40.424  10.747  14.994
65534W        W25070  31.114  25.673   1.920
65535W        W25071  20.758   5.378  10.597
65536W        W25072  23.008  22.734  14.926
65537W        W25073   0.292  30.645  12.082
65538W        W25074  11.769  22.223   1.756
65539W        W25075  43.343  18.277   0.934
65540W        W25076  41.937  24.102   3.183
65541W        W25077  10.833  21.208   3.768
65542W        W25078  21.647  11.244  11.860
65543W        W25079  17.584  14.203  14.406
65544W        W25080  37.993   2.765   1.263
65545W        W25081  19.622   6.704  14.987
65546W        W25082   7.848  39.492  10.557
65547W        W25083  35.858  14.588   2.707
65548W        W25084   3.787  32.077   4.140
65549W        W25085  27.074   2.448  11.968
65550W        W25086   3.345  14.261   4.264
65551W        W25087  12.836   2.820  12.557
65552W        W25088  17.230  39.954  10.513
65553W        W25089  26.964  35.972   3.712
65554W        W25090  39.862  35.059  11.887
65555W        W25091  38.365  42.334   2.284
65556W        W25092   0.352  30.464  13.407
65557W        W25093  40.412   7.269   1.893
65558W        W25094  41.473  21.075  13.956
65559W        W25095   7.364  19.565  10.991
65560W        W25096  39.522  38.971  13.952
65561W        W25097  37.574  37.947  14.798
65562W        W25098  27.544   1.811  14.981
65563W        W25099  38.344  13.106  14.908
65564W        W25100  10.140  13.706   3.327
65565W        W25101   3.948  27.601  12.824
65566W        W25102   6.422   7.271  14.294
65567W        W25103  33.976  10.768   3.219
65568W        W25104  35.551  16.740   1.860
65569W        W25105  21.168  31.591   2.768
65570W        W25106  40.939   1.828   4.765
65571W        W25107   1.951  16.699  14.880
65572W        W25108  28.931  21.709  13.401
65573W        W25109  27.026  18.557   0.385
65574W        W25110   3.314  37.577  10.961
65575W        W25111   8.254  26.136   2.741
65576W        W25112   7.906   2.268   1.739
65577W        W25113  34.394  36.932  14.305
65578W        W25114  23.192  29.558   1.912
65579W        W25115  36.885  42.901   3.640
65580W        W25116  41.334  32.594  11.043
65581W        W25117  25.613  14.768   1.386
65582W        W25118  35.462  34.027   1.359
65583W        W25119  40.341   4.740  10.500
65584W        W25120   4.824  43.515  14.815
65585W        W25121  32.129  22.656  14.997
65586W        W25122  10.256  31.596  13.794
65587W        W25123  28.055  41.379  12.350
65588W        W25124   4.249  22.050  10.577
65589W        W25125  10.743  25.033  13.455
65590W        W25126  22.077  36.883  12.346
65591W        W25127   9.395   1.870  11.478
65592W        W25128   0.438  25.127   0.287
65593W        W25129  22.207  18.158   1.298
65594W        W25130  26.607  21.025  13.325
65595W        W25131   8.320  15.646   0.386
65596W        W25132  44.380  11.137  12.988
65597W        W25133  13.157   3.243  11.418
65598W        W25134  13.109  14.173  14.466
65599W        W25135  10.283  12.236   3.818
65600W        W25136  32.461   7.266  14.930
65601W        W25137  23.574  38.475  12.385
65602W        W25138  38.463  29.966  13.495
65603W        W25139   7.325  12.677   2.318
65604W        W25140  15.267  25.501  14.367
65605W        W25141   6.199   1.794  10.571
65606W        W25142  26.658  15.172   0.471
65607W        W25143  12.794  29.096  11.591
65608W        W25144  17.585   1.387  11.959
65609W        W25145  17.152   7.775   2.764
65610W        W25146   1.746   9.730   3.339
65611W        W25147  32.625  21.589  13.911
65612W        W25148   4.854  23.710   9.452
65613W        W25149  34.069  25.520   0.440
65614W        W25150  12.348  30.520  12.897
65615W        W25151   7.318   4.891  14.278
65616W        W25152  39.906   0.259   0.866
65617W        W25153  14.690   2.434  11.436
65618W        W25154  36.965  12.752   0.775
65619W        W25155  40.444  13.311  13.813
65620W        W25156  39.051  11.623   2.291
65621W        W25157  11.631  35.549  14.849
65622W        W25158  35.406  31.972   3.345
65623W        W25159   2.917  16.183   1.779
65624W        W25160  32.985  40.457  14.026
65625W        W25161  19.650  31.038  11.387
65626W        W25162  15.799   6.216   3.215
65627W        W25163  41.327  42.003  14.382
65628W        W25164   6.848   8.260  12.856
65629W        W25165   3.880  21.200   3.318
65630W        W25166  18.670  16.631   1.773
65631W        W25167  22.606  24.719   2.760
65632W        W25168   2.335   2.752  10.944
65633W        W25169   1.426   2.303  13.411
65634W        W25170  26.168  37.576  14.314
65635W        W25171  16.642  22.251   0.736
65636W        W25172  33.889   2.722   0.338
65637W        W25173   2.281  10.189   4.746
65638W        W25174   8.745   1.457  12.455
65639W        W25175  25.671  30.143  10.565
65640W        W25176  28.474  13.316  14.477
65641W        W25177  13.334  18.159  12.824
65642W        W25178  44.332  33.116  14.791
65643W        W25179   1.906  36.486  13.439
65644W        W25180  30.050  12.339  13.472
65645W        W25181  16.678   4.309  14.445
65646W        W25182  16.738  28.450  11.546
65647W        W25183  24.531  32.904   0.817
65648W        W25184  30.147  13.130  14.759
65649W        W25185  12.216  37.848  13.993
65650W        W25186  15.257   5.790   4.184
65651W        W25187  40.879  30.976   4.633
65652W        W25188  26.011  43.979  14.853
65653W        W25189   0.879  39.335   1.824
65654W        W25190  23.612  34.532  10.442
65655W        W25191  36.930   0.808  12.474
65656W        W25192  42.524   8.877   1.343
65657W        W25193  15.104  35.387   3.768
65658W        W25194   3.283   5.215  11.945
65659W        W25195   3.360   2.436   5.305
65660W        W25196  10.862   4.366   5.202
65661W        W25197   9.265  11.622   2.223
65662W        W25198  19.180  31.112  11.926
65663W        W25199  15.754  22.672   2.816
65664W        W25200   9.340  42.873  12.406
65665W        W25201  41.324  40.499  11.858
65666W        W25202   4.408   0.747   0.385
65667W        W25203  27.514  20.645   1.830
65668W        W25204  33.980  11.844   3.768
65669W        W25205  18.282  21.203  14.863
65670W        W25206  25.575  14.655   4.252
65671W        W25207   0.920  11.136   3.226
65672W        W25208  38.552  38.364   2.401
65673W        W25209  10.818   1.241  10.919
65674W        W25210  25.646  10.780  13.015
65675W        W25211  23.616   1.381   3.222
65676W        W25212  27.100  37.884  13.354
65677W        W25213  22.514  36.026  14.306
65678W        W25214  13.819   0.449  10.631
65679W        W25215  15.639  40.341   3.648
65680W        W25216  40.977  31.514   1.864
65681W        W25217   3.908  34.456   3.659
65682W        W25218  40.912  37.085   4.286
65683W        W25219  25.151  33.454  13.384
65684W        W25220  40.048  18.640   0.249
65685W        W25221  37.495  12.776   4.717
65686W        W25222  40.052   8.737  14.777
65687W        W25223   4.317  44.951  11.529
65688W        W25224  27.091  32.997   3.232
65689W        W25225  19.605  44.810  12.385
65690W        W25226  41.945  36.930  13.057
65691W        W25227  11.250  28.942   1.240
65692W        W25228  41.369  40.045   1.315
65693W        W25229  12.812  44.498  14.864
65694W        W25230  13.170  19.687   0.862
65695W        W25231   2.377  42.376   1.925
65696W        W25232  31.438  26.968  13.871
65697W        W25233   8.899  15.819  11.559
65698W        W25234  40.511  14.111   0.802
65699W        W25235  25.568  19.156   2.864
65700W        W25236  32.896  29.161  14.852
65701W        W25237   4.369  30.023  14.388
65702W        W25238   2.377  36.002   3.807
65703W        W25239   6.709  15.646   3.312
65704W        W25240  21.728  27.038   4.611
65705W        W25241  36.566  14.191   3.228
65706W        W25242  13.217  22.666  14.900
65707W        W25243  33.029  37.396   2.676
65708W        W25244  41.338   5.698   4.696
65709W        W25245   5.707  26.660   1.780
65710W        W25246  16.674  25.002  14.336
65711W        W25247  10.792  22.028  14.402
65712W        W25248   5.849  42.351   2.335
65713W        W25249  22.121   6.392   4.147
65714W        W25250   6.747  23.217   2.744
65715W        W25251  28.574   8.767  12.521
65716W        W25252   8.896  23.016   2.780
65717W        W25253   1.466   0.767   3.256
65718W        W25254  31.457  28.105  12.339
65719W        W25255  15.279  37.542  14.418
65720W        W25256  17.587  43.902  13.927
65721W        W25257  19.562   5.869   1.280
65722W        W25258   1.802  23.732  13.444
65723W        W25259  24.121  14.631   3.203
65724W        W25260  21.101  44.296  12.916
65725W        W25261  14.759   1.748   0.286
65726W        W25262  12.325  34.093  14.025
65727W        W25263  40.915  44.414  14.911
65728W        W25264  35.470  39.548   2.223
65729W        W25265  16.141  43.900  11.092
65730W        W25266  10.702  39.831  12.430
65731W        W25267  43.349  39.035  13.311
65732W        W25268  26.558  28.615  13.035
65733W        W25269  27.667  37.878   2.318
65734W        W25270  20.651   0.278   2.244
65735W        W25271  26.105  31.119   2.771
65736W        W25272   8.881  41.043   0.457
65737W        W25273   1.451  25.616   2.844
65738W        W25274  11.672  42.795  10.564
65739W        W25275  43.300  41.949  13.824
65740W        W25276  10.645  15.133   4.674
65741W        W25277   6.815  30.520   4.795
65742W        W25278  16.272   2.239   1.364
65743W        W25279  12.774   9.659  10.985
65744W        W25280  27.029  42.334   1.931
65745W        W25281  14.227  35.585  14.779
65746W        W25282  10.739  21.551   0.432
65747W        W25283  14.603  13.681   4.740
65748W        W25284  24.575   4.303  11.911
65749W        W25285   9.252  17.562   2.241
65750W        W25286  19.650  17.614   4.125
65751W        W25287   5.225   7.866  12.978
65752W        W25288  28.034  18.762   4.291
65753W        W25289  44.984  36.511   4.657
65754W        W25290  13.164  14.780   2.741
65755W        W25291  35.005  27.460   3.727
65756W        W25292  44.928  12.260   2.351
65757W        W25293   4.799  12.217  12.832
65758W        W25294  11.645   6.775   3.366
65759W        W25295   5.933   3.946  11.382
65760W        W25296  17.706  20.670   0.751
65761W        W25297  27.473  28.015   2.724
65762W        W25298   1.454  32.504   4.139
65763W        W25299   0.440  23.022   4.224
65764W        W25300   8.335  24.653   4.296
65765W        W25301  32.597  15.158   2.387
65766W        W25302   5.254  39.833  10.522
65767W        W25303  23.718  35.014  11.082
65768W        W25304  36.520  13.229  14.949
65769W        W25305   4.374  35.954  12.057
65770W        W25306  30.559  27.126   0.315
65771W        W25307  20.244  12.657  10.997
65772W        W25308  39.047  16.268  13.514
65773W        W25309  14.218  19.065   0.963
65774W        W25310  38.459  36.453   2.813
65775W        W25311   8.223  10.157   4.758
65776W        W25312   0.362  25.122  12.509
65777W        W25313  15.774  34.436  12.829
65778W        W25314   2.240  33.996   2.759
65779W        W25315   3.242   3.457  13.959
65780W        W25316   5.892  11.209   0.904
65781W        W25317  33.428  23.194  10.497
65782W        W25318   1.912  12.271   4.321
65783W        W25319  33.621   8.779  11.013
65784W        W25320  39.450  26.201  13.000
65785W        W25321  18.237  22.201   4.665
65786W        W25322  32.902  14.672  13.820
65787W        W25323  20.215  22.252  13.813
65788W        W25324   8.854  22.630   3.696
65789W        W25325   4.765  35.589  12.471
65790W        W25326   3.737  18.212   5.151
65791W        W25327  16.659  26.558   3.775
65792W        W25328  33.428  14.238   3.330
65793W        W25329  18.712  13.792   2.316
65794W        W25330   9.808  10.841   5.318
65795W        W25331  25.155  15.113  13.019
65796W        W25332  14.819  18.237  14.787
65797W        W25333   9.282   5.325   4.599
65798W        W25334   3.429  34.906   3.372
65799W        W25335  42.399  43.827  14.346
65800W        W25336  37.468  24.113  13.942
65801W        W25337  13.615  26.533  10.498
65802W        W25338  24.071  20.126   0.822
65803W        W25339  36.023  44.955   5.144
65804W        W25340  19.583  24.210  12.985
65805W        W25341  39.339  34.382   4.760
65806W        W25342   3.257  37.425  14.381
65807W        W25343  18.203  25.215   4.282
65808W        W25344  13.215   0.894   1.828
65809W        W25345   1.961  17.112  11.933
65810W        W25346  14.809   4.359  10.522
65811W        W25347  41.455   0.807   0.800
65812W        W25348  24.186  35.364  14.996
65813W        W25349   1.882  43.962   1.314
65814W        W25350  23.734   3.745  11.574
65815W        W25351  40.417  40.388  12.523
65816W        W25352  13.175   1.844  10.486
65817W        W25353  18.786  23.998   2.831
65818W        W25354  22.061  38.071   3.675
65819W        W25355  18.689   5.393  13.043
65820W        W25356   9.744  33.608  10.564
65821W        W25357  15.577  24.010  11.923
65822W        W25358  30.125  25.514   2.221
65823W        W25359  15.206   6.350  13.949
65824W        W25360   7.243  28.546  14.001
65825W        W25361  21.253  18.105  12.875
65826W        W25362   8.405  25.683   9.976
65827W        W25363  25.610  43.293   4.749
65828W        W25364   5.797  25.677  13.870
65829W        W25365  18.586  41.515   2.718
65830W        W25366  23.697  30.460  10.539
65831W        W25367  36.026  18.634   3.208
65832W        W25368  37.419  37.968   4.314
65833W        W25369   7.230  33.077  14.838
65834W        W25370  20.539  38.491   0.959
65835W        W25371  17.186  15.697   2.404
65836W        W25372   2.350  12.331  13.522
65837W        W25373  25.004  16.254   1.932
65838W        W25374  43.318  15.128  13.505
65839W        W25375  19.536   8.765   1.867
65840W        W25376  22.013  25.614  13.318
65841W        W25377  34.561   1.245  11.457
65842W        W25378  33.534  29.987  11.413
65843W        W25379  15.238  36.047  12.976
65844W        W25380  18.273  13.800   3.231
65845W        W25381  23.685  25.178  13.960
65846W        W25382  20.688  35.024  12.890
65847W        W25383  34.602  13.277   3.684
65848W        W25384  18.642   3.946  13.393
65849W        W25385   5.914   2.893  13.507
65850W        W25386  33.433  42.434   4.709
65851W        W25387  27.626  12.622   3.239
65852W        W25388  18.715  26.159  14.901
65853W        W25389  43.999  14.788   3.362
65854W        W25390  12.329  12.313   3.766
65855W        W25391  29.086  32.935  12.462
65856W        W25392  22.047   6.726  12.352
65857W        W25393  31.071  12.257   4.611
65858W        W25394  26.142  17.094   4.195
65859W        W25395   8.669  13.199  11.855
65860W        W25396   0.897  20.250   3.178
65861W        W25397  20.673  40.532   4.338
65862W        W25398   1.386  33.004  13.829
65863W        W25399  32.613  40.526  11.903
65864W        W25400   2.889  41.507   1.225
65865W        W25401  36.907  32.528   4.777
65866W        W25402  31.041  14.647   2.209
65867W        W25403   0.983  18.112  12.874
65868W        W25404  38.405  40.331   0.774
65869W        W25405   4.917  22.543  10.584
65870W        W25406   1.239  23.189  13.316
65871W        W25407   9.202  11.171   3.828
65872W        W25408   4.880  34.400  14.795
65873W        W25409  38.890  40.850  11.935
65874W        W25410  36.885   0.394  10.531
65875W        W25411  28.153   6.197  12.907
65876W        W25412  21.118  30.596   2.353
65877W        W25413  24.194  29.604  11.919
65878W        W25414  32.425  15.135   4.163
65879W        W25415  12.348  24.040  12.003
65880W        W25416  10.781  16.228  14.479
65881W        W25417   8.310   4.417   0.803
65882W        W25418  30.931   0.304   3.298
65883W        W25419  13.622  35.413  13.970
65884W        W25420  36.401   3.301   4.140
65885W        W25421   2.940  29.986  14.902
65886W        W25422  44.007   2.911  11.969
65887W        W25423  18.717  29.952  13.863
65888W        W25424  24.150  34.475   1.373
65889W        W25425  12.698  30.935  13.430
65890W        W25426  12.746  24.529   0.451
65891W        W25427   7.770   8.213   0.919
65892W        W25428  43.826  37.337  11.496
65893W        W25429  16.640  21.029   0.878
65894W        W25430   3.892   0.903   2.726
65895W        W25431  19.055  32.142   2.791
65896W        W25432  23.071  38.000   5.106
65897W        W25433   2.811  24.596   1.347
65898W        W25434   9.863  30.095   4.174
65899W        W25435  16.577  37.557  14.925
65900W        W25436  33.423  10.166   0.910
65901W        W25437   8.748   3.894  13.955
65902W        W25438  23.622  36.034  11.441
65903W        W25439   7.755  20.063  13.936
65904W        W25440  10.148   3.828   1.234
65905W        W25441  14.261   0.356  13.406
65906W        W25442   4.304   4.820  12.969
65907W        W25443  14.226  36.494  12.890
65908W        W25444   7.891  26.575   3.799
65909W        W25445  39.373  16.579  12.852
65910W        W25446  29.606   6.239   3.694
65911W        W25447  32.050   8.384  14.930
65912W        W25448  40.304  20.236  12.087
65913W        W25449  37.849  20.223  11.879
65914W        W25450   8.183  25.660   2.805
65915W        W25451  25.650   1.433  13.808
65916W        W25452  37.476   0.293  14.870
65917W        W25453  44.849   1.846   0.304
65918W        W25454  22.098  43.488   4.194
65919W        W25455  29.028  18.227  10.974
65920W        W25456  24.089  12.162   3.742
65921W        W25457  29.444  28.447  13.459
65922W        W25458  16.750  42.775  11.529
65923W        W25459  40.360  23.605   0.861
65924W        W25460  20.049  12.768   1.836
65925W        W25461  25.578  12.136  10.477
65926W        W25462  16.176  16.243   2.266
65927W        W25463  35.011  35.012   2.829
65928W        W25464   1.902  29.597  11.414
65929W        W25465  30.068  20.715  13.936
65930W        W25466  31.940  30.518  12.559
65931W        W25467   6.353  15.197   4.638
65932W        W25468  14.641  30.010   4.829
65933W        W25469  16.724   5.931   1.230
65934W        W25470  15.596  30.644  12.039
65935W        W25471  13.313  12.629   1.762
65936W        W25472   5.331  39.837   0.342
65937W        W25473  15.734  41.306   3.343
65938W        W25474  19.562  17.150  12.013
65939W        W25475   9.187   5.198   9.985
65940W        W25476  33.049  38.328   2.852
65941W        W25477  25.497  23.201  11.592
65942W        W25478   1.393  32.960   2.416
65943W        W25479  23.698  31.114  10.982
65944W        W25480  18.721   7.865  12.962
65945W        W25481  38.330  20.731   3.662
65946W        W25482   5.903  37.415   3.737
65947W        W25483  44.837   2.453  14.429
65948W        W25484  12.174  42.909  11.030
65949W        W25485  21.109   2.776  13.530
65950W        W25486  27.631  25.212  12.014
65951W        W25487  37.837  33.385   3.714
65952W        W25488  34.095   1.833  13.377
65953W        W25489  44.361  16.770  10.924
65954W        W25490  44.909   5.387  11.116
65955W        W25491  36.457   4.378   4.275
65956W        W25492  33.902   4.880   4.633
65957W        W25493  27.589   4.905   0.348
65958W        W25494   2.863  32.977  12.833
65959W        W25495  35.996   4.705   4.137
65960W        W25496  40.453  22.671  13.345
65961W        W25497   9.752  26.997   3.671
65962W        W25498  34.559  37.886   0.464
65963W        W25499  36.976  30.022  11.542
65964W        W25500  39.520  10.380   3.675
65965W        W25501  13.263  21.654   3.150
65966W        W25502  19.045  18.129   4.141
65967W        W25503   6.326   6.356  10.590
65968W        W25504  13.817  24.980   1.251
65969W        W25505  39.539  14.097   3.759
65970W        W25506   7.305  35.054   0.837
65971W        W25507  11.673   0.942   4.207
65972W        W25508  37.880  41.995  12.552
65973W        W25509   3.731   7.378   0.346
65974W        W25510   7.202  15.819   3.292
65975W        W25511  44.890   6.687   1.732
65976W        W25512  31.107  28.956  10.637
65977W        W25513  21.528  29.504  11.104
65978W        W25514  36.037  28.016   2.183
65979W        W25515  15.150  22.669   0.296
65980W        W25516  23.644   6.706   9.643
65981W        W25517   9.669  32.987   3.844
65982W        W25518  11.359   5.378  10.483
65983W        W25519  38.057  17.169  12.083
65984W        W25520  39.369  39.864  14.910
65985W        W25521  39.826   8.274  14.776
65986W        W25522  11.282  31.477   1.839
65987W        W25523   5.421  12.806   0.805
65988W        W25524   1.945  30.494   4.162
65989W        W25525  35.385  23.563   0.806
65990W        W25526  10.743  24.165  14.305
65991W        W25527  22.997  23.105  13.849
65992W        W25528  28.604   5.278  12.862
65993W        W25529  30.486  42.922  14.971
65994W        W25530  37.341   2.313   1.695
65995W        W25531   3.730  11.675   3.736
65996W        W25532  27.645  43.882  13.971
65997W        W25533   0.816  24.035   5.230
65998W        W25534  23.686  39.009  14.983
65999W        W25535  35.938  16.743   3.353
66000W        W25536  40.979  35.435  13.007
66001W        W25537  30.637  31.013   1.867
66002W        W25538  32.592  36.000   4.628
66003W        W25539  18.285  43.003  13.509
66004W        W25540   9.649  30.618  11.055
66005W        W25541  29.581  20.636  10.630
66006W        W25542  40.826   1.933   1.331
66007W        W25543  44.282  42.493  12.428
66008W        W25544  41.955  22.095  10.414
66009W        W25545  16.149  44.431  13.962
66010W        W25546   7.731  31.630   3.157
66011W        W25547   3.346  30.990   0.447
66012W        W25548  38.532  33.430   4.262
66013W        W25549   8.218  28.174  11.931
66014W        W25550   1.858  19.597  11.991
66015W        W25551  35.450  14.237   0.439
66016W        W25552  22.537  11.646  10.138
66017W        W25553  25.519   3.819   2.195
66018W        W25554  22.163  39.062  12.477
66019W        W25555  27.604   3.898  10.451
66020W        W25556   5.815  18.233   4.156
66021W        W25557   3.787  40.395  14.844
66022W        W25558  28.565  13.193  13.511
66023W        W25559  24.592  40.906   0.440
66024W        W25560  23.507  21.187  14.347
66025W        W25561  27.108  42.291  11.445
66026W        W25562  18.627  21.579   5.588
66027W        W25563  29.519  10.260   2.259
66028W        W25564  17.221  18.723  14.500
66029W        W25565  31.407  32.905   0.294
66030W        W25566   4.777   8.886   3.346
66031W        W25567  22.705   0.321  14.004
66032W        W25568  41.828  32.628  10.470
66033W        W25569  12.805  31.101   2.702
66034W        W25570  18.678  33.432   3.342
66035W        W25571  33.128  21.656   2.235
66036W        W25572   4.764  34.517   4.185
66037W        W25573   6.427  16.222   0.780
66038W        W25574  38.051  28.168  11.942
66039W        W25575  21.614  20.690   4.655
66040W        W25576  32.013  33.914   0.802
66041W        W25577  11.748  31.048  14.899
66042W        W25578  12.175   5.250  10.561
66043W        W25579  42.308  22.662  10.564
66044W        W25580  20.186  34.504  12.881
66045W        W25581   6.878  32.936  14.348
66046W        W25582   4.215  19.139  13.382
66047W        W25583  14.682  22.721  13.327
66048W        W25584  32.414  24.986  12.434
66049W        W25585  11.160  12.660   2.219
66050W        W25586  36.497  22.126   0.867
66051W        W25587  43.476  22.113   2.227
66052W        W25588  36.502  15.814   4.658
66053W        W25589  42.893  37.045  13.865
66054W        W25590  31.434  44.346   3.180
66055W        W25591  21.654  15.175   1.761
66056W        W25592  37.991  35.075  10.128
66057W        W25593  35.002  25.100   0.422
66058W        W25594  33.496  20.675   1.846
66059W        W25595  37.346  13.271   4.129
66060W        W25596  30.513  17.702  14.998
66061W        W25597  44.896  14.316  11.032
66062W        W25598  13.282  41.403   1.408
66063W        W25599  21.599   9.378  12.027
66064W        W25600  32.000  25.157  12.427
66065W        W25601  20.736  40.864   0.287
66066W        W25602  44.846   7.759   0.941
66067W        W25603   8.776  36.989  11.594
66068W        W25604   5.759  39.356   2.367
66069W        W25605  21.613  14.318  14.417
66070W        W25606  20.141  33.011  10.571
66071W        W25607  19.720  27.021  14.346
66072W        W25608  28.636  26.145   2.307
66073W        W25609  11.761  39.933   0.765
66074W        W25610  11.652  41.834   4.325
66075W        W25611  19.284  41.356  14.367
66076W        W25612  43.483  16.138   4.797
66077W        W25613  38.834  12.773  11.587
66078W        W25614  41.968  21.637   2.903
66079W        W25615  15.275  10.650  10.574
66080W        W25616  26.027  23.596  13.854
66081W        W25617  32.127   4.829   0.342
66082W        W25618  19.189   3.744   4.706
66083W        W25619  23.544  36.557  11.087
66084W        W25620   3.890  32.444   2.370
66085W        W25621  18.172  20.268  12.022
66086W        W25622   6.198  28.619   1.286
66087W        W25623  34.026  28.653   2.801
66088W        W25624  41.390   5.293  12.354
66089W        W25625  28.552   2.867  10.590
66090W        W25626  11.135  38.466   4.348
66091W        W25627  21.156   3.383  12.053
66092W        W25628   6.304  28.539  10.958
66093W        W25629   3.240  17.231   0.767
66094W        W25630   2.379  37.422  12.367
66095W        W25631   4.211  43.793   1.855
66096W        W25632  23.638   9.866  10.997
66097W        W25633   1.444  35.092  12.053
66098W        W25634  15.192  39.316  14.904
66099W        W25635  17.116  36.894  13.804
66100W        W25636  31.576   7.204   2.184
66101W        W25637  20.529   8.689   5.086
66102W        W25638  43.796  22.553  12.387
66103W        W25639  29.080   8.258  11.122
66104W        W25640  26.576  18.119   3.249
66105W        W25641  27.189  26.985  12.044
66106W        W25642  23.072  25.980   0.403
66107W        W25643  15.619  41.402   4.779
66108W        W25644   1.930  24.013   1.756
66109W        W25645  33.108  43.283   2.682
66110W        W25646  12.122  40.478  12.958
66111W        W25647  27.122   0.402   0.418
66112W        W25648  40.489   1.293   2.723
66113W        W25649  33.010  42.429  10.515
66114W        W25650  32.524  43.943   4.305
66115W        W25651  20.217  34.896  11.412
66116W        W25652  26.610  40.534   5.292
66117W        W25653  36.525  17.632  12.517
66118W        W25654   3.399   3.809  13.829
66119W        W25655  43.445   6.762   4.190
66120W        W25656  38.543  24.680   4.289
66121W        W25657  27.106   5.713  14.841
66122W        W25658  24.535  11.174   2.875
66123W        W25659   3.823  10.792  11.000
66124W        W25660   4.393  16.658   3.797
66125W        W25661  33.468  31.610   2.671
66126W        W25662  21.557  39.347  11.004
66127W        W25663   3.943  31.415   0.809
66128W        W25664   1.948  28.167  10.626
66129W        W25665  33.032  36.431   0.321
66130W        W25666  40.534  18.134   3.272
66131W        W25667   1.437  41.948  11.423
66132W        W25668  30.054   9.820  12.495
66133W        W25669  41.019  38.056   2.391
66134W        W25670  12.184  14.718  13.044
66135W        W25671  16.078  13.741   0.823
66136W        W25672  13.239  42.013   0.766
66137W        W25673   4.912  29.932   1.797
66138W        W25674   7.706  31.154  13.015
66139W        W25675   5.751  28.438  11.939
66140W        W25676  30.049  30.044   0.432
66141W        W25677   8.667  42.465   3.637
66142W        W25678  35.099  25.178   3.630
66143W        W25679   0.762  43.459   1.423
66144W        W25680  34.405   7.695  13.033
66145W        W25681  40.486  22.689   4.674
66146W        W25682  25.051  20.651   2.862
66147W        W25683  28.024  36.428  11.975
66148W        W25684  42.922   1.947   4.151
66149W        W25685   4.898  30.013   0.286
66150W        W25686  32.614  38.855   1.284
66151W        W25687   3.725  11.335   3.833
66152W        W25688  24.593   6.778   4.748
66153W        W25689  42.985  26.100  14.394
66154W        W25690  35.921   2.755   0.440
66155W        W25691  18.654  44.356  14.283
66156W        W25692  12.138  38.556   3.321
66157W        W25693  23.036  26.519  14.852
66158W        W25694  32.471   3.253   4.728
66159W        W25695  15.319  18.057  14.306
66160W        W25696  36.487  18.644  13.430
66161W        W25697  18.147   8.343  10.522
66162W        W25698   7.690  19.674  12.972
66163W        W25699   5.917  40.363   3.814
66164W        W25700  28.566   4.324   3.683
66165W        W25701  26.702  22.193   1.695
66166W        W25702  23.516  38.344  12.971
66167W        W25703   4.743  14.134  14.928
66168W        W25704  27.560  27.060   3.813
66169W        W25705  21.068  39.480  10.908
66170W        W25706  31.153   5.355   4.309
66171W        W25707  18.705  29.108   4.831
66172W        W25708  29.985  20.675  13.448
66173W        W25709  37.385  18.747   2.780
66174W        W25710  40.931   2.265  10.118
66175W        W25711  42.786  12.333   1.908
66176W        W25712   0.277  29.621   2.303
66177W        W25713  40.314  41.892   3.799
66178W        W25714  13.319  18.156  14.424
66179W        W25715  34.539  42.858   1.354
66180W        W25716  34.523  16.152  11.554
66181W        W25717   8.783  37.401   3.762
66182W        W25718  26.106  25.483   3.788
66183W        W25719   8.746  44.330   4.606
66184W        W25720   2.738   8.796   4.178
66185W        W25721  44.318  20.239  13.926
66186W        W25722  21.544  28.563  12.847
66187W        W25723   1.884  32.496  12.891
66188W        W25724  42.335  26.654  10.993
66189W        W25725  31.509   6.836   1.318
66190W        W25726  43.308  14.607   3.663
66191W        W25727  27.504  31.518   2.769
66192W        W25728  30.073   1.399   4.776
66193W        W25729  44.902   7.297   0.918
66194W        W25730  13.196  43.349   4.641
66195W        W25731  10.644   8.313  11.891
66196W        W25732  17.685  21.030  12.414
66197W        W25733   0.951   1.250  11.587
66198W        W25734  23.130  23.242  13.406
66199W        W25735  43.485  18.092   2.762
66200W        W25736  31.635   6.772   1.726
66201W        W25737   5.285   0.325   1.888
66202W        W25738  15.674  20.067  14.457
66203W        W25739   4.734  12.224  10.473
66204W        W25740  12.647  26.056  11.964
66205W        W25741  39.528  33.412   1.313
66206W        W25742  12.676  30.907  12.347
66207W        W25743  44.990  29.554  11.489
66208W        W25744  29.046  19.701  11.990
66209W        W25745   4.859  10.164   2.686
66210W        W25746  28.020   5.912   2.896
66211W        W25747  17.578  44.773  12.907
66212W        W25748  39.034  42.897   4.202
66213W        W25749   9.834  35.416   0.827
66214W        W25750  37.546  43.805  12.908
66215W        W25751  34.551   2.944  13.046
66216W        W25752  13.826  21.091   3.794
66217W        W25753  17.744  17.180  11.019
66218W        W25754  31.591  29.959  12.959
66219W        W25755  11.664  36.542   0.318
66220W        W25756  34.088   1.790   4.167
66221W        W25757  13.310   3.908  11.475
66222W        W25758   7.870   2.328   0.864
66223W        W25759   1.878  36.081  14.860
66224W        W25760  35.453   0.882  13.844
66225W        W25761  35.063  37.468   1.443
66226W        W25762  26.178   8.706   2.290
66227W        W25763  18.267  25.480  10.494
66228W        W25764  43.802   4.390   0.852
66229W        W25765  33.446  36.410   4.675
66230W        W25766  23.496   3.768  11.915
66231W        W25767  31.495  17.611  13.437
66232W        W25768  42.483  21.695   1.340
66233W        W25769  44.463   8.319   3.780
66234W        W25770  27.648   6.363   0.738
66235W        W25771  13.289  33.102   0.957
66236W        W25772  24.046  35.422  13.954
66237W        W25773  27.570  10.239  11.933
66238W        W25774  40.976  37.024  12.456
66239W        W25775   8.348  30.531   2.348
66240W        W25776   6.698  44.955   0.798
66241W        W25777  34.553  39.064  14.884
66242W        W25778  12.264  28.970  11.056
66243W        W25779  20.221  39.903   1.890
66244W        W25780  14.767   9.283   2.842
66245W        W25781  11.634  10.185  14.985
66246W        W25782   2.727  11.804  12.428
66247W        W25783   9.369  31.127   4.769
66248W        W25784  19.612  41.997  12.343
66249W        W25785  31.545  37.863   0.328
66250W        W25786   5.744  26.012  12.391
66251W        W25787  26.686  40.340   0.902
66252W        W25788  44.345   1.973   1.356
66253W        W25789  13.721  19.609   4.181
66254W        W25790  22.139  26.101   4.763
66255W        W25791  37.516   0.439  12.971
66256W        W25792  13.179   1.904  11.605
66257W        W25793  38.024  26.572  13.003
66258W        W25794   5.930  26.115  11.560
66259W        W25795  36.383  34.073  14.889
66260W        W25796  25.196  12.335  14.032
66261W        W25797  43.773  37.071   1.414
66262W        W25798  33.547   3.839  13.889
66263W        W25799  21.639  29.595   4.337
66264W        W25800  42.306  43.799  13.379
66265W        W25801  33.880  23.108  12.041
66266W        W25802  14.205  23.016   1.327
66267W        W25803  18.172  23.134  13.904
66268W        W25804  32.567  38.926  11.422
66269W        W25805   4.315  18.772  11.585
66270W        W25806  25.013  12.240  13.395
66271W        W25807  10.687   3.398  12.082
66272W        W25808  35.907   1.309  12.343
66273W        W25809  28.163   7.691   4.762
66274W        W25810  34.402  34.506   0.397
66275W        W25811  37.890  25.055  12.457
66276W        W25812   3.305   9.284   2.750
66277W        W25813  22.045  41.876   1.700
66278W        W25814  22.670  15.659   2.681
66279W        W25815  32.548  42.281  13.052
66280W        W25816  40.827  27.007   0.730
66281W        W25817  33.486   7.301  12.561
66282W        W25818   9.193  30.500  13.935
66283W        W25819  36.543  37.911  12.575
66284W        W25820  18.568  42.283   4.836
66285W        W25821   1.782   7.191  12.862
66286W        W25822   1.322  35.391   3.222
66287W        W25823  42.296  44.470   1.918
66288W        W25824  26.118  25.540   2.813
66289W        W25825  43.957  30.072  12.485
66290W        W25826  15.668  21.230  10.508
66291W        W25827  33.443  22.689   4.214
66292W        W25828  23.525   8.723   2.768
66293W        W25829  23.206   4.399  14.325
66294W        W25830  11.234  33.123  12.461
66295W        W25831  31.020  23.627   3.769
66296W        W25832  18.210  13.242   3.359
66297W        W25833  10.320  29.427   2.190
66298W        W25834  12.348   1.967  13.917
66299W        W25835  17.224  43.962  14.497
66300W        W25836   2.812   6.340  14.399
66301W        W25837  13.730  26.543   2.210
66302W        W25838   0.381  44.951  10.564
66303W        W25839  18.748   7.233  12.425
66304W        W25840   5.313  26.041   2.865
66305W        W25841  23.204  17.231  12.843
66306W        W25842  19.636  41.795   1.753
66307W        W25843   5.769  44.906   1.739
66308W        W25844   8.160  12.753   1.266
66309W        W25845  29.564  24.699   2.210
66310W        W25846  37.356  32.989  10.500
66311W        W25847  44.469   5.259  14.852
66312W        W25848   2.326  38.029  11.400
66313W        W25849  24.021  38.894   0.415
66314W        W25850   8.664   2.305   4.799
66315W        W25851  23.611  32.015  10.586
66316W        W25852   6.306  13.299  12.040
66317W        W25853  11.317  26.139   2.791
66318W        W25854  33.505  29.562   0.437
66319W        W25855  32.467  16.105  12.385
66320W        W25856  11.221  29.091  11.558
66321W        W25857   9.796  32.610  10.933
66322W        W25858   1.461   1.732  12.827
66323W        W25859  28.493   0.850   4.150
66324W        W25860  20.160  22.118  11.431
66325W        W25861  37.979  15.254   3.246
66326W        W25862  41.305  31.631   3.747
66327W        W25863  30.116  34.370   0.367
66328W        W25864  11.172  39.915   1.867
66329W        W25865   7.232  36.475  13.313
66330W        W25866  32.115  40.814  10.960
66331W        W25867  18.767  26.009  14.289
66332W        W25868   7.395  20.248   2.343
66333W        W25869  19.739   4.887  11.858
66334W        W25870   0.974   0.912  13.839
66335W        W25871  37.482  44.356  10.970
66336W        W25872   2.365  20.191   2.405
66337W        W25873  23.629  39.432   3.760
66338W        W25874   9.648  11.680  13.488
66339W        W25875  42.783  13.168  13.911
66340W        W25876  19.549  30.631   3.685
66341W        W25877  17.303  42.938   3.312
66342W        W25878  28.539  32.498   1.814
66343W        W25879  31.617  23.682   5.790
66344W        W25880   5.278  15.631  13.856
66345W        W25881  41.975   2.320   0.314
66346W        W25882  21.706   6.291  12.499
66347W        W25883  29.004  23.650   0.357
66348W        W25884  39.520   5.780   1.376
66349W        W25885  17.598  28.638   4.811
66350W        W25886   6.425  36.508   3.698
66351W        W25887  15.117  35.397   2.802
66352W        W25888  43.796   9.736   2.289
66353W        W25889  30.956   6.267  10.995
66354W        W25890   9.756  23.063  14.785
66355W        W25891  42.325  25.537  13.824
66356W        W25892   9.237   1.275   1.729
66357W        W25893  21.665  16.624  10.069
66358W        W25894  39.494  19.639  10.609
66359W        W25895  20.260  31.559  12.412
66360W        W25896   4.349   3.247   2.849
66361W        W25897  44.758  18.622  13.515
66362W        W25898  39.992  16.712  14.406
66363W        W25899  40.986   0.884   1.407
66364W        W25900  31.620  26.131  12.439
66365W        W25901   6.348  35.423   3.253
66366W        W25902  12.633  44.847   1.755
66367W        W25903  39.949  41.794   1.332
66368W        W25904   8.817  37.982   1.736
66369W        W25905   5.265  30.108  11.573
66370W        W25906  12.824   8.170  13.922
66371W        W25907  44.811  24.980   9.555
66372W        W25908  15.669  43.443   4.614
66373W        W25909   6.264  24.988   3.865
66374W        W25910  26.480   6.230   2.209
66375W        W25911  33.941   9.788  12.053
66376W        W25912   5.407  40.014   2.727
66377W        W25913  31.014  13.734  10.632
66378W        W25914  19.155  31.403   0.365
66379W        W25915  42.405  26.614   3.685
66380W        W25916  23.514  30.452   3.236
66381W        W25917  29.146  31.049  13.822
66382W        W25918  16.243  27.971   1.229
66383W        W25919  16.165   2.956   2.205
66384W        W25920  34.916  10.711   4.751
66385W        W25921  16.255   8.695  11.970
66386W        W25922  19.101  37.021  11.006
66387W        W25923   8.238   8.711   0.359
66388W        W25924  11.148  15.682   0.916
66389W        W25925  21.515  40.537  11.908
66390W        W25926   4.713  28.014  10.955
66391W        W25927   0.315  42.933   2.184
66392W        W25928  38.823  16.809  14.021
66393W        W25929  34.519  11.310   4.256
66394W        W25930  20.559  37.342  12.063
66395W        W25931   1.395   0.341   1.423
66396W        W25932  12.667  37.953  14.954
66397W        W25933   0.341  16.226  13.048
66398W        W25934  21.741  31.495   2.858
66399W        W25935  43.862  38.062   4.644
66400W        W25936   2.934  20.087   3.651
66401W        W25937   8.179  35.057  12.413
66402W        W25938  37.003  15.677   2.383
66403W        W25939  18.266  19.185   2.397
66404W        W25940  39.810  37.493   5.192
66405W        W25941  14.625  18.112  11.491
66406W        W25942  29.129  21.629   2.664
66407W        W25943   8.186  35.884  13.504
66408W        W25944  29.919  39.976   4.836
66409W        W25945  29.601  30.589  14.352
66410W        W25946  39.857  44.876   3.322
66411W        W25947  28.515  42.412  14.960
66412W        W25948  26.133  27.643   3.642
66413W        W25949  22.203  18.061  10.018
66414W        W25950  10.650  30.546   9.501
66415W        W25951  20.588  11.128   1.258
66416W        W25952  22.194  10.194   1.276
66417W        W25953   0.957   7.345  11.907
66418W        W25954  34.021  30.419  14.829
66419W        W25955   6.703  29.035   9.552
66420W        W25956   3.836  13.291   2.852
66421W        W25957  34.410  22.730  10.626
66422W        W25958  33.120  37.551   4.163
66423W        W25959  39.465  35.966   3.150
66424W        W25960   1.834  22.062   2.196
66425W        W25961  19.547  39.879   4.155
66426W        W25962   8.764  12.755  13.864
66427W        W25963  43.434  27.954  13.402
66428W        W25964  35.543  36.554   4.295
66429W        W25965  11.234  37.385   1.772
66430W        W25966   8.215  26.974  10.598
66431W        W25967   5.398  14.274  13.040
66432W        W25968  18.617  11.803  12.349
66433W        W25969   6.870  14.170  11.061
66434W        W25970  36.586  18.581   1.785
66435W        W25971   6.889   8.398  14.898
66436W        W25972  25.606   0.778   4.350
66437W        W25973  21.128  43.811  10.888
66438W        W25974   7.703  11.207  13.425
66439W        W25975  30.543  23.717  12.083
66440W        W25976  34.111   4.863   0.864
66441W        W25977  33.029  36.917  13.903
66442W        W25978  43.483  29.567  12.946
66443W        W25979   2.803  17.671   2.407
66444W        W25980  30.144  10.863  10.493
66445W        W25981  36.390  16.113  13.955
66446W        W25982  14.788   3.273  14.789
66447W        W25983  11.731  20.529  11.441
66448W        W25984  29.463   4.816   4.149
66449W        W25985  39.863  38.485  12.832
66450W        W25986  27.645  14.704  11.004
66451W        W25987   8.290  15.612  10.962
66452W        W25988  42.923   3.788   3.317
66453W        W25989  26.097   5.837   4.805
66454W        W25990   5.287  14.272   4.300
66455W        W25991   2.263  39.911   0.935
66456W        W25992  16.626   2.346   0.899
66457W        W25993  13.627   1.257  11.488
66458W        W25994  43.944  19.150   2.181
66459W        W25995  11.235  38.905   3.305
66460W        W25996  11.276  23.641   0.402
66461W        W25997  29.446  18.594   1.404
66462W        W25998   5.381  32.587   0.404
66463W        W25999   9.845  44.388   4.242
66464W        W26000  37.890  43.439   2.323
66465W        W26001  24.080  34.116  10.905
66466W        W26002  27.484  12.760  13.507
66467W        W26003  44.315  23.212  13.452
66468W        W26004  33.618  24.537  14.890
66469W        W26005  38.361  16.318  11.429
66470W        W26006  42.296  36.380   4.291
66471W        W26007  40.860  40.955   3.756
66472W        W26008  30.461   9.675   4.269
66473W        W26009  15.687   9.374   1.251
66474W        W26010  36.471  15.085   1.393
66475W        W26011   6.368   5.316  10.537
66476W        W26012  32.897  24.601  14.508
66477W        W26013  15.214  21.612   0.481
66478W        W26014  16.797  35.596   3.241
66479W        W26015   5.302  35.875   1.837
66480W        W26016   6.240  21.586   3.257
66481W        W26017  38.881   6.190  11.877
66482W        W26018  40.949  39.467  13.000
66483W        W26019  37.998  26.549   1.845
66484W        W26020  39.826  31.047  11.997
66485W        W26021  30.574  22.038   1.913
66486W        W26022  37.456  39.458  11.862
66487W        W26023  44.259  19.709  12.534
66488W        W26024  19.756   0.819   0.836
66489W        W26025  33.038  30.000   4.253
66490W        W26026  25.140   9.250  14.369
66491W        W26027   8.701  12.183  10.481
66492W        W26028   0.817  21.646   2.343
66493W        W26029  37.851  13.740  14.948
66494W        W26030  33.545  33.927  10.421
66495W        W26031  11.339  34.516   2.365
66496W        W26032  32.405  19.767  11.051
66497W        W26033  39.881  10.750   1.857
66498W        W26034  42.378  12.739  14.813
66499W        W26035   5.870  22.548   2.277
66500W        W26036  23.051  19.589  12.021
66501W        W26037  43.868  43.295   2.198
66502W        W26038  21.052  39.362   2.879
66503W        W26039  11.856  42.876   5.236
66504W        W26040  20.122  39.985   0.353
66505W        W26041  32.438   8.354   0.276
66506W        W26042  36.925  26.513  13.921
66507W        W26043  16.743  32.015  10.422
66508W        W26044  27.085  28.022   3.845
66509W        W26045  14.623  29.986  12.873
66510W        W26046  25.169  44.883  12.004
66511W        W26047  36.093  33.529  11.981
66512W        W26048  39.508  26.207   4.636
66513W        W26049  41.394  35.896  14.933
66514W        W26050  10.823  19.247   0.849
66515W        W26051  21.723  26.559  11.542
66516W        W26052   0.445   3.450  10.407
66517W        W26053  31.539  29.976   2.898
66518W        W26054  12.805  13.335   2.320
66519W        W26055   1.908  19.563   3.340
66520W        W26056  25.971  44.830  13.548
66521W        W26057   2.724  39.997   0.763
66522W        W26058  18.771  34.550  11.559
66523W        W26059  26.119  18.682  12.511
66524W        W26060   2.903   9.828   3.361
66525W        W26061   9.183  20.595   3.809
66526W        W26062   0.351   6.252  10.533
66527W        W26063  34.529  43.870   0.834
66528W        W26064  23.203   6.718  13.064
66529W        W26065  15.278  33.015  13.978
66530W        W26066  36.964   4.362   0.761
66531W        W26067  18.548  15.085  12.014
66532W        W26068  35.468   8.663   3.323
66533W        W26069  34.594  37.079  11.542
66534W        W26070  35.408   1.978  13.012
66535W        W26071  22.063  26.041  12.566
66536W        W26072   1.851  31.993  11.902
66537W        W26073  39.377  42.855   0.766
66538W        W26074   8.892  36.957  13.813
66539W        W26075  13.189   9.194   1.834
66540W        W26076   2.912   1.272  10.548
66541W        W26077  18.290  29.980  10.582
66542W        W26078  15.698  29.489  14.303
66543W        W26079  12.780  13.605   0.364
66544W        W26080  25.650  14.265  10.488
66545W        W26081  25.066   2.386   0.742
66546W        W26082  12.200  37.039  11.042
66547W        W26083   2.265   0.755   4.800
66548W        W26084  16.140  41.487  14.939
66549W        W26085  39.957  13.811  12.367
66550W        W26086  12.739   6.285   1.359
66551W        W26087  10.771  42.321   0.398
66552W        W26088  28.648  31.034   4.664
66553W        W26089  31.598  29.129   3.177
66554W        W26090  30.634   5.799   1.695
66555W        W26091  21.662  20.087  13.443
66556W        W26092  27.122   5.901  10.887
66557W        W26093  39.903   7.376   2.784
66558W        W26094  21.552   7.711  12.357
66559W        W26095  35.439   2.826  13.848
66560W        W26096  26.051  29.546  13.519
66561W        W26097  38.565  23.153   0.257
66562W        W26098  19.673  10.674   3.865
66563W        W26099  13.613  39.452   0.732
66564W        W26100  33.619  25.207  13.447
66565W        W26101  13.621  35.553   1.330
66566W        W26102  31.053  27.960  14.346
66567W        W26103  18.605  11.838  11.943
66568W        W26104  25.643  11.157   0.856
66569W        W26105  42.367  33.093  13.964
66570W        W26106  21.166  19.283  14.444
66571W        W26107  21.514  15.140   1.236
66572W        W26108  15.711  29.157  10.404
66573W        W26109  44.955   3.378  14.983
66574W        W26110  30.124  34.886   0.458
66575W        W26111   9.284  29.048  12.443
66576W        W26112   3.216  39.912  13.823
66577W        W26113  11.740  17.663  10.441
66578W        W26114  32.620   1.859   2.887
66579W        W26115  39.812  32.429  12.541
66580W        W26116   2.888  41.952   3.213
66581W        W26117  26.066  33.617  14.397
66582W        W26118  31.501  27.078   3.213
66583W        W26119   8.376  18.628   1.728
66584W        W26120  39.918  32.011   3.697
66585W        W26121   9.659  40.928  13.890
66586W        W26122  14.334   3.315   1.716
66587W        W26123  28.075  25.474   3.804
66588W        W26124  39.374  28.438  11.110
66589W        W26125  25.528  16.624  12.924
66590W        W26126   6.347  23.697  12.089
66591W        W26127  11.836   4.852  14.864
66592W        W26128  35.078  11.771  11.956
66593W        W26129  43.871  10.697   4.131
66594W        W26130  27.010  40.989  12.965
66595W        W26131   9.828   8.199  14.939
66596W        W26132  14.743   9.732   4.185
66597W        W26133  32.117   4.832  11.486
66598W        W26134  37.365   9.717   0.387
66599W        W26135   8.358  28.059   4.631
66600W        W26136  39.945  41.294  14.837
66601W        W26137   2.829  19.224   1.770
66602W        W26138  43.407  29.124   2.354
66603W        W26139  33.929  31.997   0.271
66604W        W26140  26.187  15.327  11.061
66605W        W26141  35.042  19.087   1.728
66606W        W26142  10.862   3.232   4.274
66607W        W26143  37.450  36.459  13.819
66608W        W26144  27.486   6.758   1.411
66609W        W26145  20.170  18.736  10.483
66610W        W26146  22.123  38.898  14.384
66611W        W26147   8.223  38.517  11.028
66612W        W26148  22.640  15.795   5.276
66613W        W26149  25.592  39.444   4.789
66614W        W26150  34.536  23.664   1.893
66615W        W26151  28.502  20.755  13.318
66616W        W26152  25.984  22.092  12.900
66617W        W26153  20.607  25.476   2.268
66618W        W26154  31.062  17.100   2.290
66619W        W26155  40.330   7.200  14.502
66620W        W26156  21.516  39.360  10.643
66621W        W26157   8.755   6.249   3.669
66622W        W26158  36.362   3.314  13.504
66623W        W26159  31.639  22.223   5.725
66624W        W26160  27.121   7.841  14.323
66625W        W26161  30.634   8.373  10.434
66626W        W26162  25.972  16.277   4.833
66627W        W26163  25.631  39.993   4.159
66628W        W26164   2.292  28.477  11.104
66629W        W26165  43.399  21.218   1.451
66630W        W26166  25.580  38.009   2.842
66631W        W26167   2.382  38.007   2.369
66632W        W26168  11.721  10.215  12.005
66633W        W26169  24.493   1.409  11.032
66634W        W26170  18.180  25.470  13.997
66635W        W26171   5.410  10.312  10.628
66636W        W26172  11.698  28.999  13.843
66637W        W26173  27.990  39.471  14.401
66638W        W26174   4.364  21.222  12.483
66639W        W26175  28.518  22.610  13.397
66640W        W26176  43.824  10.700   2.759
66641W        W26177  38.366  20.550  10.918
66642W        W26178   2.782  10.205  14.011
66643W        W26179  13.728  27.102  13.398
66644W        W26180  29.499  20.062  10.634
66645W        W26181  37.079   4.921  14.937
66646W        W26182   9.810   6.881   3.266
66647W        W26183  24.109  15.264   4.348
66648W        W26184  15.745  34.488  10.057
66649W        W26185  14.704   6.312   4.824
66650W        W26186  43.478  33.600  10.110
66651W        W26187  30.999  39.372  11.395
66652W        W26188  40.954  29.430  11.931
66653W        W26189  37.344  20.615  11.511
66654W        W26190  43.468   1.818  10.017
66655W        W26191   7.278  14.668   4.727
66656W        W26192  40.834   5.724  14.911
66657W        W26193  35.880  10.799  10.424
66658W        W26194  34.536  35.890  13.401
66659W        W26195  29.476  27.615   0.453
66660W        W26196   2.950  41.841  11.447
66661W        W26197  12.148  23.083   3.636
66662W        W26198   7.247  22.565   2.248
66663W        W26199  13.283  37.550  10.404
66664W        W26200  38.404  40.917   4.348
66665W        W26201   5.225  43.791   4.650
66666W        W26202  13.265  42.432   4.135
66667W        W26203   7.686  17.583  13.422
66668W        W26204  14.611   1.320  12.560
66669W        W26205  37.469  39.866  10.945
66670W        W26206  12.822  27.464   1.311
66671W        W26207  25.132  25.490   0.263
66672W        W26208  44.375  15.688   3.837
66673W        W26209   2.438  30.939  11.515
66674W        W26210  18.549   3.801  13.015
66675W        W26211  43.290  11.666  14.371
66676W        W26212  26.585  33.515   0.443
66677W        W26213  42.450  17.064  14.481
66678W        W26214  17.064   5.737  12.052
66679W        W26215  12.656  38.366  10.410
66680W        W26216  41.945  15.202   3.710
66681W        W26217   6.185   6.739   3.295
66682W        W26218  13.770  12.240  14.430
66683W        W26219  15.328  29.001   2.765
66684W        W26220  44.283  39.968   1.896
66685W        W26221  38.848  33.081   0.839
66686W        W26222  13.625  23.537  11.038
66687W        W26223  40.935   3.764   9.573
66688W        W26224  31.101   7.698   2.390
66689W        W26225   5.234  20.688  10.971
66690W        W26226  12.123  10.838   1.276
66691W        W26227  17.151   4.912  14.302
66692W        W26228   9.709  10.745   2.315
66693W        W26229  42.800   2.812  14.025
66694W        W26230   2.243  26.479  14.283
66695W        W26231  33.596  32.590   3.175
66696W        W26232   9.263  13.793  12.413
66697W        W26233   0.875  36.015  14.768
66698W        W26234   0.407   3.913   3.708
66699W        W26235  36.085  32.622   2.903
66700W        W26236  11.185   1.945   0.382
66701W        W26237  17.251  26.119  11.506
66702W        W26238  27.466  26.968  13.860
66703W        W26239  41.850  14.611   1.304
66704W        W26240  22.671   5.861   9.976
66705W        W26241  22.679  17.683  11.514
66706W        W26242   1.733  33.059   1.318
66707W        W26243   1.919  42.456  10.999
66708W        W26244  39.966  37.989  12.078
66709W        W26245  30.122  25.126   3.836
66710W        W26246  15.712   3.765   2.705
66711W        W26247  16.077   6.316  11.420
66712W        W26248  39.065  33.569  11.465
66713W        W26249  37.865  16.304  10.633
66714W        W26250  35.416  29.095   2.262
66715W        W26251  23.990  31.474   0.766
66716W        W26252  31.596  33.122  13.504
66717W        W26253   5.809  33.617   3.266
66718W        W26254  15.636   5.228   3.815
66719W        W26255   4.323  10.163   0.961
66720W        W26256  26.016  35.484   0.416
66721W        W26257  17.664  28.657  11.921
66722W        W26258  22.707  22.041   0.302
66723W        W26259   7.792  10.684  12.939
66724W        W26260  25.712  17.763   1.326
66725W        W26261  28.505  34.472  13.535
66726W        W26262   2.252  27.586   0.416
66727W        W26263  35.994  32.069  10.973
66728W        W26264   7.708  32.970   2.385
66729W        W26265  19.746  12.641   4.698
66730W        W26266   2.823  21.631  10.614
66731W        W26267   8.729  12.297   0.415
66732W        W26268   9.340   1.960  12.906
66733W        W26269  18.250  23.056   0.934
66734W        W26270  26.490   5.828   1.919
66735W        W26271  24.702  28.153  12.885
66736W        W26272  25.020   1.349  11.584
66737W        W26273   1.353  33.542  11.569
66738W        W26274  22.060  34.514  11.033
66739W        W26275  30.072  19.229  12.341
66740W        W26276  10.830   8.277   3.206
66741W        W26277   3.731  16.755   0.434
66742W        W26278  36.078  24.045   1.297
66743W        W26279  38.008   5.400  11.950
66744W        W26280   1.319   8.171  14.888
66745W        W26281   3.289  13.330  14.505
66746W        W26282  42.936  30.128   1.346
66747W        W26283  39.413  17.760   0.729
66748W        W26284  29.054  17.299  12.364
66749W        W26285  25.553  14.752  11.494
66750W        W26286   6.684  38.411   3.834
66751W        W26287  41.467  29.017   3.335
66752W        W26288  17.081  28.123  13.481
66753W        W26289  10.735  28.149  14.503
66754W        W26290  28.452  40.365   0.934
66755W        W26291  18.782   9.173  12.370
66756W        W26292  15.290  36.398   4.221
66757W        W26293  26.112  22.071   2.331
66758W        W26294  35.531  30.502   0.454
66759W        W26295  38.940   5.368  14.359
66760W        W26296   9.848  25.644   0.757
66761W        W26297  21.245  40.380   1.729
66762W        W26298   5.830   7.187   3.655
66763W        W26299  31.556   9.341  12.082
66764W        W26300  38.380  10.832   0.360
66765W        W26301  26.570  44.406  13.323
66766W        W26302   5.417  14.187  12.023
66767W        W26303  36.861  28.647  11.870
66768W        W26304  39.340  19.179   4.155
66769W        W26305   7.665  33.991   3.238
66770W        W26306  37.855   8.239   0.874
66771W        W26307   4.316  30.438   3.358
66772W        W26308  44.981  18.578   4.678
66773W        W26309  43.014  41.822   4.600
66774W        W26310  44.434  23.600   5.191
66775W        W26311  43.998  26.475   9.962
66776W        W26312   8.225  18.281  14.279
66777W        W26313  23.213  10.322   2.864
66778W        W26314  20.711   5.906   5.152
66779W        W26315  10.352   2.764  11.596
66780W        W26316  43.305  43.822  10.980
66781W        W26317  33.414  12.188   0.442
66782W        W26318  16.567  38.076   0.775
66783W        W26319  20.583  37.901   1.755
66784W        W26320  12.856  39.340   3.166
66785W        W26321  41.426  30.960  11.032
66786W        W26322  30.435  35.884  13.903
66787W        W26323  32.055   1.273   0.482
66788W        W26324  20.147  12.768   1.450
66789W        W26325  31.625  21.221  11.022
66790W        W26326  40.944  40.030  11.509
66791W        W26327  42.851   0.352   4.311
66792W        W26328  27.993   1.272   1.700
66793W        W26329  35.363  35.955   2.271
66794W        W26330  39.972  28.484   3.203
66795W        W26331  42.919   6.677   1.294
66796W        W26332   0.827  20.068  12.524
66797W        W26333  30.487  10.348  14.374
66798W        W26334  42.910  35.465  14.851
66799W        W26335  42.336  44.471  12.062
66800W        W26336   9.296  38.869  10.888
66801W        W26337  32.563  38.338  12.019
66802W        W26338  10.344  16.616  13.969
66803W        W26339  32.623  31.940  14.807
66804W        W26340  35.492  30.550   3.830
66805W        W26341  27.629  12.727   1.824
66806W        W26342   2.401  15.797   3.698
66807W        W26343  28.098  33.430  13.329
66808W        W26344  28.565   1.732   2.223
66809W        W26345  10.765  23.600  11.611
66810W        W26346  11.185  39.914   0.315
66811W        W26347  39.839  12.655  11.456
66812W        W26348  37.874   1.243   3.373
66813W        W26349  19.256  24.984  11.503
66814W        W26350   2.919  22.060  13.969
66815W        W26351  34.509   5.267  10.589
66816W        W26352  30.444  29.649   2.258
66817W        W26353  40.525  34.077  14.776
66818W        W26354  11.245  31.143  13.449
66819W        W26355  31.516   2.963   4.599
66820W        W26356  28.463  21.079  14.856
66821W        W26357  27.077  27.002   3.232
66822W        W26358   6.417   8.814  14.425
66823W        W26359   1.477  33.037   2.768
66824W        W26360   5.857  21.648   0.360
66825W        W26361  13.695   0.866   2.861
66826W        W26362   7.777  27.571   3.310
66827W        W26363  11.355  16.677  14.817
66828W        W26364  43.340   7.351   4.159
66829W        W26365  37.087  13.666   3.202
66830W        W26366  27.060  26.599  14.010
66831W        W26367   8.371   1.422  10.892
66832W        W26368  29.924  14.217  13.524
66833W        W26369  36.552  15.271   0.322
66834W        W26370  11.672  34.034  13.872
66835W        W26371  40.472  40.967   1.805
66836W        W26372  20.614  29.049   3.341
66837W        W26373  23.495  24.990   1.854
66838W        W26374   9.196  30.936   1.230
66839W        W26375  33.541  29.599  12.508
66840W        W26376  10.856  43.439  12.442
66841W        W26377   5.746  20.157  14.823
66842W        W26378   6.337  41.923   3.373
66843W        W26379  15.736  30.546  12.362
66844W        W26380   2.312  37.427   4.301
66845W        W26381   4.324  22.228   3.780
66846W        W26382  40.910   3.763  12.575
66847W        W26383  29.096  15.719  14.951
66848W        W26384  26.479  19.759  10.593
66849W        W26385  19.715  24.169  13.392
66850W        W26386  18.620   7.383   3.862
66851W        W26387  34.038  13.132   4.343
66852W        W26388  38.970   5.718  10.119
66853W        W26389  41.020  18.685  12.578
66854W        W26390  44.344  34.954  11.450
66855W        W26391  25.536   7.249   4.345
66856W        W26392   7.287  32.490  14.886
66857W        W26393  28.604  44.467   0.756
66858W        W26394  35.466   4.742   0.381
66859W        W26395  37.381  25.635  11.419
66860W        W26396  13.799  25.655  12.577
66861W        W26397  40.822  18.159  14.480
66862W        W26398   8.288  40.379   4.216
66863W        W26399   1.365   5.697   0.267
66864W        W26400  20.548  23.695  11.099
66865W        W26401  14.602   3.718  11.918
66866W        W26402   9.359  24.607   5.152
66867W        W26403  13.332  23.075   4.798
66868W        W26404  19.115   4.443   4.289
66869W        W26405   1.237  15.268  14.331
66870W        W26406  40.997  40.323  14.871
66871W        W26407  31.507   0.895  12.036
66872W        W26408  17.151   1.904   4.764
66873W        W26409  15.731  41.414  13.390
66874W        W26410  14.759  17.679  14.502
66875W        W26411  44.486  43.308  12.520
66876W        W26412  34.937   2.449   4.610
66877W        W26413   3.310  30.636   1.733
66878W        W26414   7.694  31.027  11.879
66879W        W26415  15.789  16.127  14.280
66880W        W26416   5.256  42.848  14.350
66881W        W26417   8.883  25.151   0.788
66882W        W26418  38.438  14.276  12.014
66883W        W26419  40.955  10.294  11.605
66884W        W26420  44.802   2.903  14.813
66885W        W26421  36.437  42.014  10.547
66886W        W26422  39.330  21.667  10.626
66887W        W26423  11.824  30.505   5.194
66888W        W26424  44.795  41.476   3.707
66889W        W26425  14.268  21.090   3.770
66890W        W26426  21.262  40.903   1.312
66891W        W26427  16.117   5.852   3.150
66892W        W26428  28.007   4.238  10.409
66893W        W26429   1.764  30.120   4.143
66894W        W26430  36.581  31.429  13.963
66895W        W26431   9.836   6.388  14.504
66896W        W26432  37.082   9.858   3.290
66897W        W26433  29.950  11.783   2.250
66898W        W26434   2.279  21.203  14.915
66899W        W26435  29.165   3.370   4.662
66900W        W26436  33.032  32.571   1.855
66901W        W26437  17.577  43.874   3.706
66902W        W26438  32.408   6.190   4.773
66903W        W26439  28.070   0.299  12.983
66904W        W26440  35.592  44.380   2.192
66905W        W26441  11.370   6.286  10.514
66906W        W26442  19.686  18.717  11.481
66907W        W26443  12.709  31.070   4.276
66908W        W26444  30.925   1.861   4.603
66909W        W26445  27.998  26.194   0.893
66910W        W26446  22.215  42.458   0.757
66911W        W26447   3.941   7.855  14.308
66912W        W26448  23.112   4.839   4.167
66913W        W26449  33.904  13.786   3.193
66914W        W26450  31.538  39.884  14.994
66915W        W26451  14.282  23.051  10.530
66916W        W26452  36.007  37.565  12.370
66917W        W26453  23.654  27.505   3.699
66918W        W26454  36.902  16.705  13.872
66919W        W26455  35.002  38.006   2.850
66920W        W26456  33.529  10.255   4.239
66921W        W26457  27.685  20.541   0.263
66922W        W26458  17.121  33.900   2.815
66923W        W26459  40.807   7.243   0.359
66924W        W26460   8.821  43.990   4.328
66925W        W26461  10.159   6.215   2.821
66926W        W26462   5.398   3.876   2.289
66927W        W26463  27.044  33.490  11.584
66928W        W26464  37.409  12.771  12.996
66929W        W26465  38.553  15.578  11.086
66930W        W26466  23.542  43.924  14.289
66931W        W26467  29.548   1.311  12.868
66932W        W26468   1.785  21.168  11.380
66933W        W26469  32.055   7.870  13.541
66934W        W26470  25.987   3.345   3.856
66935W        W26471  43.866  13.755  12.005
66936W        W26472  13.200   8.382  10.620
66937W        W26473  11.736  11.141  13.937
66938W        W26474   6.832  26.144  13.920
66939W        W26475  30.069  22.713  12.425
66940W        W26476  39.348  42.994   1.774
66941W        W26477  33.018  19.267   1.860
66942W        W26478  16.105  23.560   1.268
66943W        W26479  21.090  22.190   2.192
66944W        W26480  19.732  26.472  11.963
66945W        W26481  31.968  24.003   9.564
66946W        W26482  20.087  10.265  12.448
66947W        W26483  35.431  21.653   4.799
66948W        W26484  13.196  44.920   0.346
66949W        W26485  29.663  23.187   3.742
66950W        W26486  43.401   1.363  12.404
66951W        W26487   1.243   8.170   4.786
66952W        W26488  37.994  42.301  13.828
66953W        W26489   3.870  24.601   0.462
66954W        W26490   2.240  13.792  12.075
66955W        W26491  21.646   3.835   5.184
66956W        W26492   2.907  32.447  13.899
66957W        W26493  39.958  19.167   0.252
66958W        W26494  31.635   9.382  10.912
66959W        W26495  21.232  12.695  11.428
66960W        W26496  38.405  14.222  11.089
66961W        W26497  33.391  31.525   1.934
66962W        W26498  24.156  42.367   3.656
66963W        W26499  12.156  44.753   4.715
66964W        W26500   2.370  23.179  14.296
66965W        W26501  26.108  12.282   0.901
66966W        W26502   8.376  35.866   2.727
66967W        W26503   6.704  12.169  11.054
66968W        W26504  35.447  22.597   0.312
66969W        W26505  10.158   6.412   1.315
66970W        W26506  15.272  15.171   0.770
66971W        W26507  14.769  33.990  11.072
66972W        W26508  31.111  10.677  14.872
66973W        W26509   6.795  35.379   0.839
66974W        W26510  23.051   0.862   4.747
66975W        W26511  37.498  29.949   0.953
66976W        W26512   3.841  37.836  14.774
66977W        W26513  28.111  21.123  11.591
66978W        W26514  25.672  35.893  11.387
66979W        W26515  27.148   4.421  10.534
66980W        W26516   2.923  15.721   4.114
66981W        W26517   3.360   2.946   1.328
66982W        W26518  33.077  12.620  12.852
66983W        W26519  18.217  10.719  10.578
66984W        W26520  30.995  39.925  14.404
66985W        W26521  10.638  12.163  13.796
66986W        W26522   3.789  33.909  13.519
66987W        W26523  34.898  36.019   4.750
66988W        W26524   5.413  14.716  14.005
66989W        W26525  27.596  44.454   3.667
66990W        W26526  27.616  20.543   2.179
66991W        W26527   4.852  33.890   0.791
66992W        W26528  34.934  43.470   4.310
66993W        W26529  27.620   1.784  10.982
66994W        W26530  24.068   8.698  10.977
66995W        W26531  37.575   1.295   2.301
66996W        W26532  32.395  41.374  10.419
66997W        W26533   4.321   6.401   0.828
66998W        W26534  44.480  25.710  10.027
66999W        W26535   9.739  22.216   3.369
67000W        W26536  21.544  12.849   2.246
67001W        W26537  17.632  22.737  14.399
67002W        W26538  36.407   5.762  12.502
67003W        W26539  14.207  41.357  14.330
67004W        W26540  36.469   6.684   0.382
67005W        W26541  19.583  20.156   1.416
67006W        W26542  35.986  14.778  10.433
67007W        W26543  21.752  41.987   2.284
67008W        W26544  37.981  15.271   4.754
67009W        W26545  44.788  41.413  11.466
67010W        W26546  10.254  38.012  14.400
67011W        W26547  33.000  13.700  13.972
67012W        W26548  23.621   7.267   3.738
67013W        W26549  24.529  19.233   2.684
67014W        W26550  18.263  44.772  11.393
67015W        W26551  25.643  24.662   1.784
67016W        W26552   4.781  11.817   1.434
67017W        W26553  20.532  18.695   0.396
67018W        W26554   0.380  26.624   4.716
67019W        W26555  19.707  10.170   0.482
67020W        W26556  34.595  32.085   4.184
67021W        W26557   4.792  28.075  11.405
67022W        W26558  42.411  31.476  12.995
67023W        W26559  20.089   0.867  13.953
67024W        W26560  21.714  41.962  14.812
67025W        W26561   1.849  34.465   1.404
67026W        W26562  25.636  40.927   2.380
67027W        W26563  27.591  29.430   0.421
67028W        W26564   2.272   4.846   0.749
67029W        W26565  15.585  40.974  14.441
67030W        W26566  16.157  11.161  11.591
67031W        W26567   2.894   9.712  12.005
67032W        W26568  17.245  44.830   4.721
67033W        W26569  28.636  38.850  13.863
67034W        W26570  23.658   7.736   3.168
67035W        W26571  18.612   3.725   0.390
67036W        W26572  33.521  19.223  14.834
67037W        W26573  41.529  18.722   1.825
67038W        W26574  11.720  26.510  14.905
67039W        W26575  22.113  21.665  10.136
67040W        W26576  27.155  28.635   0.351
67041W        W26577  32.049   5.299   4.710
67042W        W26578  40.948  44.780   2.189
67043W        W26579  43.370  30.922   4.259
67044W        W26580  29.116  31.916  14.812
67045W        W26581  39.881  42.880  13.505
67046W        W26582  12.338  26.985   2.717
67047W        W26583  23.174  11.261  10.593
67048W        W26584  20.706  13.657  11.084
67049W        W26585  24.169  42.877   1.919
67050W        W26586  44.982  16.632   2.756
67051W        W26587   3.788  42.285  11.987
67052W        W26588   6.270  42.995   4.822
67053W        W26589  38.820   1.935   1.328
67054W        W26590  35.499  35.421   2.409
67055W        W26591   4.318   5.212   0.866
67056W        W26592  44.334   7.858   3.745
67057W        W26593  35.881  22.565   2.275
67058W        W26594  23.093  16.144   0.313
67059W        W26595  38.011   3.885  11.587
67060W        W26596  39.810  37.050   2.220
67061W        W26597  20.528  18.568   1.804
67062W        W26598  40.885  36.454   2.681
67063W        W26599  26.066   1.865  10.628
67064W        W26600  21.539  25.205  12.038
67065W        W26601  23.074  15.601   4.755
67066W        W26602  17.774  24.203  13.410
67067W        W26603  22.025   1.480   3.367
67068W        W26604  39.814  32.432  12.049
67069W        W26605   6.381  34.103  14.460
67070W        W26606  16.307  25.028  14.420
67071W        W26607  44.452   1.365   3.274
67072W        W26608  30.985  25.024   2.694
67073W        W26609  22.137   0.854  13.930
67074W        W26610  22.581   8.300   0.854
67075W        W26611  22.607   5.380  11.969
67076W        W26612  20.190  23.168   0.735
67077W        W26613  35.539  30.012   2.300
67078W        W26614   5.776   3.925   4.790
67079W        W26615  13.761  37.445  13.887
67080W        W26616  34.492  36.353  10.643
67081W        W26617   1.304  17.557   4.254
67082W        W26618  15.681  39.338  11.889
67083W        W26619  36.032  33.116  13.792
67084W        W26620  11.290  42.895   4.154
67085W        W26621  35.437  19.261   1.355
67086W        W26622  28.638   1.830  13.459
67087W        W26623  10.830   4.285  12.022
67088W        W26624   3.914   6.234   4.203
67089W        W26625  27.592  11.835   4.252
67090W        W26626  16.244   5.774  13.895
67091W        W26627   4.381  18.708   4.718
67092W        W26628  10.339  44.415   2.356
67093W        W26629  17.669  27.631   1.783
67094W        W26630   7.393  42.983  13.916
67095W        W26631  13.651  28.971   3.214
67096W        W26632  30.451  14.287  13.488
67097W        W26633   4.890  33.554  12.855
67098W        W26634  39.940  31.460   0.399
67099W        W26635  27.647  16.082   1.775
67100W        W26636  44.885  29.132   4.117
67101W        W26637  26.180  37.384  13.520
67102W        W26638  22.097  28.992   3.672
67103W        W26639  10.823  40.976  14.989
67104W        W26640  43.971  12.788   0.815
67105W        W26641  37.001   1.822  11.482
67106W        W26642  21.651  10.260  11.574
67107W        W26643   5.357  15.114  13.792
67108W        W26644   2.325  41.919   4.633
67109W        W26645  40.537  28.620  14.903
67110W        W26646  24.638  44.847   3.157
67111W        W26647  25.201   4.221   2.812
67112W        W26648  40.904  24.212  13.473
67113W        W26649   3.390   1.883   2.200
67114W        W26650  20.154  35.963  14.504
67115W        W26651   6.847  30.988  10.583
67116W        W26652   9.192  33.580   0.377
67117W        W26653  21.635  11.129  14.476
67118W        W26654  25.623   0.482   4.183
67119W        W26655  31.919  23.084  14.929
67120W        W26656  34.893  21.033   1.419
67121W        W26657  39.382  33.486   2.815
67122W        W26658  39.519  40.498   0.335
67123W        W26659  41.307  42.317  10.576
67124W        W26660  29.111  31.628   3.250
67125W        W26661  42.384  11.262  12.972
67126W        W26662  29.507  36.044  13.429
67127W        W26663  42.015  11.864   1.300
67128W        W26664  31.085  43.308   0.443
67129W        W26665   0.920  21.520  12.923
67130W        W26666  18.669   3.413   4.813
67131W        W26667  11.233   2.419   4.336
67132W        W26668  11.246  14.254   2.831
67133W        W26669   6.740  16.195  11.857
67134W        W26670   7.845  28.555  13.863
67135W        W26671  41.018  14.185   2.386
67136W        W26672  22.708  29.099  11.448
67137W        W26673  31.591  44.448  11.889
67138W        W26674  41.461  32.942   0.470
67139W        W26675  27.538  12.823  12.076
67140W        W26676  12.303  29.120   1.769
67141W        W26677  33.424  38.942  12.043
67142W        W26678   4.403  39.936  11.934
67143W        W26679  39.961   7.910  10.579
67144W        W26680  27.600  23.126   3.333
67145W        W26681  29.079  21.044   2.366
67146W        W26682  39.438  33.019  10.576
67147W        W26683   5.761   5.867  11.395
67148W        W26684   7.736  11.785   3.839
67149W        W26685  32.405   5.211   3.218
67150W        W26686  37.576  24.722  13.015
67151W        W26687  18.237   3.397   0.924
67152W        W26688  37.032  25.051   4.247
67153W        W26689  17.668  28.955   0.768
67154W        W26690  39.881  17.264   0.755
67155W        W26691   6.375  17.757  13.420
67156W        W26692   0.464  34.494  10.915
67157W        W26693  17.115  27.964  11.018
67158W        W26694  10.174   0.292   0.394
67159W        W26695  34.470  28.994   3.147
67160W        W26696   0.966  25.070  14.450
67161W        W26697  39.525  41.455   2.342
67162W        W26698  29.121  19.091   2.346
67163W        W26699  38.825  12.640  14.819
67164W        W26700  24.190   9.199  14.829
67165W        W26701   5.749  34.890   4.191
67166W        W26702  29.019   0.980  13.475
67167W        W26703  17.204  17.232   4.695
67168W        W26704  10.352  25.597   5.172
67169W        W26705  12.311  25.134   0.320
67170W        W26706  25.009   2.307   1.826
67171W        W26707  35.876   3.416   1.851
67172W        W26708  44.408   3.873   4.710
67173W        W26709  14.149  22.726  11.588
67174W        W26710  10.745  25.566   5.126
67175W        W26711  28.100  18.274  11.923
67176W        W26712  40.484   8.891  11.526
67177W        W26713  33.051  43.936  11.493
67178W        W26714   9.291  34.517   2.351
67179W        W26715  24.534  42.934   0.367
67180W        W26716   7.389  40.839  12.918
67181W        W26717  25.492   7.842  14.898
67182W        W26718  16.296  40.313  12.397
67183W        W26719  19.047   8.773   4.183
67184W        W26720  31.116   1.843   0.929
67185W        W26721  11.634  12.136  12.955
67186W        W26722  23.572  44.885   2.806
67187W        W26723  24.210  41.866   0.862
67188W        W26724   6.321   7.866   0.762
67189W        W26725   5.381  39.494   2.292
67190W        W26726   3.838  18.623  10.420
67191W        W26727  42.848  34.870  11.521
67192W        W26728  42.919  13.713  12.851
67193W        W26729  31.558   8.363  10.473
67194W        W26730  40.820  27.531  10.424
67195W        W26731  28.182   3.901   2.265
67196W        W26732  22.680  26.067   1.338
67197W        W26733  28.985   4.332  13.448
67198W        W26734   4.356  30.553   4.651
67199W        W26735   5.312  10.244   4.809
67200W        W26736   7.290  40.847  11.534
67201W        W26737  31.014  24.587   3.265
67202W        W26738  43.341  26.190  15.000
67203W        W26739   4.828  24.180   4.622
67204W        W26740  22.567  17.260   1.889
67205W        W26741  27.023  13.771   3.154
67206W        W26742  28.543  26.079  11.120
67207W        W26743  10.249  35.036   0.433
67208W        W26744  40.820  23.684  12.345
67209W        W26745   9.364  37.065  13.843
67210W        W26746   0.963   0.349   3.800
67211W        W26747   0.945  22.036  11.050
67212W        W26748  24.515  31.047   1.214
67213W        W26749  44.399  28.588  11.066
67214W        W26750  15.590  28.019   2.202
67215W        W26751  41.401  40.379  13.443
67216W        W26752  27.459   5.402  10.532
67217W        W26753  23.162  37.903   1.703
67218W        W26754  24.620  40.811   1.322
67219W        W26755  11.371  28.071  12.005
67220W        W26756  38.390  19.250  11.557
67221W        W26757   5.270  28.582   4.182
67222W        W26758  20.274  24.076   4.733
67223W        W26759  44.919  41.390   1.914
67224W        W26760  18.708   6.240   4.257
67225W        W26761  17.265  17.266  14.815
67226W        W26762  11.156  37.076   4.738
67227W        W26763  18.262  28.036  14.480
67228W        W26764  11.765  24.557   1.336
67229W        W26765  37.935  21.207   5.266
67230W        W26766   5.425  25.547   3.656
67231W        W26767  39.826  17.794   1.436
67232W        W26768  15.582  21.121   1.258
67233W        W26769  28.067  16.234   3.279
67234W        W26770  42.394  23.629  11.039
67235W        W26771  31.017  24.618  12.876
67236W        W26772  23.133  26.025  11.465
67237W        W26773  32.531  36.059   0.899
67238W        W26774  18.689  33.121  13.383
67239W        W26775  18.272  26.073  11.582
67240W        W26776  33.484  34.460  14.452
67241W        W26777  44.501  27.192   3.324
67242W        W26778  20.632  43.353  10.897
67243W        W26779  34.941  16.779  10.482
67244W        W26780   6.378  35.856  12.066
67245W        W26781  44.336   8.297   3.243
67246W        W26782  29.983  15.227  14.859
67247W        W26783   9.875   8.718   3.813
67248W        W26784  21.676  33.112  13.332
67249W        W26785   6.775  21.228   4.308
67250W        W26786  42.397   8.872   5.254
67251W        W26787  39.483   2.739   0.298
67252W        W26788  39.947  23.079   2.402
67253W        W26789  17.115  15.717  14.377
67254W        W26790  38.013  10.663   3.743
67255W        W26791  40.305  40.960  12.882
67256W        W26792  39.437  41.496   1.805
67257W        W26793  27.512   0.983  11.882
67258W        W26794  42.024   7.763   3.836
67259W        W26795  18.622   2.311  11.947
67260W        W26796  26.659   8.319  14.960
67261W        W26797   8.885  39.362   2.313
67262W        W26798  30.454  44.469  10.147
67263W        W26799  21.038  38.505  10.051
67264W        W26800  32.047  26.992   2.335
67265W        W26801  22.196  32.472  10.889
67266W        W26802  41.439   2.822  13.022
67267W        W26803  19.663  36.429   4.151
67268W        W26804  20.068   8.304  12.838
67269W        W26805  30.158  33.101  14.493
67270W        W26806  43.470  24.071  14.969
67271W        W26807  42.843   1.744   3.734
67272W        W26808  37.013  25.519   4.292
67273W        W26809   1.951  24.053   0.759
67274W        W26810   6.264  30.119   2.206
67275W        W26811  27.986  26.128   9.960
67276W        W26812  20.583  15.747   0.962
67277W        W26813   0.438   4.242   4.178
67278W        W26814   7.851  40.964   4.154
67279W        W26815  40.968  37.447   0.798
67280W        W26816  19.128  28.160   2.327
67281W        W26817  14.719  13.138  12.963
67282W        W26818  30.071  31.454  11.932
67283W        W26819  34.430  14.674  14.492
67284W        W26820  22.095  39.507   0.967
67285W        W26821  34.590  35.484  13.449
67286W        W26822   4.785  25.628  12.469
67287W        W26823   5.689  34.970   1.871
67288W        W26824   2.805  26.616   3.159
67289W        W26825  16.811  31.015  13.379
67290W        W26826   7.777  30.020  12.941
67291W        W26827  37.339   1.346  11.987
67292W        W26828   8.238  35.391  12.987
67293W        W26829   5.290   7.379  10.901
67294W        W26830  16.229   4.334  13.437
67295W        W26831  25.070  20.203  11.116
67296W        W26832  35.089   9.332   4.655
67297W        W26833  15.099  36.074  12.398
67298W        W26834  43.903  15.087  13.011
67299W        W26835  18.050  41.925  13.521
67300W        W26836  13.256  43.909   0.735
67301W        W26837  26.951  14.681  11.908
67302W        W26838  34.097   6.707  10.490
67303W        W26839   4.898  31.470  14.396
67304W        W26840  34.079  25.083  11.970
67305W        W26841   9.367  44.331   4.606
67306W        W26842  25.180  44.413  14.908
67307W        W26843   8.885  16.569   9.943
67308W        W26844  44.942  13.661   2.194
67309W        W26845  13.117  25.672   0.880
67310W        W26846  44.996   0.795   2.309
67311W        W26847  38.502  41.865   1.251
67312W        W26848  16.209  44.259   1.879
67313W        W26849   6.791   4.320  12.442
67314W        W26850   0.259  20.671   3.795
67315W        W26851  10.368  27.967   4.606
67316W        W26852  10.705  32.953  14.010
67317W        W26853  20.188  36.947  14.848
67318W        W26854  28.500  26.550  12.071
67319W        W26855   0.974  44.788  14.504
67320W        W26856  14.626   9.677   0.261
67321W        W26857  40.965  17.303   2.410
67322W        W26858  36.858  30.981   0.331
67323W        W26859  20.575   2.952   4.695
67324W        W26860   5.931  32.599   2.320
67325W        W26861  13.292  32.097   3.778
67326W        W26862  14.649  11.860  10.140
67327W        W26863   9.219   1.977   1.877
67328W        W26864  44.405   5.710  14.388
67329W        W26865  42.818  24.719   0.738
67330W        W26866  21.574  14.736  14.405
67331W        W26867  40.495  17.233  14.802
67332W        W26868  39.559  42.514   0.368
67333W        W26869  17.208  17.260   1.286
67334W        W26870   9.206  33.112   4.719
67335W        W26871  24.676  13.297  11.392
67336W        W26872  42.438   3.360  11.855
67337W        W26873  17.087  30.480  13.502
67338W        W26874  37.913  17.784   0.748
67339W        W26875  35.391  12.177  10.915
67340W        W26876  16.684  34.504   4.648
67341W        W26877  21.666  10.369   2.180
67342W        W26878  14.793  16.304   2.343
67343W        W26879  11.856  24.614  14.781
67344W        W26880  36.591  24.706  10.413
67345W        W26881   1.797  38.511  11.465
67346W        W26882  31.076  11.669  11.371
67347W        W26883   4.417  31.549   1.752
67348W        W26884  20.109  25.138   4.667
67349W        W26885  10.820   5.847   4.650
67350W        W26886  11.727   2.785  14.369
67351W        W26887  28.969   7.782  12.012
67352W        W26888  37.990  30.022   0.415
67353W        W26889  29.944  33.522   1.313
67354W        W26890  14.244  22.135   0.731
67355W        W26891  28.533  22.038  14.794
67356W        W26892   2.761  30.069   0.338
67357W        W26893  13.329  31.996   4.699
67358W        W26894  16.090  42.447  11.401
67359W        W26895  40.031  40.899  13.382
67360W        W26896  28.584  26.703  14.297
67361W        W26897  21.554   5.878   5.103
67362W        W26898  24.155  27.094  12.057
67363W        W26899  31.047  19.253   1.877
67364W        W26900  35.463  35.867   1.880
67365W        W26901  24.684  39.533  10.642
67366W        W26902  29.002  36.891   4.666
67367W        W26903  15.709  39.895   4.733
67368W        W26904   5.870  37.867  14.915
67369W        W26905  35.097  11.291  13.047
67370W        W26906  20.166  32.559  11.924
67371W        W26907  27.460   7.235  11.483
67372W        W26908  42.963  37.005  11.890
67373W        W26909  26.100  10.841   1.360
67374W        W26910  14.596  22.040   4.719
67375W        W26911  19.732  26.134  13.957
67376W        W26912  14.725  24.030  12.391
67377W        W26913   8.890  27.569  13.360
67378W        W26914  23.077  16.765   1.391
67379W        W26915  15.165  11.655  10.896
67380W        W26916   2.459  13.326   1.345
67381W        W26917  35.048  31.138  11.871
67382W        W26918  25.045  34.025  14.932
67383W        W26919  35.871  38.967   3.648
67384W        W26920  10.233  38.515  13.934
67385W        W26921  29.089  16.097   2.815
67386W        W26922  34.047  38.345  10.421
67387W        W26923   4.276  21.712   2.233
67388W        W26924  31.403  21.581   2.716
67389W        W26925  29.085  17.616   1.910
67390W        W26926  27.634  42.414  11.596
67391W        W26927   7.846  23.230   1.850
67392W        W26928  42.905  27.590  13.061
67393W        W26929   3.220  39.544  12.396
67394W        W26930  38.860   2.354   0.811
67395W        W26931  28.482  26.499  10.473
67396W        W26932  24.016  40.538   4.603
67397W        W26933   7.171   2.403   2.881
67398W        W26934  44.415   2.403   0.831
67399W        W26935   8.821  11.153   3.242
67400W        W26936  35.982  13.696   0.912
67401W        W26937  18.168   3.882  10.893
67402W        W26938  31.532   6.732  14.941
67403W        W26939  19.594  32.945  10.990
67404W        W26940   6.713  33.941  13.995
67405W        W26941  40.542  19.625   3.337
67406W        W26942   1.296  25.189  13.375
67407W        W26943   7.678  17.264  10.493
67408W        W26944  25.574  11.178   4.184
67409W        W26945   2.423  23.144  11.036
67410W        W26946  43.508  18.243   2.313
67411W        W26947  38.973  27.016   3.232
67412W        W26948   3.905  20.682  11.470
67413W        W26949   6.228  10.172  11.585
67414W        W26950   2.441  43.010   3.219
67415W        W26951   7.176   2.823   2.878
67416W        W26952   6.399  17.761  11.042
67417W        W26953  24.098   6.261   4.809
67418W        W26954   7.302   9.378  11.880
67419W        W26955   4.412  34.995  14.816
67420W        W26956  38.067  24.990  10.592
67421W        W26957   0.822  43.918   0.861
67422W        W26958  27.648   7.745  14.281
67423W        W26959  28.144  11.666  13.969
67424W        W26960  17.738   2.333  10.538
67425W        W26961   9.225  31.439   3.337
67426W        W26962  19.757  14.143  12.958
67427W        W26963  19.720  21.653  11.016
67428W        W26964  25.042  23.496   0.391
67429W        W26965  17.158  34.410   1.911
67430W        W26966   4.873  30.043   4.299
67431W        W26967  12.246  32.606  13.942
67432W        W26968  36.543   0.750  14.300
67433W        W26969   5.215  15.620   3.786
67434W        W26970  29.943  22.177   2.855
67435W        W26971  12.826   7.810  10.081
67436W        W26972  35.080  21.586   2.260
67437W        W26973  12.295   2.765   0.348
67438W        W26974   1.285  13.604  14.834
67439W        W26975  36.975  43.981  12.015
67440W        W26976  19.229  35.505   4.705
67441W        W26977  44.756  25.573  13.053
67442W        W26978  30.449  18.734  11.479
67443W        W26979  17.204  15.170  13.824
67444W        W26980  11.712  24.182  11.526
67445W        W26981  32.924  39.056  14.380
67446W        W26982  12.306  13.710   4.184
67447W        W26983  41.294  19.590   1.242
67448W        W26984   1.845  11.239   1.445
67449W        W26985  37.498  33.955   4.225
67450W        W26986  34.457  27.002  12.030
67451W        W26987  38.042  23.093  12.979
67452W        W26988  43.499  34.377  13.865
67453W        W26989  13.613  22.012   0.774
67454W        W26990  14.788  24.492   0.878
67455W        W26991  34.927  26.679   0.780
67456W        W26992  22.592  25.049   0.292
67457W        W26993  32.563  35.554  14.936
67458W        W26994  41.833  19.571   0.933
67459W        W26995  28.988   1.949   3.810
67460W        W26996  38.064  38.327   4.352
67461W        W26997   9.854  14.771  13.989
67462W        W26998  20.667  30.158   3.651
67463W        W26999  16.720  35.527   2.355
67464W        W27000  17.799  19.210   4.288
67465W        W27001  40.883  32.123  12.439
67466W        W27002  41.433  13.804  13.031
67467W        W27003  31.528  35.954  13.509
67468W        W27004  27.614  30.074   4.140
67469W        W27005  12.669  28.965  13.825
67470W        W27006  36.984   3.870   3.294
67471W        W27007  36.368  39.942   4.835
67472W        W27008  13.682  34.614  13.979
67473W        W27009   9.665   6.919   4.339
67474W        W27010   1.312  31.092  14.310
67475W        W27011  10.730  27.606   3.282
67476W        W27012  34.970  11.857   3.270
67477W        W27013  37.875  13.332   3.257
67478W        W27014  35.424  23.561   2.762
67479W        W27015  43.015  17.189   2.255
67480W        W27016   2.321  30.603   1.282
67481W        W27017   0.834   2.958   3.835
67482W        W27018  26.015  25.210  13.836
67483W        W27019  25.075  32.918  13.834
67484W        W27020   0.818  30.425   5.127
67485W        W27021  40.877  18.261   0.751
67486W        W27022  26.614  39.488   4.629
67487W        W27023  21.589  18.655   5.166
67488W        W27024   4.447  35.511   2.701
67489W        W27025  40.530  29.436  11.874
67490W        W27026  19.213   9.662  14.942
67491W        W27027  25.652  44.931   1.708
67492W        W27028  16.569  32.008  13.521
67493W        W27029  43.385   1.828   1.738
67494W        W27030  22.606   4.254  14.421
67495W        W27031   4.706  21.539   2.732
67496W        W27032  10.667   8.266   0.362
67497W        W27033  10.287  37.891   2.834
67498W        W27034  37.088  14.694   1.216
67499W        W27035  20.161  11.250   0.429
67500W        W27036  32.982  27.066   5.113
67501W        W27037  35.583  22.672  14.990
67502W        W27038  17.643  12.289   3.152
67503W        W27039  23.225  32.131  14.841
67504W        W27040  34.053  10.281   1.223
67505W        W27041  38.365   0.332  10.922
67506W        W27042   4.944   9.386  13.061
67507W        W27043   8.720  41.507   4.690
67508W        W27044  28.024  12.194   3.755
67509W        W27045   8.286  40.349  10.430
67510W        W27046  32.418   9.718  13.389
67511W        W27047  26.192  18.587  10.926
67512W        W27048  41.350  11.777   1.847
67513W        W27049  26.613  39.815   3.635
67514W        W27050  10.824  36.570   2.675
67515W        W27051  17.592   4.850  14.501
67516W        W27052  11.135  32.894  10.505
67517W        W27053  41.314   4.866   0.886
67518W        W27054   2.374  42.389  10.553
67519W        W27055  42.836  38.473  13.466
67520W        W27056  31.526  29.467  11.923
67521W        W27057  22.627  40.973   0.877
67522W        W27058  44.310  29.170   4.314
67523W        W27059  34.471  20.561  14.341
67524W        W27060  16.158  31.622   1.885
67525W        W27061  13.343  27.040  10.586
67526W        W27062  17.785   2.754   1.736
67527W        W27063  31.978  11.369   4.151
67528W        W27064  11.837   9.758   0.482
67529W        W27065  30.970   1.254   3.857
67530W        W27066   5.348   7.873   2.210
67531W        W27067   8.856   4.920   0.857
67532W        W27068  16.313  40.419  12.951
67533W        W27069   4.884  23.635   2.764
67534W        W27070  41.538   5.796  11.967
67535W        W27071   7.384  26.506   2.791
67536W        W27072  36.482  21.530   1.277
67537W        W27073  40.956  12.324  11.597
67538W        W27074  32.457  28.144  10.999
67539W        W27075  25.519   3.255  10.560
67540W        W27076  12.686  26.090  12.339
67541W        W27077  42.961  35.864   2.181
67542W        W27078  11.818   3.815   0.313
67543W        W27079  28.170  17.652  13.394
67544W        W27080  34.013   1.427   2.889
67545W        W27081  26.471  38.385   4.616
67546W        W27082   8.671   4.304  10.483
67547W        W27083   2.750  43.426   1.325
67548W        W27084  19.055  22.625   5.611
67549W        W27085   3.412  39.000   3.827
67550W        W27086  21.076   1.794   4.609
67551W        W27087   0.465   8.835  10.444
67552W        W27088  18.696  25.520   3.371
67553W        W27089  21.150  36.979  10.046
67554W        W27090   3.417   5.784  13.540
67555W        W27091  43.500  12.838  14.897
67556W        W27092   1.808  11.700  12.014
67557W        W27093  29.586   4.794   9.974
67558W        W27094  42.525  25.034   0.452
67559W        W27095  14.657   3.769   1.355
67560W        W27096  30.616   4.730   0.277
67561W        W27097  28.170   9.197  13.423
67562W        W27098   0.405   1.902  14.983
67563W        W27099  14.803  36.372   2.249
67564W        W27100  39.972   7.815   0.961
67565W        W27101  40.986  11.766  10.542
67566W        W27102  33.438  14.589   1.809
67567W        W27103  17.630  17.222  13.038
67568W        W27104  28.664  24.493   2.828
67569W        W27105  27.551  16.666  11.567
67570W        W27106  29.960  32.456  14.929
67571W        W27107  15.652  19.766   9.651
67572W        W27108  32.556   7.885   4.815
67573W        W27109  32.601   8.834   2.271
67574W        W27110   7.323  27.482  12.076
67575W        W27111  24.104   6.345   1.707
67576W        W27112  30.026   9.372  12.344
67577W        W27113   8.753  33.964   2.268
67578W        W27114  33.117  36.951   4.268
67579W        W27115  26.007  15.778   4.141
67580W        W27116  35.992  37.940   1.795
67581W        W27117  37.881  20.679   4.277
67582W        W27118   7.699   6.686  12.991
67583W        W27119  10.175  43.335  14.002
67584W        W27120  43.495  28.980   1.823
67585W        W27121  38.522  19.596  14.458
67586W        W27122  43.397   4.207  11.512
67587W        W27123  38.511  42.974  13.030
67588W        W27124   0.293  24.165   2.662
67589W        W27125   4.349  10.721   1.796
67590W        W27126   3.823  36.998  13.421
67591W        W27127  36.076  15.612   4.326
67592W        W27128  29.596  38.482  14.514
67593W        W27129  22.122  13.239   4.217
67594W        W27130   8.793   7.346   0.285
67595W        W27131  22.714  39.826  11.043
67596W        W27132   4.242  18.755  12.047
67597W        W27133   8.881  25.552   3.146
67598W        W27134  13.306   3.287  11.903
67599W        W27135  42.832  12.797  14.031
67600W        W27136  25.570  24.625  10.913
67601W        W27137  15.203   9.690  11.944
67602W        W27138   9.702  34.111  11.426
67603W        W27139  25.488  21.160   4.321
67604W        W27140   4.320  38.434   3.265
67605W        W27141   0.273  40.408  12.911
67606W        W27142  32.063  44.400  14.020
67607W        W27143  27.117  38.397  10.470
67608W        W27144  23.994  42.892  13.981
67609W        W27145  34.495  34.501  10.937
67610W        W27146  36.964  16.753   1.715
67611W        W27147  34.567  44.319   5.277
67612W        W27148  32.920  40.838  11.940
67613W        W27149  37.512  38.012  12.084
67614W        W27150  40.908   8.220  11.112
67615W        W27151  14.154  13.177  11.860
67616W        W27152  42.493  40.453   2.851
67617W        W27153  36.408   5.802  11.075
67618W        W27154  25.076  29.468   1.850
67619W        W27155  14.766  32.070  12.062
67620W        W27156  31.051  31.958   1.891
67621W        W27157   2.411  14.201   2.251
67622W        W27158   6.833  28.142   1.880
67623W        W27159   0.346  32.565   3.684
67624W        W27160  15.126  21.664  14.426
67625W        W27161  43.924  37.031   3.276
67626W        W27162  42.461  21.158   2.417
67627W        W27163  33.980   8.718   0.768
67628W        W27164  31.911  11.703  11.472
67629W        W27165  43.912  44.469  10.944
67630W        W27166  11.256  29.435  14.331
67631W        W27167  40.847  10.176   3.269
67632W        W27168  14.615   4.295   4.225
67633W        W27169  24.508  35.461   1.384
67634W        W27170   1.352  34.500  12.433
67635W        W27171  10.277  11.758  11.999
67636W        W27172   7.227   0.307   0.321
67637W        W27173  25.092  26.680  12.032
67638W        W27174  43.766  27.197  13.978
67639W        W27175  38.534  20.644  10.442
67640W        W27176   4.397  31.413  13.954
67641W        W27177   5.922  38.845  12.477
67642W        W27178  40.336  29.603   1.867
67643W        W27179  17.103  37.400  11.001
67644W        W27180  21.244  38.527   4.628
67645W        W27181   0.838  28.558   0.845
67646W        W27182  17.209  21.546   2.730
67647W        W27183  19.215  34.384   3.725
67648W        W27184   2.312  29.507   0.265
67649W        W27185  43.506  41.955  11.440
67650W        W27186  43.409  12.218  12.570
67651W        W27187  24.075   5.811  12.968
67652W        W27188  31.926   7.879  12.458
67653W        W27189  24.531  11.237   3.760
67654W        W27190   1.920  15.743  13.925
67655W        W27191  18.762   5.813  13.418
67656W        W27192  29.146  34.570   0.252
67657W        W27193   8.312   6.895  12.424
67658W        W27194  27.066  25.025  12.965
67659W        W27195  15.773  26.164  12.024
67660W        W27196   3.269  44.809  11.604
67661W        W27197  30.554  12.279  10.560
67662W        W27198   9.877  20.735  11.061
67663W        W27199  13.803  36.998  11.610
67664W        W27200   7.778   7.306   4.250
67665W        W27201  25.533  24.678  11.471
67666W        W27202  20.637  26.966   4.823
67667W        W27203   1.323   8.307   2.858
67668W        W27204  32.916  17.111   4.336
67669W        W27205  31.998   7.199  12.873
67670W        W27206  42.974   4.803  11.545
67671W        W27207  12.266  13.142  11.087
67672W        W27208  22.617  18.213  12.823
67673W        W27209  12.703  24.055   0.451
67674W        W27210   1.753  13.646   1.729
67675W        W27211  39.442  24.201  10.450
67676W        W27212  34.436   4.829   4.648
67677W        W27213  39.392   3.835   0.836
67678W        W27214  31.954  38.524   3.700
67679W        W27215  41.981  22.042  13.440
67680W        W27216  34.606  30.097  14.874
67681W        W27217  30.153   5.801   1.851
67682W        W27218  13.783  18.615   1.258
67683W        W27219  10.381  25.128   0.890
67684W        W27220  34.553  35.057  11.984
67685W        W27221  36.546  18.221  10.555
67686W        W27222  24.547  18.779  13.872
67687W        W27223   4.371   1.466  13.918
67688W        W27224  42.518  21.059   3.167
67689W        W27225  26.133  17.556   2.381
67690W        W27226  37.053  41.036   2.812
67691W        W27227  26.497  12.823  14.833
67692W        W27228  23.527  34.874   1.263
67693W        W27229  36.915   4.878  13.457
67694W        W27230  23.618   3.880  13.997
67695W        W27231  38.067  26.145   3.272
67696W        W27232  39.510  15.319   1.909
67697W        W27233  30.600   8.224  14.821
67698W        W27234  10.742  17.194  13.346
67699W        W27235  27.018  37.842  14.392
67700W        W27236   3.756   0.362   2.790
67701W        W27237  16.268   3.349  14.010
67702W        W27238  18.756  43.370   0.466
67703W        W27239  10.721  18.177   4.173
67704W        W27240  35.589  33.462   3.745
67705W        W27241   0.289  10.221  14.351
67706W        W27242  10.172  26.614   2.185
67707W        W27243  18.770  15.820  11.601
67708W        W27244   7.269  21.264   1.790
67709W        W27245  44.267  36.932  12.908
67710W        W27246  37.910  23.565   1.896
67711W        W27247  36.416   4.318   0.463
67712W        W27248   5.853  37.465   2.840
67713W        W27249  13.764  34.001  11.576
67714W        W27250  23.612  19.662   4.663
67715W        W27251  28.006  21.104   0.321
67716W        W27252   7.281  39.523  13.441
67717W        W27253  37.037  39.388  13.498
67718W        W27254  13.833  11.206   3.328
67719W        W27255  15.295   1.808   2.223
67720W        W27256  15.224  20.049  13.944
67721W        W27257  20.263  13.226   1.912
67722W        W27258  34.911  35.391  11.099
67723W        W27259   9.299  38.899  13.036
67724W        W27260   4.772   6.899   2.865
67725W        W27261   1.380  27.671   4.127
67726W        W27262  30.590   5.874  14.798
67727W        W27263   6.415  37.914   4.760
67728W        W27264  10.165  43.353   4.239
67729W        W27265  43.010  10.159   4.790
67730W        W27266  13.649   2.315  14.027
67731W        W27267  30.430  15.624   3.728
67732W        W27268  18.771  16.643  10.630
67733W        W27269  15.697  37.407   9.993
67734W        W27270  11.854  27.634  10.932
67735W        W27271  34.878  39.444   4.324
67736W        W27272   5.201   3.400   1.904
67737W        W27273   5.210  42.919   1.789
67738W        W27274   3.390  44.798   4.714
67739W        W27275  11.160  30.121   2.282
67740W        W27276  17.246  44.408   4.811
67741W        W27277  19.213   7.738  10.631
67742W        W27278  43.827  38.974  11.402
67743W        W27279   8.800  20.105   4.329
67744W        W27280  28.626  19.135  11.438
67745W        W27281  42.980  44.908   2.854
67746W        W27282  32.926   0.754  14.359
67747W        W27283  11.200  28.020   2.258
67748W        W27284  23.565   2.811   0.410
67749W        W27285   9.310  35.426  11.454
67750W        W27286  39.048  21.168   3.328
67751W        W27287  23.529   9.665  14.940
67752W        W27288  17.757  19.745  14.404
67753W        W27289   6.261  22.695  11.547
67754W        W27290   8.160  17.680  10.518
67755W        W27291  42.407  24.573   0.770
67756W        W27292  29.601  44.367  11.867
67757W        W27293   6.189   1.421  14.872
67758W        W27294  28.161  39.983   2.800
67759W        W27295   3.875  36.940  11.015
67760W        W27296   9.719  40.318  11.495
67761W        W27297  44.304  17.213  12.992
67762W        W27298  23.609   0.364  10.505
67763W        W27299   0.492  30.076   0.812
67764W        W27300  34.989   7.416   2.868
67765W        W27301   5.888  15.614   4.625
67766W        W27302  35.592  36.046   4.132
67767W        W27303  39.487  34.060   3.816
67768W        W27304  36.024  18.575  14.956
67769W        W27305  21.558  15.089  14.450
67770W        W27306  12.810  24.573   0.736
67771W        W27307   9.746   0.797  11.995
67772W        W27308  28.065   6.215  10.938
67773W        W27309   9.715  13.780  10.535
67774W        W27310  30.914  43.895  13.929
67775W        W27311  30.125  43.978   1.935
67776W        W27312  30.074  40.002   1.327
67777W        W27313  21.614   6.687  10.917
67778W        W27314  30.636   2.226  11.055
67779W        W27315  29.567  20.172  11.084
67780W        W27316  44.955  15.751  10.606
67781W        W27317  23.240  19.774   1.801
67782W        W27318  27.609  15.601  11.480
67783W        W27319  35.007   4.829   0.290
67784W        W27320   3.430   3.445   1.282
67785W        W27321  10.688  11.139   4.171
67786W        W27322  44.858  21.655  12.904
67787W        W27323  15.653  10.711  10.465
67788W        W27324   2.786  31.073  14.790
67789W        W27325  23.509  37.021   2.881
67790W        W27326  35.488   7.187   4.762
67791W        W27327  29.636   4.930  11.962
67792W        W27328  11.164  39.461  10.925
67793W        W27329  12.642  23.078  14.862
67794W        W27330  34.871  12.841   5.199
67795W        W27331   8.722   2.314   0.793
67796W        W27332   5.736  43.362   0.433
67797W        W27333  36.493  21.064  12.864
67798W        W27334  21.222  43.402   2.880
67799W        W27335  21.532  40.361  10.126
67800W        W27336  38.444  20.573  11.855
67801W        W27337  18.212  36.878   3.333
67802W        W27338  23.496   1.421   2.893
67803W        W27339  44.395  40.965  12.540
67804W        W27340   9.352  12.654  11.890
67805W        W27341  12.215  28.029   3.286
67806W        W27342  40.340  21.559   3.844
67807W        W27343  38.468  15.241  10.501
67808W        W27344  26.616   6.319   1.858
67809W        W27345   3.350   9.708   0.356
67810W        W27346  43.513  10.272  12.484
67811W        W27347  36.094  24.070   2.734
67812W        W27348  20.758   2.756  10.557
67813W        W27349  12.680   0.250  14.009
67814W        W27350  14.218  14.193   2.229
67815W        W27351  24.106  27.559  11.597
67816W        W27352  19.164  36.863   2.257
67817W        W27353  22.525  20.169   3.227
67818W        W27354  42.423  44.282  11.085
67819W        W27355  20.710   3.717  12.983
67820W        W27356  39.545  38.509  13.927
67821W        W27357  15.283  19.584  14.905
67822W        W27358  30.020  18.718  11.453
67823W        W27359  34.499  27.180   3.363
67824W        W27360  32.058  33.401  14.471
67825W        W27361  44.770  23.218  14.422
67826W        W27362  40.448  41.489   3.202
67827W        W27363  20.661  18.062   2.835
67828W        W27364  42.800   6.221  14.771
67829W        W27365  11.357   4.804  13.978
67830W        W27366  21.040  39.347  12.559
67831W        W27367  28.522   8.769  13.020
67832W        W27368  31.622  36.461  11.934
67833W        W27369   3.278  11.667   3.633
67834W        W27370  21.164  14.598  11.582
67835W        W27371   5.430  15.738   1.802
67836W        W27372  20.610  21.183  12.970
67837W        W27373  44.845  11.297   0.802
67838W        W27374  10.671   1.777   5.147
67839W        W27375   2.267  17.249  12.489
67840W        W27376  41.389  20.737   3.869
67841W        W27377  14.146   9.687  13.397
67842W        W27378  24.104  32.566  10.437
67843W        W27379  21.537  28.150   0.864
67844W        W27380   0.486  30.043  14.862
67845W        W27381  10.831   8.322   1.809
67846W        W27382  38.955  27.511  12.843
67847W        W27383  43.460   4.353   1.766
67848W        W27384  39.051  20.176  10.034
67849W        W27385   2.888  13.194   4.324
67850W        W27386   9.163  13.202   0.779
67851W        W27387   8.252  41.303  14.452
67852W        W27388  11.238  26.014   9.555
67853W        W27389  22.099  33.599   5.792
67854W        W27390  28.030  19.553   0.243
67855W        W27391  27.467  42.400  13.524
67856W        W27392  27.151  31.547   3.152
67857W        W27393  42.893  13.156   1.318
67858W        W27394  34.469  10.683   1.889
67859W        W27395  44.816  28.171   1.286
67860W        W27396  29.119  29.026  12.975
67861W        W27397  15.762   8.183   4.723
67862W        W27398  40.464  32.980   1.860
67863W        W27399  42.416   4.928  10.442
67864W        W27400  33.486  35.415   0.270
67865W        W27401  12.293  34.876   0.464
67866W        W27402  11.319  41.904   1.930
67867W        W27403  35.358  15.092   4.784
67868W        W27404  17.067  34.959  10.929
67869W        W27405   6.836  20.117  10.563
67870W        W27406  25.480  40.316   2.681
67871W        W27407   3.448  24.213   2.851
67872W        W27408   5.389  35.476   2.901
67873W        W27409  10.686  40.492   1.752
67874W        W27410  15.754   4.345   4.224
67875W        W27411  15.189  14.121  11.412
67876W        W27412  24.542  42.023  10.536
67877W        W27413   4.343   4.817  14.993
67878W        W27414  17.724   7.792  12.954
67879W        W27415  25.568  22.118  13.810
67880W        W27416  27.618  26.497   1.337
67881W        W27417  36.417  36.571  11.986
67882W        W27418  19.730  36.841   0.932
67883W        W27419   0.923   9.675  14.376
67884W        W27420   9.833  30.469   3.737
67885W        W27421  32.624  23.143   2.283
67886W        W27422  24.059  29.035  10.627
67887W        W27423  20.545  40.924   1.256
67888W        W27424  25.511  13.178   1.420
67889W        W27425   0.770  18.294   0.835
67890W        W27426  21.634   0.793   1.287
67891W        W27427   7.777  18.076   2.773
67892W        W27428   5.196  34.385  12.904
67893W        W27429  20.744  29.640   2.802
67894W        W27430  15.163  15.818   2.299
67895W        W27431  29.964  19.692  14.287
67896W        W27432  29.932  34.037  12.886
67897W        W27433  36.921   8.219   3.786
67898W        W27434  12.180  42.777   4.714
67899W        W27435  35.587  36.456   2.386
67900W        W27436  37.387  39.858   1.813
67901W        W27437  24.161  38.873  10.439
67902W        W27438  25.983  17.145   2.846
67903W        W27439  31.120  10.339   3.864
67904W        W27440   3.432  41.436  11.390
67905W        W27441  23.574  42.440  13.496
67906W        W27442  26.643  15.813   0.833
67907W        W27443  21.733   6.411   4.231
67908W        W27444  22.017   3.256   4.651
67909W        W27445   2.358  18.247   1.341
67910W        W27446  40.470  14.111   5.091
67911W        W27447   2.307  16.728  13.334
67912W        W27448  21.532  31.139   3.767
67913W        W27449  43.005  18.134   2.822
67914W        W27450  40.023   3.381  14.462
67915W        W27451   3.710   0.264  13.522
67916W        W27452  20.553  15.702  11.019
67917W        W27453  41.476  14.231  12.002
67918W        W27454  32.033   5.235   4.157
67919W        W27455  38.918  17.788  12.089
67920W        W27456  33.078  40.439   1.361
67921W        W27457  21.103  21.115   5.655
67922W        W27458  12.312  27.071   0.726
67923W        W27459   7.180  38.976  10.587
67924W        W27460  19.725  23.197   3.342
67925W        W27461  43.502   4.221   3.217
67926W        W27462   4.315   6.782  10.495
67927W        W27463  13.270  42.870   1.262
67928W        W27464   5.231  27.451  10.575
67929W        W27465  29.175   3.806  11.932
67930W        W27466  41.003  22.597  10.472
67931W        W27467  38.395   0.373  10.109
67932W        W27468  22.234  31.908   1.417
67933W        W27469  16.617  10.759  11.949
67934W        W27470   2.795   0.461   1.417
67935W        W27471   9.334  38.377  13.376
67936W        W27472  33.022  38.492  14.925
67937W        W27473  14.269  27.637   4.163
67938W        W27474  22.659  13.785  13.947
67939W        W27475  12.287  14.236  10.487
67940W        W27476   8.781   3.297  12.543
67941W        W27477  12.222  10.154   0.956
67942W        W27478  24.134  13.277  13.317
67943W        W27479   7.818   0.981  14.450
67944W        W27480  18.747  15.777   4.679
67945W        W27481  34.589  42.368  11.383
67946W        W27482   1.363  32.117  14.345
67947W        W27483  43.316   2.887  14.813
67948W        W27484   0.822  32.032  12.072
67949W        W27485  43.010  22.039   3.849
67950W        W27486  16.184  39.965   2.858
67951W        W27487  21.087  18.759   3.226
67952W        W27488  10.277   4.803   2.337
67953W        W27489  17.231  37.498   4.185
67954W        W27490  21.609  41.981  13.825
67955W        W27491  32.984  32.985  10.475
67956W        W27492  12.723  33.038  12.486
67957W        W27493  21.660  22.641   1.325
67958W        W27494  24.722  16.706   0.775
67959W        W27495  35.526   5.801  10.528
67960W        W27496  38.526  31.109   1.347
67961W        W27497   1.430   7.909  12.527
67962W        W27498  41.964  26.144  10.534
67963W        W27499  29.603  29.015   1.420
67964W        W27500  27.489  36.003  11.948
67965W        W27501   0.477   6.869   1.852
67966W        W27502   8.668   7.344  11.964
67967W        W27503  38.837  33.496  14.924
67968W        W27504  30.915   1.358   2.724
67969W        W27505  23.564  40.516  11.040
67970W        W27506  16.158  33.039  14.438
67971W        W27507  30.646  26.207   2.302
67972W        W27508  22.719  38.827  13.375
67973W        W27509  16.122  13.225   2.834
67974W        W27510  38.004  40.947   3.167
67975W        W27511  43.448  42.824  10.615
67976W        W27512   4.913  10.234  12.579
67977W        W27513  42.965  23.489   2.739
67978W        W27514  40.302  12.777  12.873
67979W        W27515   5.381  19.551  11.437
67980W        W27516  42.032  21.067  12.862
67981W        W27517  12.119  21.755   2.220
67982W        W27518  29.525  28.116  14.432
67983W        W27519  10.783   6.193  13.385
67984W        W27520  20.091  29.999   4.306
67985W        W27521   9.178  42.805  10.058
67986W        W27522  24.049   4.219   0.451
67987W        W27523  19.226  26.552   0.936
67988W        W27524  25.094  44.438   3.702
67989W        W27525  37.070   2.381   3.751
67990W        W27526   0.287  38.505  12.506
67991W        W27527  10.146  15.309   3.233
67992W        W27528  21.623  39.521  11.554
67993W        W27529  26.154   7.706  13.401
67994W        W27530   4.784  34.107  13.928
67995W        W27531   6.360  22.234   4.777
67996W        W27532  10.745  27.008   1.317
67997W        W27533  20.631  43.839   3.248
67998W        W27534  18.248  21.535   1.921
67999W        W27535  19.084  35.540   3.216
68000W        W27536  21.650  29.658   0.431
68001W        W27537  44.458  38.893  12.428
68002W        W27538   5.857  19.629  13.876
68003W        W27539  23.069   9.371  12.386
68004W        W27540  41.802  21.561  13.044
68005W        W27541  43.883   4.428  12.519
68006W        W27542  40.897  29.648  11.059
68007W        W27543   1.828  31.522  11.062
68008W        W27544  29.538  19.641   1.708
68009W        W27545   0.339  38.508   4.736
68010W        W27546  26.082  40.482   1.813
68011W        W27547  10.372  11.196   4.130
68012W        W27548  23.679   9.269   2.732
68013W        W27549  26.671   3.271  13.330
68014W        W27550  41.811  17.673  13.521
68015W        W27551  24.485   6.698   1.276
68016W        W27552  30.418  43.992  10.432
68017W        W27553  38.947  22.180  12.579
68018W        W27554  43.001  10.246   0.883
68019W        W27555  17.275  35.109   2.402
68020W        W27556  35.375  44.995   1.835
68021W        W27557  41.884  28.585   0.428
68022W        W27558  14.812  37.567   1.267
68023W        W27559  22.161  40.834  14.020
68024W        W27560   4.361  40.422   3.308
68025W        W27561  14.677   0.971  14.290
68026W        W27562  30.006  15.157  13.455
68027W        W27563  39.930  39.938   0.314
68028W        W27564  16.702  17.070   5.662
68029W        W27565  35.988  18.664   2.903
68030W        W27566  44.353  15.814  10.508
68031W        W27567  44.880  23.172  12.480
68032W        W27568  43.815  35.544  14.902
68033W        W27569  23.206   3.446   1.401
68034W        W27570   2.734   0.941   4.791
68035W        W27571  40.448  37.950  13.367
68036W        W27572  27.087  38.410   3.156
68037W        W27573  34.083  28.028   1.779
68038W        W27574   3.762  23.554   2.370
68039W        W27575  15.183  12.659   4.143
68040W        W27576  25.534  26.478   9.988
68041W        W27577   5.250   1.345  10.472
68042W        W27578  43.768  30.061  12.865
68043W        W27579  36.853  14.629  10.960
68044W        W27580   6.735  36.944  10.620
68045W        W27581  22.107  28.560   1.876
68046W        W27582  18.748  38.966   1.244
68047W        W27583  10.310  33.423  12.840
68048W        W27584  12.612  20.637  12.408
68049W        W27585  41.807  43.375   4.173
68050W        W27586  35.472  24.544   1.388
68051W        W27587  15.781  24.135   4.115
68052W        W27588   4.356   6.860   0.858
68053W        W27589  25.206  16.622   3.313
68054W        W27590  13.175  15.711  13.363
68055W        W27591   0.776  19.111   2.217
68056W        W27592  26.537  30.526  12.886
68057W        W27593  37.472  14.668   4.784
68058W        W27594   8.211   6.309  11.434
68059W        W27595  25.555  33.965   2.896
68060W        W27596   6.872  30.960   0.379
68061W        W27597   0.934  13.809  12.939
68062W        W27598  32.122   8.729  10.070
68063W        W27599  26.638  22.039   1.366
68064W        W27600  24.226  32.141   1.825
68065W        W27601  38.497  18.782   3.362
68066W        W27602  10.154  21.743  14.328
68067W        W27603  39.533  34.389  11.075
68068W        W27604  31.939  11.132  13.918
68069W        W27605  20.719  24.671   0.438
68070W        W27606  19.736  44.446   2.299
68071W        W27607  28.180   1.422   3.659
68072W        W27608  34.388  24.629  13.482
68073W        W27609   1.818  43.019  14.429
68074W        W27610  11.293  36.005   4.292
68075W        W27611  25.154  21.224  14.350
68076W        W27612  10.234  39.501   1.348
68077W        W27613   9.645  42.981   0.312
68078W        W27614  13.179  40.053   3.844
68079W        W27615  11.838   2.728  11.068
68080W        W27616  31.950  22.541  11.554
68081W        W27617  17.288  17.758  10.410
68082W        W27618  23.601  17.681   1.732
68083W        W27619  15.249   5.847   1.239
68084W        W27620   3.406  23.237  14.275
68085W        W27621  21.068  13.121  13.466
68086W        W27622  31.624   6.830  13.806
68087W        W27623  44.336  37.373  13.951
68088W        W27624  34.479   9.817  10.479
68089W        W27625  42.501  26.503   1.357
68090W        W27626  22.029  23.100   1.773
68091W        W27627   0.821  34.581  10.065
68092W        W27628   4.379  22.661   3.805
68093W        W27629   7.394  43.990  11.969
68094W        W27630   6.220  14.106   0.801
68095W        W27631   4.264  33.505   2.194
68096W        W27632   3.755  31.594   3.638
68097W        W27633   4.709   2.394  11.112
68098W        W27634  29.063   7.236  14.018
68099W        W27635   7.297  41.530   3.868
68100W        W27636  35.853  22.011  11.966
68101W        W27637  27.945  24.712  10.413
68102W        W27638  23.561   3.260   4.824
68103W        W27639  13.153  13.772  10.962
68104W        W27640  34.530  21.727   3.693
68105W        W27641  41.897   4.912  14.773
68106W        W27642  26.975  21.251   3.250
68107W        W27643   5.281  33.507  12.521
68108W        W27644  35.402  43.909  12.578
68109W        W27645  24.153  37.427   0.451
68110W        W27646  17.734  12.146  10.479
68111W        W27647  34.385  38.936  13.462
68112W        W27648  33.390  29.985   3.198
68113W        W27649  35.454  18.197  13.421
68114W        W27650  11.730   2.887  13.506
68115W        W27651   3.395  19.267   0.808
68116W        W27652  23.204  26.574   4.186
68117W        W27653  11.826  42.814  11.515
68118W        W27654  18.692   8.275   1.797
68119W        W27655  29.585   0.458  10.478
68120W        W27656  16.284  18.549   2.219
68121W        W27657  19.172  29.094   0.893
68122W        W27658  17.680  20.624   4.234
68123W        W27659  14.291  18.782  13.413
68124W        W27660  21.693  33.481  11.103
68125W        W27661  33.044  39.441  13.898
68126W        W27662   2.926  41.915   1.700
68127W        W27663   0.257  44.855  11.084
68128W        W27664  36.935   6.739  12.423
68129W        W27665  32.894  16.148  13.347
68130W        W27666  30.037  36.551  12.554
68131W        W27667   2.365  31.478  13.835
68132W        W27668   7.672  33.407   0.309
68133W        W27669   5.743  37.003   3.305
68134W        W27670  13.678  32.437  12.951
68135W        W27671  17.768  19.130   1.235
68136W        W27672   3.785   1.470   2.322
68137W        W27673  18.551  20.047   2.887
68138W        W27674  10.688  21.125   4.602
68139W        W27675  22.221  24.181   1.743
68140W        W27676  35.422  19.248  10.942
68141W        W27677  42.026  42.027  11.968
68142W        W27678   7.221   3.857  14.487
68143W        W27679  22.009  15.245   2.380
68144W        W27680  12.816  40.536  14.431
68145W        W27681  28.619  21.561   2.194
68146W        W27682   4.328  39.333  12.088
68147W        W27683   1.284   5.311   4.722
68148W        W27684  28.643  15.812   3.336
68149W        W27685  18.073   0.795   3.342
68150W        W27686  42.347  23.677   4.611
68151W        W27687  15.249  28.157  13.347
68152W        W27688  17.130  13.838  13.973
68153W        W27689   0.482  30.110   2.665
68154W        W27690  27.013  21.644  12.508
68155W        W27691   7.706   0.755   4.153
68156W        W27692  28.575  19.735   1.292
68157W        W27693   6.319  14.811  13.368
68158W        W27694  41.903  32.563   0.384
68159W        W27695  36.380  19.740   3.293
68160W        W27696  23.524   0.902  12.534
68161W        W27697  19.712   3.885  12.414
68162W        W27698  13.186   7.851  12.447
68163W        W27699  19.577  44.488  11.423
68164W        W27700  37.531   2.462  13.335
68165W        W27701   8.171  19.764  13.381
68166W        W27702  17.748  42.857  11.054
68167W        W27703  41.458  22.155   3.786
68168W        W27704   1.328  34.104  13.977
68169W        W27705  33.424  43.374  12.392
68170W        W27706  44.903   4.798  13.944
68171W        W27707  44.783   8.694   2.336
68172W        W27708  26.625  34.925  14.351
68173W        W27709   4.364  17.086  10.487
68174W        W27710  12.210   9.659  12.508
68175W        W27711  11.221  29.935   1.218
68176W        W27712  42.300  10.871   1.748
68177W        W27713   5.689  24.546  11.422
68178W        W27714   6.689  38.942  13.456
68179W        W27715  10.206  29.072  10.082
68180W        W27716  23.581   1.798  11.058
68181W        W27717  42.463   8.336  10.420
68182W        W27718   3.729   7.682  11.592
68183W        W27719   8.365  12.683  12.029
68184W        W27720   7.827  43.818  14.293
68185W        W27721   8.873  43.351   2.773
68186W        W27722   1.896  21.081  14.917
68187W        W27723  23.124   3.286   9.935
68188W        W27724  29.972  27.544  12.351
68189W        W27725   0.825  38.821   1.917
68190W        W27726   6.189   2.357  13.918
68191W        W27727  38.853  17.727   4.704
68192W        W27728  36.460  32.457   4.225
68193W        W27729  26.198   7.394  14.507
68194W        W27730  39.970   5.217   2.185
68195W        W27731  26.021  30.591   0.898
68196W        W27732  43.496  11.262   1.703
68197W        W27733  29.441  41.031  12.396
68198W        W27734  10.337  19.244   4.691
68199W        W27735  21.675  40.828  13.418
68200W        W27736   2.746   7.905   4.636
68201W        W27737   7.225  36.098   1.316
68202W        W27738  36.502  30.511   0.316
68203W        W27739  24.991  19.594   1.883
68204W        W27740  17.662  27.463  13.458
68205W        W27741  32.041   6.372  12.498
68206W        W27742   1.883  14.701  12.936
68207W        W27743  29.645   2.905  11.380
68208W        W27744  13.676  32.891   4.310
68209W        W27745  23.588  28.572   3.206
68210W        W27746  25.622   7.835  11.002
68211W        W27747  40.406   1.753  13.450
68212W        W27748  15.636   8.275   3.866
68213W        W27749  38.563  34.926   4.757
68214W        W27750   9.213  24.014  10.532
68215W        W27751  19.171   7.824   4.332
68216W        W27752   9.849  13.231   4.638
68217W        W27753  26.062  32.621  13.995
68218W        W27754  10.294   5.213  14.434
68219W        W27755   4.321   8.363  14.438
68220W        W27756  43.013   4.402   2.688
68221W        W27757  10.353   9.207   3.363
68222W        W27758  33.448  12.781   4.310
68223W        W27759  43.500   6.889   4.837
68224W        W27760   8.235  23.046   2.715
68225W        W27761  13.340  10.147   3.260
68226W        W27762  41.327   9.839   2.855
68227W        W27763  43.009  20.048   3.682
68228W        W27764  26.543  29.490  14.017
68229W        W27765  34.051  36.437   0.949
68230W        W27766  33.489  19.606   1.743
68231W        W27767   0.318  43.313  13.834
68232W        W27768  40.036  14.147  13.821
68233W        W27769  21.050  17.151   1.702
68234W        W27770  40.533  27.180  11.487
68235W        W27771  15.111   2.263  14.490
68236W        W27772   4.898   1.864   4.201
68237W        W27773  31.948  40.844   2.272
68238W        W27774  13.285  43.270   2.236
68239W        W27775  25.138  30.642   3.727
68240W        W27776   3.293  44.304  10.612
68241W        W27777  20.533   1.259   4.628
68242W        W27778  31.940  16.166   1.438
68243W        W27779   0.318  38.362  12.063
68244W        W27780  10.359  30.467  12.837
68245W        W27781  24.080  12.726   0.808
68246W        W27782  32.408  26.081  11.472
68247W        W27783  16.575  13.212   4.286
68248W        W27784  30.609   0.453   3.794
68249W        W27785  34.071  15.681  11.442
68250W        W27786  32.143   2.721  11.018
68251W        W27787   6.283  44.335   0.270
68252W        W27788  27.556  40.403  12.553
68253W        W27789  42.860  43.316   3.199
68254W        W27790  24.713  25.003  10.642
68255W        W27791   0.415  35.449  10.524
68256W        W27792  38.461   5.908  13.517
68257W        W27793  14.295  32.565  12.413
68258W        W27794   8.709  44.264  14.499
68259W        W27795  19.102  39.824   3.791
68260W        W27796  38.372  43.328  14.813
68261W        W27797  17.284  38.838  10.959
68262W        W27798  31.130  33.955   0.269
68263W        W27799  37.081  11.345  11.997
68264W        W27800  10.776   3.747   2.774
68265W        W27801  20.588  13.167  10.630
68266W        W27802  30.560  42.455  14.454
68267W        W27803  17.109  26.024  12.975
68268W        W27804   6.812  13.340  11.968
68269W        W27805  27.009  19.078  12.491
68270W        W27806  13.679  30.142  11.098
68271W        W27807  18.755  42.430  13.463
68272W        W27808  28.493  19.050  10.505
68273W        W27809  32.046  31.495  11.109
68274W        W27810  29.937  13.117  10.606
68275W        W27811  17.094  12.621   4.770
68276W        W27812  33.418  40.541   5.264
68277W        W27813   0.356  34.911   1.248
68278W        W27814  21.105  29.562  10.493
68279W        W27815  31.991  21.197  10.996
68280W        W27816  13.277   4.363  11.930
68281W        W27817  13.635  31.031   2.254
68282W        W27818  23.513   3.712  14.852
68283W        W27819  38.976  10.156   1.269
68284W        W27820  37.897  42.966  12.580
68285W        W27821   3.789   4.333  10.918
68286W        W27822  31.432  30.011  11.562
68287W        W27823   2.795  37.088   4.295
68288W        W27824  37.336  34.388  13.036
68289W        W27825  37.430  11.680   1.871
68290W        W27826  13.288  17.283   9.945
68291W        W27827   3.284  17.724   1.239
68292W        W27828  30.986  21.131  11.552
68293W        W27829   1.918  43.271  14.825
68294W        W27830  17.670   0.392  10.434
68295W        W27831  30.449  29.495   3.258
68296W        W27832  10.862  15.687   0.730
68297W        W27833  39.451  33.092  14.786
68298W        W27834  21.699  22.242   2.287
68299W        W27835  38.456   0.952  14.806
68300W        W27836  35.591  26.129  11.482
68301W        W27837  44.291   7.839   0.905
68302W        W27838  12.705  33.036  10.447
68303W        W27839  39.892  12.198  10.632
68304W        W27840  17.746  28.068   3.209
68305W        W27841   5.804  27.193  12.428
68306W        W27842   3.364  37.057  13.495
68307W        W27843  33.904  15.580  11.023
68308W        W27844   2.443  23.639   2.804
68309W        W27845  36.071   0.750   2.698
68310W        W27846   5.374  32.492   3.825
68311W        W27847  16.243  24.524   4.277
68312W        W27848  19.159  27.515  13.456
68313W        W27849  23.209   2.382  14.026
68314W        W27850  26.999  19.068   3.816
68315W        W27851  21.051   9.848   2.376
68316W        W27852  16.572   3.857  13.962
68317W        W27853  38.927   4.925   1.345
68318W        W27854  18.160  17.585   2.380
68319W        W27855  10.367   7.255   2.252
68320W        W27856  28.098  26.692   4.766
68321W        W27857  30.135   0.258   2.307
68322W        W27858  34.379   2.294   2.867
68323W        W27859  22.136  42.982  11.979
68324W        W27860  28.132  36.350  14.441
68325W        W27861  41.354  29.076  12.406
68326W        W27862  29.483  18.176  11.964
68327W        W27863  31.999   2.307  12.887
68328W        W27864  29.933   4.342   1.359
68329W        W27865  15.674   7.248   4.616
68330W        W27866  14.125  22.588  13.843
68331W        W27867   3.809  38.819   4.765
68332W        W27868  15.279  10.323  14.828
68333W        W27869  25.596  35.517  14.415
68334W        W27870  21.156  20.201   3.780
68335W        W27871  33.939  32.523   3.248
68336W        W27872   4.399  16.230  11.463
68337W        W27873  15.276  35.062   0.730
68338W        W27874   9.307  26.634  10.991
68339W        W27875  16.233  41.532   1.694
68340W        W27876  25.035  43.289   1.301
68341W        W27877  28.612  42.395   1.797
68342W        W27878  13.809   0.391   0.924
68343W        W27879  40.500   3.293  14.377
68344W        W27880  15.306   6.704   1.782
68345W        W27881  31.918   9.196   5.090
68346W        W27882  36.563  26.516   4.347
68347W        W27883  18.595  42.299  11.993
68348W        W27884  41.481  22.660  12.042
68349W        W27885  33.047  18.121   0.779
68350W        W27886  37.395  15.141   1.245
68351W        W27887  29.468  12.722  13.863
68352W        W27888  15.768   3.234  14.322
68353W        W27889  15.285  25.624  10.534
68354W        W27890  28.999  11.734   4.766
68355W        W27891  13.734  27.607   1.314
68356W        W27892  20.054   0.265  14.480
68357W        W27893  20.528  32.608   4.794
68358W        W27894   5.874  18.716   0.272
68359W        W27895  31.993  13.781   2.365
68360W        W27896  18.087  24.982   2.893
68361W        W27897  31.106  14.260  10.891
68362W        W27898  37.973  33.448   3.150
68363W        W27899   8.290  23.067  10.439
68364W        W27900  19.082  32.609   4.766
68365W        W27901  44.335  16.236   1.815
68366W        W27902  24.036  44.002   4.711
68367W        W27903  33.484   2.432  14.788
68368W        W27904  12.691  11.300   1.826
68369W        W27905   7.767  21.256  13.402
68370W        W27906  38.906  29.137   0.762
68371W        W27907  17.694  34.540   3.747
68372W        W27908  16.081  24.724  11.523
68373W        W27909  32.058  13.349  14.337
68374W        W27910  10.679  17.773   0.281
68375W        W27911  29.920  18.614  12.977
68376W        W27912  42.990   2.441   2.315
68377W        W27913  37.870  20.756   3.680
68378W        W27914  38.030  19.550  11.982
68379W        W27915  16.215  15.767  13.051
68380W        W27916  31.998  12.228  12.992
68381W        W27917  25.496  17.629  13.917
68382W        W27918  23.183  23.160   2.308
68383W        W27919  43.874  15.189   4.641
68384W        W27920  30.921  44.995  11.063
68385W        W27921   7.770  25.701  14.486
68386W        W27922   8.264  33.612   4.659
68387W        W27923  20.191  18.592   1.703
68388W        W27924  30.639  18.650   3.781
68389W        W27925  17.678  17.638   2.688
68390W        W27926  19.275  34.409   4.823
68391W        W27927   1.277  19.217   4.817
68392W        W27928  11.155  19.168  14.984
68393W        W27929  40.978  13.275  10.474
68394W        W27930   9.845  33.118   2.362
68395W        W27931  38.447  10.661  11.000
68396W        W27932  29.929  24.506   3.826
68397W        W27933  43.843  13.270   3.692
68398W        W27934  13.791  26.121   1.268
68399W        W27935  39.040   9.885  14.765
68400W        W27936  17.207  23.156  13.370
68401W        W27937  41.891  41.499   1.267
68402W        W27938  10.709  44.967   4.244
68403W        W27939  28.157  18.588  12.368
68404W        W27940  40.900  16.643  14.891
68405W        W27941   1.357   8.779  14.982
68406W        W27942  12.643  15.792  10.959
68407W        W27943  36.878   3.927   2.697
68408W        W27944   9.697  40.027   0.819
68409W        W27945  19.076   7.898  11.395
68410W        W27946   8.899  18.788  12.958
68411W        W27947   8.161  20.743   1.713
68412W        W27948  11.653  27.943   3.827
68413W        W27949  32.529  35.393   3.695
68414W        W27950  26.600   0.426   1.343
68415W        W27951  17.111  18.678   9.651
68416W        W27952  36.419   7.413   4.601
68417W        W27953  14.808  24.072   0.751
68418W        W27954  41.819  16.645  13.902
68419W        W27955  14.332  42.322   3.726
68420W        W27956  20.736  38.415  13.501
68421W        W27957  24.165   0.488  13.823
68422W        W27958  40.345  16.281  13.528
68423W        W27959   4.857  33.055   4.598
68424W        W27960   9.696  41.467  10.960
68425W        W27961  21.710  14.646   1.240
68426W        W27962  23.100  29.428  11.502
68427W        W27963   9.255   4.884   4.807
68428W        W27964  19.147  37.451   2.887
68429W        W27965   7.366  20.127   1.289
68430W        W27966   7.227  23.116   1.838
68431W        W27967   4.866  33.579   1.935
68432W        W27968   7.205  25.171   0.816
68433W        W27969  41.911  13.171   2.747
68434W        W27970  31.558  35.912   0.460
68435W        W27971  22.715  29.009  11.089
68436W        W27972   9.395  13.667  12.038
68437W        W27973  38.960  37.546   2.259
68438W        W27974  39.439  20.158  12.846
68439W        W27975  18.560  32.042   3.278
68440W        W27976  15.657  25.585   2.817
68441W        W27977   2.411  19.281  13.468
68442W        W27978  12.667  18.636  12.344
68443W        W27979  14.770  13.701   2.398
68444W        W27980  25.590  12.673   4.743
68445W        W27981  30.512   7.910  14.505
68446W        W27982  41.915  29.170  11.116
68447W        W27983  29.593   8.702  11.043
68448W        W27984  16.702   7.849  12.533
68449W        W27985   3.886  27.191  11.910
68450W        W27986   6.763  21.697   0.810
68451W        W27987  23.200  40.849  10.888
68452W        W27988  13.676  29.595   2.686
68453W        W27989   9.684   9.261  12.942
68454W        W27990   2.467  40.874   0.462
68455W        W27991  20.079  14.691  10.949
68456W        W27992  11.353  14.287  10.417
68457W        W27993  19.732   9.307   2.776
68458W        W27994  39.470  20.565  11.086
68459W        W27995  12.756  27.626   4.185
68460W        W27996  11.628  15.793  13.363
68461W        W27997  33.972  40.470   1.234
68462W        W27998  26.100  19.708  11.905
68463W        W27999   9.244  20.762  14.876
68464W        W28000  11.315   3.313  11.950
68465W        W28001  12.233  18.711   0.840
68466W        W28002  10.821  10.291   1.750
68467W        W28003  30.017  18.740   2.232
68468W        W28004  19.282  13.736   0.330
68469W        W28005  29.462  29.136  13.497
68470W        W28006  32.978   8.826   1.363
68471W        W28007  31.446   3.758   3.285
68472W        W28008  18.624  37.427   0.819
68473W        W28009  11.780  28.583  13.316
68474W        W28010   8.228  34.607  12.068
68475W        W28011  33.429  30.479  12.530
68476W        W28012  24.050  23.536  13.490
68477W        W28013  43.898   1.925   4.173
68478W        W28014   2.731  39.553  11.485
68479W        W28015  27.602  31.470  10.405
68480W        W28016  29.625  22.689  13.542
68481W        W28017  12.246   4.448  14.363
68482W        W28018  11.315  21.616  14.327
68483W        W28019  42.523  23.230  10.901
68484W        W28020  14.653  40.486  11.894
68485W        W28021  15.160  22.570  14.920
68486W        W28022   8.301   0.446  12.533
68487W        W28023  24.160  43.318   0.366
68488W        W28024  36.967  13.321   1.282
68489W        W28025   1.860   8.172  12.832
68490W        W28026   2.724   0.404  14.356
68491W        W28027  33.124  40.938   4.606
68492W        W28028   2.885  28.110   5.198
68493W        W28029   1.744  34.394  11.078
68494W        W28030   4.925  25.206  14.448
68495W        W28031  14.250  33.383  12.494
68496W        W28032  25.993  15.114  12.834
68497W        W28033  33.096  23.159   0.459
68498W        W28034  23.611  19.720   2.823
68499W        W28035   7.792   5.306   2.677
68500W        W28036  41.812  26.698   0.876
68501W        W28037  42.025  12.166  11.946
68502W        W28038  40.853  41.877   1.929
68503W        W28039  24.521  37.484   0.767
68504W        W28040  10.242  22.537  12.869
68505W        W28041  11.285   5.927   0.469
68506W        W28042  41.931  22.182  11.078
68507W        W28043  16.706  10.742  11.514
68508W        W28044  43.822   5.299  12.016
68509W        W28045  11.261   0.821   3.643
68510W        W28046  21.189  44.767  11.908
68511W        W28047  27.600  12.306  10.506
68512W        W28048  26.518  37.959   0.740
68513W        W28049  14.152  35.471   1.817
68514W        W28050   1.237   3.261   5.271
68515W        W28051  41.417  28.501  11.387
68516W        W28052  17.784   0.776   1.898
68517W        W28053  39.917  28.085  13.831
68518W        W28054  26.524  23.575   2.352
68519W        W28055  27.172  38.058   0.375
68520W        W28056   3.358  44.274   3.302
68521W        W28057  43.403  11.783   1.812
68522W        W28058  21.699  12.128   0.842
68523W        W28059  19.634  24.979   2.337
68524W        W28060  43.437  26.698  14.031
68525W        W28061  17.641  35.086  11.976
68526W        W28062  15.692  35.977  11.018
68527W        W28063   9.650  12.769  12.394
68528W        W28064  40.357  26.509   4.242
68529W        W28065  11.801  38.074   1.239
68530W        W28066  12.813  22.078  13.000
68531W        W28067   0.933  38.450   4.809
68532W        W28068  10.309  20.109   9.946
68533W        W28069  35.924  42.281  13.873
68534W        W28070   6.355  14.249  14.974
68535W        W28071  38.947  19.192  11.068
68536W        W28072   2.865   9.288  12.029
68537W        W28073  20.175   3.448   3.386
68538W        W28074  20.234   5.729   3.722
68539W        W28075  29.660  16.074  12.906
68540W        W28076  35.009   8.671  12.082
68541W        W28077  38.004  24.120  14.811
68542W        W28078  39.368  21.055   4.194
68543W        W28079  37.886   2.933   4.599
68544W        W28080  43.813   6.363  13.029
68545W        W28081  22.088  20.723  13.320
68546W        W28082   8.376  27.591  12.485
68547W        W28083  25.528   5.267   1.349
68548W        W28084  30.982   8.188  14.449
68549W        W28085  42.775  24.589  14.403
68550W        W28086  41.864  13.748   0.731
68551W        W28087  38.402  42.844   3.809
68552W        W28088  41.307   8.795  11.544
68553W        W28089   9.650  10.649  13.351
68554W        W28090  32.064  20.596   4.309
68555W        W28091   0.921  10.791   0.785
68556W        W28092  44.360  33.925   0.262
68557W        W28093   9.668  19.079  13.357
68558W        W28094  15.172  11.283   2.788
68559W        W28095  33.960  18.160   0.276
68560W        W28096  15.630   0.423   4.206
68561W        W28097  18.257  43.823  10.441
68562W        W28098  10.198  35.476   3.158
68563W        W28099  21.096  32.431   0.784
68564W        W28100  25.635  44.986   4.228
68565W        W28101  42.447  18.147   0.744
68566W        W28102   1.358  29.518  10.515
68567W        W28103  38.419  33.527  14.973
68568W        W28104  26.616  36.585   5.317
68569W        W28105  42.902  12.688  12.089
68570W        W28106  30.118   1.761  12.458
68571W        W28107  43.374  36.462  14.354
68572W        W28108  38.839   9.844  14.316
68573W        W28109  42.459  43.311  13.033
68574W        W28110  22.719  29.438   2.304
68575W        W28111   3.925   2.913  14.017
68576W        W28112  16.596  11.362   3.817
68577W        W28113  15.226  34.052   0.261
68578W        W28114  34.091  20.532  13.915
68579W        W28115   1.339   9.884   9.968
68580W        W28116   6.414  30.462  14.312
68581W        W28117  24.078  16.608  11.498
68582W        W28118  32.964  21.094   4.325
68583W        W28119  26.092  15.746   0.268
68584W        W28120  14.755  39.431   1.885
68585W        W28121  24.002  36.884   5.190
68586W        W28122   7.783   7.778  13.514
68587W        W28123  23.126  31.447   3.280
68588W        W28124  35.977   6.725  14.947
68589W        W28125  22.175  20.076   1.699
68590W        W28126  20.735  25.988   1.740
68591W        W28127  13.220  34.934   0.312
68592W        W28128  26.702   2.850  14.408
68593W        W28129  22.672  17.573   3.632
68594W        W28130  44.982   3.857  13.326
68595W        W28131  44.805  38.898  14.979
68596W        W28132  38.328  29.943   2.786
68597W        W28133  38.529  35.874   0.331
68598W        W28134  19.074  44.801  10.958
68599W        W28135  26.523  40.923   2.185
68600W        W28136  16.095   5.310  13.012
68601W        W28137  26.143   5.260  14.830
68602W        W28138  13.804  24.230   0.329
68603W        W28139  19.163  14.662  13.412
68604W        W28140   9.862  32.086  13.948
68605W        W28141  23.581  41.327   0.467
68606W        W28142  16.124   8.885  13.482
68607W        W28143   4.329  29.568  11.496
68608W        W28144  26.033  42.947  14.995
68609W        W28145  28.446  13.270  13.806
68610W        W28146  26.602  28.634   4.825
68611W        W28147  15.170   5.224   9.467
68612W        W28148  29.056  14.794   0.251
68613W        W28149  18.607  41.536  13.932
68614W        W28150   6.899  34.596  13.018
68615W        W28151  33.563  20.098  14.461
68616W        W28152  13.200  32.454  11.498
68617W        W28153  40.885   3.746   9.974
68618W        W28154   9.233  22.738   1.280
68619W        W28155  30.090  27.169  13.342
68620W        W28156  44.426  16.656  12.968
68621W        W28157  21.132  44.448   1.756
68622W        W28158  41.796  38.560   2.407
68623W        W28159  30.128  24.211   4.827
68624W        W28160  37.850  40.510   2.823
68625W        W28161  26.050  20.099   3.724
68626W        W28162  17.236  43.874   2.785
68627W        W28163  29.175  31.538   3.749
68628W        W28164  36.577  15.145  14.470
68629W        W28165   1.406  39.886  13.979
68630W        W28166   7.771  14.140   1.806
68631W        W28167   8.894  14.279  11.908
68632W        W28168  29.971  41.509  14.784
68633W        W28169  11.735  20.618   0.265
68634W        W28170  11.179  40.491  13.814
68635W        W28171  18.698  23.657   9.964
68636W        W28172  36.429   7.770  14.356
68637W        W28173  37.968  22.623  10.627
68638W        W28174  37.478  37.888  11.086
68639W        W28175  27.637  39.418   0.245
68640W        W28176   4.815  18.263   2.370
68641W        W28177  16.264  22.119  11.398
68642W        W28178  32.134   3.336  10.571
68643W        W28179  38.523  10.802   2.675
68644W        W28180  29.081  26.204  11.044
68645W        W28181  32.537  20.654  13.499
68646W        W28182  34.579  26.646  10.109
68647W        W28183  36.476   7.283  13.986
68648W        W28184  35.901  21.570  12.071
68649W        W28185  34.373  16.735  11.093
68650W        W28186  38.365  14.597  10.610
68651W        W28187  28.057  18.277   2.778
68652W        W28188   1.975  13.285  12.557
68653W        W28189  32.114  19.753  13.539
68654W        W28190  40.530  21.033   4.300
68655W        W28191  33.434  24.178   1.286
68656W        W28192  10.784  30.154   9.537
68657W        W28193   7.302  38.499  12.085
68658W        W28194  16.182  32.563  14.357
68659W        W28195  31.123  15.682   4.672
68660W        W28196  39.041   9.212  12.063
68661W        W28197   0.353  38.039   3.776
68662W        W28198  40.930  31.587   3.363
68663W        W28199  28.948  14.237  13.971
68664W        W28200  19.058  43.316   0.736
68665W        W28201  14.733  17.218  12.907
68666W        W28202  15.140   1.764   3.191
68667W        W28203   5.782   6.243   3.785
68668W        W28204  23.985  14.802  13.476
68669W        W28205  19.574  27.182   4.668
68670W        W28206  39.457  43.999   1.909
68671W        W28207   7.667  26.043   0.256
68672W        W28208   4.920  34.000  12.833
68673W        W28209  38.437  10.691   4.621
68674W        W28210  26.543   6.316   9.611
68675W        W28211   5.741   3.256   0.835
68676W        W28212   4.259  14.220   2.352
68677W        W28213  40.911   5.201  11.887
68678W        W28214  19.544  21.596  10.581
68679W        W28215  30.550  33.478   2.304
68680W        W28216  17.169  40.441  14.363
68681W        W28217  42.946  20.726  11.018
68682W        W28218  42.386  36.983   3.772
68683W        W28219  44.418  41.985   4.793
68684W        W28220  23.716   5.874   2.754
68685W        W28221  19.715  23.116  12.511
68686W        W28222  10.670  20.183  14.897
68687W        W28223  29.006   1.768   4.313
68688W        W28224  43.822  19.760  10.961
68689W        W28225   9.681  27.005  12.847
68690W        W28226   2.834  27.688  11.875
68691W        W28227  34.418   8.300   0.467
68692W        W28228   1.361  33.901   4.160
68693W        W28229   9.196  15.152  14.911
68694W        W28230  36.937   9.825   2.222
68695W        W28231  24.484  44.779  12.488
68696W        W28232  26.059  38.543   2.897
68697W        W28233  40.041  44.863  12.943
68698W        W28234  28.005  32.618  14.507
68699W        W28235  28.498  36.545   4.781
68700W        W28236  15.771  12.819   1.221
68701W        W28237  32.901  38.899   4.738
68702W        W28238  44.396  29.586  12.012
68703W        W28239  41.968  20.705   0.899
68704W        W28240  10.693  12.827  12.399
68705W        W28241  41.532  19.621  11.887
68706W        W28242  27.129  27.970   4.666
68707W        W28243   4.447  23.206  12.932
68708W        W28244  22.664  18.697  14.399
68709W        W28245  15.600   5.874   9.989
68710W        W28246  36.592   2.254   4.826
68711W        W28247  27.993  17.729  11.006
68712W        W28248  36.915   0.353   4.784
68713W        W28249  41.348  36.400  10.625
68714W        W28250   4.908   0.986   1.212
68715W        W28251   3.384   0.264   4.340
68716W        W28252   1.876  31.638   4.324
68717W        W28253  12.204  35.027   2.801
68718W        W28254  28.106  19.692   1.295
68719W        W28255  37.839  24.559   1.405
68720W        W28256  24.117  41.968  13.894
68721W        W28257   2.803  10.328  12.495
68722W        W28258  39.454   5.758  14.283
68723W        W28259  36.593   4.783  13.412
68724W        W28260  36.487  27.066   3.378
68725W        W28261  21.604  16.608  14.769
68726W        W28262   9.682  30.943   5.189
68727W        W28263  28.054   7.194  13.442
68728W        W28264   3.755   7.283   1.832
68729W        W28265  21.720   3.872  10.156
68730W        W28266   3.881  25.056  12.505
68731W        W28267  29.955  41.850   0.432
68732W        W28268   8.790   5.402  12.343
68733W        W28269   7.290  43.827   3.784
68734W        W28270  22.178   3.368  10.470
68735W        W28271  20.569  14.642  14.358
68736W        W28272  16.764  16.778   1.919
68737W        W28273  26.182  20.262  12.850
68738W        W28274  28.054  32.006   2.197
68739W        W28275  38.914  14.719  10.625
68740W        W28276  42.421  31.427  14.871
68741W        W28277   8.315  35.022   4.713
68742W        W28278   0.792  21.054  14.383
68743W        W28279  34.032  38.907   4.697
68744W        W28280   9.186  13.828   4.329
68745W        W28281  28.141   6.385   1.825
68746W        W28282   2.406  34.011   0.948
68747W        W28283  33.036  15.771  14.423
68748W        W28284  38.076  14.321   4.284
68749W        W28285  29.123   1.892   1.758
68750W        W28286  27.494  39.832  10.971
68751W        W28287  43.020   5.336  10.430
68752W        W28288   4.432  34.533  14.332
68753W        W28289  35.447  12.268  14.347
68754W        W28290  26.607  24.716   1.913
68755W        W28291  10.785  15.699   1.227
68756W        W28292  21.525  15.121   0.959
68757W        W28293  43.009   8.680   3.148
68758W        W28294  33.080  18.059  14.881
68759W        W28295  13.643  18.221   4.160
68760W        W28296  26.573  18.147  14.389
68761W        W28297   6.323   7.344   1.236
68762W        W28298  37.517  15.141  14.803
68763W        W28299  21.223   2.260   0.807
68764W        W28300  26.065  43.366  10.614
68765W        W28301  44.897  29.508   2.840
68766W        W28302  35.933  37.881  10.512
68767W        W28303   7.784  18.092  12.465
68768W        W28304  11.675  21.542   2.332
68769W        W28305  27.012   6.341   5.316
68770W        W28306  43.402  36.061   1.289
68771W        W28307  33.495  40.046  14.801
68772W        W28308   5.381  18.096   0.843
68773W        W28309   3.839  36.531   1.900
68774W        W28310   2.796  12.290  10.632
68775W        W28311  25.055  30.999  14.938
68776W        W28312  18.180  40.513   0.878
68777W        W28313   3.268  10.299   3.820
68778W        W28314   0.751  38.413   0.360
68779W        W28315  23.665  18.602  14.977
68780W        W28316  31.068  10.846   4.804
68781W        W28317  38.395  15.723  11.380
68782W        W28318   3.311  42.974  11.123
68783W        W28319  43.291   9.659  10.031
68784W        W28320   1.902  42.906   2.730
68785W        W28321  34.897  34.575  13.520
68786W        W28322  40.860  44.934   3.864
68787W        W28323  33.480   9.151   1.289
68788W        W28324  31.905  25.525   2.308
68789W        W28325  37.840  36.915   2.784
68790W        W28326   3.406  25.619   3.713
68791W        W28327  14.318  36.436   0.462
68792W        W28328  33.452  44.419   3.819
68793W        W28329  25.064  25.119   0.865
68794W        W28330   6.691  29.458   4.692
68795W        W28331  30.161  28.643  11.965
68796W        W28332  13.798  34.523   2.194
68797W        W28333  22.151  35.455   3.368
68798W        W28334  40.814  26.192  12.887
68799W        W28335  23.167  21.639  11.950
68800W        W28336   0.916  36.945   3.765
68801W        W28337  28.092  24.198   0.322
68802W        W28338  12.251  17.098   4.140
68803W        W28339   8.285  31.570   1.225
68804W        W28340   3.413  27.178  10.543
68805W        W28341   3.719  41.419  12.921
68806W        W28342  35.460  10.734  11.595
68807W        W28343  20.051  29.471   1.727
68808W        W28344  32.043  24.542  13.339
68809W        W28345  12.354  23.130   0.482
68810W        W28346  17.671  14.213   4.272
68811W        W28347   5.200  30.577   4.340
68812W        W28348  28.510   3.814   1.404
68813W        W28349   9.348   8.831  14.898
68814W        W28350  28.000  34.048   3.315
68815W        W28351  30.958  19.174  14.492
68816W        W28352   2.792  29.144  12.991
68817W        W28353  18.062  28.965  14.911
68818W        W28354  19.723  43.878  14.905
68819W        W28355  26.200  17.700   2.771
68820W        W28356  34.417  44.335  11.899
68821W        W28357  34.482  31.423  14.276
68822W        W28358  20.243  15.143   2.290
68823W        W28359  27.056   8.215  10.936
68824W        W28360  21.262  15.276   2.346
68825W        W28361  33.983   3.807  14.486
68826W        W28362  15.580  41.963  14.286
68827W        W28363  42.797  25.084  14.814
68828W        W28364  23.214  35.470   0.409
68829W        W28365   4.767  32.559   4.824
68830W        W28366  33.933  33.485   3.278
68831W        W28367   5.392  17.219   2.237
68832W        W28368  26.645  40.986   0.781
68833W        W28369   0.846  34.874   5.272
68834W        W28370  15.596  11.720   4.126
68835W        W28371  18.564  22.543   0.359
68836W        W28372  34.399  15.678   4.739
68837W        W28373   4.238   7.719   3.296
68838W        W28374  33.405  39.879  10.508
68839W        W28375  34.543  18.082  14.478
68840W        W28376  37.915  20.239   2.885
68841W        W28377  23.719   2.961   1.804
68842W        W28378  15.662  36.058   4.246
68843W        W28379  37.556   9.813  11.855
68844W        W28380   3.403  11.779  14.896
68845W        W28381  18.545  43.021  13.898
68846W        W28382  12.201  42.832   4.153
68847W        W28383  43.380  21.196   2.836
68848W        W28384  18.664  21.538  13.840
68849W        W28385  24.707   6.907   2.854
68850W        W28386  36.570  43.446   4.179
68851W        W28387  35.941   7.395  12.064
68852W        W28388  13.322   2.418   0.435
68853W        W28389  15.326  40.909  11.393
68854W        W28390   0.936   5.216  11.962
68855W        W28391  42.508  38.406   2.859
68856W        W28392  14.228   8.888  11.865
68857W        W28393   9.159  38.862  13.997
68858W        W28394  20.712  40.932  12.397
68859W        W28395  44.900  12.166   2.801
68860W        W28396  39.413  27.107  11.045
68861W        W28397  31.142  34.118   1.250
68862W        W28398  26.125  24.594   3.803
68863W        W28399  42.788  14.822   3.317
68864W        W28400  15.696  22.186   3.161
68865W        W28401  39.449   4.353  13.018
68866W        W28402   9.724  11.634  10.617
68867W        W28403  21.021   9.245   5.289
68868W        W28404  38.389   2.953   0.270
68869W        W28405  39.940  33.109   3.634
68870W        W28406  23.724   7.415  13.916
68871W        W28407   9.678  39.459  10.568
68872W        W28408   4.800  28.642   3.274
68873W        W28409  20.162  31.413  10.454
68874W        W28410   8.700  22.582   5.194
68875W        W28411  14.174  28.594  14.799
68876W        W28412  14.648  15.782   1.398
68877W        W28413   4.218  37.566   4.330
68878W        W28414  26.024   2.361  12.883
68879W        W28415   7.712  16.243   2.187
68880W        W28416   8.259  22.247  13.987
68881W        W28417  32.051  34.875  10.540
68882W        W28418   5.899  42.782  14.460
68883W        W28419  22.715  41.330   0.887
68884W        W28420  37.854  25.714   1.738
68885W        W28421  26.515   6.763  13.846
68886W        W28422  25.041  27.477  13.374
68887W        W28423  11.732   7.731  14.391
68888W        W28424  22.092   0.787   1.356
68889W        W28425  26.110  26.957   3.785
68890W        W28426  22.516  43.322   3.215
68891W        W28427  28.983  37.889   4.654
68892W        W28428  39.547  40.970   1.290
68893W        W28429  40.433  19.775   2.361
68894W        W28430  37.397  16.668  10.621
68895W        W28431  37.905   0.418  11.904
68896W        W28432  44.972  12.247  12.890
68897W        W28433  42.487  20.083   3.871
68898W        W28434   4.228  39.372  11.013
68899W        W28435  22.723   3.796  11.950
68900W        W28436  13.160   1.403   4.812
68901W        W28437  39.395  15.651   4.300
68902W        W28438   8.249  10.691   1.258
68903W        W28439  43.796  10.866   0.458
68904W        W28440  28.551  44.854   2.749
68905W        W28441  35.095  12.306   4.320
68906W        W28442   9.155   6.826  10.887
68907W        W28443  26.955   8.778  12.484
68908W        W28444  40.365   3.315  12.837
68909W        W28445  34.018  12.780   1.920
68910W        W28446  41.819  35.405  14.975
68911W        W28447  29.585  15.725  12.828
68912W        W28448  29.012  39.864  14.293
68913W        W28449  14.645  24.999  12.046
68914W        W28450  34.560   1.288  13.058
68915W        W28451  11.649  28.034   0.451
68916W        W28452  22.579   8.733  12.852
68917W        W28453  15.710   9.816  11.920
68918W        W28454  34.437  24.677  11.544
68919W        W28455   9.318  34.995   2.826
68920W        W28456  43.772   1.444  13.500
68921W        W28457  30.468   1.416   4.139
68922W        W28458  33.596  28.991  11.432
68923W        W28459  13.276  17.211  12.941
68924W        W28460  29.479  22.119   4.334
68925W        W28461  33.612  34.986   0.288
68926W        W28462   1.283  41.981  10.898
68927W        W28463   5.834  13.717   1.706
68928W        W28464  25.190  39.050   4.317
68929W        W28465  10.637  21.577  12.473
68930W        W28466   3.224  31.938  13.967
68931W        W28467  31.571  18.752  13.904
68932W        W28468  36.054  19.124   0.272
68933W        W28469  28.119  24.724   3.788
68934W        W28470   2.798  34.054  10.422
68935W        W28471  42.780  29.977  10.437
68936W        W28472  26.669  16.313   3.235
68937W        W28473   6.804  24.511   1.711
68938W        W28474  37.376   3.280   1.907
68939W        W28475  24.027  39.556   4.199
68940W        W28476  24.006  35.577   3.169
68941W        W28477   5.281  39.529  11.126
68942W        W28478  44.965  35.546  14.830
68943W        W28479   1.975  13.819   0.309
68944W        W28480  29.992  29.540  13.981
68945W        W28481  35.996   8.277   3.179
68946W        W28482  22.177   8.836  11.415
68947W        W28483  36.562  32.557   4.611
68948W        W28484   3.875  25.602   0.478
68949W        W28485   8.200   1.441   2.287
68950W        W28486  34.975   7.341  11.874
68951W        W28487  28.977  28.577  12.368
68952W        W28488   8.219   9.339  12.857
68953W        W28489   6.713  11.761  13.371
68954W        W28490  33.922  14.622  12.031
68955W        W28491   2.859  43.965  11.921
68956W        W28492  24.199  38.500   2.179
68957W        W28493  12.280  15.658   1.417
68958W        W28494  19.571  40.926  10.471
68959W        W28495   5.203   0.831   3.652
68960W        W28496   8.207  29.981  14.459
68961W        W28497  26.478   2.935   9.581
68962W        W28498  42.466  25.577   4.232
68963W        W28499   5.789  25.023  12.094
68964W        W28500  28.644  16.659   3.154
68965W        W28501  15.584  29.140  14.764
68966W        W28502  36.542  10.371  10.988
68967W        W28503  38.920  29.541   2.188
68968W        W28504  24.605  36.942  13.349
68969W        W28505  21.039  37.849   3.765
68970W        W28506  36.850  38.522  13.405
68971W        W28507  32.959   7.740   0.730
68972W        W28508  35.890   4.931   2.247
68973W        W28509  44.810  33.017   3.261
68974W        W28510  29.549  37.950  14.423
68975W        W28511  43.462  38.879   0.935
68976W        W28512  29.642  17.146  12.823
68977W        W28513  19.277  14.672   4.635
68978W        W28514  15.253  23.642   3.680
68979W        W28515  15.601  18.191   3.219
68980W        W28516   0.796  29.105   0.799
68981W        W28517  39.514   8.329   2.821
68982W        W28518  30.956  40.842  13.414
68983W        W28519  43.781   6.781   1.706
68984W        W28520  16.115  33.999   3.661
68985W        W28521  35.978   6.826   0.776
68986W        W28522  32.893   7.785   3.244
68987W        W28523  44.376  16.228  13.430
68988W        W28524  32.924   3.215  11.884
68989W        W28525  30.553  26.042  12.493
68990W        W28526  16.770  43.966  10.441
68991W        W28527   1.391  41.444  10.985
68992W        W28528  26.174  21.552  14.984
68993W        W28529   4.810  27.631  13.503
68994W        W28530  29.456  40.478   4.198
68995W        W28531  34.917  20.060  10.462
68996W        W28532  43.366  25.591  13.352
68997W        W28533  12.239   8.401   3.797
68998W        W28534  36.060  17.297  10.985
68999W        W28535  32.513  32.435  10.509
69000W        W28536  33.591  21.223  12.950
69001W        W28537  15.717  20.704   0.353
69002W        W28538   7.909  10.694  12.382
69003W        W28539  32.945  27.521  13.969
69004W        W28540  43.979   9.316   2.733
69005W        W28541  16.807  20.207  12.490
69006W        W28542  25.653  26.005   2.697
69007W        W28543  23.527  30.935  10.537
69008W        W28544  43.815  40.881  14.777
69009W        W28545  32.090  31.626   4.251
69010W        W28546  44.419  30.042  14.998
69011W        W28547  24.991  41.012  13.979
69012W        W28548  30.073  17.574  10.568
69013W        W28549  32.533  33.501   4.639
69014W        W28550  28.123  37.075  13.547
69015W        W28551  31.500  34.937  13.860
69016W        W28552   9.695  10.236  12.507
69017W        W28553  37.866   2.272   5.701
69018W        W28554  32.110  33.098   1.793
69019W        W28555   0.439  17.125   4.352
69020W        W28556  12.644   3.303  11.029
69021W        W28557  16.118  28.026   4.726
69022W        W28558  19.593   5.846   3.254
69023W        W28559  30.537  14.753   1.417
69024W        W28560  18.063  25.632  12.852
69025W        W28561   0.815  34.469  11.125
69026W        W28562  14.239  12.683   4.682
69027W        W28563  11.637  44.916  12.492
69028W        W28564  13.844  38.860   1.262
69029W        W28565  34.588  11.205  13.534
69030W        W28566  18.761  29.432  14.895
69031W        W28567   4.280  33.978  12.406
69032W        W28568  16.114  29.440  13.979
69033W        W28569   3.234  39.030   3.217
69034W        W28570   2.833  34.083   3.691
69035W        W28571  25.712  24.576   2.276
69036W        W28572  19.201   8.193   1.916
69037W        W28573  14.833   6.827   3.216
69038W        W28574  17.063  14.218   0.859
69039W        W28575  41.364   9.702   4.145
69040W        W28576  15.793  33.108  10.986
69041W        W28577  37.428   4.371   4.286
69042W        W28578  15.248  15.093  11.941
69043W        W28579  21.591  30.643   4.613
69044W        W28580  13.622  40.497  13.537
69045W        W28581  40.413  41.857   3.318
69046W        W28582   6.349  32.448  13.429
69047W        W28583  16.099   6.816   0.951
69048W        W28584   8.338  16.119  11.993
69049W        W28585  23.679   1.267  10.629
69050W        W28586  24.133   9.835  11.566
69051W        W28587  39.830  31.558  12.520
69052W        W28588  17.071  28.585   1.224
69053W        W28589  19.674  25.613  10.490
69054W        W28590  40.948  26.522   0.747
69055W        W28591  25.203  14.227   2.753
69056W        W28592  30.503  43.994   4.701
69057W        W28593  17.764  31.545  11.006
69058W        W28594  34.911  30.973  14.914
69059W        W28595  32.422  14.808  12.082
69060W        W28596   2.392  33.448  13.972
69061W        W28597  15.701  37.566  10.518
69062W        W28598  17.747  40.834  10.555
69063W        W28599  26.138  29.498  13.816
69064W        W28600  18.085  13.336   0.259
69065W        W28601  23.731  24.687  10.474
69066W        W28602  12.155  23.147  11.553
69067W        W28603  43.306  44.781  11.458
69068W        W28604  11.174  37.913  11.117
69069W        W28605  44.374  35.005   2.222
69070W        W28606  42.440  32.967  13.510
69071W        W28607  32.456  37.410   1.364
69072W        W28608  36.403   8.764   4.644
69073W        W28609  12.816  32.410   1.696
69074W        W28610  25.582  43.765   2.805
69075W        W28611   9.166  43.876   3.250
69076W        W28612  32.577  14.723   3.863
69077W        W28613   2.916  32.921   0.732
69078W        W28614  30.927  27.673  11.590
69079W        W28615  43.490  32.910  14.914
69080W        W28616  19.721  33.010  14.295
69081W        W28617  35.436   1.973   3.664
69082W        W28618  26.963  14.207   1.929
69083W        W28619  29.478  41.299   2.363
69084W        W28620  33.469  35.908   3.376
69085W        W28621  38.564  37.381   0.457
69086W        W28622   4.216  10.639   2.803
69087W        W28623  30.541  25.158   2.781
69088W        W28624  19.057   0.986   4.232
69089W        W28625   4.380  14.298  13.809
69090W        W28626   8.289   9.743   3.739
69091W        W28627  19.585  36.843  13.925
69092W        W28628   7.705   2.859  11.949
69093W        W28629  28.588  18.773   0.829
69094W        W28630  17.274   7.357   3.767
69095W        W28631   6.328   3.712   2.234
69096W        W28632  12.762  23.701   3.155
69097W        W28633  41.933  30.072  10.489
69098W        W28634  39.465  41.849   4.289
69099W        W28635  21.525   8.173  14.016
69100W        W28636  23.004  40.539  12.544
69101W        W28637  12.638  32.454  13.510
69102W        W28638   6.231  14.817   2.402
69103W        W28639  15.595  12.196  11.941
69104W        W28640   1.889  21.751   2.869
69105W        W28641  42.940  44.906   3.223
69106W        W28642  20.563  13.657   2.875
69107W        W28643  35.445  26.477   9.637
69108W        W28644  34.962  44.449  14.329
69109W        W28645   3.937  14.155   4.238
69110W        W28646  42.965  27.690   2.205
69111W        W28647  28.116  42.891  14.356
69112W        W28648   0.847  16.076  13.895
69113W        W28649  35.012  30.578   4.217
69114W        W28650   5.928  40.928   0.881
69115W        W28651  18.207  15.750  11.929
69116W        W28652  14.175  33.561   3.213
69117W        W28653  35.515   0.305   3.845
69118W        W28654   7.192  38.832   4.184
69119W        W28655  12.281  34.883  13.447
69120W        W28656  32.014  13.607  12.939
69121W        W28657  19.189  10.663   0.378
69122W        W28658  11.733  38.958   2.774
69123W        W28659  33.563  44.330   3.268
69124W        W28660   9.777  11.193  10.929
69125W        W28661  14.250   9.325  12.853
69126W        W28662   3.865  27.675  14.325
69127W        W28663  26.164  23.051  13.326
69128W        W28664  43.395  25.997  13.417
69129W        W28665  43.921  21.514   1.280
69130W        W28666  26.149  14.185  10.576
69131W        W28667  29.142  44.503  14.859
69132W        W28668  26.548  37.882   3.288
69133W        W28669  28.489  42.961  12.352
69134W        W28670  24.087  38.523   1.790
69135W        W28671   6.769   5.291   2.345
69136W        W28672  34.948  43.874  14.292
69137W        W28673  10.203  39.837   2.870
69138W        W28674   0.401   1.346   4.194
69139W        W28675  12.285  19.276   0.334
69140W        W28676  26.024  29.982  10.458
69141W        W28677   6.264  27.542   2.283
69142W        W28678   0.958  22.247   1.893
69143W        W28679  29.044   7.277   2.883
69144W        W28680   4.221   1.330   4.816
69145W        W28681  12.275  21.652  12.396
69146W        W28682   7.800  35.889  11.031
69147W        W28683  28.944  14.109   3.248
69148W        W28684  21.534  14.639   2.285
69149W        W28685  18.185  25.149   0.313
69150W        W28686  32.950  40.862  13.830
69151W        W28687  12.694  38.363  11.559
69152W        W28688   1.837  44.336  11.479
69153W        W28689  37.083  37.873   0.274
69154W        W28690  14.683  21.583  14.015
69155W        W28691  40.439   3.792   5.274
69156W        W28692   0.821  40.899  12.912
69157W        W28693  43.408   9.381  10.630
69158W        W28694  29.553   1.378  11.461
69159W        W28695  30.526  36.854   2.750
69160W        W28696   7.313  12.211   3.300
69161W        W28697  14.794  36.376  12.828
69162W        W28698   6.704  28.135  13.382
69163W        W28699  34.880   4.788  11.911
69164W        W28700   7.231  26.596  11.464
69165W        W28701  37.936  18.648  14.902
69166W        W28702  14.134   8.763   4.758
69167W        W28703  28.956  31.130   2.364
69168W        W28704  16.690  28.120   1.447
69169W        W28705  24.553  39.333   3.724
69170W        W28706   3.936  22.613   4.236
69171W        W28707  40.324  32.507   3.371
69172W        W28708  20.219  12.706  11.969
69173W        W28709  26.471  43.813   1.365
69174W        W28710  18.156  21.551   5.775
69175W        W28711  24.586  15.714   3.700
69176W        W28712  41.852   6.406  11.065
69177W        W28713   4.424  26.145   3.246
69178W        W28714  31.506   8.791   1.449
69179W        W28715  20.180  29.083   3.820
69180W        W28716  12.329  24.107  12.430
69181W        W28717  30.092  21.672   4.253
69182W        W28718  10.658  42.878  13.427
69183W        W28719  13.693  44.408  13.422
69184W        W28720  40.866  39.009  10.099
69185W        W28721  32.624  31.047  10.987
69186W        W28722   5.933   1.458   2.216
69187W        W28723   0.790  16.223   1.866
69188W        W28724   4.759   2.231  12.368
69189W        W28725  10.288   2.842  11.002
69190W        W28726  36.003  17.568   3.698
69191W        W28727  11.344  28.049  14.775
69192W        W28728  14.321  31.639  12.862
69193W        W28729  43.916  40.373   2.882
69194W        W28730  40.838  31.638  10.404
69195W        W28731   5.763  27.544   4.127
69196W        W28732  34.005   9.348  12.840
69197W        W28733  30.588  15.605  10.430
69198W        W28734  37.566  43.354   0.827
69199W        W28735  19.167  41.820  11.444
69200W        W28736  14.829  38.343  12.483
69201W        W28737  10.188  17.626  10.507
69202W        W28738   9.730  24.154   1.395
69203W        W28739   9.245   7.390   1.268
69204W        W28740  16.268  37.557   3.680
69205W        W28741  22.505  10.358   2.900
69206W        W28742  34.487  44.918  10.535
69207W        W28743   0.870   0.942   2.753
69208W        W28744  12.141  41.488  12.959
69209W        W28745   2.733  16.809  11.102
69210W        W28746  11.746   1.415   2.662
69211W        W28747  11.781  21.228   2.810
69212W        W28748  15.798  14.677  11.523
69213W        W28749  19.704   7.819   1.280
69214W        W28750  39.371  26.526  14.972
69215W        W28751  25.004  27.951   1.289
69216W        W28752  25.492  11.277  12.036
69217W        W28753  25.975  37.472   2.328
69218W        W28754   3.936   0.351   4.602
69219W        W28755  28.604  30.500  14.391
69220W        W28756  40.979  24.026  11.927
69221W        W28757  17.582  15.229  13.881
69222W        W28758   6.788  30.134   1.733
69223W        W28759  40.505  42.778  13.959
69224W        W28760   3.817  27.162   1.910
69225W        W28761   7.747  40.035  12.905
69226W        W28762  35.944  25.586   2.755
69227W        W28763  28.040   2.274  13.058
69228W        W28764  30.045  13.663  13.508
69229W        W28765  16.173  29.533  11.377
69230W        W28766  38.863   6.299   1.890
69231W        W28767  39.421  31.950  11.475
69232W        W28768  13.208  27.492  12.848
69233W        W28769  28.611   2.894   2.315
69234W        W28770  23.239  34.469  11.535
69235W        W28771  25.641   7.243  14.487
69236W        W28772  41.329  41.900  13.405
69237W        W28773  29.950  17.152   1.904
69238W        W28774  12.689   3.849  11.124
69239W        W28775   0.979   2.468   1.867
69240W        W28776  44.340   2.749   3.387
69241W        W28777  34.599   5.311   4.746
69242W        W28778  34.506   6.226   4.629
69243W        W28779  29.615  33.590  14.768
69244W        W28780  40.408  36.928   1.811
69245W        W28781  26.174  39.508  13.507
69246W        W28782  32.462  32.524  14.811
69247W        W28783  22.079   0.314   2.289
69248W        W28784  42.793   0.426   4.742
69249W        W28785  34.935  31.151  12.573
69250W        W28786  20.232  42.379   0.807
69251W        W28787  29.493  37.927   0.338
69252W        W28788  26.532   8.852  13.064
69253W        W28789  35.486   8.358   4.627
69254W        W28790  18.724   4.916  13.871
69255W        W28791  24.663  22.684  14.889
69256W        W28792   5.744  18.789   1.365
69257W        W28793  39.329  35.022  10.501
69258W        W28794   4.844  40.531   0.304
69259W        W28795  20.619  43.862  13.028
69260W        W28796  33.078   9.355   1.855
69261W        W28797  21.749  18.603  14.431
69262W        W28798  24.076  13.191  14.960
69263W        W28799  13.738  42.488  10.914
69264W        W28800   5.747  41.312  13.851
69265W        W28801  27.519   0.453   0.317
69266W        W28802  16.266  14.681   4.701
69267W        W28803  19.542  42.993  11.975
69268W        W28804  12.707   4.351   1.913
69269W        W28805  39.900  28.550  14.793
69270W        W28806   9.267  37.922  13.448
69271W        W28807   7.192  26.504   1.916
69272W        W28808  32.506  20.763   3.241
69273W        W28809  31.988  24.167  14.332
69274W        W28810  21.212  35.391   2.681
69275W        W28811   3.906  10.724   4.323
69276W        W28812  16.225  23.159   4.344
69277W        W28813  35.468   0.978  12.855
69278W        W28814  21.560  12.336   0.356
69279W        W28815  33.009   1.901  14.448
69280W        W28816  43.272   4.358   0.434
69281W        W28817  21.742  21.535  10.593
69282W        W28818  39.842  21.747   0.931
69283W        W28819  36.954   2.312   2.233
69284W        W28820  43.511  10.789  12.888
69285W        W28821   4.909   0.493  13.870
69286W        W28822  41.325  29.154  13.876
69287W        W28823  21.027   9.174   4.689
69288W        W28824  13.291  20.172   4.614
69289W        W28825  25.123  37.358  10.474
69290W        W28826   3.269  36.039  11.595
69291W        W28827  20.194   5.884   0.445
69292W        W28828  37.361  16.724  13.897
69293W        W28829  30.516  35.403   1.749
69294W        W28830  15.322  39.511  12.916
69295W        W28831  38.387  30.144  12.005
69296W        W28832   7.787   2.349  13.483
69297W        W28833  15.127  27.667   3.651
69298W        W28834  43.291  14.754  14.771
69299W        W28835  11.767  38.933   0.949
69300W        W28836  10.272  34.435   4.152
69301W        W28837  29.948   2.348   0.890
69302W        W28838  14.626  12.669  10.928
69303W        W28839   2.912  24.515   5.573
69304W        W28840  19.057  26.501  14.389
69305W        W28841   9.284   2.279   1.747
69306W        W28842  40.400  30.437  14.888
69307W        W28843   5.308   0.319  11.989
69308W        W28844  26.592  32.978  10.629
69309W        W28845   2.387  35.467  10.949
69310W        W28846   0.933  33.520   4.178
69311W        W28847  15.607  15.173  12.954
69312W        W28848  20.530  18.228  10.591
69313W        W28849  37.450  13.311   2.342
69314W        W28850   4.833  25.081   3.779
69315W        W28851   0.811  37.067  14.879
69316W        W28852   6.797  37.429   2.217
69317W        W28853  41.496  29.475  10.912
69318W        W28854   9.857  32.446   4.707
69319W        W28855  40.312  36.521   3.190
69320W        W28856  34.494   3.311   2.798
69321W        W28857   0.283  43.305   3.826
69322W        W28858  16.195  43.511  12.445
69323W        W28859   0.745  34.915   3.294
69324W        W28860  33.430  24.669   1.707
69325W        W28861  18.065  23.106   1.247
69326W        W28862  20.163  19.665   1.847
69327W        W28863   0.297  22.741   2.757
69328W        W28864  19.217  16.799  14.918
69329W        W28865  16.270  32.035  13.367
69330W        W28866   2.393  12.611  14.309
69331W        W28867   1.882  31.112  12.393
69332W        W28868  17.695  26.608  12.439
69333W        W28869  31.078   8.199  11.409
69334W        W28870  32.021   1.823  10.051
69335W        W28871  21.636   4.241  14.483
69336W        W28872   7.666   8.774  14.852
69337W        W28873   3.842  13.291   1.393
69338W        W28874   6.869   6.841   2.231
69339W        W28875  41.997  23.498   4.811
69340W        W28876   7.243  24.039   4.679
69341W        W28877  14.326  42.930  10.544
69342W        W28878  40.998  13.823   1.286
69343W        W28879  32.405  23.132   4.826
69344W        W28880  40.893  26.991   4.718
69345W        W28881  17.145   8.866  13.891
69346W        W28882   7.879  13.294   3.206
69347W        W28883  34.473   1.920  10.599
69348W        W28884   3.289  29.060   1.878
69349W        W28885  32.572  26.492   4.630
69350W        W28886   4.247   6.313  11.939
69351W        W28887  26.204  37.451   0.758
69352W        W28888  38.521  14.682  11.449
69353W        W28889  14.635  26.969   0.937
69354W        W28890  25.043   2.313   3.822
69355W        W28891  44.390  38.850   2.886
69356W        W28892   0.353  39.982  10.463
69357W        W28893   1.286  28.025   9.985
69358W        W28894   3.910  29.956   1.792
69359W        W28895   0.376  14.629   3.658
69360W        W28896  35.912  44.806   2.327
69361W        W28897  35.960  44.407   4.253
69362W        W28898  31.420  11.356   1.319
69363W        W28899  36.400  39.457   1.809
69364W        W28900  41.378  15.752  12.374
69365W        W28901  40.540  13.626  13.004
69366W        W28902  11.186  43.297   1.293
69367W        W28903  28.002  29.921   4.299
69368W        W28904  14.639  18.606  11.521
69369W        W28905  15.781   8.733   0.788
69370W        W28906  32.915  12.728  13.899
69371W        W28907  12.707  30.144   0.964
69372W        W28908  30.512  21.599  14.939
69373W        W28909   9.731  32.047   1.336
69374W        W28910  10.334  10.751  10.490
69375W        W28911  42.410  29.132   1.424
69376W        W28912  26.970  37.439  12.867
69377W        W28913   6.389  37.346  12.370
69378W        W28914  10.673   6.774   2.746
69379W        W28915  27.978  21.019   4.615
69380W        W28916  40.824   5.688  10.953
69381W        W28917  20.047  36.405   2.376
69382W        W28918  31.621  15.175  10.481
69383W        W28919  31.537  15.779   2.823
69384W        W28920  24.671  15.259   3.700
69385W        W28921  17.071  23.565  10.621
69386W        W28922  21.185  36.497   0.400
69387W        W28923  11.244  34.424  10.908
69388W        W28924  33.089  15.251   3.375
69389W        W28925  33.509  31.945   4.682
69390W        W28926  28.952  40.351   1.848
69391W        W28927  24.163  18.154   0.291
69392W        W28928  41.860  41.993  10.631
69393W        W28929  16.786  38.504   0.843
69394W        W28930   3.429  21.641   1.447
69395W        W28931  31.412  44.427   2.903
69396W        W28932   6.735  36.459   0.737
69397W        W28933  29.169   1.242  10.560
69398W        W28934   9.199  29.024  14.987
69399W        W28935   2.964  27.453  10.575
69400W        W28936  23.584  17.584  14.924
69401W        W28937  25.544  25.052   3.289
69402W        W28938   0.918   8.667   3.809
69403W        W28939   6.397   0.864   4.822
69404W        W28940  13.637  26.164   2.263
69405W        W28941  13.748   9.193  13.389
69406W        W28942  19.086  17.627   3.697
69407W        W28943  43.860   0.375   2.733
69408W        W28944  28.634  16.782   4.838
69409W        W28945   6.185  15.112  12.891
69410W        W28946   6.702   8.766  11.072
69411W        W28947  36.963   6.231  11.958
69412W        W28948  18.158  32.588   1.403
69413W        W28949  23.095  27.990  13.414
69414W        W28950  37.019  30.499  10.583
69415W        W28951  37.411  31.082   1.438
69416W        W28952  38.379  31.950   4.749
69417W        W28953  27.648   7.392  13.816
69418W        W28954  26.662  36.549  11.558
69419W        W28955   0.291   3.895  13.972
69420W        W28956  24.014   4.856   2.766
69421W        W28957  28.969  37.454  12.910
69422W        W28958  34.990  22.747   5.204
69423W        W28959  19.677  13.842   2.881
69424W        W28960  39.938  28.104   0.837
69425W        W28961  25.497  38.458   0.381
69426W        W28962  14.731  24.010  10.964
69427W        W28963  30.538  33.407   3.663
69428W        W28964   4.408   7.400  14.900
69429W        W28965  21.073  39.978  14.341
69430W        W28966  25.573  24.099  12.989
69431W        W28967  36.864   7.372   0.483
69432W        W28968  13.781  38.838  10.115
69433W        W28969   7.822  28.147  12.447
69434W        W28970  24.568  44.967  13.545
69435W        W28971  32.083  37.487  14.810
69436W        W28972  17.676  40.043   1.801
69437W        W28973   2.900  42.507   4.150
69438W        W28974  13.827  37.956  10.963
69439W        W28975  14.326  26.698  12.971
69440W        W28976  11.646  19.259   1.788
69441W        W28977  40.316  42.924   1.892
69442W        W28978  18.785  38.926  10.500
69443W        W28979   2.793  19.725  13.409
69444W        W28980  33.531  15.628  12.915
69445W        W28981  24.597  28.120   1.306
69446W        W28982  12.633  31.002  14.410
69447W        W28983  21.569   7.339  13.468
69448W        W28984  34.915  11.184   0.887
69449W        W28985  35.916  20.146  14.778
69450W        W28986  11.199   1.279   2.731
69451W        W28987  21.123  12.233  12.473
69452W        W28988  22.060  30.539   0.762
69453W        W28989  12.122  10.663  14.446
69454W        W28990  28.956   4.295  14.406
69455W        W28991  37.512  33.617  10.638
69456W        W28992  23.707  30.085  13.956
69457W        W28993   8.832  29.466   0.857
69458W        W28994   3.300  31.915   1.800
69459W        W28995  16.211   1.959  10.441
69460W        W28996  11.793   4.303  10.568
69461W        W28997  44.394  26.526   1.710
69462W        W28998  19.141   0.853   4.787
69463W        W28999  26.538  30.594  14.004
69464W        W29000  41.003   7.833  12.435
69465W        W29001   7.358   4.441  13.009
69466W        W29002  43.922  35.100   1.222
69467W        W29003  34.612  21.734  13.829
69468W        W29004  14.338   7.805  13.923
69469W        W29005  31.532  11.198  10.486
69470W        W29006   1.413  41.977   2.318
69471W        W29007  33.413  27.622   0.738
69472W        W29008  21.748  19.616  13.383
69473W        W29009  44.428  33.597   4.750
69474W        W29010  18.149  44.966   2.826
69475W        W29011   2.826  14.792   4.127
69476W        W29012  36.938  41.992   4.336
69477W        W29013  44.759  36.851   3.157
69478W        W29014  21.060  36.396   2.888
69479W        W29015   9.215  32.129   3.362
69480W        W29016  44.817  23.721   3.659
69481W        W29017  40.533  40.869  12.486
69482W        W29018  20.140  31.980   5.173
69483W        W29019   5.255  12.292  13.945
69484W        W29020  12.640  14.327  14.515
69485W        W29021  33.522  11.198   2.413
69486W        W29022  11.314  29.163   3.680
69487W        W29023  39.414  41.828  10.947
69488W        W29024   4.377  16.257   2.727
69489W        W29025   8.406  19.179  14.858
69490W        W29026  35.556  41.994  11.893
69491W        W29027  31.980   1.244  12.506
69492W        W29028  34.452  10.708  14.346
69493W        W29029  21.168  11.150   0.406
69494W        W29030  30.957  43.902  12.004
69495W        W29031  37.360  40.454   1.759
69496W        W29032  25.690  24.564   2.896
69497W        W29033   4.263   0.247  10.918
69498W        W29034  11.364   7.345  14.495
69499W        W29035  19.597   4.718  14.859
69500W        W29036  43.283   7.826  11.921
69501W        W29037   8.858  24.116   2.781
69502W        W29038  14.303   0.493  11.962
69503W        W29039  22.235  27.006  14.921
69504W        W29040   7.855  10.717  13.345
69505W        W29041  43.781  36.863  14.961
69506W        W29042  27.068  32.636   3.758
69507W        W29043  21.557  29.175  12.341
69508W        W29044  23.987   3.263   4.329
69509W        W29045   7.273  26.087  12.496
69510W        W29046  42.885  17.250   1.747
69511W        W29047  44.791  33.071   2.355
69512W        W29048   8.899  38.329  13.914
69513W        W29049  13.773  42.013   1.305
69514W        W29050  14.606  23.118   4.133
69515W        W29051  16.315  33.002  13.864
69516W        W29052  25.627  21.029   3.814
69517W        W29053  41.406  10.654   4.349
69518W        W29054   6.222  33.012   3.630
69519W        W29055  22.715  39.483   3.276
69520W        W29056  21.644  24.581   3.718
69521W        W29057  39.059   1.456  13.829
69522W        W29058  37.385  36.977   4.244
69523W        W29059  28.087   0.276   0.826
69524W        W29060  36.888  16.708  11.495
69525W        W29061  31.075  23.578  11.125
69526W        W29062  20.615  33.006   1.353
69527W        W29063  17.696  12.800   0.878
69528W        W29064  10.641  28.130  12.348
69529W        W29065  21.652   7.210   4.250
69530W        W29066  11.268  19.766  10.947
69531W        W29067  39.357  44.397   0.965
69532W        W29068  40.054  28.929   1.450
69533W        W29069  21.515   5.240  13.045
69534W        W29070   1.759  10.765   0.248
69535W        W29071  28.639  31.555   1.364
69536W        W29072   3.236   5.353   3.804
69537W        W29073  36.959   7.893   4.626
69538W        W29074  27.669  42.005   0.935
69539W        W29075  31.147  17.569   4.306
69540W        W29076   7.173  36.582   4.172
69541W        W29077   7.860  13.180   4.142
69542W        W29078  39.507  14.278   2.410
69543W        W29079  16.312  23.661   2.332
69544W        W29080  33.505  43.967  13.312
69545W        W29081  17.144  13.667   2.419
69546W        W29082  27.685  39.532  13.038
69547W        W29083  34.935   0.837  12.535
69548W        W29084   0.424  22.553  12.386
69549W        W29085  11.214   7.304   1.289
69550W        W29086  41.300   7.802  11.039
69551W        W29087  43.364  21.559  11.400
69552W        W29088  36.540   0.770   3.298
69553W        W29089   1.903  27.046  13.048
69554W        W29090  44.003  20.576  13.977
69555W        W29091  12.204  38.525  14.903
69556W        W29092   7.795  17.700   1.847
69557W        W29093   5.788  34.977   3.770
69558W        W29094  34.540  40.921  11.960
69559W        W29095  20.148   0.985   0.336
69560W        W29096  41.900   8.159  10.987
69561W        W29097  42.784  30.417   4.255
69562W        W29098  31.074  17.641   0.325
69563W        W29099   1.321  21.089  14.022
69564W        W29100  21.522  22.022  12.849
69565W        W29101  11.672  42.412  14.954
69566W        W29102   6.300  43.860   3.825
69567W        W29103  25.107  18.190   4.189
69568W        W29104  38.927  36.971   4.747
69569W        W29105  26.523  35.567  10.431
69570W        W29106   6.296  40.476   4.641
69571W        W29107   8.297  37.478   2.295
69572W        W29108  33.412  41.462   3.636
69573W        W29109  11.325  41.827  14.793
69574W        W29110   4.429   3.304   4.649
69575W        W29111  40.005  39.445  10.573
69576W        W29112   6.368   3.216   1.764
69577W        W29113  36.929  15.275   4.293
69578W        W29114   8.193  30.438   1.831
69579W        W29115   3.939  22.061   0.245
69580W        W29116  36.057  33.045   3.386
69581W        W29117  33.613  33.599   0.304
69582W        W29118  23.028  31.039   1.718
69583W        W29119  21.030  21.226  11.472
69584W        W29120  24.998   8.317  12.455
69585W        W29121  42.431  21.075  13.426
69586W        W29122  27.518  10.242  12.852
69587W        W29123  23.056   4.217  14.810
69588W        W29124  26.639   0.452  11.469
69589W        W29125  36.007  32.123   3.162
69590W        W29126  15.230  35.511  12.007
69591W        W29127  15.788  24.666  12.883
69592W        W29128   9.152  24.552   4.619
69593W        W29129  10.702  34.018  11.595
69594W        W29130   0.787   7.834   0.317
69595W        W29131  42.946  11.144  13.792
69596W        W29132  20.622  18.173  13.529
69597W        W29133   7.690  26.019   4.321
69598W        W29134   1.958  16.674  12.918
69599W        W29135  14.816  23.071  11.498
69600W        W29136  14.681  24.186  11.603
69601W        W29137  35.375   7.302   0.736
69602W        W29138   8.406   2.267  13.990
69603W        W29139  22.737  18.109  12.472
69604W        W29140  33.903   5.290   2.236
69605W        W29141  35.470  23.205   1.732
69606W        W29142  27.123  37.411  12.430
69607W        W29143  31.153  19.134  14.816
69608W        W29144   3.717  15.689   3.770
69609W        W29145  41.523   9.260  14.825
69610W        W29146  15.270  38.927  12.574
69611W        W29147  18.094  13.759   4.606
69612W        W29148   9.773  36.493  12.525
69613W        W29149  44.908  37.972   3.172
69614W        W29150   9.155  19.736  11.565
69615W        W29151  26.006  33.582   2.247
69616W        W29152  22.189   1.949   0.762
69617W        W29153  23.009   6.865   0.338
69618W        W29154  27.087  13.791   3.698
69619W        W29155  14.266  20.090   4.223
69620W        W29156  22.067  43.416  10.918
69621W        W29157  33.474  19.707   3.213
69622W        W29158   6.424   7.172   1.728
69623W        W29159  30.560  15.648  11.055
69624W        W29160  30.087  11.143  14.894
69625W        W29161  30.982   8.163  12.418
69626W        W29162  11.287  14.230  14.454
69627W        W29163  14.195  42.353   1.263
69628W        W29164  28.955  36.511   1.361
69629W        W29165  38.056  10.313   2.307
69630W        W29166  21.600  21.615   9.592
69631W        W29167  33.938  12.831  12.823
69632W        W29168   2.440  23.212   3.357
69633W        W29169  37.041  31.985   5.242
69634W        W29170   0.373  18.758   2.392
69635W        W29171   9.346  33.440   4.351
69636W        W29172  21.047  17.577   0.310
69637W        W29173  17.091  11.315  14.025
69638W        W29174  27.011  36.926  14.787
69639W        W29175   7.334  28.056  11.867
69640W        W29176  15.652  35.416   2.727
69641W        W29177  19.622  12.121  13.341
69642W        W29178  18.677  31.979  12.037
69643W        W29179  29.625  21.738   1.378
69644W        W29180  15.700   7.318   0.735
69645W        W29181   6.826   7.325   4.682
69646W        W29182   1.823  18.069  10.581
69647W        W29183  42.977   1.911  13.465
69648W        W29184  11.678  41.849   9.973
69649W        W29185  42.808  42.482   3.756
69650W        W29186  42.346  12.691  13.895
69651W        W29187  34.918  36.466   0.790
69652W        W29188  13.158   1.942   2.381
69653W        W29189   5.861  25.593  10.464
69654W        W29190   8.165  11.305  11.372
69655W        W29191  16.654   0.401  10.486
69656W        W29192  44.883  36.922   2.774
69657W        W29193  23.634   3.862  14.341
69658W        W29194  36.395   3.886  13.997
69659W        W29195  10.636  31.042   4.135
69660W        W29196  35.511  10.843  11.921
69661W        W29197  36.936  27.677   3.200
69662W        W29198   6.712  42.876   3.645
69663W        W29199  42.506  18.561   0.917
69664W        W29200   4.741  10.647   2.888
69665W        W29201  41.526  27.071  13.955
69666W        W29202   6.397  44.929  14.429
69667W        W29203   1.446  40.850  11.497
69668W        W29204  41.976  10.799  14.416
69669W        W29205  38.924  41.891   4.128
69670W        W29206  26.494   3.898  13.895
69671W        W29207  26.539  36.503   1.850
69672W        W29208  43.323  39.004  12.533
69673W        W29209  23.043   2.827   2.377
69674W        W29210   5.795  14.764   0.952
69675W        W29211  24.504  14.244   0.856
69676W        W29212  19.733  40.038  14.029
69677W        W29213  40.808  35.499   3.826
69678W        W29214  23.185   7.757   1.446
69679W        W29215  43.476  42.910  11.102
69680W        W29216  15.166   0.862  12.463
69681W        W29217   1.470   3.391  11.382
69682W        W29218  21.141  18.233  10.560
69683W        W29219  12.825  19.049   3.770
69684W        W29220   3.295  44.468  12.970
69685W        W29221  11.669   6.406  14.965
69686W        W29222  37.463  35.498  10.403
69687W        W29223  28.080  33.552   1.866
69688W        W29224  38.997   8.174   0.799
69689W        W29225  14.157  38.031   2.398
69690W        W29226  23.610  23.224  12.552
69691W        W29227  11.267  34.009   1.361
69692W        W29228  16.766   6.287  12.940
69693W        W29229  10.769  32.516  11.417
69694W        W29230  37.561  24.136   1.434
69695W        W29231  28.626   2.445   1.832
69696W        W29232  26.653  33.492   2.405
69697W        W29233  16.695  22.538   1.856
69698W        W29234  24.644  29.018  10.595
69699W        W29235   9.225  26.088   3.701
69700W        W29236   3.784  22.173  14.938
69701W        W29237  30.626   8.712  11.983
69702W        W29238  27.125  17.678   1.930
69703W        W29239   6.713  29.525  11.439
69704W        W29240  40.877  32.614  10.983
69705W        W29241  11.820  10.355   4.236
69706W        W29242  42.449   7.857   2.827
69707W        W29243  21.068  35.595  14.452
69708W        W29244  15.610  38.445  12.527
69709W        W29245  10.181  30.526  11.099
69710W        W29246   5.882  14.322   3.703
69711W        W29247   4.808  22.201  10.525
69712W        W29248   1.473  37.344  11.109
69713W        W29249   5.877  11.810   4.792
69714W        W29250  10.220  35.418  14.341
69715W        W29251  41.295   0.812   3.201
69716W        W29252  16.205  29.486   0.785
69717W        W29253  20.718  30.961   3.316
69718W        W29254  17.132  34.458  11.886
69719W        W29255  32.480  44.916  13.862
69720W        W29256  32.411  18.271   1.267
69721W        W29257  27.145  12.856   3.688
69722W        W29258  28.528  15.806  10.452
69723W        W29259  36.952  29.152  12.911
69724W        W29260  33.624  18.270   2.318
69725W        W29261  33.958  38.898  12.070
69726W        W29262  34.055   2.440  11.409
69727W        W29263  34.508   3.781   1.935
69728W        W29264   0.796  15.152  13.914
69729W        W29265  23.217  36.009   0.359
69730W        W29266  19.100  29.067   2.414
69731W        W29267  36.955  13.243   3.375
69732W        W29268  36.554  18.140  14.417
69733W        W29269  25.531  31.981   5.284
69734W        W29270   7.798  44.321  13.978
69735W        W29271   1.764  35.961  10.502
69736W        W29272  44.326   4.336   3.756
69737W        W29273  43.488   8.173   2.317
69738W        W29274  18.070  40.906   0.790
69739W        W29275  14.195   9.227  12.534
69740W        W29276   6.426   1.950   5.276
69741W        W29277  12.276   4.898  10.110
69742W        W29278   5.197  38.955   3.366
69743W        W29279  15.134  41.951  14.438
69744W        W29280  13.124  18.781  13.812
69745W        W29281  42.849  23.215  11.417
69746W        W29282   2.734  27.011  14.023
69747W        W29283  20.707  24.668  12.450
69748W        W29284  34.936  28.540  13.370
69749W        W29285  20.700  40.853  10.450
69750W        W29286  43.905   9.172   0.280
69751W        W29287  39.858   7.186   1.236
69752W        W29288  12.313  17.580  10.410
69753W        W29289  34.971  41.325  14.923
69754W        W29290  26.603  11.774   1.261
69755W        W29291  27.634  13.795   2.394
69756W        W29292  27.588  15.201   0.729
69757W        W29293  33.894  18.643   4.716
69758W        W29294  37.075   7.803  14.013
69759W        W29295   1.313  15.319   3.214
69760W        W29296   8.217   9.694  14.769
69761W        W29297  15.770  12.673   0.260
69762W        W29298  19.158  20.179  14.851
69763W        W29299  22.734  11.790  10.520
69764W        W29300  27.673   9.222   3.294
69765W        W29301  27.575  19.741   1.376
69766W        W29302  16.181   9.370  11.024
69767W        W29303  18.096  37.948   2.789
69768W        W29304   8.778  21.184   3.689
69769W        W29305  23.728  12.687   1.433
69770W        W29306   9.811   4.383  14.492
69771W        W29307  33.985   2.404  12.367
69772W        W29308  23.080  18.739  12.858
69773W        W29309  23.685  35.982  12.579
69774W        W29310   7.670  31.009  13.851
69775W        W29311  18.606  20.749  14.362
69776W        W29312  39.962  29.173  13.807
69777W        W29313  43.982  16.735  13.538
69778W        W29314   7.338  24.702  13.863
69779W        W29315   0.744  13.282  14.487
69780W        W29316  38.988  43.010  10.105
69781W        W29317  22.729  40.906   4.776
69782W        W29318  20.043  35.554   3.253
69783W        W29319  33.381  20.169  14.769
69784W        W29320  20.571  37.948   2.785
69785W        W29321  38.500  15.580   0.930
69786W        W29322  28.067  40.467  13.801
69787W        W29323  26.576  23.702  11.551
69788W        W29324   5.201  12.320  13.501
69789W        W29325  10.263   1.289   3.779
69790W        W29326  14.332  30.548  13.008
69791W        W29327  37.434  16.157   1.274
69792W        W29328  16.805  18.596   3.300
69793W        W29329   4.384  16.737   2.787
69794W        W29330  21.193  34.110   2.251
69795W        W29331  36.433  25.682  11.975
69796W        W29332  17.096  31.966  14.297
69797W        W29333  23.555   1.429  12.070
69798W        W29334  26.175  43.456   2.246
69799W        W29335  12.644  44.951   3.860
69800W        W29336   8.789  38.418  12.478
69801W        W29337  10.172   3.326  12.376
69802W        W29338  43.447  10.306  11.945
69803W        W29339  31.501  13.711   1.284
69804W        W29340  34.096  23.022   4.778
69805W        W29341  13.280  16.237  11.001
69806W        W29342  10.155  37.550   0.748
69807W        W29343   3.447  31.586  10.513
69808W        W29344  34.968   4.724  10.908
69809W        W29345  25.194  33.923   2.273
69810W        W29346  28.975  44.840  13.929
69811W        W29347   7.855  36.977   3.762
69812W        W29348  18.556  34.507   1.219
69813W        W29349  22.721  41.898  11.066
69814W        W29350  41.364  19.179  14.371
69815W        W29351  15.278   6.182  12.997
69816W        W29352  23.091   7.873   4.265
69817W        W29353  36.361   9.291   2.238
69818W        W29354   8.787  28.940   0.453
69819W        W29355  35.418   2.336   4.620
69820W        W29356  23.649  30.455   0.455
69821W        W29357   2.799  28.444   5.152
69822W        W29358  38.357  28.126  12.929
69823W        W29359  14.153  42.327   4.119
69824W        W29360  25.187  25.012  10.500
69825W        W29361  17.705  20.725   3.809
69826W        W29362   6.317  17.598  13.863
69827W        W29363  20.664  40.030   1.755
69828W        W29364  27.502   8.767   3.291
69829W        W29365   7.181  15.617  13.906
69830W        W29366  26.462   2.785  12.576
69831W        W29367  38.055  23.055   0.858
69832W        W29368  24.010  11.364  12.450
69833W        W29369   3.322  41.343  12.055
69834W        W29370  27.108  37.502   0.771
69835W        W29371   5.223   3.868   0.268
69836W        W29372  38.048   7.810   3.819
69837W        W29373  21.678  32.052   3.806
69838W        W29374  19.593  22.049  11.112
69839W        W29375  19.757   8.824   4.744
69840W        W29376   6.373  20.031  10.937
69841W        W29377  17.196   4.758  12.066
69842W        W29378  20.254  24.673   4.201
69843W        W29379  25.567  21.091  13.964
69844W        W29380  33.478  37.553   0.435
69845W        W29381  43.354  22.213   3.160
69846W        W29382  34.971  22.723  11.500
69847W        W29383   8.761  30.162   0.345
69848W        W29384  40.809  12.697   0.767
69849W        W29385  13.184  34.540   4.323
69850W        W29386  14.129  32.423  13.877
69851W        W29387   4.293  37.068  14.886
69852W        W29388   7.319  41.305   3.232
69853W        W29389  18.207  44.769  13.450
69854W        W29390  12.301   9.365  12.041
69855W        W29391  12.119  25.545   3.349
69856W        W29392  21.207   2.850  13.981
69857W        W29393  21.571  41.027  10.445
69858W        W29394  42.934  23.145  13.322
69859W        W29395  33.086  18.698  11.448
69860W        W29396  33.960  18.276   2.381
69861W        W29397  20.227   0.936  11.071
69862W        W29398  44.907  39.453   1.361
69863W        W29399  12.693  35.925   4.213
69864W        W29400  38.524   6.258  14.016
69865W        W29401  43.333   9.767  10.473
69866W        W29402  31.117  39.852   4.253
69867W        W29403  23.720  10.252   0.475
69868W        W29404  18.164  33.021   4.270
69869W        W29405  14.165  43.273   1.273
69870W        W29406  33.945  36.419  10.945
69871W        W29407  33.902   1.744   3.675
69872W        W29408  39.828  33.000   4.753
69873W        W29409   8.304   8.224   0.315
69874W        W29410  29.983   2.378   1.421
69875W        W29411  19.623  40.353  12.917
69876W        W29412  10.713  28.083   4.343
69877W        W29413  39.560  29.944  12.031
69878W        W29414   4.821   3.870  12.909
69879W        W29415  12.621  41.316   4.249
69880W        W29416   2.378  31.603  13.477
69881W        W29417  23.709  35.541   1.398
69882W        W29418  41.392  31.057   3.244
69883W        W29419   5.756   5.868  14.815
69884W        W29420  12.198  30.433  12.491
69885W        W29421  19.535   8.749  13.903
69886W        W29422  35.915  26.534  11.589
69887W        W29423   3.807  39.812   0.267
69888W        W29424   8.835   1.250   1.322
69889W        W29425   6.885  17.096  13.040
69890W        W29426  15.143  20.238   5.725
69891W        W29427  14.827  35.415   4.316
69892W        W29428   3.363  19.670   0.275
69893W        W29429  22.240  31.412  11.947
69894W        W29430  30.120  12.225   3.189
69895W        W29431  28.551   7.863   1.377
69896W        W29432  27.164  20.047  14.004
69897W        W29433  10.669  43.883   2.884
69898W        W29434  11.807  33.040  11.605
69899W        W29435  41.366   2.433  10.980
69900W        W29436  39.926  35.032  11.033
69901W        W29437  21.145  20.678  11.475
69902W        W29438  24.133  13.237   0.301
69903W        W29439   7.682   5.933   2.895
69904W        W29440  37.912  11.262  11.445
69905W        W29441   1.388  15.708  12.840
69906W        W29442  43.897   7.828   3.237
69907W        W29443  32.059  44.334   5.174
69908W        W29444  39.976  36.371  12.050
69909W        W29445   3.286  38.374  12.951
69910W        W29446  30.941  19.135   4.297
69911W        W29447  42.405  30.033   0.877
69912W        W29448  22.620  10.211  12.477
69913W        W29449   9.286  44.855   0.422
69914W        W29450  44.853  38.901   0.902
69915W        W29451   7.750  44.394   9.997
69916W        W29452  27.124  17.173  14.419
69917W        W29453  27.061   3.873   0.869
69918W        W29454   2.934  33.131   4.600
69919W        W29455  32.106  25.480  10.924
69920W        W29456  11.638   1.305   3.866
69921W        W29457  21.591   6.787  12.979
69922W        W29458  14.794   2.778   2.667
69923W        W29459  37.902  40.466   0.959
69924W        W29460   9.307  32.562  10.930
69925W        W29461  36.530  11.849   1.384
69926W        W29462  20.259  44.409   1.240
69927W        W29463  16.267  31.070  11.861
69928W        W29464  26.979  44.494   2.337
69929W        W29465  31.648  40.370   4.800
69930W        W29466   9.199  18.749  12.916
69931W        W29467  35.400  42.027  13.893
69932W        W29468  16.116  34.073  13.404
69933W        W29469  28.548  26.489   4.621
69934W        W29470   5.750  34.460  13.330
69935W        W29471  23.210  36.374  13.053
69936W        W29472   0.979  35.045  12.835
69937W        W29473  10.692  34.882  14.987
69938W        W29474  36.439  34.053  10.907
69939W        W29475  12.262  39.404  12.011
69940W        W29476   2.946  21.203  12.404
69941W        W29477  27.032   0.867  10.959
69942W        W29478  29.644  17.156   4.145
69943W        W29479  44.482   8.186  11.511
69944W        W29480  32.936  32.459  13.060
69945W        W29481  42.986  26.205  13.841
69946W        W29482  17.588  32.093   2.816
69947W        W29483  42.968  36.526   1.286
69948W        W29484  19.602  16.270  13.910
69949W        W29485  25.216  15.712   4.296
69950W        W29486  34.994  34.506   0.259
69951W        W29487  12.632  29.523  10.445
69952W        W29488  11.706  43.010   2.178
69953W        W29489  29.478  43.950   4.203
69954W        W29490  14.323  28.478  11.895
69955W        W29491  39.335   5.350  13.936
69956W        W29492  14.188  40.437   1.880
69957W        W29493   3.458  21.100  13.505
69958W        W29494  36.592  15.598  11.403
69959W        W29495   5.285  15.282  13.442
69960W        W29496  42.958  42.934   9.952
69961W        W29497  43.877  35.861  12.882
69962W        W29498  27.160  28.467   2.199
69963W        W29499  13.638  43.429  12.470
69964W        W29500  44.469   4.351  13.324
69965W        W29501  18.154  36.554  10.469
69966W        W29502  38.463   0.490   2.326
69967W        W29503  24.120   8.786  13.914
69968W        W29504   2.823  39.024  13.495
69969W        W29505   5.932  36.411  12.081
69970W        W29506  14.243  37.955  11.512
69971W        W29507  37.357  20.137   4.282
69972W        W29508  28.162   7.330   1.722
69973W        W29509  34.925  38.507   2.892
69974W        W29510  24.492   1.915  12.898
69975W        W29511  37.431   5.709  11.420
69976W        W29512  31.139   8.743  13.511
69977W        W29513   6.747  39.419   1.814
69978W        W29514   1.282  16.749  10.623
69979W        W29515  27.668  11.786  12.506
69980W        W29516  31.939  29.571  11.400
69981W        W29517  30.099  18.055   3.232
69982W        W29518  10.758  22.608  13.830
69983W        W29519   5.357  26.012   4.752
69984W        W29520   7.279  33.922   3.848
69985W        W29521  42.964  21.018  12.446
69986W        W29522  18.600  43.818   2.362
69987W        W29523   9.653   9.780  11.916
69988W        W29524  32.483  44.757  13.378
69989W        W29525  17.626  10.245   3.841
69990W        W29526   2.732  14.697  10.989
69991W        W29527   0.910   0.944  11.525
69992W        W29528  19.168  18.144   0.452
69993W        W29529  39.533  32.127   0.859
69994W        W29530  15.615  20.169  12.504
69995W        W29531   1.255  31.627   3.696
69996W        W29532  27.572  19.257  11.066
69997W        W29533  29.946  42.393  13.936
69998W        W29534  34.614   2.281  13.855
69999W        W29535  29.020  10.741   2.337
70000W        W29536  31.549  25.577   1.894
70001W        W29537  41.008  42.403  10.556
70002W        W29538  34.866  39.858   0.268
70003W        W29539   9.323  23.555  13.048
70004W        W29540  42.489  19.767   3.185
70005W        W29541  13.292  15.263   0.815
70006W        W29542  13.153  17.723  14.955
70007W        W29543  35.903  28.034   3.387
70008W        W29544  30.533  36.854   0.323
70009W        W29545   4.215  19.624  11.558
70010W        W29546  36.929  34.562  10.480
70011W        W29547  42.474  26.161  14.949
70012W        W29548  32.917  22.669  13.918
70013W        W29549  14.121  15.091   0.867
70014W        W29550   8.327  16.640  14.889
70015W        W29551   2.265  30.562  14.404
70016W        W29552  23.059  44.993   4.808
70017W        W29553  12.308  23.511  13.024
70018W        W29554  30.483  23.229  11.097
70019W        W29555  15.789  10.234   3.788
70020W        W29556  36.962  36.063  14.487
70021W        W29557  41.793  19.717  12.049
70022W        W29558  19.060   6.879  13.322
70023W        W29559  23.993  25.617   1.439
70024W        W29560   9.297   3.942  11.070
70025W        W29561   1.759   5.690  14.966
70026W        W29562  41.896  15.614   4.650
70027W        W29563  42.421   9.816   0.413
70028W        W29564  22.249   2.862   9.922
70029W        W29565  12.755  16.675  14.489
70030W        W29566   7.709  41.802  12.907
70031W        W29567  27.123   1.286  14.431
70032W        W29568  32.441  23.627   3.328
70033W        W29569   0.491  26.066   1.886
70034W        W29570  19.116   3.362   4.321
70035W        W29571  16.710  23.672  11.523
70036W        W29572  19.071  23.672  14.808
70037W        W29573   8.377  31.058   0.874
70038W        W29574  29.431   0.788  12.385
70039W        W29575  24.669  17.271   0.410
70040W        W29576  38.369  42.497  11.506
70041W        W29577   9.795  20.037  14.439
70042W        W29578  20.754   8.296   2.741
70043W        W29579   5.221  43.273   4.138
70044W        W29580  40.013  35.553   4.341
70045W        W29581  30.555  31.576   3.791
70046W        W29582  34.028  44.391   2.385
70047W        W29583  28.574  32.471   1.251
70048W        W29584  31.981  23.229   1.350
70049W        W29585  11.130  23.237  12.496
70050W        W29586   4.828  27.473  10.498
70051W        W29587  31.594  37.434   1.935
70052W        W29588   7.891  30.649   3.381
70053W        W29589  40.507   8.767   2.327
70054W        W29590  33.533  39.033   0.467
70055W        W29591  14.615  37.336   4.636
70056W        W29592   1.282   9.357   0.390
70057W        W29593  20.634  13.623  13.435
70058W        W29594   3.367   4.829   1.888
70059W        W29595  21.558  20.564   2.866
70060W        W29596  31.025  24.065   0.395
70061W        W29597   5.787  24.520   4.347
70062W        W29598  38.954  44.413  13.800
70063W        W29599  30.594  42.888   5.140
70064W        W29600  31.432  11.744  12.398
70065W        W29601  18.149  12.204  13.307
70066W        W29602   2.750  23.507   2.313
70067W        W29603  10.166  29.094   5.226
70068W        W29604   0.394   6.247  13.496
70069W        W29605  29.658  13.639   3.345
70070W        W29606  15.234  35.927  14.407
70071W        W29607   5.796  27.020   5.238
70072W        W29608  16.271  11.859  11.091
70073W        W29609  13.630  39.508  11.953
70074W        W29610  27.965  35.105  11.887
70075W        W29611  30.907  12.202  10.950
70076W        W29612  32.990  44.334   1.794
70077W        W29613  42.407  19.124  12.512
70078W        W29614  12.698   9.284  12.545
70079W        W29615   9.809  38.823  13.548
70080W        W29616  19.618  32.063  11.504
70081W        W29617  18.676  29.478   4.265
70082W        W29618   0.770  21.513   2.828
70083W        W29619   9.806  17.232  11.890
70084W        W29620  19.546  39.343   3.264
70085W        W29621  22.696  16.800  12.046
70086W        W29622   4.909  26.702  13.532
70087W        W29623  31.623   9.361   0.297
70088W        W29624  15.735  27.500   3.217
70089W        W29625  25.500  39.001   1.337
70090W        W29626  13.172  35.893  11.856
70091W        W29627  21.545  26.164  10.576
70092W        W29628  25.977  18.742  13.047
70093W        W29629  24.618  29.026  12.960
70094W        W29630  32.961   3.812  12.374
70095W        W29631  34.884   2.768   0.763
70096W        W29632  39.518  40.379  10.594
70097W        W29633  22.215  32.988   5.322
70098W        W29634  42.857  20.745  12.519
70099W        W29635  19.555  31.542  10.436
70100W        W29636  12.183   2.859   1.832
70101W        W29637   1.886  42.877  12.025
70102W        W29638   1.290  10.320   1.259
70103W        W29639   7.245   7.189  10.544
70104W        W29640   2.395  11.161   1.725
70105W        W29641  38.990  39.448   1.771
70106W        W29642   8.390  27.552  10.564
70107W        W29643  41.939  25.476   2.188
70108W        W29644   6.222  31.510  11.481
70109W        W29645  13.725  13.618   0.817
70110W        W29646  42.014  31.059  12.540
70111W        W29647   6.834   7.874  14.875
70112W        W29648  24.621  10.841   2.322
70113W        W29649   7.362  35.413   1.217
70114W        W29650  38.834  13.314  14.486
70115W        W29651  12.851   3.264  13.507
70116W        W29652  41.037  43.484  12.426
70117W        W29653  13.716  17.306   1.883
70118W        W29654  13.180  35.089  13.467
70119W        W29655  20.197  34.102  14.463
70120W        W29656  14.701  20.225   5.683
70121W        W29657   9.167  42.003  12.518
70122W        W29658   6.349  26.156  10.905
70123W        W29659   2.353  27.031   4.227
70124W        W29660  32.566  23.052   0.353
70125W        W29661   0.441   7.297  12.454
70126W        W29662  41.515  26.623  12.874
70127W        W29663  32.018  42.802   0.744
70128W        W29664  10.695  29.555   1.339
70129W        W29665  42.893  40.869  12.576
70130W        W29666  34.993  43.944  13.472
70131W        W29667  29.930  26.681   5.227
70132W        W29668  37.394  38.882   0.746
70133W        W29669  39.494   3.406   2.771
70134W        W29670  42.416   8.397  14.446
70135W        W29671  18.612   8.227   1.275
70136W        W29672  13.229  37.401  11.030
70137W        W29673   0.485  39.999   0.297
70138W        W29674  36.484  39.337  13.517
70139W        W29675  15.109  10.862  10.911
70140W        W29676  36.486  19.056  12.510
70141W        W29677  11.777   7.262   0.779
70142W        W29678   5.920  36.063   4.289
70143W        W29679  38.444  10.804  11.471
70144W        W29680  44.769  17.163  11.906
70145W        W29681  16.781   0.397   1.379
70146W        W29682  25.518  27.191   3.242
70147W        W29683  41.859   9.752   3.235
70148W        W29684  18.734  31.462   1.733
70149W        W29685  36.056  22.106   4.671
70150W        W29686   3.868  26.194  13.451
70151W        W29687  19.583  15.817  12.569
70152W        W29688  21.550  22.504  10.045
70153W        W29689  21.743  18.287   1.731
70154W        W29690  22.108  20.214  14.017
70155W        W29691  14.719   4.890   4.790
70156W        W29692   8.896  24.074   1.368
70157W        W29693   3.949  36.436   2.887
70158W        W29694   9.255  21.044   4.681
70159W        W29695  23.490   1.897  12.420
70160W        W29696   6.207  34.031  10.620
70161W        W29697  14.236  15.183  13.842
70162W        W29698  19.535   2.789  10.573
70163W        W29699  40.383   4.247   4.666
70164W        W29700   8.259  17.225   2.340
70165W        W29701  23.174  31.618  11.564
70166W        W29702  31.985   0.814  14.376
70167W        W29703   9.161  18.134  11.523
70168W        W29704  10.179  23.188  14.931
70169W        W29705  15.803   6.824   1.407
70170W        W29706   0.371  33.571   1.362
70171W        W29707  21.655  37.401  14.324
70172W        W29708  37.857  32.564   1.911
70173W        W29709  23.670   2.381   4.328
70174W        W29710   1.433  20.604   3.368
70175W        W29711  22.240  26.671   4.238
70176W        W29712  42.472  36.086  14.356
70177W        W29713  18.574  20.552   0.739
70178W        W29714  11.263  36.865  14.411
70179W        W29715   6.291  17.780   0.810
70180W        W29716   5.421  28.169   2.364
70181W        W29717  19.549  36.428  10.470
70182W        W29718  34.046  21.547  12.395
70183W        W29719  42.474  16.793  10.498
70184W        W29720  27.125  33.922  14.482
70185W        W29721   8.348  33.953  11.860
70186W        W29722  20.164  39.040  11.908
70187W        W29723   1.257   7.874  12.936
70188W        W29724  22.036  19.043  10.546
70189W        W29725  10.299   7.828   9.491
70190W        W29726  29.645  39.368  13.427
70191W        W29727  22.056  24.657  14.839
70192W        W29728  10.781  12.771  14.925
70193W        W29729   2.254  26.485  14.781
70194W        W29730  18.665  38.970  12.977
70195W        W29731  31.429  16.645   0.435
70196W        W29732  13.201  25.069   9.946
70197W        W29733  41.314  23.075   4.620
70198W        W29734   2.329  27.489   2.183
70199W        W29735  35.914  22.245   1.405
70200W        W29736  14.198   4.418   3.722
70201W        W29737  23.986   4.269   1.736
70202W        W29738  28.602  10.247  11.573
70203W        W29739  27.512  31.609   4.743
70204W        W29740   8.661   7.171   2.267
70205W        W29741  27.999  19.670  10.971
70206W        W29742  38.876   5.913  13.874
70207W        W29743  16.233  18.295   3.327
70208W        W29744  35.445  18.593  13.922
70209W        W29745  24.699  19.281   0.347
70210W        W29746   4.358   9.347   1.875
70211W        W29747   4.238   2.451   1.897
70212W        W29748  26.672  25.043  14.985
70213W        W29749  30.511  18.223   3.363
70214W        W29750  10.774  11.684   4.337
70215W        W29751  32.434   1.471  12.829
70216W        W29752  21.587  37.998  12.867
70217W        W29753   0.465  10.647  11.472
70218W        W29754  31.041  43.344  12.837
70219W        W29755  35.440  22.655   1.242
70220W        W29756  36.414  27.957  13.499
70221W        W29757  38.953  36.021   2.184
70222W        W29758  14.651  19.214   5.732
70223W        W29759  11.260   8.794  11.964
70224W        W29760   9.689  14.717  12.530
70225W        W29761  40.474  36.868  13.404
70226W        W29762   8.822   2.732   4.697
70227W        W29763  25.211   1.367  11.103
70228W        W29764  40.933   8.316  10.585
70229W        W29765  14.796  42.939   4.601
70230W        W29766  36.383  17.095   2.737
70231W        W29767   5.388  30.617  11.898
70232W        W29768  30.012  10.278  14.507
70233W        W29769   4.887  24.030  10.602
70234W        W29770  26.203   4.867   2.220
70235W        W29771  23.543  39.373  12.880
70236W        W29772  10.799  21.162   1.786
70237W        W29773  23.998   4.747   2.203
70238W        W29774  43.921  25.686  13.955
70239W        W29775  28.947  19.167   4.784
70240W        W29776   3.859  37.430   1.766
70241W        W29777  37.480   9.843   1.272
70242W        W29778   7.762  13.629  13.407
70243W        W29779  27.682  21.577   2.692
70244W        W29780   1.476  28.118   3.694
70245W        W29781  17.300  26.638  14.978
70246W        W29782  18.670   1.849  14.318
70247W        W29783  41.327  29.477   1.399
70248W        W29784  42.371  14.157  13.481
70249W        W29785   1.771  21.168  10.405
70250W        W29786  28.182  18.199  13.528
70251W        W29787   0.398   0.378  13.889
70252W        W29788  36.400  31.107   4.215
70253W        W29789   6.243  10.845   4.617
70254W        W29790  25.051  43.987  14.781
70255W        W29791  17.658  19.082   0.298
70256W        W29792  28.060  38.835   5.261
70257W        W29793   0.890  44.798  13.516
70258W        W29794   5.716  40.490  14.937
70259W        W29795  39.017  41.871   0.816
70260W        W29796   8.886  11.733   1.404
70261W        W29797  28.128  14.645  10.977
70262W        W29798   1.855  40.995   1.360
70263W        W29799   6.751  39.054  11.470
70264W        W29800  40.518   6.895  13.936
70265W        W29801   8.264  40.501   4.643
70266W        W29802  36.480  37.533   1.425
70267W        W29803  23.733  44.814   1.303
70268W        W29804   2.844  12.690  11.070
70269W        W29805  14.104  37.502   2.716
70270W        W29806   4.766   4.217   2.284
70271W        W29807  36.017  42.025  11.423
70272W        W29808  31.089  39.558  14.315
70273W        W29809  10.275  26.119  13.946
70274W        W29810  17.621  30.612  14.782
70275W        W29811  27.186  28.142   1.414
70276W        W29812  24.063  23.241  13.987
70277W        W29813  25.520  11.752  13.848
70278W        W29814  36.424  40.805   1.730
70279W        W29815  16.229  36.568   2.337
70280W        W29816  21.257  16.195   1.421
70281W        W29817  31.141   5.760   0.794
70282W        W29818   3.877   5.751  10.059
70283W        W29819  39.431   2.317  11.094
70284W        W29820  38.826  34.057  13.485
70285W        W29821  17.168  11.364  13.384
70286W        W29822  30.548  40.411   4.119
70287W        W29823   5.694   1.452  13.535
70288W        W29824  22.518  34.458  10.025
70289W        W29825  18.776   2.784  10.577
70290W        W29826   5.422  25.194   2.389
70291W        W29827  43.972  22.593  11.388
70292W        W29828  44.991  16.137  13.336
70293W        W29829   0.853  18.790   0.895
70294W        W29830  40.440   8.375   0.359
70295W        W29831  25.523  20.583  13.991
70296W        W29832  38.890  19.623   0.339
70297W        W29833  31.959  11.865   3.362
70298W        W29834  11.288  22.236   4.653
70299W        W29835   3.709  31.913   4.624
70300W        W29836  15.284  38.886  14.986
70301W        W29837  42.422   6.727  10.433
70302W        W29838  12.694  14.609  14.471
70303W        W29839  15.786  37.468  11.970
70304W        W29840   0.487   9.152  13.923
70305W        W29841   3.341  39.897  14.425
70306W        W29842  23.234   3.775  11.052
70307W        W29843  25.193  12.849   4.319
70308W        W29844  17.266  30.039  10.551
70309W        W29845  18.095   8.189  14.953
70310W        W29846  11.310  25.113   1.287
70311W        W29847   1.776  11.128   1.902
70312W        W29848  10.670  33.449  12.374
70313W        W29849  17.083  23.571   2.180
70314W        W29850  37.505   9.811   4.121
70315W        W29851  23.602   4.903   0.356
70316W        W29852  16.588  36.384   1.303
70317W        W29853  10.754  35.875   4.246
70318W        W29854   1.471  21.544  10.896
70319W        W29855   4.361  44.870   4.168
70320W        W29856  40.008  23.533   2.707
70321W        W29857  26.011  13.193  12.018
70322W        W29858  21.221   3.344   0.893
70323W        W29859   3.372  29.155  12.490
70324W        W29860  14.789  22.637  11.399
70325W        W29861  24.602  43.896   1.319
70326W        W29862  11.795  37.405   0.279
70327W        W29863   2.904  39.928   2.830
70328W        W29864  26.549  29.587  10.521
70329W        W29865  35.946  41.003  12.012
70330W        W29866  17.666  34.489  11.565
70331W        W29867  33.065  17.642   4.167
70332W        W29868  19.638  26.100   0.960
70333W        W29869  44.010  33.073   4.156
70334W        W29870  19.747   1.787   4.815
70335W        W29871  16.249  24.190  13.051
70336W        W29872  19.059  23.608  13.864
70337W        W29873  17.689  18.757   3.754
70338W        W29874  22.030   3.852   1.227
70339W        W29875  33.072  42.466  13.540
70340W        W29876  31.056  15.620   1.424
70341W        W29877  19.608  20.731   4.621
70342W        W29878  10.327  13.152  10.955
70343W        W29879   5.689  20.034   4.828
70344W        W29880  38.026   9.758   3.837
70345W        W29881  41.032  12.663   3.739
70346W        W29882  23.005  34.039  13.310
70347W        W29883  11.695   0.459   3.679
70348W        W29884   9.239  25.200   3.325
70349W        W29885   9.698  34.992  12.419
70350W        W29886  18.664   2.277  13.802
70351W        W29887  37.927  10.647   3.220
70352W        W29888   9.882  43.803  13.881
70353W        W29889   6.295  40.402   3.185
70354W        W29890  14.682   4.370  10.956
70355W        W29891   7.228  32.555  11.926
70356W        W29892  33.501   0.417   1.915
70357W        W29893  34.967   7.239   4.811
70358W        W29894   3.370  27.082   0.949
70359W        W29895  24.991  38.915  14.802
70360W        W29896  32.963  44.319  12.347
70361W        W29897  30.637   6.215   1.225
70362W        W29898  18.624   9.196   2.746
70363W        W29899   3.383   4.299   0.944
70364W        W29900  34.479   8.867   2.710
70365W        W29901  11.305  10.659  11.010
70366W        W29902  42.891  44.489  13.403
70367W        W29903  33.984  14.102   2.898
70368W        W29904  19.756  25.120   1.784
70369W        W29905  41.906   0.869   4.702
70370W        W29906  37.527  44.438  10.625
70371W        W29907   1.295  32.029  13.829
70372W        W29908  17.705  26.588  13.987
70373W        W29909   9.294  19.142   2.318
70374W        W29910  26.967  31.587  13.042
70375W        W29911   5.207  35.920   4.254
70376W        W29912  27.686   3.226   0.342
70377W        W29913  44.305  28.964  14.432
70378W        W29914  31.951   2.734  13.309
70379W        W29915  18.704  36.990   3.701
70380W        W29916  44.286   4.422  14.503
70381W        W29917  24.698  15.786   4.838
70382W        W29918  16.206  20.749  11.893
70383W        W29919   3.406  43.960   2.256
70384W        W29920  22.641  15.773   0.819
70385W        W29921  30.048  22.532  13.843
70386W        W29922  28.974  21.248   0.789
70387W        W29923  38.830   3.451  10.923
70388W        W29924  26.614  42.988  13.506
70389W        W29925   3.748  44.287   1.263
70390W        W29926  41.443  10.830  12.349
70391W        W29927  42.505  16.158   4.831
70392W        W29928   2.854  17.612   1.426
70393W        W29929  33.902  41.865  12.369
70394W        W29930  13.349  32.998  12.975
70395W        W29931  22.566  29.520   0.444
70396W        W29932  30.514  29.017  10.098
70397W        W29933  16.160  13.753   1.888
70398W        W29934  20.695  24.107  13.329
70399W        W29935  38.463  22.052  12.428
70400W        W29936  18.635  23.075   3.327
70401W        W29937  20.159  22.232  10.951
70402W        W29938  32.911   1.971   4.799
70403W        W29939  29.487   9.351  13.013
70404W        W29940  40.055  36.533   0.949
70405W        W29941  25.208  25.066  14.882
70406W        W29942   5.732  18.670  12.910
70407W        W29943  40.440  25.595  11.880
70408W        W29944   3.834   0.414   4.142
70409W        W29945  43.510  44.778   3.214
70410W        W29946  22.049  37.984  13.488
70411W        W29947  39.979  19.756   4.685
70412W        W29948  21.051  19.542   0.342
70413W        W29949  38.432  29.130   0.367
70414W        W29950  20.152  17.227   1.291
70415W        W29951   9.822  23.084  13.325
70416W        W29952   8.668  42.874  14.940
70417W        W29953   4.842  29.919  10.557
70418W        W29954   3.328  38.325   3.704
70419W        W29955  19.656  16.633   3.304
70420W        W29956   0.257  39.917   3.318
70421W        W29957  13.245   3.809   1.379
70422W        W29958   7.669  25.712  14.794
70423W        W29959   7.762  16.239   1.230
70424W        W29960   0.941  40.857  10.924
70425W        W29961  21.028  24.087  10.557
70426W        W29962   4.810   1.325  13.914
70427W        W29963  35.040  40.869   1.441
70428W        W29964  33.997  10.853   1.390
70429W        W29965   0.745  28.039   0.478
70430W        W29966  13.217   6.346  12.502
70431W        W29967  14.229  38.329   0.851
70432W        W29968  32.453  43.469   3.803
70433W        W29969  36.358   9.191   1.703
70434W        W29970  41.484  36.098   3.162
70435W        W29971  19.612  23.986   2.187
70436W        W29972  33.478  28.586   3.701
70437W        W29973   0.302  25.598   1.322
70438W        W29974  40.015   9.222   0.463
70439W        W29975  18.590   4.274   0.413
70440W        W29976  23.019  24.085   4.762
70441W        W29977  21.169  14.315   4.779
70442W        W29978   2.415  13.240   5.590
70443W        W29979  12.312  37.521   1.740
70444W        W29980  42.033  31.489   1.351
70445W        W29981   1.849  26.200  10.580
70446W        W29982  42.335   5.398   2.854
70447W        W29983  35.934  38.540   3.664
70448W        W29984  12.253  15.645  11.598
70449W        W29985  34.521  44.338  11.467
70450W        W29986  35.946  43.850  11.522
70451W        W29987  15.603  21.685   2.818
70452W        W29988   4.432  25.132   3.712
70453W        W29989  39.875  23.133   4.166
70454W        W29990   1.775  33.957  12.564
70455W        W29991   1.935  11.273  10.147
70456W        W29992  32.080  27.171  10.077
70457W        W29993  24.180  33.935  12.349
70458W        W29994  39.911  23.074   4.675
70459W        W29995  21.688   8.294  14.381
70460W        W29996  35.078  40.522   4.620
70461W        W29997  30.938  30.124  12.925
70462W        W29998  21.632  36.513  13.548
70463W        W29999  25.540  32.524   3.781
70464W        W30000  27.026   6.867   3.687
70465W        W30001  16.312  39.350   1.306
70466W        W30002  17.730  43.352   2.387
70467W        W30003  33.447   1.324  10.584
70468W        W30004  22.633  12.835   4.727
70469W        W30005  44.474   3.876   5.169
70470W        W30006  15.233  43.992  12.561
70471W        W30007   4.389  13.603   0.283
70472W        W30008  17.243  41.966   3.838
70473W        W30009  26.503  40.388   1.741
70474W        W30010  18.653  32.989   3.334
70475W        W30011  31.002  19.777   0.914
70476W        W30012  19.667  14.191   4.783
70477W        W30013  31.958  17.643  11.042
70478W        W30014  16.242  44.437  10.153
70479W        W30015  22.072  24.487   2.869
70480W        W30016  36.375  23.135  13.497
70481W        W30017  28.660  13.810  12.555
70482W        W30018  42.965  41.446   2.368
70483W        W30019  13.280  12.303  14.457
70484W        W30020   3.710  31.037  10.625
70485W        W30021  28.185  10.347   2.875
70486W        W30022   4.780  20.139   2.210
70487W        W30023   1.387   3.925   0.337
70488W        W30024  37.984  16.662  13.342
70489W        W30025  21.138  23.551  12.027
70490W        W30026   4.901  28.983   3.864
70491W        W30027  43.981  34.027  13.859
70492W        W30028   9.843  12.686   4.256
70493W        W30029  30.155   1.793  12.878
70494W        W30030   6.747  32.043   1.807
70495W        W30031   8.182   0.893   2.294
70496W        W30032  22.163   9.314  11.944
70497W        W30033  18.720  29.169   2.271
70498W        W30034  13.312  17.621  13.846
70499W        W30035  15.823  38.858  14.442
70500W        W30036  43.312   1.458   3.246
70501W        W30037   7.340   7.402  12.914
70502W        W30038  12.723  17.558  13.336
70503W        W30039   2.914  35.517  12.961
70504W        W30040  43.828  29.172  11.106
70505W        W30041  11.362  36.938   1.896
70506W        W30042  13.295  27.058  11.387
70507W        W30043   6.913  11.718  13.791
70508W        W30044  26.046  30.999  14.343
70509W        W30045  30.996  13.636  11.014
70510W        W30046  35.854  22.026  12.423
70511W        W30047  38.563  21.063  13.372
70512W        W30048  11.630  25.194   1.402
70513W        W30049  17.721  16.283  11.493
70514W        W30050   7.732  37.951   0.424
70515W        W30051  16.080  31.473   0.793
70516W        W30052  22.626   2.375   4.606
70517W        W30053  31.919  44.389  11.988
70518W        W30054  24.174  21.119   1.402
70519W        W30055  35.393  43.875  12.928
70520W        W30056  31.067   0.439  12.534
70521W        W30057   3.717  44.383  10.134
70522W        W30058  12.662  23.581  13.472
70523W        W30059  27.665   3.922  14.857
70524W        W30060  23.508  43.891  13.527
70525W        W30061   2.265  12.311  11.892
70526W        W30062  43.867  10.340  11.916
70527W        W30063   6.204  19.119  14.811
70528W        W30064  39.428  20.101  12.095
70529W        W30065   7.693  32.901  12.957
70530W        W30066  12.347  26.120  13.919
70531W        W30067  35.477  25.694  13.843
70532W        W30068  31.903   0.481   0.386
70533W        W30069  27.975  15.294  14.477
70534W        W30070   7.188   0.446   3.263
70535W        W30071  43.442  34.972   3.223
70536W        W30072   3.917  31.983  13.842
70537W        W30073  38.895  39.823  13.898
70538W        W30074  11.732  23.605   4.778
70539W        W30075  38.395  13.817   0.448
70540W        W30076  32.922  20.127  11.044
70541W        W30077   3.839  38.409   2.666
70542W        W30078  44.314  24.564  10.440
70543W        W30079  30.518  34.025  13.924
70544W        W30080  40.518  18.197   4.149
70545W        W30081  11.781  14.111   2.853
70546W        W30082  11.664  11.314   3.724
70547W        W30083  26.050  10.147   2.674
70548W        W30084  25.172  36.858   5.161
70549W        W30085  18.109  25.171  13.953
70550W        W30086  23.985  28.661  14.304
70551W        W30087  19.198  22.211   4.354
70552W        W30088  27.026   8.790  11.059
70553W        W30089   8.774  36.390  12.958
70554W        W30090  12.799  41.507   3.192
70555W        W30091   5.700   8.257  10.968
70556W        W30092  23.149  27.504   0.868
70557W        W30093  38.860   9.267  12.386
70558W        W30094   6.738  17.101   3.339
70559W        W30095   8.874  29.135  10.916
70560W        W30096  32.590   5.417   0.368
70561W        W30097  11.794  23.007  14.372
70562W        W30098  32.034  33.961  14.371
70563W        W30099  22.031  27.469  10.617
70564W        W30100  11.652  14.124   4.617
70565W        W30101   8.191  43.309   1.780
70566W        W30102   2.845   3.955   0.816
70567W        W30103  43.950  19.735   1.893
70568W        W30104  23.574  19.050  12.046
70569W        W30105  40.428  28.539   4.274
70570W        W30106  24.700  26.028  13.466
70571W        W30107  27.088  15.326  13.028
70572W        W30108   7.258  21.699   3.232
70573W        W30109  36.375  11.188   3.673
70574W        W30110  19.144   1.875  13.965
70575W        W30111  13.328  25.096  13.531
70576W        W30112  15.677  27.683  12.490
70577W        W30113  28.484  23.068   0.262
70578W        W30114   2.373  36.948   1.826
70579W        W30115   6.693   7.363  12.512
70580W        W30116   8.248  25.635  14.389
70581W        W30117  32.895  42.459   1.827
70582W        W30118   1.741  21.609   3.826
70583W        W30119  12.774  22.172  13.880
70584W        W30120  28.435   4.303  14.771
70585W        W30121  17.249  33.395  11.932
70586W        W30122  33.559   7.892   2.308
70587W        W30123  33.544  13.709  10.608
70588W        W30124  36.070  12.758   2.240
70589W        W30125  27.591  40.939   1.818
70590W        W30126  30.107   9.198   1.835
70591W        W30127  25.694  33.920   1.450
70592W        W30128  13.336   6.679   3.317
70593W        W30129  41.492  40.497  11.393
70594W        W30130  34.554  35.485  14.852
70595W        W30131  25.575  10.865  13.880
70596W        W30132  16.220   8.853  14.329
70597W        W30133  41.516  37.990   2.896
70598W        W30134  15.108   4.942  14.903
70599W        W30135  38.520  15.164  14.454
70600W        W30136  33.559  44.836  12.903
70601W        W30137  32.577  43.960  12.891
70602W        W30138  40.444  11.152   0.280
70603W        W30139  17.103  34.424  11.085
70604W        W30140  39.941  20.063  14.828
70605W        W30141  35.557  32.398  13.970
70606W        W30142  40.838  37.410   2.395
70607W        W30143   2.863  19.266   0.297
70608W        W30144  24.142  43.325  10.532
70609W        W30145  44.313  26.952  12.011
70610W        W30146  24.126  15.146   2.798
70611W        W30147  36.495   7.294   0.752
70612W        W30148  28.600  16.675  14.282
70613W        W30149  17.571  32.471  10.634
70614W        W30150   3.938  21.644   0.395
70615W        W30151   8.166  41.338  13.438
70616W        W30152   2.941  14.110   9.955
70617W        W30153  38.493   7.686  12.508
70618W        W30154  32.965  11.348   2.745
70619W        W30155  40.935  13.699   0.242
70620W        W30156  24.638  29.581  14.769
70621W        W30157  41.932  40.821  11.446
70622W        W30158  41.876  13.172  11.875
70623W        W30159  21.738  11.258   1.316
70624W        W30160  22.024   0.933   2.758
70625W        W30161  27.011  44.304   3.192
70626W        W30162   2.345  13.747  13.895
70627W        W30163  25.198  40.440   3.833
70628W        W30164  41.864  25.486  13.802
70629W        W30165  19.691  16.761   4.167
70630W        W30166   6.389   8.660  13.368
70631W        W30167   4.388  16.251   3.217
70632W        W30168  44.910  27.054  14.335
70633W        W30169  28.618   7.850  11.593
70634W        W30170  27.554  14.767  14.797
70635W        W30171  15.582  30.536  13.391
70636W        W30172  15.762  23.717   1.715
70637W        W30173  40.362  25.995   2.263
70638W        W30174  19.088   7.257   2.324
70639W        W30175  23.113  27.015  14.472
70640W        W30176  19.080  43.282   2.199
70641W        W30177  41.789   7.776   4.184
70642W        W30178   9.733  12.312   3.631
70643W        W30179   1.317   4.345  10.543
70644W        W30180  44.773   7.235  11.097
70645W        W30181  32.627  32.402  12.452
70646W        W30182  11.304  11.674   0.469
70647W        W30183  19.690  29.524   4.157
70648W        W30184  20.199  33.565   3.831
70649W        W30185   7.415   5.228   1.434
70650W        W30186   6.415  20.708   4.236
70651W        W30187   4.260  31.554   2.824
70652W        W30188   6.772  31.059  13.961
70653W        W30189  17.721  18.130  11.870
70654W        W30190  38.883  36.959  10.905
70655W        W30191  20.071   7.757   2.881
70656W        W30192  26.595  40.807  11.573
70657W        W30193   9.771  17.573   2.349
70658W        W30194  25.161  35.055   5.121
70659W        W30195  18.079  21.046  12.387
70660W        W30196  14.274  35.481   2.822
70661W        W30197  18.056  36.578  12.454
70662W        W30198  32.077  30.000   4.821
70663W        W30199   9.203   1.848   2.711
70664W        W30200  41.497  19.629  10.891
70665W        W30201  30.972  21.158   3.707
70666W        W30202  22.069  33.011   2.872
70667W        W30203  15.192  42.812  10.641
70668W        W30204  25.052  20.693   3.805
70669W        W30205   9.388  30.514   2.828
70670W        W30206  32.602  20.073   4.213
70671W        W30207   7.208  26.696   2.199
70672W        W30208   2.819   2.839   4.728
70673W        W30209  14.280  38.997   4.330
70674W        W30210  21.046   8.712  13.805
70675W        W30211  21.260  42.305  12.508
70676W        W30212   9.196  16.139   1.418
70677W        W30213  17.722  34.421  11.919
70678W        W30214   9.365  25.096  10.975
70679W        W30215  41.313  21.715  14.020
70680W        W30216  18.694  25.209   1.419
70681W        W30217  17.784  24.981  14.909
70682W        W30218  37.007  29.542   1.212
70683W        W30219  41.019  26.641   3.294
70684W        W30220  38.375   8.850   0.416
70685W        W30221  10.685   9.203  13.912
70686W        W30222   1.861  41.968   4.600
70687W        W30223   3.886   2.256  12.094
70688W        W30224  19.672  19.054  10.032
70689W        W30225  25.526  13.838  11.023
70690W        W30226  24.542  28.645   1.902
70691W        W30227  33.026  12.218  13.931
70692W        W30228  38.899   6.295  11.601
70693W        W30229  29.644   0.812  11.035
70694W        W30230  15.583   0.472   9.965
70695W        W30231  21.550  16.774  13.844
70696W        W30232  44.758   2.765  13.896
70697W        W30233  40.369   4.866   0.308
70698W        W30234  14.141  30.480  12.506
70699W        W30235  33.429  33.569   3.161
70700W        W30236  21.526  19.070   1.700
70701W        W30237   1.363  42.469  11.558
70702W        W30238  11.200  41.937  11.119
70703W        W30239   7.833  30.067   5.283
70704W        W30240  17.600  11.667   1.720
70705W        W30241  36.866  33.896  11.453
70706W        W30242  18.592  41.465  14.278
70707W        W30243   2.397  34.917  10.561
70708W        W30244  44.008  10.375   2.898
70709W        W30245   2.381  25.095   0.805
70710W        W30246  29.494  17.646  10.572
70711W        W30247  15.775   8.251   1.293
70712W        W30248  16.181  44.787   2.410
70713W        W30249   0.810   6.388  12.914
70714W        W30250  40.482   9.688  12.416
70715W        W30251   1.869  14.330  12.345
70716W        W30252  27.017   4.372   4.756
70717W        W30253  19.589   3.778   0.316
70718W        W30254  17.760  26.095   1.216
70719W        W30255  35.485   1.348  12.001
70720W        W30256  26.621   9.200  14.887
70721W        W30257  33.948  18.780   3.784
70722W        W30258  42.001   4.887  13.340
70723W        W30259   2.791   2.311   1.422
70724W        W30260   7.347  40.929  11.018
70725W        W30261  41.374  26.089   0.946
70726W        W30262  37.995  13.231  13.458
70727W        W30263  17.101  29.434  13.513
70728W        W30264   8.393  32.537  13.344
70729W        W30265   3.216  44.840  11.049
70730W        W30266  37.895  30.000  10.409
70731W        W30267  14.105  16.113   2.356
70732W        W30268  29.651   6.386  13.995
70733W        W30269  32.887  15.761   4.264
70734W        W30270   5.380  29.945   4.302
70735W        W30271  23.217  39.438  11.934
70736W        W30272  29.089  38.006  13.411
70737W        W30273  33.946   1.314  11.487
70738W        W30274  30.081   8.243  10.463
70739W        W30275   0.944   2.282  11.399
70740W        W30276  27.059   2.233   1.292
70741W        W30277  37.060  17.723  12.566
70742W        W30278  31.002  37.062  13.035
70743W        W30279  32.581   6.218  10.620
70744W        W30280  39.999   6.193  10.642
70745W        W30281  12.688  39.036  12.044
70746W        W30282   4.813  23.114   0.737
70747W        W30283  19.071  19.263  14.793
70748W        W30284  29.598   0.849   1.302
70749W        W30285   6.189   7.748   1.766
70750W        W30286  31.644  10.865   1.359
70751W        W30287  26.650   8.406   3.205
70752W        W30288  23.515  18.714   2.225
70753W        W30289   8.777  43.876  12.507
70754W        W30290   9.871   8.704   1.447
70755W        W30291  42.415  26.958  13.518
70756W        W30292  13.260   7.390   0.356
70757W        W30293  21.204   8.710  12.350
70758W        W30294  12.310  19.615   4.288
70759W        W30295  12.254  21.071  12.844
70760W        W30296  28.597  25.604  11.513
70761W        W30297  33.967  23.987  12.970
70762W        W30298   9.394  27.522   0.735
70763W        W30299  28.663   2.846   4.715
70764W        W30300  33.941  29.669   1.216
70765W        W30301  13.799  35.983  11.035
70766W        W30302  40.493  17.104  13.500
70767W        W30303  31.998  26.483  10.945
70768W        W30304   1.904  42.851   2.296
70769W        W30305  22.610  23.715   2.811
70770W        W30306   8.211  33.567  14.349
70771W        W30307  36.520  28.617   2.271
70772W        W30308  10.294  10.146  14.016
70773W        W30309  11.352  29.455   1.416
70774W        W30310   1.257  36.062   1.411
70775W        W30311  14.814  37.962   1.219
70776W        W30312  36.096  16.151   4.310
70777W        W30313   0.915  28.609   2.668
70778W        W30314  14.656  39.971  13.030
70779W        W30315  37.369  32.573   0.248
70780W        W30316  31.051  14.735  13.872
70781W        W30317   3.726  32.559  13.527
70782W        W30318  28.063   6.351   3.689
70783W        W30319   5.410  32.050   4.234
70784W        W30320  24.157  39.056   5.277
70785W        W30321  37.895  38.909   1.389
70786W        W30322  40.503  19.205   0.356
70787W        W30323  19.621   7.767   1.750
70788W        W30324   2.733  42.933   2.878
70789W        W30325  28.932  17.167  10.413
70790W        W30326  32.894  11.786  10.930
70791W        W30327   6.235   5.896  10.448
70792W        W30328  29.452   9.303   0.255
70793W        W30329   0.783   1.905   4.695
70794W        W30330  41.362  39.943   0.243
70795W        W30331  25.092   6.922  14.946
70796W        W30332  39.876  18.772   2.698
70797W        W30333  10.779   1.400  11.467
70798W        W30334   7.317  31.610   0.394
70799W        W30335   1.839  24.611   1.931
70800W        W30336   9.335  29.636  10.153
70801W        W30337   4.388   0.872  12.840
70802W        W30338  14.095  27.474   3.359
70803W        W30339  33.904  35.585   3.259
70804W        W30340   2.868   2.753  11.013
70805W        W30341  33.522  41.976  10.016
70806W        W30342  26.689  13.269  10.903
70807W        W30343  44.277  38.393   4.694
70808W        W30344  18.568  19.144  11.861
70809W        W30345  16.258  18.551   0.476
70810W        W30346  40.915  30.590   1.329
70811W        W30347  29.116  35.363   4.768
70812W        W30348  27.458   3.740   0.820
70813W        W30349  20.745  27.489   1.280
70814W        W30350  31.072  20.094   3.854
70815W        W30351  14.232  40.989   0.947
70816W        W30352  34.493   3.900  11.862
70817W        W30353  29.503  43.006  13.861
70818W        W30354  12.769  24.547   1.353
70819W        W30355  14.748   9.172   4.698
70820W        W30356  29.599   7.745   0.808
70821W        W30357  43.997   5.288  12.554
70822W        W30358  28.022  37.947  14.456
70823W        W30359   6.377  24.512  13.830
70824W        W30360  18.172  27.467  13.327
70825W        W30361  35.952  32.138   1.329
70826W        W30362  32.405  36.024  12.072
70827W        W30363   4.752  39.323  11.441
70828W        W30364  36.087  24.681  11.473
70829W        W30365  39.017  43.001   2.246
70830W        W30366  41.294  43.502  14.000
70831W        W30367  44.935  31.102  13.383
70832W        W30368  20.684  40.836  13.954
70833W        W30369   8.876  32.526  10.409
70834W        W30370   5.834  24.491   0.358
70835W        W30371  12.158  16.722  11.864
70836W        W30372   0.454  11.290   5.568
70837W        W30373  38.532  15.698   3.647
70838W        W30374  30.525  20.152   4.674
70839W        W30375  25.109   9.287  11.513
70840W        W30376  34.031   9.860   3.247
70841W        W30377   4.211   4.387   1.347
70842W        W30378  39.318  42.004  12.076
70843W        W30379  17.155  35.089  12.062
70844W        W30380  36.389  38.915  10.076
70845W        W30381  43.973   6.755   1.317
70846W        W30382  15.305  19.772  13.430
70847W        W30383  21.077  41.009  14.465
70848W        W30384  11.155   8.659  13.056
70849W        W30385  34.614  23.073  11.960
70850W        W30386  12.353  35.596   0.940
70851W        W30387  28.091  43.894  11.428
70852W        W30388  11.299   4.883  11.879
70853W        W30389  40.338  44.843  11.376
70854W        W30390  14.595  37.504   3.718
70855W        W30391   6.731   1.269   1.721
70856W        W30392  25.180   7.298   1.766
70857W        W30393  23.718  22.502   0.297
70858W        W30394  14.703  42.792   5.105
70859W        W30395  36.974  12.245   2.694
70860W        W30396  31.550   7.400   3.778
70861W        W30397   7.764  16.803   1.851
70862W        W30398  38.025   7.783  14.474
70863W        W30399  28.574  35.512   0.754
70864W        W30400  43.959   4.447   2.881
70865W        W30401   4.290  40.025   1.410
70866W        W30402   3.219  24.974   1.863
70867W        W30403  20.046  40.971  12.073
70868W        W30404  25.218  13.644   2.760
70869W        W30405   5.415   6.299   4.597
70870W        W30406   2.297  19.533   4.116
70871W        W30407  18.671  19.047  13.401
70872W        W30408  11.151  44.990   1.416
70873W        W30409  23.226  31.119  14.422
70874W        W30410  38.524  20.033  12.917
70875W        W30411  36.573  42.779  12.456
70876W        W30412   4.720   2.430   1.301
70877W        W30413  38.907  27.987  12.898
70878W        W30414  10.141   3.230   3.327
70879W        W30415  24.499  20.758  11.884
70880W        W30416   7.896  12.162  12.860
70881W        W30417  29.961  22.188  14.012
70882W        W30418  40.525  13.784  14.286
70883W        W30419   1.367  34.552  13.401
70884W        W30420  32.542  14.322   2.892
70885W        W30421   0.367  27.065   2.272
70886W        W30422   1.471   2.408   1.394
70887W        W30423  32.599  32.479   3.271
70888W        W30424  16.618  37.358  11.507
70889W        W30425  24.973  14.301   4.332
70890W        W30426  30.604  12.317  13.981
70891W        W30427  29.601  36.071   4.734
70892W        W30428  21.751  25.213  12.938
70893W        W30429   3.410  28.535   3.636
70894W        W30430  31.522  41.892   3.277
70895W        W30431   1.737  41.345   0.807
70896W        W30432  44.908  25.212   4.120
70897W        W30433   7.208  43.791   3.178
70898W        W30434   5.926   8.870   4.216
70899W        W30435  36.419  33.381  12.446
70900W        W30436  43.361  26.144   0.764
70901W        W30437  13.705   8.689   4.277
70902W        W30438   3.334  42.526  12.012
70903W        W30439  27.569  31.460  14.806
70904W        W30440  23.595  15.151  13.823
70905W        W30441  39.521  32.976   0.863
70906W        W30442  15.234  31.511   1.419
70907W        W30443  41.998  35.416   3.230
70908W        W30444   2.412  33.472  14.832
70909W        W30445   9.347  26.633   3.379
70910W        W30446  14.816   7.728   2.846
70911W        W30447  31.577  10.657   4.605
70912W        W30448  33.620   8.753   2.813
70913W        W30449  34.444  37.396  10.534
70914W        W30450  39.536  21.111  12.082
70915W        W30451   3.446  44.858  14.951
70916W        W30452  17.642   0.429  12.027
70917W        W30453   1.463   4.416   3.283
70918W        W30454  26.533  31.540  13.928
70919W        W30455  37.908  13.723   2.239
70920W        W30456  21.602  16.082   2.773
70921W        W30457  42.911  33.907  12.371
70922W        W30458   0.404  17.289   1.902
70923W        W30459   3.381  24.602  13.482
70924W        W30460  20.071  33.470   4.818
70925W        W30461  36.070  11.360   3.203
70926W        W30462  37.035   1.904   0.956
70927W        W30463   2.232  44.916   0.879
70928W        W30464  23.545  27.166  13.428
70929W        W30465  28.617  31.141  12.024
70930W        W30466   1.755   2.425   1.410
70931W        W30467  12.747  17.656  10.984
70932W        W30468  24.585  14.653  12.018
70933W        W30469  11.758  10.761  10.583
70934W        W30470   1.925  27.519   0.727
70935W        W30471  25.119  15.703  12.986
70936W        W30472  41.007  38.337  14.353
70937W        W30473  23.601   4.364   4.232
70938W        W30474  36.503  19.179   0.478
70939W        W30475  38.841   6.354   2.288
70940W        W30476  16.613  25.112  12.397
70941W        W30477  10.141  45.000  12.558
70942W        W30478  21.078  38.833   9.996
70943W        W30479  33.021   1.248  14.442
70944W        W30480  37.378  14.599  13.389
70945W        W30481  20.668  16.282  11.095
70946W        W30482  24.541  22.227   1.451
70947W        W30483  28.471   9.808  12.343
70948W        W30484  27.572  43.507   3.733
70949W        W30485   3.822  22.229  11.003
70950W        W30486  30.002  39.404   4.266
70951W        W30487  22.026  28.114  14.450
70952W        W30488  32.442  25.991   2.893
70953W        W30489  25.565   6.832   0.384
70954W        W30490  39.867  20.600  12.364
70955W        W30491  37.347   2.287  11.971
70956W        W30492  22.217  20.071   0.773
70957W        W30493  39.558  16.698   1.353
70958W        W30494  43.999  41.353  13.039
70959W        W30495  25.147  35.882   1.370
70960W        W30496  40.489  36.997   0.464
70961W        W30497   1.974   7.393  13.455
70962W        W30498  36.070  38.423  11.107
70963W        W30499  11.188  44.794  12.069
70964W        W30500   4.942  10.359   4.835
70965W        W30501  37.565  23.232  13.468
70966W        W30502  14.255   7.784  11.605
70967W        W30503  42.979  19.059   0.370
70968W        W30504  17.136  43.971   3.344
70969W        W30505  19.210  33.070   2.344
70970W        W30506  44.976  10.834  12.441
70971W        W30507  18.262  22.214  13.327
70972W        W30508  43.828   0.972   3.296
70973W        W30509  16.253  25.580   3.866
70974W        W30510  40.403  38.395  13.815
70975W        W30511   7.771  24.225   0.729
70976W        W30512  21.019  18.618   0.269
70977W        W30513  10.348  23.046   2.823
70978W        W30514  19.103  24.981  14.980
70979W        W30515  28.573  23.130   2.747
70980W        W30516  21.162  24.107   0.875
70981W        W30517   4.915  14.607   3.791
70982W        W30518  18.587  22.007   0.735
70983W        W30519  24.043  44.839   2.235
70984W        W30520   0.837  12.214  11.964
70985W        W30521  20.642  31.420   4.691
70986W        W30522  25.135  21.550  12.080
70987W        W30523  42.893  26.489  10.501
70988W        W30524  11.314  23.177  14.860
70989W        W30525   1.895  11.832  12.993
70990W        W30526  33.515  20.111   1.268
70991W        W30527  20.594  28.062   2.285
70992W        W30528  12.734  42.335  13.849
70993W        W30529  35.444  24.019  14.796
70994W        W30530  37.962   8.757   3.195
70995W        W30531  18.288  31.993   2.209
70996W        W30532  38.983  35.003   1.317
70997W        W30533  26.087   4.915  13.387
70998W        W30534  17.157   8.725   2.341
70999W        W30535   5.250  29.620  12.888
71000W        W30536  39.042  39.882   9.964
71001W        W30537  11.681  33.911   2.369
71002W        W30538  33.055   1.756  14.009
71003W        W30539  33.441  44.447  11.908
71004W        W30540  42.486   5.812  13.816
71005W        W30541   6.722   1.405  14.032
71006W        W30542  21.112  29.614  11.449
71007W        W30543  22.655   7.701   4.692
71008W        W30544   7.725  22.739  14.762
71009W        W30545  27.972  15.739   2.882
71010W        W30546  44.494  42.947  14.794
71011W        W30547   4.873   2.842  13.317
71012W        W30548  20.184  28.645  12.081
71013W        W30549  32.958  16.147  14.776
71014W        W30550   4.376   8.199   0.906
71015W        W30551  16.247  28.153   0.315
71016W        W30552  31.032   7.235   3.252
71017W        W30553  22.613  12.260  14.967
71018W        W30554  38.553  23.016   1.877
71019W        W30555  42.304  18.260  13.044
71020W        W30556   1.376   8.662   2.740
71021W        W30557  25.994  19.065  14.422
71022W        W30558  40.022  21.545  14.467
71023W        W30559  12.750  12.716  13.044
71024W        W30560  32.914  39.819   1.843
71025W        W30561  33.559  14.676  12.939
71026W        W30562  29.978  25.040  12.437
71027W        W30563  21.715   0.430   1.384
71028W        W30564  41.868  41.891   3.347
71029W        W30565  41.304  19.137   4.751
71030W        W30566   5.400  27.489   1.809
71031W        W30567  32.493   6.384   0.306
71032W        W30568  29.055  24.143  14.881
71033W        W30569  35.925  39.019  10.433
71034W        W30570  32.929   3.283  12.390
71035W        W30571  18.120  10.262  14.977
71036W        W30572  26.460  26.516   1.886
71037W        W30573  36.481  31.435   4.237
71038W        W30574   9.666  10.247  10.012
71039W        W30575  20.716   2.230  12.019
71040W        W30576  43.947  30.104   4.672
71041W        W30577  21.604  32.938  13.016
71042W        W30578  20.703  14.124  12.009
71043W        W30579  43.914  30.432  13.029
71044W        W30580   3.938  27.501   4.274
71045W        W30581  39.478  35.941  14.311
71046W        W30582  34.018  11.827  12.044
71047W        W30583  13.278   7.385  14.762
71048W        W30584   2.750  28.652  11.372
71049W        W30585  38.364   2.393   3.278
71050W        W30586  30.990  22.716  10.918
71051W        W30587   7.390  36.352   3.691
71052W        W30588  37.551  36.049   0.380
71053W        W30589  31.528  27.156   1.234
71054W        W30590  35.399  26.592  13.335
71055W        W30591  11.767  18.172   2.356
71056W        W30592  33.596   9.180  12.038
71057W        W30593  44.905   4.216   1.442
71058W        W30594  24.507   4.830   0.823
71059W        W30595  37.357  24.074  13.407
71060W        W30596  35.962  12.841   1.716
71061W        W30597  13.730  29.561  12.549
71062W        W30598  11.642   4.447   1.847
71063W        W30599  20.721   3.775  14.798
71064W        W30600   5.369   6.275   0.374
71065W        W30601  11.769  20.052  14.991
71066W        W30602  14.767  22.197  10.429
71067W        W30603  16.782  42.474   3.770
71068W        W30604   4.332  25.132  12.915
71069W        W30605   9.193  38.522  12.940
71070W        W30606  13.293   3.264   1.273
71071W        W30607  22.217  39.047   2.775
71072W        W30608  32.936  38.004   2.412
71073W        W30609  40.991   7.714  11.047
71074W        W30610   8.890  30.480  11.981
71075W        W30611  23.520   5.309   0.899
71076W        W30612  24.098  28.513  12.430
71077W        W30613  39.367   1.292   1.720
71078W        W30614  10.148  15.711  10.481
71079W        W30615  37.919  21.649  11.066
71080W        W30616   5.262  20.646   4.724
71081W        W30617  30.122  15.692   0.921
71082W        W30618  34.971  20.745  12.060
71083W        W30619  27.575  22.571  14.843
71084W        W30620  41.843  40.525   1.354
71085W        W30621   5.223  17.080   1.879
71086W        W30622  11.317  16.308   0.771
71087W        W30623  17.238   5.858   3.285
71088W        W30624  30.954  14.749  12.965
71089W        W30625  42.399  37.949  11.939
71090W        W30626  15.164   9.313  12.356
71091W        W30627  19.127  23.136   3.850
71092W        W30628  27.539  40.546   1.284
71093W        W30629  36.957  36.539  12.894
71094W        W30630  21.517   1.969   1.771
71095W        W30631  43.990  36.590   1.743
71096W        W30632  35.476  18.628  11.416
71097W        W30633  28.563   0.952   0.738
71098W        W30634  42.911  25.098   0.934
71099W        W30635  22.543  44.305  10.039
71100W        W30636   3.434  21.679   2.730
71101W        W30637  23.012  40.937   2.395
71102W        W30638   2.845  22.017   1.826
71103W        W30639  19.234  44.853  13.321
71104W        W30640  26.986  16.594   4.189
71105W        W30641  35.887  35.531   2.224
71106W        W30642  43.332  24.151  11.476
71107W        W30643  12.230  41.827  13.370
71108W        W30644  41.349  11.336  10.517
71109W        W30645  37.875  12.675   4.114
71110W        W30646  10.306   6.844  12.008
71111W        W30647  26.701  17.745  10.537
71112W        W30648  43.404  34.394   0.347
71113W        W30649   1.341   9.753   3.718
71114W        W30650  19.204  21.569   0.950
71115W        W30651   5.293  15.230   0.841
71116W        W30652   6.361  28.171  13.935
71117W        W30653  29.982  33.445   3.201
71118W        W30654  18.736  39.914  11.021
71119W        W30655   1.356  44.471   2.728
71120W        W30656  29.118  39.039   1.766
71121W        W30657  26.624  36.912  14.279
71122W        W30658  30.418  18.160  12.047
71123W        W30659  19.747  28.492   1.434
71124W        W30660  26.464   9.881   1.371
71125W        W30661   0.296   6.909  11.491
71126W        W30662   3.253  19.257  11.440
71127W        W30663  26.011  35.477   2.193
71128W        W30664  38.357  26.577  13.056
71129W        W30665  21.655  12.144  12.884
71130W        W30666  24.118  26.204  12.390
71131W        W30667  39.030  30.993   0.356
71132W        W30668   8.668  23.010   0.402
71133W        W30669  17.062  14.714  11.514
71134W        W30670  21.562   9.877  14.853
71135W        W30671  18.742  13.330  13.334
71136W        W30672   0.275  39.325   2.882
71137W        W30673  39.971  16.224   1.306
71138W        W30674  12.648  20.206  12.057
71139W        W30675  35.001   6.214  13.850
71140W        W30676   4.794  12.337   0.787
71141W        W30677   8.220   3.266  11.546
71142W        W30678  15.135  28.154  11.014
71143W        W30679  25.528  26.512  13.832
71144W        W30680   8.378  43.964   2.306
71145W        W30681  16.624  26.081  10.580
71146W        W30682   0.350   9.702   0.399
71147W        W30683  35.012  15.147  14.391
71148W        W30684  26.636  37.490  14.920
71149W        W30685  19.617  25.108  13.315
71150W        W30686  19.100  26.494  13.977
71151W        W30687  19.273   8.276  12.494
71152W        W30688   1.908  40.958  14.784
71153W        W30689  33.047  25.482  14.965
71154W        W30690  35.484  11.807   1.346
71155W        W30691  27.193  42.393   3.222
71156W        W30692  21.147   0.908  10.539
71157W        W30693  40.957  40.316   3.657
71158W        W30694   8.661  12.822   0.902
71159W        W30695   3.291   8.830   3.692
71160W        W30696  27.525  22.661   2.864
71161W        W30697  22.708   0.780   0.808
71162W        W30698   6.239  21.654  11.888
71163W        W30699  30.931  23.519   0.929
71164W        W30700   0.982   9.679   1.894
71165W        W30701  37.494  22.525   5.126
71166W        W30702  23.522   4.394  13.017
71167W        W30703  37.474  28.495  14.358
71168W        W30704  21.151  12.238   4.171
71169W        W30705  31.506   8.185   1.380
71170W        W30706  32.124  29.666   1.881
71171W        W30707  41.006  44.939   3.271
71172W        W30708  10.256  23.702   1.359
71173W        W30709   3.218  35.423  11.886
71174W        W30710  36.000  21.131  10.159
71175W        W30711  38.350  17.730   0.802
71176W        W30712   3.757  38.474  14.867
71177W        W30713  40.046  31.056   3.807
71178W        W30714  16.246  30.042  13.866
71179W        W30715  29.929  29.536   0.892
71180W        W30716  11.763   4.897   0.805
71181W        W30717   4.901  17.592   2.209
71182W        W30718  29.101  42.876  13.495
71183W        W30719  29.462  33.560   1.214
71184W        W30720  29.540   1.824   0.361
71185W        W30721  21.049   2.829   1.224
71186W        W30722  28.035  25.656  11.467
71187W        W30723   1.912  39.465   1.420
71188W        W30724  32.900  33.126   1.215
71189W        W30725   0.925   1.856   9.979
71190W        W30726  37.956  15.579  11.380
71191W        W30727  27.680  22.203  10.594
71192W        W30728  40.348   5.261  14.768
71193W        W30729  12.116  33.561   3.357
71194W        W30730  37.427  38.929   5.128
71195W        W30731  13.813  31.464   2.728
71196W        W30732  30.526  19.231   4.695
71197W        W30733  17.646  44.974  11.522
71198W        W30734  39.000  41.372   3.311
71199W        W30735  42.474  23.490   1.919
71200W        W30736  24.657  38.847   2.715
71201W        W30737  27.646  32.992  10.587
71202W        W30738  41.845  15.211   2.708
71203W        W30739   9.674  32.601  14.940
71204W        W30740  32.527  16.170  11.008
71205W        W30741  28.959  12.617   2.703
71206W        W30742  25.643  41.453   3.374
71207W        W30743  22.190   8.321  14.478
71208W        W30744  11.717  25.995   1.372
71209W        W30745  37.468  42.291  10.523
71210W        W30746   8.784  12.670  12.048
71211W        W30747  27.947  24.693   3.349
71212W        W30748  20.083  10.758   0.417
71213W        W30749  42.356  28.607  14.378
71214W        W30750  19.759  27.074  14.003
71215W        W30751  41.326  44.943  10.977
71216W        W30752   3.733  17.197   0.786
71217W        W30753  35.064  41.826   3.733
71218W        W30754  44.286  31.611   1.859
71219W        W30755  11.157   3.717   0.279
71220W        W30756  29.639  16.077  10.949
71221W        W30757  22.720  21.705   0.253
71222W        W30758  20.743  38.958   1.381
71223W        W30759  28.165  42.324  12.850
71224W        W30760  28.650  37.338  10.516
71225W        W30761   8.859  19.750  11.895
71226W        W30762  11.161   5.868   3.858
71227W        W30763  29.465  24.209   1.411
71228W        W30764  14.244  40.546   2.392
71229W        W30765  32.978  18.054   2.808
71230W        W30766  20.681  33.575  13.442
71231W        W30767  14.224   1.962   2.664
71232W        W30768  26.972  42.775  11.993
71233W        W30769  31.928  30.964  11.473
71234W        W30770  20.648  29.456   3.228
71235W        W30771  11.318   0.394  10.613
71236W        W30772  25.539  19.053  13.429
71237W        W30773  27.170  16.753  11.589
71238W        W30774  15.122   7.864  11.099
71239W        W30775  17.745   9.841   4.676
71240W        W30776  31.916   7.696   5.093
71241W        W30777  29.036  27.106  11.484
71242W        W30778  27.667  38.996   4.350
71243W        W30779  15.234  41.442  11.930
71244W        W30780  38.040  17.112  13.498
71245W        W30781   4.309  15.640  12.484
71246W        W30782   2.912  21.702  12.066
71247W        W30783  38.884  11.146   0.765
71248W        W30784  37.994  41.510   0.457
71249W        W30785  10.198  11.654  13.967
71250W        W30786  43.375  13.664  10.894
71251W        W30787   1.750   5.299  14.799
71252W        W30788   8.783  29.072  11.414
71253W        W30789  18.650  14.671  11.590
71254W        W30790  14.256  26.952  10.619
71255W        W30791   0.290  11.658  14.380
71256W        W30792  24.591  39.492  13.858
71257W        W30793  21.168  20.069   0.797
71258W        W30794  29.041   4.338  12.045
71259W        W30795   5.393  37.925  14.911
71260W        W30796   8.682  34.442  11.536
71261W        W30797  29.087  28.600  12.021
71262W        W30798  21.145  30.543   3.812
71263W        W30799  39.036  26.080   1.786
71264W        W30800  33.439  33.061   2.337
71265W        W30801  20.152  24.704   2.331
71266W        W30802  16.209  22.735  11.967
71267W        W30803  32.918  41.487  11.126
71268W        W30804  27.010  25.543   3.275
71269W        W30805  39.808  36.070  14.503
71270W        W30806  34.419  36.033   2.786
71271W        W30807  15.675  29.612   0.246
71272W        W30808   5.751   3.788   3.374
71273W        W30809  36.578  44.415  13.991
71274W        W30810  24.625  37.865  13.328
71275W        W30811  17.687  12.800  10.533
71276W        W30812  23.234  19.735   3.854
71277W        W30813  16.288  36.874   3.294
71278W        W30814  26.122  37.075   0.384
71279W        W30815  35.937  34.506   4.298
71280W        W30816  38.328  28.956   3.659
71281W        W30817   8.218  36.861  11.043
71282W        W30818  23.543  26.203   3.351
71283W        W30819  24.223  27.150  11.065
71284W        W30820  14.602  25.015   0.751
71285W        W30821  10.761  24.575  14.503
71286W        W30822  26.500  42.886  14.948
71287W        W30823  30.505  31.900   3.777
71288W        W30824   0.851  44.905  12.935
71289W        W30825   7.394   7.865   4.152
71290W        W30826  13.138  30.422   0.959
71291W        W30827  34.944  27.670   1.267
71292W        W30828   9.854   8.792  14.989
71293W        W30829  10.267  36.563  13.936
71294W        W30830  41.337  41.852  10.993
71295W        W30831  33.526   3.792  10.459
71296W        W30832   0.268   6.695  10.908
71297W        W30833  10.349  29.571   3.255
71298W        W30834  27.554   1.308  10.526
71299W        W30835  21.697  21.582  10.943
71300W        W30836  36.862  25.563  13.387
71301W        W30837  17.182   9.850  11.373
71302W        W30838   6.302  15.723  12.426
71303W        W30839  32.412  27.516  12.861
71304W        W30840   7.252  44.359   3.645
71305W        W30841   8.234  37.062   4.737
71306W        W30842  29.107  22.153   0.430
71307W        W30843  30.927   9.845  12.837
71308W        W30844  33.613   8.347   2.266
71309W        W30845  18.183  23.707  13.990
71310W        W30846  36.544  40.472   3.832
71311W        W30847   7.819  28.093  10.631
71312W        W30848  28.066  16.662   1.233
71313W        W30849  44.361   3.357   2.286
71314W        W30850   0.967  42.979  14.811
71315W        W30851  39.929  39.539  14.952
71316W        W30852  18.553   8.813   0.336
71317W        W30853  11.705   9.171   1.904
71318W        W30854  21.655  39.454   4.231
71319W        W30855  28.584  18.063  10.911
71320W        W30856  36.524   9.300  12.576
71321W        W30857  38.340  33.470   1.791
71322W        W30858  42.947  41.035   1.371
71323W        W30859  16.730  17.799  11.503
71324W        W30860  29.601  26.072   1.797
71325W        W30861  25.613   5.805  13.016
71326W        W30862  33.413  28.119   3.313
71327W        W30863  15.104  37.577   1.302
71328W        W30864  23.559   7.909  13.385
71329W        W30865  22.032   7.345   4.233
71330W        W30866  29.651  30.969  14.496
71331W        W30867  22.640   7.223  12.566
71332W        W30868  31.954  11.356   0.914
71333W        W30869   1.857  22.091  12.018
71334W        W30870   3.904  30.534  11.064
71335W        W30871  10.753  25.979  13.307
71336W        W30872   9.302  33.501  12.396
71337W        W30873  10.165  37.004   3.855
71338W        W30874  44.009  41.025  10.581
71339W        W30875  39.321  28.125  11.117
71340W        W30876  35.553  37.511   1.341
71341W        W30877  44.847   4.762   4.315
71342W        W30878  12.794  20.581  10.424
71343W        W30879  13.678  23.106  12.443
71344W        W30880  15.197  34.538   0.373
71345W        W30881  44.429  19.657  14.999
71346W        W30882   5.331  28.039  13.460
71347W        W30883  18.548  34.909   0.382
71348W        W30884  30.010  30.468  11.586
71349W        W30885   1.476   5.795   1.446
71350W        W30886  10.813  12.661  13.988
71351W        W30887   6.186  17.120  12.013
71352W        W30888  16.750  25.709   2.757
71353W        W30889  10.695  35.491  10.475
71354W        W30890  12.326  34.484  13.414
71355W        W30891  39.500   0.397  11.975
71356W        W30892  21.089   1.298   0.897
71357W        W30893   0.387   4.241   1.785
71358W        W30894  42.925  27.156   5.219
71359W        W30895  43.915  40.354   2.318
71360W        W30896  33.547  44.770  14.997
71361W        W30897   3.791  28.993   1.765
71362W        W30898  13.215   7.389  13.528
71363W        W30899  31.484  30.130   9.471
71364W        W30900  30.645  16.176  10.482
71365W        W30901   4.862   2.848  14.424
71366W        W30902  40.363  28.185   3.813
71367W        W30903  10.643  20.098   3.671
71368W        W30904  23.698  17.280  11.390
71369W        W30905   1.313   4.715   1.306
71370W        W30906  21.707  19.671   2.886
71371W        W30907  31.117  30.124   2.353
71372W        W30908  28.567  18.564  10.942
71373W        W30909  18.077  36.397   3.149
71374W        W30910  37.571  28.441  11.893
71375W        W30911  13.662  22.094   3.665
71376W        W30912   6.785  25.578  12.916
71377W        W30913  31.011   6.680   2.397
71378W        W30914  37.877  14.099  13.333
71379W        W30915  38.567  38.554  13.347
71380W        W30916  10.698  44.284   3.852
71381W        W30917  14.833  19.168   0.344
71382W        W30918  32.451   0.271   1.920
71383W        W30919   0.964  17.241   1.917
71384W        W30920  17.256   8.361  14.778
71385W        W30921  26.107  14.794  10.541
71386W        W30922  38.974  34.515   1.836
71387W        W30923  39.349  14.753   1.353
71388W        W30924  22.113  44.828   2.272
71389W        W30925  40.420  33.028  12.989
71390W        W30926  21.712  24.147   4.754
71391W        W30927  15.284   8.289  11.857
71392W        W30928  38.398  26.691   1.317
71393W        W30929  27.191  18.563  13.951
71394W        W30930  24.176  13.214  13.000
71395W        W30931   1.333  15.728  10.492
71396W        W30932  20.074   2.837  11.989
71397W        W30933  44.954  16.631  12.509
71398W        W30934   0.910  26.500   0.846
71399W        W30935  12.154  16.692   4.646
71400W        W30936  13.161  40.403   1.419
71401W        W30937  19.562  27.616  12.532
71402W        W30938  39.328  44.381   3.237
71403W        W30939  22.246  13.201   0.880
71404W        W30940  10.274  13.202   1.358
71405W        W30941   3.304  37.489  13.027
71406W        W30942   5.904  27.094  14.988
71407W        W30943   5.259  39.890  14.028
71408W        W30944  27.473  15.782   2.321
71409W        W30945   3.762   5.880   1.311
71410W        W30946  24.681   3.438  12.952
71411W        W30947  31.048  11.199   2.826
71412W        W30948  39.473  28.559   3.855
71413W        W30949  42.024   6.772  11.943
71414W        W30950   8.786  19.780   5.178
71415W        W30951  13.836  28.652  10.508
71416W        W30952  36.992  14.735  13.965
71417W        W30953  44.972  36.465   3.870
71418W        W30954   1.343  44.265  11.508
71419W        W30955  41.415  36.083  14.315
71420W        W30956  26.558  40.304  13.423
71421W        W30957  16.234  34.502   3.314
71422W        W30958  37.355  26.979   1.313
71423W        W30959  17.306   1.250   2.419
71424W        W30960  11.271  23.164   2.282
71425W        W30961  23.092  30.622  13.937
71426W        W30962  37.920  37.990  12.516
71427W        W30963  30.060  35.958  14.512
71428W        W30964  11.172  36.548   2.300
71429W        W30965   1.253  36.946  11.919
71430W        W30966  42.877  25.495  12.458
71431W        W30967  20.091  11.129  13.874
71432W        W30968  25.680  14.767   4.729
71433W        W30969  13.663  41.417   2.222
71434W        W30970  33.465   2.837   3.742
71435W        W30971  11.843  44.774   2.224
71436W        W30972  30.156  39.037   2.894
71437W        W30973  22.676  15.285   1.307
71438W        W30974  31.445   6.863   4.189
71439W        W30975  10.365   2.338  13.337
71440W        W30976  44.819  29.053  14.808
71441W        W30977  35.941  44.961   4.352
71442W        W30978  32.551   5.403  11.374
71443W        W30979   1.400   1.310  14.433
71444W        W30980  38.382  29.648  13.490
71445W        W30981  36.568  35.557   2.782
71446W        W30982  19.627   9.879  10.490
71447W        W30983  14.094  20.585   2.854
71448W        W30984  43.402  39.549  14.344
71449W        W30985  29.969  28.500   1.336
71450W        W30986  24.721  29.461  11.065
71451W        W30987   4.723  31.035   1.243
71452W        W30988  42.815  37.357   9.932
71453W        W30989  29.583  35.877  12.535
71454W        W30990  17.072   2.243  13.987
71455W        W30991  14.600  32.056   2.348
71456W        W30992  42.400  38.967   3.667
71457W        W30993   8.786  27.098   1.241
71458W        W30994   7.796  22.202  12.465
71459W        W30995  35.566   4.811   1.435
71460W        W30996  36.560  21.621  11.923
71461W        W30997  17.099   2.226   2.363
71462W        W30998  13.603  14.606  13.036
71463W        W30999  16.698   8.180  10.984
71464W        W31000   1.842   0.288   2.692
71465W        W31001  16.724  14.182   0.784
71466W        W31002  11.304  18.068  14.514
71467W        W31003  22.031  41.401   4.714
71468W        W31004  33.020   3.879  10.541
71469W        W31005  36.520  21.054   5.307
71470W        W31006  41.795  13.242   0.474
71471W        W31007  36.885  13.842   4.295
71472W        W31008  13.619  19.621   4.625
71473W        W31009  21.562  21.247  12.406
71474W        W31010  36.854  33.434   4.254
71475W        W31011  39.390   9.841  10.554
71476W        W31012  29.945  19.233   4.320
71477W        W31013  24.611  36.582   1.245
71478W        W31014  13.270  24.521   4.704
71479W        W31015   2.251   6.843   3.174
71480W        W31016   2.775  28.113  11.999
71481W        W31017  19.710  19.155  13.499
71482W        W31018  25.040  19.715   0.835
71483W        W31019  24.056  43.985  11.542
71484W        W31020  27.526  11.157  13.884
71485W        W31021  37.564   3.884  10.951
71486W        W31022  30.431   7.880  12.389
71487W        W31023  24.671   9.816   3.336
71488W        W31024  31.590  12.671  12.979
71489W        W31025   8.272   5.339   1.368
71490W        W31026   7.269  22.006  13.482
71491W        W31027   4.944  14.659  14.880
71492W        W31028   6.742  24.712  10.551
71493W        W31029  38.986  43.405  14.869
71494W        W31030  31.059  28.948   3.330
71495W        W31031  44.756  40.523   3.668
71496W        W31032  12.660  36.371  14.904
71497W        W31033  34.510  19.640   0.777
71498W        W31034  25.548  12.677  12.466
71499W        W31035   3.877  35.491   2.750
71500W        W31036  22.055   9.368   1.432
71501W        W31037   5.780  32.957   3.171
71502W        W31038  32.021  37.400   4.608
71503W        W31039  24.522  36.095  13.452
71504W        W31040  20.162   6.273   5.187
71505W        W31041  44.404  22.692   1.861
71506W        W31042  16.636   3.758   2.753
71507W        W31043  36.970  36.396   2.270
71508W        W31044  25.584   7.190  12.510
71509W        W31045  26.628  23.667  11.958
71510W        W31046  16.762   2.945  12.895
71511W        W31047  13.335  44.442   1.250
71512W        W31048  32.011  21.627  11.399
71513W        W31049   8.313  24.115   5.175
71514W        W31050  41.820  42.811  11.964
71515W        W31051  32.890  28.521   4.734
71516W        W31052  25.493   2.435   4.684
71517W        W31053  24.156  29.437   4.634
71518W        W31054   2.379   2.242   4.143
71519W        W31055  24.084   2.745  11.934
71520W        W31056  42.493  37.542  11.046
71521W        W31057  12.809  15.136  12.962
71522W        W31058  11.750   0.335  12.392
71523W        W31059   2.319  29.161  14.889
71524W        W31060   3.824  18.582   1.373
71525W        W31061   5.411  39.006   2.354
71526W        W31062  28.615  34.025   0.481
71527W        W31063  11.322  12.359   2.267
71528W        W31064  18.232  28.995  11.970
71529W        W31065  34.598   7.774   1.298
71530W        W31066  35.908  18.766  13.834
71531W        W31067   4.374  35.108  11.964
71532W        W31068  43.384  23.224   0.905
71533W        W31069   5.244  18.688   4.134
71534W        W31070  16.128   0.791  13.843
71535W        W31071  16.787  17.206   9.983
71536W        W31072  25.081  16.281  11.591
71537W        W31073  18.560   4.307  13.418
71538W        W31074  26.682  22.204  10.980
71539W        W31075  10.192  38.391   3.149
71540W        W31076  16.187  18.612  11.090
71541W        W31077  10.731  29.030   0.906
71542W        W31078  22.566   1.361  12.908
71543W        W31079   3.737  22.550  11.946
71544W        W31080  12.698  13.146  10.992
71545W        W31081  33.908  33.504   0.878
71546W        W31082  39.487  19.204   0.807
71547W        W31083  39.977   1.757   0.900
71548W        W31084  33.044  30.040   2.191
71549W        W31085   9.695  16.810  13.316
71550W        W31086  42.854  37.464   1.905
71551W        W31087  24.493  10.150  13.990
71552W        W31088  34.511  31.110   0.255
71553W        W31089  13.723  13.227   3.376
71554W        W31090   7.885  41.963  13.328
71555W        W31091  40.506  40.952   0.780
71556W        W31092  37.391  37.048   1.890
71557W        W31093  25.673  37.021   2.413
71558W        W31094  44.946  41.942   4.712
71559W        W31095  34.386   8.189  14.882
71560W        W31096  14.282  44.772   2.769
71561W        W31097  37.529  39.915   4.815
71562W        W31098  16.116  24.582  12.512
71563W        W31099  37.028  14.154   1.409
71564W        W31100   6.195  15.660  13.334
71565W        W31101  44.961   2.753  10.942
71566W        W31102  29.058  14.730   1.354
71567W        W31103  33.968  19.140   3.711
71568W        W31104  29.960   6.897  14.395
71569W        W31105   8.184  22.229  12.506
71570W        W31106  18.667  26.102   1.879
71571W        W31107   5.413  42.325   2.369
71572W        W31108  27.505  26.158   1.376
71573W        W31109  12.330   6.871   2.390
71574W        W31110  44.301   1.932   0.391
71575W        W31111   1.919  11.702   0.343
71576W        W31112  41.408  14.298   1.803
71577W        W31113   1.467  31.518  14.943
71578W        W31114   8.235  31.585  14.515
71579W        W31115  23.724   3.278   0.421
71580W        W31116  26.554   9.812  14.785
71581W        W31117  28.163  16.217   3.814
71582W        W31118  38.046  13.272   0.916
71583W        W31119   4.905  26.177  14.978
71584W        W31120  14.307  40.924  12.343
71585W        W31121  35.004  16.188   1.346
71586W        W31122  26.661  11.779   1.751
71587W        W31123  24.060  40.799  13.428
71588W        W31124  30.161  37.912  12.056
71589W        W31125   4.220  39.925  11.077
71590W        W31126  11.283  11.271   1.807
71591W        W31127   1.777  24.508  11.603
71592W        W31128  39.813  31.643   1.232
71593W        W31129  44.003   8.896  10.453
71594W        W31130   9.810  13.710  14.442
71595W        W31131  24.155  16.632  12.994
71596W        W31132   1.243  30.122   4.196
71597W        W31133   6.321  40.946  10.503
71598W        W31134  41.985  11.211   3.757
71599W        W31135  36.983  41.943   2.189
71600W        W31136  29.092  32.505   4.252
71601W        W31137  37.894   6.770   2.834
71602W        W31138  29.445  34.473   0.836
71603W        W31139  35.541  23.172  12.957
71604W        W31140  15.229  26.626   3.860
71605W        W31141   6.896  24.648  10.157
71606W        W31142  23.126  26.127  11.030
71607W        W31143  22.622  21.618   2.728
71608W        W31144  41.809   3.343   1.906
71609W        W31145   9.695  26.028   3.201
71610W        W31146  21.574  23.527  11.539
71611W        W31147  21.202  40.882  11.565
71612W        W31148  13.192  19.767  14.322
71613W        W31149  38.070  30.482  12.024
71614W        W31150  14.288  16.687  13.871
71615W        W31151   7.851  18.277  14.306
71616W        W31152  18.599  34.479   1.907
71617W        W31153  37.562   8.687  13.924
71618W        W31154  43.862   6.763  11.441
71619W        W31155  22.626  18.551   2.781
71620W        W31156  24.167   3.891   0.399
71621W        W31157  22.531   9.839   0.792
71622W        W31158  38.046  42.460  12.493
71623W        W31159  35.588  31.093  14.356
71624W        W31160  17.627  23.639  12.516
71625W        W31161  14.291   7.870  11.983
71626W        W31162  34.370  23.027   3.163
71627W        W31163  37.430  25.633   4.650
71628W        W31164  30.039   9.346  13.049
71629W        W31165  13.680  11.145  11.984
71630W        W31166  14.152   7.295   9.482
71631W        W31167  13.200  36.017   2.284
71632W        W31168  35.879   6.396   1.708
71633W        W31169  29.588  30.919   4.172
71634W        W31170   9.681  29.155  14.766
71635W        W31171  20.243  17.695  14.972
71636W        W31172  14.617  43.817   0.313
71637W        W31173   2.304   4.865  11.611
71638W        W31174   0.380  15.099  14.823
71639W        W31175  29.918  41.918   2.300
71640W        W31176   8.288  10.224   4.308
71641W        W31177   1.844  37.359  13.391
71642W        W31178  41.362  14.163  13.881
71643W        W31179  36.059  14.178   2.184
71644W        W31180  28.572  16.642  10.904
71645W        W31181  24.615  37.508  12.093
71646W        W31182  31.545   3.876  14.341
71647W        W31183  39.818  22.159  10.584
71648W        W31184  28.492  42.830  11.526
71649W        W31185  20.633  12.848   0.879
71650W        W31186  37.567  43.448   0.373
71651W        W31187   5.909  38.923   0.909
71652W        W31188  18.615  33.466   2.766
71653W        W31189  12.350   9.859   0.754
71654W        W31190   1.835  25.113  14.499
71655W        W31191  19.606  15.315   1.884
71656W        W31192  16.210   8.835  11.002
71657W        W31193  11.356  19.629   3.237
71658W        W31194  44.505   1.361   4.690
71659W        W31195  22.191  38.356  13.796
71660W        W31196  35.995  36.403   1.271
71661W        W31197   6.347   5.365  12.007
71662W        W31198  29.442   8.310  12.091
71663W        W31199   1.453  27.970   0.297
71664W        W31200  44.927  34.968   2.794
71665W        W31201  19.147  13.638   1.370
71666W        W31202  42.380   2.733   4.206
71667W        W31203  34.116   3.406   3.631
71668W        W31204  42.455   4.726  13.852
71669W        W31205  14.231  33.503   1.749
71670W        W31206   0.760  44.352  11.945
71671W        W31207  29.992  12.710   1.714
71672W        W31208  36.376   2.732   1.798
71673W        W31209  16.638  33.062  14.847
71674W        W31210   7.734  35.539   1.368
71675W        W31211  19.121   1.414  14.893
71676W        W31212  13.837  23.184   1.224
71677W        W31213  26.022  36.847  11.110
71678W        W31214   9.293   1.925   3.808
71679W        W31215   6.336  14.752  10.992
71680W        W31216  35.930  39.432   0.421
71681W        W31217  11.780   2.822  13.972
71682W        W31218   2.784   3.805  13.972
71683W        W31219  11.757  40.313  13.860
71684W        W31220  34.491  23.154  13.949
71685W        W31221  44.893   0.312  14.466
71686W        W31222  15.730  41.018  14.827
71687W        W31223  10.861  19.694   5.148
71688W        W31224  28.149   6.218  14.331
71689W        W31225  35.565  24.217  11.036
71690W        W31226  16.610   5.247  13.053
71691W        W31227   1.917  39.318   1.723
71692W        W31228  22.040   7.844  12.428
71693W        W31229   5.372   7.305  10.461
71694W        W31230   2.432  18.225   2.878
71695W        W31231   4.865  37.451   4.710
71696W        W31232  35.894  24.098   1.923
71697W        W31233  27.983  12.720   0.278
71698W        W31234  42.454  20.731   4.295
71699W        W31235   1.842  12.853   3.342
71700W        W31236  33.395  18.657  13.313
71701W        W31237   7.287  32.616   0.790
71702W        W31238   7.800  13.232   0.462
71703W        W31239  33.583   3.794  11.461
71704W        W31240  28.077  13.737   1.373
71705W        W31241  14.305  20.707  11.470
71706W        W31242  42.459  20.211  14.816
71707W        W31243  35.497   6.374   4.635
71708W        W31244  22.027  14.792   2.274
71709W        W31245  21.155  15.217   4.244
71710W        W31246  21.089  34.556   4.792
71711W        W31247  16.704  30.031  10.618
71712W        W31248   4.249  15.715  11.397
71713W        W31249  42.807  21.018   0.478
71714W        W31250  44.803  30.570   2.824
71715W        W31251  40.478  16.108   3.846
71716W        W31252   3.251   5.888  11.591
71717W        W31253  27.000  34.052   0.404
71718W        W31254  18.613   5.873   2.828
71719W        W31255  10.309  23.536  13.951
71720W        W31256  37.043  13.248  13.796
71721W        W31257  40.476  43.909  12.001
71722W        W31258  23.686   0.964   4.600
71723W        W31259  30.933   5.274   2.378
71724W        W31260   3.949  39.979   2.343
71725W        W31261  22.713  13.755  14.445
71726W        W31262  19.074  28.528  13.510
71727W        W31263  44.356  10.846  14.277
71728W        W31264  18.650  21.178  11.990
71729W        W31265  32.934  42.021   4.284
71730W        W31266   4.420  26.160  12.575
71731W        W31267   9.220   4.284   4.749
71732W        W31268  26.520  34.428  10.041
71733W        W31269  14.630  22.504   2.664
71734W        W31270  28.099  37.913   2.189
71735W        W31271  43.822  21.614  13.902
71736W        W31272  34.986   5.273   0.408
71737W        W31273  20.044  44.408   4.348
71738W        W31274  37.559   6.364   2.778
71739W        W31275   3.848  33.569   1.752
71740W        W31276  37.083  14.323   4.242
71741W        W31277  19.537  39.527  11.558
71742W        W31278   6.329  21.646   0.769
71743W        W31279  20.625  37.571  11.576
71744W        W31280  21.209   8.781   2.386
71745W        W31281   6.778  27.127  14.889
71746W        W31282  31.914  23.100  13.425
71747W        W31283  38.034  15.784  11.078
71748W        W31284  19.601   9.668  11.016
71749W        W31285  35.891  44.858   3.238
71750W        W31286  38.407  24.193  12.556
71751W        W31287  21.224   6.798  12.355
71752W        W31288  10.332  29.149  12.490
71753W        W31289  16.103  24.694   4.757
71754W        W31290  41.307  16.102  14.800
71755W        W31291  27.111  34.440   3.272
71756W        W31292  43.833  21.196   4.788
71757W        W31293  34.991   9.877   4.681
71758W        W31294   3.448  36.907  10.437
71759W        W31295  40.964  11.719   1.824
71760W        W31296  10.143  19.060  11.082
71761W        W31297  33.934   2.781  11.117
71762W        W31298  15.775  37.407   2.397
71763W        W31299   9.325  31.134  11.943
71764W        W31300  16.682  44.890  11.501
71765W        W31301  18.104  37.001  10.441
71766W        W31302   3.305  33.561  14.372
71767W        W31303   6.273  28.646   4.634
71768W        W31304  11.360  21.263   1.883
71769W        W31305  33.530  22.657   2.247
71770W        W31306  15.645  15.780   4.696
71771W        W31307   9.219   4.301   2.735
71772W        W31308  43.394  34.088   4.678
71773W        W31309  35.057  26.175  14.794
71774W        W31310  27.983  42.875  12.568
71775W        W31311   0.982  44.459   0.312
71776W        W31312  10.308   1.816   4.619
71777W        W31313  14.324   8.383   1.325
71778W        W31314  23.566  14.163   1.250
71779W        W31315  42.976  34.963   1.849
71780W        W31316  42.915  32.098  12.935
71781W        W31317  29.628  32.435  11.415
71782W        W31318  11.213  27.524  11.039
71783W        W31319   3.795  35.914   5.202
71784W        W31320   5.330  20.220  10.929
71785W        W31321   2.769  33.450   0.420
71786W        W31322  25.576  10.681  12.393
71787W        W31323   9.192  31.612  11.056
71788W        W31324  34.911  40.960   3.685
71789W        W31325  28.164  15.667  12.425
71790W        W31326  19.238  28.657  10.554
71791W        W31327   6.397   7.742   5.261
71792W        W31328   0.492  11.297  14.311
71793W        W31329  29.524  32.519   0.780
71794W        W31330  44.356  31.575   2.367
71795W        W31331  20.206   3.940  14.352
71796W        W31332  12.617  15.727  12.459
71797W        W31333  22.115   3.954  14.481
71798W        W31334  36.965  16.679  14.915
71799W        W31335  21.748  31.933  13.460
71800W        W31336  41.459  31.903   1.871
71801W        W31337  13.763   7.845  10.150
71802W        W31338  14.285  31.600   3.800
71803W        W31339  12.130  24.119   4.220
71804W        W31340  36.453  15.798  10.411
71805W        W31341   4.330  18.661  13.018
71806W        W31342  30.087  26.569  14.025
71807W        W31343  34.570  20.665  10.409
71808W        W31344  41.890  17.206   2.193
71809W        W31345  40.401  36.969  13.901
71810W        W31346  44.819  23.112   4.185
71811W        W31347  28.128  24.671   4.626
71812W        W31348  19.717  43.871   3.355
71813W        W31349   8.853  29.602  14.403
71814W        W31350  23.224  33.002  14.506
71815W        W31351  35.094  17.767  10.628
71816W        W31352  36.074  25.150   1.333
71817W        W31353  13.733  18.082   2.802
71818W        W31354   0.294   9.336  13.038
71819W        W31355  25.055  18.584  12.412
71820W        W31356  19.600  34.946   2.891
71821W        W31357  17.714  42.432  10.998
71822W        W31358  33.063  23.685  14.290
71823W        W31359  10.655  32.616   4.637
71824W        W31360  35.865   5.907   3.292
71825W        W31361  39.517  42.993   4.167
71826W        W31362  11.256   1.898  13.328
71827W        W31363  41.358  24.217  14.838
71828W        W31364  36.449  26.560  13.014
71829W        W31365  38.570   9.887  12.390
71830W        W31366  21.076  40.478   3.198
71831W        W31367  31.968  17.130   4.792
71832W        W31368  20.241   2.945   1.805
71833W        W31369  19.179  16.793  11.474
71834W        W31370  37.457  28.092   3.678
71835W        W31371  11.192   7.316  11.510
71836W        W31372  39.016  41.882  11.524
71837W        W31373  42.928  10.377   3.272
71838W        W31374  11.773  36.593  14.284
71839W        W31375  23.685  29.089  13.918
71840W        W31376  33.875  35.532   1.214
71841W        W31377  28.983  19.138   0.346
71842W        W31378  29.538  25.028  14.939
71843W        W31379  21.709  29.551  12.456
71844W        W31380  38.052  25.197  11.481
71845W        W31381   5.375  14.798   1.435
71846W        W31382   3.238  13.835   1.758
71847W        W31383  21.263   7.348  12.503
71848W        W31384  18.731  19.094   2.888
71849W        W31385   6.220  34.888  13.417
71850W        W31386  11.829  37.058  10.635
71851W        W31387  13.600  32.483  11.497
71852W        W31388   6.314   0.447   3.165
71853W        W31389  40.352  12.269   2.697
71854W        W31390  17.611  33.548   0.833
71855W        W31391  23.691  26.997  11.974
71856W        W31392  33.521  23.162  12.005
71857W        W31393   8.405  35.892   2.274
71858W        W31394  20.743  20.030  14.275
71859W        W31395  32.428  31.453  10.514
71860W        W31396  44.344   4.367  11.120
71861W        W31397  40.043   1.756  13.484
71862W        W31398  42.890   5.757   0.304
71863W        W31399  26.094   2.472  11.466
71864W        W31400  41.935  11.784   1.773
71865W        W31401  22.734  41.371   2.759
71866W        W31402  31.645  44.898   2.202
71867W        W31403  23.704  35.548  13.327
71868W        W31404  34.983  21.711  10.921
71869W        W31405  32.013  26.041   1.436
71870W        W31406  30.533   9.684   0.882
71871W        W31407  29.640  43.305   2.845
71872W        W31408   2.833  40.849  11.009
71873W        W31409  14.750  25.190   5.167
71874W        W31410  19.093  18.780   1.835
71875W        W31411  16.808  43.283  12.982
71876W        W31412   5.891  23.704  13.422
71877W        W31413  33.939  23.575  13.972
71878W        W31414   5.363  40.358   0.731
71879W        W31415  38.072  36.988  14.774
71880W        W31416  35.088   1.273  14.984
71881W        W31417  31.966  10.874   3.387
71882W        W31418  11.197  17.241   1.363
71883W        W31419   1.844  13.256   4.194
71884W        W31420   4.850  14.137  11.479
71885W        W31421  13.335  10.652  12.344
71886W        W31422  23.100  10.732   4.284
71887W        W31423  11.225  11.866  12.529
71888W        W31424  37.388   4.803  12.440
71889W        W31425  32.101   5.816  12.912
71890W        W31426  11.231  19.047  12.893
71891W        W31427  27.548  39.344  13.505
71892W        W31428  35.946   8.732   2.662
71893W        W31429  42.299   0.773   3.208
71894W        W31430  29.051   1.838  14.320
71895W        W31431  34.992  33.934  11.942
71896W        W31432  19.695   8.339   4.761
71897W        W31433   0.793  17.658  11.533
71898W        W31434   5.747  26.016   0.787
71899W        W31435  40.376  14.630  14.918
71900W        W31436  31.142  35.491  12.957
71901W        W31437  41.474  20.554   4.691
71902W        W31438   3.376   0.316   0.412
71903W        W31439  42.516   3.836   3.706
71904W        W31440  19.643  26.000   1.883
71905W        W31441  14.830   2.342   2.390
71906W        W31442  23.123  11.841  11.397
71907W        W31443   0.256  14.792  14.891
71908W        W31444  33.064  11.765   0.320
71909W        W31445  17.715  25.525   2.315
71910W        W31446  26.976  33.071  14.492
71911W        W31447  11.225   4.885   3.741
71912W        W31448   7.188  34.490  10.612
71913W        W31449  11.200  41.424  12.407
71914W        W31450  30.063  44.325   1.229
71915W        W31451  10.698  37.060   3.348
71916W        W31452  42.866  30.131   4.744
71917W        W31453   7.858   9.820  14.428
71918W        W31454   2.411  20.187  13.914
71919W        W31455   9.393   5.266   0.788
71920W        W31456  36.987  18.072   3.365
71921W        W31457  26.030   9.683  12.053
71922W        W31458  17.061   2.274  12.086
71923W        W31459  22.595  14.716  11.054
71924W        W31460  41.500  36.554  12.567
71925W        W31461  24.027  32.084   5.195
71926W        W31462   4.313  39.484   2.266
71927W        W31463  28.974  25.582   1.378
71928W        W31464   9.365  10.374  13.896
71929W        W31465   1.735  43.302   2.740
71930W        W31466  40.835  17.783   0.957
71931W        W31467  29.128   7.318  14.990
71932W        W31468  18.252  16.690   3.355
71933W        W31469  13.350  27.051   2.762
71934W        W31470  11.809  43.375  13.956
71935W        W31471  11.705  37.431   5.308
71936W        W31472  24.024  27.104  14.317
71937W        W31473  32.989  29.022   0.944
71938W        W31474  40.954  28.640  11.387
71939W        W31475  38.963   5.225  10.979
71940W        W31476  39.870   5.734  12.516
71941W        W31477  28.137   3.251  11.989
71942W        W31478   7.676  14.133  14.897
71943W        W31479  16.749  22.086   0.334
71944W        W31480  26.184  16.278  14.022
71945W        W31481  16.216  19.184  14.783
71946W        W31482  27.477   1.791   0.441
71947W        W31483   2.238  21.511  12.906
71948W        W31484   8.672   2.370   5.102
71949W        W31485  42.515  16.231   2.850
71950W        W31486  20.710  36.570  14.454
71951W        W31487   6.301  14.121  12.894
71952W        W31488   7.849  43.340  13.391
71953W        W31489  24.132   3.242  12.909
71954W        W31490   9.743   1.874  11.932
71955W        W31491  14.649  33.564  11.940
71956W        W31492  33.445  38.910   1.351
71957W        W31493  42.849  32.619   3.688
71958W        W31494  18.761  35.553   0.383
71959W        W31495   7.697   7.296  14.326
71960W        W31496  38.042  19.044  14.460
71961W        W31497  20.113   0.399   1.235
71962W        W31498  20.589  28.034  12.569
71963W        W31499   5.366  21.665   4.319
71964W        W31500  36.388  15.757   0.837
71965W        W31501  29.975  42.779  13.058
71966W        W31502  35.591  33.549   2.225
71967W        W31503  20.196  13.334  13.391
71968W        W31504   3.281  15.258  11.522
71969W        W31505  29.087  13.689  12.397
71970W        W31506  30.107  25.976  12.928
71971W        W31507  43.979   6.206  13.379
71972W        W31508   9.195  29.169   1.432
71973W        W31509  23.580  11.261   3.219
71974W        W31510  13.116  40.322  10.916
71975W        W31511  12.695  29.047  10.413
71976W        W31512  30.505  35.038  12.577
71977W        W31513  34.875  44.832   9.996
71978W        W31514  27.160  30.597   5.252
71979W        W31515  43.765   0.392  12.000
71980W        W31516   0.456  19.209  11.436
71981W        W31517  39.009   3.814  13.319
71982W        W31518  42.015  38.438   0.298
71983W        W31519  42.301  16.621   4.319
71984W        W31520  29.445   7.683  13.430
71985W        W31521  26.692  28.029  13.391
71986W        W31522  38.358  10.357  12.531
71987W        W31523  36.045  19.278   3.649
71988W        W31524  11.141  17.794   4.682
71989W        W31525  24.520  25.099   3.340
71990W        W31526  40.824  35.444   1.771
71991W        W31527  11.133  18.759   3.208
71992W        W31528  22.184  28.585  12.053
71993W        W31529  18.092  31.555   0.353
71994W        W31530  14.599  26.096  14.332
71995W        W31531  35.591  26.464  11.951
71996W        W31532  43.859  13.808   5.258
71997W        W31533  23.166  43.494  13.440
71998W        W31534  25.203  14.139  10.893
71999W        W31535  41.842  36.963   0.339
72000W        W31536  27.127  43.281  10.515
72001W        W31537  12.279  15.702   2.828
72002W        W31538   5.321  32.927  14.894
72003W        W31539  35.568   4.884   5.237
72004W        W31540  11.153  37.468   1.342
72005W        W31541  32.063   1.758   0.414
72006W        W31542  24.094  17.129  12.086
72007W        W31543  22.554  43.468   4.119
72008W        W31544  21.096  22.556  11.027
72009W        W31545  17.264  39.912  10.156
72010W        W31546   4.237   4.442  14.335
72011W        W31547   6.393   8.168   2.333
72012W        W31548   6.234  31.642  12.894
72013W        W31549  40.804  13.232   2.751
72014W        W31550  43.351  26.690  12.485
72015W        W31551  37.509  38.349   3.231
72016W        W31552  43.823  21.521  12.475
72017W        W31553  16.737   1.915   2.257
72018W        W31554  11.234  13.204   1.219
72019W        W31555  24.709   1.412  11.420
72020W        W31556  39.836  27.057   3.277
72021W        W31557   2.428  21.088   0.947
72022W        W31558   6.773   1.811  14.943
72023W        W31559  38.470  33.553  10.587
72024W        W31560   1.374  35.465  13.334
72025W        W31561  26.621  35.506   3.255
72026W        W31562  41.905  44.378  11.965
72027W        W31563  28.990  43.311   4.631
72028W        W31564  27.944   0.296  13.360
72029W        W31565  38.999  36.466  11.398
72030W        W31566  21.724  41.869  11.533
72031W        W31567   9.645   1.741   0.781
72032W        W31568  23.733  25.121   3.731
72033W        W31569  20.259  18.069  14.950
72034W        W31570   9.807  27.089  10.452
72035W        W31571   4.418  11.849   3.209
72036W        W31572  24.208  34.863   0.388
72037W        W31573   0.300  41.845   1.934
72038W        W31574  42.511  10.339  10.906
72039W        W31575   7.334  38.341   4.825
72040W        W31576   3.416   9.838  14.410
72041W        W31577   4.245  34.422  11.994
72042W        W31578   2.380  21.684  14.902
72043W        W31579  15.658  24.096   1.225
72044W        W31580  24.630  43.457  11.087
72045W        W31581   1.306  37.452   3.375
72046W        W31582  17.769  24.223  12.019
72047W        W31583  41.820  29.537  14.317
72048W        W31584  41.863  23.624   2.743
72049W        W31585  21.599  21.608   2.686
72050W        W31586  17.268  31.619  13.011
72051W        W31587  38.069  26.180   0.417
72052W        W31588  14.300   7.313   4.718
72053W        W31589  11.810   8.890   2.323
72054W        W31590  38.975  26.568   0.869
72055W        W31591  41.821  18.247   0.751
72056W        W31592  44.932  37.407  12.008
72057W        W31593  39.946  26.998  14.825
72058W        W31594   6.763  40.884  12.380
72059W        W31595  44.794   5.697  13.835
72060W        W31596  40.805   3.257   2.402
72061W        W31597   2.350  44.359   4.777
72062W        W31598  19.271   0.888  14.498
72063W        W31599  27.583   6.790  10.528
72064W        W31600  39.872  35.029  14.031
72065W        W31601  11.643  15.168   1.916
72066W        W31602  33.893  31.121  13.839
72067W        W31603  44.375  22.177   4.265
72068W        W31604  32.915  32.463  10.644
72069W        W31605  19.250  21.591   1.848
72070W        W31606  40.334  12.348   3.303
72071W        W31607  20.229  42.863  10.089
72072W        W31608  24.661  42.514   1.211
72073W        W31609  40.003  22.649   3.349
72074W        W31610  24.532   7.671   5.773
72075W        W31611  23.039   2.331  11.392
72076W        W31612  29.993  32.978  12.850
72077W        W31613  20.604  12.696   2.760
72078W        W31614  29.954  29.622  14.989
72079W        W31615  42.789  38.475  12.865
72080W        W31616  28.456  36.506   4.182
72081W        W31617  15.182  25.675  13.440
72082W        W31618  19.087   3.248   2.314
72083W        W31619  32.137  34.081   4.623
72084W        W31620   4.736   8.320  14.307
72085W        W31621  35.562  22.511  10.523
72086W        W31622  28.155  16.736  11.452
72087W        W31623   6.240   5.758  13.543
72088W        W31624  36.403  34.398  10.970
72089W        W31625  41.836  12.664   3.227
72090W        W31626  29.554   1.917  13.810
72091W        W31627  18.635  37.523   1.327
72092W        W31628   8.794  32.895   0.277
72093W        W31629  21.611   9.314   1.424
72094W        W31630   6.213  41.354  11.514
72095W        W31631   9.172  32.534  10.491
72096W        W31632   7.390  42.492   3.226
72097W        W31633  26.016  12.745   4.730
72098W        W31634  10.237  29.938  10.005
72099W        W31635  18.752  10.876   0.436
72100W        W31636  34.467  28.672  11.030
72101W        W31637  21.097  12.131  11.026
72102W        W31638  17.702  41.818  13.430
72103W        W31639   7.294  40.931  10.638
72104W        W31640  24.078  33.495  13.059
72105W        W31641  17.625  29.064  12.980
72106W        W31642  14.203  42.460   3.194
72107W        W31643  10.807   2.408  12.084
72108W        W31644  23.672  13.149  12.868
72109W        W31645  31.116  11.771   3.153
72110W        W31646  11.344  34.985   1.408
72111W        W31647  33.914  10.300   4.666
72112W        W31648  32.114  24.059   5.240
72113W        W31649  41.824  34.054   0.790
72114W        W31650  11.860  34.055   1.249
72115W        W31651   9.332  38.990   0.369
72116W        W31652   0.411  39.369  11.054
72117W        W31653   8.162  17.792   3.269
72118W        W31654  20.575  17.734   1.242
72119W        W31655  11.774  27.976  13.942
72120W        W31656  42.865  27.048  12.019
72121W        W31657  29.989  28.116  12.920
72122W        W31658  36.561  34.047   1.730
72123W        W31659   7.326   8.305  13.539
72124W        W31660  43.338  33.919   2.343
72125W        W31661  37.347  30.994  12.886
72126W        W31662  18.155  27.485   3.267
72127W        W31663  39.824  44.479  13.335
72128W        W31664  18.264   5.293  11.991
72129W        W31665  16.668  15.786  10.500
72130W        W31666  30.597   1.337   0.263
72131W        W31667  27.449  30.649   4.116
72132W        W31668  34.544  24.598   1.876
72133W        W31669   6.297   2.837  14.515
72134W        W31670  21.566  17.607   9.512
72135W        W31671  31.588  37.425   3.676
72136W        W31672  28.604  33.115  10.522
72137W        W31673  44.816   8.181  10.461
72138W        W31674  24.174  44.882   3.357
72139W        W31675  19.605   2.417   3.754
72140W        W31676  24.611  17.723   3.375
72141W        W31677   5.908  10.649  10.898
72142W        W31678   8.863  17.721  12.379
72143W        W31679  28.026  29.015   1.412
72144W        W31680  25.093  42.953   1.921
72145W        W31681   1.947  24.227   4.224
72146W        W31682   5.302  40.365  14.774
72147W        W31683  17.681  44.365  13.969
72148W        W31684   0.951  37.485  10.476
72149W        W31685  23.196  21.161   4.147
72150W        W31686   7.412  24.621  13.448
72151W        W31687  20.614  35.865   2.180
72152W        W31688  31.929   8.283  13.908
72153W        W31689  22.009  37.886   2.803
72154W        W31690   1.951  40.506   2.695
72155W        W31691  16.695   1.324  13.497
72156W        W31692  25.139  29.926  11.430
72157W        W31693   1.886  10.861  12.561
72158W        W31694  38.384  44.809   0.822
72159W        W31695  24.100   4.347  14.950
72160W        W31696  40.039  10.702   2.671
72161W        W31697  40.986  24.610   0.810
72162W        W31698  44.366  16.236   2.774
72163W        W31699  35.864  12.730  14.873
72164W        W31700   9.278   8.733  10.481
72165W        W31701   0.478   6.258   2.408
72166W        W31702  26.527  37.482   3.822
72167W        W31703  14.300  14.807   4.615
72168W        W31704  30.430  44.394   2.666
72169W        W31705  22.107   6.289  12.924
72170W        W31706  23.207  28.434   2.272
72171W        W31707  22.115   7.274   3.279
72172W        W31708  24.978  18.558  13.926
72173W        W31709  35.886  44.501  10.418
72174W        W31710   0.889  12.795   3.355
72175W        W31711  15.194  12.184  13.348
72176W        W31712  31.625  13.219  14.481
72177W        W31713  34.120   2.441   4.149
72178W        W31714  13.185  27.627  11.010
72179W        W31715  10.263  28.946   1.714
72180W        W31716  12.146  14.632  10.616
72181W        W31717  14.174  37.004   4.157
72182W        W31718  18.602  30.538  14.488
72183W        W31719  24.015  26.186  11.396
72184W        W31720  38.953  10.692  12.966
72185W        W31721  13.762  42.934  13.323
72186W        W31722  17.187   9.813   4.743
72187W        W31723  41.938  23.014   3.765
72188W        W31724  41.395  35.579  12.019
72189W        W31725   7.693  37.520   4.169
72190W        W31726  20.572  27.562  12.447
72191W        W31727  43.385  40.504  11.915
72192W        W31728  38.497  30.998   3.347
72193W        W31729  30.516  37.831  13.522
72194W        W31730  32.133  39.053   0.797
72195W        W31731   6.279  32.573  14.366
72196W        W31732   6.871  12.159   2.835
72197W        W31733  39.925  25.553   3.633
72198W        W31734  28.142  33.945   0.829
72199W        W31735  43.974  44.825  13.993
72200W        W31736  26.674  14.246   2.217
72201W        W31737  16.633   5.365   0.408
72202W        W31738   0.460  32.605   1.290
72203W        W31739  18.650   3.733   1.398
72204W        W31740  12.669   2.958  13.902
72205W        W31741   0.912   8.711  13.478
72206W        W31742  37.427  35.430   0.882
72207W        W31743  40.548  22.695   4.191
72208W        W31744  28.532  27.990   0.896
72209W        W31745  30.555  25.714   2.720
72210W        W31746  11.834  11.284   1.443
72211W        W31747  18.138  41.366   4.829
72212W        W31748  37.528  38.375   4.219
72213W        W31749  20.539  19.638  14.509
72214W        W31750  34.955  36.515  13.984
72215W        W31751  18.553  44.326  10.894
72216W        W31752   5.231  14.245   0.733
72217W        W31753  39.006  37.940   1.227
72218W        W31754   3.946  25.133   9.459
72219W        W31755  35.033   8.375  10.549
72220W        W31756  14.769   4.838   2.199
72221W        W31757  38.943  43.946  13.806
72222W        W31758   7.250  27.687   0.801
72223W        W31759  40.498   0.387   1.774
72224W        W31760  41.406  33.554  12.076
72225W        W31761   6.899   0.952  13.350
72226W        W31762  15.761   5.357   2.726
72227W        W31763   2.899  32.516  12.086
72228W        W31764  36.417  25.051  14.807
72229W        W31765  31.028  17.790  11.933
72230W        W31766  44.406  28.483  12.961
72231W        W31767  44.920   2.304  10.936
72232W        W31768  44.410  37.972   4.736
72233W        W31769  30.084  31.117   1.761
72234W        W31770   6.253   7.864  12.970
72235W        W31771  39.824  14.770   3.256
72236W        W31772  13.260  12.704  10.891
72237W        W31773  39.449  44.289   2.682
72238W        W31774  13.747  23.608  12.559
72239W        W31775   3.846  40.938   4.169
72240W        W31776  11.661   9.372  10.467
72241W        W31777  12.856  29.003  12.083
72242W        W31778  13.210  22.231   2.414
72243W        W31779   3.382  43.303   2.816
72244W        W31780  24.098  40.492  12.937
72245W        W31781  10.844  33.980  10.958
72246W        W31782  44.345  33.032  13.812
72247W        W31783  30.105  25.202  14.932
72248W        W31784  25.514  20.212   4.785
72249W        W31785   2.235  10.806   0.760
72250W        W31786   8.296  32.579   2.788
72251W        W31787  24.504  43.515   4.176
72252W        W31788  29.656   8.302  11.453
72253W        W31789  25.035   6.400  12.467
72254W        W31790   6.317  36.860  14.393
72255W        W31791  16.652   2.326   1.448
72256W        W31792  34.506  27.496   2.673
72257W        W31793  20.668  34.374  10.426
72258W        W31794   3.787   8.230   0.446
72259W        W31795  29.999  26.176   5.665
72260W        W31796  38.913  19.621  10.148
72261W        W31797  19.274  34.446  13.975
72262W        W31798   7.888  26.207   1.392
72263W        W31799  34.105  37.910   4.205
72264W        W31800  29.462  38.959  12.352
72265W        W31801  26.603  35.396  13.369
72266W        W31802  33.463   0.402  14.406
72267W        W31803  15.195  28.447   0.433
72268W        W31804   8.195  40.933  12.925
72269W        W31805  33.619  20.102  13.793
72270W        W31806  22.123  33.418   4.790
72271W        W31807  10.870  17.061   4.830
72272W        W31808   2.266  10.198  11.603
72273W        W31809  30.436   8.874  14.454
72274W        W31810  35.054  21.526  14.986
72275W        W31811  10.345  32.593   4.706
72276W        W31812   0.454   5.694  12.563
72277W        W31813  34.476  44.809   4.195
72278W        W31814  41.999   0.353  11.481
72279W        W31815   7.282  21.735   4.618
72280W        W31816  21.548  14.712  11.887
72281W        W31817  21.591  38.050   1.922
72282W        W31818   8.670  33.914   1.337
72283W        W31819  19.639  23.066  13.928
72284W        W31820  16.154  19.203   4.305
72285W        W31821   9.698  22.569   2.886
72286W        W31822  28.939  34.971   1.749
72287W        W31823  38.897   5.207  13.858
72288W        W31824  21.526  15.743   4.772
72289W        W31825  34.962  20.589  13.939
72290W        W31826  31.628  22.684  12.043
72291W        W31827  14.785  28.966   1.735
72292W        W31828   5.779  13.351  14.907
72293W        W31829  42.972  30.140  10.956
72294W        W31830  25.133  43.408  11.096
72295W        W31831  29.471  43.490   4.187
72296W        W31832   7.749   7.177  10.560
72297W        W31833  44.332  16.639   1.395
72298W        W31834   1.242  40.543  11.512
72299W        W31835  39.530   2.816  13.812
72300W        W31836  22.583  11.255   3.343
72301W        W31837  27.483  42.326   2.191
72302W        W31838   7.322  33.408  12.016
72303W        W31839  23.570  42.452  12.883
72304W        W31840  34.454  36.002  10.430
72305W        W31841  12.628   9.353   4.739
72306W        W31842  44.787  27.550   4.695
72307W        W31843   2.922  37.455  10.474
72308W        W31844  44.974  13.764   0.832
72309W        W31845  30.029   8.236  13.320
72310W        W31846  10.347  11.851  12.434
72311W        W31847  41.381  18.148   0.441
72312W        W31848   0.910  12.788   3.682
72313W        W31849  32.138  31.017  14.393
72314W        W31850   2.421  40.975   4.289
72315W        W31851  36.021  33.537   1.934
72316W        W31852  36.413  30.971   0.924
72317W        W31853  14.831  11.626   3.747
72318W        W31854  37.550  26.178   0.915
72319W        W31855  26.964   1.916   1.762
72320W        W31856  38.989  44.399   0.925
72321W        W31857   9.791  16.307   1.838
72322W        W31858  35.494   0.880   3.384
72323W        W31859  37.054   4.332   4.650
72324W        W31860   3.430  41.819  14.445
72325W        W31861  13.607  42.928   2.287
72326W        W31862  33.131  13.714  13.489
72327W        W31863  24.013   0.290   0.405
72328W        W31864  31.942  41.387  11.461
72329W        W31865  40.419  17.305   4.815
72330W        W31866  34.955  35.509  14.432
72331W        W31867   4.736  28.973  11.552
72332W        W31868  30.424  37.382  14.003
72333W        W31869  36.035   5.299  12.906
72334W        W31870   0.820  30.924  13.920
72335W        W31871  26.175  20.580   9.967
72336W        W31872  11.835  30.028   0.730
72337W        W31873  19.109  37.508  11.478
72338W        W31874  13.622   5.256   4.209
72339W        W31875  22.608  20.609   2.813
72340W        W31876   8.262   3.752  11.976
72341W        W31877  11.838  20.537   1.217
72342W        W31878  25.122  13.273  13.320
72343W        W31879   5.194  41.977  13.911
72344W        W31880   2.253   6.704  10.479
72345W        W31881   1.390   4.270   0.816
72346W        W31882   4.836  16.782  11.083
72347W        W31883  39.912   9.817   4.641
72348W        W31884  42.946   1.375   2.183
72349W        W31885  31.499   5.864  11.449
72350W        W31886  12.777  20.247   2.879
72351W        W31887  32.524  40.041   1.875
72352W        W31888  18.278  11.237  13.373
72353W        W31889  28.149   4.323  11.915
72354W        W31890  29.096   6.426  12.860
72355W        W31891  33.020  35.417  12.997
72356W        W31892  42.285  11.311  10.634
72357W        W31893   3.283  19.236  11.904
72358W        W31894  33.111  39.028   1.714
72359W        W31895   5.894  31.472   1.210
72360W        W31896  11.739  37.523  10.010
72361W        W31897   1.391  18.162   4.136
72362W        W31898   9.155  28.506  12.880
72363W        W31899  27.944  21.674   1.390
72364W        W31900  11.319  10.375  11.563
72365W        W31901  17.576   0.457   0.824
72366W        W31902  20.037  31.914  11.504
72367W        W31903  18.591  42.484   2.776
72368W        W31904  38.065  40.893   1.778
72369W        W31905  41.802  14.791   0.348
72370W        W31906   2.398  17.627   0.408
72371W        W31907  16.265  22.094   3.302
72372W        W31908  41.347  36.426  13.514
72373W        W31909  27.506  18.553   0.810
72374W        W31910   4.330  28.587  12.524
72375W        W31911  15.792  29.480   0.911
72376W        W31912   0.327  19.111   2.392
72377W        W31913  31.065  42.811   0.445
72378W        W31914  26.665   6.830  13.445
72379W        W31915   2.448  40.033   1.420
72380W        W31916  19.251  41.489   4.345
72381W        W31917   7.868  22.662   4.706
72382W        W31918  23.567  11.343  12.480
72383W        W31919   3.231   0.907   2.738
72384W        W31920  16.662  16.151   3.673
72385W        W31921  22.142   7.807   4.262
72386W        W31922  26.649  26.518   0.372
72387W        W31923  24.003  36.987   2.677
72388W        W31924   5.853  31.900  14.384
72389W        W31925  31.104  24.708   4.293
72390W        W31926   2.332  11.146  10.152
72391W        W31927  20.537  23.522   1.225
72392W        W31928  36.905  43.989   4.775
72393W        W31929  31.442  40.875   0.370
72394W        W31930  44.889   8.301   1.734
72395W        W31931  36.592   5.791  13.926
72396W        W31932  42.480  23.134  13.933
72397W        W31933  27.498  43.466   0.794
72398W        W31934  28.124  25.996   0.266
72399W        W31935  34.394  25.198   2.386
72400W        W31936  11.774  20.080  14.295
72401W        W31937  23.108  13.667   1.810
72402W        W31938   9.250  26.592   2.704
72403W        W31939   2.285  13.128   4.792
72404W        W31940   9.816  11.288  11.528
72405W        W31941   7.324   0.309  11.991
72406W        W31942  34.088  21.019   0.787
72407W        W31943   2.957  32.131  12.834
72408W        W31944  40.888  27.162   0.252
72409W        W31945  26.602   7.348   3.338
72410W        W31946  42.482  23.074  12.063
72411W        W31947  12.749  44.943  12.995
72412W        W31948  17.631  34.120   3.348
72413W        W31949  20.559  29.098  13.860
72414W        W31950  26.557  14.775  12.085
72415W        W31951  21.026  23.991  12.001
72416W        W31952   1.255   0.890  14.921
72417W        W31953  26.969  21.741  11.506
72418W        W31954   7.357  19.603  12.394
72419W        W31955  30.446   9.344  14.984
72420W        W31956  29.614   1.295   0.887
72421W        W31957  27.468  17.301   4.757
72422W        W31958  18.073  44.774   3.256
72423W        W31959   0.352  33.911  12.466
72424W        W31960  23.641  33.935   0.939
72425W        W31961  14.650  43.477   4.234
72426W        W31962  22.547  42.435   2.267
72427W        W31963  17.281  10.853   4.125
72428W        W31964  33.044  21.606  10.944
72429W        W31965  27.595  38.073  12.890
72430W        W31966  38.036   0.320   1.420
72431W        W31967   8.859   0.278   0.380
72432W        W31968  42.936  35.036  13.846
72433W        W31969   8.657   4.730  13.929
72434W        W31970  15.106  15.578   1.738
72435W        W31971  10.649  10.696   1.919
72436W        W31972  15.774  22.173   0.260
72437W        W31973  18.620  12.685   1.707
72438W        W31974  25.049  27.196   3.202
72439W        W31975  43.389   2.271  14.495
72440W        W31976  39.490   3.232  10.531
72441W        W31977  14.273   0.973   3.191
72442W        W31978   0.375  15.626   4.215
72443W        W31979   1.261  41.450  13.816
72444W        W31980  18.687  29.048  13.432
72445W        W31981  44.853  32.019  13.401
72446W        W31982   4.815  42.850  10.946
72447W        W31983  21.536   3.799   1.343
72448W        W31984  14.212  22.250   2.746
72449W        W31985  20.600  43.942  13.325
72450W        W31986  31.577  32.483  12.940
72451W        W31987  27.084  10.760  13.829
72452W        W31988  39.452  13.762  14.497
72453W        W31989   5.255  12.741   1.296
72454W        W31990   9.345   2.367   2.903
72455W        W31991  43.921  31.024   4.717
72456W        W31992  38.522  41.024  12.833
72457W        W31993  38.835  11.631  14.867
72458W        W31994  30.985  14.299   1.266
72459W        W31995  34.430  13.222   2.788
72460W        W31996  40.322  43.776  10.988
72461W        W31997   5.894  37.336  10.573
72462W        W31998   7.329  21.641   2.355
72463W        W31999   5.855  35.999   3.693
72464W        W32000  19.572  14.729  11.449
72465W        W32001   1.462   8.177   1.236
72466W        W32002  12.813  12.762  13.468
72467W        W32003  28.121  20.589   4.739
72468W        W32004  31.576  21.239   1.756
72469W        W32005  30.088  25.184  11.970
72470W        W32006  29.130  30.050   4.349
72471W        W32007   6.803  19.208  14.354
72472W        W32008  22.046  18.268  11.375
72473W        W32009   0.466  17.214   3.226
72474W        W32010   3.355  28.131   4.129
72475W        W32011  42.284  17.092   2.774
72476W        W32012  40.336  10.251  10.004
72477W        W32013  36.905  20.631  13.397
72478W        W32014   6.338  10.372  10.130
72479W        W32015   8.374   2.897   3.662
72480W        W32016  11.652  28.443  11.865
72481W        W32017   2.389  38.924   3.386
72482W        W32018  19.196  44.335   0.727
72483W        W32019  33.492  31.500   3.871
72484W        W32020  39.335  20.709   3.375
72485W        W32021  30.071   9.368  13.401
72486W        W32022  37.567  24.051   1.741
72487W        W32023  34.080   4.829   1.433
72488W        W32024  38.364  21.154  12.551
72489W        W32025  26.135  15.084  13.381
72490W        W32026  12.644  29.451   3.631
72491W        W32027  27.547  11.237  10.409
72492W        W32028  11.707  35.079   2.836
72493W        W32029  20.603  24.174  11.495
72494W        W32030  40.536  10.288  14.326
72495W        W32031  13.127  44.810  10.541
72496W        W32032  28.184  33.026  14.955
72497W        W32033  36.009   2.464  10.608
72498W        W32034  11.745  39.423  14.809
72499W        W32035  18.243   4.419  13.352
72500W        W32036   9.876  25.543   2.193
72501W        W32037   2.394  32.083   4.335
72502W        W32038  30.517  11.361  13.023
72503W        W32039   4.319  28.037   3.203
72504W        W32040  22.196  38.429   1.864
72505W        W32041   9.835  37.487  12.542
72506W        W32042   2.894  13.724  10.428
72507W        W32043  27.539  24.532   1.290
72508W        W32044  34.032  28.496   2.412
72509W        W32045  31.448  33.084  14.778
72510W        W32046  32.987   4.274  11.591
72511W        W32047  40.836  38.357   1.227
72512W        W32048  34.948  39.494   3.226
72513W        W32049   3.819  16.231   2.402
72514W        W32050  19.110   0.979   0.823
72515W        W32051  29.928  33.960  14.296
72516W        W32052  10.264  31.428   3.847
72517W        W32053   9.174  40.420  13.935
72518W        W32054   2.325   4.423  11.602
72519W        W32055  25.208  34.397   2.778
72520W        W32056  13.205  21.752   1.841
72521W        W32057  36.856   2.464   5.204
72522W        W32058  18.591  17.171  12.933
72523W        W32059   4.897  31.461   4.247
72524W        W32060  17.220  33.554  10.143
72525W        W32061  12.339  31.557   0.914
72526W        W32062   3.925  12.154  12.544
72527W        W32063   7.718  22.119  12.009
72528W        W32064  43.918  30.991   3.815
72529W        W32065  17.063  36.928   1.381
72530W        W32066  15.220  20.209   4.625
72531W        W32067  12.278  14.310  11.580
72532W        W32068  40.481  27.089  13.951
72533W        W32069   9.785  24.605  13.886
72534W        W32070  40.384   4.392  11.499
72535W        W32071   4.746   9.384   3.676
72536W        W32072  11.851  38.538   3.197
72537W        W32073  25.014  29.126  11.547
72538W        W32074  41.011  32.120   3.236
72539W        W32075  25.203  35.444  10.576
72540W        W32076  35.943  22.563  12.885
72541W        W32077  20.061  12.213   3.856
72542W        W32078  22.649  25.137  13.467
72543W        W32079  15.689  38.048   3.253
72544W        W32080   5.300  37.417   2.768
72545W        W32081  15.256  24.599  13.051
72546W        W32082  43.811  41.806   2.322
72547W        W32083  20.585  35.598  12.051
72548W        W32084  25.132  40.914   1.895
72549W        W32085   0.847  21.229  11.581
72550W        W32086  42.828  40.982   3.769
72551W        W32087   7.306   1.950   2.202
72552W        W32088  37.087   8.300  12.045
72553W        W32089   4.803  14.133  13.994
72554W        W32090  40.006  27.484  10.908
72555W        W32091  38.072   5.198   2.696
72556W        W32092  25.992  39.341   1.840
72557W        W32093   8.695   9.175   1.787
72558W        W32094  43.305  11.815  13.886
72559W        W32095  28.630  44.954  10.903
72560W        W32096   2.731  44.341  11.912
72561W        W32097  12.659  23.181   4.326
72562W        W32098  32.964  28.596   1.446
72563W        W32099   4.838  40.478  11.516
72564W        W32100  18.574  42.909   1.800
72565W        W32101   8.777  34.424  10.921
72566W        W32102  19.273  32.886  11.975
72567W        W32103  40.910  27.971   1.331
72568W        W32104  40.861   5.761  12.368
72569W        W32105  26.182  25.038  13.460
72570W        W32106  28.143   5.699   1.413
72571W        W32107   4.254  11.128   2.290
72572W        W32108  16.572  39.455  13.490
72573W        W32109  18.549  31.406  11.460
72574W        W32110  31.604  41.814   2.405
72575W        W32111   3.445   9.850   4.657
72576W        W32112  23.050  28.178   0.744
72577W        W32113  35.514  42.865   0.315
72578W        W32114  18.084   9.838  14.879
72579W        W32115   8.801  30.444  11.590
72580W        W32116  18.259  38.943   0.368
72581W        W32117   6.384  15.628   3.285
72582W        W32118  28.948  40.989   3.226
72583W        W32119   7.335   6.384  13.997
72584W        W32120  26.595   9.176  11.607
72585W        W32121   1.839   5.835  11.606
72586W        W32122  37.879  22.595  11.927
72587W        W32123  40.420  44.371  14.916
72588W        W32124   1.469  13.118   3.295
72589W        W32125  29.446  19.158  14.916
72590W        W32126  21.635  18.241  13.334
72591W        W32127  28.120   2.813   4.678
72592W        W32128  36.915  39.927   4.250
72593W        W32129  40.807   5.300  11.568
72594W        W32130  21.072  43.873  14.801
72595W        W32131  25.508   7.781  11.543
72596W        W32132  43.772  32.132  10.900
72597W        W32133  13.285  34.517   0.837
72598W        W32134  41.994  22.594  10.030
72599W        W32135  30.017   5.897  14.499
72600W        W32136  39.963  13.771   1.791
72601W        W32137  24.575  16.603   5.607
72602W        W32138   2.345   0.350  14.961
72603W        W32139   6.384  28.026   1.716
72604W        W32140  31.475  17.204   3.688
72605W        W32141   0.872  37.510   4.639
72606W        W32142  40.500  33.950  10.618
72607W        W32143  24.638  15.108   3.379
72608W        W32144  14.659  37.876  12.422
72609W        W32145  42.323  12.736  14.333
72610W        W32146   3.866  14.654  13.344
72611W        W32147  32.895  33.105  13.523
72612W        W32148  40.952  26.572  13.989
72613W        W32149  32.990  20.177   2.268
72614W        W32150  13.691  10.691   4.233
72615W        W32151   1.894  16.698  11.592
72616W        W32152   4.711  16.702   3.163
72617W        W32153  38.469  26.154  10.498
72618W        W32154  23.182   9.770  13.446
72619W        W32155  39.524   8.891  14.797
72620W        W32156  28.473  15.101   3.641
72621W        W32157   6.363  44.403  11.871
72622W        W32158  20.085  30.922  10.599
72623W        W32159  44.492   4.434   4.780
72624W        W32160  12.124  21.648   2.772
72625W        W32161  17.654   9.826   4.270
72626W        W32162  11.642  44.300   1.829
72627W        W32163  16.705  44.414  12.391
72628W        W32164  11.818  30.118   2.261
72629W        W32165  24.521  18.241   1.873
72630W        W32166  11.161  10.275  13.483
72631W        W32167  40.374  27.017   2.853
72632W        W32168  28.937   8.740   0.285
72633W        W32169  43.335  24.035  13.351
72634W        W32170  22.020  39.923  10.617
72635W        W32171   2.795  11.696  13.932
72636W        W32172  38.534   5.376  14.817
72637W        W32173  15.687  21.729  12.840
72638W        W32174  22.719  28.478  12.084
72639W        W32175  18.138  42.467   4.297
72640W        W32176  27.992   6.285  13.892
72641W        W32177  42.882   0.256  10.543
72642W        W32178   8.189  31.951   2.242
72643W        W32179  27.563  29.971  13.336
72644W        W32180  42.509  41.952   3.694
72645W        W32181   2.857  31.461   0.941
72646W        W32182  39.001  24.049  14.804
72647W        W32183  31.983   3.344   4.157
72648W        W32184  13.776  18.187   4.646
72649W        W32185  12.625  21.653  13.520
72650W        W32186  25.705  30.956  10.933
72651W        W32187  20.587   5.877  12.999
72652W        W32188  21.690  14.834   0.815
72653W        W32189  25.691  44.306  11.378
72654W        W32190   3.327  27.015  14.800
72655W        W32191   3.377  10.794  11.860
72656W        W32192   8.673   8.746   0.842
72657W        W32193  10.794  33.555   3.279
72658W        W32194  24.557  25.172   2.854
72659W        W32195  27.005  10.209  12.445
72660W        W32196  38.822   2.907   0.463
72661W        W32197  33.503  21.249  10.577
72662W        W32198  10.355  16.576   0.358
72663W        W32199  24.044  35.520   0.827
72664W        W32200  17.607   4.748   1.294
72665W        W32201  30.451  37.873  14.351
72666W        W32202  38.473  14.606   4.162
72667W        W32203  17.121  11.665  11.923
72668W        W32204   4.280   1.833   1.387
72669W        W32205  13.170  38.821  11.948
72670W        W32206  38.494   8.362   3.352
72671W        W32207  26.690   9.259   3.234
72672W        W32208  40.985  32.454   3.756
72673W        W32209   9.845  33.482   2.312
72674W        W32210  39.314   2.732  12.890
72675W        W32211  40.013  39.364  11.902
72676W        W32212  21.134  25.079  12.095
72677W        W32213  12.180  44.970   0.447
72678W        W32214   6.736  22.121  13.837
72679W        W32215   5.846   9.371   0.380
72680W        W32216  31.455  13.194  10.498
72681W        W32217   1.459  25.998   1.272
72682W        W32218  21.226   7.905   2.677
72683W        W32219  32.577  33.597  14.873
72684W        W32220  44.936  20.555   0.373
72685W        W32221   5.847  21.744  10.599
72686W        W32222  23.642  21.238  14.013
72687W        W32223  24.226  22.145  11.612
72688W        W32224  13.625   5.902   3.158
72689W        W32225  18.205   6.726  13.905
72690W        W32226   4.357  41.402  14.312
72691W        W32227  35.107  44.799   0.922
72692W        W32228   3.295  33.952   4.307
72693W        W32229  12.328   4.360   5.174
72694W        W32230   0.943  28.457  12.534
72695W        W32231   6.265  27.094  12.531
72696W        W32232   8.894  23.184   2.362
72697W        W32233  25.610   2.913   4.347
72698W        W32234  18.785  36.436   1.279
72699W        W32235   9.809   0.789   3.247
72700W        W32236   2.287  16.229   0.899
72701W        W32237  42.917  24.600  11.894
72702W        W32238  26.602   3.456  10.006
72703W        W32239  27.014  25.106  13.880
72704W        W32240  31.941  39.935  14.426
72705W        W32241  25.504  14.601  12.488
72706W        W32242  30.415  28.446   2.712
72707W        W32243  16.185   4.274   4.331
72708W        W32244  28.107  24.124  14.780
72709W        W32245  37.575   0.368   0.445
72710W        W32246  43.281  22.609   1.445
72711W        W32247  36.416  10.321   2.810
72712W        W32248   4.318  19.082  10.478
72713W        W32249   7.370  29.670  11.535
72714W        W32250  12.151  24.538  10.955
72715W        W32251  42.982  24.709  13.367
72716W        W32252  39.444  25.576  10.501
72717W        W32253   4.320  27.470   4.297
72718W        W32254  13.318  42.331   4.796
72719W        W32255   3.338  42.925   1.305
72720W        W32256  32.449  25.026   1.889
72721W        W32257   4.363  15.630   0.855
72722W        W32258   9.862  22.199  12.895
72723W        W32259   9.832  15.265  12.913
72724W        W32260  27.624  21.222  14.917
72725W        W32261   2.777   8.199   0.251
72726W        W32262  40.810  40.916  12.093
72727W        W32263  11.771   4.817   2.772
72728W        W32264  17.122  24.039   1.831
72729W        W32265  21.648  14.631  14.821
72730W        W32266   1.912  42.412  14.276
72731W        W32267  20.523  41.492   4.602
72732W        W32268  40.883  29.129  11.880
72733W        W32269  10.341  10.333   0.290
72734W        W32270  44.337  11.771  14.438
72735W        W32271  20.064  44.481  11.993
72736W        W32272   8.167  21.708  14.309
72737W        W32273  13.709   8.894  12.884
72738W        W32274   0.812   5.341  13.483
72739W        W32275   4.389  38.420  10.961
72740W        W32276  40.356  23.994  14.285
72741W        W32277  27.663   2.938  10.938
72742W        W32278  30.101  32.973  12.520
72743W        W32279  42.521  18.661  11.473
72744W        W32280  23.680  41.017  13.878
72745W        W32281  11.691  10.842   1.237
72746W        W32282  20.158  44.436   2.318
72747W        W32283   8.401  10.364  13.511
72748W        W32284  11.371   0.833  14.396
72749W        W32285  11.710  10.851   4.225
72750W        W32286  34.594  31.426  13.804
72751W        W32287   8.780  18.260  11.561
72752W        W32288  29.028  24.627   0.316
72753W        W32289  30.124  19.645   0.331
72754W        W32290  13.328   9.785   0.442
72755W        W32291  14.267  32.120  12.557
72756W        W32292   8.683  34.439  10.052
72757W        W32293  17.180  23.104  11.506
72758W        W32294   6.294  27.192   4.252
72759W        W32295  23.220  38.443   0.760
72760W        W32296   3.931  15.635  13.363
72761W        W32297  43.794   8.221  13.891
72762W        W32298  37.468  24.123  10.483
72763W        W32299  20.063  32.124  13.887
72764W        W32300  40.805  37.839   0.834
72765W        W32301  30.928  11.728  13.379
72766W        W32302  20.556  20.639  14.835
72767W        W32303  41.330  30.953   1.372
72768W        W32304  25.587  12.249  12.494
72769W        W32305  28.066  31.560   1.840
72770W        W32306  44.930   8.862  14.868
72771W        W32307  34.522  15.152   2.892
72772W        W32308  44.439  28.933   2.777
72773W        W32309  24.577  16.166   3.314
72774W        W32310  36.031  13.328   4.727
72775W        W32311  39.974  19.656  14.000
72776W        W32312   4.775  23.007  13.795
72777W        W32313  28.653  23.728  10.449
72778W        W32314  25.101  29.599   0.902
72779W        W32315  41.384   4.212  14.477
72780W        W32316  27.614  15.811  14.767
72781W        W32317   0.852  11.311   2.181
72782W        W32318   6.919  26.571  10.080
72783W        W32319  14.099  33.941  13.499
72784W        W32320  40.450  21.687   2.198
72785W        W32321  36.867  30.019   3.779
72786W        W32322   2.229  38.889   4.819
72787W        W32323  29.060   1.958   3.328
72788W        W32324  25.664  16.657   0.362
72789W        W32325   9.648  24.520  12.379
72790W        W32326  42.913   5.386   2.338
72791W        W32327   6.193  43.951  11.498
72792W        W32328  30.562  34.981  10.432
72793W        W32329   9.692   8.768   4.634
72794W        W32330  21.024   2.456  11.596
72795W        W32331  39.956   3.370   3.266
72796W        W32332  25.034   1.964  11.081
72797W        W32333  36.551  32.595   1.363
72798W        W32334  11.253   9.222  12.857
72799W        W32335  29.431  33.522  10.084
72800W        W32336  25.045   4.856  13.855
72801W        W32337  10.699  42.305  11.456
72802W        W32338  14.797  15.648   3.292
72803W        W32339   1.907  30.003   1.392
72804W        W32340   8.296  36.417  12.575
72805W        W32341   3.802  30.591  12.559
72806W        W32342  23.201   3.924   4.754
72807W        W32343  21.128   7.290   4.258
72808W        W32344  32.904  42.317  14.866
72809W        W32345  40.456   1.831   5.750
72810W        W32346  42.418  36.980   2.859
72811W        W32347  29.591  24.207   4.217
72812W        W32348  40.535   7.699  11.953
72813W        W32349  42.849  31.111  11.110
72814W        W32350  32.608  38.529   2.291
72815W        W32351  22.539   2.256  10.070
72816W        W32352  33.626  17.088  14.930
72817W        W32353   2.857  19.743  11.884
72818W        W32354  19.048  43.010  12.493
72819W        W32355  29.559  16.290  12.016
72820W        W32356  19.274  10.768  11.543
72821W        W32357  28.952  22.064   1.443
72822W        W32358  41.943  18.153   4.254
72823W        W32359  26.058   3.788  12.054
72824W        W32360  15.590  33.063   2.685
72825W        W32361   3.375  26.616  13.404
72826W        W32362  32.501  42.999   4.283
72827W        W32363  43.353  38.022   4.722
72828W        W32364   7.315  24.007  11.408
72829W        W32365  30.611  31.045   5.108
72830W        W32366  28.633  43.321  11.015
72831W        W32367   7.904  17.276  11.877
72832W        W32368   9.361  10.806  11.041
72833W        W32369  29.107  35.449   1.319
72834W        W32370   0.747   2.830   1.394
72835W        W32371  19.197   2.891   4.601
72836W        W32372   3.810  30.077   2.823
72837W        W32373   6.752  32.020  11.933
72838W        W32374   0.771  35.601   2.669
72839W        W32375  39.852  27.678  13.399
72840W        W32376  28.165  18.718   0.832
72841W        W32377   8.859  37.574  14.996
72842W        W32378  10.366  21.194   3.712
72843W        W32379  13.229  17.208   1.216
72844W        W32380  43.775  31.941  13.811
72845W        W32381  19.608  34.029   2.811
72846W        W32382  21.033  20.166   2.252
72847W        W32383  32.606  25.622  13.388
72848W        W32384  32.945  40.891  10.465
72849W        W32385   4.336   4.321  10.939
72850W        W32386  31.974  14.339  10.408
72851W        W32387  36.077  26.019  13.836
72852W        W32388   7.411   0.949  10.505
72853W        W32389  21.047  33.889  11.053
72854W        W32390  33.567  37.049   0.853
72855W        W32391   5.218  40.915  12.506
72856W        W32392  14.649  37.482   0.956
72857W        W32393  37.574   4.854   1.894
72858W        W32394  22.197  13.710  12.830
72859W        W32395  11.845  25.535   3.185
72860W        W32396   9.202   9.270  14.805
72861W        W32397  34.909  37.529  14.394
72862W        W32398  18.587  23.634  11.014
72863W        W32399  25.053  22.048  11.585
72864W        W32400  19.215  25.115  13.055
72865W        W32401  20.669  41.006  14.422
72866W        W32402   5.425   4.386  13.451
72867W        W32403   4.238   0.874  14.782
72868W        W32404  44.963  21.522   1.816
72869W        W32405  12.146   2.877  14.379
72870W        W32406   7.342  16.616   2.337
72871W        W32407   0.385  35.963  14.336
72872W        W32408   7.679  20.564   1.730
72873W        W32409  41.915  35.547   0.471
72874W        W32410  44.469   8.167   2.751
72875W        W32411  20.174  36.449   0.847
72876W        W32412  13.655  27.140   4.168
72877W        W32413  26.007  24.488  13.885
72878W        W32414  25.970  35.478   2.742
72879W        W32415  27.080  33.397   3.706
72880W        W32416  15.790  17.595  11.575
72881W        W32417  16.172  29.538  12.501
72882W        W32418  30.093  39.906  11.979
72883W        W32419  44.788  18.703  10.929
72884W        W32420  22.131  21.128   2.244
72885W        W32421  18.142  28.110   3.203
72886W        W32422  43.855   1.761   2.774
72887W        W32423  39.856  26.485   2.191
72888W        W32424  26.122  27.634  13.002
72889W        W32425   4.887  28.532   3.806
72890W        W32426  24.064  34.985  10.910
72891W        W32427  25.006   3.364  10.936
72892W        W32428  31.995   5.300  10.594
72893W        W32429  15.143  17.633  12.995
72894W        W32430  10.212  20.217  10.561
72895W        W32431   3.217   8.367   0.840
72896W        W32432   0.492  31.912  10.001
72897W        W32433   8.803  28.176   1.402
72898W        W32434  43.834  16.212  11.994
72899W        W32435  25.107  19.251   9.920
72900W        W32436  11.258  25.657  14.845
72901W        W32437  33.618  34.049  14.826
72902W        W32438  30.955  27.013   4.275
72903W        W32439  44.386  26.468  13.422
72904W        W32440  14.739   4.341   4.618
72905W        W32441  28.095  42.966   1.323
72906W        W32442  36.096  16.176  12.870
72907W        W32443  17.555  22.144  13.475
72908W        W32444  22.729  39.324  11.388
72909W        W32445  33.402  26.604   5.247
72910W        W32446  26.667  21.218   0.746
72911W        W32447  22.746  33.573  13.045
72912W        W32448  35.561  43.515  10.472
72913W        W32449  41.955   8.229  13.412
72914W        W32450  13.116  21.574   0.847
72915W        W32451  14.700  11.198  10.968
72916W        W32452  23.526  33.385  11.935
72917W        W32453   7.249  20.711   0.743
72918W        W32454   6.323   6.805   1.816
72919W        W32455  39.409   2.760  12.047
72920W        W32456  22.198  34.120   9.546
72921W        W32457  22.659  24.604   0.355
72922W        W32458  37.422  15.815   2.903
72923W        W32459  11.694  30.573   3.747
72924W        W32460  29.999   6.244   3.682
72925W        W32461   8.350  42.380  14.326
72926W        W32462  16.182  12.649   3.275
72927W        W32463   4.940  29.156  13.913
72928W        W32464  18.291  29.997   3.699
72929W        W32465  44.288  10.700   5.312
72930W        W32466  36.054  34.558  13.022
72931W        W32467   0.253  35.593   0.419
72932W        W32468  17.563  18.080   4.785
72933W        W32469   8.809   7.693   2.355
72934W        W32470  15.294   7.870  12.371
72935W        W32471   9.335   2.365   4.770
72936W        W32472   4.729  35.460   1.757
72937W        W32473   2.388  13.216   3.221
72938W        W32474  31.116  21.259   4.620
72939W        W32475  42.427  37.365   1.364
72940W        W32476  23.225  43.345  11.571
72941W        W32477   5.223  35.974   2.696
72942W        W32478   7.828  42.294   2.822
72943W        W32479  42.314   7.889  13.418
72944W        W32480   4.793  32.076  12.480
72945W        W32481  39.343  11.743   4.280
72946W        W32482  25.206  29.046  14.803
72947W        W32483  33.407  22.107   1.269
72948W        W32484   0.822  23.590   1.795
72949W        W32485  26.492  30.978  15.000
72950W        W32486   7.766  14.684   4.678
72951W        W32487  21.640   4.348   4.129
72952W        W32488  20.731  34.072   3.839
72953W        W32489  24.050   9.346  12.569
72954W        W32490  10.850  38.914  11.482
72955W        W32491  29.951  31.911   4.773
72956W        W32492  29.438  32.981  14.480
72957W        W32493  40.949  31.118   0.855
72958W        W32494  36.848  30.576  13.840
72959W        W32495   9.720  38.907   4.650
72960W        W32496  31.085  22.630   2.188
72961W        W32497  34.396   6.299  10.560
72962W        W32498  21.535  12.716   3.822
72963W        W32499  11.164  37.855   1.276
72964W        W32500  19.136   2.281   1.834
72965W        W32501  29.985  33.898   4.702
72966W        W32502  19.259  31.426   3.856
72967W        W32503  26.577  29.670  14.308
72968W        W32504  39.066  30.452  12.570
72969W        W32505  38.946   3.861  14.288
72970W        W32506  42.953  19.163   4.285
72971W        W32507  32.600  30.592   2.875
72972W        W32508  20.761  31.608  10.596
72973W        W32509  23.572  38.361   0.810
72974W        W32510  22.718  13.135   4.688
72975W        W32511  37.983  16.197   4.307
72976W        W32512  35.502  27.567   9.573
72977W        W32513   1.325  13.706   3.680
72978W        W32514   5.422  40.000  11.129
72979W        W32515  16.131  21.610   0.865
72980W        W32516  36.914  25.711   1.769
72981W        W32517  32.023  22.701   4.606
72982W        W32518  17.187  13.284  10.917
72983W        W32519  38.872  22.621  12.508
72984W        W32520  14.674  33.576   5.286
72985W        W32521  29.557  11.134  12.483
72986W        W32522  17.096  43.855   0.361
72987W        W32523  35.885  30.099   0.898
72988W        W32524  17.766  28.640  11.522
72989W        W32525  28.124  22.103   4.621
72990W        W32526   4.739  31.953   5.167
72991W        W32527  26.659  39.454   1.305
72992W        W32528  12.610  18.146   4.242
72993W        W32529  34.371  38.829   3.386
72994W        W32530  44.427   0.877   3.670
72995W        W32531  15.763  38.927   1.397
72996W        W32532   9.709  33.954  11.934
72997W        W32533  21.039  37.913  11.994
72998W        W32534  26.524  32.904   3.270
72999W        W32535  34.985   1.971   3.670
73000W        W32536  33.985  26.077   9.665
73001W        W32537   2.358   5.226   4.709
73002W        W32538  36.393  10.293  10.447
73003W        W32539   7.773   6.787  13.391
73004W        W32540  43.823  41.516  14.987
73005W        W32541  21.530  23.724   4.339
73006W        W32542  33.047   8.795  11.949
73007W        W32543  16.621  34.489   2.901
73008W        W32544  13.218  16.771  10.934
73009W        W32545   2.907  25.551  13.462
73010W        W32546  22.507  41.967   1.851
73011W        W32547  10.213  22.117  13.823
73012W        W32548  37.447  28.931  11.986
73013W        W32549  20.220  32.101   2.764
73014W        W32550  31.922  17.115   5.184
73015W        W32551   8.174  42.341   2.684
73016W        W32552  29.948  39.429  10.622
73017W        W32553  14.206  34.411   2.788
73018W        W32554   6.395  16.231   3.680
73019W        W32555  33.497  29.060  13.514
73020W        W32556  30.471  44.277  11.102
73021W        W32557  16.725  18.152  10.911
73022W        W32558  24.686  35.438   3.355
73023W        W32559  21.708  23.731  14.366
73024W        W32560  35.069  23.656  12.018
73025W        W32561  13.120  31.554   2.183
73026W        W32562  39.451  15.316   2.283
73027W        W32563  39.924  33.583   0.279
73028W        W32564   9.831   2.763  13.058
73029W        W32565  11.786  34.550  14.299
73030W        W32566  14.158   8.185  11.570
73031W        W32567   8.836  23.181  10.494
73032W        W32568   9.281  31.548   3.630
73033W        W32569  21.203  42.906  14.801
73034W        W32570  24.596  21.059  14.870
73035W        W32571  19.715  19.151  11.419
73036W        W32572  38.944  13.609  13.309
73037W        W32573  16.682   1.245  12.859
73038W        W32574  24.213  11.371   3.146
73039W        W32575  31.010  19.621   3.694
73040W        W32576  27.052  25.075  10.509
73041W        W32577  16.801  24.699  12.342
73042W        W32578   0.395  27.492  10.991
73043W        W32579  12.677  28.115  11.417
73044W        W32580  21.746  35.881   2.394
73045W        W32581   2.867  26.092  10.566
73046W        W32582  44.361  28.563   0.449
73047W        W32583   6.391   6.383  14.277
73048W        W32584   1.948  23.528  14.314
73049W        W32585   5.749  23.080   3.784
73050W        W32586  12.127  10.649  11.979
73051W        W32587   1.836  22.735  14.456
73052W        W32588  20.104  44.885   0.465
73053W        W32589  42.331   0.783   2.763
73054W        W32590  10.635   4.279  10.980
73055W        W32591  31.557  19.243   4.115
73056W        W32592   0.762   6.830   3.862
73057W        W32593  41.501  36.554   4.164
73058W        W32594  36.559  40.516  10.062
73059W        W32595  33.603  36.871  12.009
73060W        W32596   0.885  19.776  11.069
73061W        W32597  21.757  42.819   4.218
73062W        W32598  12.177   4.834  12.885
73063W        W32599  22.694   6.297  13.807
73064W        W32600   6.770   2.807  10.444
73065W        W32601  16.185  14.113  13.520
73066W        W32602  29.126  43.373   2.299
73067W        W32603   9.666  40.870   3.669
73068W        W32604  19.159   2.394   2.266
73069W        W32605  39.860  18.648   1.416
73070W        W32606  31.441  24.228   5.798
73071W        W32607   2.233  39.016  14.307
73072W        W32608  31.005  20.214   1.270
73073W        W32609  44.872   4.254  11.979
73074W        W32610  30.061  33.898  14.947
73075W        W32611  41.339  18.729   3.686
73076W        W32612  16.313  14.629  14.281
73077W        W32613  17.771   7.740  13.334
73078W        W32614  10.717  14.618  11.112
73079W        W32615  35.492  22.714  13.397
73080W        W32616   1.860  31.517  14.026
73081W        W32617   7.754  15.732   1.794
73082W        W32618   4.278  38.438   1.356
73083W        W32619  35.518  44.260  13.548
73084W        W32620  12.171  19.603  11.441
73085W        W32621  12.293  13.656   0.930
73086W        W32622  13.113  26.696   1.928
73087W        W32623  24.025  19.776   1.243
73088W        W32624   1.315  11.715   3.632
73089W        W32625  40.052  18.125  10.946
73090W        W32626  16.573  16.156  11.094
73091W        W32627  23.040  31.533  12.043
73092W        W32628   3.873  36.557  14.815
73093W        W32629  33.025  43.411   0.363
73094W        W32630  15.243  30.627  13.018
73095W        W32631   2.921  41.847  11.930
73096W        W32632  13.241  16.093  10.449
73097W        W32633   4.257  35.434  10.409
73098W        W32634  16.289   5.424  10.554
73099W        W32635  22.615  34.425  14.369
73100W        W32636  36.553   4.382  13.842
73101W        W32637  29.013  26.577  11.970
73102W        W32638  34.372  14.805   1.903
73103W        W32639  36.557  39.885   2.305
73104W        W32640   4.301  27.496  12.450
73105W        W32641  18.782  11.813   2.311
73106W        W32642  15.308  41.337  12.905
73107W        W32643  44.980  37.987  14.515
73108W        W32644  43.851  11.160   1.297
73109W        W32645  32.439  20.655  10.912
73110W        W32646  13.350  26.050   0.324
73111W        W32647  27.170  42.361  10.612
73112W        W32648   6.319  27.029   1.844
73113W        W32649  27.983  25.569  10.404
73114W        W32650  26.556   1.369   4.607
73115W        W32651  13.676  29.575  12.942
73116W        W32652  12.739  39.064  13.032
73117W        W32653  36.857  33.455  14.280
73118W        W32654  12.128  44.898  11.942
73119W        W32655  28.016  27.516   2.184
73120W        W32656  44.872  26.062  14.491
73121W        W32657  15.297  33.054   4.702
73122W        W32658  21.538  22.207  12.026
73123W        W32659  25.025  17.195  13.857
73124W        W32660   2.381   5.822  14.863
73125W        W32661   6.723  30.994  11.608
73126W        W32662  41.855  21.576   3.238
73127W        W32663  40.934  11.242   3.651
73128W        W32664  25.707  43.503   2.304
73129W        W32665   3.410  40.908   0.915
73130W        W32666   8.258  28.965   2.688
73131W        W32667   5.232   6.342  10.548
73132W        W32668  27.122  25.675  10.516
73133W        W32669  22.243  17.788   3.172
73134W        W32670  14.728  13.345   3.768
73135W        W32671  13.116  31.553   1.382
73136W        W32672  13.824  24.629  12.955
73137W        W32673  36.447  26.014  13.515
73138W        W32674  34.411  16.179   4.605
73139W        W32675   1.761  11.744   1.856
73140W        W32676  41.860   8.282   0.767
73141W        W32677   6.739  21.071  13.446
73142W        W32678  26.990  29.479   2.197
73143W        W32679   2.758   1.433  11.482
73144W        W32680  20.633  11.642   2.311
73145W        W32681  16.304  26.985  11.565
73146W        W32682  26.087  25.993  12.417
73147W        W32683   4.254  16.218  13.051
73148W        W32684  36.546  37.415  13.998
73149W        W32685  28.042  44.305  13.825
73150W        W32686  41.875   2.961   1.808
73151W        W32687  12.774  19.607   1.876
73152W        W32688  42.461  24.078  14.387
73153W        W32689   9.387  43.876   4.698
73154W        W32690  15.227   5.363  10.478
73155W        W32691  35.593  24.056  12.880
73156W        W32692  24.040  30.556  14.922
73157W        W32693  20.237   5.372  13.852
73158W        W32694  39.869  14.255  11.975
73159W        W32695  32.551  27.007  13.059
73160W        W32696  15.156  32.052   2.187
73161W        W32697   0.874  18.130  10.011
73162W        W32698  41.474   4.293  12.340
73163W        W32699  20.739  32.461  13.809
73164W        W32700  20.037  26.513  14.964
73165W        W32701  29.152  43.510   3.301
73166W        W32702  33.392  17.624   1.314
73167W        W32703  13.669   7.292   9.499
73168W        W32704  10.217  28.518   5.610
73169W        W32705  12.735  44.471  12.526
73170W        W32706  24.711  43.281   0.303
73171W        W32707  10.857  21.674  11.947
73172W        W32708  29.146  20.028   2.251
73173W        W32709  29.079  28.020  12.476
73174W        W32710   3.922  25.037   2.286
73175W        W32711  17.767  15.783   0.420
73176W        W32712  30.624   9.370   4.613
73177W        W32713  34.386  12.727   1.845
73178W        W32714  15.313   9.186  11.962
73179W        W32715   5.860  28.176  11.376
73180W        W32716  18.612  39.428   0.801
73181W        W32717  22.622  28.661   2.373
73182W        W32718  13.307  12.155  10.965
73183W        W32719  11.817  15.791   1.330
73184W        W32720  35.929  33.424  10.428
73185W        W32721  22.051  11.157   4.732
73186W        W32722  36.964   3.876   1.756
73187W        W32723  44.879  29.557   1.699
73188W        W32724   9.242  17.243   0.369
73189W        W32725  24.149  29.148   3.352
73190W        W32726  23.233   3.364  14.341
73191W        W32727  18.270   1.387  14.890
73192W        W32728  34.952  33.893  14.871
73193W        W32729  42.843  42.371   2.217
73194W        W32730   6.356  27.585   0.855
73195W        W32731  35.566  23.552  14.423
73196W        W32732  34.912  13.139   2.698
73197W        W32733  26.551   7.869  10.046
73198W        W32734   8.869  12.336  13.308
73199W        W32735  17.163  14.199   2.854
73200W        W32736  38.019  32.489   4.202
73201W        W32737  43.994   2.898  13.333
73202W        W32738   6.424  32.443   1.218
73203W        W32739  40.330  32.533  13.430
73204W        W32740  44.830  36.036  12.401
73205W        W32741   9.374  21.035  13.360
73206W        W32742  29.962  38.937  13.483
73207W        W32743  40.823   1.461  14.006
73208W        W32744  31.995  20.590  14.948
73209W        W32745  11.684   3.921   1.384
73210W        W32746  18.575  37.339  14.777
73211W        W32747  36.530  39.870   3.226
73212W        W32748  40.521  15.626  12.341
73213W        W32749  25.642  13.623   3.776
73214W        W32750  22.057  26.649  11.946
73215W        W32751  27.674  16.775  14.380
73216W        W32752   5.702   0.339  13.424
73217W        W32753  19.732  21.027  10.961
73218W        W32754  43.386  22.587  14.952
73219W        W32755  19.775   8.240  14.991
73220W        W32756  22.730   0.793  10.605
73221W        W32757  11.294  28.970  14.922
73222W        W32758   8.280  40.959  11.595
73223W        W32759  17.658   1.469  11.548
73224W        W32760  41.821  42.411   3.690
73225W        W32761  14.251  19.112   2.891
73226W        W32762  23.077   0.987   1.894
73227W        W32763  35.900   8.185  10.915
73228W        W32764  30.483  15.147   0.925
73229W        W32765  42.950   3.824   0.829
73230W        W32766  18.643  33.876   1.327
73231W        W32767   1.258  27.111  12.416
73232W        W32768  38.525  12.312  14.438
73233W        W32769  38.887  11.287   2.227
73234W        W32770  29.992  13.256  13.504
73235W        W32771  10.856  31.023  10.938
73236W        W32772  43.926  22.045  11.606
73237W        W32773  25.964  25.130  14.317
73238W        W32774   6.797  37.559   3.784
73239W        W32775  16.765  28.508   0.329
73240W        W32776  38.938  11.342  14.953
73241W        W32777   3.363  10.268   0.368
73242W        W32778  36.421  43.875   3.825
73243W        W32779   4.747  20.640   4.804
73244W        W32780  15.108   2.857   4.266
73245W        W32781  36.857  15.252   2.324
73246W        W32782  38.517  17.563   3.380
73247W        W32783  17.792  19.590   4.776
73248W        W32784   9.303   9.822   0.732
73249W        W32785   9.323  35.530  14.867
73250W        W32786  19.556  15.709  13.347
73251W        W32787  19.154  29.604   1.697
73252W        W32788  25.513   2.872   1.235
73253W        W32789   7.406  31.904  13.008
73254W        W32790  16.177  18.743  14.308
73255W        W32791  28.185  23.622  14.936
73256W        W32792   6.684  32.477   3.870
73257W        W32793   0.767  18.057  14.347
73258W        W32794  14.730  20.632   1.258
73259W        W32795   1.458  35.391   0.252
73260W        W32796  36.949  20.761  11.444
73261W        W32797  14.100   3.807   1.255
73262W        W32798  37.961   8.245  11.489
73263W        W32799  44.494  20.091  13.431
73264W        W32800   4.728  21.163   4.348
73265W        W32801  37.422   5.213  12.964
73266W        W32802  30.453  37.350  10.895
73267W        W32803  37.963  40.440  12.570
73268W        W32804  29.583  10.365   4.334
73269W        W32805   9.678   7.895   2.419
73270W        W32806  20.060  18.252  13.887
73271W        W32807  10.266  12.847  11.457
73272W        W32808   8.216  19.592   0.478
73273W        W32809   3.286  42.024  11.471
73274W        W32810  19.728  43.356  13.342
73275W        W32811  27.031  20.146   0.267
73276W        W32812  20.706  43.769   4.726
73277W        W32813  11.312  21.669  14.763
73278W        W32814  14.294   6.687   5.706
73279W        W32815  26.182   8.842   1.891
73280W        W32816  22.586  43.900   1.399
73281W        W32817  14.279   4.300   0.346
73282W        W32818  23.999  44.371   1.748
73283W        W32819  42.968   1.388  14.430
73284W        W32820  37.352  42.437  11.435
73285W        W32821  28.450   6.267  13.514
73286W        W32822  41.043  26.201   0.317
73287W        W32823   9.811   6.220  13.963
73288W        W32824  28.447  20.240  13.956
73289W        W32825   2.277  23.997   4.262
73290W        W32826  11.168  13.144  11.402
73291W        W32827  23.054  13.137  14.952
73292W        W32828  12.347  15.816   0.471
73293W        W32829  41.469  14.829  13.008
73294W        W32830  35.853   1.903   1.348
73295W        W32831  41.534   4.875   3.193
73296W        W32832   2.333  41.805   2.760
73297W        W32833   0.341  31.628  10.434
73298W        W32834   2.334  38.931   9.921
73299W        W32835  26.020  23.161   4.304
73300W        W32836  40.853  20.206   3.217
73301W        W32837  23.523   9.357   2.236
73302W        W32838  34.378  16.793  10.526
73303W        W32839   9.294  14.210   5.124
73304W        W32840  12.665   4.209   3.697
73305W        W32841  17.647   6.775  12.085
73306W        W32842  44.828  43.863  11.006
73307W        W32843   4.221  23.086   2.866
73308W        W32844  28.050  36.509  12.998
73309W        W32845  27.451   6.404   1.430
73310W        W32846  35.503  15.670  13.394
73311W        W32847  16.197  10.797  11.920
73312W        W32848  16.800  31.123   3.696
73313W        W32849  40.490  33.069   1.306
73314W        W32850  15.787  40.855  10.606
73315W        W32851  15.584   2.865   0.857
73316W        W32852  25.631  23.730   3.630
73317W        W32853  17.621  27.967  11.075
73318W        W32854  38.327  27.109  10.981
73319W        W32855  36.432  37.386  11.045
73320W        W32856  26.178  43.934  10.505
73321W        W32857   9.688  33.102   3.372
73322W        W32858  15.600   8.365   2.414
73323W        W32859  10.357  18.658   1.787
73324W        W32860  21.263   3.348  13.024
73325W        W32861  14.141  13.130   2.359
73326W        W32862  33.462  41.939   1.314
73327W        W32863   9.735   4.733  14.382
73328W        W32864  35.455   8.820  14.497
73329W        W32865  11.293  28.548   0.324
73330W        W32866   8.711  16.645   0.454
73331W        W32867   0.913   5.212  12.546
73332W        W32868  23.607  34.608  14.436
73333W        W32869  32.548   8.777  12.827
73334W        W32870  42.426  41.917  13.475
73335W        W32871  20.176  24.207  13.520
73336W        W32872  25.713  19.627   1.284
73337W        W32873  22.538  43.967  14.807
73338W        W32874  11.310  35.603   1.284
73339W        W32875  24.100  16.203   4.760
73340W        W32876  15.738  35.507   4.331
73341W        W32877   7.187  29.580   4.179
73342W        W32878  43.305  40.024  10.539
73343W        W32879   2.339   6.255   0.726
73344W        W32880  19.059   7.883  12.446
73345W        W32881  30.044   0.775   0.322
73346W        W32882  29.585   3.854   3.830
73347W        W32883  39.061  10.326   3.329
73348W        W32884   1.243  20.224   4.334
73349W        W32885   3.953  32.634  12.094
73350W        W32886  19.267   0.899  12.890
73351W        W32887  12.351   4.359   5.654
73352W        W32888   8.267  11.807  11.956
73353W        W32889  42.820  30.523  14.020
73354W        W32890  29.653  23.588  11.388
73355W        W32891   3.287  12.124  12.908
73356W        W32892  43.324   3.234   4.138
73357W        W32893  39.935  31.561  14.901
73358W        W32894   9.785  11.764  13.879
73359W        W32895  11.346   3.854   1.295
73360W        W32896  30.469  41.488  12.915
73361W        W32897  32.967  35.914   4.342
73362W        W32898  28.047  40.866  14.887
73363W        W32899  28.172  26.697   3.728
73364W        W32900   6.412  24.131   1.847
73365W        W32901   3.760  20.110  10.472
73366W        W32902   2.300   4.885   5.184
73367W        W32903  32.603  15.698  13.869
73368W        W32904  26.081  39.343   0.262
73369W        W32905  29.160  17.634  10.898
73370W        W32906  20.570  30.929  10.576
73371W        W32907  28.124  21.167  12.348
73372W        W32908   8.232  20.686  12.065
73373W        W32909  34.065  33.501  12.989
73374W        W32910   1.345  32.102   4.599
73375W        W32911  37.922  22.527  11.077
73376W        W32912  40.030  34.055  10.574
73377W        W32913   7.294  38.847  14.395
73378W        W32914  34.062  40.830  14.006
73379W        W32915   4.365  33.883   1.795
73380W        W32916  10.189  37.541  11.980
73381W        W32917  43.975  42.929   0.469
73382W        W32918   1.923   2.335  10.902
73383W        W32919  18.284   2.227  13.037
73384W        W32920  12.637   5.194  11.903
73385W        W32921  31.005  26.526   0.793
73386W        W32922  14.201  44.798   3.680
73387W        W32923  32.588   4.447   2.769
73388W        W32924  28.182  19.244   2.813
73389W        W32925  29.604  37.015   2.237
73390W        W32926  42.408  11.303  10.908
73391W        W32927  23.224  18.719  14.778
73392W        W32928  20.253   7.795  13.458
73393W        W32929  33.518  30.163  12.898
73394W        W32930  28.012  42.453  10.431
73395W        W32931   7.252  33.402   3.290
73396W        W32932  27.186   8.734   0.296
73397W        W32933  19.656  18.642   1.348
73398W        W32934  42.400  36.441   0.337
73399W        W32935  24.565  29.015  11.887
73400W        W32936  40.958  17.101  13.935
73401W        W32937  21.226  41.916   1.830
73402W        W32938   3.709   6.686  13.441
73403W        W32939  28.959  26.620  11.000
73404W        W32940  21.531  39.406   2.769
73405W        W32941  40.811  27.195  11.605
73406W        W32942  40.507  39.526  12.456
73407W        W32943   1.844   2.811  13.975
73408W        W32944  27.566  14.737   3.668
73409W        W32945  40.848  12.815   1.239
73410W        W32946  30.121   1.876  13.930
73411W        W32947  17.660   0.393  11.408
73412W        W32948  33.092  24.093  12.085
73413W        W32949  34.460  20.737  12.866
73414W        W32950  10.199  21.525  14.840
73415W        W32951  36.878  14.146  14.335
73416W        W32952  20.765   4.416  14.381
73417W        W32953  16.150  36.979  14.828
73418W        W32954  25.063  26.995   2.676
73419W        W32955   5.846   8.361  12.853
73420W        W32956   5.867  40.944   1.261
73421W        W32957  41.366  33.928  14.310
73422W        W32958   6.892  26.063  12.019
73423W        W32959  37.010  17.695   3.235
73424W        W32960  41.375  39.057  14.341
73425W        W32961  26.155  28.079  13.022
73426W        W32962  22.179  31.549  14.897
73427W        W32963  35.455   0.407   3.222
73428W        W32964   1.431  19.558   1.280
73429W        W32965   9.822  39.478  14.917
73430W        W32966  36.052  31.027   1.330
73431W        W32967   8.361   9.157  10.440
73432W        W32968  20.104  36.414   0.332
73433W        W32969   5.731  13.297   2.216
73434W        W32970  15.304  10.762  11.420
73435W        W32971  17.732  18.204   4.325
73436W        W32972   1.893  27.124  11.027
73437W        W32973  16.236  26.510  12.073
73438W        W32974   1.975  15.182  11.392
73439W        W32975  30.621   9.785  13.409
73440W        W32976  14.111   3.314   1.300
73441W        W32977  24.180  28.505  11.608
73442W        W32978  34.437  16.586  11.529
73443W        W32979   8.868  17.623   3.229
73444W        W32980  34.946  28.676  12.927
73445W        W32981  10.142  29.666  13.988
73446W        W32982  15.757  16.697   0.963
73447W        W32983  20.060  30.461   4.654
73448W        W32984  35.595  24.721  13.526
73449W        W32985  27.006  21.637  13.940
73450W        W32986  34.410  36.990  10.553
73451W        W32987  23.686  22.545   2.275
73452W        W32988  43.285   8.760  11.583
73453W        W32989  24.096  28.160  10.070
73454W        W32990  21.578  36.905   4.835
73455W        W32991   6.910  15.309   4.822
73456W        W32992  29.922  32.118  13.933
73457W        W32993   7.883  24.524  14.318
73458W        W32994  22.071  23.025  10.505
73459W        W32995   2.334   6.783   2.249
73460W        W32996  26.038   5.803   3.767
73461W        W32997  19.731  44.938  10.531
73462W        W32998  19.542  36.842  12.475
73463W        W32999  25.554   3.818   2.682
73464W        W33000  38.880  31.556  14.983
73465W        W33001   9.671   1.455  12.561
73466W        W33002   4.208  34.534   4.223
73467W        W33003   9.228  25.695   4.323
73468W        W33004  36.005  25.597  12.868
73469W        W33005   6.271   9.287  11.961
73470W        W33006  10.191  22.236   0.942
73471W        W33007  44.264  12.822  13.811
73472W        W33008   4.800  40.808   3.265
73473W        W33009  14.190   6.362  14.362
73474W        W33010  34.450  43.952   9.948
73475W        W33011  38.450  12.792  12.394
73476W        W33012  37.053  42.858   0.331
73477W        W33013  36.418  23.045   4.165
73478W        W33014  15.683  19.653  13.856
73479W        W33015   3.230   2.849  14.849
73480W        W33016  25.594  32.437   1.356
73481W        W33017   4.882  16.100  13.503
73482W        W33018  36.934  17.104   3.636
73483W        W33019  20.246  26.042  14.996
73484W        W33020  25.202  18.760   4.827
73485W        W33021  25.022  31.455   3.350
73486W        W33022  28.550  29.954   3.784
73487W        W33023  12.746  11.216  10.641
73488W        W33024  34.972  32.434  11.393
73489W        W33025  16.266  32.075  11.041
73490W        W33026  23.194  24.065   0.243
73491W        W33027  15.212  21.182  12.031
73492W        W33028  19.142  43.877  12.397
73493W        W33029  34.077  30.539   1.431
73494W        W33030  25.035  44.484  11.105
73495W        W33031  30.503  23.109   3.248
73496W        W33032  31.597  43.291  12.952
73497W        W33033  13.838  22.584  13.371
73498W        W33034   3.742  35.981  11.390
73499W        W33035  31.566  18.106  11.077
73500W        W33036  17.175  14.120  11.110
73501W        W33037   4.712  32.932   3.204
73502W        W33038  44.941  10.805   2.250
73503W        W33039   0.805  30.988  11.537
73504W        W33040  10.383  28.941   4.321
73505W        W33041  44.280  24.177   2.773
73506W        W33042  15.255  24.029   0.834
73507W        W33043  12.137  41.461   0.395
73508W        W33044  27.172  12.763  10.498
73509W        W33045  34.421   0.980   5.160
73510W        W33046  18.740  16.692  12.027
73511W        W33047  27.128   7.684  11.927
73512W        W33048   3.461  18.216   9.932
73513W        W33049  44.419  26.521  14.849
73514W        W33050  12.790  18.551  11.399
73515W        W33051  21.063   9.153  13.461
73516W        W33052  10.237  43.956   3.707
73517W        W33053  39.553  31.505  14.324
73518W        W33054  20.632  18.684   3.818
73519W        W33055  28.115  36.533   1.792
73520W        W33056  42.953  42.479  14.492
73521W        W33057  18.211  11.695  14.413
73522W        W33058  27.535   8.213  11.963
73523W        W33059  22.625   7.223   3.346
73524W        W33060  41.362  43.331   4.820
73525W        W33061  23.218  24.214   4.261
73526W        W33062   9.221  16.709  13.972
73527W        W33063  40.357  33.582  11.040
73528W        W33064   6.412  13.229  13.794
73529W        W33065   3.363  14.624   1.811
73530W        W33066  24.071  32.939   4.119
73531W        W33067   2.462  40.385  11.538
73532W        W33068   6.268   0.770  13.827
73533W        W33069   2.865  27.618   3.332
73534W        W33070  14.809   5.283   4.196
73535W        W33071  41.512  32.600   0.846
73536W        W33072   9.188   0.831   2.408
73537W        W33073  26.675   8.663  13.355
73538W        W33074  32.514  44.492   4.604
73539W        W33075   7.403  38.839   3.184
73540W        W33076  19.250  29.541  14.972
73541W        W33077  21.667  17.750  14.769
73542W        W33078  10.794   7.209   1.360
73543W        W33079  15.812  17.218   1.774
73544W        W33080  27.526  17.648   1.845
73545W        W33081  15.580  33.598   4.234
73546W        W33082  14.618  21.607  11.452
73547W        W33083  36.565  38.044   3.806
73548W        W33084  20.743  34.558  13.995
73549W        W33085  32.469  17.153   1.699
73550W        W33086  35.439   9.828   0.810
73551W        W33087  34.914  14.202   4.167
73552W        W33088  39.981  12.171  12.478
73553W        W33089  24.031  10.786   1.386
73554W        W33090   1.389   3.398   4.202
73555W        W33091  35.439  30.091   1.445
73556W        W33092  13.680  40.469  12.040
73557W        W33093   9.888  16.767   3.818
73558W        W33094  25.680  13.733   0.953
73559W        W33095  33.094  15.093  11.857
73560W        W33096  36.376  42.873   4.122
73561W        W33097  28.073   7.291  13.900
73562W        W33098   3.434  26.668   2.861
73563W        W33099  34.466  20.264  12.026
73564W        W33100  28.602   1.387  13.420
73565W        W33101  36.377   4.721   1.257
73566W        W33102   4.880  27.962  14.439
73567W        W33103   5.746  32.571   3.270
73568W        W33104  20.054   7.829   0.730
73569W        W33105  13.624  34.406  11.058
73570W        W33106  42.371  39.852   2.243
73571W        W33107  18.160   7.718  13.995
73572W        W33108  39.896  24.019  14.873
73573W        W33109  25.621   8.736  13.873
73574W        W33110   6.214  24.006   4.238
73575W        W33111  18.677  24.156  11.111
73576W        W33112   1.436  23.225   0.860
73577W        W33113  27.167  19.566  11.406
73578W        W33114  35.929   2.938   4.343
73579W        W33115  35.032   1.468  12.371
73580W        W33116  32.582   1.436  14.926
73581W        W33117  29.587  26.148  11.964
73582W        W33118  17.567  26.131   2.784
73583W        W33119  34.394  33.511   2.701
73584W        W33120  19.271  23.567  11.443
73585W        W33121   3.871   4.757  14.832
73586W        W33122  11.236  37.007  12.493
73587W        W33123   3.805  11.748  10.641
73588W        W33124  18.292  44.815   0.320
73589W        W33125  27.021  40.413  10.437
73590W        W33126  21.223  17.107  11.419
73591W        W33127   5.440   3.716   0.918
73592W        W33128  26.979  11.325   4.176
73593W        W33129  11.680   5.802   3.750
73594W        W33130  35.489  18.218  10.993
73595W        W33131  36.863   3.724   9.498
73596W        W33132  23.589  20.738   3.182
73597W        W33133  34.967  44.316   0.270
73598W        W33134  28.676  33.466   0.452
73599W        W33135  23.583  39.526  14.499
73600W        W33136  44.775   4.815  12.460
73601W        W33137  21.511  23.505  13.799
73602W        W33138  33.067  26.956   4.145
73603W        W33139   9.787  31.070   1.272
73604W        W33140  29.505  38.520  14.925
73605W        W33141  43.424   0.829  13.808
73606W        W33142  22.097  31.043  14.342
73607W        W33143  30.436  39.503  13.863
73608W        W33144  36.395  40.423   2.819
73609W        W33145  38.366  31.632   3.708
73610W        W33146  36.450  43.412   4.720
73611W        W33147  21.064   3.773   3.862
73612W        W33148  12.310  10.766  13.893
73613W        W33149  16.775  26.566  13.449
73614W        W33150   7.411  37.388   2.882
73615W        W33151  31.608  15.210  12.082
73616W        W33152  10.686   1.977  11.901
73617W        W33153  39.505  37.030   3.753
73618W        W33154  16.073   8.703   1.877
73619W        W33155  25.635   8.350  14.933
73620W        W33156   9.362  12.236   1.886
73621W        W33157  22.216  33.080  13.455
73622W        W33158   3.923  22.062   2.278
73623W        W33159   5.845   3.311  14.287
73624W        W33160  42.419  24.689   2.708
73625W        W33161  10.708   6.301   0.362
73626W        W33162  39.968  33.385  10.576
73627W        W33163  11.667   1.401   1.911
73628W        W33164  42.417   4.407  12.095
73629W        W33165   0.979  28.942   4.211
73630W        W33166  26.009  39.863   3.289
73631W        W33167  42.029  41.952  10.983
73632W        W33168   4.280  21.092  14.767
73633W        W33169   5.254  24.126  14.369
73634W        W33170  24.169  22.207  14.486
73635W        W33171  33.928  29.664  13.814
73636W        W33172  26.123  13.330   2.412
73637W        W33173  39.026   5.277  11.390
73638W        W33174  38.361  10.176  14.311
73639W        W33175  13.285   2.386  11.018
73640W        W33176  31.559  16.723  11.446
73641W        W33177  13.740  11.734   0.260
73642W        W33178  26.995  18.269  12.348
73643W        W33179  36.005  39.362   2.700
73644W        W33180  14.181   7.839  12.423
73645W        W33181  23.689  40.952   0.304
73646W        W33182   0.324   3.952  14.297
73647W        W33183  20.580   4.700  11.522
73648W        W33184  44.862   8.387   4.159
73649W        W33185  11.288  37.484   2.717
73650W        W33186  16.655  31.517  11.125
73651W        W33187  36.511  10.841   3.363
73652W        W33188   4.353  32.615   0.938
73653W        W33189  16.141   8.726  13.967
73654W        W33190  37.407  12.680   2.390
73655W        W33191  16.184  32.608  12.952
73656W        W33192  42.030  31.971  10.544
73657W        W33193  38.881  23.492   2.872
73658W        W33194  25.968  42.371  13.820
73659W        W33195  38.908  40.334   3.637
73660W        W33196  25.645  21.079   0.293
73661W        W33197  34.520  44.333  13.442
73662W        W33198  11.635  39.810   4.198
73663W        W33199  33.604  21.109   4.177
73664W        W33200  25.058  30.011  11.910
73665W        W33201  35.535  20.271  14.994
73666W        W33202  28.113  22.632  10.057
73667W        W33203  26.584  25.549  14.894
73668W        W33204  43.490  28.054  11.500
73669W        W33205  19.261  11.275  13.876
73670W        W33206  13.115  18.248   0.364
73671W        W33207  19.761  10.826  14.003
73672W        W33208  30.568  40.048  11.372
73673W        W33209  14.300  16.778  11.461
73674W        W33210  28.444   7.742  14.407
73675W        W33211  34.002  29.036   2.734
73676W        W33212  37.414  39.866   2.785
73677W        W33213  29.575   8.797   1.220
73678W        W33214  24.167  38.980   3.708
73679W        W33215  43.313  29.594  10.578
73680W        W33216   6.696  13.650  12.386
73681W        W33217   6.331  19.608  10.480
73682W        W33218   1.967  27.516  12.895
73683W        W33219   2.396  23.681  10.470
73684W        W33220   1.341   3.888   1.910
73685W        W33221  43.934  34.056   4.715
73686W        W33222  30.469  24.538   4.741
73687W        W33223  36.032  37.495  10.963
73688W        W33224  35.008   6.307  14.306
73689W        W33225  19.281  27.455   2.286
73690W        W33226  35.504  15.328  12.534
73691W        W33227  29.994  12.637  13.492
73692W        W33228  21.204  17.800  10.562
73693W        W33229   7.769  12.611  13.049
73694W        W33230  27.157  24.186   4.205
73695W        W33231   6.749  29.040  11.973
73696W        W33232  10.221  18.135   4.810
73697W        W33233  15.716  23.220  13.792
73698W        W33234   3.257   6.702   4.244
73699W        W33235  39.005  37.432  10.466
73700W        W33236  32.459  22.079  13.345
73701W        W33237  38.560  17.649  11.401
73702W        W33238  35.512  42.939   4.681
73703W        W33239  36.439  16.218  10.998
73704W        W33240   3.891  18.267  14.971
73705W        W33241  17.675   6.399  10.567
73706W        W33242  41.913  34.021   3.866
73707W        W33243   5.846  13.246   3.735
73708W        W33244  30.927  44.919   4.812
73709W        W33245  15.739  41.367   1.303
73710W        W33246  41.360  44.945  11.420
73711W        W33247   7.782  38.854  11.048
73712W        W33248  20.739   3.321   3.361
73713W        W33249  29.999  33.570  14.015
73714W        W33250   7.197  23.559   4.675
73715W        W33251  28.182  40.428  11.013
73716W        W33252  29.612  14.099  14.933
73717W        W33253   2.815   8.846  11.056
73718W        W33254   9.742  26.547  12.849
73719W        W33255   7.815   3.337  12.502
73720W        W33256  24.655   1.424  13.869
73721W        W33257  29.073  44.496  12.432
73722W        W33258  10.789  22.115   3.762
73723W        W33259  10.315  13.802  12.341
73724W        W33260   0.926  31.060   0.793
73725W        W33261  32.617  13.646  11.422
73726W        W33262  33.917   7.875   3.307
73727W        W33263  43.865  13.632   3.836
73728W        W33264  31.595   2.331  10.547
73729W        W33265  29.067   4.843   4.222
73730W        W33266  35.084  29.636   3.356
73731W        W33267  17.082   2.766  13.884
73732W        W33268  27.983  34.461   2.751
73733W        W33269  11.794  35.033   5.277
73734W        W33270  10.653  42.517  14.031
73735W        W33271  30.483   2.278  13.981
73736W        W33272  28.989  17.790  10.502
73737W        W33273  22.154  30.083  12.387
73738W        W33274  44.933  15.673   4.172
73739W        W33275  37.376  17.671  12.574
73740W        W33276  31.420  26.629  12.351
73741W        W33277   8.263  43.348  12.432
73742W        W33278   1.855  32.452  10.440
73743W        W33279  18.772  10.755  14.913
73744W        W33280   6.223   0.277   2.758
73745W        W33281  43.504  28.036   0.762
73746W        W33282  39.833  22.723  10.521
73747W        W33283  21.189   9.291   0.800
73748W        W33284  16.572  25.547   0.925
73749W        W33285   4.710  10.668  14.979
73750W        W33286   4.882  31.595  11.453
73751W        W33287  33.999   2.793   3.239
73752W        W33288  35.555   1.969  12.056
73753W        W33289   9.780  23.112  10.567
73754W        W33290  15.598  31.622  14.301
73755W        W33291  11.822   3.237   9.989
73756W        W33292  20.700  31.424   1.312
73757W        W33293   6.342   0.936  14.836
73758W        W33294  35.009  23.540   1.348
73759W        W33295  15.656  22.671   4.665
73760W        W33296  24.619  23.551   2.813
73761W        W33297  19.615  27.089  11.396
73762W        W33298  31.493  34.875   3.216
73763W        W33299  16.312   0.294   0.735
73764W        W33300   2.279  22.522  11.372
73765W        W33301  12.640  33.445   2.210
73766W        W33302  10.190  18.787  10.997
73767W        W33303  25.629  16.264  14.374
73768W        W33304  13.129  15.804  10.514
73769W        W33305  43.346  13.115   0.891
73770W        W33306  19.042  28.044  10.405
73771W        W33307   2.869  25.110  12.950
73772W        W33308   0.844  18.782   4.733
73773W        W33309  38.826  38.387  10.985
73774W        W33310   4.299  42.976  13.796
73775W        W33311  15.305  14.632  12.909
73776W        W33312  23.172  32.447   3.155
73777W        W33313  40.351  39.367  14.278
73778W        W33314  12.621  19.120  13.017
73779W        W33315  24.621   4.353  12.855
73780W        W33316   5.251  10.877   1.400
73781W        W33317   4.284  30.537   2.802
73782W        W33318  12.247  32.121  14.409
73783W        W33319  22.608  25.978   1.702
73784W        W33320   3.372  10.164   3.173
73785W        W33321  12.189   1.895  12.009
73786W        W33322  22.717  22.024   3.806
73787W        W33323  16.635  11.805  14.991
73788W        W33324  21.192  20.094  12.419
73789W        W33325  22.732   2.736   0.811
73790W        W33326  38.060  21.048  11.974
73791W        W33327   2.415   6.773  14.460
73792W        W33328   4.712  15.224   3.644
73793W        W33329   5.868  43.890  14.825
73794W        W33330  23.023   9.171  13.983
73795W        W33331  16.230  25.196  13.958
73796W        W33332  36.568   3.739  11.550
73797W        W33333   0.398  16.087  11.394
73798W        W33334   3.713  32.435  13.973
73799W        W33335  36.905   0.248  13.349
73800W        W33336  14.643  29.505   2.677
73801W        W33337  22.122  20.274   0.433
73802W        W33338  23.220   3.283   4.249
73803W        W33339  24.670  24.525  11.089
73804W        W33340  13.793  33.493  11.584
73805W        W33341  15.228  21.678  12.848
73806W        W33342  41.491  22.631  12.422
73807W        W33343  41.405  26.506  14.432
73808W        W33344  35.984  44.339  13.861
73809W        W33345  44.279   4.212  11.986
73810W        W33346  27.032  26.615   2.876
73811W        W33347  20.062  12.262  10.888
73812W        W33348  21.029  44.959   1.417
73813W        W33349   9.274  15.087   3.290
73814W        W33350  12.805  12.854  12.051
73815W        W33351  15.115  15.165  11.009
73816W        W33352  26.662  20.181   1.750
73817W        W33353  30.587  23.206  12.368
73818W        W33354   0.801   3.362   0.370
73819W        W33355  11.174  17.611  11.053
73820W        W33356  13.721  40.542   2.376
73821W        W33357  32.902  11.191   3.309
73822W        W33358   7.725   8.819   0.788
73823W        W33359  39.914  26.556  12.918
73824W        W33360  26.011  11.686   3.163
73825W        W33361  10.216  14.741   0.917
73826W        W33362  39.395  29.608   2.710
73827W        W33363  28.938   8.224   4.722
73828W        W33364  14.234  43.495  11.031
73829W        W33365  36.547   4.886  12.525
73830W        W33366  12.648   0.891   1.850
73831W        W33367  32.071  37.580  12.036
73832W        W33368  28.516  30.448   2.333
73833W        W33369  31.955  13.351   1.286
73834W        W33370   4.208  26.656   2.353
73835W        W33371  25.509   3.829   4.254
73836W        W33372  13.320  33.116   0.250
73837W        W33373  18.204  27.946   2.803
73838W        W33374   6.229  19.232   1.381
73839W        W33375  40.525  29.060   2.756
73840W        W33376  38.833  31.620   1.756
73841W        W33377   1.924  24.664   3.760
73842W        W33378  38.466  41.306  12.480
73843W        W33379  43.952  11.753   3.761
73844W        W33380  31.076  37.061  10.490
73845W        W33381  41.883  42.402   2.874
73846W        W33382  16.582   6.700  11.580
73847W        W33383  44.427  12.638  11.521
73848W        W33384  36.086  33.429  12.366
73849W        W33385   7.776  23.996   1.225
73850W        W33386  11.808   5.288   1.358
73851W        W33387  15.180   5.791  12.386
73852W        W33388  12.711  32.988  13.921
73853W        W33389  28.114   8.347   2.816
73854W        W33390  19.567  21.100  10.489
73855W        W33391   8.222  22.652  14.918
73856W        W33392  44.922  16.131   1.758
73857W        W33393  36.890  40.990  12.413
73858W        W33394  41.313  18.226  12.025
73859W        W33395  21.618  17.151  10.972
73860W        W33396   4.314  18.606  12.502
73861W        W33397   6.206  21.047  14.321
73862W        W33398  24.627  26.619  12.463
73863W        W33399  42.478   9.648  13.021
73864W        W33400  24.162  26.055   4.775
73865W        W33401  17.748  28.144   4.691
73866W        W33402  39.468  33.478   0.793
73867W        W33403  26.674  42.455  12.844
73868W        W33404  31.631  32.069  12.527
73869W        W33405   7.696  26.206  11.095
73870W        W33406  27.991  29.056   2.846
73871W        W33407  28.482  12.839   4.745
73872W        W33408  43.829  27.197   2.748
73873W        W33409   2.879  40.520   2.194
73874W        W33410  37.858   4.383   0.458
73875W        W33411  18.630  16.127  11.884
73876W        W33412   9.856  33.573   2.677
73877W        W33413  19.182  17.304   3.706
73878W        W33414  42.430  19.547   3.837
73879W        W33415  31.955  37.564   0.355
73880W        W33416  21.127   6.379   2.407
73881W        W33417  37.979  16.290   4.760
73882W        W33418  15.293  26.075  14.998
73883W        W33419  14.650   2.748   0.263
73884W        W33420  15.318   3.225  13.062
73885W        W33421  30.417   7.847  10.596
73886W        W33422  17.135   7.840  13.037
73887W        W33423  38.527  43.998  12.932
73888W        W33424  17.598  40.909  14.893
73889W        W33425  35.565  34.948   3.669
73890W        W33426  23.090  29.525  11.116
73891W        W33427   3.869  11.294   0.755
73892W        W33428  27.994  41.946   0.877
73893W        W33429  10.330  41.012   3.817
73894W        W33430  40.950  34.903  11.411
73895W        W33431   9.352   6.853  12.859
73896W        W33432   3.913  13.302   0.888
73897W        W33433  26.612  24.608   4.156
73898W        W33434  40.538  43.873  10.569
73899W        W33435  30.446  41.379  10.430
73900W        W33436  25.628   9.839  14.474
73901W        W33437   0.355  16.728  13.984
73902W        W33438   9.851  28.517  11.105
73903W        W33439  20.745  20.075  13.452
73904W        W33440   4.293   1.804  14.993
73905W        W33441   5.308  18.122   3.270
73906W        W33442  41.963  24.587   1.733
73907W        W33443   6.790  24.126  10.999
73908W        W33444  31.473  20.677  10.950
73909W        W33445  26.559  16.740  11.588
73910W        W33446  20.050  31.903   4.271
73911W        W33447  33.548  27.987   0.470
73912W        W33448  31.485  19.617  13.351
73913W        W33449   3.771  17.751   1.413
73914W        W33450  25.048  12.300   1.929
73915W        W33451  20.582  25.492   0.366
73916W        W33452  20.729  24.095  14.496
73917W        W33453  30.624   2.323  11.565
73918W        W33454  18.254  41.321   1.715
73919W        W33455  11.857   4.839  13.991
73920W        W33456  17.229  13.236   2.352
73921W        W33457  37.342  35.398  11.547
73922W        W33458  13.138   3.333   2.381
73923W        W33459   9.376   4.357  13.867
73924W        W33460  38.027  33.918  14.887
73925W        W33461   7.860  36.854   2.857
73926W        W33462  33.599  16.091   3.194
73927W        W33463  36.489  13.608   2.382
73928W        W33464  21.174  42.454  11.895
73929W        W33465  41.300   1.747   0.960
73930W        W33466   5.388   7.282   1.245
73931W        W33467  29.936  12.188  12.054
73932W        W33468  40.975  39.996   4.780
73933W        W33469  13.617  27.650   4.675
73934W        W33470  28.443   6.820  14.897
73935W        W33471  22.533  21.192   0.265
73936W        W33472   3.328  44.430  12.054
73937W        W33473  42.009  44.301   0.961
73938W        W33474  17.202  17.649   4.721
73939W        W33475  30.945   1.426  12.884
73940W        W33476   4.699  22.543   0.347
73941W        W33477  31.980  10.792   1.406
73942W        W33478  18.149  39.468   2.416
73943W        W33479  27.033  10.201   0.749
73944W        W33480  23.695  18.687  11.600
73945W        W33481  12.215  28.159  10.476
73946W        W33482  22.017   3.737   4.207
73947W        W33483  40.889  15.623  14.774
73948W        W33484  33.516   3.925  11.118
73949W        W33485  24.495  37.011  12.062
73950W        W33486  29.085  44.372   3.753
73951W        W33487  40.362  41.851  12.910
73952W        W33488  21.679   1.283  12.568
73953W        W33489  21.235  44.494   4.665
73954W        W33490  32.890  29.631  12.868
73955W        W33491  12.711  18.099  13.804
73956W        W33492  32.061  19.062   4.715
73957W        W33493   0.777  38.991  11.943
73958W        W33494   8.171   9.760   4.670
73959W        W33495   1.474  30.981  13.918
73960W        W33496   0.874  13.200  13.930
73961W        W33497  22.239  21.547  13.394
73962W        W33498  32.896  31.504  14.440
73963W        W33499  41.393  19.764   3.373
73964W        W33500  13.243  42.840   3.373
73965W        W33501  42.960  41.866   1.848
73966W        W33502  29.063  32.630  13.986
73967W        W33503  19.137   6.210   2.794
73968W        W33504  37.031  28.517  10.937
73969W        W33505  16.706  18.093   0.319
73970W        W33506  29.615  22.529   0.755
73971W        W33507  35.433   5.791   1.299
73972W        W33508  21.067  19.215   4.835
73973W        W33509  41.913  30.475   3.643
73974W        W33510  24.514   0.421  12.451
73975W        W33511   3.846  10.194  11.115
73976W        W33512  25.174  25.194  13.063
73977W        W33513  21.729   6.823   2.903
73978W        W33514  18.767   5.706   1.228
73979W        W33515  25.614  18.079  12.966
73980W        W33516   2.303   5.338   1.773
73981W        W33517  19.062  24.513  13.813
73982W        W33518  14.265  41.886  11.579
73983W        W33519  16.605  31.594   3.740
73984W        W33520  37.020  20.526   0.437
73985W        W33521  25.502   7.745   3.673
73986W        W33522  29.960   0.363   1.438
73987W        W33523  32.566  22.622  12.366
73988W        W33524  44.882   0.425   1.781
73989W        W33525  30.438   8.222   2.383
73990W        W33526   6.202  38.880  11.871
73991W        W33527  15.246  41.794   4.797
73992W        W33528  26.580  31.903  12.469
73993W        W33529   7.911  37.967  14.981
73994W        W33530  29.571  23.511   2.417
73995W        W33531   5.900  16.573  12.887
73996W        W33532   0.854   2.875  14.311
73997W        W33533   8.700   7.831   5.245
73998W        W33534  29.505  27.086  12.565
73999W        W33535  13.182   3.325   4.605
74000W        W33536  41.982  28.595  12.363
74001W        W33537  44.864  23.491  12.079
74002W        W33538  23.043   9.368   2.853
74003W        W33539  44.365  15.118   4.734
74004W        W33540  36.448  12.246  12.859
74005W        W33541  44.783  31.076   3.293
74006W        W33542  41.947  27.950   2.254
74007W        W33543   1.748   6.789  13.490
74008W        W33544  21.099  11.677  14.992
74009W        W33545  29.670  14.229  11.426
74010W        W33546  18.175  20.267   0.480
74011W        W33547   1.957  19.181   2.199
74012W        W33548  35.853  26.015  12.006
74013W        W33549  30.537  44.944  10.556
74014W        W33550  21.607  21.592   3.223
74015W        W33551   1.447  32.932   4.609
74016W        W33552   7.235   9.730   4.687
74017W        W33553   4.329   1.457  12.460
74018W        W33554  37.944  25.588  10.999
74019W        W33555  42.882  26.145  10.125
74020W        W33556   4.788  26.048  11.928
74021W        W33557  15.242  25.212   0.934
74022W        W33558  14.320  41.845  13.316
74023W        W33559  23.604  10.870  14.449
74024W        W33560  16.077  14.121  12.449
74025W        W33561  28.542  28.456  14.414
74026W        W33562  13.686   2.954  12.365
74027W        W33563  33.131   3.836   3.671
74028W        W33564  20.699  16.667   0.396
74029W        W33565  23.180  23.076   1.928
74030W        W33566  39.895  29.019   3.741
74031W        W33567  14.755  39.896   0.302
74032W        W33568  12.636  34.557  13.058
74033W        W33569  11.628  36.021   2.882
74034W        W33570  36.517  32.922  14.901
74035W        W33571  33.035  11.310  11.861
74036W        W33572  31.446  16.103  14.919
74037W        W33573  38.844  41.004  11.040
74038W        W33574  29.064   7.174  12.979
74039W        W33575  42.506   2.749  11.403
74040W        W33576  14.229   5.271  12.991
74041W        W33577  25.200  33.056   2.839
74042W        W33578  39.995  22.210  10.986
74043W        W33579  13.161   2.957  12.346
74044W        W33580  35.426  28.032   2.725
74045W        W33581  27.102   2.431  12.990
74046W        W33582   5.253   0.924  10.921
74047W        W33583  10.691  29.480  11.451
74048W        W33584  36.556  32.127   4.148
74049W        W33585  13.610  31.038   4.232
74050W        W33586   3.873   3.717  11.436
74051W        W33587  27.519  11.845  14.831
74052W        W33588   6.739   4.914  12.430
74053W        W33589   4.753  20.042  13.928
74054W        W33590  22.639  20.558   3.730
74055W        W33591  20.247  43.290  11.993
74056W        W33592   2.725   3.317  11.949
74057W        W33593  41.538  35.401  14.955
74058W        W33594  37.884   8.388   2.769
74059W        W33595  32.417  17.131  14.872
74060W        W33596  42.967  19.078  14.444
74061W        W33597  39.962   5.892  10.931
74062W        W33598  18.755   8.710   1.221
74063W        W33599   6.686   4.762   1.360
74064W        W33600  33.499   8.263   3.823
74065W        W33601  37.876  18.725   3.709
74066W        W33602  41.904   6.386   1.903
74067W        W33603   9.232  25.207  14.327
74068W        W33604  11.741  12.331  14.014
74069W        W33605   5.246   1.409  14.956
74070W        W33606   2.394  13.728  13.422
74071W        W33607   0.490  21.755   0.900
74072W        W33608   7.402  27.612   3.861
74073W        W33609   9.252  42.858  10.930
74074W        W33610   9.319  18.702  14.814
74075W        W33611  33.605  12.806  14.370
74076W        W33612  33.484  44.981  11.607
74077W        W33613   7.755  42.954  11.093
74078W        W33614  21.144   7.689   3.707
74079W        W33615  31.599  42.945  11.121
74080W        W33616   8.859   9.333  14.840
74081W        W33617   5.286   2.829   2.842
74082W        W33618  29.138   3.216   0.397
74083W        W33619  42.782  26.958  13.466
74084W        W33620   3.301   5.735  13.845
74085W        W33621  16.774  29.556   4.720
74086W        W33622   6.399   7.178   2.212
74087W        W33623  37.569   8.269  14.953
74088W        W33624  32.608  10.870  14.009
74089W        W33625   6.706  14.783   4.628
74090W        W33626  23.197  43.498   3.697
74091W        W33627  42.942   5.269  11.398
74092W        W33628  34.894  36.415   4.686
74093W        W33629   9.687  35.921  12.842
74094W        W33630  38.982  24.009   0.248
74095W        W33631  11.158  17.577  13.539
74096W        W33632  30.022   1.815   0.432
74097W        W33633  12.161  39.942   0.841
74098W        W33634   9.165  13.168  12.923
74099W        W33635  21.551  34.604   0.341
74100W        W33636   7.329  20.221   0.737
74101W        W33637  29.134  13.786   3.192
74102W        W33638  22.198  44.354  10.511
74103W        W33639  38.016  21.203  14.848
74104W        W33640  31.001  26.671  12.357
74105W        W33641  42.427  38.452  13.902
74106W        W33642  11.291   6.205  14.495
74107W        W33643  20.029  22.725   2.391
74108W        W33644  39.967  25.573   2.337
74109W        W33645  12.359  13.339  13.425
74110W        W33646  42.914  38.992   1.933
74111W        W33647  37.525  31.428   2.321
74112W        W33648  41.946  40.807  13.417
74113W        W33649  18.764  42.959  11.987
74114W        W33650  41.420  10.216  14.921
74115W        W33651   9.800  25.984  12.897
74116W        W33652   6.888  36.086   0.732
74117W        W33653  43.909   9.185   2.197
74118W        W33654   0.398   1.753  10.639
74119W        W33655  25.518   5.417   3.249
74120W        W33656  18.097  25.473   1.231
74121W        W33657  35.883   4.328   2.704
74122W        W33658  11.247  30.498   3.717
74123W        W33659  22.204  33.125   0.385
74124W        W33660  11.251  34.997  14.314
74125W        W33661  35.001  16.265   3.768
74126W        W33662  17.559   1.864  12.460
74127W        W33663  22.145  11.327   3.716
74128W        W33664  16.748  32.435   4.782
74129W        W33665   8.390  44.992   1.744
74130W        W33666  13.261  23.145  10.623
74131W        W33667  12.326  19.200  14.855
74132W        W33668  35.597  20.221   2.259
74133W        W33669  31.068   9.667  14.425
74134W        W33670  10.151  42.402   0.338
74135W        W33671   2.428  42.002   0.291
74136W        W33672   3.275   3.807  13.420
74137W        W33673  44.426   7.206   0.435
74138W        W33674  16.096   0.837   4.220
74139W        W33675  39.055   6.702   3.738
74140W        W33676  27.501   4.811   3.161
74141W        W33677   6.367  43.384  14.799
74142W        W33678   6.738  10.680  14.998
74143W        W33679  32.536  16.228   3.704
74144W        W33680  44.810  31.530   2.293
74145W        W33681   8.804  38.995   3.344
74146W        W33682  35.558  23.059   0.474
74147W        W33683   9.847  29.030   2.896
74148W        W33684  26.672  41.299  10.635
74149W        W33685  18.637  41.357   1.237
74150W        W33686  15.732  36.879  14.978
74151W        W33687  11.710   6.867   4.261
74152W        W33688  44.287   5.202  10.471
74153W        W33689  29.585  10.310   0.914
74154W        W33690  36.895  19.236  11.962
74155W        W33691  39.027  18.583  13.310
74156W        W33692  20.647  20.624  12.533
74157W        W33693  11.360  34.990   2.340
74158W        W33694  16.316  29.473   0.258
74159W        W33695   9.644  24.519   4.619
74160W        W33696  26.497  34.928   4.742
74161W        W33697  24.703  12.819  14.867
74162W        W33698  30.975   4.912  11.897
74163W        W33699  33.093  42.874   3.205
74164W        W33700  33.551  27.142   1.708
74165W        W33701  19.731  16.273  13.059
74166W        W33702  29.598  14.807   0.442
74167W        W33703  14.272  39.996  11.403
74168W        W33704  41.956  23.007   0.399
74169W        W33705  33.085  38.975  10.529
74170W        W33706  43.951  14.624  14.811
74171W        W33707  23.727  40.054   0.440
74172W        W33708  26.957  42.003  13.428
74173W        W33709   6.328  40.477   3.703
74174W        W33710  40.935   5.315   0.892
74175W        W33711  38.064  43.441   3.724
74176W        W33712  12.722  32.593   1.275
74177W        W33713  16.725  19.122  13.521
74178W        W33714  44.770  19.657   3.377
74179W        W33715  25.478  38.533  12.402
74180W        W33716  40.343   6.698   0.281
74181W        W33717   7.665   8.229   2.340
74182W        W33718  28.649  39.836  10.469
74183W        W33719   2.259  14.166  14.379
74184W        W33720   8.779  16.571   1.808
74185W        W33721  10.710   3.809   4.323
74186W        W33722   9.236  23.212  14.389
74187W        W33723  37.355  18.278  13.930
74188W        W33724  38.446  34.558  14.499
74189W        W33725   1.312   3.418  10.526
74190W        W33726  27.691  30.427   1.834
74191W        W33727   1.765  32.015  12.565
74192W        W33728  19.683   8.836  10.932
74193W        W33729  23.240  21.246   1.306
74194W        W33730  21.527   9.162  11.411
74195W        W33731   0.883  35.973  10.945
74196W        W33732  29.432  10.184  11.400
74197W        W33733  27.048  42.413   2.395
74198W        W33734   3.245   6.417   3.810
74199W        W33735  23.120   8.801  10.947
74200W        W33736  32.891  11.169  11.490
74201W        W33737  10.246  17.784   3.283
74202W        W33738   5.393  36.967   2.742
74203W        W33739  41.920  37.915  10.494
74204W        W33740  28.563  32.966   3.744
74205W        W33741  33.396  23.059   3.232
74206W        W33742  25.093  19.251  12.060
74207W        W33743  23.046   9.746   1.311
74208W        W33744  21.581  36.046  13.539
74209W        W33745  41.323   1.880  11.530
74210W        W33746  38.392  32.068  11.940
74211W        W33747  35.893  10.845   0.284
74212W        W33748  44.407  39.999   2.895
74213W        W33749  41.954  13.329   3.773
74214W        W33750   7.233  24.021  13.024
74215W        W33751  14.310  17.680  11.084
74216W        W33752  35.098   8.841  10.418
74217W        W33753  19.281  18.168  11.489
74218W        W33754   9.244  22.636  12.457
74219W        W33755  16.724  30.136  10.996
74220W        W33756   2.315  33.513   2.380
74221W        W33757  29.948   5.380   2.806
74222W        W33758  33.939   3.909  12.386
74223W        W33759  42.996  13.797  12.079
74224W        W33760  35.879   4.436   0.448
74225W        W33761   5.305  33.523  10.455
74226W        W33762   2.295   1.912  10.959
74227W        W33763  44.959  14.762   5.258
74228W        W33764  28.067  37.451   5.285
74229W        W33765  39.540  31.108  10.549
74230W        W33766  12.785  31.459   4.746
74231W        W33767   8.282  16.103   4.285
74232W        W33768  21.112  34.046   1.724
74233W        W33769  21.710  44.829  11.996
74234W        W33770  14.324  20.591  14.794
74235W        W33771  20.051  32.053   4.828
74236W        W33772   7.668  17.731  10.957
74237W        W33773   8.238  10.860   4.268
74238W        W33774   6.193  28.482   1.907
74239W        W33775  11.757  32.031  11.554
74240W        W33776  22.010  26.082   4.309
74241W        W33777  31.943  21.543   2.867
74242W        W33778  13.205  33.385  13.362
74243W        W33779   1.887  26.543   5.317
74244W        W33780  17.790  13.612  14.029
74245W        W33781  33.593   5.242  11.407
74246W        W33782  31.022  39.821   2.902
74247W        W33783  43.440  14.763  14.326
74248W        W33784  34.516  24.067   2.249
74249W        W33785  33.487  36.489  12.510
74250W        W33786  42.466   1.393   3.224
74251W        W33787  42.813   1.459  12.936
74252W        W33788  22.089  39.841  12.352
74253W        W33789  12.362  16.245   1.261
74254W        W33790   4.438  40.324   0.757
74255W        W33791  24.667   6.319  13.998
74256W        W33792  27.067  16.141   2.730
74257W        W33793  40.920  33.450  11.122
74258W        W33794  28.487  23.022   2.200
74259W        W33795  29.094  30.647   4.232
74260W        W33796  32.433   0.457   0.288
74261W        W33797  20.684   6.869  12.847
74262W        W33798  15.152  12.694  13.403
74263W        W33799  18.603   8.665   4.773
74264W        W33800  26.593  16.300   0.260
74265W        W33801  40.394  17.092   1.766
74266W        W33802  12.812   9.728  12.434
74267W        W33803   8.344  18.666   0.402
74268W        W33804  26.521   9.367   1.385
74269W        W33805  17.708  27.533   2.806
74270W        W33806  40.010  29.162   4.340
74271W        W33807  33.578  26.595   1.699
74272W        W33808   4.370  24.097   3.367
74273W        W33809  40.865  37.369  11.899
74274W        W33810   0.834   7.196  10.098
74275W        W33811  37.965  18.767  13.895
74276W        W33812  33.545   5.375   1.243
74277W        W33813   6.355  44.868   4.698
74278W        W33814  16.686   7.803   4.733
74279W        W33815  28.475  26.548   3.261
74280W        W33816  10.154  35.013   4.273
74281W        W33817  18.144  29.120   2.679
74282W        W33818   4.380  35.942   0.728
74283W        W33819  20.626  34.521   4.114
74284W        W33820  10.167  23.541  14.975
74285W        W33821  33.497  13.736  14.407
74286W        W33822   5.260  27.567   1.380
74287W        W33823  32.959  29.493   3.818
74288W        W33824  23.042  34.987   2.188
74289W        W33825  44.410  24.153  10.989
74290W        W33826  10.192  41.789   1.261
74291W        W33827  13.300  35.994   3.176
74292W        W33828  31.464  23.645   3.154
74293W        W33829  10.265   2.903  12.512
74294W        W33830  41.927  14.151   1.694
74295W        W33831  34.020  33.921   1.244
74296W        W33832   7.228  26.568   9.585
74297W        W33833  27.950  27.955   3.701
74298W        W33834  37.877  19.671   5.189
74299W        W33835   0.306   3.275   1.358
74300W        W33836  20.714  11.225  12.482
74301W        W33837  27.680  13.734   3.737
74302W        W33838   2.243  29.453  12.436
74303W        W33839   2.286  29.142  13.969
74304W        W33840  31.067   3.856   4.147
74305W        W33841  23.163  27.534   1.446
74306W        W33842   7.295  17.780   0.446
74307W        W33843  37.503  11.651   1.267
74308W        W33844  32.519  43.465  11.580
74309W        W33845  18.713  37.434   2.714
74310W        W33846  32.012  41.329   4.215
74311W        W33847   7.892  20.717   4.795
74312W        W33848  41.510  35.970   4.614
74313W        W33849  34.049  42.852  13.057
74314W        W33850  40.852  30.482  13.506
74315W        W33851   5.902   9.180   4.782
74316W        W33852  23.625  22.729   4.821
74317W        W33853  32.981  10.153   1.778
74318W        W33854  18.264  28.954  12.949
74319W        W33855   6.281  36.570  14.316
74320W        W33856  28.460  33.013  14.280
74321W        W33857  23.549  10.254   0.838
74322W        W33858  11.754  31.536  13.912
74323W        W33859   5.732  42.441   1.923
74324W        W33860  39.417  16.208  11.961
74325W        W33861  19.171  41.036  14.882
74326W        W33862   2.890  38.483  14.378
74327W        W33863   0.984   4.277  13.331
74328W        W33864   3.779  33.082  14.855
74329W        W33865  25.138  19.090   2.821
74330W        W33866  30.458  18.686  10.901
74331W        W33867   6.706  31.898   2.827
74332W        W33868  35.577   0.852   2.322
74333W        W33869  20.265  19.063  11.400
74334W        W33870  19.182  12.290  11.951
74335W        W33871  13.781  23.043  12.020
74336W        W33872   0.981  26.558  12.521
74337W        W33873   5.697  16.772   1.378
74338W        W33874  24.132  20.091  14.984
74339W        W33875   1.397  44.961   4.324
74340W        W33876   4.279  37.542   2.230
74341W        W33877  15.317  33.539  14.430
74342W        W33878  13.197  23.524  14.315
74343W        W33879  29.523  44.766   0.258
74344W        W33880  23.728  19.039  14.300
74345W        W33881   2.456   2.410   3.795
74346W        W33882   5.434  33.558  10.004
74347W        W33883  33.546  26.080  14.464
74348W        W33884  24.723  12.828  14.471
74349W        W33885  36.094  11.264  12.094
74350W        W33886   4.735  11.723  10.625
74351W        W33887  38.842  18.115  11.544
74352W        W33888  32.912  37.373  12.940
74353W        W33889  32.062  27.614  12.963
74354W        W33890  39.424  37.964   4.140
74355W        W33891  18.067  18.202   4.610
74356W        W33892  30.985   9.666  12.424
74357W        W33893  18.694   1.390   3.302
74358W        W33894  21.209  32.506  11.522
74359W        W33895  26.572  19.192  12.563
74360W        W33896  19.213  36.489   4.184
74361W        W33897   4.739   5.237   4.187
74362W        W33898   8.770  29.625   5.257
74363W        W33899   8.294  42.934   2.758
74364W        W33900  24.576  20.637   0.726
74365W        W33901  26.070   3.237   1.220
74366W        W33902  31.577   6.230   3.310
74367W        W33903  24.216  20.649  14.774
74368W        W33904   2.896  13.702   3.342
74369W        W33905  11.194  15.690   4.247
74370W        W33906  31.505  36.523   4.198
74371W        W33907  36.527  26.496  13.307
74372W        W33908  29.539  22.030  12.965
74373W        W33909  30.062   3.893  13.053
74374W        W33910  44.437  15.589  12.570
74375W        W33911  35.547  28.975   4.643
74376W        W33912  40.383  28.641  14.414
74377W        W33913  19.229  11.352  13.391
74378W        W33914   7.417  27.065  12.491
74379W        W33915  15.733  26.034   2.282
74380W        W33916  13.824  40.029  14.007
74381W        W33917  28.538  41.946   1.287
74382W        W33918   2.722  26.036  14.869
74383W        W33919  44.895  17.748   3.177
74384W        W33920   8.660  42.858  13.001
74385W        W33921   1.439  22.694  10.928
74386W        W33922  27.136   5.354   2.356
74387W        W33923  32.082   4.388   2.194
74388W        W33924   7.665  19.270  12.845
74389W        W33925   0.391  27.035   3.356
74390W        W33926  26.079   6.376   2.285
74391W        W33927  16.609  26.184  11.067
74392W        W33928  36.852   4.376  14.877
74393W        W33929  11.151  13.720   1.864
74394W        W33930  19.594  38.966   0.288
74395W        W33931  11.785  27.084  13.434
74396W        W33932  16.143  24.658  14.909
74397W        W33933  12.329  44.494  14.852
74398W        W33934  26.572   5.222  10.970
74399W        W33935  38.372  27.533   4.211
74400W        W33936  19.099   9.244   0.947
74401W        W33937   1.822   2.722  14.371
74402W        W33938  11.676  28.964  14.418
74403W        W33939  44.910  18.082  11.017
74404W        W33940  25.486  26.118  11.586
74405W        W33941  29.615   9.353   2.358
74406W        W33942  19.173  29.585   0.449
74407W        W33943   0.853   9.306  12.411
74408W        W33944  16.226   7.871  14.902
74409W        W33945  32.406  31.456   1.818
74410W        W33946  31.044   2.773  12.508
74411W        W33947  24.488  43.371  13.482
74412W        W33948  12.617  37.518  12.474
74413W        W33949  44.329  36.956  14.858
74414W        W33950   3.234  11.275  11.609
74415W        W33951  18.669  22.250   4.807
74416W        W33952  41.368  24.501  14.948
74417W        W33953  14.149  17.188   2.893
74418W        W33954  33.072  13.278   3.846
74419W        W33955   2.837  14.773  12.862
74420W        W33956   0.271  18.244   1.429
74421W        W33957  27.025  19.543   3.343
74422W        W33958  30.076   8.173   0.761
74423W        W33959  39.902  24.598  12.022
74424W        W33960   7.399   7.332  11.575
74425W        W33961  16.648  34.607  10.895
74426W        W33962  20.636   4.278   1.849
74427W        W33963  17.752  22.215   4.834
74428W        W33964  20.163  31.414   0.739
74429W        W33965  35.374  23.637   4.642
74430W        W33966  30.635   0.918   3.210
74431W        W33967  14.788  21.721   5.729
74432W        W33968  28.132  37.461   1.700
74433W        W33969  21.557  25.172   4.271
74434W        W33970  43.282  38.543  12.993
74435W        W33971  42.806   9.169  14.288
74436W        W33972  10.201  12.134  13.951
74437W        W33973  43.401  13.613  13.826
74438W        W33974  28.561  44.792   4.122
74439W        W33975  15.742  33.983   3.307
74440W        W33976  13.342  32.116  12.406
74441W        W33977  15.116  14.697  11.025
74442W        W33978  32.067   6.326   2.693
74443W        W33979  11.740  22.713  13.797
74444W        W33980  35.503  39.395  11.594
74445W        W33981  15.117  36.052   0.398
74446W        W33982  27.025  31.570   1.279
74447W        W33983  35.412  19.086  11.869
74448W        W33984  39.447  31.464   3.217
74449W        W33985   1.797  20.528  14.395
74450W        W33986  35.906  23.059   0.955
74451W        W33987  26.959  39.934  12.048
74452W        W33988  24.017  30.470  13.002
74453W        W33989   6.339  20.681  12.398
74454W        W33990  34.580  33.546   3.318
74455W        W33991  39.857   2.350  10.095
74456W        W33992  14.188  18.777   2.858
74457W        W33993   5.890  20.125  12.347
74458W        W33994  33.454   2.235   0.474
74459W        W33995  44.492  28.040  13.917
74460W        W33996   8.271  14.785   4.268
74461W        W33997  32.041   6.378  12.912
74462W        W33998   4.225  31.053   3.801
74463W        W33999  37.916  29.632   1.330
74464W        W34000  30.618  28.648   4.261
74465W        W34001  21.042  34.114   2.699
74466W        W34002   0.310  17.669  14.954
74467W        W34003  26.685  13.743   0.886
74468W        W34004  41.888  30.090   1.258
74469W        W34005  34.985  21.197  13.479
74470W        W34006  24.175  26.645   1.319
74471W        W34007  21.636   1.755  10.629
74472W        W34008  27.691  19.082   0.959
74473W        W34009   4.785  38.430   1.424
74474W        W34010  22.123  30.604   4.320
74475W        W34011  30.630   2.889  14.409
74476W        W34012  12.639  19.198  13.891
74477W        W34013  19.095  17.113  13.426
74478W        W34014  19.183  41.877  14.482
74479W        W34015   6.797   7.757  11.606
74480W        W34016   3.947  15.733  11.111
74481W        W34017   9.794  19.059   1.438
74482W        W34018  44.446  15.606  13.995
74483W        W34019   7.850  27.981  13.957
74484W        W34020  33.482  16.656   4.170
74485W        W34021  25.194  40.417  11.005
74486W        W34022  32.413  31.015  12.488
74487W        W34023  13.213   5.826  12.839
74488W        W34024  25.054  35.935  12.502
74489W        W34025  16.680  32.984  10.567
74490W        W34026   0.747  15.303   3.651
74491W        W34027  13.125  32.500  13.880
74492W        W34028   7.804  24.543  12.984
74493W        W34029  17.066  23.061   3.292
74494W        W34030  26.666  19.211  13.513
74495W        W34031  21.642  14.141   5.271
74496W        W34032   9.187  30.163  12.960
74497W        W34033  14.251  33.607   4.617
74498W        W34034  21.066  21.237   2.852
74499W        W34035  22.136  41.493  14.405
74500W        W34036   9.207  18.143  14.362
74501W        W34037   7.271  12.211   4.754
74502W        W34038   4.893  17.069   1.307
74503W        W34039  15.248  30.644  11.017
74504W        W34040   5.909  31.625   4.636
74505W        W34041  16.726  31.134  14.795
74506W        W34042  15.286  17.205  12.347
74507W        W34043   4.390  12.173   2.854
74508W        W34044  17.759  13.210  12.430
74509W        W34045  23.609  32.443   0.738
74510W        W34046   4.336  38.436   4.334
74511W        W34047  27.538  34.075   0.371
74512W        W34048  38.481  25.152   1.377
74513W        W34049  32.033  13.157  14.970
74514W        W34050  32.021   5.697   3.168
74515W        W34051  22.548  28.647   4.636
74516W        W34052  19.275  23.062   0.371
74517W        W34053  21.132  12.237   1.371
74518W        W34054  32.897  27.533  12.884
74519W        W34055  25.692   3.740  12.080
74520W        W34056  29.527  28.517   4.620
74521W        W34057  36.581   9.320  12.910
74522W        W34058  40.470   3.903  13.999
74523W        W34059  35.951  24.030  14.832
74524W        W34060  10.711  37.067  13.833
74525W        W34061   1.822  18.116   1.830
74526W        W34062  10.254  42.448  13.983
74527W        W34063  10.138   3.752   0.460
74528W        W34064  39.543  37.065   2.242
74529W        W34065  38.338   0.855   1.752
74530W        W34066  22.174  26.133   3.367
74531W        W34067  23.141  10.691  11.869
74532W        W34068  38.439  12.127   1.866
74533W        W34069  40.922  15.789  10.424
74534W        W34070  15.800  40.905   1.853
74535W        W34071  29.573   2.373  13.052
74536W        W34072  19.107  29.939   1.303
74537W        W34073  41.525  39.318  13.970
74538W        W34074  26.174  32.431  12.985
74539W        W34075  22.995  21.650   5.171
74540W        W34076   3.816  42.511   1.758
74541W        W34077  23.582  13.145   3.765
74542W        W34078  39.829   3.730  14.830
74543W        W34079  15.679   4.804   1.866
74544W        W34080  12.674  21.128   5.282
74545W        W34081  20.072   9.383  11.112
74546W        W34082   0.447  19.146   3.818
74547W        W34083  15.206  35.604   1.803
74548W        W34084   2.825   5.722   4.277
74549W        W34085  40.031  39.364   2.829
74550W        W34086  32.961   7.210  10.406
74551W        W34087  29.638  16.142   4.756
74552W        W34088  28.019  10.809   0.312
74553W        W34089   2.248  36.999  13.825
74554W        W34090   0.483   1.942  11.912
74555W        W34091  44.874  31.566   3.212
74556W        W34092  12.356  14.116   0.440
74557W        W34093  25.033  33.462   2.271
74558W        W34094  19.246  34.088   3.266
74559W        W34095  29.443  40.907  11.489
74560W        W34096   9.710  26.206  10.996
74561W        W34097   3.915  21.163   5.277
74562W        W34098  24.567   8.346   3.733
74563W        W34099  17.274  41.797  14.946
74564W        W34100  12.830  22.568  13.487
74565W        W34101  32.604  41.501   2.812
74566W        W34102  10.187  12.702  13.395
74567W        W34103  35.023  12.683  13.342
74568W        W34104  40.867  36.017   3.332
74569W        W34105   2.776  31.527  11.965
74570W        W34106  24.667  20.523   1.355
74571W        W34107  18.704  16.119   1.383
74572W        W34108  43.498  30.437  10.136
74573W        W34109  25.196  14.199  13.932
74574W        W34110   6.340  10.821   3.260
74575W        W34111  25.523  24.132  12.497
74576W        W34112   6.821  31.411   0.379
74577W        W34113  22.724  29.124   4.300
74578W        W34114  44.432  41.978  14.893
74579W        W34115  19.217   2.776  11.910
74580W        W34116  12.142  28.060   0.349
74581W        W34117   1.909  42.863  10.535
74582W        W34118  37.904   9.701  10.623
74583W        W34119   9.318  26.526   1.814
74584W        W34120  40.930  13.815   4.181
74585W        W34121  33.384   0.493   0.417
74586W        W34122   6.412  30.143  12.078
74587W        W34123  28.033  41.424  13.438
74588W        W34124  44.423  35.467  12.016
74589W        W34125  28.988  21.224  14.327
74590W        W34126  28.079  30.506   4.177
74591W        W34127  24.213  20.074  14.470
74592W        W34128  33.620   4.699   2.896
74593W        W34129   0.923  31.576   3.235
74594W        W34130  19.208  41.312   1.862
74595W        W34131  40.934  33.412  14.280
74596W        W34132  31.473  36.545  12.478
74597W        W34133  22.023   0.322  11.072
74598W        W34134  43.854  39.809   1.887
74599W        W34135  35.051  42.965  13.352
74600W        W34136  28.032  19.223  13.313
74601W        W34137  34.941  18.138   3.738
74602W        W34138  22.156  33.008   4.190
74603W        W34139  33.575   0.906   0.857
74604W        W34140  43.013   6.765  14.418
74605W        W34141  39.858  18.113   4.617
74606W        W34142  20.674  16.162  14.981
74607W        W34143  14.313  37.442  14.929
74608W        W34144  38.981  28.537   0.910
74609W        W34145  23.690  25.212   3.243
74610W        W34146   1.784   7.865   1.764
74611W        W34147  11.164  10.252  10.959
74612W        W34148  34.509  17.074  12.959
74613W        W34149  17.130  43.924   1.934
74614W        W34150  19.653  25.474  11.560
74615W        W34151  40.854   7.227  11.512
74616W        W34152  32.535   1.455  13.875
74617W        W34153  10.300  11.238  14.420
74618W        W34154  18.069  40.016  14.447
74619W        W34155  12.779  27.189   2.862
74620W        W34156  28.529  25.154  10.155
74621W        W34157  13.698  12.644  13.325
74622W        W34158   1.923  41.298   4.275
74623W        W34159  32.495   2.880   0.303
74624W        W34160  26.091  19.719  14.966
74625W        W34161   5.346  41.417   4.279
74626W        W34162   4.306  39.408   0.332
74627W        W34163  20.670  14.279  12.409
74628W        W34164  34.425  41.825  11.868
74629W        W34165  20.531  23.537   3.183
74630W        W34166   4.316   5.831  14.403
74631W        W34167  38.969  12.618  12.863
74632W        W34168  10.265  32.601  10.474
74633W        W34169   8.821  12.240   3.838
74634W        W34170  24.706  34.563   2.835
74635W        W34171   4.806  30.164   3.147
74636W        W34172  44.885   4.447  14.942
74637W        W34173  23.718   6.211   1.437
74638W        W34174  16.141  25.488  11.376
74639W        W34175  33.440  21.219  11.423
74640W        W34176  14.178  11.331  14.362
74641W        W34177  12.803   0.461  10.434
74642W        W34178  35.929  19.750   2.756
74643W        W34179  28.147   5.313   2.293
74644W        W34180  10.808   3.894  14.968
74645W        W34181  20.273   1.806  13.343
74646W        W34182   4.808  33.936  11.928
74647W        W34183   6.907   4.771  10.474
74648W        W34184  13.311  19.059   3.367
74649W        W34185  38.025   1.763   0.818
74650W        W34186   6.391  16.113   4.751
74651W        W34187  12.645  17.147   3.267
74652W        W34188  28.045   6.358  11.419
74653W        W34189  38.949   6.785  11.934
74654W        W34190  39.343   2.438   5.277
74655W        W34191  13.263   3.788  14.285
74656W        W34192  26.168  12.162   3.742
74657W        W34193  23.698  41.488   2.360
74658W        W34194  13.270   8.701   2.811
74659W        W34195  42.293  28.961  10.601
74660W        W34196   9.326  29.530   0.926
74661W        W34197  11.687  20.154   4.148
74662W        W34198  15.595  14.338   1.729
74663W        W34199   8.263  24.539   9.996
74664W        W34200  27.547  25.000  14.457
74665W        W34201   5.737  34.583   1.727
74666W        W34202  23.210  42.902  13.314
74667W        W34203   2.908   9.708  13.475
74668W        W34204  24.691  20.747   2.704
74669W        W34205  18.591  38.410   1.925
74670W        W34206  26.036  23.987   1.778
74671W        W34207  33.037   0.436  13.820
74672W        W34208  43.772  26.026   0.470
74673W        W34209  25.689  32.396   2.816
74674W        W34210  42.851  17.257  12.442
74675W        W34211  41.000  13.315  14.496
74676W        W34212  11.705  18.622  12.527
74677W        W34213  33.991   9.680   0.906
74678W        W34214  29.976   0.468  12.520
74679W        W34215  32.020  21.115  13.846
74680W        W34216  12.613  29.005  13.518
74681W        W34217  24.697  23.095  14.913
74682W        W34218  23.584   6.231  14.433
74683W        W34219   9.791  38.842  12.472
74684W        W34220  17.092  18.289   5.589
74685W        W34221  40.011  15.704   1.410
74686W        W34222  43.943  43.767  12.886
74687W        W34223  18.617  28.080   4.321
74688W        W34224   2.786  41.954  11.026
74689W        W34225  16.580   0.771  12.056
74690W        W34226  33.543  30.140  10.891
74691W        W34227  29.978   3.845  12.063
74692W        W34228  28.633  23.079   1.354
74693W        W34229  27.070  19.751  14.873
74694W        W34230  40.856  14.620  11.018
74695W        W34231  19.736  25.617   1.886
74696W        W34232   2.275  28.646  11.896
74697W        W34233  39.001  34.100   2.885
74698W        W34234   9.704  39.871  11.568
74699W        W34235  33.389  15.147   0.454
74700W        W34236   7.346  22.715  11.605
74701W        W34237   6.853  30.946  14.839
74702W        W34238  25.082  15.811  10.897
74703W        W34239  43.765  44.976   2.689
74704W        W34240  37.042  36.926  11.564
74705W        W34241  19.759  14.830  11.070
74706W        W34242   4.266  23.222  14.468
74707W        W34243  22.572  36.995  12.944
74708W        W34244   3.738  14.272  13.318
74709W        W34245   7.861  11.273   2.703
74710W        W34246   7.213  36.027  13.434
74711W        W34247  25.479  21.703   2.736
74712W        W34248  31.924  34.071   2.194
74713W        W34249  18.659  39.939   0.967
74714W        W34250  10.666  42.524  13.398
74715W        W34251  27.097   4.348  11.019
74716W        W34252  15.688  14.791  12.034
74717W        W34253  41.903  28.066   4.818
74718W        W34254  26.619  26.146  14.313
74719W        W34255  27.527  10.299  10.914
74720W        W34256  12.163  17.097   3.227
74721W        W34257  36.353  18.702  12.042
74722W        W34258   6.224  17.116   1.719
74723W        W34259  16.154  30.072   2.814
74724W        W34260   3.221   0.904  11.535
74725W        W34261  12.332  38.883  13.054
74726W        W34262  14.729   2.934  12.986
74727W        W34263  25.589   1.957   0.295
74728W        W34264  11.259  16.185  14.473
74729W        W34265  24.073  19.534   0.732
74730W        W34266  41.474  29.453  14.318
74731W        W34267  11.127  13.249   4.243
74732W        W34268  15.714  11.342   2.397
74733W        W34269  40.499   4.917  11.599
74734W        W34270  16.664   6.913   0.276
74735W        W34271   7.788  16.251  14.849
74736W        W34272  40.944  43.003  13.908
74737W        W34273  28.152  37.087   1.222
74738W        W34274  21.170  24.196   1.849
74739W        W34275  37.492  38.410  13.364
74740W        W34276  20.226  39.505   1.349
74741W        W34277  24.679   6.730  11.067
74742W        W34278  29.054   3.744   0.244
74743W        W34279  39.918  40.461  10.608
74744W        W34280  12.249  21.065   0.960
74745W        W34281  19.184   4.282  14.798
74746W        W34282  25.187  34.001   1.220
74747W        W34283  30.054  39.431  13.309
74748W        W34284   4.443  19.050  14.355
74749W        W34285  26.526   9.868   3.801
74750W        W34286  17.064   8.331  12.376
74751W        W34287  39.523  19.091   3.254
74752W        W34288  31.589  24.024  14.809
74753W        W34289  25.590  16.654  13.356
74754W        W34290  28.068  20.756   2.244
74755W        W34291  16.779  13.159   1.435
74756W        W34292  31.074  32.907   3.271
74757W        W34293  19.678  28.072  13.061
74758W        W34294  10.695  24.020   4.820
74759W        W34295   5.270  40.885  11.021
74760W        W34296   3.242  31.115  11.529
74761W        W34297  19.108   0.303   1.827
74762W        W34298  29.979  21.018  12.840
74763W        W34299   2.822  27.663  11.453
74764W        W34300   7.693   4.775   0.810
74765W        W34301  42.894  22.661  13.396
74766W        W34302  16.710  12.361  12.916
74767W        W34303  26.001  41.880   4.827
74768W        W34304   2.746  35.086  13.332
74769W        W34305  20.134  21.143   1.361
74770W        W34306  24.061   8.821   1.283
74771W        W34307  20.264  23.595   2.729
74772W        W34308   7.717  10.215  10.013
74773W        W34309  11.366   5.870  12.063
74774W        W34310  19.209  11.645   3.318
74775W        W34311   5.748  20.625   3.702
74776W        W34312  34.612  39.059   2.353
74777W        W34313  20.146  32.509  13.318
74778W        W34314  23.999   0.404  11.080
74779W        W34315   0.748  27.010   3.249
74780W        W34316  35.088  22.526   0.410
74781W        W34317  16.642  43.961   2.810
74782W        W34318  28.942  16.096   0.266
74783W        W34319  25.068  43.995  13.961
74784W        W34320  32.434  44.868   4.753
74785W        W34321   5.421  11.368  12.887
74786W        W34322   5.873  12.195  11.987
74787W        W34323   5.242  40.471   3.650
74788W        W34324  13.828  37.933   1.451
74789W        W34325  23.713  39.810   2.805
74790W        W34326  33.071  25.128  12.532
74791W        W34327  34.876  35.544   1.375
74792W        W34328  12.829  10.179  11.584
74793W        W34329  14.638  25.126   3.831
74794W        W34330   5.212  22.067   2.260
74795W        W34331  13.723  30.604   3.300
74796W        W34332   5.933  16.713  14.460
74797W        W34333  28.075  38.902   1.753
74798W        W34334  24.214  31.044  10.897
74799W        W34335  19.771  30.916   3.353
74800W        W34336  17.619  41.914   0.326
74801W        W34337  40.441   0.418  12.500
74802W        W34338  19.150  22.215  12.945
74803W        W34339   2.407  44.980  10.524
74804W        W34340   6.415  24.484  12.968
74805W        W34341  27.995  33.929  11.489
74806W        W34342  25.045   2.769  11.908
74807W        W34343   4.299  23.227  10.160
74808W        W34344  13.759  38.416  11.129
74809W        W34345  15.610   1.751   1.264
74810W        W34346   1.856  38.569  10.487
74811W        W34347  25.516  28.015  14.808
74812W        W34348   0.814   7.732  12.935
74813W        W34349   5.360  37.001  14.844
74814W        W34350  23.668  19.705  12.550
74815W        W34351  20.132  30.086   0.461
74816W        W34352  12.745   3.877  12.980
74817W        W34353  44.786  36.428  14.945
74818W        W34354  29.976  31.484  12.963
74819W        W34355   7.680  27.631   4.723
74820W        W34356  18.654  20.769  12.544
74821W        W34357  33.941  18.549  10.462
74822W        W34358  17.723  10.691   3.239
74823W        W34359   7.819  27.541  10.467
74824W        W34360  33.078  16.646  13.542
74825W        W34361  20.090  44.383   2.835
74826W        W34362  39.970   1.449   1.302
74827W        W34363  21.209  37.386  14.411
74828W        W34364  14.646   7.348  12.038
74829W        W34365  38.399  22.176   3.720
74830W        W34366   5.888  12.723   2.373
74831W        W34367  18.211   7.799  12.428
74832W        W34368  18.266  37.080   0.265
74833W        W34369  41.328  30.561   2.210
74834W        W34370  18.603  39.961   1.878
74835W        W34371  10.775  12.130  14.505
74836W        W34372  23.047  41.429  13.342
74837W        W34373  15.277  12.161   2.272
74838W        W34374   1.816  26.985   4.796
74839W        W34375  14.290   1.826   2.364
74840W        W34376  23.718  23.491  14.983
74841W        W34377  19.134   1.474  12.503
74842W        W34378   8.751  25.702  14.394
74843W        W34379   8.847  24.500  13.352
74844W        W34380  14.774   8.298   4.648
74845W        W34381   2.785  44.927   0.319
74846W        W34382  36.496  20.209  12.360
74847W        W34383  36.419   2.808  13.916
74848W        W34384  32.528  31.635  13.502
74849W        W34385  13.699   6.412   1.919
74850W        W34386  13.230  29.120  10.505
74851W        W34387  26.190  24.187  13.053
74852W        W34388  35.579   0.911   0.814
74853W        W34389  25.165  21.138  13.963
74854W        W34390  27.623  36.457  14.952
74855W        W34391   9.234  42.390   1.451
74856W        W34392  19.140  15.702  12.504
74857W        W34393  36.082  24.721   5.231
74858W        W34394  39.429  30.998   4.605
74859W        W34395   0.426  16.753   0.446
74860W        W34396  43.327  29.108   3.797
74861W        W34397  40.898  42.953  11.611
74862W        W34398  44.412  30.102  12.948
74863W        W34399  25.978  14.145  12.474
74864W        W34400  38.031  22.237   2.220
74865W        W34401  17.799  39.975   3.801
74866W        W34402  23.183  23.135  14.341
74867W        W34403  11.723  27.971  10.939
74868W        W34404  29.595   4.212  14.324
74869W        W34405  25.537  10.760   0.417
74870W        W34406  43.503  34.056   1.309
74871W        W34407  35.415   0.481   5.761
74872W        W34408  36.550  29.424   4.700
74873W        W34409  40.832  18.181   2.815
74874W        W34410  17.197  35.088   3.783
74875W        W34411  12.174  25.037   4.117
74876W        W34412  22.056  40.925  14.800
74877W        W34413  15.692  27.466   5.193
74878W        W34414  23.508  39.876  14.818
74879W        W34415   7.865  41.843  14.866
74880W        W34416  29.650  14.337  10.962
74881W        W34417   6.392   1.385  11.547
74882W        W34418   8.852  36.548   0.852
74883W        W34419   5.397  19.693   4.687
74884W        W34420  18.653  31.029  11.106
74885W        W34421  41.013   2.937  11.015
74886W        W34422   3.318  40.935  14.297
74887W        W34423  43.855  15.284  13.313
74888W        W34424  23.530  20.106   2.814
74889W        W34425  32.450  18.768   2.234
74890W        W34426  22.720  43.976  14.508
74891W        W34427  39.855  39.452  12.444
74892W        W34428  41.997   7.872  11.964
74893W        W34429  40.878  44.362   2.312
74894W        W34430  29.461   1.920   3.831
74895W        W34431  13.291  16.309   1.872
74896W        W34432  11.800  24.137  12.018
74897W        W34433   0.435  12.776   3.287
74898W        W34434  28.629  34.438   3.852
74899W        W34435  23.066  29.171   4.125
74900W        W34436  43.994   4.298   1.303
74901W        W34437   2.350  26.085  13.356
74902W        W34438  22.204  14.223  13.955
74903W        W34439   3.279  35.952   1.432
74904W        W34440  14.682   3.851   4.274
74905W        W34441  43.960   3.746   0.458
74906W        W34442   8.321  37.551   0.388
74907W        W34443  26.202  20.710   9.666
74908W        W34444  15.617  22.053   9.579
74909W        W34445  10.758  31.560   0.784
74910W        W34446  40.478   8.784   0.271
74911W        W34447  19.092   7.799  13.348
74912W        W34448  43.813  17.131  12.430
74913W        W34449  18.687   8.385  14.854
74914W        W34450  42.474  13.751  13.883
74915W        W34451  43.892  35.488   4.676
74916W        W34452   4.806  37.420   5.155
74917W        W34453  36.893  39.481  12.367
74918W        W34454  27.067  33.128   1.695
74919W        W34455  22.010  20.550  14.003
74920W        W34456  42.857  21.718  10.495
74921W        W34457   6.921  35.077  14.813
74922W        W34458  29.048   5.287  12.999
74923W        W34459  17.243  28.942  14.948
74924W        W34460   5.879  28.602  13.353
74925W        W34461  37.007  38.467  13.864
74926W        W34462  32.611  29.581   2.218
74927W        W34463  27.646  20.605   2.701
74928W        W34464  34.082  17.161   1.326
74929W        W34465  29.132  21.625  11.030
74930W        W34466  10.151  33.474  13.540
74931W        W34467  32.886  11.800  11.374
74932W        W34468  14.590  37.565  12.518
74933W        W34469  14.774  43.925   1.251
74934W        W34470  34.089  14.596   4.725
74935W        W34471  42.988   8.208   4.231
74936W        W34472   4.777   2.327  14.472
74937W        W34473   1.378  39.542  10.476
74938W        W34474  32.563   3.887   4.810
74939W        W34475  11.824  32.089   3.248
74940W        W34476  34.941   2.927  13.492
74941W        W34477  32.917  12.191   2.683
74942W        W34478  33.926  40.010   2.749
74943W        W34479   6.373   1.437   0.846
74944W        W34480   3.302  24.073   1.252
74945W        W34481   8.341   7.687  13.494
74946W        W34482  39.895  17.112   2.841
74947W        W34483  44.885   4.830  13.350
74948W        W34484  19.649  44.386  14.940
74949W        W34485  11.779   5.886   4.350
74950W        W34486  31.040   8.680  10.555
74951W        W34487   9.761  19.541   2.800
74952W        W34488  21.196   9.352   3.356
74953W        W34489  27.548  41.443   0.886
74954W        W34490  24.162  22.576   9.938
74955W        W34491  13.694  31.419  12.923
74956W        W34492  37.387   8.713   3.852
74957W        W34493  34.529  35.535  11.925
74958W        W34494  19.665  37.871   0.727
74959W        W34495  19.266  39.400   2.893
74960W        W34496  24.670  41.966   1.886
74961W        W34497  29.434   8.186   2.867
74962W        W34498  24.082   8.752  13.486
74963W        W34499   3.352  26.952   4.663
74964W        W34500  29.479  12.760   0.427
74965W        W34501  43.781  23.101   0.310
74966W        W34502   2.448   1.940  11.490
74967W        W34503  23.058  17.716   4.241
74968W        W34504  16.306   8.262   3.287
74969W        W34505  39.539  10.858  12.944
74970W        W34506  22.582   5.916  14.867
74971W        W34507   7.743  40.011  14.988
74972W        W34508  20.566  10.222   0.344
74973W        W34509  43.417  38.054  14.351
74974W        W34510  27.570  10.700   4.129
74975W        W34511  23.075  41.404   3.360
74976W        W34512  21.089   4.740   1.787
74977W        W34513  43.369  37.526  13.908
74978W        W34514  28.024  25.609   1.378
74979W        W34515  44.819  41.866   0.946
74980W        W34516   0.434  21.160   4.800
74981W        W34517   6.823  15.747   2.866
74982W        W34518  42.297   8.341  13.887
74983W        W34519  17.180  16.132   2.797
74984W        W34520   9.269  11.685  11.505
74985W        W34521   0.824  12.703   5.170
74986W        W34522  25.132   3.945   2.765
74987W        W34523  13.711  29.933  10.428
74988W        W34524  24.582   6.697   3.345
74989W        W34525  43.356  29.118  13.484
74990W        W34526  13.189  26.190  12.091
74991W        W34527   9.750  12.750   3.196
74992W        W34528  26.671  27.637   4.732
74993W        W34529  29.662  33.567  12.499
74994W        W34530  31.107  12.849  14.472
74995W        W34531  12.696  44.802  14.354
74996W        W34532  35.372  31.073   3.705
74997W        W34533   2.385  36.347  13.946
74998W        W34534  41.865  39.841  13.372
74999W        W34535  27.124  40.919  10.579
75000W        W34536   6.416   2.932  12.901
75001W        W34537  40.915   4.306   0.256
75002W        W34538  26.094  41.856   1.880
75003W        W34539  39.005   7.743  10.639
75004W        W34540  22.744   9.854   3.649
75005W        W34541  19.546  15.810   1.234
75006W        W34542  30.600   2.447   0.276
75007W        W34543  29.012  11.806   0.277
75008W        W34544  22.100  15.271  11.904
75009W        W34545  16.205  39.383   4.737
75010W        W34546  27.149  24.538   4.600
75011W        W34547   5.383  32.467  11.594
75012W        W34548  29.990   0.335   0.291
75013W        W34549   4.338  23.147  10.479
75014W        W34550  19.635  36.550   3.654
75015W        W34551   9.255   6.337  14.775
75016W        W34552  35.070  38.993  12.378
75017W        W34553   0.816  28.560  14.872
75018W        W34554   2.792  35.474   4.195
75019W        W34555  19.064   1.746  14.944
75020W        W34556  39.929  44.463   4.173
75021W        W34557  39.347  14.671   0.878
75022W        W34558  16.095  32.988   1.242
75023W        W34559  40.397  13.146   0.243
75024W        W34560  31.427  33.611   3.868
75025W        W34561  35.010  43.879  12.066
75026W        W34562  20.254  31.494  13.022
75027W        W34563  13.248  30.932  12.369
75028W        W34564  32.058  43.411   3.368
75029W        W34565   0.258  28.677   2.297
75030W        W34566   5.824   0.936  12.893
75031W        W34567   2.736  16.813  13.058
75032W        W34568  34.498  23.999   0.788
75033W        W34569  28.968  23.984  10.477
75034W        W34570  35.603  19.757   4.114
75035W        W34571   9.876  36.018  14.995
75036W        W34572   1.750  27.457  13.858
75037W        W34573  18.653  36.459   0.964
75038W        W34574   5.336  33.892   4.214
75039W        W34575   3.744  38.954  14.889
75040W        W34576  13.731  22.154   3.146
75041W        W34577  16.221  27.594   0.438
75042W        W34578  26.058   7.710   4.819
75043W        W34579  35.923  20.199  12.925
75044W        W34580  39.962  33.617  12.010
75045W        W34581   3.856  16.673  11.459
75046W        W34582  36.548   8.300   2.277
75047W        W34583  38.828  40.974  13.881
75048W        W34584  39.544   3.326  12.062
75049W        W34585  44.849  31.563  12.920
75050W        W34586  38.827  39.975   3.744
75051W        W34587  39.336  15.313   0.885
75052W        W34588  17.616  25.049  10.634
75053W        W34589   5.749   2.363  14.955
75054W        W34590   6.819  32.008  11.497
75055W        W34591   3.366  21.130   5.086
75056W        W34592  18.660  18.600  12.046
75057W        W34593   2.902  12.169   4.167
75058W        W34594   7.364  28.649   3.810
75059W        W34595  25.134  36.507  13.990
75060W        W34596  23.176   1.799  10.621
75061W        W34597   8.243   2.745  14.454
75062W        W34598   9.828  34.978  14.329
75063W        W34599   2.271  29.583  10.991
75064W        W34600  25.653  40.051  11.565
75065W        W34601  36.587  23.612  13.971
75066W        W34602   6.314  34.965  14.508
75067W        W34603  26.987   3.879   4.725
75068W        W34604  33.596   7.344   2.277
75069W        W34605  32.587  32.999   0.890
75070W        W34606   3.894  20.647   3.247
75071W        W34607  23.039   8.340   2.835
75072W        W34608  30.941  42.306   4.675
75073W        W34609  38.992  28.932  12.555
75074W        W34610  34.500   9.394   0.957
75075W        W34611  26.661  22.741   2.292
75076W        W34612  13.253  20.124   0.461
75077W        W34613  18.283   5.399  14.803
75078W        W34614  32.515   3.712   3.761
75079W        W34615   1.295  19.155   2.695
75080W        W34616  29.947  35.977  11.550
75081W        W34617  21.153  44.312  12.515
75082W        W34618  39.013  34.470   0.955
75083W        W34619   1.310  33.007  14.433
75084W        W34620  37.015  19.176  14.006
75085W        W34621  33.541  12.332  12.000
75086W        W34622  36.373  25.637  14.870
75087W        W34623  14.115  13.304   1.884
75088W        W34624   7.905   4.752  14.464
75089W        W34625  26.110  40.366  13.856
75090W        W34626   4.306  13.230   4.831
75091W        W34627   3.714  16.181  13.402
75092W        W34628  42.910   7.678   0.255
75093W        W34629  27.543  30.537   4.798
75094W        W34630  39.530  44.925  13.460
75095W        W34631  13.603  27.662  13.829
75096W        W34632  43.960  24.062   0.309
75097W        W34633  31.574  21.134  11.506
75098W        W34634  14.191  30.635   2.741
75099W        W34635  32.453  37.863  12.043
75100W        W34636  13.633  35.407  12.498
75101W        W34637  23.145  16.684   2.229
75102W        W34638   8.887  44.463   0.378
75103W        W34639  38.915  27.458  11.071
75104W        W34640  28.951  15.581  13.363
75105W        W34641  32.396   9.665   1.809
75106W        W34642  12.712  21.120  13.309
75107W        W34643  42.460  35.884   0.893
75108W        W34644  29.453  12.248  10.538
75109W        W34645  25.592  44.379   2.709
75110W        W34646  26.659   8.800   9.944
75111W        W34647  11.647  23.665   5.160
75112W        W34648  23.618   6.751  12.962
75113W        W34649  17.753  16.298  11.927
75114W        W34650  21.079  30.439  11.978
75115W        W34651   8.809  37.973  13.048
75116W        W34652  32.525  35.058  14.936
75117W        W34653   9.247   2.373  11.976
75118W        W34654   5.316  43.792  14.485
75119W        W34655  25.658  27.648  14.431
75120W        W34656  14.754  20.068   2.293
75121W        W34657  25.559  22.178   3.340
75122W        W34658  18.151  24.641  12.931
75123W        W34659  28.051   5.932   3.169
75124W        W34660  15.769  16.115   1.354
75125W        W34661  13.675  27.593  11.559
75126W        W34662  25.140  14.189   4.718
75127W        W34663   6.306  37.520   0.293
75128W        W34664   1.307   8.854   4.181
75129W        W34665  36.908  41.458  11.542
75130W        W34666  29.442  17.796  12.405
75131W        W34667   4.778   3.336   2.282
75132W        W34668  18.290  32.513  11.456
75133W        W34669   9.661  34.529   2.311
75134W        W34670   3.720  44.408  12.436
75135W        W34671  15.722  33.608  13.444
75136W        W34672  17.608  32.524  11.981
75137W        W34673  11.285  15.103  10.424
75138W        W34674  37.992   2.910  14.017
75139W        W34675   4.730  16.097   1.326
75140W        W34676  34.410  41.321  14.345
75141W        W34677   8.304  16.170  13.489
75142W        W34678  32.046  31.938  13.975
75143W        W34679  43.404  20.580   2.803
75144W        W34680  25.971   1.475  10.483
75145W        W34681  27.975  11.635   2.839
75146W        W34682   7.834  42.408  13.452
75147W        W34683  28.567  15.237  14.937
75148W        W34684  26.695  30.431   3.870
75149W        W34685   4.833  12.843  12.932
75150W        W34686  44.286  43.506  13.896
75151W        W34687  35.393  43.463   3.666
75152W        W34688  15.304  43.973   3.192
75153W        W34689  40.997  37.524   0.468
75154W        W34690  32.401  41.953  11.421
75155W        W34691  32.926  36.061   3.267
75156W        W34692  21.584   6.701   1.876
75157W        W34693  37.471  41.424  14.338
75158W        W34694   7.675  20.229  12.475
75159W        W34695  33.470  25.510   0.831
75160W        W34696  39.826   4.792  11.900
75161W        W34697  41.437  35.391   4.727
75162W        W34698  22.201  10.187   4.119
75163W        W34699   4.698  23.989   3.667
75164W        W34700   8.875  13.150   3.316
75165W        W34701  28.631  12.780  14.008
75166W        W34702   7.276  18.274   2.722
75167W        W34703  13.604  28.566  11.968
75168W        W34704  30.464  33.049   3.795
75169W        W34705   5.364  43.852  13.883
75170W        W34706  23.090   3.259   3.643
75171W        W34707  38.515   6.328  11.535
75172W        W34708  33.471  40.376  12.875
75173W        W34709  37.986  39.931  10.510
75174W        W34710  26.694   1.830  14.812
75175W        W34711  32.971   2.807   3.630
75176W        W34712  10.658  17.109   2.345
75177W        W34713  12.303  30.122  10.108
75178W        W34714  40.833  25.590  10.959
75179W        W34715  13.114   3.865   3.744
75180W        W34716  36.398  17.284   4.804
75181W        W34717  12.155  43.907   2.205
75182W        W34718  26.075  22.602  10.467
75183W        W34719  11.198   2.724  11.376
75184W        W34720  18.728  43.309   2.180
75185W        W34721  28.590  14.611   2.390
75186W        W34722  25.166  41.440   2.400
75187W        W34723  17.301  41.353  10.977
75188W        W34724  28.158  25.495   4.242
75189W        W34725  31.953   4.786   1.746
75190W        W34726   6.405  42.427   4.641
75191W        W34727  38.875  39.058   1.451
75192W        W34728  13.682   6.317   1.260
75193W        W34729  19.272  25.525   3.660
75194W        W34730  42.302  10.318  14.440
75195W        W34731   0.944  31.084   3.163
75196W        W34732  21.245  38.929  12.555
75197W        W34733   5.849  16.149   2.759
75198W        W34734  44.404   7.901  14.387
75199W        W34735  36.442   6.919  11.099
75200W        W34736   4.319  11.273  11.109
75201W        W34737   9.734  35.931  11.859
75202W        W34738  17.236   7.800   1.724
75203W        W34739  13.757  20.168  12.999
75204W        W34740   1.773  11.299   3.800
75205W        W34741  42.022  42.922   0.877
75206W        W34742  25.480  14.292   0.787
75207W        W34743   4.815   9.815  12.544
75208W        W34744  28.588  16.656  12.868
75209W        W34745   8.280  13.234  13.433
75210W        W34746  42.992  10.368  14.925
75211W        W34747   4.935  34.941  14.513
75212W        W34748  25.197  34.992   0.280
75213W        W34749   7.369  13.346  14.316
75214W        W34750   0.461  12.812   0.276
75215W        W34751   9.184  26.569   0.295
75216W        W34752  14.686  36.363   3.151
75217W        W34753  42.925   1.941  11.578
75218W        W34754  31.104  30.611  14.338
75219W        W34755  39.842  37.443   3.368
75220W        W34756  37.544  17.084  13.464
75221W        W34757  11.788  41.938  14.929
75222W        W34758  24.535  37.970   3.339
75223W        W34759  36.402  36.420  11.568
75224W        W34760  36.586  27.515  11.551
75225W        W34761   2.913  27.529  13.820
75226W        W34762  42.502  34.473  11.918
75227W        W34763  18.240   7.400  11.873
75228W        W34764   1.413   2.929  12.353
75229W        W34765  24.129   7.227  13.988
75230W        W34766  18.199  15.115  14.775
75231W        W34767   1.301  39.472  12.403
75232W        W34768  30.095  19.147  10.555
75233W        W34769  29.585  41.309   3.790
75234W        W34770  44.304   9.174  10.917
75235W        W34771  26.129   9.800   2.756
75236W        W34772  28.602  27.656   3.363
75237W        W34773  42.504  10.238   3.828
75238W        W34774  16.736  14.662  13.398
75239W        W34775   6.303  18.607   2.686
75240W        W34776  18.090  27.948  10.536
75241W        W34777  42.309   9.359  14.283
75242W        W34778  11.333  21.540   1.342
75243W        W34779  35.447  39.418  12.476
75244W        W34780  39.449  11.759   2.273
75245W        W34781  13.312  30.477   1.314
75246W        W34782  36.539   4.378   3.735
75247W        W34783  14.710  21.637   4.189
75248W        W34784  13.705  32.543  12.019
75249W        W34785  15.179  24.169   4.779
75250W        W34786  19.564  24.695   2.294
75251W        W34787  20.260  37.871   4.338
75252W        W34788  24.590  41.446  13.527
75253W        W34789   6.214  16.129  10.430
75254W        W34790  19.646  27.175  12.349
75255W        W34791  39.025  19.200   4.793
75256W        W34792   2.843  26.185   1.744
75257W        W34793  41.527  21.248   4.645
75258W        W34794  12.762   3.447  12.038
75259W        W34795  13.178   0.269   0.954
75260W        W34796  18.618  43.924  12.462
75261W        W34797  30.907  27.565   2.807
75262W        W34798  35.109  25.560  12.463
75263W        W34799   0.480  41.036   1.213
75264W        W34800  41.398  10.789   1.856
75265W        W34801  13.699   4.917   0.406
75266W        W34802  43.016  19.202   3.841
75267W        W34803  34.015   6.847  14.419
75268W        W34804  24.483  12.645  13.434
75269W        W34805  44.277  21.543   9.987
75270W        W34806  20.739  34.589   2.322
75271W        W34807  43.486   3.723  12.904
75272W        W34808  25.012   3.848   0.318
75273W        W34809  41.956  23.645   4.180
75274W        W34810  29.634   6.688   1.775
75275W        W34811  42.485  17.234  11.464
75276W        W34812  32.125  23.204  11.451
75277W        W34813  21.213  43.912  13.332
75278W        W34814  13.629  40.489   2.700
75279W        W34815  24.708  41.436  12.040
75280W        W34816  14.207  11.695   5.140
75281W        W34817  11.299  33.545   1.707
75282W        W34818  23.590  29.614  14.372
75283W        W34819  23.127  36.476   2.808
75284W        W34820  17.719  17.561  11.512
75285W        W34821  38.893  39.008  14.511
75286W        W34822  42.510  11.223  13.431
75287W        W34823  31.472  42.871   0.324
75288W        W34824   6.334   3.437   0.457
75289W        W34825   9.212  38.881  11.527
75290W        W34826  16.733   6.895   3.854
75291W        W34827   1.811  27.500   4.790
75292W        W34828  36.468   5.736   1.325
75293W        W34829  20.053   0.294   2.227
75294W        W34830  34.607  28.057   3.764
75295W        W34831  28.439  17.172   3.820
75296W        W34832   9.765  14.109   2.226
75297W        W34833  24.618  16.300   2.706
75298W        W34834  39.971   9.834  11.094
75299W        W34835  44.392  33.107   4.330
75300W        W34836  36.890  16.183   3.681
75301W        W34837   7.819   1.973   3.292
75302W        W34838  16.649  41.980  10.535
75303W        W34839  20.060   8.850  13.362
75304W        W34840  11.303  34.884   3.353
75305W        W34841  12.771  36.382  11.063
75306W        W34842  38.990  22.162  11.427
75307W        W34843  29.542   5.365  12.568
75308W        W34844   7.279  10.785  14.997
75309W        W34845  15.741   0.422   2.835
75310W        W34846  20.169  42.925  12.094
75311W        W34847  37.548   3.449   1.388
75312W        W34848  39.468   5.437   2.273
75313W        W34849   1.854   1.244  12.441
75314W        W34850   6.791  41.373  11.445
75315W        W34851  15.316  12.255  14.844
75316W        W34852  30.973  21.746  10.933
75317W        W34853  42.016  32.634  11.444
75318W        W34854  39.057  44.948  12.557
75319W        W34855  44.967  26.015  14.791
75320W        W34856  44.276  19.553   4.631
75321W        W34857  14.623  16.643  11.378
75322W        W34858  11.761  20.706   3.277
75323W        W34859  25.110  22.730   2.322
75324W        W34860  13.107  26.685  13.414
75325W        W34861  11.335  18.698   2.257
75326W        W34862  30.961  42.858  14.915
75327W        W34863   4.779  16.303   4.749
75328W        W34864   9.838  24.515  14.311
75329W        W34865   1.863  24.087  13.048
75330W        W34866  25.632  32.929   4.195
75331W        W34867  33.964  39.840  10.469
75332W        W34868  24.109   5.404   0.809
75333W        W34869  14.165   3.926  13.519
75334W        W34870  12.625  29.462   0.939
75335W        W34871  30.015   0.815   2.797
75336W        W34872   4.302  12.753  12.972
75337W        W34873  19.769  11.325  13.520
75338W        W34874  24.116  30.588  11.963
75339W        W34875  26.127  39.811  10.943
75340W        W34876  38.564  26.504  13.804
75341W        W34877  15.241   2.958   1.275
75342W        W34878  21.593  24.633   0.483
75343W        W34879  33.402  14.653   3.234
75344W        W34880  27.457  24.615   0.451
75345W        W34881  15.185  12.218   4.295
75346W        W34882  43.836  26.569  11.387
75347W        W34883  12.211   5.280  11.937
75348W        W34884  20.182  17.638  14.322
75349W        W34885   9.782  12.165   2.805
75350W        W34886   7.723  21.153  12.943
75351W        W34887  43.017  29.175  10.032
75352W        W34888  35.015  25.569   2.250
75353W        W34889  15.189   5.863   3.147
75354W        W34890  39.899  36.375  12.446
75355W        W34891  19.190   2.317   4.691
75356W        W34892   1.410  39.321  12.012
75357W        W34893  14.615   0.325  12.407
75358W        W34894  17.071   0.811   4.630
75359W        W34895  33.130  27.492  12.446
75360W        W34896  37.046   3.877   5.269
75361W        W34897  20.607  11.338   3.700
75362W        W34898  32.104  12.339  11.524
75363W        W34899  32.628  23.512   3.794
75364W        W34900  16.248  42.901  13.327
75365W        W34901   3.826  29.521  12.434
75366W        W34902   4.820   6.841  13.834
75367W        W34903   8.770  33.118   4.118
75368W        W34904  35.449  12.326  13.883
75369W        W34905  38.967  43.462  12.922
75370W        W34906   0.465  32.108  14.863
75371W        W34907  14.696  23.139  10.006
75372W        W34908  15.281  35.959   1.378
75373W        W34909  18.116  41.319  11.447
75374W        W34910  12.352  22.211  11.431
75375W        W34911  25.586  28.587  13.024
75376W        W34912  32.929   5.792  14.006
75377W        W34913   5.314  23.556  13.010
75378W        W34914   2.463   2.397   2.242
75379W        W34915   7.667  15.185  11.038
75380W        W34916  20.086  11.131   2.752
75381W        W34917  22.713   4.750  12.928
75382W        W34918  38.893  44.757   3.183
75383W        W34919   9.308   3.934  12.831
75384W        W34920   3.789  10.172  10.079
75385W        W34921  44.416  29.999  11.056
75386W        W34922   9.812  23.624  12.827
75387W        W34923  37.931   3.722  10.053
75388W        W34924  15.762  29.527   4.673
75389W        W34925  42.827   0.382   1.753
75390W        W34926  28.973   3.803   0.799
75391W        W34927  43.862   7.834   4.277
75392W        W34928   6.871  15.679  14.953
75393W        W34929   4.856  23.075   4.652
75394W        W34930   1.777  32.532  14.302
75395W        W34931   8.275  40.417   0.449
75396W        W34932  32.888   4.843   4.706
75397W        W34933   4.706  18.705  14.310
75398W        W34934  31.071  33.984   2.345
75399W        W34935  43.801  17.789  14.951
75400W        W34936  38.879   5.834  14.963
75401W        W34937   4.350  16.216   3.658
75402W        W34938   7.347  12.702   3.314
75403W        W34939  15.712  22.034   4.650
75404W        W34940  15.276  27.175  14.464
75405W        W34941  14.719  17.698  11.031
75406W        W34942  20.643  14.726   2.787
75407W        W34943  38.994  35.868  10.580
75408W        W34944  25.696  28.509  11.101
75409W        W34945  42.907  32.932   2.790
75410W        W34946  23.014  40.958  11.888
75411W        W34947  28.961  36.082  14.958
75412W        W34948  13.271  36.088  14.508
75413W        W34949  32.950  15.133  11.537
75414W        W34950  42.891  15.699  10.102
75415W        W34951  34.871  19.175   3.672
75416W        W34952  31.505  30.135  11.911
75417W        W34953  10.847  18.692   3.693
75418W        W34954  14.210  20.685  12.525
75419W        W34955   5.730  13.138   0.860
75420W        W34956  21.151  35.944  13.958
75421W        W34957   1.259  24.105   1.777
75422W        W34958  37.987  41.485   3.862
75423W        W34959  44.355  37.898   3.364
75424W        W34960  17.096  12.837  11.087
75425W        W34961  10.641  25.551   1.889
75426W        W34962  39.988  42.821   2.724
75427W        W34963   9.162   5.288   0.411
75428W        W34964  16.109  16.655  12.465
75429W        W34965  13.641  33.550   0.863
75430W        W34966  28.092  17.781  14.836
75431W        W34967  34.089  43.989   1.276
75432W        W34968   0.273   2.429  12.870
75433W        W34969  37.525   5.851   1.394
75434W        W34970  13.768  42.026   2.385
75435W        W34971  28.577   3.349  11.557
75436W        W34972  41.328  30.925   0.415
75437W        W34973  25.077  30.057   4.274
75438W        W34974  19.160  29.543  10.580
75439W        W34975  30.453  30.650   1.796
75440W        W34976  44.783   2.456   3.164
75441W        W34977   1.915   6.770  10.642
75442W        W34978   9.717  29.423  13.307
75443W        W34979  13.623  40.889  14.001
75444W        W34980  42.334  37.965  10.473
75445W        W34981  23.501  37.469   4.323
75446W        W34982  32.902  25.013   2.255
75447W        W34983  43.010   4.898  12.389
75448W        W34984  18.073  20.583   1.399
75449W        W34985   2.392   9.330  13.515
75450W        W34986  42.878  18.199   3.700
75451W        W34987   3.764  39.501  14.367
75452W        W34988  23.150  30.996   2.723
75453W        W34989  19.100  20.663  14.308
75454W        W34990  43.846  11.643   0.930
75455W        W34991  17.128  44.316   0.272
75456W        W34992  14.208   5.287   0.838
75457W        W34993   2.855  29.935   9.928
75458W        W34994  35.010  38.966   1.698
75459W        W34995   4.745   6.213   0.284
75460W        W34996  12.292  27.543  11.556
75461W        W34997  11.300  42.918   1.244
75462W        W34998   1.404  14.140   3.849
75463W        W34999   5.286   5.219   4.191
75464W        W35000  34.077  41.816  13.372
75465W        W35001   7.379  19.178   1.398
75466W        W35002  31.595  29.664  14.921
75467W        W35003  13.837   5.422   3.835
75468W        W35004   4.447   9.260   3.734
75469W        W35005  21.240  37.886  10.507
75470W        W35006  40.360  17.227   2.390
75471W        W35007  12.726  30.593  11.865
75472W        W35008  23.555   7.377  13.458
75473W        W35009  13.671   8.717  13.956
75474W        W35010  18.764   3.386   0.964
75475W        W35011  13.613  15.779   5.214
75476W        W35012  44.964  28.536   2.219
75477W        W35013  27.688  24.521   3.201
75478W        W35014  42.959  29.649  11.883
75479W        W35015  41.526  11.259  14.477
75480W        W35016  16.668  21.646  13.522
75481W        W35017  31.468   2.827   3.212
75482W        W35018  31.504  23.684  12.919
75483W        W35019  43.784  14.774   9.575
75484W        W35020  16.610  23.527  12.067
75485W        W35021  12.729  15.135   2.755
75486W        W35022  34.505   1.307   5.165
75487W        W35023  39.480  26.468   1.743
75488W        W35024  38.524  40.347  13.871
75489W        W35025  14.138  40.992   1.870
75490W        W35026  30.505  25.201   0.850
75491W        W35027  25.108  20.243  14.795
75492W        W35028  33.490   8.794  12.926
75493W        W35029  17.231  30.125  13.421
75494W        W35030   0.341   2.725   1.244
75495W        W35031  15.787  29.167   4.787
75496W        W35032  34.879  38.497  14.994
75497W        W35033   6.690  33.466   2.696
75498W        W35034  43.852  32.029  11.565
75499W        W35035  35.462   7.727  14.836
75500W        W35036  32.077  16.260  12.466
75501W        W35037  27.467  37.565   2.839
75502W        W35038  21.739  14.282   3.164
75503W        W35039  22.551  39.026  12.343
75504W        W35040  35.440  23.005   2.796
75505W        W35041  40.397   4.863  12.475
75506W        W35042  38.854  26.209  10.513
75507W        W35043   8.875  21.679  14.868
75508W        W35044  30.157  30.535  14.840
75509W        W35045  11.238  26.055   5.565
75510W        W35046  23.132   2.763  11.935
75511W        W35047  41.461   9.188   0.962
75512W        W35048  35.458  42.416   1.819
75513W        W35049   4.793  16.656   2.363
75514W        W35050   6.745  40.882  10.893
75515W        W35051  42.804  41.347   0.397
75516W        W35052  38.400  44.492  11.598
75517W        W35053  40.306  21.156   3.308
75518W        W35054   4.406  28.660  11.966
75519W        W35055   9.692   2.847  13.956
75520W        W35056  14.215  22.125  11.017
75521W        W35057  10.176  13.646   0.751
75522W        W35058  38.552  19.081  12.380
75523W        W35059  15.089  35.586   3.353
75524W        W35060  17.691  31.980  13.423
75525W        W35061  37.359  40.916  12.877
75526W        W35062   0.352  17.189  14.016
75527W        W35063  35.447  10.238  11.447
75528W        W35064   7.178  41.823   3.153
75529W        W35065   2.937  38.479  10.611
75530W        W35066   9.790  25.045  10.952
75531W        W35067  28.154  34.593  10.096
75532W        W35068  34.965   2.310   3.867
75533W        W35069  26.617   7.184  10.442
75534W        W35070   8.707  35.445  14.326
75535W        W35071  25.006   3.744   0.804
75536W        W35072  29.497  26.684   4.250
75537W        W35073   6.807   3.848  14.976
75538W        W35074   8.735   7.307  11.013
75539W        W35075  29.037  37.979  11.080
75540W        W35076  24.630  29.613  14.445
75541W        W35077   3.286  16.247  10.486
75542W        W35078   9.732  11.346   4.340
75543W        W35079   1.419  25.152  14.393
75544W        W35080  36.421   6.242  10.945
75545W        W35081  23.108  37.832  11.978
75546W        W35082  29.642  12.150  14.468
75547W        W35083  21.629  19.711  11.462
75548W        W35084  39.556  31.986   1.912
75549W        W35085   8.869  11.671  10.556
75550W        W35086   7.832  20.697  14.372
75551W        W35087  10.281  37.834   0.242
75552W        W35088  13.841  20.688  12.454
75553W        W35089   1.405   3.447  14.320
75554W        W35090  32.021   5.764   0.389
75555W        W35091   0.389   3.896   0.324
75556W        W35092  10.248  43.832   3.293
75557W        W35093  23.735  16.280   3.680
75558W        W35094  33.602  43.345  11.485
75559W        W35095  27.496   9.155   2.735
75560W        W35096   1.316  10.291  13.027
75561W        W35097  22.078  27.112   2.722
75562W        W35098  43.875  11.166  13.396
75563W        W35099  30.547  23.704  14.283
75564W        W35100  43.863  15.230  12.094
75565W        W35101  31.998  22.173   0.441
75566W        W35102  44.429  34.017  13.403
75567W        W35103  18.149  24.014  11.420
75568W        W35104   5.299  19.100   1.842
75569W        W35105   6.427  33.094  14.880
75570W        W35106   4.854  15.203   4.837
75571W        W35107  33.388  41.854  13.358
75572W        W35108  33.544  17.130   5.164
75573W        W35109  13.344  25.597  11.552
75574W        W35110   9.277  44.858   2.850
75575W        W35111  30.485  41.450  13.519
75576W        W35112  34.973  37.511   3.813
75577W        W35113  22.711  19.733   0.254
75578W        W35114  43.368  27.109   1.886
75579W        W35115   3.919  15.311  12.004
75580W        W35116  16.784  37.065   3.648
75581W        W35117  34.023  44.951   0.382
75582W        W35118   9.856   4.260  10.459
75583W        W35119  23.652   1.372   1.446
75584W        W35120  39.899   0.866  10.431
75585W        W35121  29.588  37.491  11.462
75586W        W35122  41.990  38.992  12.853
75587W        W35123  13.309  19.267   3.664
75588W        W35124  39.390  34.018   3.276
75589W        W35125  12.797   8.667   1.349
75590W        W35126  30.058  18.159  10.470
75591W        W35127   6.901   5.384  11.525
75592W        W35128  32.407  40.488  13.317
75593W        W35129  31.960  34.472  12.934
75594W        W35130  24.975  17.686   2.227
75595W        W35131  14.289  44.775   0.263
75596W        W35132  29.450  43.994   0.812
75597W        W35133   2.765  40.345  13.935
75598W        W35134  25.535  22.023  11.868
75599W        W35135   1.286  23.578   0.921
75600W        W35136  15.183   5.232   0.949
75601W        W35137  36.016  39.892  13.971
75602W        W35138  44.319  33.906  11.977
75603W        W35139  42.888   3.855   1.424
75604W        W35140   8.279  37.000  13.846
75605W        W35141  25.703  36.453  12.055
75606W        W35142   2.253  10.317   2.315
75607W        W35143   8.336  28.478   0.318
75608W        W35144   5.691  26.065   5.173
75609W        W35145  23.701  39.367   0.445
75610W        W35146  25.095  44.857  13.396
75611W        W35147  42.013   3.413  14.000
75612W        W35148   4.773   6.244  11.944
75613W        W35149  14.273   1.257  10.407
75614W        W35150  21.179  34.566  11.106
75615W        W35151  22.198  37.032  10.141
75616W        W35152  34.031   8.800  12.063
75617W        W35153  29.122  12.741   2.308
75618W        W35154  25.671  24.483   3.683
75619W        W35155  21.255  10.159  10.458
75620W        W35156  32.511  19.723  12.988
75621W        W35157  44.884  44.823  14.429
75622W        W35158  25.119  22.743   3.203
75623W        W35159  42.314  17.689  14.489
75624W        W35160  22.566   7.887   4.325
75625W        W35161   7.223  20.166   1.741
75626W        W35162  11.337  15.166  14.944
75627W        W35163  15.742   0.964  14.833
75628W        W35164  27.061  10.333  12.044
75629W        W35165  34.548  26.049  11.943
75630W        W35166  11.190  26.079   2.190
75631W        W35167   7.263  25.119   2.361
75632W        W35168  41.896  25.988   1.857
75633W        W35169   4.408  29.172  13.835
75634W        W35170  13.608  24.093  14.493
75635W        W35171  40.006  39.940  12.010
75636W        W35172  17.575  16.262   0.455
75637W        W35173  27.993   5.718  12.096
75638W        W35174  17.208  11.630   1.904
75639W        W35175   4.249  44.958  13.024
75640W        W35176  40.352   7.789   4.347
75641W        W35177  17.258  41.411  10.463
75642W        W35178  26.012  10.635   3.263
75643W        W35179  26.081  18.056  12.473
75644W        W35180   5.807  26.689   3.773
75645W        W35181   2.352  16.088  10.407
75646W        W35182   7.691  26.560   1.812
75647W        W35183  31.068  25.995  13.481
75648W        W35184  13.210  33.461  11.490
75649W        W35185   6.268   2.757  10.124
75650W        W35186  22.501  37.017   3.210
75651W        W35187  33.401  40.869   3.362
75652W        W35188  42.463  37.992   0.934
75653W        W35189  25.177  28.035  13.028
75654W        W35190  13.762   8.720  11.549
75655W        W35191   9.341  19.235  10.958
75656W        W35192  43.979  30.984   2.246
75657W        W35193  19.772   4.271  10.070
75658W        W35194  23.128  12.197  14.842
75659W        W35195  24.997  17.668  10.572
75660W        W35196  20.654  22.703  10.078
75661W        W35197  37.991  13.783   0.790
75662W        W35198  44.345  40.387   0.759
75663W        W35199  20.754  36.560   4.287
75664W        W35200  22.686  20.043   1.733
75665W        W35201   9.712   4.327   1.867
75666W        W35202  38.429  35.383  12.363
75667W        W35203  15.713  10.231   0.748
75668W        W35204   4.311  15.753   4.669
75669W        W35205  42.506  34.985  11.094
75670W        W35206  11.773  16.584  12.556
75671W        W35207  12.634  29.599   4.686
75672W        W35208  24.697  24.048  11.935
75673W        W35209  36.843  34.463  13.505
75674W        W35210   7.806  32.558  14.312
75675W        W35211   3.374  36.890  12.959
75676W        W35212  32.118  27.953  12.352
75677W        W35213  35.912  37.399   3.341
75678W        W35214  13.773   5.728   2.324
75679W        W35215  37.397  36.490   0.816
75680W        W35216  38.822   2.245   3.159
75681W        W35217  34.864  21.572  11.441
75682W        W35218  16.779  37.856   4.671
75683W        W35219  13.809  12.270  11.856
75684W        W35220  18.060  38.883   4.647
75685W        W35221  17.180  17.739   2.833
75686W        W35222  38.498  43.893   2.221
75687W        W35223  24.086  15.733  13.853
75688W        W35224  28.998  19.588   1.768
75689W        W35225  13.327  35.507  10.560
75690W        W35226  39.419  43.837  14.759
75691W        W35227   9.722  39.447  11.035
75692W        W35228  25.568   5.404   2.826
75693W        W35229  25.584  14.636   2.376
75694W        W35230  29.074   2.892  12.949
75695W        W35231  15.085  42.504   4.155
75696W        W35232  18.136  12.853   0.867
75697W        W35233  17.107  17.767  11.027
75698W        W35234  40.530  31.411  11.066
75699W        W35235   9.648  14.329  13.030
75700W        W35236  32.397  36.975  14.865
75701W        W35237  30.517  36.084  13.005
75702W        W35238   7.822  32.521  11.000
75703W        W35239  40.029  10.641  13.427
75704W        W35240  13.228  15.629  11.082
75705W        W35241  24.157  10.348   1.418
75706W        W35242   6.689  35.072  12.027
75707W        W35243  16.754  29.140  10.523
75708W        W35244  22.239  28.488   3.321
75709W        W35245  26.196  31.901  14.493
75710W        W35246  43.317  22.615  12.902
75711W        W35247  28.045  23.148   2.333
75712W        W35248  15.743  12.332  14.811
75713W        W35249  42.873  14.313  11.955
75714W        W35250  13.228   7.806   1.725
75715W        W35251   2.242   2.758   2.860
75716W        W35252  18.557  20.522   2.340
75717W        W35253  22.090  26.031  13.824
75718W        W35254  21.594  36.986   1.833
75719W        W35255   9.268  28.941  11.462
75720W        W35256  30.161  34.118  11.953
75721W        W35257  13.839  36.461   3.179
75722W        W35258   9.321  38.918   4.320
75723W        W35259   1.238  16.292  11.411
75724W        W35260  32.528  36.505  12.493
75725W        W35261  11.151   4.909   2.279
75726W        W35262  31.045  32.068   1.362
75727W        W35263  34.031  35.001   3.182
75728W        W35264  34.879  27.638  11.441
75729W        W35265  27.190   6.206   0.432
75730W        W35266  17.141   0.824  14.875
75731W        W35267   2.472   6.868  12.892
75732W        W35268   3.457  30.500   0.950
75733W        W35269  28.966  38.498   3.337
75734W        W35270   5.313  19.071  11.018
75735W        W35271  36.018   6.899   1.850
75736W        W35272  32.604   7.799   3.630
75737W        W35273  11.177  18.567  10.907
75738W        W35274   3.346  25.190  12.357
75739W        W35275   9.264  41.397   2.698
75740W        W35276  15.613  12.827  11.032
75741W        W35277   5.746  44.305  14.023
75742W        W35278  13.231  27.989  12.040
75743W        W35279  20.175   8.287  14.442
75744W        W35280  40.536  23.989   3.718
75745W        W35281  18.551  42.293  14.793
75746W        W35282  29.141  29.975  12.994
75747W        W35283   1.910  37.847  13.342
75748W        W35284  18.671  29.566   0.909
75749W        W35285  14.138  23.607   3.688
75750W        W35286  22.107  22.068   0.298
75751W        W35287  24.616  11.325  10.438
75752W        W35288   5.842  15.134  14.868
75753W        W35289  23.119   7.890  13.338
75754W        W35290  19.614  18.176   3.739
75755W        W35291  35.044  11.717  10.060
75756W        W35292   4.732  34.437   0.856
75757W        W35293  37.851  25.658   0.347
75758W        W35294  34.081  27.134  13.517
75759W        W35295  15.241  16.277  10.413
75760W        W35296  18.118   1.405   2.195
75761W        W35297   3.852  14.098  14.500
75762W        W35298  17.204  25.514   1.352
75763W        W35299  39.056  39.020   2.722
75764W        W35300  21.208   6.829  13.321
75765W        W35301  31.972  25.179  14.990
75766W        W35302  43.307  10.345   4.649
75767W        W35303  40.441  24.659  14.889
75768W        W35304  14.637  24.173  13.439
75769W        W35305  37.429  33.944  12.008
75770W        W35306   2.796  16.589   4.601
75771W        W35307  25.680   1.741  13.341
75772W        W35308  19.106   8.205  12.903
75773W        W35309   3.903  40.538  10.939
75774W        W35310  17.129  17.250  10.587
75775W        W35311  35.905  30.994   3.818
75776W        W35312  34.416  30.545  10.911
75777W        W35313  24.177  42.814   2.883
75778W        W35314   1.767  42.906  14.827
75779W        W35315  31.906  27.577  14.007
75780W        W35316  42.341  39.449  13.434
75781W        W35317   8.852  17.247   2.763
75782W        W35318  17.618  34.420   0.776
75783W        W35319   8.741  18.199   3.668
75784W        W35320   0.281  28.632   3.764
75785W        W35321  29.434  23.689  12.012
75786W        W35322  26.701  39.540  11.492
75787W        W35323   1.949  10.679  13.059
75788W        W35324  10.194  32.613   5.305
75789W        W35325  14.757   8.294   1.770
75790W        W35326  28.577  44.769  10.529
75791W        W35327   3.881   2.807   0.467
75792W        W35328  25.481  21.123  11.126
75793W        W35329  17.305  43.512  14.896
75794W        W35330   5.372  11.292  13.461
75795W        W35331  39.381  10.873   0.312
75796W        W35332  44.905   1.917   0.957
75797W        W35333  11.711  44.431  12.868
75798W        W35334  36.459  21.719   3.765
75799W        W35335  21.673  23.533   0.296
75800W        W35336  25.577  36.873   1.326
75801W        W35337  14.186  28.035   1.380
75802W        W35338  10.720   6.870   3.343
75803W        W35339  21.235  31.019   0.939
75804W        W35340  43.277  17.216  12.005
75805W        W35341  19.194  43.850   1.697
75806W        W35342   8.839  24.675  14.959
75807W        W35343  10.764  34.570  12.406
75808W        W35344  35.387  43.827   2.367
75809W        W35345  32.944   7.695   3.805
75810W        W35346   9.193  27.115  14.762
75811W        W35347  30.054  29.066  11.967
75812W        W35348  20.657  30.021  12.014
75813W        W35349  30.976  32.070  12.083
75814W        W35350   0.374   5.872  11.099
75815W        W35351  20.713  24.164   4.320
75816W        W35352  37.953  31.916   0.866
75817W        W35353  31.956  15.184  12.031
75818W        W35354  17.236  28.169  11.906
75819W        W35355  25.185   2.342  11.514
75820W        W35356  16.753  29.935   4.337
75821W        W35357  34.474  20.265  11.538
75822W        W35358  41.937   4.766  11.882
75823W        W35359  22.014  38.958   1.712
75824W        W35360   1.261  15.155  14.847
75825W        W35361  44.296  13.838   3.846
75826W        W35362   4.747   1.471  13.476
75827W        W35363   9.249  23.497   1.426
75828W        W35364  27.060  15.109   4.694
75829W        W35365  31.603  23.149   3.778
75830W        W35366   5.697  33.520   3.760
75831W        W35367  41.373  37.867  14.384
75832W        W35368  27.555  16.726   1.859
75833W        W35369  35.862   7.874   3.834
75834W        W35370  34.553  16.308   4.234
75835W        W35371  15.606  25.104   9.968
75836W        W35372  44.455  12.690  12.534
75837W        W35373   3.427  21.140   1.898
75838W        W35374  33.620   7.261   4.637
75839W        W35375  38.988  44.910   5.170
75840W        W35376  43.273  10.217   5.270
75841W        W35377   0.908   8.379  12.414
75842W        W35378  27.599  35.980  12.506
75843W        W35379  34.094  44.827  12.485
75844W        W35380  22.636  17.622   1.875
75845W        W35381   9.165  25.057  10.465
75846W        W35382  28.602   9.257  14.319
75847W        W35383  19.575  13.165  11.440
75848W        W35384  24.986  14.208  14.323
75849W        W35385  33.612  33.512  12.535
75850W        W35386  29.513  36.513  11.995
75851W        W35387  36.573   1.848  12.480
75852W        W35388  13.699   4.714  11.986
75853W        W35389  39.376  36.516  12.861
75854W        W35390   9.228  40.049  13.862
75855W        W35391  31.479  15.326   3.241
75856W        W35392   8.801  23.045   3.301
75857W        W35393   4.747  21.105   4.697
75858W        W35394  37.941  29.963  12.040
75859W        W35395  12.618  34.068  10.609
75860W        W35396  13.829  23.033  13.405
75861W        W35397  40.518  24.630  14.354
75862W        W35398   1.766  29.525  13.850
75863W        W35399  13.731  39.928   4.643
75864W        W35400  44.873  28.111  11.447
75865W        W35401  40.373  35.868   2.759
75866W        W35402  13.664  12.153   0.414
75867W        W35403   1.874   5.406   3.759
75868W        W35404  27.568  19.129   2.850
75869W        W35405  30.085   0.280  11.892
75870W        W35406   2.821  14.835  10.451
75871W        W35407  25.609  21.679   4.827
75872W        W35408  13.738   7.901  13.064
75873W        W35409  31.023  14.593  11.466
75874W        W35410  16.281  41.358   2.204
75875W        W35411  22.205  21.097  10.544
75876W        W35412  14.680   1.442   4.681
75877W        W35413   6.214   1.771   3.716
75878W        W35414  23.014  40.408   2.826
75879W        W35415  13.637  28.676  12.397
75880W        W35416  29.575  25.568   5.087
75881W        W35417  16.233   7.767  12.051
75882W        W35418   0.838  39.504   1.242
75883W        W35419  44.786  38.042  12.933
75884W        W35420   4.425   8.372  12.877
75885W        W35421  30.615  13.118   3.770
75886W        W35422  31.401   5.891   3.226
75887W        W35423  32.909  36.945   1.324
75888W        W35424  20.741  33.565   2.329
75889W        W35425  13.772  30.625  10.442
75890W        W35426  20.726  43.981   3.826
75891W        W35427  39.524  20.657   4.167
75892W        W35428  23.724  13.161   1.919
75893W        W35429  29.072  17.302  13.954
75894W        W35430  25.072   5.310  13.510
75895W        W35431  35.469   5.257  14.805
75896W        W35432   7.315  40.039   3.659
75897W        W35433  11.200  14.703  13.487
75898W        W35434  41.826  14.279  11.008
75899W        W35435  27.160   4.443   3.767
75900W        W35436  31.132   4.748   2.773
75901W        W35437  38.465  36.917  13.052
75902W        W35438   1.331  27.608  11.118
75903W        W35439  19.642  16.224   3.692
75904W        W35440  32.599  36.959   1.422
75905W        W35441  10.815  39.808   1.794
75906W        W35442  43.352  38.493  11.045
75907W        W35443  21.722  30.610   3.270
75908W        W35444  28.622  12.692   2.346
75909W        W35445  20.672  14.742   1.869
75910W        W35446  32.433  15.298  14.333
75911W        W35447  41.979  24.702   4.674
75912W        W35448  44.496  41.439  12.876
75913W        W35449  28.084  37.840   1.326
75914W        W35450  42.372  18.259   1.824
75915W        W35451  13.327  26.060  12.440
75916W        W35452  23.088  32.599   3.777
75917W        W35453  38.922  40.327   5.260
75918W        W35454  43.917   7.352   1.849
75919W        W35455  27.980  21.577  11.447
75920W        W35456  15.641   9.644  11.047
75921W        W35457  29.538  24.714   3.742
75922W        W35458  35.470  27.965  10.458
75923W        W35459  24.488  16.314   4.829
75924W        W35460  30.957   3.767   2.767
75925W        W35461  23.109  16.775   2.701
75926W        W35462  29.049  15.257   3.759
75927W        W35463  14.681  32.084   1.263
75928W        W35464  29.578  11.735  10.153
75929W        W35465  40.365   7.274  11.043
75930W        W35466  35.943  12.752  10.891
75931W        W35467  40.401   8.302   3.255
75932W        W35468   4.275  30.479  14.338
75933W        W35469   6.757  16.142  12.538
75934W        W35470  24.532  24.539   1.750
75935W        W35471   0.769  23.123   2.843
75936W        W35472  39.893  10.281   2.852
75937W        W35473  22.699  22.618   2.371
75938W        W35474  34.951   5.380  11.875
75939W        W35475   5.373  21.555  12.845
75940W        W35476  36.554  14.124  14.019
75941W        W35477   4.262  12.697  12.375
75942W        W35478  42.444  28.132  11.017
75943W        W35479  26.509  15.173  12.013
75944W        W35480  24.220   5.911  12.059
75945W        W35481  34.963   8.862  13.937
75946W        W35482   2.900  13.802   3.678
75947W        W35483  28.588  12.345   0.809
75948W        W35484  43.911   4.424  13.346
75949W        W35485  29.001  18.624   2.260
75950W        W35486   8.680  27.614   1.225
75951W        W35487  21.663   8.779   1.933
75952W        W35488  14.208  37.057  10.590
75953W        W35489  27.027  17.710   4.827
75954W        W35490   0.927   5.757  13.366
75955W        W35491  14.673  37.007   0.395
75956W        W35492   9.303   2.273   3.254
75957W        W35493  24.973  12.815  14.021
75958W        W35494  17.681  27.121   1.907
75959W        W35495  34.451  44.338   3.207
75960W        W35496  21.556  13.140  14.973
75961W        W35497  15.319   9.693  12.867
75962W        W35498  24.545   3.720  11.515
75963W        W35499   8.710  16.615   0.728
75964W        W35500  38.462  19.207  10.996
75965W        W35501  20.705  41.356   2.667
75966W        W35502  32.504  43.462  12.520
75967W        W35503  36.351  29.064   1.922
75968W        W35504  28.178  37.473  14.421
75969W        W35505  22.040  26.179  10.638
75970W        W35506  16.280  33.073  10.567
75971W        W35507  10.755   1.736   4.158
75972W        W35508  12.361  35.365   0.336
75973W        W35509  42.791   7.298  14.946
75974W        W35510  31.535  17.782  10.588
75975W        W35511   1.457   4.261  12.990
75976W        W35512   2.438  26.629   1.319
75977W        W35513  28.671  31.017   2.207
75978W        W35514   2.787  15.236   3.156
75979W        W35515  21.207   4.308   1.700
75980W        W35516  15.758   7.908  14.377
75981W        W35517  40.433  16.127   3.240
75982W        W35518  22.062  15.684  14.833
75983W        W35519  32.079  23.994   1.213
75984W        W35520  12.273  21.051  13.999
75985W        W35521  44.276   3.831   2.809
75986W        W35522  25.518  31.594   1.702
75987W        W35523  35.035  14.321   0.892
75988W        W35524  33.911  21.674  13.314
75989W        W35525  29.121   7.418  11.912
75990W        W35526  42.827  27.666  10.547
75991W        W35527  11.835   8.222  14.513
75992W        W35528   0.820  22.055  11.490
75993W        W35529  33.000  31.916   1.917
75994W        W35530   1.247  28.163   1.844
75995W        W35531  21.615  27.531  12.076
75996W        W35532   0.333  40.489   4.792
75997W        W35533  26.562  29.961  13.056
75998W        W35534  10.320  27.994  14.372
75999W        W35535  10.717  38.953  13.906
76000W        W35536   0.377  27.960   3.364
76001W        W35537  11.644  36.062  13.351
76002W        W35538  39.989   3.742  13.901
76003W        W35539  22.235  21.205   0.396
76004W        W35540  24.511  38.859   5.292
76005W        W35541   6.359  11.639   4.343
76006W        W35542  35.472  29.963  10.532
76007W        W35543   6.369  29.496  13.518
76008W        W35544   2.947  11.147  12.922
76009W        W35545  32.615  15.180  11.540
76010W        W35546  28.599  12.135   3.243
76011W        W35547  13.603  39.049  11.114
76012W        W35548  21.590  35.959  14.355
76013W        W35549  12.227   3.241  13.475
76014W        W35550  38.961  42.358  11.953
76015W        W35551  37.477  28.569   2.338
76016W        W35552  36.591  18.246  12.513
76017W        W35553  17.136  26.992  13.315
76018W        W35554  18.231  42.500  13.381
76019W        W35555  25.964  41.394   2.342
76020W        W35556  18.557  39.330  13.912
76021W        W35557  16.708  34.440   4.118
76022W        W35558  40.921  19.621   1.740
76023W        W35559  33.019   7.195  12.887
76024W        W35560   0.306  31.984   1.374
76025W        W35561   6.847  44.492   2.839
76026W        W35562  14.196  22.689  12.525
76027W        W35563  15.274  25.597  12.847
76028W        W35564  22.251  12.853   1.805
76029W        W35565   5.243  28.043  14.845
76030W        W35566  37.377  33.970   2.850
76031W        W35567  29.428  21.703  13.329
76032W        W35568  24.708  22.037   5.680
76033W        W35569  31.492  17.220  14.498
76034W        W35570  13.782  15.214  14.494
76035W        W35571  10.321  44.429  10.927
76036W        W35572  12.271  42.404  14.972
76037W        W35573  38.339  33.951   1.700
76038W        W35574  22.575  18.785   0.405
76039W        W35575  24.005  13.316  11.475
76040W        W35576  16.177   5.744   3.820
76041W        W35577  26.468   5.787  11.538
76042W        W35578  11.240  44.831  13.908
76043W        W35579  30.054   7.723  14.861
76044W        W35580  39.921  25.670   4.150
76045W        W35581  15.773  15.686  12.043
76046W        W35582  33.578   2.422  10.470
76047W        W35583  42.467  30.947   4.128
76048W        W35584  30.999   2.922   2.688
76049W        W35585   6.861   8.811   0.735
76050W        W35586  30.030  41.423   0.282
76051W        W35587   2.746  35.598  13.539
76052W        W35588  40.986  44.983  14.926
76053W        W35589   0.346  19.635   2.804
76054W        W35590  23.212   5.725  11.488
76055W        W35591  21.223   0.251   3.308
76056W        W35592  35.986  25.062   1.803
76057W        W35593  23.634  16.649   4.287
76058W        W35594   6.257   7.246  12.453
76059W        W35595  40.899  33.084  10.532
76060W        W35596  30.017  25.530   1.215
76061W        W35597  29.607   0.349  12.921
76062W        W35598  11.669  38.556  12.008
76063W        W35599  21.558  18.699   1.909
76064W        W35600  38.502   7.714  14.765
76065W        W35601   7.887   4.278  13.530
76066W        W35602  10.310  12.282  13.399
76067W        W35603   0.978   3.382   2.315
76068W        W35604  36.080  12.201   3.159
76069W        W35605  22.155  24.661  13.862
76070W        W35606   2.862  31.528   3.811
76071W        W35607   5.268   2.305   3.269
76072W        W35608   7.726   8.654   4.838
76073W        W35609  23.513   0.967   1.870
76074W        W35610  24.978  44.968   0.466
76075W        W35611  21.651  18.620   3.261
76076W        W35612   2.444  18.288  11.928
76077W        W35613  21.558  12.190  10.929
76078W        W35614  22.610   5.888   0.376
76079W        W35615  22.664  29.072   0.423
76080W        W35616  20.622  27.179   1.707
76081W        W35617   1.780  31.921   4.123
76082W        W35618  18.147  25.658   0.857
76083W        W35619  21.660  28.004  12.373
76084W        W35620   2.756  39.883  13.317
76085W        W35621   9.209  15.804   1.231
76086W        W35622  22.683  44.261  14.794
76087W        W35623  30.972  11.266  14.803
76088W        W35624   2.771  42.975  11.562
76089W        W35625  42.403   9.205  14.935
76090W        W35626  10.296  23.095   2.203
76091W        W35627  20.241  31.152  14.787
76092W        W35628  23.092  26.182   4.130
76093W        W35629   4.787   2.407   4.653
76094W        W35630  15.166  44.265  10.112
76095W        W35631  41.904  33.458  10.494
76096W        W35632  29.612  14.686   4.340
76097W        W35633  38.368  15.803   2.674
76098W        W35634  29.521   3.451  14.397
76099W        W35635   3.714  35.909  12.847
76100W        W35636  37.493  17.297   0.805
76101W        W35637  22.172  40.363  12.487
76102W        W35638  42.888  26.179   1.450
76103W        W35639  31.073  37.477  13.961
76104W        W35640  29.032  16.221  11.932
76105W        W35641   7.776  36.881  12.030
76106W        W35642  30.483  39.935   4.131
76107W        W35643  12.666  12.291  13.366
76108W        W35644  27.107  24.613  13.969
76109W        W35645  12.308  19.778   2.315
76110W        W35646   5.384  18.730  11.398
76111W        W35647  38.384  38.053   4.780
76112W        W35648  38.500   9.199  11.613
76113W        W35649  12.742   7.870  12.942
76114W        W35650  26.136   0.796  12.421
76115W        W35651  11.253  42.462   3.656
76116W        W35652  24.588  34.603  12.825
76117W        W35653  30.963  35.939  14.293
76118W        W35654  23.187  43.907   2.398
76119W        W35655  20.162  37.970  13.399
76120W        W35656  21.251  13.162  10.615
76121W        W35657  24.666  10.351  12.513
76122W        W35658  19.585   3.275   4.648
76123W        W35659  23.637  39.056  11.059
76124W        W35660  40.813   6.402  13.843
76125W        W35661  41.963  39.483  12.361
76126W        W35662  25.608  12.133  13.994
76127W        W35663  29.931  11.244   0.947
76128W        W35664   1.822   6.239  11.606
76129W        W35665   2.870  10.837  11.608
76130W        W35666  44.439  42.427   0.802
76131W        W35667   5.311  24.616   5.205
76132W        W35668   3.233  25.089  13.514
76133W        W35669  43.874   4.883   1.282
76134W        W35670   0.302  41.835   3.292
76135W        W35671   6.875  37.391  12.424
76136W        W35672   1.964  29.604   1.388
76137W        W35673  12.839   2.366  13.543
76138W        W35674  22.246  42.464  10.439
76139W        W35675   7.724   2.784  10.634
76140W        W35676  30.603  31.509  12.565
76141W        W35677   6.372  34.026   4.622
76142W        W35678   6.284  35.377  11.881
76143W        W35679  26.980  36.070   2.398
76144W        W35680   9.701  30.965  14.897
76145W        W35681  26.690  41.360   2.830
76146W        W35682  33.985   9.323   2.900
76147W        W35683  36.892  25.039   2.662
76148W        W35684  44.466  18.789  13.310
76149W        W35685  24.584  25.138   0.827
76150W        W35686   7.322   6.800  11.024
76151W        W35687  13.317  12.340  12.405
76152W        W35688  38.845  14.706   4.310
76153W        W35689  29.157  11.248   1.359
76154W        W35690  20.569   1.866  14.297
76155W        W35691  28.578  40.875  11.520
76156W        W35692   9.377  35.565  14.377
76157W        W35693  27.461  12.171   1.702
76158W        W35694  16.570  21.728   0.248
76159W        W35695  23.204   5.916  13.061
76160W        W35696   9.882  29.559   0.835
76161W        W35697  27.595  15.255  13.491
76162W        W35698  16.265  43.875  10.511
76163W        W35699   6.372  43.271   1.787
76164W        W35700  43.825  37.421  11.916
76165W        W35701  10.212  37.422   4.297
76166W        W35702  36.448  14.247   2.301
76167W        W35703  33.096  35.987   1.258
76168W        W35704  15.103  12.691   0.458
76169W        W35705  37.009   4.757   1.337
76170W        W35706  30.628  36.471   1.824
76171W        W35707   6.859  36.929   4.769
76172W        W35708  23.990  24.620   2.675
76173W        W35709  13.613  43.923   1.762
76174W        W35710  29.508  35.031  10.583
76175W        W35711  39.317  26.605   2.770
76176W        W35712   8.785   5.322   4.730
76177W        W35713  25.168  24.027  14.371
76178W        W35714  11.213   5.889  14.782
76179W        W35715  26.023   2.468  12.421
76180W        W35716   0.258   6.220  12.445
76181W        W35717   1.256   9.381  12.561
76182W        W35718   8.747  22.620   2.404
76183W        W35719  26.490  19.619   0.930
76184W        W35720  16.141   5.822   1.406
76185W        W35721  27.576  31.932  11.545
76186W        W35722  39.037  22.622  11.465
76187W        W35723  22.678  41.465  11.461
76188W        W35724  29.561   1.744   5.134
76189W        W35725  19.714  39.320   4.184
76190W        W35726   3.300   0.259  13.999
76191W        W35727  13.346  38.568  14.289
76192W        W35728  18.187  16.656  12.850
76193W        W35729   0.975  36.893  13.390
76194W        W35730  41.311  21.728  11.575
76195W        W35731  41.346  22.600   5.092
76196W        W35732  39.870  42.968  14.291
76197W        W35733   0.441  21.690  10.989
76198W        W35734   9.259   4.429  12.948
76199W        W35735   9.807  25.031  14.352
76200W        W35736  30.488  36.892   3.379
76201W        W35737  28.152  41.538   3.652
76202W        W35738   9.840   5.852  14.371
76203W        W35739  43.873   0.966  14.866
76204W        W35740   8.704  11.718  12.436
76205W        W35741  31.529   5.872   0.339
76206W        W35742   9.834  43.304  12.578
76207W        W35743  14.203  37.467   0.467
76208W        W35744   9.782   3.315   0.958
76209W        W35745   8.789  20.054  13.835
76210W        W35746  25.123  17.680   4.212
76211W        W35747  25.578  43.313  12.868
76212W        W35748  32.454   9.226   3.270
76213W        W35749  20.605  12.162  11.609
76214W        W35750  34.558  41.852   1.369
76215W        W35751   5.377  24.674  13.402
76216W        W35752   5.751   1.241   1.916
76217W        W35753  23.678  23.686  11.601
76218W        W35754  29.562  29.114   2.400
76219W        W35755   5.391   0.915  10.115
76220W        W35756   4.807  21.734  13.042
76221W        W35757  11.827  25.013   1.862
76222W        W35758  36.450   5.238  10.446
76223W        W35759   7.240  39.826   1.777
76224W        W35760  30.917  11.809  10.917
76225W        W35761  39.356  28.949  13.845
76226W        W35762  12.747   0.851   3.635
76227W        W35763  15.282   3.808  10.954
76228W        W35764  43.431  34.550  14.765
76229W        W35765  39.827   7.733  13.050
76230W        W35766  23.697  27.450   1.831
76231W        W35767  17.074   3.731   2.397
76232W        W35768  35.104   4.878  13.452
76233W        W35769  34.991  13.153   1.245
76234W        W35770  15.824  19.618   0.264
76235W        W35771   8.822  26.019   0.764
76236W        W35772  13.201  19.049   1.297
76237W        W35773  29.922   4.394   3.745
76238W        W35774  20.579  30.954   4.137
76239W        W35775  13.703  25.474   1.906
76240W        W35776  17.167  28.157   4.633
76241W        W35777  26.047   6.295   0.382
76242W        W35778   1.876  36.021   0.395
76243W        W35779   7.773  42.489   1.444
76244W        W35780  38.424  24.497  13.409
76245W        W35781   1.247  40.017  14.855
76246W        W35782  39.379   7.712   4.179
76247W        W35783  16.779  16.212   2.338
76248W        W35784  11.129   1.764  11.051
76249W        W35785  36.880  40.545  13.891
76250W        W35786  19.266  19.583  13.905
76251W        W35787  37.042   8.282  11.498
76252W        W35788   8.401  26.589  14.790
76253W        W35789  13.607  19.111  14.435
76254W        W35790  10.725  34.901   3.702
76255W        W35791  28.461   8.833  11.059
76256W        W35792  13.729   2.875   0.945
76257W        W35793  39.441  18.277   3.297
76258W        W35794  32.565  35.957  13.480
76259W        W35795   2.813  10.247   2.770
76260W        W35796  31.564  34.031   0.891
76261W        W35797  31.645  11.706  13.357
76262W        W35798  20.701   2.789  11.016
76263W        W35799  10.771  35.554   1.427
76264W        W35800  35.059  17.746  13.358
76265W        W35801  13.222  33.904   3.658
76266W        W35802  43.808  36.394   2.807
76267W        W35803   3.421  43.357   1.244
76268W        W35804  30.141  34.957  13.037
76269W        W35805  38.487  39.422   4.181
76270W        W35806   7.814   0.488   1.355
76271W        W35807   4.437   0.951  11.907
76272W        W35808  24.632  36.893  13.802
76273W        W35809  31.152   6.788  14.900
76274W        W35810  15.275  33.975  14.971
76275W        W35811  38.010  43.814  14.314
76276W        W35812  24.637  15.129   0.289
76277W        W35813  17.717  27.066  13.365
76278W        W35814  21.599   5.734   2.834
76279W        W35815  27.562   8.675  13.862
76280W        W35816  13.661  31.618  14.856
76281W        W35817  43.880  11.668   4.174
76282W        W35818  37.411  31.975  10.107
76283W        W35819  25.584  41.385  11.513
76284W        W35820  35.920  23.681  13.400
76285W        W35821  16.763  22.012  12.976
76286W        W35822  44.869  21.556   3.280
76287W        W35823  16.654  37.010   0.422
76288W        W35824  37.859   1.947   2.861
76289W        W35825  11.365  24.134   0.834
76290W        W35826  27.524  36.422  13.335
76291W        W35827  17.167  22.597  10.507
76292W        W35828  42.359  34.115  14.452
76293W        W35829   1.472  33.906   1.409
76294W        W35830  11.652  22.682  11.054
76295W        W35831   9.815  24.639   2.223
76296W        W35832   7.841  24.115   2.837
76297W        W35833  13.120  35.481   2.668
76298W        W35834  15.244  42.526   2.692
76299W        W35835  43.815  28.525   2.810
76300W        W35836  40.814  15.253  13.499
76301W        W35837  24.099  28.447   0.875
76302W        W35838  35.880   8.882  11.530
76303W        W35839  33.476  36.410  11.944
76304W        W35840  42.915  37.474   1.366
76305W        W35841  14.599  28.166  13.491
76306W        W35842  39.014  35.515  11.489
76307W        W35843  40.412  28.010  12.451
76308W        W35844   1.283   2.352   2.225
76309W        W35845  44.386  37.519   2.324
76310W        W35846  31.566  24.143   4.126
76311W        W35847  23.546   6.733   3.831
76312W        W35848  28.959  11.799  12.399
76313W        W35849  33.384  35.554  13.882
76314W        W35850   2.363  33.889   1.381
76315W        W35851  44.284  41.436  12.468
76316W        W35852   2.779  30.966  10.537
76317W        W35853  19.233  42.419   0.753
76318W        W35854  19.275  36.485  12.463
76319W        W35855  14.705  42.287  13.992
76320W        W35856  29.956  44.838   0.906
76321W        W35857  15.783  21.582  11.508
76322W        W35858   0.341  41.977  11.889
76323W        W35859   6.806  16.754  10.929
76324W        W35860  17.193   7.867   3.652
76325W        W35861  19.730  29.424  13.967
76326W        W35862  13.718  10.299   1.745
76327W        W35863  39.003   0.253   2.668
76328W        W35864  37.845  44.299   3.180
76329W        W35865  25.622  20.765   1.728
76330W        W35866   4.348  31.632  12.937
76331W        W35867  28.487   2.384   3.350
76332W        W35868  18.152  29.034  14.330
76333W        W35869  37.568  29.153   4.280
76334W        W35870  17.161  44.345   2.322
76335W        W35871   6.879  22.653   4.831
76336W        W35872  18.238  34.977   1.389
76337W        W35873  11.705  38.049  13.029
76338W        W35874   6.748  40.530   1.210
76339W        W35875   8.260  39.315  12.075
76340W        W35876  34.398   3.759  13.967
76341W        W35877   0.468  39.413   4.272
76342W        W35878  25.209  26.057  14.458
76343W        W35879   6.776  21.636  14.891
76344W        W35880  44.824  36.998  11.965
76345W        W35881   3.794  10.141  14.837
76346W        W35882  36.557   2.242  12.910
76347W        W35883   3.219  43.281  12.540
76348W        W35884  12.783   5.777   0.388
76349W        W35885  14.287  23.137   3.823
76350W        W35886  36.512   5.749  14.358
76351W        W35887   0.908  10.808  10.934
76352W        W35888  12.704  23.166  10.502
76353W        W35889  11.815   6.705   1.890
76354W        W35890  13.270  19.669  14.896
76355W        W35891   6.308   2.245  14.877
76356W        W35892  10.774  37.368   0.329
76357W        W35893  14.156  16.285  10.627
76358W        W35894  27.685   8.262   3.175
76359W        W35895  37.484  23.072   3.823
76360W        W35896  38.914  44.278   4.304
76361W        W35897  32.439  40.529  14.002
76362W        W35898  25.005   9.381   2.264
76363W        W35899  10.722  40.928   0.839
76364W        W35900  40.017  16.151  11.474
76365W        W35901  12.116  19.213   3.356
76366W        W35902  35.371  22.057   2.208
76367W        W35903  36.984   5.331  13.463
76368W        W35904  15.285  38.029  11.911
76369W        W35905  38.856   7.296  14.398
76370W        W35906  37.395  41.506   0.754
76371W        W35907  24.204  10.144   0.745
76372W        W35908  32.136  20.238   2.850
76373W        W35909  16.771  18.559   0.899
76374W        W35910   2.720  44.969   1.325
76375W        W35911  34.498  19.160  13.474
76376W        W35912   9.774  16.735  13.802
76377W        W35913  43.516  20.747  10.632
76378W        W35914   3.318  33.901   1.916
76379W        W35915   3.874  12.792  14.375
76380W        W35916  29.576  13.220  11.514
76381W        W35917  23.026   6.863  14.936
76382W        W35918   3.272  23.068   0.829
76383W        W35919  27.974  38.357  12.838
76384W        W35920   8.851  41.538   3.182
76385W        W35921  10.313   6.839   2.712
76386W        W35922   7.851  42.379  14.958
76387W        W35923   8.198  27.505  14.507
76388W        W35924  36.346   7.905  12.982
76389W        W35925  28.939  31.579  11.512
76390W        W35926  44.994  20.733  11.048
76391W        W35927  24.640  26.545  11.553
76392W        W35928  34.550  41.800  14.380
76393W        W35929  44.867   2.307  14.894
76394W        W35930  18.272   8.388   2.784
76395W        W35931  19.543  15.670   4.268
76396W        W35932  29.448  38.919   9.920
76397W        W35933  31.915   0.944   4.317
76398W        W35934  23.681  11.292   0.840
76399W        W35935   9.387  31.554   0.869
76400W        W35936  39.560  27.049  14.429
76401W        W35937   2.391  36.964   0.309
76402W        W35938  26.617  10.354   4.657
76403W        W35939  15.114  28.134   0.398
76404W        W35940  44.961  31.457   1.290
76405W        W35941  20.698  18.134  11.603
76406W        W35942   4.798  40.520  11.055
76407W        W35943   2.732  40.914  11.447
76408W        W35944  16.210  29.981  10.959
76409W        W35945   5.702  26.136  13.420
76410W        W35946   1.922  38.897   0.821
76411W        W35947   3.903  41.349   4.339
76412W        W35948  12.161  29.019   3.743
76413W        W35949  11.626   0.368  11.042
76414W        W35950  31.924  36.476  13.409
76415W        W35951  32.965  15.118   0.347
76416W        W35952  23.131   3.715   5.319
76417W        W35953  28.939  15.742  10.889
76418W        W35954  43.822  14.210   3.242
76419W        W35955  41.945  12.647   2.739
76420W        W35956  17.796  29.152   4.801
76421W        W35957   7.845  29.454   2.406
76422W        W35958   2.723  10.306   3.656
76423W        W35959  31.635  20.064   0.890
76424W        W35960  33.379  35.053   4.152
76425W        W35961  17.124  17.273   4.193
76426W        W35962  26.526   8.196   0.952
76427W        W35963  30.149  38.442  14.916
76428W        W35964  16.219  14.170   2.340
76429W        W35965  21.526  18.563   2.800
76430W        W35966  20.668  13.842  13.967
76431W        W35967  25.699  38.944   3.830
76432W        W35968   1.371  23.155   1.881
76433W        W35969   4.404  28.984   3.240
76434W        W35970  28.173   7.751   0.436
76435W        W35971  17.183   5.863  11.409
76436W        W35972  30.919  31.948  13.795
76437W        W35973  22.039  22.711  14.771
76438W        W35974  42.776  13.180  14.869
76439W        W35975   1.335  32.987   0.918
76440W        W35976  22.079   1.403   2.754
76441W        W35977  36.346  14.237   3.673
76442W        W35978   6.872  25.679   3.842
76443W        W35979  40.406  26.698  10.451
76444W        W35980  22.720  39.987  12.357
76445W        W35981  26.678   6.722   0.881
76446W        W35982  22.197  34.955  12.534
76447W        W35983  31.019  44.898  13.832
76448W        W35984   8.807  41.532  11.457
76449W        W35985  16.186  19.140   3.252
76450W        W35986  40.348   9.854   3.703
76451W        W35987   2.761   9.178   3.659
76452W        W35988  10.645  36.934   4.285
76453W        W35989  17.162   9.879   2.223
76454W        W35990  30.546  42.838   4.239
76455W        W35991  42.358  36.915   4.249
76456W        W35992   0.862  21.673   3.632
76457W        W35993  36.952  25.997   3.153
76458W        W35994  22.741  12.850  11.527
76459W        W35995  37.005  16.619  10.888
76460W        W35996  38.505  22.243   2.815
76461W        W35997  19.278  37.355   3.239
76462W        W35998  11.373  23.540   2.195
76463W        W35999  26.991  13.741  12.963
76464W        W36000  20.264  26.546   2.206
76465W        W36001   7.844  26.193  13.419
76466W        W36002  41.343  31.028  14.821
76467W        W36003  29.553  29.021   4.694
76468W        W36004  12.761   5.718  11.107
76469W        W36005  16.632  21.591  12.900
76470W        W36006  10.643  11.764  11.375
76471W        W36007  10.712   7.827  14.994
76472W        W36008  40.413   8.883   1.754
76473W        W36009  26.606   8.813  10.492
76474W        W36010  25.698  42.357   0.808
76475W        W36011  22.175  39.028  10.091
76476W        W36012   7.362  43.924  12.935
76477W        W36013  43.794  42.833  11.975
76478W        W36014   9.780   7.753   0.433
76479W        W36015   7.320  43.481  11.049
76480W        W36016  24.017  33.607   2.812
76481W        W36017  12.170  31.020  10.491
76482W        W36018  18.254   4.824  13.010
76483W        W36019  27.550  21.231   2.662
76484W        W36020   3.934  29.986   0.868
76485W        W36021  15.169  19.636   9.932
76486W        W36022  16.809  20.266   2.678
76487W        W36023  14.131  43.327   3.682
76488W        W36024   9.696  24.612  13.320
76489W        W36025  14.621  10.657  14.416
76490W        W36026  43.504   7.850   4.113
76491W        W36027  34.456  31.415   2.729
76492W        W36028   7.769  20.689   2.686
76493W        W36029  31.452   3.302  12.433
76494W        W36030  21.198  14.193   3.326
76495W        W36031  39.972  12.351   4.704
76496W        W36032  21.064   1.910  13.383
76497W        W36033  41.426  22.098  14.292
76498W        W36034  32.467  23.645  11.986
76499W        W36035  32.396  41.481   2.314
76500W        W36036  40.512   0.859  12.577
76501W        W36037  24.615  11.792  12.478
76502W        W36038  18.737  26.153   0.415
76503W        W36039  39.824  10.173  13.368
76504W        W36040  18.591  19.239   0.332
76505W        W36041  30.937  23.066   3.192
76506W        W36042   6.687   2.861   4.826
76507W        W36043  12.270  10.295   3.764
76508W        W36044  12.228  13.667  13.904
76509W        W36045  27.942  10.228   0.915
76510W        W36046  30.591  18.169  14.364
76511W        W36047   3.822   1.849  11.524
76512W        W36048  16.180  30.416  13.798
76513W        W36049   3.750   0.459  10.160
76514W        W36050   3.905  31.554   1.935
76515W        W36051   9.754   2.721   1.886
76516W        W36052  11.180  13.251   4.614
76517W        W36053   6.259  14.094   5.098
76518W        W36054   3.360  23.695   0.866
76519W        W36055   5.914  30.451   2.241
76520W        W36056   8.310  31.600  13.322
76521W        W36057   5.323  36.023   0.897
76522W        W36058   8.789  19.578   2.214
76523W        W36059  42.845  42.941   0.855
76524W        W36060  15.300   1.438   1.717
76525W        W36061   0.898  28.166   2.809
76526W        W36062  41.018  18.090   4.285
76527W        W36063  24.675  35.933  12.053
76528W        W36064  26.134  24.556  11.609
76529W        W36065  31.464   1.857   3.208
76530W        W36066   4.837   9.844  14.339
76531W        W36067  35.966  31.144   4.278
76532W        W36068  28.503  44.261   4.209
76533W        W36069  24.684  10.360  10.566
76534W        W36070   6.682  24.156   2.789
76535W        W36071  34.498  31.130   1.373
76536W        W36072  44.995  35.897  13.973
76537W        W36073  18.639  42.907   5.222
76538W        W36074  15.161   8.712  13.807
76539W        W36075  15.645  25.068   3.670
76540W        W36076  24.485   8.340  11.085
76541W        W36077   2.462  17.093   5.286
76542W        W36078   0.942  11.302  12.341
76543W        W36079  12.242  35.972  13.460
76544W        W36080  33.425  35.869  10.522
76545W        W36081  41.983  41.806  14.900
76546W        W36082  29.560  44.485  13.481
76547W        W36083  36.439  24.981  12.063
76548W        W36084  40.362  10.210   3.840
76549W        W36085  29.069  23.565   1.758
76550W        W36086  34.613  40.848  14.960
76551W        W36087  13.145  21.081  10.945
76552W        W36088  39.396  36.436  12.491
76553W        W36089  37.415  11.818   3.359
76554W        W36090   5.808  30.540   1.303
76555W        W36091  29.599   7.383   2.418
76556W        W36092  17.766  38.930  10.543
76557W        W36093   0.790  42.319   2.384
76558W        W36094   0.355  17.565   0.407
76559W        W36095   9.342  35.941  13.527
76560W        W36096  26.597  24.049   1.343
76561W        W36097  42.982  43.470  11.998
76562W        W36098  36.537   1.809  14.838
76563W        W36099  15.231  36.034   4.294
76564W        W36100  10.190   0.283  14.860
76565W        W36101  12.780  35.926   1.851
76566W        W36102  13.810  36.986  14.946
76567W        W36103  40.487   2.369   4.222
76568W        W36104   8.384  15.729   4.646
76569W        W36105   3.945  43.887  10.474
76570W        W36106  32.632  32.027   4.289
76571W        W36107  33.551   8.855  13.522
76572W        W36108  20.695  44.906   1.737
76573W        W36109  35.562  36.511  13.315
76574W        W36110  30.647  29.573  12.496
76575W        W36111  43.803   3.350   2.314
76576W        W36112   7.778  30.585   3.642
76577W        W36113  42.520  40.493  11.436
76578W        W36114  20.251   4.778   3.721
76579W        W36115  23.022  27.483  10.890
76580W        W36116  14.647  22.515  10.535
76581W        W36117  31.994  24.681  11.037
76582W        W36118  43.772  20.267  12.473
76583W        W36119  39.856  35.913  13.419
76584W        W36120   8.260  34.099  11.122
76585W        W36121  29.102   2.816  14.885
76586W        W36122  42.950  38.039  11.051
76587W        W36123  36.096  37.428   1.341
76588W        W36124   6.267  20.235  11.889
76589W        W36125   8.264   8.750  13.408
76590W        W36126  36.023  34.870   2.671
76591W        W36127  24.146  29.617  11.059
76592W        W36128  13.667  32.137  10.615
76593W        W36129  42.374  21.209  14.937
76594W        W36130  12.214  27.527  13.367
76595W        W36131  30.099   4.939  12.477
76596W        W36132  16.650  31.434  13.437
76597W        W36133  22.046  16.625   0.832
76598W        W36134  30.120  14.760   4.785
76599W        W36135   8.172  27.051   1.719
76600W        W36136  43.880   9.156   1.913
76601W        W36137   9.706  11.710  13.040
76602W        W36138  17.699  30.916   3.863
76603W        W36139  21.526  41.495  14.957
76604W        W36140  40.924   6.339   1.385
76605W        W36141  20.063  15.583  14.310
76606W        W36142  26.511  12.620  10.474
76607W        W36143   6.408  10.223   4.240
76608W        W36144  20.575  20.694  13.469
76609W        W36145  37.014  43.344  12.874
76610W        W36146  42.914  38.075  14.944
76611W        W36147  26.187   8.741   3.687
76612W        W36148  19.654  31.926  13.336
76613W        W36149  27.106  37.495  13.347
76614W        W36150   9.691  34.601  13.051
76615W        W36151  18.617  27.136   3.633
76616W        W36152  39.846  17.147  11.049
76617W        W36153  40.953  41.295  12.862
76618W        W36154  10.717   6.359   1.705
76619W        W36155  19.131  37.999  14.962
76620W        W36156  30.598  12.251   1.909
76621W        W36157  30.511   0.968  11.914
76622W        W36158  27.520  25.591  14.890
76623W        W36159  10.684  43.892  14.005
76624W        W36160  41.486  43.838   4.650
76625W        W36161  33.550  21.164   3.720
76626W        W36162  30.515  44.822   4.308
76627W        W36163  18.744  17.692  12.991
76628W        W36164   4.408   1.418   0.466
76629W        W36165   5.794  23.170  14.917
76630W        W36166  44.475   6.811   0.738
76631W        W36167  26.179  26.609   1.874
76632W        W36168  33.605  10.762   3.204
76633W        W36169  12.639  10.762  10.570
76634W        W36170   2.747  42.843  14.448
76635W        W36171  35.513  11.773   1.931
76636W        W36172   0.775  43.431  11.897
76637W        W36173  12.829  33.926   3.631
76638W        W36174  43.821  14.120  11.009
76639W        W36175  18.712  23.627   3.215
76640W        W36176   3.725  17.684  14.445
76641W        W36177  24.501  19.147   0.763
76642W        W36178  15.621  21.549   4.159
76643W        W36179  36.943  17.585   2.354
76644W        W36180   5.712   6.192  14.285
76645W        W36181  19.147  40.513  11.050
76646W        W36182  21.689  29.622   1.875
76647W        W36183   1.431   9.160  13.420
76648W        W36184  43.500  19.575   3.317
76649W        W36185   6.279   2.372  11.567
76650W        W36186  31.590   7.774   2.682
76651W        W36187  41.948   8.740  10.937
76652W        W36188  20.613  40.997   0.754
76653W        W36189  27.542  37.037   1.360
76654W        W36190  33.536  41.014   4.291
76655W        W36191  35.062  23.494   0.302
76656W        W36192  15.252  30.114  12.926
76657W        W36193  39.531  27.161  13.353
76658W        W36194   2.804  15.657  14.011
76659W        W36195  21.551  28.081  14.834
76660W        W36196   5.415  30.091  13.426
76661W        W36197  40.437  38.493   3.767
76662W        W36198  29.547  12.714   3.653
76663W        W36199  16.121  37.066   0.336
76664W        W36200  42.886  15.196   3.263
76665W        W36201  38.447  24.723  14.031
76666W        W36202  32.025   2.815   0.245
76667W        W36203  38.977   2.743   3.840
76668W        W36204  17.236  39.003   4.316
76669W        W36205  33.117  23.008   3.323
76670W        W36206   6.243  41.913   0.480
76671W        W36207   6.258  35.918  11.562
76672W        W36208  20.185  38.349  13.828
76673W        W36209  13.295  17.162   3.653
76674W        W36210  25.541  44.997  11.508
76675W        W36211  26.205  13.816   4.626
76676W        W36212  31.089  32.076   0.391
76677W        W36213  19.712   0.954   2.335
76678W        W36214  26.033   3.832  12.961
76679W        W36215   0.296   0.850  14.874
76680W        W36216  22.055   8.817  14.358
76681W        W36217   1.250  29.172  13.972
76682W        W36218   5.799  44.897  11.601
76683W        W36219  25.038  12.224   0.875
76684W        W36220  44.441  26.695  13.904
76685W        W36221  44.829  29.158   3.166
76686W        W36222  24.697   9.195   4.828
76687W        W36223  10.256  41.517   3.741
76688W        W36224  43.827  42.455  10.907
76689W        W36225  14.141  38.003   0.381
76690W        W36226  16.165  43.920   0.845
76691W        W36227  42.355  15.677  12.495
76692W        W36228  43.806  32.581   1.311
76693W        W36229  22.611  21.085  14.439
76694W        W36230  26.067  41.972   4.331
76695W        W36231  16.246  13.824  14.923
76696W        W36232  21.631  26.161  12.516
76697W        W36233  40.405  34.878   0.843
76698W        W36234   6.911  41.403  13.477
76699W        W36235  17.560   9.268   3.159
76700W        W36236  24.018  43.359   0.862
76701W        W36237   0.894  43.489  14.791
76702W        W36238  40.511  14.217  11.604
76703W        W36239   3.288  29.464   3.867
76704W        W36240  40.863   3.412   3.731
76705W        W36241  25.106  21.609   4.318
76706W        W36242  30.631  24.572  12.371
76707W        W36243  37.420  24.499  12.072
76708W        W36244  13.639  30.445  14.860
76709W        W36245   7.866   1.770   9.968
76710W        W36246   6.850  21.635  12.354
76711W        W36247  43.479  30.151   3.159
76712W        W36248  40.382  12.824   0.839
76713W        W36249  14.786   3.791  10.957
76714W        W36250  29.465  15.614   5.226
76715W        W36251  21.183  37.528   0.315
76716W        W36252  29.514  44.937  11.541
76717W        W36253  20.029   0.385   0.880
76718W        W36254  24.566  28.138   0.252
76719W        W36255  23.496  33.874   4.245
76720W        W36256  20.146  24.706   3.367
76721W        W36257   1.758  22.008   2.838
76722W        W36258  38.457  44.391   0.444
76723W        W36259  25.646  10.785  14.423
76724W        W36260  21.546  26.019   3.820
76725W        W36261  27.072  30.076   1.332
76726W        W36262  44.909   0.393   0.477
76727W        W36263  34.433   2.868   2.356
76728W        W36264   8.224  15.232   3.342
76729W        W36265  26.144  40.346  10.579
76730W        W36266  36.568  32.633  10.957
76731W        W36267  28.954  44.980  11.062
76732W        W36268  30.631  16.261   0.917
76733W        W36269   8.316   1.765   0.265
76734W        W36270  36.402  18.640   3.726
76735W        W36271   3.829  17.181  14.013
76736W        W36272  19.186  20.609  10.409
76737W        W36273  14.653  23.235  12.886
76738W        W36274  37.837  29.041  11.450
76739W        W36275   2.926  35.902  14.338
76740W        W36276   6.912  14.327  14.989
76741W        W36277  21.154  40.508  10.642
76742W        W36278   1.792   9.813  10.136
76743W        W36279  20.566  27.577   2.714
76744W        W36280  32.513  30.603   0.319
76745W        W36281  39.419  20.764  10.440
76746W        W36282  33.489  25.689  14.843
76747W        W36283  42.485   3.383   3.705
76748W        W36284  42.906   6.216   3.335
76749W        W36285  17.216  32.944  14.513
76750W        W36286  23.218  20.104   2.807
76751W        W36287  31.095   4.427   3.703
76752W        W36288  26.003  39.373   5.145
76753W        W36289  16.216   9.352  13.003
76754W        W36290  32.517  14.322  14.346
76755W        W36291  19.268  29.475   4.120
76756W        W36292   8.866  23.505   0.410
76757W        W36293  29.019  22.118  14.499
76758W        W36294  31.576  19.775   2.186
76759W        W36295   7.715  12.239  11.493
76760W        W36296  40.882  34.959   4.309
76761W        W36297   8.244  24.589   1.912
76762W        W36298  36.844  20.191   0.251
76763W        W36299  22.212  20.573   2.358
76764W        W36300   0.282   7.407  14.795
76765W        W36301  14.807   8.395   9.652
76766W        W36302  21.136  36.883   3.738
76767W        W36303  25.074  17.292  11.882
76768W        W36304  42.822   7.700  11.103
76769W        W36305  11.632  16.730  14.875
76770W        W36306  18.758  17.589  11.560
76771W        W36307  43.397   3.917   0.284
76772W        W36308  33.408   0.988  11.560
76773W        W36309  12.850  39.559  11.947
76774W        W36310  42.462   0.457  12.966
76775W        W36311  16.139  18.752  11.585
76776W        W36312  19.649   0.975  10.608
76777W        W36313  29.635   1.431   4.158
76778W        W36314  43.353  15.220  13.982
76779W        W36315  27.633  17.623   4.785
76780W        W36316  12.230  20.038  11.011
76781W        W36317  39.523   2.813   3.777
76782W        W36318  21.045  15.792   4.693
76783W        W36319   9.800  39.353  13.393
76784W        W36320  32.545  17.259   1.315
76785W        W36321   2.866  17.061   4.735
76786W        W36322  35.887  41.405   3.653
76787W        W36323  31.614  32.526   2.216
76788W        W36324  34.968  25.126  13.321
76789W        W36325  37.400   4.283   2.408
76790W        W36326  11.833  11.810   4.179
76791W        W36327  12.738  44.777  11.997
76792W        W36328  26.064  10.671  13.538
76793W        W36329  37.849  10.230   3.699
76794W        W36330  34.458  14.814  13.795
76795W        W36331  43.475  37.894   0.396
76796W        W36332  14.793  17.182   0.822
76797W        W36333  32.896  22.692   1.433
76798W        W36334  17.776  24.506   4.339
76799W        W36335  17.620  22.995   1.273
76800W        W36336  30.527  44.935  12.855
76801W        W36337  28.495  21.131  10.093
76802W        W36338  15.674  14.240  12.419
76803W        W36339  29.480  38.407  13.446
76804W        W36340  36.469  11.240  14.861
76805W        W36341  20.048  33.455  11.533
76806W        W36342  30.945   0.967  10.479
76807W        W36343  14.766  40.037  13.432
76808W        W36344  25.196  14.669   3.653
76809W        W36345   0.930   5.802   4.295
76810W        W36346   9.243  31.126  12.364
76811W        W36347   5.407  33.382   3.865
76812W        W36348  22.683  27.467   4.689
76813W        W36349  44.323   1.317   4.221
76814W        W36350  32.064  27.123  12.833
76815W        W36351   3.383  20.108   2.765
76816W        W36352  24.014  19.275   1.845
76817W        W36353  42.315  32.521   4.609
76818W        W36354   5.734   1.405   3.161
76819W        W36355   3.819  44.437   1.835
76820W        W36356  31.085  22.188  12.927
76821W        W36357  33.576  39.351  14.802
76822W        W36358  14.313  25.576   0.456
76823W        W36359  42.318  22.620   4.763
76824W        W36360   7.408  44.402  12.532
76825W        W36361   8.895  40.383  10.932
76826W        W36362  35.998  43.918  10.090
76827W        W36363   7.673  40.371  13.888
76828W        W36364   6.696   1.890   3.168
76829W        W36365  11.337  30.554   0.250
76830W        W36366  38.068  13.126  10.437
76831W        W36367  28.438  25.111   2.689
76832W        W36368   2.885  36.529  14.921
76833W        W36369  41.970  17.692   4.669
76834W        W36370  43.821  26.116   0.797
76835W        W36371  37.374  31.913  12.873
76836W        W36372  38.451  26.620   0.889
76837W        W36373  39.352  27.648   0.352
76838W        W36374  20.546  41.836   4.298
76839W        W36375  43.902  33.982   3.661
76840W        W36376  12.169  36.589  11.599
76841W        W36377  13.743  44.896   3.868
76842W        W36378  23.670  14.695  13.943
76843W        W36379  35.359  39.403   0.248
76844W        W36380  38.066  18.211   1.926
76845W        W36381   2.354  38.538  11.041
76846W        W36382  21.224  22.691   5.134
76847W        W36383  30.543  31.618   3.241
76848W        W36384  29.602  27.018  14.390
76849W        W36385  44.924  22.519   0.762
76850W        W36386  44.371  26.644  10.888
76851W        W36387  40.872  44.821  13.939
76852W        W36388  32.096  40.009  12.991
76853W        W36389   6.212  16.803   0.811
76854W        W36390  37.470  33.444  12.552
76855W        W36391  41.513  33.598   0.427
76856W        W36392   6.421  25.036   1.798
76857W        W36393   3.953  28.099   1.701
76858W        W36394   9.235  11.683   3.670
76859W        W36395  24.645   2.336   4.348
76860W        W36396  34.104  11.278   3.779
76861W        W36397  16.083  37.425   9.932
76862W        W36398   1.840  31.580   0.256
76863W        W36399  18.705  27.672   4.710
76864W        W36400  20.574  36.392  13.859
76865W        W36401   0.783  18.642   0.373
76866W        W36402  14.729  33.044   0.764
76867W        W36403  29.029   1.257   1.822
76868W        W36404  33.906   1.338   0.272
76869W        W36405   1.470  37.580  10.619
76870W        W36406  31.131   4.391  12.856
76871W        W36407  42.874  18.174  13.995
76872W        W36408  37.344   1.855   1.808
76873W        W36409  40.328  17.760   3.263
76874W        W36410   2.377  11.868   3.227
76875W        W36411   0.359  30.566   4.313
76876W        W36412  39.415   6.379  12.437
76877W        W36413  38.493  14.716   4.801
76878W        W36414  15.312   5.195   9.953
76879W        W36415  23.535  32.939  10.074
76880W        W36416   3.250  39.940  11.385
76881W        W36417  39.339  29.550   0.418
76882W        W36418  27.483   8.347  10.589
76883W        W36419   4.907  43.979  11.914
76884W        W36420   0.252  16.725  12.967
76885W        W36421  11.843   6.369   0.332
76886W        W36422  13.148   9.813   2.403
76887W        W36423  38.364  34.978   4.141
76888W        W36424  42.391   4.856  14.308
76889W        W36425  40.007  42.477  14.871
76890W        W36426  34.083  19.688   3.743
76891W        W36427   2.926  36.861  14.022
76892W        W36428   2.914  38.833   3.222
76893W        W36429  16.199   5.900   4.650
76894W        W36430   7.339  17.652  14.512
76895W        W36431   6.825  39.344   3.351
76896W        W36432  26.471  20.658   2.709
76897W        W36433  38.429  24.018   2.283
76898W        W36434  16.178   2.336   3.762
76899W        W36435   9.376  38.502   0.435
76900W        W36436  10.205  40.427  13.975
76901W        W36437  17.690  30.641   3.704
76902W        W36438  33.964   1.929   0.772
76903W        W36439   9.690  29.927  14.502
76904W        W36440  11.731  33.596   4.818
76905W        W36441   8.247   7.216   3.691
76906W        W36442  39.928  28.520  11.948
76907W        W36443  24.580  43.020  10.517
76908W        W36444  29.013  28.986   3.784
76909W        W36445  28.133   4.893  14.926
76910W        W36446   8.764  10.304   3.356
76911W        W36447   4.302  15.203   4.753
76912W        W36448  43.965  34.083   3.323
76913W        W36449  24.671  30.939  11.557
76914W        W36450  34.613   8.341  10.905
76915W        W36451   7.225  22.733   1.312
76916W        W36452  31.407  35.978  12.508
76917W        W36453   9.389  27.571   9.484
76918W        W36454  41.871  36.078  12.531
76919W        W36455  27.179  26.475   0.919
76920W        W36456  25.066   4.292  12.983
76921W        W36457  39.545  14.338  12.486
76922W        W36458  39.437  31.919   4.283
76923W        W36459   1.964  13.747  14.836
76924W        W36460  27.692  10.359   0.867
76925W        W36461  33.996  12.821   3.368
76926W        W36462  37.841  35.438  11.089
76927W        W36463   7.678  34.864  11.934
76928W        W36464  38.996  10.820  12.458
76929W        W36465  13.301   6.697  14.426
76930W        W36466   0.936  33.980  13.035
76931W        W36467  36.364   8.668   3.720
76932W        W36468  19.650  37.424  13.797
76933W        W36469  27.172  12.215  13.009
76934W        W36470   3.952  19.255  14.900
76935W        W36471  13.308  32.993   1.418
76936W        W36472  43.862   2.364  13.016
76937W        W36473   3.866  16.129   1.313
76938W        W36474  41.390  37.833  12.439
76939W        W36475  37.064  28.087  12.884
76940W        W36476  43.921  24.994   0.768
76941W        W36477  33.382  23.196  12.351
76942W        W36478   3.409  21.059   1.424
76943W        W36479  16.241   4.802  11.095
76944W        W36480  34.942  15.657   4.195
76945W        W36481  25.018  18.224  13.898
76946W        W36482  39.870   4.407  13.492
76947W        W36483  43.457  19.677  12.485
76948W        W36484  12.838  18.706   4.318
76949W        W36485   5.906  35.038  12.869
76950W        W36486   8.180   7.190  13.902
76951W        W36487  17.218  10.798   3.797
76952W        W36488  30.074  18.641   0.479
76953W        W36489  26.007  30.029  10.996
76954W        W36490  40.439  33.425  13.036
76955W        W36491  36.470  44.505   1.301
76956W        W36492  24.165  12.619   0.416
76957W        W36493   3.862  36.053   1.234
76958W        W36494  31.120  14.655   3.219
76959W        W36495  15.219   1.394   1.240
76960W        W36496  43.290  29.474   2.665
76961W        W36497  31.484  16.622  11.889
76962W        W36498  35.078   8.855   1.905
76963W        W36499  24.630  25.473   3.764
76964W        W36500  13.264  15.755  12.436
76965W        W36501  44.886  41.521  12.910
76966W        W36502  44.941  17.212   3.664
76967W        W36503  40.460   8.798   5.259
76968W        W36504  25.584  11.651   0.254
76969W        W36505  28.142   0.972  10.638
76970W        W36506  17.621  44.313  13.051
76971W        W36507  38.980  39.062  14.927
76972W        W36508  26.048   1.738   4.137
76973W        W36509  41.458  43.393  13.534
76974W        W36510  29.108  35.010  11.589
76975W        W36511  14.802   0.262  11.417
76976W        W36512   7.276  16.271   4.628
76977W        W36513  25.987  10.370  13.379
76978W        W36514  34.494  27.512  10.998
76979W        W36515  42.788  13.199   4.605
76980W        W36516  39.062  32.886  10.924
76981W        W36517  18.679  30.413  14.821
76982W        W36518  42.439  34.877  14.331
76983W        W36519   8.780  40.870   3.204
76984W        W36520  10.859  10.164   4.220
76985W        W36521  40.984  12.757  12.356
76986W        W36522  29.608   4.880   3.758
76987W        W36523  30.479  10.690  11.015
76988W        W36524  16.757   9.221   2.690
76989W        W36525  42.388  20.163  11.546
76990W        W36526  16.653  28.612   2.735
76991W        W36527   7.798  15.687   0.863
76992W        W36528  11.632  36.391   0.837
76993W        W36529   7.376   5.419   4.285
76994W        W36530  23.008  21.064  14.288
76995W        W36531  20.082  18.747   4.784
76996W        W36532   2.807  22.209   0.944
76997W        W36533  15.640  32.498  14.984
76998W        W36534  42.995  30.462   2.842
76999W        W36535  41.994  22.226  14.948
77000W        W36536  17.079  28.039   0.368
77001W        W36537   5.895   8.308   1.373
77002W        W36538   6.867  11.281  12.830
77003W        W36539   0.866  24.208   4.662
77004W        W36540  18.698  15.257   2.335
77005W        W36541  37.426  12.630   1.334
77006W        W36542  40.319  24.982  13.905
77007W        W36543  11.179  10.267   4.648
77008W        W36544  22.703  33.957  12.079
77009W        W36545  39.452  10.286   0.317
77010W        W36546   6.341   5.425  14.872
77011W        W36547   3.904  35.435   1.405
77012W        W36548  22.662  24.097   1.309
77013W        W36549   9.226   9.167   2.300
77014W        W36550  43.361  38.428  11.919
77015W        W36551   4.846  35.081   2.692
77016W        W36552  36.920  31.030   1.859
77017W        W36553   6.192  14.643  11.900
77018W        W36554  27.579  28.625   4.319
77019W        W36555  26.694  13.713  14.453
77020W        W36556  12.752   1.238   3.306
77021W        W36557  42.524  14.217  10.930
77022W        W36558   5.699  10.815   3.651
77023W        W36559  19.607  37.926  14.811
77024W        W36560  19.225  38.929  10.542
77025W        W36561  44.327   0.772  12.898
77026W        W36562  20.657  12.165   4.133
77027W        W36563  18.240  37.377  14.797
77028W        W36564  10.721  15.303  11.900
77029W        W36565  38.929  18.227  10.001
77030W        W36566  20.696  39.522   4.341
77031W        W36567  15.630  29.079   3.650
77032W        W36568  12.801  29.564   1.266
77033W        W36569  24.550  12.631   3.164
77034W        W36570  22.133   2.307  11.401
77035W        W36571  18.623  16.091   2.334
77036W        W36572  23.217  24.613   3.765
77037W        W36573  40.919  12.207  12.482
77038W        W36574  24.665  25.005   4.642
77039W        W36575  30.989   4.835  12.379
77040W        W36576   3.822  42.846   2.733
77041W        W36577  42.801  29.050   2.381
77042W        W36578  43.956  41.481   3.850
77043W        W36579  17.572   8.230   0.914
77044W        W36580  13.743  34.532   3.295
77045W        W36581  34.072  10.827   2.835
77046W        W36582  26.176  12.680  12.400
77047W        W36583  39.029  30.442  12.960
77048W        W36584  18.683   3.938   3.865
77049W        W36585  14.161  20.557   1.392
77050W        W36586   9.246  28.608  12.071
77051W        W36587  29.631  36.441   2.663
77052W        W36588   2.893  10.183   1.315
77053W        W36589  24.608  31.600  14.769
77054W        W36590  43.457   0.390  10.033
77055W        W36591   6.888  38.843  12.094
77056W        W36592  16.277  36.520  10.553
77057W        W36593  34.451  24.131   1.787
77058W        W36594   8.335   3.372  13.309
77059W        W36595   6.411  30.503  10.148
77060W        W36596  12.279  35.026   3.854
77061W        W36597   4.397   6.226  13.399
77062W        W36598  20.693  36.006  10.613
77063W        W36599   8.192  13.249  11.866
77064W        W36600  23.111   3.427  11.004
77065W        W36601  27.174  19.779  14.456
77066W        W36602  15.288   6.869   9.458
77067W        W36603  17.638  16.146   3.156
77068W        W36604  36.385  36.500   3.818
77069W        W36605  37.894  39.951   4.169
77070W        W36606  28.596  33.966   4.720
77071W        W36607  41.372  28.987  14.993
77072W        W36608   8.294   6.914  10.519
77073W        W36609  13.829  42.934   2.719
77074W        W36610  42.515  15.754   4.274
77075W        W36611  15.792  10.849   4.817
77076W        W36612  40.898  23.564   2.374
77077W        W36613  44.953  21.639  11.492
77078W        W36614  34.535   9.281  10.474
77079W        W36615  36.397  43.916   2.194
77080W        W36616  24.678  29.142   2.757
77081W        W36617  19.203  33.519  13.903
77082W        W36618  20.115  16.227   4.277
77083W        W36619  18.057   5.328  13.844
77084W        W36620  29.503  17.242  14.408
77085W        W36621  11.353   2.424  11.079
77086W        W36622  14.594  40.993   0.374
77087W        W36623  19.724  32.614   0.453
77088W        W36624  29.153  36.943  10.935
77089W        W36625  28.977  18.552  11.887
77090W        W36626  40.464  15.812   5.141
77091W        W36627   4.328  15.176   0.327
77092W        W36628  31.152  43.462   2.831
77093W        W36629   3.383  12.338  11.609
77094W        W36630   6.330  24.603  10.955
77095W        W36631  38.561   0.319  14.815
77096W        W36632  41.848  18.145  12.533
77097W        W36633  43.021  43.928   0.434
77098W        W36634   7.889  19.124  13.952
77099W        W36635   0.983   6.330   2.346
77100W        W36636   9.733  36.472  10.570
77101W        W36637   8.179  17.571   0.742
77102W        W36638  17.576  13.840   1.717
77103W        W36639  30.571  31.938  12.434
77104W        W36640  30.040  12.337   4.667
77105W        W36641   2.445  10.367  11.877
77106W        W36642  20.163  20.583   4.721
77107W        W36643  17.150   9.843  14.417
77108W        W36644  31.514   1.439   1.765
77109W        W36645  37.042   4.942   1.866
77110W        W36646  13.688   4.935  12.383
77111W        W36647   2.862   3.261   1.305
77112W        W36648   5.418   5.710   2.810
77113W        W36649  38.328  34.520   0.756
77114W        W36650  44.468  13.801   5.186
77115W        W36651  44.258   8.669  13.532
77116W        W36652  24.573   7.260   9.597
77117W        W36653  30.438  21.135   0.284
77118W        W36654  21.042  39.537  12.929
77119W        W36655   1.271  42.907  13.906
77120W        W36656   5.306  15.257  14.835
77121W        W36657  21.057  13.148  11.474
77122W        W36658  11.721  19.741   4.722
77123W        W36659  16.121  25.688   0.832
77124W        W36660  40.501   9.320   1.275
77125W        W36661  11.318  40.451  13.412
77126W        W36662  40.480  34.385   2.264
77127W        W36663  27.564  18.660   1.885
77128W        W36664  31.949  37.830   4.598
77129W        W36665  15.096  12.644   3.147
77130W        W36666  38.421  15.107   2.864
77131W        W36667  35.972   4.290   1.332
77132W        W36668  26.054  33.898   4.341
77133W        W36669  41.904  28.462  12.904
77134W        W36670  30.559  41.315  11.442
77135W        W36671   8.897  33.039  13.469
77136W        W36672  44.841   5.213   1.415
77137W        W36673   3.378   3.244  14.914
77138W        W36674  30.961   1.949   1.736
77139W        W36675  13.316  26.113  11.394
77140W        W36676  27.999  28.638  10.946
77141W        W36677  41.440   8.307   2.221
77142W        W36678  44.402   5.842   0.757
77143W        W36679  13.303  41.013  13.956
77144W        W36680  22.625  35.962   0.249
77145W        W36681  38.535   9.199  11.905
77146W        W36682   8.728   6.823  11.988
77147W        W36683  44.000  24.062   2.281
77148W        W36684  22.084  34.392   4.692
77149W        W36685   0.471   3.424   5.086
77150W        W36686  27.483  38.979   3.765
77151W        W36687  20.668  32.510   4.206
77152W        W36688  17.139  20.705   2.367
77153W        W36689  19.593  10.257   4.659
77154W        W36690  33.414  31.526  13.339
77155W        W36691  43.508  30.109   1.419
77156W        W36692   3.933  24.628  10.466
77157W        W36693   3.245  20.275   1.905
77158W        W36694   5.206  22.027  14.341
77159W        W36695  21.115   0.832  11.869
77160W        W36696  28.521   5.932  13.498
77161W        W36697  31.088  31.062  13.003
77162W        W36698   8.299   5.715  10.573
77163W        W36699  13.810   2.843  14.804
77164W        W36700  37.073  31.484  10.489
77165W        W36701  42.353  26.966   4.280
77166W        W36702  43.922  29.489   4.227
77167W        W36703  40.986   7.364   2.178
77168W        W36704  30.067  26.137   9.935
77169W        W36705  26.190   7.211   3.312
77170W        W36706  11.684   5.768   2.862
77171W        W36707   4.350  21.091   5.230
77172W        W36708  10.165  32.512   4.142
77173W        W36709  24.141  33.042   1.867
77174W        W36710  44.368  35.471  12.836
77175W        W36711  43.988   4.754  14.811
77176W        W36712  22.639  15.634  11.982
77177W        W36713  29.040   5.769  12.419
77178W        W36714  23.159  37.056   2.227
77179W        W36715  20.038  37.901  14.864
77180W        W36716   0.881  17.202  10.624
77181W        W36717  11.821  30.524  11.999
77182W        W36718   4.328   8.665   1.321
77183W        W36719  39.921  42.305   1.448
77184W        W36720  44.332   9.834   2.214
77185W        W36721  33.545  28.475   1.304
77186W        W36722  19.236  38.467  13.937
77187W        W36723  25.975  22.517   3.269
77188W        W36724  43.405  22.220  10.615
77189W        W36725  12.824  29.659   4.214
77190W        W36726   9.862  27.072  11.050
77191W        W36727  20.545  33.496   3.829
77192W        W36728  41.873  44.329   5.117
77193W        W36729  24.557  21.227   2.210
77194W        W36730  10.744  44.949  13.007
77195W        W36731   0.325   0.836  11.046
77196W        W36732  20.146  19.210   2.678
77197W        W36733   9.890   7.745   9.436
77198W        W36734   5.750  44.266   2.280
77199W        W36735  30.434  43.828   3.712
77200W        W36736   4.782  22.030  13.406
77201W        W36737  26.046  27.546   2.765
77202W        W36738  25.121  16.608  14.498
77203W        W36739  24.668  27.557  12.880
77204W        W36740  25.607  22.606  12.367
77205W        W36741   4.326  38.837   3.661
77206W        W36742  35.425  11.317   0.743
77207W        W36743  32.629  24.169   1.269
77208W        W36744  21.551  28.622   3.363
77209W        W36745  35.467  15.679   1.756
77210W        W36746  42.031  40.533  11.053
77211W        W36747  17.201  17.703  12.438
77212W        W36748   8.675  40.950   2.666
77213W        W36749  39.387  10.377  11.047
77214W        W36750  10.696  32.106   2.409
77215W        W36751  15.159  25.518   4.649
77216W        W36752   1.354  26.966  11.892
77217W        W36753  43.274  15.095   1.329
77218W        W36754  31.110   1.855  12.394
77219W        W36755  17.790   3.855  13.336
77220W        W36756  26.616  42.808   4.134
77221W        W36757  29.061  24.191  13.891
77222W        W36758  19.274   5.820  12.433
77223W        W36759  11.811   2.287  14.773
77224W        W36760  28.099  13.120  13.441
77225W        W36761  20.108  17.222   1.869
77226W        W36762  17.644   4.809  10.074
77227W        W36763  40.314  40.006  10.922
77228W        W36764  25.112   6.207   0.943
77229W        W36765  26.963  25.009  14.959
77230W        W36766   8.352  22.174   0.792
77231W        W36767  44.948   8.728  11.375
77232W        W36768  37.013  10.746   0.826
77233W        W36769   2.834   4.920  13.424
77234W        W36770   2.236  34.464  11.374
77235W        W36771  25.505  21.231   3.289
77236W        W36772  11.663  13.175   2.243
77237W        W36773  40.048  18.075  11.553
77238W        W36774  20.233   1.926  11.612
77239W        W36775  34.521  28.088   0.854
77240W        W36776  35.939  37.475  10.515
77241W        W36777   8.900  21.588   1.762
77242W        W36778   1.778  11.795  10.550
77243W        W36779  31.972  25.647  14.364
77244W        W36780  37.397  20.121  12.532
77245W        W36781  41.998  32.045   2.892
77246W        W36782   0.375  37.883  10.943
77247W        W36783  12.221  41.536   4.326
77248W        W36784   2.769  35.036  14.983
77249W        W36785  44.858  31.138  12.888
77250W        W36786  13.666   6.214  13.032
77251W        W36787  11.649  22.679  12.558
77252W        W36788  36.998  36.932  14.846
77253W        W36789  16.593  19.267  12.408
77254W        W36790  19.253  18.753  12.393
77255W        W36791  30.521  10.289   4.221
77256W        W36792   8.900  23.700   3.704
77257W        W36793  23.153  34.010  14.348
77258W        W36794  15.715  16.279  13.335
77259W        W36795  30.100   4.815   2.670
77260W        W36796   7.736   0.392   4.333
77261W        W36797  37.575  33.555   4.198
77262W        W36798   4.901  12.148  13.878
77263W        W36799  37.346   3.778  13.056
77264W        W36800  28.470  29.131  11.905
77265W        W36801  34.955  16.276  10.895
77266W        W36802   5.850  15.173   0.886
77267W        W36803  32.062  20.267  10.440
77268W        W36804  23.715   4.768   2.839
77269W        W36805  28.159  36.938  13.005
77270W        W36806   1.931   9.768  12.865
77271W        W36807   0.923  29.609   1.794
77272W        W36808  27.196   6.850  13.025
77273W        W36809  13.133  18.554  14.888
77274W        W36810  36.564  32.112   0.479
77275W        W36811  29.077  10.802  10.590
77276W        W36812  33.112  42.303   4.609
77277W        W36813  26.156  22.694   1.245
77278W        W36814  39.537   5.781   0.473
77279W        W36815   2.752  36.451  11.484
77280W        W36816  24.531  12.784  12.539
77281W        W36817  17.586  44.348   4.652
77282W        W36818  13.344  32.076  13.858
77283W        W36819  10.778  26.115   2.723
77284W        W36820  14.332  44.317  11.393
77285W        W36821   1.458  43.480   3.838
77286W        W36822  16.082  29.109   2.749
77287W        W36823  11.851  14.793  12.947
77288W        W36824  37.906  20.063  12.478
77289W        W36825  27.596  23.037  10.494
77290W        W36826  12.817  19.609   4.333
77291W        W36827  22.552  31.957   0.346
77292W        W36828  28.035   2.918  10.984
77293W        W36829   9.329  16.757   1.326
77294W        W36830   9.775  24.181  10.520
77295W        W36831  42.957  12.123   3.187
77296W        W36832   7.364  40.942   2.797
77297W        W36833  43.320  31.088  11.009
77298W        W36834  28.171   7.844   1.261
77299W        W36835   8.752  26.495   2.331
77300W        W36836  26.612  41.873  13.382
77301W        W36837  21.604  11.155  14.899
77302W        W36838  41.893  21.094   3.843
77303W        W36839   5.710  13.107  12.403
77304W        W36840  15.141  27.172  11.035
77305W        W36841  21.519  40.045   2.819
77306W        W36842  11.133  25.107  10.914
77307W        W36843  22.734  17.307  12.432
77308W        W36844  16.616  34.545   1.351
77309W        W36845  28.440  39.429  13.387
77310W        W36846   3.871  37.897  11.543
77311W        W36847  41.831  16.104   0.788
77312W        W36848  29.468  31.584  12.555
77313W        W36849  13.277  23.697   0.748
77314W        W36850  43.359  35.875   2.729
77315W        W36851  18.199  42.811  10.496
77316W        W36852  17.076   3.859  12.863
77317W        W36853  16.084  42.379  14.947
77318W        W36854   7.792  28.549  12.050
77319W        W36855  37.926   7.908   3.249
77320W        W36856   4.245  13.137  10.502
77321W        W36857  35.509  34.975   0.739
77322W        W36858  33.550  22.636  10.904
77323W        W36859   7.818   6.281   4.728
77324W        W36860  39.446  22.095   3.724
77325W        W36861   2.758  17.277  11.473
77326W        W36862  36.995  12.649   4.684
77327W        W36863  27.176   3.285   2.327
77328W        W36864  33.512  28.640  14.907
77329W        W36865  19.045  30.947  10.524
77330W        W36866   9.307  21.198  14.902
77331W        W36867   4.232   4.238   2.323
77332W        W36868  37.047   4.253   1.257
77333W        W36869  15.816  10.633   0.280
77334W        W36870  37.353  23.238  10.645
77335W        W36871  43.476  16.124  14.918
77336W        W36872  29.533  29.454   3.352
77337W        W36873  31.152   8.856   1.402
77338W        W36874  39.013   7.180  12.569
77339W        W36875  11.365  18.085  12.496
77340W        W36876  19.242  41.373  11.377
77341W        W36877  19.060  17.759  14.768
77342W        W36878  18.060  10.844  13.975
77343W        W36879  30.413  34.018   0.309
77344W        W36880  18.662  43.967   1.323
77345W        W36881   4.359   9.350  12.093
77346W        W36882  40.466  17.231   3.699
77347W        W36883  22.212  15.687  13.874
77348W        W36884  35.982  27.036   5.123
77349W        W36885  42.517  13.111   0.481
77350W        W36886  10.697  31.115  14.882
77351W        W36887  40.382  34.526  14.896
77352W        W36888  17.705  18.145  12.576
77353W        W36889  17.666   9.257   0.886
77354W        W36890   4.284   5.304  13.397
77355W        W36891   1.441  17.557   1.905
77356W        W36892  40.888  36.486  11.009
77357W        W36893  17.302   0.871   3.308
77358W        W36894  17.600   9.795  13.385
77359W        W36895  41.426  41.415   1.831
77360W        W36896  21.581  18.666   4.298
77361W        W36897  11.369  20.695   2.339
77362W        W36898  26.541   7.232  14.283
77363W        W36899  15.315  19.150   3.329
77364W        W36900  27.113  23.599  11.005
77365W        W36901   4.864  31.435  10.133
77366W        W36902  40.366   7.289  12.960
77367W        W36903  35.085   9.232  12.466
77368W        W36904  16.128  41.982   2.336
77369W        W36905  14.720  22.112  13.900
77370W        W36906  44.804  14.648  12.035
77371W        W36907  33.929  33.062   4.130
77372W        W36908  28.597  38.823   1.253
77373W        W36909  34.586  24.153   4.124
77374W        W36910  28.533  34.583  10.492
77375W        W36911  43.885  39.926  13.482
77376W        W36912  38.509   3.954  10.939
77377W        W36913  22.076  33.987   1.919
77378W        W36914  35.470   9.247  10.560
77379W        W36915  43.997  31.554   2.755
77380W        W36916  31.135  12.123  14.843
77381W        W36917  18.262  23.164  11.501
77382W        W36918  44.848  11.364  14.290
77383W        W36919   1.977  21.743  10.940
77384W        W36920  42.338  43.298  12.092
77385W        W36921  24.066  19.121   0.917
77386W        W36922  17.614  11.155   4.143
77387W        W36923  16.302  24.125  10.946
77388W        W36924  40.419  44.793   0.752
77389W        W36925  15.278  17.580  12.504
77390W        W36926   2.364  37.388  12.890
77391W        W36927  31.054  26.528  14.860
77392W        W36928  34.393  32.132  14.513
77393W        W36929   3.924  44.403  13.806
77394W        W36930  30.088  42.868  10.484
77395W        W36931  19.173  29.611   3.188
77396W        W36932  18.140  44.357  10.451
77397W        W36933   5.754  33.078   1.316
77398W        W36934  23.172   2.889  11.391
77399W        W36935   5.312  41.469  11.116
77400W        W36936   6.415  24.038   4.659
77401W        W36937  23.626  37.082   4.335
77402W        W36938  40.019   1.822  13.891
77403W        W36939  15.798   7.365  14.360
77404W        W36940   5.713  44.836   1.219
77405W        W36941  44.819  31.623  11.007
77406W        W36942  14.206  29.124  11.516
77407W        W36943  29.009  10.142   3.361
77408W        W36944  10.657   1.946   2.690
77409W        W36945  10.217  36.527   1.336
77410W        W36946  44.386  15.237   3.291
77411W        W36947  22.633  28.494  14.465
77412W        W36948  39.481  44.480  13.940
77413W        W36949  18.274   2.424  13.894
77414W        W36950   4.384  24.102   2.236
77415W        W36951  16.100  36.031  10.922
77416W        W36952  23.149   2.751   9.979
77417W        W36953  36.397  23.731  11.466
77418W        W36954  26.579  43.938   4.619
77419W        W36955   6.291  30.022   0.967
77420W        W36956  40.504  33.087   3.361
77421W        W36957  14.760   7.309  11.507
77422W        W36958  44.346  17.666  10.906
77423W        W36959   6.306   7.685  13.935
77424W        W36960  35.466   8.362   0.421
77425W        W36961  11.176  33.442   4.131
77426W        W36962  19.253  38.352   1.370
77427W        W36963  32.039   7.290   2.193
77428W        W36964   1.410  18.260  14.848
77429W        W36965  34.882  20.207  12.867
77430W        W36966  42.329  17.576  10.936
77431W        W36967   3.432  22.576  13.307
77432W        W36968  19.765  24.644  13.027
77433W        W36969  22.078  15.618   2.879
77434W        W36970  16.786   3.878   4.746
77435W        W36971  31.002  26.123  12.544
77436W        W36972  23.115  32.535   1.318
77437W        W36973   1.333   2.926  13.453
77438W        W36974  11.830   7.862   1.743
77439W        W36975  14.282  34.866  13.386
77440W        W36976  18.275  22.636  11.571
77441W        W36977  33.556   2.364  13.490
77442W        W36978  38.519  23.189  14.931
77443W        W36979  41.892   3.445   0.468
77444W        W36980  25.055  20.181  12.573
77445W        W36981   2.237   5.226  11.426
77446W        W36982  26.639   6.740  14.795
77447W        W36983   8.867  23.588   2.408
77448W        W36984   9.705  28.957   5.194
77449W        W36985   0.446  20.193   0.464
77450W        W36986  15.195   7.213  11.396
77451W        W36987  32.034  19.078   1.706
77452W        W36988  33.039  21.710  11.534
77453W        W36989  19.223  18.777   3.214
77454W        W36990  37.909  28.561  11.900
77455W        W36991  16.569  34.067  13.014
77456W        W36992  29.000  10.286   4.219
77457W        W36993  20.643  38.836  13.806
77458W        W36994   2.349  13.663   3.724
77459W        W36995  25.972  14.817   4.756
77460W        W36996  17.626  30.934  13.464
77461W        W36997  14.114   6.386  13.790
77462W        W36998  30.094  22.995  12.891
77463W        W36999   3.409  39.345  13.467
77464W        W37000  25.653  41.422  13.833
77465W        W37001  44.291  38.936  14.441
77466W        W37002   5.724  31.001  10.433
77467W        W37003  12.732  24.065  14.405
77468W        W37004  15.318  13.703   0.473
77469W        W37005  36.554  33.461   1.731
77470W        W37006  25.215   4.719   1.267
77471W        W37007  34.065  30.056   0.429
77472W        W37008   5.220  33.059   2.698
77473W        W37009  16.158   5.922  12.851
77474W        W37010  39.519   4.748  13.351
77475W        W37011  34.389  18.616   0.899
77476W        W37012  44.300  42.816  12.953
77477W        W37013  35.094  37.437   4.801
77478W        W37014  28.055  34.485  10.530
77479W        W37015   5.865  29.159  10.082
77480W        W37016  33.057  12.283  11.418
77481W        W37017  36.017  13.294   0.840
77482W        W37018  38.471   9.378   4.650
77483W        W37019  28.629   9.262   3.691
77484W        W37020  30.551  27.158  12.390
77485W        W37021  22.745   6.703   0.729
77486W        W37022   0.918  20.660  14.830
77487W        W37023  10.791  25.638  12.403
77488W        W37024  37.422  14.660  12.964
77489W        W37025   1.335  18.259  11.555
77490W        W37026   9.164  33.906  12.384
77491W        W37027  39.848  15.588  11.519
77492W        W37028  25.474  26.521   0.892
77493W        W37029   0.415  36.359  12.998
77494W        W37030  18.156  10.182   0.375
77495W        W37031  41.928  25.109  12.862
77496W        W37032   1.972  25.712   3.783
77497W        W37033  16.646  13.639  13.892
77498W        W37034  36.566  34.930  11.997
77499W        W37035  29.601  41.824  11.503
77500W        W37036  15.198  43.972   2.702
77501W        W37037  20.558  10.778  10.919
77502W        W37038   0.327  27.578  14.404
77503W        W37039  28.649  28.644   1.814
77504W        W37040   2.299  40.475   5.238
77505W        W37041  11.839  24.013   1.299
77506W        W37042   0.273  33.095   0.777
77507W        W37043  33.994   3.817  11.966
77508W        W37044  37.039  10.739   1.764
77509W        W37045   7.330  29.095  14.297
77510W        W37046  43.417  17.072   3.695
77511W        W37047  40.358  20.107   1.894
77512W        W37048  35.925   0.857   0.764
77513W        W37049  15.789  15.113   4.291
77514W        W37050  41.829   8.735   3.277
77515W        W37051  14.689  12.748   3.791
77516W        W37052  27.110   0.780   2.251
77517W        W37053  34.916  29.603  14.762
77518W        W37054  19.571  26.673  10.465
77519W        W37055  15.120  44.466   2.715
77520W        W37056  25.198   8.180  13.936
77521W        W37057  17.205  25.604   1.743
77522W        W37058  15.096  44.879   2.736
77523W        W37059  14.589  39.372  14.784
77524W        W37060  30.506   1.389   4.794
77525W        W37061  10.840   8.708   0.357
77526W        W37062  39.903  44.360  14.317
77527W        W37063  17.641  10.721   1.446
77528W        W37064  42.302   6.738   4.180
77529W        W37065  27.588   1.381   1.739
77530W        W37066  44.403  28.659  11.482
77531W        W37067   5.796  34.960  13.966
77532W        W37068  14.716   4.425  11.411
77533W        W37069  28.550  38.404  11.580
77534W        W37070  27.165  11.764  13.435
77535W        W37071   6.690   3.260   2.367
77536W        W37072  44.481  36.393  13.315
77537W        W37073  24.561  12.628  12.961
77538W        W37074  20.160  26.020  13.316
77539W        W37075  34.557  32.915   2.295
77540W        W37076  36.948  10.243  11.864
77541W        W37077  28.960  35.898  12.418
77542W        W37078  38.028  35.550   0.250
77543W        W37079  15.667  24.011  11.481
77544W        W37080   8.223  19.540   0.862
77545W        W37081   5.798  31.550   4.218
77546W        W37082  37.841   2.234   2.222
77547W        W37083  27.129  35.582  11.928
77548W        W37084  15.295   7.797  12.050
77549W        W37085  30.957   9.257  14.959
77550W        W37086   7.734  15.167  13.851
77551W        W37087   2.810  29.556   9.500
77552W        W37088  19.061  15.150  10.497
77553W        W37089  28.143  36.393  12.536
77554W        W37090   0.835  17.198   4.131
77555W        W37091  14.798  13.644  11.092
77556W        W37092  29.090  37.056  14.508
77557W        W37093   7.876  26.152  12.517
77558W        W37094   6.199   3.824   2.767
77559W        W37095  10.140  26.168   0.957
77560W        W37096  26.625  30.917   5.203
77561W        W37097  34.887  18.666  11.428
77562W        W37098  29.483  26.690   3.369
77563W        W37099  13.301  20.660   0.775
77564W        W37100  12.851  34.065   1.696
77565W        W37101  15.135  16.174   0.822
77566W        W37102  38.066  16.699   1.873
77567W        W37103  18.767   4.324  14.020
77568W        W37104   5.299  36.564   0.938
77569W        W37105   9.872  26.593   2.815
77570W        W37106  30.584   6.784  12.421
77571W        W37107  43.495  25.584   2.767
77572W        W37108  10.212   7.749   1.754
77573W        W37109  32.896  42.512   0.338
77574W        W37110  43.476  15.258   3.218
77575W        W37111  19.598  18.688  12.990
77576W        W37112  12.705  43.989   4.265
77577W        W37113  39.545  29.591  14.295
77578W        W37114  43.354   3.336  10.479
77579W        W37115   8.785  29.934  12.576
77580W        W37116  25.138  40.369   1.790
77581W        W37117  17.713  32.593  14.335
77582W        W37118  44.367  14.309  11.569
77583W        W37119  43.508  12.718  12.050
77584W        W37120  38.981  36.841  13.036
77585W        W37121  11.279  29.555   2.667
77586W        W37122  14.792  30.026  13.416
77587W        W37123  26.035   7.302   4.309
77588W        W37124   2.317  29.922  11.569
77589W        W37125  37.387   1.888  13.808
77590W        W37126   8.323  34.542   4.325
77591W        W37127  20.628  29.000  14.946
77592W        W37128   5.326  24.631  11.486
77593W        W37129  42.916  34.524   4.635
77594W        W37130   0.988  33.429  12.087
77595W        W37131  40.391  13.685  11.539
77596W        W37132  25.541  36.093   3.261
77597W        W37133  31.525  15.216  14.301
77598W        W37134  21.211  26.160   0.401
77599W        W37135  41.036  11.721   4.294
77600W        W37136   8.317   1.237  12.558
77601W        W37137  34.047  32.044  10.888
77602W        W37138  32.999   2.387  11.461
77603W        W37139  26.956  36.942   4.147
77604W        W37140  21.175   6.193   0.387
77605W        W37141  27.014  20.103   0.743
77606W        W37142  41.900  20.221  12.358
77607W        W37143   6.916   1.467   3.726
77608W        W37144   2.727  21.524   2.892
77609W        W37145  35.559  13.110  14.945
77610W        W37146  23.169  12.797   1.707
77611W        W37147  30.030  32.914  10.930
77612W        W37148  10.145  10.368  14.900
77613W        W37149  38.968   8.665   3.667
77614W        W37150  20.733  17.269   2.704
77615W        W37151  11.662  25.604  12.543
77616W        W37152   2.463  34.586   1.857
77617W        W37153  33.880  16.651  11.023
77618W        W37154  38.065  30.643   4.114
77619W        W37155   9.855  20.235   2.247
77620W        W37156   7.705   2.883  14.802
77621W        W37157  28.609   3.376   1.813
77622W        W37158  18.669  14.675  10.923
77623W        W37159  16.632  10.705  14.815
77624W        W37160  24.992  42.889   2.814
77625W        W37161  15.298  44.835  14.303
77626W        W37162  36.407  29.572   1.342
77627W        W37163  20.124  24.117  13.062
77628W        W37164  22.167  26.110  14.325
77629W        W37165  13.246  29.173  12.861
77630W        W37166   0.270  33.883  11.946
77631W        W37167  18.635  14.116   1.368
77632W        W37168  19.550  44.317  11.916
77633W        W37169   3.926   8.692   0.375
77634W        W37170  44.004  26.989   1.918
77635W        W37171  25.972   6.376  12.041
77636W        W37172  34.019  15.208   2.210
77637W        W37173  36.961  25.481  11.542
77638W        W37174  28.121  28.000  13.960
77639W        W37175  26.052   9.302   3.222
77640W        W37176   4.315  27.636  10.966
77641W        W37177  13.615  37.083  12.867
77642W        W37178  44.801  28.138   4.212
77643W        W37179  26.554  34.551  14.978
77644W        W37180   1.788   6.719  12.527
77645W        W37181   8.851  43.834  13.425
77646W        W37182  31.594  33.457  10.896
77647W        W37183  26.641  15.633  12.050
77648W        W37184   2.400  11.128   3.371
77649W        W37185  21.090  44.498  11.092
77650W        W37186  41.425  28.119   0.418
77651W        W37187  18.238  34.602  11.428
77652W        W37188   6.814  36.444   2.391
77653W        W37189  21.062   7.842  13.010
77654W        W37190  27.524   3.225  12.372
77655W        W37191  26.115  42.951   0.913
77656W        W37192  26.622  30.517  14.303
77657W        W37193  31.618   3.930   2.363
77658W        W37194  21.544   5.704   4.711
77659W        W37195  15.164  14.808  12.014
77660W        W37196   4.243  33.067  10.584
77661W        W37197  26.144  23.013   3.176
77662W        W37198  25.497  14.669  10.406
77663W        W37199  29.514  18.067  10.981
77664W        W37200  33.996  32.589  10.912
77665W        W37201  39.955  42.484   0.892
77666W        W37202  43.881  11.723  12.415
77667W        W37203   6.710  35.500   4.690
77668W        W37204   3.376  30.051  12.369
77669W        W37205  27.646  16.572  11.863
77670W        W37206  24.215  39.384   1.837
77671W        W37207  37.467  37.055  12.340
77672W        W37208  22.617  43.866  11.538
77673W        W37209  22.614  42.888   3.196
77674W        W37210  31.132  25.113  14.351
77675W        W37211  19.695  18.697   0.838
77676W        W37212   9.183   4.310  10.416
77677W        W37213  35.047  35.441  12.856
77678W        W37214  17.275   9.200  10.580
77679W        W37215  12.288  22.138   3.712
77680W        W37216  31.611  34.075  14.355
77681W        W37217   0.812  43.369   4.246
77682W        W37218   6.846  33.876   2.298
77683W        W37219  30.948   4.296   2.751
77684W        W37220  38.490  43.428   3.850
77685W        W37221  44.269  11.130  14.993
77686W        W37222  13.646  33.513  11.033
77687W        W37223  34.404  27.643  12.569
77688W        W37224  34.936  10.814   4.122
77689W        W37225   8.678  44.799   3.208
77690W        W37226  33.938   9.800   2.836
77691W        W37227  39.819   0.877   2.855
77692W        W37228  37.484  37.386   2.314
77693W        W37229  12.250  24.165   2.368
77694W        W37230  21.146   7.798   0.453
77695W        W37231  27.114   6.873  11.554
77696W        W37232   3.249  14.776   4.204
77697W        W37233   9.865  40.328   0.884
77698W        W37234  20.702  20.231   0.364
77699W        W37235  21.633   3.871   2.702
77700W        W37236  39.316  24.995   3.763
77701W        W37237  33.080   7.726   4.783
77702W        W37238   3.944   7.272   0.916
77703W        W37239  17.170  27.562  12.060
77704W        W37240  24.491  31.475  13.307
77705W        W37241  21.708  37.896   0.955
77706W        W37242   7.232  36.942  12.927
77707W        W37243  14.687  18.131   1.226
77708W        W37244  38.017  31.565   2.255
77709W        W37245   0.864  41.971   0.739
77710W        W37246  12.847  37.398  13.884
77711W        W37247  14.763  20.063  13.530
77712W        W37248   9.785   7.303  14.926
77713W        W37249  27.637  14.217   0.859
77714W        W37250  37.436  18.706  12.351
77715W        W37251  22.637   3.781  12.876
77716W        W37252  44.909  40.394   4.814
77717W        W37253  39.409  35.921  10.463
77718W        W37254  39.918   9.331  13.529
77719W        W37255  10.793   5.220   9.497
77720W        W37256   9.676  28.935   1.883
77721W        W37257   7.779  23.121  13.349
77722W        W37258  36.040  30.650  13.798
77723W        W37259   4.227  10.848  11.473
77724W        W37260  30.622  38.497  12.023
77725W        W37261  16.763   6.340  13.885
77726W        W37262  14.595  16.151   1.238
77727W        W37263  28.474  27.124   2.824
77728W        W37264  21.609  43.403  11.031
77729W        W37265  36.847  42.377   4.824
77730W        W37266  25.032  13.813  12.556
77731W        W37267  35.452  35.053  11.915
77732W        W37268  43.860  27.155  12.081
77733W        W37269  25.017  32.130   4.142
77734W        W37270  44.011  17.183   3.660
77735W        W37271   7.392  19.552   0.753
77736W        W37272   6.837  20.167   1.302
77737W        W37273  14.694  32.913  12.340
77738W        W37274  21.214   4.795  13.430
77739W        W37275  33.545  27.692  10.898
77740W        W37276  27.967  22.168   1.829
77741W        W37277  25.090  42.282  14.315
77742W        W37278  39.064  34.011  13.030
77743W        W37279  18.620  23.131  13.387
77744W        W37280  10.276  36.402   2.219
77745W        W37281   3.798  13.834   3.816
77746W        W37282  25.022  20.091  10.541
77747W        W37283  36.547  36.858  10.634
77748W        W37284  33.926  27.673  12.005
77749W        W37285  23.005  39.542   1.933
77750W        W37286  26.655  16.274  12.389
77751W        W37287  26.556  18.611   4.128
77752W        W37288  20.672  18.185  14.434
77753W        W37289  43.453   4.429   4.601
77754W        W37290  37.512  32.919  10.953
77755W        W37291  16.654   8.202   2.258
77756W        W37292  33.077  12.237   2.353
77757W        W37293  25.675  25.032  12.010
77758W        W37294  38.901  19.692   3.167
77759W        W37295   9.828  44.868   2.729
77760W        W37296  16.288  15.145   2.887
77761W        W37297  22.595  11.703   5.087
77762W        W37298   1.861  24.636   2.897
77763W        W37299  12.695  35.062   1.248
77764W        W37300  22.251   8.172   4.260
77765W        W37301   4.735  33.883  11.565
77766W        W37302   7.666   9.657  12.984
77767W        W37303  35.437   3.885   2.701
77768W        W37304  38.053  37.531   2.359
77769W        W37305  30.019   9.312  11.128
77770W        W37306  16.793   8.808  13.313
77771W        W37307  20.684  26.623   2.670
77772W        W37308  15.199  34.955   3.658
77773W        W37309  19.689   7.780  10.077
77774W        W37310  31.957  24.481   5.094
77775W        W37311  38.999  33.504  13.033
77776W        W37312   5.841  15.181  12.063
77777W        W37313  36.481  30.425  14.992
77778W        W37314  35.877   7.188   1.699
77779W        W37315  28.934   8.718   1.280
77780W        W37316  32.119  29.426   4.325
77781W        W37317  41.432  10.741  13.488
77782W        W37318   6.767   7.212   1.915
77783W        W37319   7.247  33.974   2.228
77784W        W37320   1.369  30.524   3.275
77785W        W37321  17.587  34.901  13.546
77786W        W37322   5.822  38.006  11.592
77787W        W37323  42.475  16.165  13.459
77788W        W37324  42.345   7.834  13.892
77789W        W37325   0.382  39.030   9.983
77790W        W37326  42.031  38.400   3.756
77791W        W37327  10.284  44.956   0.934
77792W        W37328  29.056  27.654   2.826
77793W        W37329   1.936  40.883   0.264
77794W        W37330  24.580   7.686   2.348
77795W        W37331   2.818   0.403   0.776
77796W        W37332  18.101  12.694   1.261
77797W        W37333  17.608   7.812   2.807
77798W        W37334  27.104  27.058  13.046
77799W        W37335  41.403  21.193  12.976
77800W        W37336  13.654  15.595  11.072
77801W        W37337   0.826  20.047   2.298
77802W        W37338  44.776  42.953   3.747
77803W        W37339  21.082  37.957   0.426
77804W        W37340  12.644  19.563  12.831
77805W        W37341  38.372   5.818   0.399
77806W        W37342  24.535  27.182   4.803
77807W        W37343  15.723  43.486   0.477
77808W        W37344  39.521  44.345  14.403
77809W        W37345   9.370  10.222   1.437
77810W        W37346  19.726   7.846   2.334
77811W        W37347  22.685  32.930   1.282
77812W        W37348  36.572  27.961  12.034
77813W        W37349  38.396  39.840  14.782
77814W        W37350  27.029  36.879   5.120
77815W        W37351  44.772  39.814  13.947
77816W        W37352  17.096   6.383   2.792
77817W        W37353  30.092  21.637   1.809
77818W        W37354  20.576  37.835   2.267
77819W        W37355  11.666  42.470  13.014
77820W        W37356   9.854  19.541   0.862
77821W        W37357  43.997   9.647   3.631
77822W        W37358  10.327  16.082   3.668
77823W        W37359   7.905  29.949   4.291
77824W        W37360   5.847  28.498  12.473
77825W        W37361  39.334   8.186  12.951
77826W        W37362  43.488  31.426  13.859
77827W        W37363  11.804  39.883   2.757
77828W        W37364   6.753   8.786   1.854
77829W        W37365   6.253   0.926   3.644
77830W        W37366  19.074  40.841  11.420
77831W        W37367   6.898  17.779   2.812
77832W        W37368  44.876  39.498   4.829
77833W        W37369  21.132  32.474   1.418
77834W        W37370  16.220  40.525   4.333
77835W        W37371  23.053  12.151  12.011
77836W        W37372   7.695   1.393  11.579
77837W        W37373   1.951  14.643   1.923
77838W        W37374  31.402   6.428   0.304
77839W        W37375  14.624  26.981  14.443
77840W        W37376  13.158  11.166   2.226
77841W        W37377  14.294  21.231   2.231
77842W        W37378  10.291   8.786   0.794
77843W        W37379  35.521  33.945   0.760
77844W        W37380  40.495   4.296   1.279
77845W        W37381  11.262  38.076   2.703
77846W        W37382  36.891  41.363  10.956
77847W        W37383  31.107  37.079   3.695
77848W        W37384  43.790  28.075  14.974
77849W        W37385  22.708  13.162  13.865
77850W        W37386  12.636  22.061  11.404
77851W        W37387  26.460  40.331  11.505
77852W        W37388  38.916  29.529  13.849
77853W        W37389  41.006  29.521   4.603
77854W        W37390  35.109  13.631  10.457
77855W        W37391  15.748  26.515  13.548
77856W        W37392  13.180   2.881  14.017
77857W        W37393   3.305   7.830   3.817
77858W        W37394  43.478  25.151   2.187
77859W        W37395  18.676   9.704   3.296
77860W        W37396  13.211   5.829  10.888
77861W        W37397   1.293  29.651   4.202
77862W        W37398  13.733  15.800   1.826
77863W        W37399  37.559   6.391  11.591
77864W        W37400   2.746  38.368   2.837
77865W        W37401  37.002  10.228  10.915
77866W        W37402   7.194  42.998   4.253
77867W        W37403   4.300   5.307  12.075
77868W        W37404  41.890  27.181   2.851
77869W        W37405   3.328  35.462  13.858
77870W        W37406  16.214  33.066   0.472
77871W        W37407   8.336   3.286  12.890
77872W        W37408  13.281  37.872   2.789
77873W        W37409  32.924   8.860   4.219
77874W        W37410  28.937  22.099  13.939
77875W        W37411  44.966  32.945  12.858
77876W        W37412   4.712  37.414  10.562
77877W        W37413   8.852  10.848   2.308
77878W        W37414  35.997  40.416   2.890
77879W        W37415   7.324  31.536   3.678
77880W        W37416  35.083   0.908   9.672
77881W        W37417  31.576  11.245  11.082
77882W        W37418   3.855  23.153  12.063
77883W        W37419  17.761  16.601   1.776
77884W        W37420  30.552   4.351   4.817
77885W        W37421  41.465  30.157  13.920
77886W        W37422   2.323  32.531  14.481
77887W        W37423  11.313  20.641   1.309
77888W        W37424  21.630  18.239   4.193
77889W        W37425   4.451  28.978   4.671
77890W        W37426  43.465  15.313  14.467
77891W        W37427   3.421  20.035  13.045
77892W        W37428  20.552  29.447  14.798
77893W        W37429  27.940  16.147  14.346
77894W        W37430  22.694   3.920  14.299
77895W        W37431  35.013  17.293  12.903
77896W        W37432  17.643  29.551   1.879
77897W        W37433  13.765  34.587  14.440
77898W        W37434  31.949   3.277   4.745
77899W        W37435  42.441  18.651   0.354
77900W        W37436   1.971  27.656  14.388
77901W        W37437  19.775  35.523  14.328
77902W        W37438  38.024  36.437  11.414
77903W        W37439  32.943  14.302   1.755
77904W        W37440  29.075   9.167   4.792
77905W        W37441   3.293   0.801   0.940
77906W        W37442  10.876  11.729  12.856
77907W        W37443   2.471  27.579  13.982
77908W        W37444  44.329  32.493  13.394
77909W        W37445  21.213   4.394   2.201
77910W        W37446  30.594  10.735   3.743
77911W        W37447  15.108  30.925   2.861
77912W        W37448  35.018  12.331  10.567
77913W        W37449  17.087  43.482   1.278
77914W        W37450   6.773  16.236  11.563
77915W        W37451  16.785  23.233  10.921
77916W        W37452   2.472  23.722  11.056
77917W        W37453  43.417  26.140   4.814
77918W        W37454  24.485  10.358   3.291
77919W        W37455  41.316  34.012   4.212
77920W        W37456  41.440  10.837   3.719
77921W        W37457   3.435  20.051   3.169
77922W        W37458  33.895   8.894   1.881
77923W        W37459   9.176  12.821   0.791
77924W        W37460  33.577  35.005  11.922
77925W        W37461   1.452  23.647   4.641
77926W        W37462  38.539  25.141   0.871
77927W        W37463   1.465  40.027   2.795
77928W        W37464  16.568  28.654  13.806
77929W        W37465  34.545   3.295  13.957
77930W        W37466  33.089   8.662  14.465
77931W        W37467  37.380  12.338  12.882
77932W        W37468  12.128  43.350   0.848
77933W        W37469  28.931  29.577   3.814
77934W        W37470  37.887  33.494  12.490
77935W        W37471   0.774  21.231   3.699
77936W        W37472   4.360  12.135   4.664
77937W        W37473  18.275  11.820   1.821
77938W        W37474  14.632  44.984  13.896
77939W        W37475  17.220  20.195   0.356
77940W        W37476  43.009   8.275  12.437
77941W        W37477   4.248  12.707  11.501
77942W        W37478   2.317  16.711  11.445
77943W        W37479  42.020   8.277   1.229
77944W        W37480  41.521  33.451   0.732
77945W        W37481  26.522  22.570   5.253
77946W        W37482  30.063  15.236  14.446
77947W        W37483  24.154   6.914   1.884
77948W        W37484  20.199  15.240   4.155
77949W        W37485  41.028  30.094   3.351
77950W        W37486  16.313  29.556   3.252
77951W        W37487   7.818  34.984  13.875
77952W        W37488  40.807   3.245   3.276
77953W        W37489   0.397  24.046   1.314
77954W        W37490  11.158   7.294   0.425
77955W        W37491   9.778  25.613  14.499
77956W        W37492  44.842   0.939   2.772
77957W        W37493  15.656  38.346   4.683
77958W        W37494  37.462  12.293   3.195
77959W        W37495  16.662   0.318  13.386
77960W        W37496  43.955   3.953   0.917
77961W        W37497  28.032  16.277   4.633
77962W        W37498  15.657   8.231  12.935
77963W        W37499  16.690   6.257  14.901
77964W        W37500  10.204  10.282   1.751
77965W        W37501  28.667   8.354   0.896
77966W        W37502  14.128  16.257   3.306
77967W        W37503  35.879  31.424  12.976
77968W        W37504  10.737   4.928   9.922
77969W        W37505   8.778   1.267   2.896
77970W        W37506  27.573  11.307  13.473
77971W        W37507  37.065  44.890   4.319
77972W        W37508  14.680  22.665   3.194
77973W        W37509  38.335  11.691   1.352
77974W        W37510  24.117  18.549  13.321
77975W        W37511  29.520  17.272   9.974
77976W        W37512   9.864  15.131  11.044
77977W        W37513   2.419  42.896   2.789
77978W        W37514  22.063  35.044   0.912
77979W        W37515  19.693  34.981   3.187
77980W        W37516   8.399   2.845  12.071
77981W        W37517  31.965   3.223  11.080
77982W        W37518  22.040  31.600  14.281
77983W        W37519  36.355  22.541  11.600
77984W        W37520  27.616  25.598   1.713
77985W        W37521   5.321  25.631   4.617
77986W        W37522  14.675  34.587   4.774
77987W        W37523  25.474   8.315   0.818
77988W        W37524  26.180  21.606  13.546
77989W        W37525  32.897  11.190  12.927
77990W        W37526  30.597  31.569   2.410
77991W        W37527  16.198  24.638  14.466
77992W        W37528  25.696  12.851   0.750
77993W        W37529  25.650  44.401  10.118
77994W        W37530  15.278  10.360   2.771
77995W        W37531  32.992  14.754  13.439
77996W        W37532  12.296   3.804   2.684
77997W        W37533  36.523  19.563   4.244
77998W        W37534  10.338   6.875   3.351
77999W        W37535  23.506  40.375  11.943
78000W        W37536  32.900   9.830   0.316
78001W        W37537  19.117  33.431  12.545
78002W        W37538  15.162   5.887   3.869
78003W        W37539  28.038  33.897   0.404
78004W        W37540  15.205  32.039   4.707
78005W        W37541   7.698  25.144  11.429
78006W        W37542   3.417  40.436   1.416
78007W        W37543  35.047   2.277   1.394
78008W        W37544  14.247  34.451   4.727
78009W        W37545  22.013  18.233   2.816
78010W        W37546  10.646  15.280   3.297
78011W        W37547  15.698  43.012  14.824
78012W        W37548  40.894  29.483   2.794
78013W        W37549  37.855  43.890  11.890
78014W        W37550  35.365  19.214   4.804
78015W        W37551  17.196  19.054  13.502
78016W        W37552   2.812  31.053   2.874
78017W        W37553  18.076  41.040   0.286
78018W        W37554  16.263  41.399  13.819
78019W        W37555   5.871  23.049  12.555
78020W        W37556   2.275  22.230  10.417
78021W        W37557  24.707  28.444   2.211
78022W        W37558  44.492  17.769  11.604
78023W        W37559  41.464  19.772   4.145
78024W        W37560  12.803  36.366   0.370
78025W        W37561  38.822   3.413   2.674
78026W        W37562  35.108  39.487   3.631
78027W        W37563  30.017   6.326  10.938
78028W        W37564  22.166  13.667   2.663
78029W        W37565  39.962  25.172   4.762
78030W        W37566  41.301  11.312   3.855
78031W        W37567  25.607  36.458   5.647
78032W        W37568  21.185  12.727  12.346
78033W        W37569  20.744  32.055  10.057
78034W        W37570  25.696   5.823   5.096
78035W        W37571   1.283  25.023  12.865
78036W        W37572   8.813  26.635   1.930
78037W        W37573  29.155  20.647  13.950
78038W        W37574  39.975  31.963  11.390
78039W        W37575  30.595  41.914  12.485
78040W        W37576  44.915   6.722  12.403
78041W        W37577   6.753  32.991   3.766
78042W        W37578  14.272  40.023   4.623
78043W        W37579  40.837  21.204   4.605
78044W        W37580   7.844  25.971  10.441
78045W        W37581  12.708  31.956  10.409
78046W        W37582  37.867  27.557  13.889
78047W        W37583  15.290  34.430   3.321
78048W        W37584  41.350  40.991   1.759
78049W        W37585  23.096  37.873  14.811
78050W        W37586  20.609  32.452  14.358
78051W        W37587  39.478  24.513   3.184
78052W        W37588  43.979  43.373   4.798
78053W        W37589  44.318  36.361   3.860
78054W        W37590  23.151  29.519  14.439
78055W        W37591  32.434  35.574   1.290
78056W        W37592  24.490  26.659   2.696
78057W        W37593   3.782  16.725  11.015
78058W        W37594   0.922   4.861   2.848
78059W        W37595   7.890  28.934   2.862
78060W        W37596  11.662  25.596   4.115
78061W        W37597  13.739  22.018  12.442
78062W        W37598  27.660  28.679  11.378
78063W        W37599  40.944   6.312   4.651
78064W        W37600  27.459  10.333  11.518
78065W        W37601  34.457   4.926  14.353
78066W        W37602  36.037  19.643   3.183
78067W        W37603   4.851  34.384  14.509
78068W        W37604  33.900  35.502  11.879
78069W        W37605  30.948  17.658  11.537
78070W        W37606   8.825   5.311   2.349
78071W        W37607  11.328   6.333   3.151
78072W        W37608  13.158  18.209   2.319
78073W        W37609  29.141  33.516   4.345
78074W        W37610   7.886   5.213  13.372
78075W        W37611  35.383  14.772   3.339
78076W        W37612  44.892  28.447   0.964
78077W        W37613   7.846  37.546   3.705
78078W        W37614   7.305   8.746   4.290
78079W        W37615  15.770  10.160   5.280
78080W        W37616  17.677  34.999  12.912
78081W        W37617  18.627  24.024   4.642
78082W        W37618  32.086  20.061   4.708
78083W        W37619  20.746  40.026   0.309
78084W        W37620  28.176   4.285  13.808
78085W        W37621  25.557  11.192   1.713
78086W        W37622  20.737   0.410   4.701
78087W        W37623  35.477  20.058  11.417
78088W        W37624  26.199  15.652   2.882
78089W        W37625  26.063   9.839   0.944
78090W        W37626  10.645  36.566   3.640
78091W        W37627  34.376  22.659  11.117
78092W        W37628  15.666  38.024  13.027
78093W        W37629  33.049   1.869   4.215
78094W        W37630   1.361  23.101  14.949
78095W        W37631   1.323  15.634   0.421
78096W        W37632   1.816  42.380   2.887
78097W        W37633  30.530  18.084  13.826
78098W        W37634  12.826  31.535   4.114
78099W        W37635  44.770  33.399   1.277
78100W        W37636  10.167  26.104  14.860
78101W        W37637  26.008  21.204   0.372
78102W        W37638  20.058  26.465   4.806
78103W        W37639  11.792  40.872   3.781
78104W        W37640  23.103  41.996   3.682
78105W        W37641   6.312  20.575   3.273
78106W        W37642  24.533  34.044  12.458
78107W        W37643  27.127  24.650  12.558
78108W        W37644  27.996  36.907  11.924
78109W        W37645   0.889  35.878   0.243
78110W        W37646  38.406  38.486  11.512
78111W        W37647  15.800  34.399   4.761
78112W        W37648  16.294  31.111   1.427
78113W        W37649  10.353  32.020  14.312
78114W        W37650   5.781   7.278  14.984
78115W        W37651  39.874  30.040   1.256
78116W        W37652  24.500   6.394  14.981
78117W        W37653   6.230  42.999   5.241
78118W        W37654  31.587  25.647  13.509
78119W        W37655  16.569  35.101   3.298
78120W        W37656  36.567   9.684   2.248
78121W        W37657   3.331  37.409   1.315
78122W        W37658  21.051  24.575   2.748
78123W        W37659   6.678  36.550   0.370
78124W        W37660  37.428  13.218  14.382
78125W        W37661  14.791  27.017   4.319
78126W        W37662  32.506  13.221  11.583
78127W        W37663  15.179  16.687  11.084
78128W        W37664  30.474  14.334   0.836
78129W        W37665  10.147  34.611   4.627
78130W        W37666  14.220  17.769  14.883
78131W        W37667  25.167  43.901   4.719
78132W        W37668  43.278  43.787   3.807
78133W        W37669  34.370  44.471   4.599
78134W        W37670  17.129  10.654  13.384
78135W        W37671  31.122  24.700  14.921
78136W        W37672  41.322  18.058  12.898
78137W        W37673  22.006  23.120   1.216
78138W        W37674  28.561  31.079  10.479
78139W        W37675  20.732  44.755  11.912
78140W        W37676  34.884  15.818  11.112
78141W        W37677   1.457  41.300  11.476
78142W        W37678   0.310  23.229   3.367
78143W        W37679  39.009  11.858  10.618
78144W        W37680  36.885   5.306  13.054
78145W        W37681  37.413  22.633   0.308
78146W        W37682  13.777   9.214  14.472
78147W        W37683  36.862  28.452   1.387
78148W        W37684  20.695  42.828   2.186
78149W        W37685  40.832  11.229  10.553
78150W        W37686   7.823  39.970   1.251
78151W        W37687   5.395   0.404   3.795
78152W        W37688   8.717  18.255   2.791
78153W        W37689  40.973   0.872  13.992
78154W        W37690  38.328  22.085   0.846
78155W        W37691   8.205   5.729   3.867
78156W        W37692  17.583   3.374  13.928
78157W        W37693  31.027   7.855  14.921
78158W        W37694  43.768  10.805   9.510
78159W        W37695  31.434  13.665  14.891
78160W        W37696   9.646  16.667   1.702
78161W        W37697  44.341  32.485  11.119
78162W        W37698  28.520  42.341   0.358
78163W        W37699  33.937   3.812   4.781
78164W        W37700  37.418   6.702  12.911
78165W        W37701  36.578  38.945  14.403
78166W        W37702  26.591   6.739   4.192
78167W        W37703  36.886  25.131   4.676
78168W        W37704  42.849   1.731  14.001
78169W        W37705  28.443  21.228  14.326
78170W        W37706  41.331   7.197  14.412
78171W        W37707  36.414  24.537   4.656
78172W        W37708  32.129  31.956   1.844
78173W        W37709   2.751  22.013  11.501
78174W        W37710   4.904  41.414   5.196
78175W        W37711  30.955  27.191  14.877
78176W        W37712  23.721  30.630   0.875
78177W        W37713  33.471  33.427  13.953
78178W        W37714  19.777  23.185  12.994
78179W        W37715  21.162  20.605   5.253
78180W        W37716   7.219  12.757  11.855
78181W        W37717  36.464  18.762   2.789
78182W        W37718  37.441   3.914   2.370
78183W        W37719   9.371  12.795   5.207
78184W        W37720  32.079  36.855  11.940
78185W        W37721   8.737  22.249  10.976
78186W        W37722  20.683   0.799   2.399
78187W        W37723  20.122   6.823  13.946
78188W        W37724  41.887  26.054  12.871
78189W        W37725  34.586  40.505  14.866
78190W        W37726  32.000   8.272  11.984
78191W        W37727  42.966   4.278   0.400
78192W        W37728   4.793   6.257   2.328
78193W        W37729  41.926  17.099   3.197
78194W        W37730  32.421  25.510  13.941
78195W        W37731  10.356  40.958   1.440
78196W        W37732  43.486  44.288  14.453
78197W        W37733   0.273  39.875  13.821
78198W        W37734   6.300  10.233  10.900
78199W        W37735   8.783  40.849  10.456
78200W        W37736  35.923   5.193  14.360
78201W        W37737  11.223  15.295  12.953
78202W        W37738  30.028   1.750  13.311
78203W        W37739  30.617  21.119   3.699
78204W        W37740  34.866  11.230   3.309
78205W        W37741  25.663  37.981  12.932
78206W        W37742  12.271  11.343  12.458
78207W        W37743   5.712   2.749   0.249
78208W        W37744  34.472  39.021  14.510
78209W        W37745  22.509   2.439   0.844
78210W        W37746  23.046  32.592  14.503
78211W        W37747  15.243   1.935   1.421
78212W        W37748  30.055  39.350  12.884
78213W        W37749  32.610   0.814   0.289
78214W        W37750  14.685  38.862   2.379
78215W        W37751  11.629  22.228  13.947
78216W        W37752   1.307  44.487   3.826
78217W        W37753  21.655  41.413   2.239
78218W        W37754   0.812  37.833   4.754
78219W        W37755   6.351  28.110   4.670
78220W        W37756  32.452  30.069   0.739
78221W        W37757  26.083  14.143  13.972
78222W        W37758  37.343  16.745   1.818
78223W        W37759  16.274   1.453   4.642
78224W        W37760  14.162  21.082   0.441
78225W        W37761  11.692  18.588   1.753
78226W        W37762  43.911   6.708  14.487
78227W        W37763  44.299  34.442  14.424
78228W        W37764  17.301  12.249   3.232
78229W        W37765  13.770  33.589   4.258
78230W        W37766  20.637  35.419   3.779
78231W        W37767  42.824   4.363  13.023
78232W        W37768  19.708  26.628   4.725
78233W        W37769  39.490  24.179  11.902
78234W        W37770   3.940  17.568   1.935
78235W        W37771  25.989  42.515   4.733
78236W        W37772   1.926  19.711   0.372
78237W        W37773  43.973   0.851  13.866
78238W        W37774   6.273  38.501  14.331
78239W        W37775   4.420  19.696  14.343
78240W        W37776  36.070  12.281   0.869
78241W        W37777  32.459  42.468  10.527
78242W        W37778  13.696   1.957  12.361
78243W        W37779  32.973   1.453  12.929
78244W        W37780  18.689  22.527  10.151
78245W        W37781  33.599  15.231  12.091
78246W        W37782  29.950  22.068   2.362
78247W        W37783  19.560   1.320   4.786
78248W        W37784   6.349   6.315   1.737
78249W        W37785   7.414  33.409  13.934
78250W        W37786  23.114   2.951   2.889
78251W        W37787  29.960  29.587  13.339
78252W        W37788  26.585  36.999   2.795
78253W        W37789  14.333  27.560   1.718
78254W        W37790  40.531  33.488   0.330
78255W        W37791  39.422  10.162  12.374
78256W        W37792  21.540   3.321   1.821
78257W        W37793  32.549   7.412   0.285
78258W        W37794  37.491  42.842   0.322
78259W        W37795  14.678  13.153  13.521
78260W        W37796  30.918  18.074  13.005
78261W        W37797   6.922  16.777  11.942
78262W        W37798  15.785  36.510   0.902
78263W        W37799   9.803  24.488  10.605
78264W        W37800  22.596   3.911  12.360
78265W        W37801  38.045  29.021   1.772
78266W        W37802  10.353  42.342  11.425
78267W        W37803   8.684  30.536  13.975
78268W        W37804  42.295  21.035   4.835
78269W        W37805  44.476  12.357  12.377
78270W        W37806   7.301  26.055   1.715
78271W        W37807  29.476  25.699  14.499
78272W        W37808  36.954  26.067  11.111
78273W        W37809   4.782  40.805  11.049
78274W        W37810  38.523  27.582  10.422
78275W        W37811  38.501  43.826   1.908
78276W        W37812  13.663  35.370  14.504
78277W        W37813  27.654  23.501  11.455
78278W        W37814  36.000   4.749  14.884
78279W        W37815  12.229  17.073  10.431
78280W        W37816  31.518   6.829  13.389
78281W        W37817  29.523  28.671  13.981
78282W        W37818   9.218   0.913  13.937
78283W        W37819  30.418  32.532   2.789
78284W        W37820   8.194  41.001   0.282
78285W        W37821  12.216  17.132   3.859
78286W        W37822  30.427  27.122   3.663
78287W        W37823  32.096   0.444  12.062
78288W        W37824  11.815   9.219   4.228
78289W        W37825  18.660  19.257  13.839
78290W        W37826  11.178  43.356   4.747
78291W        W37827  18.771  15.259   3.220
78292W        W37828  35.998  37.907   3.771
78293W        W37829   4.930  15.191   2.240
78294W        W37830   9.305  13.233  12.395
78295W        W37831  36.966  36.056  11.979
78296W        W37832  38.954   5.776   3.226
78297W        W37833  11.226  22.059  12.474
78298W        W37834   0.765  22.071   3.665
78299W        W37835  22.597  43.413   1.855
78300W        W37836   7.753   4.232  13.953
78301W        W37837  29.637  10.154  10.525
78302W        W37838  14.634  11.680   4.651
78303W        W37839  25.041  40.480   2.236
78304W        W37840  24.094  27.954   1.232
78305W        W37841  32.121   5.797  12.465
78306W        W37842  11.658  38.453  10.435
78307W        W37843  14.755   1.281   2.689
78308W        W37844  13.204  38.327  14.967
78309W        W37845  10.847  39.829   3.387
78310W        W37846  37.347  42.341  13.029
78311W        W37847  20.653  39.045   1.846
78312W        W37848  31.914   9.313   2.225
78313W        W37849  18.739  30.550   0.834
78314W        W37850  37.840  41.497  11.049
78315W        W37851   9.229  21.189   2.246
78316W        W37852  11.794  14.810   4.119
78317W        W37853  33.980  19.690  14.909
78318W        W37854  25.137  14.117   0.759
78319W        W37855  14.226  42.459  13.506
78320W        W37856  20.563  22.059  12.424
78321W        W37857   8.290   0.494   2.397
78322W        W37858   6.717  27.609   4.820
78323W        W37859  34.426  39.971   0.299
78324W        W37860  22.648   6.916  11.553
78325W        W37861  36.091  28.095   4.250
78326W        W37862  41.025  28.974   3.861
78327W        W37863  15.086  40.007  12.836
78328W        W37864   0.375   5.197  12.404
78329W        W37865  34.603  20.148   0.357
78330W        W37866   5.279  38.040  10.523
78331W        W37867  37.065   0.879   2.735
78332W        W37868  19.755  18.101   4.145
78333W        W37869  41.345  18.710   0.803
78334W        W37870  30.642   0.752   0.929
78335W        W37871   3.729  15.245   0.744
78336W        W37872   8.209  16.107  12.475
78337W        W37873  11.285  33.577  11.584
78338W        W37874  15.672   2.783  13.001
78339W        W37875  17.607  43.020  12.990
78340W        W37876  44.497  41.834  12.894
78341W        W37877  28.635   0.294   2.772
78342W        W37878   1.822  44.282   2.817
78343W        W37879  39.864   9.746   2.201
78344W        W37880  18.698   4.824   4.156
78345W        W37881  11.782  34.910  10.504
78346W        W37882  10.218  26.994  12.861
78347W        W37883  15.643  28.159  13.031
78348W        W37884  22.107  19.236   4.718
78349W        W37885  18.660  13.237   0.844
78350W        W37886  24.206   9.719   0.897
78351W        W37887   9.253  23.506  14.785
78352W        W37888  33.982  44.304  14.493
78353W        W37889   9.223  42.915  13.893
78354W        W37890   8.235  24.595  12.528
78355W        W37891  15.811  17.260  14.952
78356W        W37892  44.456  41.883   0.420
78357W        W37893  37.963  27.988  12.898
78358W        W37894  10.814  30.133   4.739
78359W        W37895  39.479  11.155   0.892
78360W        W37896  14.135   9.690  11.416
78361W        W37897   4.731   1.448  10.053
78362W        W37898  41.336  18.279   0.841
78363W        W37899  22.570  17.070  14.763
78364W        W37900  44.865  32.593  10.520
78365W        W37901  16.124   5.805  11.031
78366W        W37902  27.612  38.378  11.920
78367W        W37903  40.411   6.829   2.301
78368W        W37904  22.033  30.470  12.577
78369W        W37905   8.790  30.985   1.852
78370W        W37906   6.184  21.112   1.364
78371W        W37907  37.023  10.877   3.279
78372W        W37908  10.295  42.459  14.339
78373W        W37909  17.668   1.341   3.743
78374W        W37910  10.806  20.248  12.002
78375W        W37911  24.093   1.799  11.914
78376W        W37912   3.366  27.587  11.962
78377W        W37913  21.189  13.610  11.566
78378W        W37914  25.193  31.911  11.441
78379W        W37915   7.402  13.740  11.924
78380W        W37916  42.366  24.648  12.843
78381W        W37917  13.795  20.554  14.312
78382W        W37918  22.017  18.180   1.892
78383W        W37919   5.221  27.150   1.916
78384W        W37920  11.198  40.855   3.232
78385W        W37921  21.730   9.648   2.804
78386W        W37922  29.445  12.771  11.067
78387W        W37923  16.790   6.277   0.877
78388W        W37924   6.285  23.241  12.843
78389W        W37925   0.323   6.891  12.530
78390W        W37926  25.518  24.654   4.310
78391W        W37927  33.126  43.478   2.341
78392W        W37928  15.639   4.390  10.630
78393W        W37929   4.306  21.122  14.450
78394W        W37930  42.020   1.855   4.716
78395W        W37931  44.889  10.665   3.708
78396W        W37932  30.123   0.939   4.273
78397W        W37933  41.387  42.995  13.340
78398W        W37934   3.768  16.695  12.398
78399W        W37935  19.757   2.248  12.084
78400W        W37936  14.152  26.514  11.952
78401W        W37937   3.911  11.163  10.570
78402W        W37938   2.764  17.796   3.637
78403W        W37939  33.123  39.034  13.419
78404W        W37940  26.045  36.474   1.827
78405W        W37941   4.761  36.435  12.398
78406W        W37942  14.270  13.799   2.207
78407W        W37943  30.454   6.230  14.911
78408W        W37944  27.583   0.767  12.837
78409W        W37945  33.876  19.625  11.962
78410W        W37946   4.312  39.983   4.133
78411W        W37947   7.881  12.318  12.037
78412W        W37948  11.328  39.469   1.227
78413W        W37949  11.166   6.839   3.349
78414W        W37950  14.107  22.092   2.185
78415W        W37951  27.468  25.509   3.323
78416W        W37952  33.098   6.810   4.779
78417W        W37953  18.683  23.667  14.453
78418W        W37954   1.780  41.963   4.248
78419W        W37955  29.518  37.573   1.289
78420W        W37956  12.721  10.143   9.549
78421W        W37957  28.116  10.341   4.608
78422W        W37958   8.786  29.048   0.737
78423W        W37959   1.379   8.768   3.323
78424W        W37960  11.351   6.397   1.397
78425W        W37961  29.997  40.352  13.343
78426W        W37962  23.494   8.239  14.830
78427W        W37963  22.196  42.349   4.675
78428W        W37964   7.853  40.349   2.257
78429W        W37965  29.140  25.161  13.480
78430W        W37966  23.646  12.616  11.493
78431W        W37967  22.182  41.405  13.443
78432W        W37968   5.385  30.629   3.674
78433W        W37969  39.529  19.138   3.673
78434W        W37970   9.365  34.952   1.275
78435W        W37971   3.327  22.996   2.833
78436W        W37972   9.291  11.858   2.856
78437W        W37973  25.106  30.460  13.939
78438W        W37974  32.420  40.449   3.332
78439W        W37975   4.286  23.111  14.870
78440W        W37976   0.777  41.430   1.731
78441W        W37977  17.296  13.688  12.372
78442W        W37978  44.307  31.618  10.042
78443W        W37979  13.259  25.160   4.636
78444W        W37980  37.002   4.861   3.341
78445W        W37981  28.039  12.323  12.916
78446W        W37982  19.609  10.676  11.974
78447W        W37983   4.265  39.024  13.894
78448W        W37984  22.140  32.595   2.384
78449W        W37985  29.030  34.001  14.477
78450W        W37986  21.660  18.592   2.250
78451W        W37987  18.712  18.700   4.814
78452W        W37988  13.258  19.041   1.695
78453W        W37989  39.975  35.020   0.260
78454W        W37990  25.532  19.587  12.353
78455W        W37991  24.217  33.973   2.819
78456W        W37992   4.765  36.574   3.849
78457W        W37993  38.044  30.070  14.321
78458W        W37994  28.083  15.099   1.302
78459W        W37995  23.532  12.663  12.451
78460W        W37996   0.768  31.086  14.411
78461W        W37997  15.650  43.278  14.976
78462W        W37998  37.076  36.921   1.365
78463W        W37999  44.301  16.742  11.546
78464W        W38000  28.135  18.051  11.045
78465W        W38001  37.976  42.403   4.729
78466W        W38002  33.445  35.893   1.384
78467W        W38003  32.535   3.803   1.227
78468W        W38004  10.258  38.823  14.426
78469W        W38005  20.733  32.423   3.759
78470W        W38006  21.655  37.403  11.945
78471W        W38007  44.487   6.910   1.353
78472W        W38008  41.445  10.243   0.785
78473W        W38009   0.393  24.087   4.342
78474W        W38010  19.139   1.887  12.389
78475W        W38011  18.566  10.725  12.050
78476W        W38012   9.355  36.058   1.898
78477W        W38013  39.940  20.238   3.162
78478W        W38014   1.287  11.218   2.185
78479W        W38015  20.697   6.195   3.858
78480W        W38016  32.552  26.682   2.249
78481W        W38017  25.567   0.413  12.532
78482W        W38018  10.228  17.238   0.928
78483W        W38019  26.145   8.894  14.458
78484W        W38020  25.555  31.624  11.103
78485W        W38021  13.243  24.175   3.324
78486W        W38022  20.122   7.883   1.699
78487W        W38023   5.894  12.330   2.335
78488W        W38024   5.354  10.699  11.607
78489W        W38025  34.452   0.822  11.868
78490W        W38026  39.349  14.760  12.021
78491W        W38027   2.343   7.910   1.777
78492W        W38028  22.051  44.777   3.754
78493W        W38029  40.543   2.273   0.888
78494W        W38030  15.194  43.816   3.828
78495W        W38031   6.401  12.758   4.704
78496W        W38032  22.155  34.950   2.724
78497W        W38033  37.344   8.807   4.160
78498W        W38034  31.909  18.754   0.380
78499W        W38035  24.090  22.510   1.283
78500W        W38036  38.918   1.868   3.851
78501W        W38037  36.591  25.499   2.868
78502W        W38038  22.641   9.674  11.094
78503W        W38039  25.522  27.945  10.554
78504W        W38040  37.972  28.506  10.634
78505W        W38041   1.264   7.201   1.379
78506W        W38042  26.109  19.672   0.433
78507W        W38043  18.569   4.759  11.859
78508W        W38044  24.121  43.992   2.331
78509W        W38045  38.977  26.507  12.416
78510W        W38046   7.715  18.550   4.699
78511W        W38047  24.986  21.200   3.733
78512W        W38048  32.101  39.892  13.376
78513W        W38049  31.073  20.131  14.490
78514W        W38050   4.819   6.354  14.507
78515W        W38051  20.270   2.791   3.367
78516W        W38052  18.265  26.042   3.244
78517W        W38053  41.365  21.539  11.888
78518W        W38054  26.698  19.150  14.334
78519W        W38055  37.856  38.884   3.316
78520W        W38056  23.705  33.108   4.338
78521W        W38057  13.609  16.749  14.794
78522W        W38058  18.236  38.001   3.355
78523W        W38059  40.932  32.026  10.636
78524W        W38060  43.880  32.622  13.390
78525W        W38061  41.930  44.307  14.975
78526W        W38062  33.595  19.137  13.403
78527W        W38063  34.116  43.777   1.809
78528W        W38064  24.720  15.777  11.957
78529W        W38065  24.572   8.346  11.510
78530W        W38066  31.490  31.963   0.943
78531W        W38067  30.463  37.057   2.206
78532W        W38068  18.558   7.816  14.280
78533W        W38069  12.767  27.600  11.936
78534W        W38070   9.782  42.359  12.343
78535W        W38071  14.153  38.008  13.310
78536W        W38072  17.085  42.813   0.835
78537W        W38073  11.696  43.968  12.075
78538W        W38074  23.609  10.375  10.619
78539W        W38075  33.562  40.454  14.397
78540W        W38076  27.142   9.712  12.940
78541W        W38077  41.339  35.885  11.990
78542W        W38078  25.029  26.025   1.317
78543W        W38079  38.047  21.147   9.951
78544W        W38080  13.349  34.081   4.677
78545W        W38081  30.607  44.342   1.229
78546W        W38082   4.396   5.378  13.816
78547W        W38083  20.198  43.490   1.419
78548W        W38084  27.059  42.797   2.321
78549W        W38085  19.205  32.626   1.769
78550W        W38086  41.366  40.811  10.967
78551W        W38087  16.130  17.208   1.451
78552W        W38088  26.016  35.491   3.778
78553W        W38089  29.965  13.210   0.899
78554W        W38090  42.870   8.731  13.467
78555W        W38091  23.135  42.352   4.657
78556W        W38092   6.280  28.468  14.865
78557W        W38093  10.154   5.801  11.556
78558W        W38094  16.079  31.491  12.371
78559W        W38095  33.580  43.989  11.098
78560W        W38096  18.153  43.008  11.864
78561W        W38097  26.101  26.203   2.764
78562W        W38098   9.714  43.870  10.551
78563W        W38099  18.663  22.058   1.429
78564W        W38100   2.467  19.596  11.388
78565W        W38101   1.422  33.113  13.051
78566W        W38102   0.471  18.228   4.603
78567W        W38103   9.692  38.522  13.827
78568W        W38104  13.237  38.478  10.518
78569W        W38105  11.680  44.332  14.892
78570W        W38106   5.771  31.917   0.741
78571W        W38107  23.075  43.987  14.393
78572W        W38108   4.304   7.354  13.433
78573W        W38109   0.357  23.170  12.902
78574W        W38110  24.677  34.594   1.745
78575W        W38111  26.114  40.902  11.453
78576W        W38112  24.213   0.411   1.928
78577W        W38113  41.411  44.998   3.253
78578W        W38114  26.680  11.185  12.957
78579W        W38115  38.955  33.441   1.271
78580W        W38116  15.179  36.853   1.323
78581W        W38117  31.507  28.460   2.259
78582W        W38118  20.246  44.475  14.312
78583W        W38119  12.239   9.844   3.255
78584W        W38120   3.346  24.690  10.030
78585W        W38121   2.293   6.739  12.431
78586W        W38122  25.510  19.076  10.907
78587W        W38123   9.254   7.322  14.988
78588W        W38124  34.060  28.063   3.229
78589W        W38125  29.052  24.161  11.899
78590W        W38126  36.876  15.269  13.893
78591W        W38127   9.262  38.029  14.988
78592W        W38128  10.851   2.401   1.701
78593W        W38129  12.288  32.037   2.662
78594W        W38130  33.396  12.802   1.710
78595W        W38131  22.746   3.295   5.743
78596W        W38132  12.757  19.207  11.892
78597W        W38133  23.721  43.766   1.375
78598W        W38134  36.512  24.070   4.156
78599W        W38135  28.502  11.191   0.846
78600W        W38136  11.681   5.779  12.058
78601W        W38137   3.892  28.974  13.362
78602W        W38138  39.983  33.064  14.409
78603W        W38139  23.107  19.109  11.414
78604W        W38140   7.334   2.444  13.063
78605W        W38141  44.354  25.553   5.635
78606W        W38142  13.829  42.463   4.641
78607W        W38143   8.167  25.111  12.511
78608W        W38144  33.083  31.414  12.476
78609W        W38145  20.624  22.532   2.361
78610W        W38146  25.207   5.830  11.903
78611W        W38147   2.268  27.163   0.766
78612W        W38148   2.328  38.373   0.454
78613W        W38149  22.669  30.420   1.350
78614W        W38150   2.412  20.161   4.689
78615W        W38151  19.685  14.206  13.360
78616W        W38152  18.165  22.550  10.090
78617W        W38153   4.770   6.782   3.364
78618W        W38154  27.658  10.871  14.821
78619W        W38155  31.494  20.649  14.502
78620W        W38156  44.794  35.105  14.884
78621W        W38157  10.266  25.665   2.839
78622W        W38158  34.471  12.362  12.936
78623W        W38159  33.976  19.072  11.893
78624W        W38160  23.527  42.946   4.291
78625W        W38161  28.997  11.737   1.253
78626W        W38162   7.238  11.308   3.787
78627W        W38163  21.628  43.970   4.704
78628W        W38164   2.935  21.195   1.306
78629W        W38165  19.777  35.917  14.773
78630W        W38166   5.886  33.019  14.825
78631W        W38167  23.237  33.430  12.043
78632W        W38168   2.853  36.033   2.832
78633W        W38169  10.748  20.698   3.745
78634W        W38170  15.142  22.223  13.931
78635W        W38171  13.347  29.534  13.461
78636W        W38172  15.316  37.880   2.877
78637W        W38173  13.694  17.578  11.443
78638W        W38174   5.297  25.653   1.335
78639W        W38175  25.138  25.078   3.186
78640W        W38176  27.662  37.850  14.327
78641W        W38177  28.105  44.904  12.992
78642W        W38178  32.122  10.730  12.378
78643W        W38179  14.248  39.506  12.064
78644W        W38180   2.738  21.248  11.936
78645W        W38181  40.460   3.731  14.382
78646W        W38182   5.311  24.031  12.887
78647W        W38183  37.964  18.173   2.694
78648W        W38184  29.159  29.587   4.159
78649W        W38185  34.456   5.743   2.858
78650W        W38186  14.611   9.252   0.755
78651W        W38187  22.024  25.119  10.517
78652W        W38188  20.617  17.679  10.447
78653W        W38189   7.678  11.756  12.909
78654W        W38190  20.030  21.223  13.025
78655W        W38191   0.464   0.392   2.257
78656W        W38192  20.049  33.932   3.218
78657W        W38193  27.033  29.935  10.632
78658W        W38194  13.665  14.635   0.439
78659W        W38195  20.237  25.491   3.867
78660W        W38196  17.799  24.621   1.310
78661W        W38197  26.577  34.588  10.521
78662W        W38198  22.527  19.198  13.899
78663W        W38199  22.614   1.274  11.522
78664W        W38200  21.743  41.509   3.688
78665W        W38201  43.783  21.217   3.659
78666W        W38202  10.730  17.743   2.389
78667W        W38203   7.327  25.556   2.276
78668W        W38204   5.713  33.588   2.712
78669W        W38205   3.787  32.099  10.636
78670W        W38206  21.654  15.105  12.016
78671W        W38207   2.425  42.858  12.400
78672W        W38208  21.069  30.428  13.048
78673W        W38209  35.395  34.377  13.018
78674W        W38210  23.034  12.289   2.224
78675W        W38211  25.667   6.893   2.264
78676W        W38212  34.392  22.631   0.334
78677W        W38213  43.331  15.701   3.793
78678W        W38214  18.238  23.608   3.367
78679W        W38215  12.732  30.434   2.305
78680W        W38216  36.971  35.911   0.311
78681W        W38217   3.881   8.897   4.329
78682W        W38218   8.716  28.031   3.172
78683W        W38219  23.517  35.875  10.983
78684W        W38220   6.741  19.611   4.289
78685W        W38221   1.336   0.766   0.745
78686W        W38222  34.396  18.187   1.411
78687W        W38223   1.452  34.951   0.244
78688W        W38224  32.081  12.795  12.071
78689W        W38225   3.872  12.851   3.207
78690W        W38226  12.313   1.256   0.966
78691W        W38227   3.869   5.710  10.590
78692W        W38228  40.984  13.613  14.955
78693W        W38229  12.361  34.375  10.989
78694W        W38230   7.395  27.671  13.534
78695W        W38231  21.533  25.063  13.541
78696W        W38232  25.125  19.260   4.619
78697W        W38233   8.795   3.304   1.768
78698W        W38234  28.953  27.161   4.228
78699W        W38235  21.119  13.700  13.348
78700W        W38236  17.082  25.107  14.331
78701W        W38237  42.327   0.449  14.835
78702W        W38238  10.791  12.142   0.947
78703W        W38239  25.675  39.899  12.960
78704W        W38240  43.289   6.899  11.504
78705W        W38241  40.921  15.652   2.339
78706W        W38242  21.245  20.744  14.881
78707W        W38243  28.078   4.778   5.217
78708W        W38244   0.365  12.216   2.376
78709W        W38245   8.800  23.531   4.172
78710W        W38246   2.733  14.620   3.773
78711W        W38247  29.160   5.267   1.451
78712W        W38248  34.486   7.200  13.928
78713W        W38249  15.780  33.878   1.885
78714W        W38250  41.409  42.885  12.457
78715W        W38251  36.914  35.404   3.709
78716W        W38252  31.627  19.578   1.711
78717W        W38253  14.719  31.017  13.408
78718W        W38254  40.365  35.517   0.824
78719W        W38255  18.193  13.268  13.010
78720W        W38256  40.054   8.805  14.381
78721W        W38257  40.371   2.437  14.761
78722W        W38258   0.820  43.816  12.016
78723W        W38259  29.925   4.397  11.010
78724W        W38260   2.847  26.552  13.947
78725W        W38261  19.073  35.483  11.042
78726W        W38262   7.232  17.719  14.983
78727W        W38263   9.744  28.973   4.199
78728W        W38264  25.638  15.648  10.601
78729W        W38265  26.187  22.668  13.030
78730W        W38266  28.950  14.668   4.250
78731W        W38267  21.591  28.466   0.317
78732W        W38268  23.669   1.446   3.685
78733W        W38269  10.141  17.663  12.034
78734W        W38270  33.043  39.423  13.527
78735W        W38271  40.952  35.879  12.900
78736W        W38272   4.750  29.518   1.383
78737W        W38273  14.808  36.842   3.153
78738W        W38274   1.316  32.546  13.500
78739W        W38275  31.041  14.815   4.236
78740W        W38276  43.450  38.342  13.899
78741W        W38277  30.504   2.292   4.289
78742W        W38278  13.695  13.697  12.961
78743W        W38279  27.630   7.209  12.449
78744W        W38280  43.899  40.993  10.940
78745W        W38281  38.944   3.435  14.995
78746W        W38282  28.971  16.076  14.812
78747W        W38283   7.819   2.950  13.856
78748W        W38284  35.049  40.382   0.422
78749W        W38285  36.980   7.692   0.388
78750W        W38286  34.884   3.843  11.883
78751W        W38287  24.725  17.164   5.320
78752W        W38288  27.071   5.254  12.086
78753W        W38289  18.736   1.917   0.334
78754W        W38290  22.170  37.960   1.325
78755W        W38291  36.353   1.379  11.888
78756W        W38292  28.165  30.658  10.097
78757W        W38293  42.420  16.719   1.914
78758W        W38294   2.860   9.702   1.902
78759W        W38295  24.663  42.896   2.733
78760W        W38296  43.929  40.500  10.592
78761W        W38297   3.237  21.224   0.385
78762W        W38298  19.626  34.056  10.997
78763W        W38299  38.340  22.630  14.760
78764W        W38300  12.695  41.381   2.877
78765W        W38301  23.149  21.084  12.528
78766W        W38302  12.649  25.201   4.152
78767W        W38303  41.339   3.300   0.477
78768W        W38304  14.830  24.492   2.766
78769W        W38305  26.649  27.975   1.740
78770W        W38306  13.118  37.389  10.136
78771W        W38307  12.326  19.067  13.359
78772W        W38308   4.709   5.841   1.303
78773W        W38309  34.000   4.703   1.722
78774W        W38310  18.749  35.600  11.004
78775W        W38311   1.921  16.576   0.950
78776W        W38312  10.165  19.206   1.360
78777W        W38313  20.662  21.658   4.215
78778W        W38314  27.575  12.696  12.825
78779W        W38315  44.463  21.215  12.037
78780W        W38316  39.434  10.675   2.356
78781W        W38317   4.830  34.420  12.863
78782W        W38318   0.359  38.831   4.167
78783W        W38319  20.766  40.051   2.265
78784W        W38320  28.528  24.618  14.904
78785W        W38321  27.673   7.885  14.999
78786W        W38322  32.558  42.837   1.724
78787W        W38323  11.750  20.542   1.776
78788W        W38324  33.450   2.370  12.849
78789W        W38325  14.275   1.452  13.392
78790W        W38326  27.660   0.350   2.403
78791W        W38327  25.646  15.122   0.391
78792W        W38328  34.371  29.990   0.266
78793W        W38329  43.353   7.875  14.350
78794W        W38330  26.125  24.529   1.827
78795W        W38331  34.568  10.740   4.242
78796W        W38332  15.157  23.687  13.521
78797W        W38333   1.392   0.444  13.889
78798W        W38334  27.561  21.127  11.891
78799W        W38335  24.585  40.856  13.977
78800W        W38336  34.945  33.021  12.999
78801W        W38337   3.941  33.587   0.431
78802W        W38338  19.603  35.546   3.653
78803W        W38339   6.297  34.114  11.066
78804W        W38340  42.351   2.821   1.371
78805W        W38341  12.745   0.972  12.358
78806W        W38342  27.671   6.236   2.352
78807W        W38343  14.328   4.421   0.784
78808W        W38344  34.608  20.175   4.723
78809W        W38345  14.317  37.450  12.399
78810W        W38346  31.909  37.007  13.927
78811W        W38347   6.183  16.572   3.216
78812W        W38348  14.778  33.399  13.961
78813W        W38349  13.349  21.249  13.379
78814W        W38350  13.611  24.173  12.453
78815W        W38351  41.531  21.259  14.464
78816W        W38352  12.253  36.496   0.265
78817W        W38353  34.117  35.508  13.063
78818W        W38354   9.199  39.933   3.733
78819W        W38355   8.281  12.146   0.264
78820W        W38356   7.369  35.037   3.817
78821W        W38357   6.284  42.455  10.959
78822W        W38358  23.144  24.182  11.053
78823W        W38359  26.621   7.227   1.449
78824W        W38360  11.363  31.543   0.775
78825W        W38361  21.629  30.102  13.325
78826W        W38362  41.300   6.768  11.575
78827W        W38363  32.930  18.592  11.083
78828W        W38364  13.644  10.863  11.129
78829W        W38365  31.403  41.988  14.333
78830W        W38366  31.014   9.753  10.540
78831W        W38367  26.619  40.384   4.639
78832W        W38368  33.931  44.803  12.980
78833W        W38369  13.305  33.607  13.982
78834W        W38370   8.714   5.215  10.023
78835W        W38371  37.511  20.528   0.799
78836W        W38372  13.644  32.448   2.896
78837W        W38373  26.020  32.590  14.950
78838W        W38374  19.270  33.079   4.659
78839W        W38375  26.596  14.222  10.417
78840W        W38376  30.579  21.747  10.631
78841W        W38377  30.472  25.156  11.593
78842W        W38378  16.095  20.115  11.397
78843W        W38379  29.509  20.564  13.427
78844W        W38380   5.779  31.135  11.561
78845W        W38381   6.688  36.428  14.359
78846W        W38382   2.895  33.053   3.684
78847W        W38383  11.140  16.725  11.422
78848W        W38384  35.879  34.076   0.385
78849W        W38385  26.628  11.180   0.475
78850W        W38386  18.744   9.221  11.465
78851W        W38387  32.471   7.686  11.888
78852W        W38388  43.980   6.184  14.968
78853W        W38389  33.560   1.929  10.462
78854W        W38390  39.559  13.329  14.884
78855W        W38391  37.463  42.970  14.439
78856W        W38392  43.020  24.484  12.535
78857W        W38393  43.942  40.989   3.707
78858W        W38394   1.371  21.672   3.858
78859W        W38395  19.704   5.417   3.791
78860W        W38396  15.158  41.926  11.566
78861W        W38397  23.181   8.393   4.313
78862W        W38398   0.318  32.533  12.916
78863W        W38399  28.111  27.499   3.312
78864W        W38400  27.591  19.081   1.806
78865W        W38401  39.436  33.495  13.349
78866W        W38402  36.917  26.127  11.906
78867W        W38403  26.169   5.281   1.312
78868W        W38404   4.759  24.999   2.774
78869W        W38405  33.434  40.403   0.396
78870W        W38406  34.566  34.942   3.307
78871W        W38407  18.569  15.285  14.989
78872W        W38408   2.314  39.918  11.058
78873W        W38409  15.250  17.103   1.834
78874W        W38410  27.944  32.503  11.086
78875W        W38411  34.512  44.455   4.322
78876W        W38412  24.669  44.884   0.285
78877W        W38413  35.081  15.205  10.519
78878W        W38414  40.991  14.260  14.462
78879W        W38415  39.400   6.336   1.316
78880W        W38416   3.835   0.399   2.213
78881W        W38417  28.996  26.680  13.469
78882W        W38418  44.852   8.719   2.675
78883W        W38419  30.462  29.437   5.117
78884W        W38420   8.180  18.652   1.294
78885W        W38421  39.480  44.409   2.300
78886W        W38422  24.544   4.401   2.364
78887W        W38423   0.344   5.210  12.920
78888W        W38424  40.953  37.048  13.444
78889W        W38425  16.767  12.681  10.497
78890W        W38426  22.705   9.773  14.928
78891W        W38427  33.544   0.845  12.870
78892W        W38428  11.695  13.256  13.887
78893W        W38429  15.753  11.679   3.634
78894W        W38430   8.307  19.647  12.876
78895W        W38431  43.469  29.089  10.435
78896W        W38432  43.327  14.832   1.280
78897W        W38433  14.655  40.465  14.394
78898W        W38434  40.378  35.449   3.865
78899W        W38435  11.740  31.905   0.797
78900W        W38436  29.094  37.341  14.482
78901W        W38437  25.167  20.244  13.463
78902W        W38438  18.140  14.707  10.586
78903W        W38439   7.731   3.949  14.767
78904W        W38440  11.307   3.921   2.849
78905W        W38441  19.180  34.524  11.946
78906W        W38442  24.682  29.091  14.468
78907W        W38443   8.369  40.813  11.123
78908W        W38444  31.093  32.898  11.940
78909W        W38445  30.605   9.245  10.558
78910W        W38446   2.928  28.576  10.533
78911W        W38447  23.012   1.921   1.381
78912W        W38448  16.576  13.615   0.356
78913W        W38449   5.251  19.220   0.884
78914W        W38450  23.664  11.287  13.354
78915W        W38451  12.197  15.783  10.993
78916W        W38452   1.249  11.324  14.412
78917W        W38453  21.584  20.653  13.915
78918W        W38454  19.699  22.079   0.781
78919W        W38455  11.813  34.407  10.588
78920W        W38456  19.643  18.214  11.464
78921W        W38457  43.279   9.814  11.415
78922W        W38458  32.561  27.661  14.428
78923W        W38459  14.814  18.158  11.874
78924W        W38460  38.820  20.561   1.321
78925W        W38461  39.487  29.639   3.834
78926W        W38462  18.562  13.625  10.561
78927W        W38463  26.070  16.172   3.162
78928W        W38464  19.533  26.627   0.884
78929W        W38465  13.601  32.437   2.193
78930W        W38466   0.309  43.275   2.894
78931W        W38467  13.216  41.017  10.890
78932W        W38468   2.236  18.778   2.319
78933W        W38469  34.880   7.254   1.442
78934W        W38470  29.066  41.853  10.452
78935W        W38471  30.529  26.531  12.505
78936W        W38472  37.069   2.962  11.863
78937W        W38473   7.337  13.199  13.359
78938W        W38474  16.158  17.740   3.366
78939W        W38475  39.394  23.627  12.444
78940W        W38476  40.511  43.462  14.327
78941W        W38477  44.497   4.921   0.809
78942W        W38478  16.179   5.358  13.872
78943W        W38479   3.360  35.878  13.885
78944W        W38480  30.124  23.563  12.858
78945W        W38481  15.083  38.856   1.278
78946W        W38482  44.815  23.177  13.474
78947W        W38483  10.672  38.534   1.751
78948W        W38484  20.597   6.372  14.810
78949W        W38485  39.899  40.023  12.916
78950W        W38486   1.412  43.444  14.350
78951W        W38487   4.704   7.193   2.763
78952W        W38488  12.704  12.807   4.171
78953W        W38489  32.067  11.146  11.481
78954W        W38490  25.041   4.434   0.320
78955W        W38491  43.785   3.409  14.829
78956W        W38492  41.852   5.332   4.327
78957W        W38493  25.526   1.957  10.641
78958W        W38494  17.061  28.532  11.976
78959W        W38495  10.715  22.133   4.353
78960W        W38496  32.959  38.993  14.953
78961W        W38497  19.690  12.163   1.215
78962W        W38498  38.905  22.084  11.944
78963W        W38499  10.267  31.531   4.282
78964W        W38500   9.885  14.132  13.499
78965W        W38501  25.982   8.365   2.185
78966W        W38502  14.675  38.847   1.699
78967W        W38503  22.600  27.189   0.949
78968W        W38504  18.147  20.193   2.325
78969W        W38505   7.216  44.333  13.466
78970W        W38506  28.135  23.050   4.801
78971W        W38507  11.371  28.006   4.618
78972W        W38508  36.847  34.024  13.911
78973W        W38509  31.622   4.815  12.392
78974W        W38510  19.701  42.289  11.942
78975W        W38511  18.592  21.180  13.012
78976W        W38512  17.188  32.606  12.864
78977W        W38513  29.598  31.515   0.280
78978W        W38514  21.156  18.789  12.449
78979W        W38515  11.213   1.360  10.485
78980W        W38516  20.589  41.006   1.717
78981W        W38517  32.998  13.299  14.820
78982W        W38518  26.125   5.922  11.406
78983W        W38519  33.009  17.250   2.409
78984W        W38520  29.492  22.668  10.506
78985W        W38521   2.448  33.058  12.488
78986W        W38522  11.625  21.556  13.501
78987W        W38523   1.338  10.276   0.381
78988W        W38524  41.815  34.893   3.632
78989W        W38525  15.120   5.260  11.505
78990W        W38526   6.214   4.728  11.580
78991W        W38527  27.193  27.095  13.506
78992W        W38528   9.826  13.281   3.716
78993W        W38529   8.817   7.867   9.993
78994W        W38530   4.937   2.362  11.494
78995W        W38531  21.694   0.780   0.453
78996W        W38532  32.502  35.587   4.760
78997W        W38533  13.170  42.025  12.525
78998W        W38534   6.703  31.094  12.051
78999W        W38535  20.754  22.229  14.877
79000W        W38536   2.880  10.699  12.895
79001W        W38537  29.986  34.423  14.000
79002W        W38538  25.702  42.894   1.377
79003W        W38539  24.211  43.326   1.275
79004W        W38540   6.845  31.013   4.805
79005W        W38541  36.847  25.111  11.952
79006W        W38542  28.134  35.445   2.737
79007W        W38543   7.849  37.047   4.287
79008W        W38544  29.015  29.064   0.481
79009W        W38545  21.232   8.332   1.920
79010W        W38546  41.813  33.021   1.726
79011W        W38547   4.930  34.094  13.452
79012W        W38548   3.345  23.637  14.885
79013W        W38549  42.369  27.183   0.276
79014W        W38550  11.367  38.445   0.374
79015W        W38551  27.050  16.167   1.870
79016W        W38552  19.677  39.055   1.238
79017W        W38553  13.727  29.050  14.848
79018W        W38554  16.121   3.815   4.255
79019W        W38555  10.652  22.125   4.729
79020W        W38556  43.935  16.255  10.973
79021W        W38557  10.798  21.515  14.809
79022W        W38558   6.184  41.862   1.847
79023W        W38559   9.357  41.417   0.261
79024W        W38560   3.285  28.043  11.119
79025W        W38561  44.873   6.278   2.900
79026W        W38562  43.002   6.401  12.028
79027W        W38563  24.553  27.645  11.420
79028W        W38564   1.941  44.982   0.361
79029W        W38565   5.333  36.015   4.784
79030W        W38566  13.812  26.095  10.469
79031W        W38567  30.655   5.319   2.891
79032W        W38568  35.513   8.219  12.491
79033W        W38569  15.304  39.551   3.189
79034W        W38570   2.298  24.578  13.043
79035W        W38571  34.378  32.559  12.956
79036W        W38572  29.017  17.147  13.341
79037W        W38573  11.867  38.969   5.276
79038W        W38574  23.581  14.108  12.557
79039W        W38575  35.857  14.677  11.386
79040W        W38576   5.255  36.499  13.800
79041W        W38577  32.085  28.490   5.094
79042W        W38578  26.699   6.833   0.450
79043W        W38579  38.022  31.594  14.977
79044W        W38580   9.379  44.915  14.928
79045W        W38581   0.301  32.136   5.163
79046W        W38582  34.563  26.482   3.862
79047W        W38583   9.351  39.833   2.294
79048W        W38584  20.267  27.042   4.250
79049W        W38585  36.502  30.137  14.436
79050W        W38586   1.834  33.444   0.296
79051W        W38587  24.594  13.642   0.874
79052W        W38588  36.880  40.892  13.987
79053W        W38589   3.846  34.479  10.896
79054W        W38590  14.278   9.221   3.633
79055W        W38591  34.507  14.301   4.703
79056W        W38592  21.171  31.146   3.767
79057W        W38593  10.191  22.622  11.017
79058W        W38594  41.790  33.002  10.570
79059W        W38595  10.187  29.501   4.656
79060W        W38596   4.738  41.876  11.481
79061W        W38597  36.058  43.956   4.783
79062W        W38598  25.126  22.191   3.355
79063W        W38599  39.557  17.214   2.815
79064W        W38600  38.453  43.927  12.577
79065W        W38601   7.186   2.369  13.397
79066W        W38602  25.620  36.937   4.774
79067W        W38603  34.560   5.720  12.537
79068W        W38604   7.888  17.247   0.748
79069W        W38605   9.658  19.256   2.799
79070W        W38606   3.711  27.181  13.524
79071W        W38607  34.503   9.163   2.848
79072W        W38608   3.404  10.648  13.930
79073W        W38609   7.884  28.122   2.872
79074W        W38610  23.555   9.693   2.334
79075W        W38611  18.654  31.982   2.852
79076W        W38612  30.978  22.079  11.486
79077W        W38613  21.197  24.694   1.407
79078W        W38614  28.089  35.396  14.378
79079W        W38615   9.261  41.962   1.887
79080W        W38616  39.943  33.953   2.303
79081W        W38617  24.637  29.994   1.714
79082W        W38618  32.516  10.677   3.714
79083W        W38619   7.413  43.315   1.284
79084W        W38620   9.176   0.976  11.984
79085W        W38621   1.341  15.640  14.330
79086W        W38622  30.974  26.993  13.916
79087W        W38623   3.410  41.320  10.076
79088W        W38624  23.212  11.227   4.739
79089W        W38625  18.215  24.975  11.561
79090W        W38626  22.652  18.587  13.913
79091W        W38627  24.614  26.647  13.971
79092W        W38628   2.733  34.511   4.677
79093W        W38629  40.397  38.850  11.592
79094W        W38630  34.518  21.751   0.954
79095W        W38631  44.794  42.973  13.804
79096W        W38632   9.208  33.601  14.276
79097W        W38633   4.380  42.489   3.150
79098W        W38634  42.282  12.726  11.532
79099W        W38635  41.887  36.096  11.517
79100W        W38636  29.668  11.665  10.488
79101W        W38637  14.122  27.162  13.362
79102W        W38638  31.122  29.624   2.693
79103W        W38639  17.125   6.786   3.824
79104W        W38640  25.704   9.740  12.019
79105W        W38641  29.126   1.749   0.817
79106W        W38642  14.646  42.870  13.851
79107W        W38643  16.792  15.584  13.969
79108W        W38644  17.716  41.979   4.261
79109W        W38645  18.154  39.892  14.892
79110W        W38646  18.152  17.665  14.931
79111W        W38647  42.993  28.627  13.469
79112W        W38648  10.715  28.641   3.348
79113W        W38649  30.916  12.720   4.750
79114W        W38650  13.163  16.683   3.360
79115W        W38651  27.170   1.472  12.830
79116W        W38652   3.316  11.659   3.193
79117W        W38653   6.715   2.316   1.696
79118W        W38654  39.407  41.804   1.696
79119W        W38655   8.161  11.731  13.419
79120W        W38656  23.491  16.615   1.704
79121W        W38657  29.433  32.948  12.445
79122W        W38658  12.720  41.855   1.824
79123W        W38659  14.137  28.525  11.414
79124W        W38660   9.226  30.452   3.633
79125W        W38661  16.733  23.033   0.262
79126W        W38662   1.306   4.788  11.913
79127W        W38663   9.191  20.671   1.872
79128W        W38664  38.437  30.125  12.865
79129W        W38665  14.661   8.771  13.035
79130W        W38666  15.300  30.038   3.781
79131W        W38667  24.130  39.470   1.270
79132W        W38668   6.398   9.223  10.554
79133W        W38669  16.301  41.792   2.770
79134W        W38670  37.577  18.140   3.239
79135W        W38671  16.112  18.068  13.913
79136W        W38672  44.283  35.503   3.763
79137W        W38673  39.045  39.441  13.843
79138W        W38674  18.550  39.496   0.248
79139W        W38675   9.859  37.021   0.942
79140W        W38676  20.191  26.036  12.563
79141W        W38677   2.374  24.566  14.992
79142W        W38678  30.970  20.617  13.508
79143W        W38679  31.621  12.296   3.698
79144W        W38680  26.963  23.087   4.680
79145W        W38681   6.228  37.569  12.990
79146W        W38682   5.825  41.937  14.932
79147W        W38683  41.343  31.423   2.871
79148W        W38684  38.854  17.255   0.864
79149W        W38685  44.902   3.742  12.470
79150W        W38686   7.784  41.934   0.453
79151W        W38687  15.779  13.725  11.897
79152W        W38688  23.178  41.896  11.049
79153W        W38689  14.094  28.141   2.680
79154W        W38690  21.682  35.954   0.308
79155W        W38691  44.928   3.342   2.184
79156W        W38692   7.235   2.889  12.389
79157W        W38693   2.839  21.611   3.770
79158W        W38694   2.790  35.528   3.862
79159W        W38695  28.937  20.716  11.961
79160W        W38696   6.347  28.959  13.014
79161W        W38697  12.254  38.996   1.223
79162W        W38698  44.857   8.398   5.322
79163W        W38699  31.969  35.508   0.766
79164W        W38700  20.258   8.821  14.992
79165W        W38701  12.838  40.998  14.864
79166W        W38702  21.127  31.932   5.270
79167W        W38703  40.478   0.335   3.860
79168W        W38704  27.012  17.633   1.415
79169W        W38705  40.337  15.604  11.575
79170W        W38706   2.363  33.609   9.984
79171W        W38707  25.017   0.395  13.479
79172W        W38708   3.420  27.984  14.027
79173W        W38709  11.634   9.167  11.044
79174W        W38710  33.909   0.873  12.052
79175W        W38711  44.301  17.619  12.861
79176W        W38712  40.896  35.873   3.763
79177W        W38713  28.030  34.006  10.616
79178W        W38714  32.914  37.446  13.820
79179W        W38715  26.056  13.218   2.747
79180W        W38716  10.355  40.832   2.770
79181W        W38717  44.860  12.216  10.021
79182W        W38718  43.397  40.470   0.301
79183W        W38719  18.711  15.627   3.306
79184W        W38720  12.303   8.685  13.877
79185W        W38721   3.328  10.752  11.518
79186W        W38722  18.771  31.546   3.652
79187W        W38723  43.841  38.002   2.789
79188W        W38724  21.582  24.991  12.477
79189W        W38725  19.204  10.251  13.534
79190W        W38726   7.892  22.077  10.408
79191W        W38727   7.227  36.910   2.291
79192W        W38728   9.786  18.559   1.443
79193W        W38729  28.095  10.796  11.613
79194W        W38730  30.051  30.491  13.450
79195W        W38731   4.298  37.470  13.059
79196W        W38732  27.020  42.021  13.985
79197W        W38733  11.628  27.135  12.026
79198W        W38734  42.792  35.449   1.364
79199W        W38735  28.659   7.218   1.379
79200W        W38736  43.766  20.700  14.298
79201W        W38737  37.411  27.607   3.205
79202W        W38738   3.415  17.612   0.807
79203W        W38739  39.058  22.577   0.452
79204W        W38740  44.358  27.096  12.574
79205W        W38741  42.000  35.936  11.020
79206W        W38742  14.750  29.078   2.388
79207W        W38743  13.638  31.089  11.085
79208W        W38744  34.592  13.150   4.355
79209W        W38745  33.564   1.345  12.452
79210W        W38746  39.385  34.033  10.593
79211W        W38747  26.551  24.494  12.888
79212W        W38748  37.517  43.007   9.956
79213W        W38749  18.601   9.740  14.935
79214W        W38750  43.437  26.050   4.265
79215W        W38751   4.237  28.154  14.495
79216W        W38752  33.462  30.022   1.706
79217W        W38753   4.797  23.994  11.952
79218W        W38754  24.548  41.007   2.893
79219W        W38755  36.441  14.166   1.402
79220W        W38756  38.413   9.802  11.109
79221W        W38757  25.997   8.676   5.170
79222W        W38758  40.523  34.530  14.515
79223W        W38759  25.026   1.361   1.378
79224W        W38760  43.896  30.915   4.202
79225W        W38761   5.859  38.839  11.869
79226W        W38762  22.154  44.358   3.636
79227W        W38763  15.589  12.215   0.884
79228W        W38764   7.769  22.596   0.892
79229W        W38765  15.685  34.876  12.444
79230W        W38766  26.043  17.094  14.916
79231W        W38767  38.989  12.138   2.350
79232W        W38768  21.058  26.054  13.501
79233W        W38769  16.117   5.823  10.454
79234W        W38770  33.879  42.942   0.295
79235W        W38771  15.729  23.633   4.128
79236W        W38772  41.928  42.470   3.348
79237W        W38773  25.982  24.569   2.816
79238W        W38774  12.753   4.220   0.303
79239W        W38775  24.523  33.438  14.899
79240W        W38776  10.287  13.263  11.575
79241W        W38777   3.760  36.484  10.636
79242W        W38778  33.553  28.479  12.482
79243W        W38779  37.503  22.630  10.931
79244W        W38780  31.609  24.607  12.837
79245W        W38781  17.556  19.587   0.424
79246W        W38782   8.814  42.881   5.297
79247W        W38783   7.386  25.534   0.782
79248W        W38784  39.417  38.342  12.840
79249W        W38785  33.491  18.743   2.196
79250W        W38786  32.622  16.176  14.881
79251W        W38787  13.177  41.911  13.038
79252W        W38788  34.982  13.718  14.847
79253W        W38789  32.956  43.962  10.580
79254W        W38790   5.929  17.607   3.769
79255W        W38791  10.680  12.204  10.466
79256W        W38792  44.384  28.611  14.397
79257W        W38793  22.112  26.181  11.445
79258W        W38794  19.768  38.332  14.371
79259W        W38795   0.927  31.123  14.920
79260W        W38796  44.451  15.197   4.136
79261W        W38797  31.928  39.855   0.467
79262W        W38798  43.407  27.578   1.234
79263W        W38799  43.882  25.507   3.330
79264W        W38800  24.661  14.752  12.954
79265W        W38801   8.406   5.342  12.917
79266W        W38802  25.059   9.685   3.768
79267W        W38803  18.604  32.467  10.623
79268W        W38804  19.761  32.070  13.803
79269W        W38805  24.165  40.915   1.770
79270W        W38806  12.672   2.315   0.769
79271W        W38807   2.320  30.063   3.825
79272W        W38808  35.989  24.114   2.301
79273W        W38809  18.646  18.194  11.009
79274W        W38810  27.109   2.848  11.509
79275W        W38811  39.532  35.012  14.398
79276W        W38812  44.285   4.340  14.951
79277W        W38813  13.105  13.820  13.512
79278W        W38814  23.704   7.243   0.475
79279W        W38815  19.169  33.404  14.297
79280W        W38816   6.322  12.661   4.170
79281W        W38817  25.566  12.704  12.953
79282W        W38818  14.166   7.774   0.269
79283W        W38819  35.424   0.465  10.545
79284W        W38820  28.079  28.580  11.937
79285W        W38821   7.345  38.915  14.904
79286W        W38822  24.216  22.710   0.281
79287W        W38823  20.133  12.636  14.432
79288W        W38824  36.897   9.857   3.642
79289W        W38825  15.621  42.812   2.271
79290W        W38826  16.697   3.241  12.056
79291W        W38827   8.390  11.350  12.344
79292W        W38828   1.913  27.083   3.780
79293W        W38829  16.619  16.235  12.534
79294W        W38830  17.567  25.211  14.376
79295W        W38831  23.100  32.923   3.821
79296W        W38832   7.769   6.256  14.906
79297W        W38833   8.841   1.809  11.032
79298W        W38834   8.746  15.304  13.888
79299W        W38835  13.673  16.787  10.532
79300W        W38836  30.063  19.595  11.855
79301W        W38837  34.070  26.969   3.781
79302W        W38838  17.640  12.178   2.711
79303W        W38839  29.023  34.554  14.506
79304W        W38840  35.978  33.940   1.325
79305W        W38841   2.910  12.192   0.298
79306W        W38842  11.347   4.215  13.056
79307W        W38843  24.057  31.936  13.313
79308W        W38844  41.535  28.536   3.676
79309W        W38845  12.360  29.117   3.313
79310W        W38846  11.723  44.940   0.261
79311W        W38847  44.323  21.078   2.369
79312W        W38848  26.620  38.461  14.924
79313W        W38849  12.741  14.685  12.058
79314W        W38850  20.746  36.384   0.342
79315W        W38851  25.551  41.805  11.470
79316W        W38852  31.050   2.444  10.457
79317W        W38853  12.755  43.788  14.961
79318W        W38854   0.359  17.569  13.028
79319W        W38855  14.744  10.177  13.495
79320W        W38856   1.762   9.370   0.824
79321W        W38857  39.342  11.167   4.295
79322W        W38858   1.338  35.925   2.270
79323W        W38859  11.217  38.970   4.156
79324W        W38860  28.929  20.543   0.454
79325W        W38861  25.000  16.258   1.263
79326W        W38862  44.914  16.144  10.940
79327W        W38863  10.260  39.377   4.177
79328W        W38864  22.591   2.350   1.776
79329W        W38865   6.303   8.291   4.768
79330W        W38866  41.819   1.317  11.442
79331W        W38867  36.463  32.559   3.157
79332W        W38868  35.550  19.678  13.909
79333W        W38869  34.539  41.391   0.927
79334W        W38870  30.994  16.283   1.929
79335W        W38871   5.839  36.065   2.339
79336W        W38872  16.778  28.953  13.895
79337W        W38873  34.989  29.041  14.998
79338W        W38874  17.119  25.052   2.419
79339W        W38875  26.698  15.242  14.952
79340W        W38876   9.841  30.437   2.384
79341W        W38877  39.905  44.268   2.838
79342W        W38878  35.889  22.057   0.731
79343W        W38879   0.873  36.488   0.350
79344W        W38880  30.940  11.177  12.915
79345W        W38881  39.512  41.952  13.421
79346W        W38882  29.475  38.513   1.922
79347W        W38883  15.234  30.101  14.472
79348W        W38884   2.873  15.775   0.875
79349W        W38885  40.816  13.845  10.559
79350W        W38886   5.738  35.071  12.424
79351W        W38887  32.109   2.333   3.220
79352W        W38888   1.326  13.608   1.330
79353W        W38889  16.278   7.712   4.183
79354W        W38890  25.558  30.538   4.659
79355W        W38891  23.554  15.169  13.036
79356W        W38892  17.067  14.279  13.465
79357W        W38893  26.646  28.629  12.392
79358W        W38894  22.700   2.865   1.825
79359W        W38895  33.561  35.397   1.760
79360W        W38896   0.815   5.813  11.404
79361W        W38897   1.261  44.404  13.335
79362W        W38898   3.824  32.044  11.377
79363W        W38899   3.360   8.182  13.315
79364W        W38900  22.656  31.547   2.885
79365W        W38901  23.018  42.387   0.748
79366W        W38902  21.201  11.793  10.985
79367W        W38903  44.318   7.783   9.979
79368W        W38904   1.870  26.458  14.827
79369W        W38905  43.900  34.436  12.849
79370W        W38906  23.668   2.895   3.162
79371W        W38907   7.260  21.568  11.518
79372W        W38908  37.569  15.104   3.258
79373W        W38909  24.656  10.255  14.784
79374W        W38910  39.007  39.321  12.828
79375W        W38911  19.669   6.717   0.733
79376W        W38912  37.088   8.405  12.566
79377W        W38913  29.937  14.097  14.301
79378W        W38914  27.448   6.196   2.891
79379W        W38915  36.486  10.837  13.389
79380W        W38916  19.590  37.565   0.292
79381W        W38917   6.758  19.152   3.646
79382W        W38918  12.261  41.447  13.320
79383W        W38919  39.981  17.699  12.888
79384W        W38920  40.361  33.913  14.448
79385W        W38921  18.618  35.559  14.463
79386W        W38922  23.016  30.432   2.703
79387W        W38923  23.073   4.319  13.315
79388W        W38924  15.659  42.877   3.189
79389W        W38925   7.805  15.659  13.038
79390W        W38926   2.770  13.710   4.338
79391W        W38927  19.153   2.882   2.883
79392W        W38928  38.469  37.840  11.388
79393W        W38929  42.349  44.907   4.157
79394W        W38930  35.887  17.672   0.284
79395W        W38931  32.017   1.818   0.730
79396W        W38932  32.570  35.427  12.489
79397W        W38933  44.504  11.705  13.405
79398W        W38934  40.410  24.055   2.794
79399W        W38935  27.659  42.002  13.828
79400W        W38936  28.074  38.394  14.023
79401W        W38937  30.925  26.578   2.820
79402W        W38938  29.666   7.202  13.378
79403W        W38939  16.607  16.645   1.290
79404W        W38940  17.799   2.889   1.424
79405W        W38941  39.475  26.039   3.185
79406W        W38942  27.667  34.409  13.324
79407W        W38943  34.449   5.232  11.548
79408W        W38944  34.087  44.826   2.266
79409W        W38945   5.312   6.353  12.065
79410W        W38946  30.026  39.016  13.930
79411W        W38947  44.457  10.378  14.279
79412W        W38948  22.223  38.489  11.372
79413W        W38949  28.149  18.216  13.973
79414W        W38950   6.817  37.436   2.706
79415W        W38951   6.237  27.629   4.182
79416W        W38952  16.622   9.300  13.319
79417W        W38953   2.816  16.074   0.891
79418W        W38954   2.388  32.475   2.406
79419W        W38955  29.059   5.254   3.782
79420W        W38956  25.963  25.491  11.490
79421W        W38957  24.149   9.813   3.653
79422W        W38958  25.668  18.205   0.383
79423W        W38959  30.997  39.823   3.731
79424W        W38960  38.394  12.848   1.321
79425W        W38961  14.751   3.443   2.743
79426W        W38962  19.200   4.757  11.082
79427W        W38963  17.072  10.340   4.712
79428W        W38964  36.468  34.110   3.202
79429W        W38965  27.040  27.026  13.879
79430W        W38966   4.924  19.573  12.528
79431W        W38967  20.560  35.892   3.196
79432W        W38968  36.011  23.603   4.629
79433W        W38969  16.308  28.522  13.922
79434W        W38970  24.168  44.308   1.343
79435W        W38971   9.781  39.034   1.451
79436W        W38972  17.251  38.332   4.755
79437W        W38973  22.217  30.139  14.288
79438W        W38974   4.209  37.407   0.825
79439W        W38975  30.043  30.071   1.247
79440W        W38976  29.568  36.550   3.730
79441W        W38977  44.815  33.102   1.334
79442W        W38978  30.544  18.103   3.703
79443W        W38979   5.322  24.512  11.027
79444W        W38980  44.288   0.967   5.305
79445W        W38981  16.632  12.269   2.676
79446W        W38982  29.923  25.072  13.502
79447W        W38983  13.633  42.882  14.415
79448W        W38984  32.529  16.670   4.157
79449W        W38985  38.986  43.404   0.309
79450W        W38986  32.622   7.351  13.003
79451W        W38987  37.058  12.324   0.349
79452W        W38988  25.044  12.712  10.948
79453W        W38989  16.748  24.996   0.851
79454W        W38990  23.215   6.366  11.595
79455W        W38991  41.359  24.980   4.174
79456W        W38992  34.004   3.914   3.206
79457W        W38993  39.525  41.964   2.741
79458W        W38994   7.671  12.834   3.358
79459W        W38995   8.185  43.828   1.863
79460W        W38996  43.830  34.905   3.801
79461W        W38997  38.503  20.665  12.885
79462W        W38998   9.207   2.415  11.594
79463W        W38999  27.545  33.530  10.532
79464W        W39000  30.430  41.471   4.727
79465W        W39001  14.183  32.572  14.312
79466W        W39002  14.812  16.237  12.405
79467W        W39003  42.400   3.445   2.261
79468W        W39004  21.747  18.158  12.513
79469W        W39005  24.181  35.543   1.771
79470W        W39006  34.914  17.233  12.424
79471W        W39007  29.076  32.049   9.923
79472W        W39008   6.346  23.721   3.795
79473W        W39009   5.434   1.819  12.859
79474W        W39010  40.954  14.760   3.210
79475W        W39011  10.847  33.386  11.967
79476W        W39012  42.971  16.778  14.287
79477W        W39013  21.661  30.000  11.881
79478W        W39014   9.717  26.088  12.372
79479W        W39015  42.020   8.269   4.803
79480W        W39016   4.294  31.521   0.869
79481W        W39017  37.871  21.728   2.750
79482W        W39018  39.901  28.117  11.076
79483W        W39019   1.817  32.440   2.365
79484W        W39020   9.807  10.875  14.948
79485W        W39021  28.947  23.175  10.972
79486W        W39022  17.735  38.336   4.678
79487W        W39023  29.946  42.028   0.790
79488W        W39024  25.551  24.589   1.375
79489W        W39025  21.689  18.103   9.616
79490W        W39026  35.920  21.153   3.187
79491W        W39027   0.437  20.064   4.635
79492W        W39028  19.084  31.638  11.612
79493W        W39029   3.911  28.020   4.228
79494W        W39030   0.440  26.081  13.802
79495W        W39031  29.663  36.355   0.452
79496W        W39032  24.678  39.965  13.058
79497W        W39033  16.183  30.521  14.986
79498W        W39034  11.159  21.529  11.941
79499W        W39035   3.288  15.616  14.916
79500W        W39036  33.070  44.967  11.945
79501W        W39037  13.229  11.854   0.324
79502W        W39038   7.694  14.825  13.014
79503W        W39039   5.695  29.548   9.967
79504W        W39040  42.517   5.319   3.260
79505W        W39041  24.047  17.248  12.470
79506W        W39042   4.319  44.349  10.428
79507W        W39043  32.546  10.311  13.348
79508W        W39044  13.287   5.220  10.958
79509W        W39045  25.051   2.805  13.327
79510W        W39046  44.818  44.432  11.489
79511W        W39047   1.402   7.787   3.162
79512W        W39048  42.383   6.401  14.801
79513W        W39049  36.037   1.912   9.990
79514W        W39050  28.000  12.749   4.247
79515W        W39051  37.497  16.742   4.701
79516W        W39052  21.600   4.863  11.875
79517W        W39053  41.526   3.806   3.799
79518W        W39054  44.420  24.995  12.530
79519W        W39055  23.512   2.883  10.624
79520W        W39056  40.962  37.342  11.573
79521W        W39057  35.423  13.637   4.619
79522W        W39058   0.260  23.651  14.773
79523W        W39059  35.985  31.110   0.861
79524W        W39060  24.557   1.788  14.413
79525W        W39061  12.814  13.668   0.871
79526W        W39062  27.982  15.106   3.218
79527W        W39063  25.640  16.262  11.055
79528W        W39064  19.145  23.113  12.556
79529W        W39065  31.024   1.855  10.052
79530W        W39066  19.608  31.582   2.739
79531W        W39067  28.591  15.606   3.694
79532W        W39068  20.045  32.616  14.769
79533W        W39069  31.635  16.798   2.210
79534W        W39070  30.442  32.939  12.035
79535W        W39071  23.673  32.401   2.693
79536W        W39072  12.665  23.136   1.315
79537W        W39073  21.174  40.315  11.988
79538W        W39074  10.384  37.456  11.006
79539W        W39075   7.411  27.487   0.318
79540W        W39076   0.374  44.992  13.002
79541W        W39077  23.531  28.058  12.463
79542W        W39078  10.162   4.397   1.361
79543W        W39079  19.115  21.724   2.861
79544W        W39080  44.871  27.060  10.442
79545W        W39081  13.616  35.526   0.302
79546W        W39082  17.743  18.662   1.800
79547W        W39083   8.847  17.303  11.427
79548W        W39084   0.876  23.229   5.120
79549W        W39085   4.208  39.416   3.680
79550W        W39086  21.241  37.023  13.816
79551W        W39087   2.754  34.414   3.629
79552W        W39088  12.724  25.036  13.795
79553W        W39089  33.912  22.205  14.769
79554W        W39090  10.170  22.702   1.751
79555W        W39091  35.007  41.330  13.922
79556W        W39092  36.091  43.471  14.424
79557W        W39093  11.344  25.184   1.797
79558W        W39094   2.828  37.442  11.887
79559W        W39095  15.166   9.818   4.777
79560W        W39096  29.665   9.830  11.966
79561W        W39097  16.811  28.975   0.381
79562W        W39098  26.611  24.544  10.607
79563W        W39099  28.137  32.632   3.739
79564W        W39100  24.547   8.695   5.155
79565W        W39101   7.767  16.294  11.532
79566W        W39102  17.190   3.930   1.372
79567W        W39103  40.485   3.730  12.060
79568W        W39104   9.258  39.970   1.864
79569W        W39105   1.971  27.483  12.485
79570W        W39106  30.140   0.437   4.736
79571W        W39107  22.062  33.972  10.612
79572W        W39108  38.912  39.956  11.983
79573W        W39109  13.252  25.070   3.222
79574W        W39110  36.848  41.311  12.957
79575W        W39111  30.644   9.162   2.286
79576W        W39112  13.148  30.571  10.078
79577W        W39113  14.183  13.630  13.841
79578W        W39114  32.034  36.520   3.784
79579W        W39115  14.671  36.005  11.012
79580W        W39116  32.962  26.619  12.497
79581W        W39117  42.934  20.225  14.813
79582W        W39118  32.439  41.971   2.902
79583W        W39119  39.386  20.187  13.518
79584W        W39120  29.931   3.787   3.836
79585W        W39121  41.366  44.921   4.235
79586W        W39122  40.542  35.937  14.959
79587W        W39123  40.857  26.623   2.254
79588W        W39124  23.671  42.021  12.010
79589W        W39125  24.050  43.885  13.880
79590W        W39126  29.006   2.434  11.981
79591W        W39127   8.807  33.894  13.538
79592W        W39128  27.453  36.842  13.012
79593W        W39129   3.716  30.611   3.652
79594W        W39130  35.050   7.264  13.523
79595W        W39131   2.878  42.899   3.842
79596W        W39132  29.105  10.660   1.726
79597W        W39133  13.131  26.702   4.625
79598W        W39134  33.453  27.529  12.027
79599W        W39135  44.759  23.206   3.747
79600W        W39136  21.020  20.695  13.510
79601W        W39137  31.528  24.010  13.397
79602W        W39138  27.542   5.775   0.961
79603W        W39139  11.235  34.461   0.405
79604W        W39140  20.041   8.748   4.834
79605W        W39141  24.717  34.585  12.469
79606W        W39142  11.625  15.615   1.694
79607W        W39143  39.907  18.574  13.863
79608W        W39144  13.845  27.668   1.750
79609W        W39145  38.063   2.928  14.950
79610W        W39146   5.811  43.993  11.962
79611W        W39147  15.676  40.468  14.342
79612W        W39148  23.701  18.065  11.999
79613W        W39149  14.117  31.069  13.808
79614W        W39150  38.524  28.065  14.888
79615W        W39151  37.987  23.656  13.376
79616W        W39152  11.691  10.268   2.684
79617W        W39153  24.604  16.317  12.422
79618W        W39154  34.395  31.463  14.919
79619W        W39155  16.239   8.304  12.012
79620W        W39156  23.716  11.751   0.304
79621W        W39157  19.737  27.122  13.024
79622W        W39158  26.475  41.492  12.079
79623W        W39159   8.724  12.637  14.453
79624W        W39160  14.782  36.432  10.945
79625W        W39161  36.507  17.155   1.756
79626W        W39162  10.258  14.270  13.367
79627W        W39163  19.180  30.162   3.692
79628W        W39164  11.864  16.741  10.474
79629W        W39165  10.769   4.856   4.810
79630W        W39166   8.775  27.545   3.381
79631W        W39167  11.627  26.466   5.683
79632W        W39168  34.974  16.258  14.307
79633W        W39169  12.832  19.121   0.937
79634W        W39170  34.066  34.570  10.449
79635W        W39171   4.370   5.751  11.869
79636W        W39172   9.662  15.629  14.013
79637W        W39173  35.037  27.665  13.050
79638W        W39174   9.645  40.321  13.018
79639W        W39175  17.262  30.929  13.039
79640W        W39176  30.538  16.155   3.849
79641W        W39177   1.779   4.305   2.370
79642W        W39178   1.426  14.196  14.354
79643W        W39179   8.245  22.636  12.928
79644W        W39180  34.969  24.628  12.903
79645W        W39181  36.964   6.900  14.279
79646W        W39182  22.566  17.608   0.900
79647W        W39183  43.297   3.912   0.905
79648W        W39184  43.869  34.084  11.507
79649W        W39185   4.234  18.698   3.208
79650W        W39186  30.151  16.642   0.368
79651W        W39187   3.873  37.843  10.531
79652W        W39188  24.569  39.446   1.410
79653W        W39189  34.971  26.083   3.298
79654W        W39190  15.658  14.206   3.326
79655W        W39191  12.768   4.712  14.362
79656W        W39192   0.490   6.422   4.725
79657W        W39193  29.103   8.239   1.864
79658W        W39194   6.921  17.148   1.741
79659W        W39195  23.109  17.112   4.606
79660W        W39196  33.405  24.529   4.659
79661W        W39197  14.783   5.829  13.446
79662W        W39198  41.398  23.180   1.900
79663W        W39199  18.688  35.581  13.889
79664W        W39200   7.337   1.823  10.538
79665W        W39201  28.041  31.092  10.445
79666W        W39202  20.572  17.240   3.775
79667W        W39203  13.755  35.989   4.130
79668W        W39204  29.463  16.319   0.827
79669W        W39205  14.340  18.715  14.859
79670W        W39206  18.655  33.524  14.002
79671W        W39207  22.651  29.596   4.793
79672W        W39208  20.212  41.328  10.617
79673W        W39209  42.897  14.642  14.890
79674W        W39210  33.410  41.455  11.025
79675W        W39211   3.447  35.057  12.921
79676W        W39212  23.570  38.350  13.885
79677W        W39213   8.755  28.440   1.733
79678W        W39214   3.851  41.416  11.543
79679W        W39215   2.260   8.794  10.066
79680W        W39216  25.569  20.743  11.605
79681W        W39217  23.197  39.036  13.046
79682W        W39218  31.447   9.875   4.203
79683W        W39219  43.463  13.346  13.340
79684W        W39220   3.746  21.180  10.133
79685W        W39221  18.586  32.039  13.009
79686W        W39222  24.202  26.610  11.978
79687W        W39223   4.832   5.861   4.152
79688W        W39224  18.556  38.483  13.892
79689W        W39225   5.340   8.786   3.349
79690W        W39226  26.152  40.425   3.174
79691W        W39227  36.958  12.189   3.221
79692W        W39228  15.192  23.699  12.898
79693W        W39229  43.000  34.064   4.298
79694W        W39230  43.489  43.329   0.351
79695W        W39231  36.081  14.707  12.410
79696W        W39232  39.442  29.444  14.015
79697W        W39233  24.697  15.778  12.999
79698W        W39234  20.742  38.344  14.882
79699W        W39235  17.768  26.631  13.540
79700W        W39236  17.257  29.149  11.560
79701W        W39237  26.587  31.569  12.900
79702W        W39238  12.323   2.777   4.728
79703W        W39239  16.290  10.714  12.917
79704W        W39240  43.845  15.269   9.935
79705W        W39241   5.774  38.031  13.010
79706W        W39242   7.215  40.488   1.856
79707W        W39243  33.943  32.020   1.917
79708W        W39244   6.230  38.909   4.784
79709W        W39245  34.447   2.413  14.921
79710W        W39246  37.486  34.069  12.537
79711W        W39247   4.234   2.327  13.881
79712W        W39248  29.057  10.149   9.932
79713W        W39249  11.342  24.032   4.140
79714W        W39250   9.747  14.332   4.244
79715W        W39251  14.764   4.907  12.967
79716W        W39252  10.860   2.867  11.070
79717W        W39253   3.949  19.716  10.587
79718W        W39254  28.151  37.340   2.774
79719W        W39255  11.728  33.128  13.504
79720W        W39256   8.881  23.986   3.257
79721W        W39257  14.096  25.188  10.973
79722W        W39258  25.543   1.346   3.858
79723W        W39259  34.435  32.924   2.675
79724W        W39260   1.429  25.995  11.981
79725W        W39261  43.417  34.102  10.972
79726W        W39262  34.926  32.604   4.671
79727W        W39263   1.300  42.830  14.359
79728W        W39264  14.161  25.028  12.036
79729W        W39265  44.978  22.208  13.307
79730W        W39266  23.730  23.647  10.543
79731W        W39267  33.127   5.317  11.433
79732W        W39268  41.319  41.416   3.354
79733W        W39269   3.282  18.778  13.989
79734W        W39270  21.152  21.190  12.392
79735W        W39271  22.698  33.088   4.762
79736W        W39272  37.556  27.997   5.147
79737W        W39273  37.867  38.824  10.457
79738W        W39274  40.858  43.779   3.185
79739W        W39275   6.351  24.165  13.374
79740W        W39276  38.963  42.326  11.381
79741W        W39277   0.365  24.532   3.766
79742W        W39278  23.180  41.901   4.648
79743W        W39279  16.234  33.037  11.400
79744W        W39280  13.816  17.189  11.895
79745W        W39281  32.097   6.416   0.928
79746W        W39282   5.822  20.692   4.605
79747W        W39283  26.578   5.316  11.915
79748W        W39284  25.571  43.364   0.819
79749W        W39285  40.026  33.519   4.794
79750W        W39286  19.576  12.287   0.438
79751W        W39287  20.597   4.419   9.981
79752W        W39288  23.043  25.485  14.802
79753W        W39289   5.244  43.291   1.414
79754W        W39290   6.782  34.499  10.987
79755W        W39291  39.921  15.724   1.793
79756W        W39292  41.895  34.892   1.709
79757W        W39293  22.709  33.084   3.325
79758W        W39294  14.249   5.720   2.350
79759W        W39295   0.841   8.787  13.854
79760W        W39296  40.023  34.046  13.540
79761W        W39297  44.367  41.492   5.319
79762W        W39298   5.784  17.090  14.822
79763W        W39299  23.088  14.299  12.825
79764W        W39300  15.666  15.784   2.707
79765W        W39301   8.174  25.024   1.432
79766W        W39302  30.910  29.062  12.021
79767W        W39303  18.141  30.919  13.442
79768W        W39304  44.938  44.335  12.066
79769W        W39305   4.216   6.818  11.104
79770W        W39306  12.152   6.230  13.512
79771W        W39307  16.227  27.452  11.565
79772W        W39308  38.992  13.674   3.349
79773W        W39309   7.701   0.455  11.001
79774W        W39310  29.061  10.641  11.924
79775W        W39311  11.305   1.330  14.806
79776W        W39312  10.797  10.182  11.424
79777W        W39313  40.839  19.629   4.621
79778W        W39314  41.024  20.598   2.198
79779W        W39315  27.616  15.128  14.869
79780W        W39316  42.353  22.158  14.431
79781W        W39317  44.768  41.904   1.723
79782W        W39318  22.510  10.379   1.888
79783W        W39319  29.140  21.717  10.405
79784W        W39320  38.507  28.596  11.109
79785W        W39321  17.762  35.437  14.855
79786W        W39322  35.891  35.989   0.915
79787W        W39323  29.485  42.527  12.865
79788W        W39324   1.887  14.315   3.271
79789W        W39325  23.525   6.873   1.350
79790W        W39326  34.458  30.967  13.938
79791W        W39327  20.224  16.702  11.989
79792W        W39328  19.776  36.445   0.776
79793W        W39329  16.788   2.842   2.756
79794W        W39330  29.148   9.307  10.957
79795W        W39331  34.405   0.842  10.571
79796W        W39332  13.698  21.087   1.278
79797W        W39333  23.106  43.822  11.469
79798W        W39334  24.186   7.260   3.162
79799W        W39335  10.252  11.328  12.377
79800W        W39336  17.673  39.052   3.231
79801W        W39337  30.034  16.084   3.867
79802W        W39338  26.064  15.759   0.881
79803W        W39339  30.042  35.380  10.952
79804W        W39340  24.216  32.901  11.998
79805W        W39341  19.276  35.082  11.865
79806W        W39342  26.034  31.402  13.390
79807W        W39343  41.487  39.060   1.227
79808W        W39344  13.240  42.524  14.775
79809W        W39345  37.554  36.044  14.469
79810W        W39346  20.264  11.136  12.854
79811W        W39347  37.401  33.478   2.772
79812W        W39348   0.868  39.919   1.255
79813W        W39349  21.245  18.692   5.166
79814W        W39350  41.968   7.713  11.447
79815W        W39351  12.838  40.842   3.753
79816W        W39352  43.005  28.956   3.244
79817W        W39353   1.356   6.233  11.986
79818W        W39354  14.306  19.111  14.783
79819W        W39355  31.988  36.037   0.365
79820W        W39356  27.062   3.761  11.996
79821W        W39357  12.853  33.545   1.910
79822W        W39358  29.038  41.408   3.732
79823W        W39359  33.122  34.038  11.969
79824W        W39360  35.936  21.704  13.320
79825W        W39361  40.402  15.121   0.727
79826W        W39362   4.208  38.857   0.805
79827W        W39363  20.061  11.183   4.645
79828W        W39364  33.472  16.633  11.492
79829W        W39365  42.935  43.824  11.411
79830W        W39366  28.125  11.834   1.931
79831W        W39367  16.102   7.875  12.516
79832W        W39368  10.659  32.521   3.709
79833W        W39369  42.301   6.196   4.239
79834W        W39370   8.718  39.925  10.643
79835W        W39371  37.958  23.572   4.263
79836W        W39372  20.766  31.053   4.639
79837W        W39373  23.730  23.076   2.835
79838W        W39374  17.622   9.319  13.478
79839W        W39375  27.951   1.242   4.719
79840W        W39376   5.297  14.669  11.395
79841W        W39377  33.533  14.764   3.749
79842W        W39378  13.240  16.587   1.237
79843W        W39379  13.602  43.376  11.080
79844W        W39380  29.985  37.958  14.917
79845W        W39381  21.213  36.470  13.857
79846W        W39382   0.356  32.998  13.882
79847W        W39383  12.287  23.507   0.463
79848W        W39384   8.811  34.487   3.295
79849W        W39385   4.732  25.628   0.406
79850W        W39386   4.909  34.111   3.809
79851W        W39387  36.841  24.661   1.331
79852W        W39388  25.985  21.606   0.966
79853W        W39389  36.452  21.059  10.500
79854W        W39390  30.945  33.577  10.131
79855W        W39391  44.891  20.556  13.491
79856W        W39392  38.387  38.521   2.874
79857W        W39393  37.438  26.477  14.953
79858W        W39394  38.487  24.149  14.914
79859W        W39395  40.797   8.851  10.425
79860W        W39396  25.680   0.265   0.422
79861W        W39397  35.021  27.622   0.759
79862W        W39398  25.585  29.481   4.733
79863W        W39399  10.662  27.688   1.409
79864W        W39400   4.220  15.743  13.453
79865W        W39401  19.725  35.932  13.013
79866W        W39402  44.938  41.356   2.264
79867W        W39403  14.729   9.380   0.379
79868W        W39404  33.005  34.918   4.736
79869W        W39405  33.391  37.007  13.871
79870W        W39406   1.874  35.978  13.321
79871W        W39407  21.223  39.862  12.861
79872W        W39408  39.868  14.144   4.117
79873W        W39409  13.801  16.772   2.825
79874W        W39410   6.793  40.363   2.672
79875W        W39411  31.517  22.711  13.927
79876W        W39412  34.024   8.271  11.539
79877W        W39413  14.650  20.084   4.597
79878W        W39414  38.929  36.077  12.977
79879W        W39415  31.070  39.825  13.460
79880W        W39416  30.015  39.343   2.335
79881W        W39417  16.251  24.996   0.825
79882W        W39418  32.016  16.582   1.366
79883W        W39419  43.389  13.167   1.288
79884W        W39420  15.241  39.984  12.546
79885W        W39421  43.895  14.220   0.884
79886W        W39422   2.316   7.863  12.474
79887W        W39423  36.490   1.941  14.504
79888W        W39424  40.985  31.579   0.903
79889W        W39425  21.121  18.235   5.307
79890W        W39426   4.332   6.366   4.224
79891W        W39427   2.375  38.446   1.342
79892W        W39428   7.773  12.692   2.408
79893W        W39429  31.601   3.280   0.319
79894W        W39430  12.749   5.359   2.260
79895W        W39431  31.645   7.178  11.476
79896W        W39432   3.882  16.283   0.931
79897W        W39433  29.520  18.714   4.136
79898W        W39434  36.554  15.694  14.790
79899W        W39435  16.810  38.857  11.537
79900W        W39436  41.412   4.817   1.883
79901W        W39437   5.765  37.455   4.769
79902W        W39438   1.429  18.738   2.220
79903W        W39439  23.585  12.202   4.604
79904W        W39440  15.787  14.101  10.054
79905W        W39441  36.545  32.428  12.505
79906W        W39442   7.257  21.034   2.694
79907W        W39443  22.112  20.261   2.782
79908W        W39444  31.983  38.900  11.963
79909W        W39445  29.058  20.260   1.848
79910W        W39446  10.750   1.938   4.627
79911W        W39447  26.483  42.295  12.063
79912W        W39448  21.603  36.480   5.672
79913W        W39449  34.052  25.181  13.466
79914W        W39450   9.388  39.549   1.884
79915W        W39451  13.692  28.099  13.471
79916W        W39452   2.798   8.856   1.269
79917W        W39453  40.014  22.728   0.384
79918W        W39454  39.554  39.027   1.255
79919W        W39455   5.812  16.274   1.356
79920W        W39456  32.553   0.958   1.360
79921W        W39457  44.505  19.107   1.373
79922W        W39458  12.614  44.396   3.732
79923W        W39459  30.633  19.166   0.781
79924W        W39460  30.036  38.873   4.690
79925W        W39461  14.283   2.755  12.556
79926W        W39462   4.379  43.478   4.702
79927W        W39463  28.466  38.876   1.781
79928W        W39464  34.890  31.579  12.394
79929W        W39465  36.566  42.916  11.034
79930W        W39466   0.927  42.007  12.846
79931W        W39467  27.684   5.895  12.346
79932W        W39468   6.843   4.412   4.288
79933W        W39469  14.270   2.281   3.206
79934W        W39470   2.310  21.557   3.171
79935W        W39471  13.600  31.439  13.525
79936W        W39472   5.736  27.088   9.557
79937W        W39473  34.993   6.248   1.400
79938W        W39474  27.681  44.954   2.272
79939W        W39475  21.235  12.149  11.389
79940W        W39476   3.735  32.142  13.370
79941W        W39477  11.327  34.441  11.397
79942W        W39478  23.101  19.652   3.237
79943W        W39479  31.477  37.920   0.926
79944W        W39480   2.266  39.467  13.515
79945W        W39481  16.702  16.618  10.559
79946W        W39482  23.231  16.165   0.916
79947W        W39483  31.944   7.413  12.561
79948W        W39484  18.172   2.793  11.591
79949W        W39485   4.415   4.253  13.869
79950W        W39486   7.362  42.919  12.508
79951W        W39487  37.953  14.106  10.527
79952W        W39488   9.167  11.803  10.549
79953W        W39489  15.232  10.861   2.764
79954W        W39490   5.432  20.245  14.823
79955W        W39491  21.257  19.711  12.006
79956W        W39492  12.645   4.926   0.954
79957W        W39493  39.856   9.220  11.078
79958W        W39494   9.160  25.576   5.087
79959W        W39495   0.963   5.731   0.292
79960W        W39496  44.475  42.973   5.162
79961W        W39497  13.796  35.934   0.942
79962W        W39498  34.481  12.782  13.963
79963W        W39499  34.057   2.391   2.282
79964W        W39500   2.424   1.837  13.002
79965W        W39501  22.249   5.374   2.865
79966W        W39502  11.741  15.653   9.998
79967W        W39503  17.780  24.106   3.234
79968W        W39504  17.781  43.515   4.699
79969W        W39505  23.233  30.106  12.392
79970W        W39506   7.902  15.697   5.270
79971W        W39507  44.447  12.703   0.309
79972W        W39508   2.722   1.895  14.483
79973W        W39509  27.622   2.420   1.711
79974W        W39510  38.982  14.206   3.158
79975W        W39511   4.832  10.788  13.841
79976W        W39512  39.529  14.731   4.658
79977W        W39513  12.130  14.709  12.070
79978W        W39514   8.693  31.992  12.434
79979W        W39515  36.363  35.096   3.306
79980W        W39516   4.286  14.782   0.483
79981W        W39517  40.832   7.348  10.596
79982W        W39518   7.185  39.505   0.386
79983W        W39519  37.392  26.964   3.805
79984W        W39520  32.408   9.256  10.549
79985W        W39521  18.563  43.902   4.668
79986W        W39522  21.567  37.084   0.958
79987W        W39523  42.826  12.330   3.809
79988W        W39524   7.757  40.356  11.595
79989W        W39525  30.608  16.713  12.944
79990W        W39526  38.955  15.732  11.535
79991W        W39527  37.410  21.546  14.510
79992W        W39528   8.176  21.114  14.928
79993W        W39529  37.895  38.333   3.192
79994W        W39530  16.080   3.749  10.932
79995W        W39531  21.233  37.358  14.871
79996W        W39532  26.951  24.511  10.412
79997W        W39533  18.240  27.174  13.950
79998W        W39534  19.221  36.463  11.490
79999W        W39535  25.185  35.924   3.693
80000W        W39536   6.865  27.643  13.039
80001W        W39537  21.086  22.654   3.765
80002W        W39538  40.050  41.391   0.850
80003W        W39539  29.012   5.721   4.660
80004W        W39540  32.041  31.613  12.350
80005W        W39541  32.071  10.318   4.259
80006W        W39542  22.097   2.799  11.888
80007W        W39543  34.872  36.541  14.973
80008W        W39544  22.527  29.065  14.417
80009W        W39545  39.817  40.459   2.810
80010W        W39546   7.231  41.897  14.978
80011W        W39547   3.367   3.339   3.862
80012W        W39548  43.984  27.634  11.514
80013W        W39549  17.726   3.453  14.295
80014W        W39550  34.101  30.042  14.394
80015W        W39551  42.939  11.642   2.309
80016W        W39552  22.135  14.600   1.885
80017W        W39553  24.663   5.770  12.844
80018W        W39554  26.072   1.923  11.082
80019W        W39555  43.997  12.689  11.560
80020W        W39556   7.190  20.764  12.507
80021W        W39557  37.559  33.482  11.573
80022W        W39558  43.451  14.123   3.327
80023W        W39559   6.400  28.509   4.193
80024W        W39560  34.120  40.319   4.207
80025W        W39561  43.304  15.753  11.068
80026W        W39562  42.284  21.671  11.528
80027W        W39563  16.146   3.877   1.868
80028W        W39564   8.265  44.263  12.343
80029W        W39565  42.904  17.205  11.941
80030W        W39566  30.013  25.104   0.470
80031W        W39567  31.924  10.834  10.464
80032W        W39568  21.052  40.966   0.404
80033W        W39569  18.178  41.805   3.184
80034W        W39570  31.488  38.057  14.859
80035W        W39571  13.246  17.139   5.181
80036W        W39572  30.511   2.782  14.875
80037W        W39573   0.396  38.388   1.246
80038W        W39574  32.095  26.673  11.403
80039W        W39575  38.384  21.631  10.931
80040W        W39576  21.155   1.260  14.975
80041W        W39577   6.256  42.852  11.118
80042W        W39578   0.350   1.302  14.353
80043W        W39579  20.601   7.835   4.760
80044W        W39580  41.435  27.532   2.213
80045W        W39581  11.359  24.974   3.772
80046W        W39582  17.792  15.258  12.376
80047W        W39583  33.880   9.268  13.456
80048W        W39584   5.741  25.564  12.470
80049W        W39585  30.042  44.998   3.156
80050W        W39586  17.710  38.892   3.858
80051W        W39587  19.153  35.398  11.388
80052W        W39588   1.885  40.346   0.924
80053W        W39589  30.603  15.286  14.491
80054W        W39590  22.160  13.132   3.200
80055W        W39591   4.916  17.200  12.047
80056W        W39592  35.006  23.054   1.445
80057W        W39593   7.721  40.428   5.220
80058W        W39594   8.835  29.569  13.929
80059W        W39595  25.523  23.659   0.451
80060W        W39596  44.799   3.929  11.890
80061W        W39597  23.688  36.352   1.735
80062W        W39598   0.817  20.090  14.986
80063W        W39599  21.561  13.338  13.865
80064W        W39600  31.906  43.400   4.766
80065W        W39601  24.636  42.798  14.998
80066W        W39602  29.162   8.812   3.843
80067W        W39603  12.188  38.529   4.662
80068W        W39604  38.929  16.669  10.013
80069W        W39605  36.965  21.155   3.292
80070W        W39606  28.481   7.822   4.232
80071W        W39607  19.556  37.930   2.227
80072W        W39608   9.647  27.560  13.014
80073W        W39609  22.131  35.396   0.940
80074W        W39610  38.913  16.217  12.504
80075W        W39611  28.104  36.534   3.263
80076W        W39612  19.075   9.827   2.224
80077W        W39613  34.569   4.395  14.489
80078W        W39614  30.991  37.965  12.022
80079W        W39615  19.599   2.875  14.367
80080W        W39616  33.519   7.281  14.997
80081W        W39617   7.829  14.703   4.260
80082W        W39618  35.385  42.951   2.245
80083W        W39619  13.637  32.448  11.043
80084W        W39620  39.902  38.496   0.422
80085W        W39621  16.084  44.291  11.388
80086W        W39622  11.209  20.221   0.929
80087W        W39623  44.502  20.123   2.340
80088W        W39624  20.548  31.618  12.522
80089W        W39625  29.032   8.702   2.346
80090W        W39626  11.243  23.023   2.838
80091W        W39627  29.124  37.361   9.939
80092W        W39628  21.049  30.977   0.284
80093W        W39629  26.021   1.402   1.932
80094W        W39630   0.267  32.979  13.057
80095W        W39631  39.066   0.773  12.409
80096W        W39632  36.964  40.363   4.743
80097W        W39633  43.415   6.410  12.836
80098W        W39634  39.938  10.361  11.556
80099W        W39635   7.801  35.423   3.337
80100W        W39636  31.037  33.983   0.806
80101W        W39637   0.269  19.637   1.264
80102W        W39638   9.656  42.851   2.191
80103W        W39639   3.425  41.799   2.356
80104W        W39640   3.435  17.608  10.428
80105W        W39641  27.480  17.674  10.609
80106W        W39642  34.883  43.886  14.959
80107W        W39643  33.438  37.875   1.768
80108W        W39644   0.442  15.161   2.874
80109W        W39645  10.764  43.468   4.245
80110W        W39646  21.227  21.560  12.913
80111W        W39647  29.501  23.703   1.756
80112W        W39648  37.879  35.861   4.687
80113W        W39649   0.953  35.514   1.438
80114W        W39650   6.905  41.418  13.847
80115W        W39651  31.070  32.087  11.526
80116W        W39652  16.143  38.894  13.791
80117W        W39653  19.067  41.371   2.289
80118W        W39654  38.477   6.696   0.288
80119W        W39655  41.031   1.378   3.760
80120W        W39656  32.490   9.811  11.021
80121W        W39657   4.441   2.424   2.853
80122W        W39658  38.547   9.661  11.934
80123W        W39659  11.802  30.557  10.888
80124W        W39660   1.274   6.342   0.844
80125W        W39661  42.465  23.164   4.286
80126W        W39662  26.577  29.637  12.506
80127W        W39663  37.964  25.091  13.321
80128W        W39664   3.348  13.725  11.556
80129W        W39665  30.155   6.355   1.914
80130W        W39666  17.229  29.980   1.255
80131W        W39667   1.949  41.478  14.381
80132W        W39668  19.153  12.252  13.513
80133W        W39669  29.017  35.063   2.304
80134W        W39670  43.296  17.226   3.179
80135W        W39671  41.932  21.036  10.970
80136W        W39672  36.464  37.838  11.575
80137W        W39673  23.519  22.160   0.958
80138W        W39674  15.764  14.283   0.414
80139W        W39675  13.623  25.063  13.952
80140W        W39676   6.679   7.747  10.563
80141W        W39677   1.269  18.230   1.396
80142W        W39678  20.039  37.014  14.435
80143W        W39679  17.786  30.938  10.948
80144W        W39680   4.402  32.060  10.420
80145W        W39681  29.529  23.191   3.302
80146W        W39682   3.734  38.012   3.173
80147W        W39683   3.262  26.098  13.793
80148W        W39684  31.619   8.716  14.331
80149W        W39685  26.108  27.069   0.759
80150W        W39686  13.137  14.185   2.226
80151W        W39687  19.757  41.871  10.607
80152W        W39688   8.873  18.077  11.007
80153W        W39689   6.731  17.683  14.948
80154W        W39690  19.101  17.128   4.737
80155W        W39691  29.439  21.178   5.192
80156W        W39692  32.041  35.962   9.983
80157W        W39693  41.961  15.821   1.789
80158W        W39694   3.295   1.750   0.754
80159W        W39695   5.232  14.728  10.518
80160W        W39696  24.986  42.803  14.865
80161W        W39697   0.925  39.546  11.563
80162W        W39698   7.859  41.326  14.855
80163W        W39699  34.446   0.921   4.189
80164W        W39700  17.794   1.478  14.469
80165W        W39701  22.513  42.910  12.427
80166W        W39702   2.881  32.424   2.274
80167W        W39703  11.150   2.326  12.506
80168W        W39704  26.543  35.029   3.674
80169W        W39705  18.784   0.887  11.080
80170W        W39706   3.406   2.936   4.767
80171W        W39707  28.069  15.596   0.451
80172W        W39708  18.252  13.623   2.289
80173W        W39709  25.672  19.257   0.951
80174W        W39710  33.423  29.160  14.370
80175W        W39711  38.971  12.293   3.753
80176W        W39712  28.449   5.858   3.856
80177W        W39713   8.765  28.520   4.160
80178W        W39714  35.425  40.874   4.148
80179W        W39715   2.389   9.741   2.210
80180W        W39716  17.756  10.637   1.825
80181W        W39717  41.325  44.336  13.050
80182W        W39718   4.214  28.940   1.759
80183W        W39719  14.197   7.732   1.294
80184W        W39720   0.385  43.456  12.470
80185W        W39721  32.094  26.157   3.352
80186W        W39722  16.255  40.045  14.899
80187W        W39723  20.557  35.379   3.281
80188W        W39724   6.391  24.223   2.841
80189W        W39725   6.355  18.065   3.807
80190W        W39726  23.239  19.264   0.854
80191W        W39727   4.439  10.207   2.723
80192W        W39728   3.327  26.067   2.817
80193W        W39729  18.688  16.703  13.375
80194W        W39730  37.891  11.682  10.083
80195W        W39731  32.570  37.065   4.644
80196W        W39732   2.447  29.471  10.429
80197W        W39733  42.882  44.301  11.435
80198W        W39734  11.267  24.084  14.918
80199W        W39735  21.647  17.254  14.896
80200W        W39736  32.391  31.541  12.472
80201W        W39737  40.850  17.263   3.210
80202W        W39738  14.798  38.038  13.339
80203W        W39739   8.832  36.398   3.282
80204W        W39740  35.878  14.628   4.650
80205W        W39741   8.308  23.662   3.686
80206W        W39742  31.457  18.126  11.514
80207W        W39743   6.812  19.646  12.026
80208W        W39744   0.468  31.000  11.473
80209W        W39745  42.828  35.981  13.327
80210W        W39746  24.172  38.503   3.178
80211W        W39747   0.844  18.582   1.211
80212W        W39748  38.561  19.637  14.025
80213W        W39749   1.904  13.814  10.540
80214W        W39750  18.229  25.691   0.243
80215W        W39751  10.780  16.304  11.970
80216W        W39752  31.983  30.962   2.711
80217W        W39753  40.483   3.362   2.375
80218W        W39754  26.082  20.768  12.977
80219W        W39755  33.085  36.980  13.319
80220W        W39756   5.733  37.555  12.394
80221W        W39757   1.886   1.782  12.437
80222W        W39758   1.358  35.440  12.558
80223W        W39759  25.057  28.572   3.630
80224W        W39760  17.139  40.948  13.933
80225W        W39761  14.817  12.679   1.445
80226W        W39762  41.978  37.512   5.281
80227W        W39763  28.546  17.558   5.616
80228W        W39764  13.197  40.541  13.824
80229W        W39765  23.657  30.433  13.951
80230W        W39766   2.728   6.320   2.390
80231W        W39767  20.548  36.087   5.320
80232W        W39768  10.738  32.462  12.494
80233W        W39769  30.489   3.320   1.285
80234W        W39770  18.217  19.740   1.291
80235W        W39771  31.945   6.910  11.562
80236W        W39772  21.690   3.275   1.246
80237W        W39773   1.261   5.691  12.376
80238W        W39774  13.743  18.186   3.180
80239W        W39775  27.449   0.478  14.018
80240W        W39776  24.014  12.797  12.504
80241W        W39777   3.360  24.612  10.458
80242W        W39778  23.240   3.901   2.807
80243W        W39779   5.873  36.854  11.994
80244W        W39780  24.680  12.178   3.223
80245W        W39781  42.462   8.261   2.271
80246W        W39782  21.129  26.075   3.756
80247W        W39783   3.897  10.252   2.357
80248W        W39784  30.612  22.626   5.225
80249W        W39785  23.552  41.338  10.439
80250W        W39786  37.919  18.754   4.221
80251W        W39787  44.956   7.325  11.573
80252W        W39788  18.557  12.628   0.799
80253W        W39789  37.406   0.935   3.359
80254W        W39790  28.497  14.175   2.706
80255W        W39791   6.747   1.314  14.320
80256W        W39792  32.499  23.240  10.116
80257W        W39793  30.008  16.157   0.827
80258W        W39794   9.771  13.624  12.370
80259W        W39795  19.702   6.835   3.712
80260W        W39796  35.001  30.940   4.187
80261W        W39797  18.627  40.799  14.293
80262W        W39798  16.246  31.645   2.232
80263W        W39799  12.232  26.690   9.528
80264W        W39800   3.299  11.622  12.014
80265W        W39801   8.744   8.823   5.746
80266W        W39802   9.850   2.237   4.285
80267W        W39803  26.504  34.580  11.115
80268W        W39804   2.722   2.741   1.402
80269W        W39805  41.980   0.964  10.009
80270W        W39806  17.641  29.958   4.251
80271W        W39807  22.011   4.836  11.960
80272W        W39808  24.142  29.152  12.488
80273W        W39809  19.647   9.277  12.525
80274W        W39810  35.076  27.129  11.937
80275W        W39811  29.059  43.880   4.760
80276W        W39812  12.119   7.290  14.994
80277W        W39813   3.221  44.839   2.694
80278W        W39814  32.911  22.134   1.813
80279W        W39815  20.690  42.333   0.942
80280W        W39816  37.934  18.171  11.058
80281W        W39817  40.974  25.118  10.634
80282W        W39818  13.327  41.311  13.888
80283W        W39819  22.234  26.565   0.441
80284W        W39820  37.578  33.468  12.972
80285W        W39821   8.204  24.626   2.681
80286W        W39822  28.133  28.098  14.289
80287W        W39823   9.153  19.730   0.746
80288W        W39824  16.269  15.733  10.935
80289W        W39825  20.193  14.195  13.457
80290W        W39826  31.129  37.562   4.833
80291W        W39827  41.933  43.875  12.065
80292W        W39828   0.262   4.906   1.703
80293W        W39829  21.697  20.234  10.085
80294W        W39830  19.738  33.586   3.744
80295W        W39831  31.007  12.250  12.869
80296W        W39832   6.773  31.050   4.118
80297W        W39833  31.115  17.270  12.529
80298W        W39834   0.439  14.612  13.356
80299W        W39835  14.265  10.148  14.004
80300W        W39836  16.617  34.525   2.191
80301W        W39837  40.877  28.067  14.947
80302W        W39838  42.894  17.175   1.274
80303W        W39839   2.284  22.198  14.303
80304W        W39840  15.781  15.198  13.949
80305W        W39841  38.455  27.681   2.218
80306W        W39842  33.565  11.782  14.951
80307W        W39843  43.434  18.677  14.491
80308W        W39844  20.107  40.963   1.252
80309W        W39845  23.566  30.427   4.230
80310W        W39846  41.465  32.913   2.212
80311W        W39847  42.929  31.899   2.361
80312W        W39848   6.743   5.347  11.910
80313W        W39849  37.473   4.230   0.875
80314W        W39850  26.036  21.599   4.289
80315W        W39851  20.074  27.181  14.949
80316W        W39852  44.785   7.234   4.607
80317W        W39853  32.409  41.806  13.386
80318W        W39854  21.197  35.362  10.904
80319W        W39855  12.320  34.080  14.889
80320W        W39856   1.467   9.379   1.809
80321W        W39857  27.072  31.625  13.500
80322W        W39858  17.565   1.865  11.470
80323W        W39859   9.169  34.093   3.164
80324W        W39860  24.650  38.355   5.573
80325W        W39861   0.793  42.031  13.928
80326W        W39862  43.806  10.741  12.058
80327W        W39863   9.256  32.134   0.835
80328W        W39864  22.011  23.194  11.001
80329W        W39865  10.360  20.561  14.781
80330W        W39866  41.813  36.000   3.828
80331W        W39867  42.916  35.439  12.475
80332W        W39868   0.342  12.362  11.971
80333W        W39869  24.999  31.621  11.023
80334W        W39870  36.506  21.607  13.371
80335W        W39871  34.064  37.362  14.335
80336W        W39872  41.859  34.462   2.671
80337W        W39873   4.243  44.917   3.294
80338W        W39874  34.388  10.724   0.874
80339W        W39875  43.002  16.301  13.878
80340W        W39876  19.675  20.274   0.789
80341W        W39877  24.133  24.031  13.362
80342W        W39878  12.162  11.244  12.849
80343W        W39879   9.798  33.506   3.186
80344W        W39880   8.778  21.202  13.473
80345W        W39881  21.641  24.661   4.753
80346W        W39882  38.990  13.722   0.801
80347W        W39883  33.010   5.347   4.158
80348W        W39884  15.123  26.582   2.418
80349W        W39885  36.041  29.083  14.390
80350W        W39886  37.993   0.918   0.329
80351W        W39887  21.639  26.656   1.885
80352W        W39888  42.398  44.367   3.748
80353W        W39889  12.847  40.871   4.691
80354W        W39890  31.911  15.582   2.673
80355W        W39891  20.119  22.698  12.447
80356W        W39892  34.986  22.587  12.373
80357W        W39893  36.028  42.030  12.499
80358W        W39894  10.307   8.334  12.417
80359W        W39895  37.426  37.447   2.793
80360W        W39896  14.728  27.071  13.460
80361W        W39897  16.693  44.263  14.508
80362W        W39898  26.494  35.584   1.282
80363W        W39899  17.115  11.168   2.855
80364W        W39900   6.743  29.665   3.645
80365W        W39901  28.960  35.986  14.411
80366W        W39902  42.394  27.544  11.006
80367W        W39903  19.197   1.760   2.797
80368W        W39904  23.670   6.851   2.342
80369W        W39905   9.308  30.638  14.935
80370W        W39906   8.776   1.239  14.965
80371W        W39907  16.190  28.985  12.040
80372W        W39908   7.730   5.216  14.932
80373W        W39909   0.979   5.203   1.439
80374W        W39910  17.704  15.161   3.845
80375W        W39911  43.456  19.705   1.282
80376W        W39912  25.701  16.138  12.870
80377W        W39913  31.071  33.432   0.933
80378W        W39914  25.637   2.893  12.979
80379W        W39915   6.239  38.462  10.891
80380W        W39916  41.428  32.620   1.699
80381W        W39917   6.269   3.433  14.991
80382W        W39918  34.060  13.312   0.764
80383W        W39919   5.390  28.088  11.574
80384W        W39920  15.580  25.125  12.083
80385W        W39921  30.954  22.176   3.362
80386W        W39922  25.067  42.831  13.434
80387W        W39923  44.827  30.987  12.533
80388W        W39924  10.780  19.737  10.564
80389W        W39925  10.818   4.290  10.157
80390W        W39926  20.134  25.002   2.669
80391W        W39927  35.521  26.079   1.370
80392W        W39928  30.544   6.284  11.869
80393W        W39929   0.939  19.092  13.307
80394W        W39930   7.912  13.252   2.864
80395W        W39931  13.208  42.998  11.582
80396W        W39932   0.266  17.132  11.465
80397W        W39933  24.608  25.627   2.701
80398W        W39934  11.705  42.776  10.935
80399W        W39935  10.285   5.712   4.268
80400W        W39936  34.969   4.386  11.595
80401W        W39937  26.977  28.131   2.323
80402W        W39938  14.686  19.125  12.957
80403W        W39939  44.428  26.514  11.579
80404W        W39940   7.865  36.501   0.778
80405W        W39941   1.948  32.393  12.491
80406W        W39942  34.873  30.106   3.298
80407W        W39943  28.036  29.611   3.145
80408W        W39944  37.571  44.996  14.328
80409W        W39945  21.083  29.063   4.645
80410W        W39946  34.121  32.046   4.215
80411W        W39947  37.935  15.278   0.418
80412W        W39948   3.912   0.768  12.517
80413W        W39949  20.585  31.154   1.878
80414W        W39950  12.747  41.855  12.481
80415W        W39951  42.912  27.504  13.458
80416W        W39952  27.676   4.220  13.402
80417W        W39953  23.065  17.067   1.742
80418W        W39954   7.250  32.596  14.282
80419W        W39955  27.103  17.277   3.341
80420W        W39956  21.662  13.652   3.695
80421W        W39957  35.598  30.017   2.828
80422W        W39958  42.952  15.755  14.428
80423W        W39959  20.265  14.673   2.879
80424W        W39960  16.200  44.768  14.936
80425W        W39961  35.547  21.221   3.146
80426W        W39962  37.418  10.151   1.827
80427W        W39963  15.694  43.919  10.436
80428W        W39964  35.420   5.334   0.937
80429W        W39965  26.479  12.243   3.638
80430W        W39966  12.700  40.494  10.523
80431W        W39967  44.331   0.907   4.695
80432W        W39968  33.398  41.409   5.296
80433W        W39969  35.386  30.434   2.249
80434W        W39970   4.307  13.841  10.530
80435W        W39971   0.379  20.724  12.002
80436W        W39972  13.304  33.577   4.152
80437W        W39973   2.918   8.660   2.745
80438W        W39974  21.650  32.554   3.707
80439W        W39975  26.528  44.384   1.275
80440W        W39976  36.053   7.309  10.615
80441W        W39977   5.298  22.655  14.358
80442W        W39978  18.755  28.159   9.994
80443W        W39979   2.894   7.410  13.466
80444W        W39980  37.891  22.133   4.727
80445W        W39981  27.058  25.548  12.023
80446W        W39982  30.931  19.268  11.445
80447W        W39983   2.727  40.814  14.463
80448W        W39984   8.183   6.207  12.459
80449W        W39985   1.820  17.150   1.275
80450W        W39986  26.519   4.323  14.801
80451W        W39987   4.736  15.157   0.311
80452W        W39988   6.195  44.445   3.200
80453W        W39989  13.670   7.234   1.769
80454W        W39990  23.614  19.238   9.932
80455W        W39991  38.910  35.559  13.028
80456W        W39992  34.566  37.476   3.697
80457W        W39993  34.089  14.243  11.378
80458W        W39994   7.694   9.354  13.543
80459W        W39995  33.433   5.794  11.073
80460W        W39996   8.292  35.450   3.151
80461W        W39997   7.732   3.750  12.862
80462W        W39998  27.588  19.123  14.490
80463W        W39999  43.913  37.468   0.848
80464W        W40000  38.024  44.409   0.433
80465W        W40001  19.672  23.057  13.337
80466W        W40002  39.387   0.483   3.315
80467W        W40003  22.179  22.590  13.900
80468W        W40004  34.573   3.237   0.803
80469W        W40005  20.554  25.606  13.004
80470W        W40006  17.123  23.026  12.567
80471W        W40007  29.061   0.425  14.455
80472W        W40008  40.522   2.917  10.471
80473W        W40009   2.457  33.914  13.468
80474W        W40010  15.235  15.713   4.156
80475W        W40011  25.693  26.534  13.026
80476W        W40012  44.342  18.196   3.203
80477W        W40013  30.096  37.062   0.366
80478W        W40014   9.689  14.262   1.390
80479W        W40015  13.837  22.093  14.393
80480W        W40016  14.721  39.819  14.913
80481W        W40017  42.844  33.482  14.836
80482W        W40018  36.981   3.350   1.213
80483W        W40019   0.335  35.877   0.373
80484W        W40020   7.823  18.157   3.749
80485W        W40021  42.030   4.434   3.236
80486W        W40022  10.173  14.308   4.638
80487W        W40023  21.248  37.017   2.851
80488W        W40024  38.325  22.746   2.744
80489W        W40025  17.248  38.875  11.976
80490W        W40026  12.126   1.947  14.852
80491W        W40027  10.355   7.401  13.986
80492W        W40028  34.549   1.826   3.713
80493W        W40029  40.880  37.835   4.677
80494W        W40030  27.174   8.817  14.916
80495W        W40031   8.398  16.699   4.725
80496W        W40032  34.917   7.854  12.354
80497W        W40033  23.698  23.550   1.426
80498W        W40034  34.408  17.609   4.642
80499W        W40035  39.383   6.731   1.908
80500W        W40036  32.131  23.634   1.281
80501W        W40037  32.616   4.733  14.803
80502W        W40038  24.570  40.492  13.325
80503W        W40039  23.505  18.760   3.836
80504W        W40040  14.680  21.719  12.580
80505W        W40041  25.646   8.228  10.539
80506W        W40042   2.272  12.724  11.541
80507W        W40043  34.371  15.718   2.877
80508W        W40044  33.094  17.613  11.870
80509W        W40045   8.213  21.563  12.434
80510W        W40046  39.929  32.006   0.732
80511W        W40047  33.614  22.064  11.056
80512W        W40048   3.792   8.335   3.249
80513W        W40049  13.746  41.462   0.371
80514W        W40050  29.073  14.135   2.885
80515W        W40051  10.751   0.812   3.167
80516W        W40052  24.658  26.570   1.391
80517W        W40053   0.385   1.959  11.008
80518W        W40054  31.102  17.601  10.599
80519W        W40055  31.494  25.623  12.367
80520W        W40056  37.960  42.979  10.118
80521W        W40057   5.236  28.124   2.665
80522W        W40058  14.114  19.044  10.555
80523W        W40059  42.939  39.917  13.997
80524W        W40060  17.266  28.515   0.752
80525W        W40061  11.623  38.360   4.142
80526W        W40062  32.571  34.449  10.462
80527W        W40063  44.360   4.357   3.383
80528W        W40064   3.944   9.363   4.334
80529W        W40065  18.602  18.229  14.979
80530W        W40066   5.862  16.115  14.851
80531W        W40067  31.030   0.746  12.885
80532W        W40068  15.313  14.646  14.829
80533W        W40069  17.570  22.585   3.689
80534W        W40070  26.091  22.035   1.445
80535W        W40071   0.290  12.347   1.887
80536W        W40072  11.846   2.374  12.994
80537W        W40073  33.485  14.294   0.349
80538W        W40074  42.992  29.466   3.347
80539W        W40075  31.126   5.365  14.415
80540W        W40076  11.127  17.610  14.815
80541W        W40077  10.174  34.549  14.861
80542W        W40078  10.746  29.528   2.884
80543W        W40079  21.050  13.668  14.411
80544W        W40080  41.322   2.446   0.315
80545W        W40081  21.727  35.509   1.812
80546W        W40082   3.442  37.477   2.837
80547W        W40083   5.219  44.373  12.057
80548W        W40084   3.335  32.394   4.176
80549W        W40085  37.062   7.667  10.521
80550W        W40086  42.322  36.062  10.618
80551W        W40087  13.125  35.519   1.822
80552W        W40088  17.728  10.737  14.908
80553W        W40089  39.043  16.586   1.754
80554W        W40090  23.065  30.524   3.201
80555W        W40091  37.474  11.844  10.891
80556W        W40092  10.828  16.168  13.419
80557W        W40093  12.692   9.809  13.342
80558W        W40094  33.604  18.147   1.386
80559W        W40095  19.619  39.825  13.046
80560W        W40096  42.790   4.281  12.521
80561W        W40097  11.154  20.636  12.352
80562W        W40098  32.430  11.370  11.597
80563W        W40099  36.369  29.628  14.365
80564W        W40100  26.491  25.648  11.566
80565W        W40101  41.017  19.207   2.383
80566W        W40102  33.126  41.804  10.921
80567W        W40103   4.798  19.148   0.834
80568W        W40104   3.251  17.111   1.903
80569W        W40105   4.924   2.390  10.556
80570W        W40106  22.138  14.224   4.696
80571W        W40107  34.587  30.132  11.375
80572W        W40108  40.519  10.165  11.874
80573W        W40109  43.382   7.204   9.965
80574W        W40110  44.337  33.476  12.910
80575W        W40111   9.154  24.693  14.330
80576W        W40112   9.857  15.235  14.973
80577W        W40113   5.221  18.146   2.258
80578W        W40114  31.406  16.130   1.887
80579W        W40115  36.389  44.320   0.473
80580W        W40116  23.050  19.760   0.896
80581W        W40117  17.224   1.257   1.907
80582W        W40118  20.190  25.993   3.281
80583W        W40119   4.420  38.482   3.831
80584W        W40120  37.477  32.488  11.868
80585W        W40121  38.924  10.828   2.392
80586W        W40122   0.325  28.006  14.378
80587W        W40123  22.070  43.513  14.384
80588W        W40124  23.509  22.555  13.858
80589W        W40125  40.544  18.546   3.680
80590W        W40126  22.234  19.624   0.398
80591W        W40127  34.915  28.942   3.771
80592W        W40128  44.305  32.036  12.036
80593W        W40129  22.673  22.081   2.815
80594W        W40130  36.874  26.208   0.300
80595W        W40131  19.719  23.562   1.231
80596W        W40132   6.690  37.421  12.016
80597W        W40133   7.688   1.857  11.464
80598W        W40134  14.318  25.063  13.865
80599W        W40135  18.771  38.050  10.581
80600W        W40136  29.059  29.983  11.107
80601W        W40137  32.018  27.102  14.376
80602W        W40138  24.192  39.898  12.830
80603W        W40139  18.270   8.688   3.386
80604W        W40140   2.349  25.184   0.362
80605W        W40141  34.402  38.821   2.743
80606W        W40142  12.147  16.318  13.453
80607W        W40143  16.136   3.438  10.992
80608W        W40144   7.817  37.030  10.612
80609W        W40145  18.074  39.494  13.528
80610W        W40146  22.084  24.036   3.633
80611W        W40147  23.114   3.859  14.468
80612W        W40148  30.020  21.574  11.494
80613W        W40149   2.927  34.577   1.238
80614W        W40150   7.252  28.514   4.303
80615W        W40151  44.387  38.935  14.925
80616W        W40152  16.235  26.089   3.331
80617W        W40153  18.674  25.561  11.061
80618W        W40154  22.220  17.703   4.701
80619W        W40155  15.179  34.037  13.030
80620W        W40156   2.430   0.370   4.275
80621W        W40157  37.539  18.545   0.737
80622W        W40158  10.208  25.515  10.437
80623W        W40159  26.132   7.704  14.004
80624W        W40160  21.172  28.109   2.861
80625W        W40161  26.700  25.616   4.667
80626W        W40162  34.406  38.977   3.856
80627W        W40163   5.896  26.000   9.471
80628W        W40164  16.151  36.087  14.467
80629W        W40165   9.666  22.201  14.761
80630W        W40166  17.703  30.532   1.278
80631W        W40167  15.142  11.251  10.644
80632W        W40168   6.334   2.420  13.061
80633W        W40169  25.067  19.693   0.469
80634W        W40170  11.799  19.047  11.873
80635W        W40171  32.028   8.756   1.768
80636W        W40172  33.568  31.053  11.422
80637W        W40173  43.902  25.515  11.462
80638W        W40174   2.766  33.008   4.282
80639W        W40175  38.968  15.583  10.511
80640W        W40176  20.203  14.242  13.957
80641W        W40177  38.993  16.073  13.971
80642W        W40178  33.063  26.529   2.702
80643W        W40179   3.331  25.983   0.460
80644W        W40180   7.192  38.369   0.793
80645W        W40181  17.745   0.459  13.063
80646W        W40182  15.097  40.969  11.107
80647W        W40183  33.116  18.145  13.450
80648W        W40184   7.834  37.401  13.953
80649W        W40185  27.489   8.820  14.842
80650W        W40186  28.499   2.342  11.399
80651W        W40187  32.030  12.171   2.669
80652W        W40188  35.945  11.353  14.509
80653W        W40189  22.668  21.663  10.555
80654W        W40190  14.139  24.657  11.950
80655W        W40191  34.568  31.136   1.765
80656W        W40192  26.507   3.819   1.337
80657W        W40193   3.277  20.737  14.842
80658W        W40194  18.659  15.323  12.871
80659W        W40195  20.080  30.513  14.343
80660W        W40196  20.028   2.382   2.338
80661W        W40197  34.036  36.013  14.318
80662W        W40198  32.080  19.280  10.475
80663W        W40199  28.012  10.235   2.207
80664W        W40200  33.029  40.053  12.955
80665W        W40201   8.866  23.646  10.093
80666W        W40202  29.619  43.918  12.563
80667W        W40203   2.868  25.518  12.542
80668W        W40204  15.315   8.275   4.221
80669W        W40205  35.078  37.855  11.459
80670W        W40206  19.180  39.049   0.259
80671W        W40207  14.794  22.168   2.301
80672W        W40208  12.767   9.759   3.681
80673W        W40209  11.670  37.054   1.835
80674W        W40210  23.083  30.596   0.272
80675W        W40211  16.228  28.023  10.467
80676W        W40212  18.546  27.551  13.893
80677W        W40213  28.018  43.888   0.966
80678W        W40214   2.923  34.429  14.459
80679W        W40215  32.058  20.595  11.925
80680W        W40216  38.534  36.956  10.444
80681W        W40217  11.648   0.451  14.302
80682W        W40218   1.421  25.683  14.348
80683W        W40219  20.646  44.498  11.403
80684W        W40220  25.501  16.132   4.243
80685W        W40221  36.546   6.772   4.353
80686W        W40222  11.225  16.137  13.062
80687W        W40223  11.866  12.678  11.397
80688W        W40224  20.114  11.798  14.999
80689W        W40225  14.622  19.213  10.515
80690W        W40226  42.873  28.180   4.120
80691W        W40227  34.447  35.589   2.685
80692W        W40228  18.759  34.057  11.434
80693W        W40229  29.923   8.281  12.843
80694W        W40230  32.622  38.540  11.035
80695W        W40231   0.391  16.288  10.434
80696W        W40232   0.475  15.611   1.286
80697W        W40233  24.111  42.937  14.489
80698W        W40234  12.632  27.976  12.393
80699W        W40235  39.849  21.253  14.971
80700W        W40236  40.030  23.139  14.480
80701W        W40237  31.977  23.568  12.093
80702W        W40238  29.507  16.718   4.231
80703W        W40239  41.857  43.443  14.376
80704W        W40240   9.670   6.412  10.138
80705W        W40241  33.925  11.755  14.839
80706W        W40242  12.640  28.132   2.745
80707W        W40243  36.985  35.099  10.612
80708W        W40244  24.986  38.417   1.313
80709W        W40245   3.832  29.607   2.345
80710W        W40246  25.545  23.684  13.853
80711W        W40247  13.217  23.107  11.495
80712W        W40248   2.420  17.118   4.162
80713W        W40249  20.254   6.893  13.041
80714W        W40250   1.389   2.289   1.834
80715W        W40251  37.550  32.914  11.992
80716W        W40252   7.404  39.886  11.885
80717W        W40253  16.579  17.626   3.241
80718W        W40254  16.598  28.964   0.934
80719W        W40255  44.007  36.849  13.948
80720W        W40256  19.641   5.783  11.111
80721W        W40257   8.899  16.203   0.474
80722W        W40258   5.868   7.259  14.364
80723W        W40259  11.688  32.025  13.823
80724W        W40260   5.230  32.122  10.936
80725W        W40261  25.082  27.546  14.472
80726W        W40262  16.651  16.234   4.205
80727W        W40263   7.286  21.200  11.442
80728W        W40264  17.590   2.830   4.608
80729W        W40265  22.563   0.845   3.357
80730W        W40266  23.210  29.437  12.854
80731W        W40267  17.634  42.346   1.856
80732W        W40268  18.122  12.783  14.797
80733W        W40269  33.986  17.205   0.371
80734W        W40270  13.815  40.949  11.585
80735W        W40271   8.316  10.349  14.764
80736W        W40272  31.556  12.345  14.283
80737W        W40273  42.341   3.930  13.387
80738W        W40274   1.381  21.109   2.375
80739W        W40275   8.377  15.766  12.053
80740W        W40276  14.303  16.625  14.377
80741W        W40277  42.493  39.544  14.372
80742W        W40278  26.697  39.861   3.242
80743W        W40279  41.020  21.741  13.476
80744W        W40280  33.516  37.934  15.000
80745W        W40281  11.276   9.796  13.439
80746W        W40282  20.217  39.016   3.359
80747W        W40283  29.512  35.080   1.788
80748W        W40284  10.335  11.270  13.850
80749W        W40285  30.090  15.782  14.849
80750W        W40286  42.406  42.837  14.360
80751W        W40287   1.376  24.214   2.333
80752W        W40288  21.532   9.712   1.248
80753W        W40289   9.240   6.394   4.736
80754W        W40290   4.810  30.556   3.788
80755W        W40291   9.346   3.421  11.458
80756W        W40292  21.653  39.827  13.971
80757W        W40293   3.398   3.930  12.992
80758W        W40294  39.462  17.156  14.027
80759W        W40295   0.320  19.098   1.772
80760W        W40296  38.430  14.650   0.453
80761W        W40297  40.041   9.751   1.745
80762W        W40298  14.094  39.964   4.215
80763W        W40299  25.519  11.636  14.452
80764W        W40300  23.237  12.806  14.976
80765W        W40301  15.195  17.574   5.290
80766W        W40302  27.146  34.915   2.814
80767W        W40303  14.828   5.824  10.571
80768W        W40304  36.476  32.407  13.892
80769W        W40305  42.931  19.211  12.548
80770W        W40306  16.287  17.768   3.789
80771W        W40307  42.409  31.938  12.883
80772W        W40308   9.700   3.896   1.843
80773W        W40309  13.786  22.237  13.314
80774W        W40310  29.919   7.685  11.016
80775W        W40311  14.214  39.998  13.827
80776W        W40312   9.857  26.550  14.019
80777W        W40313   0.814   2.443  13.502
80778W        W40314  26.130  15.711   3.350
80779W        W40315  15.745  40.925  14.021
80780W        W40316  16.677  31.898  14.330
80781W        W40317  30.546  25.538   0.376
80782W        W40318  33.034  17.718  13.994
80783W        W40319  16.734   8.346   2.745
80784W        W40320   7.343  20.123  14.318
80785W        W40321   5.908  41.914   0.786
80786W        W40322  31.075  20.584   1.749
80787W        W40323  38.963  33.120   3.809
80788W        W40324  40.019  44.910  14.866
80789W        W40325  34.409   6.336   3.381
80790W        W40326  41.538  32.551  14.800
80791W        W40327  15.244   8.316  13.379
80792W        W40328   0.984  22.625  11.473
80793W        W40329  29.078  38.411  11.919
80794W        W40330  37.434  29.652   5.170
80795W        W40331  41.877  28.064   1.315
80796W        W40332  38.875   4.339  12.840
80797W        W40333  44.908  29.035   4.828
80798W        W40334   7.912  23.500   4.304
80799W        W40335   8.263  29.021  12.082
80800W        W40336  17.160  31.602   0.358
80801W        W40337  10.758   6.420   3.846
80802W        W40338   6.288  12.179   4.651
80803W        W40339   1.396  14.753  12.876
80804W        W40340  24.008  16.628  10.043
80805W        W40341   2.301  17.644  12.881
80806W        W40342  17.587  37.489   0.283
80807W        W40343  44.924  14.639   4.301
80808W        W40344  18.634  24.099  13.487
80809W        W40345  39.888   4.314   0.880
80810W        W40346  12.732  34.889   4.813
80811W        W40347  40.987  44.409  13.841
80812W        W40348  26.142   0.389   4.620
80813W        W40349   2.805  33.404   3.748
80814W        W40350  28.109  23.673   0.337
80815W        W40351  34.865  12.611  10.616
80816W        W40352  25.172  30.158  11.015
80817W        W40353   8.238   0.419   2.865
80818W        W40354  18.137  34.384   0.416
80819W        W40355  36.575  27.477   4.661
80820W        W40356  37.438   7.351   3.296
80821W        W40357  22.048  17.062  11.010
80822W        W40358  39.331  35.460  12.877
80823W        W40359  29.456   6.783   3.197
80824W        W40360  15.291   0.938   4.331
80825W        W40361  16.136   3.407   1.773
80826W        W40362   7.703  24.583  14.860
80827W        W40363  21.166  41.318   0.434
80828W        W40364  41.409  25.605  11.557
80829W        W40365  10.669  30.418   5.240
80830W        W40366  20.078   6.247  12.898
80831W        W40367  25.987  33.113   3.249
80832W        W40368  30.454  33.494   3.322
80833W        W40369  15.100  25.626  12.551
80834W        W40370  36.428  41.441  14.769
80835W        W40371  20.173  22.688  12.927
80836W        W40372  37.978   6.694  14.848
80837W        W40373  13.702  32.065   0.261
80838W        W40374  24.998  33.456   4.233
80839W        W40375  37.564   8.194   1.780
80840W        W40376  24.178  13.691  14.806
80841W        W40377  13.223   6.327  11.411
80842W        W40378  20.754   3.820   4.180
80843W        W40379  19.102   7.306   1.701
80844W        W40380  18.283  40.439  12.019
80845W        W40381  43.830  32.972  12.400
80846W        W40382  39.018  38.931   3.183
80847W        W40383  17.781  24.108  12.431
80848W        W40384  29.931   2.724   4.814
80849W        W40385  13.609  26.021   2.902
80850W        W40386  18.094  12.714  13.482
80851W        W40387  28.560  16.612   0.936
80852W        W40388  41.397  32.105  12.515
80853W        W40389   9.825   3.838  11.082
80854W        W40390  20.214  16.617  12.431
80855W        W40391  42.469   9.214   2.760
80856W        W40392  32.934  31.563  11.564
80857W        W40393  13.115  18.776   4.199
80858W        W40394  19.147  33.622  11.477
80859W        W40395  27.584  34.592   3.193
80860W        W40396  12.630  20.753  13.508
80861W        W40397  17.694   7.247   0.962
80862W        W40398   1.465  13.156  11.003
80863W        W40399   7.406   3.383  13.391
80864W        W40400  37.922  32.040   4.147
80865W        W40401  32.620   8.164   3.259
80866W        W40402   8.668   1.846   4.123
80867W        W40403  18.238  11.328   4.327
80868W        W40404  12.156  28.113  14.400
80869W        W40405  36.366  20.550   4.200
80870W        W40406  10.844  20.679  11.452
80871W        W40407  15.814  27.968  13.469
80872W        W40408  15.160  13.301   1.249
80873W        W40409  16.714  17.664  14.394
80874W        W40410  35.886  31.941   2.197
80875W        W40411  13.219  18.577  14.331
80876W        W40412  15.742  20.616  14.316
80877W        W40413  40.965  35.980   0.807
80878W        W40414   6.306  23.615  12.958
80879W        W40415   0.353  17.296   4.701
80880W        W40416  10.207  22.103   2.751
80881W        W40417  16.645  16.801   0.304
80882W        W40418   8.733  26.956   2.292
80883W        W40419   8.893  37.462  13.034
80884W        W40420  28.949   4.936  13.841
80885W        W40421  28.056  31.468  10.925
80886W        W40422  21.568  13.222  10.445
80887W        W40423  28.539   5.770  10.985
80888W        W40424  27.097  38.880  13.491
80889W        W40425  37.850  44.965   3.311
80890W        W40426  19.208  42.868  13.898
80891W        W40427  13.755  30.470   0.914
80892W        W40428   0.815  23.693  14.023
80893W        W40429  30.509  21.518   0.399
80894W        W40430  33.594  28.071  14.399
80895W        W40431   5.224  22.112   2.857
80896W        W40432   6.923   0.946  10.602
80897W        W40433  14.233  14.196   4.757
80898W        W40434  34.920  38.342   3.723
80899W        W40435  27.597  23.992   3.187
80900W        W40436   6.781  12.719   0.462
80901W        W40437  40.377  29.145  13.991
80902W        W40438  30.554  29.931   3.303
80903W        W40439  26.537  10.676  13.425
80904W        W40440  20.615   9.657   1.235
80905W        W40441  14.248   3.437  11.062
80906W        W40442   0.364  39.331   3.328
80907W        W40443   3.912  14.138  11.521
80908W        W40444  39.869  39.322   3.347
80909W        W40445  30.469  31.061   0.416
80910W        W40446  16.812   2.779  13.527
80911W        W40447  12.614  42.969  13.357
80912W        W40448  17.698  21.033  10.114
80913W        W40449  18.063   0.868  14.281
80914W        W40450  41.965  11.759  10.041
80915W        W40451  13.136  41.945  10.640
80916W        W40452  19.044  19.654  12.063
80917W        W40453  42.972  26.561  10.900
80918W        W40454  25.641  38.492  12.904
80919W        W40455  13.636  26.490  11.931
80920W        W40456   1.359   6.844  13.887
80921W        W40457  13.152  20.526  10.622
80922W        W40458  27.527  11.663   1.790
80923W        W40459  15.661   3.934  14.992
80924W        W40460  42.283  14.734  13.498
80925W        W40461   4.773  36.581   2.744
80926W        W40462  23.728  11.791  12.888
80927W        W40463  16.310   2.299   2.315
80928W        W40464  23.196  35.083  13.508
80929W        W40465  42.337  35.520   3.317
80930W        W40466  28.953  38.053  11.372
80931W        W40467  35.473  31.481  14.787
80932W        W40468   4.754  22.111   2.849
80933W        W40469  17.578  23.019   4.270
80934W        W40470  23.693  14.655   0.347
80935W        W40471  13.663   2.229   4.340
80936W        W40472  13.212  39.897  10.448
80937W        W40473  13.628  16.795   4.631
80938W        W40474  26.678  42.481   1.765
80939W        W40475  13.785  19.623  10.988
80940W        W40476  43.819  18.099  11.569
80941W        W40477  39.911  33.113   3.326
80942W        W40478   8.286  25.012   3.850
80943W        W40479  38.515   4.733   2.707
80944W        W40480  24.715  43.348   2.263
80945W        W40481  28.140  19.050   5.633
80946W        W40482  10.715  23.561   2.799
80947W        W40483  10.746  37.059   0.844
80948W        W40484  11.817  41.801  10.481
80949W        W40485  14.208  38.331  13.422
80950W        W40486   5.427  21.248  12.385
80951W        W40487  28.000  44.002  11.056
80952W        W40488  24.539  43.506   2.848
80953W        W40489   5.794  25.129  14.910
80954W        W40490   0.475  39.816   2.890
80955W        W40491  27.468  26.601  10.508
80956W        W40492   2.297  22.131  10.153
80957W        W40493  17.692   0.868  13.930
80958W        W40494  15.116  23.241   4.330
80959W        W40495   1.273  31.647   1.348
80960W        W40496   9.312  35.430  12.905
80961W        W40497  43.905   4.357  14.940
80962W        W40498  36.422  13.810  14.826
80963W        W40499  39.988   4.781  11.128
80964W        W40500  27.980  35.875  14.977
80965W        W40501  17.229   5.391  14.312
80966W        W40502  24.088  30.613   1.399
80967W        W40503  30.653  29.581  14.397
80968W        W40504  43.864  37.042  11.862
80969W        W40505  31.439  30.097  11.059
80970W        W40506   6.209   5.327   3.773
80971W        W40507  29.472  34.573  10.512
80972W        W40508  36.534  33.988  10.570
80973W        W40509  34.864  29.945   2.353
80974W        W40510  17.176  44.338   1.250
80975W        W40511  19.236  40.922  13.015
80976W        W40512  20.078  34.875   3.162
80977W        W40513   0.307  20.575  11.382
80978W        W40514  28.646  20.533   1.797
80979W        W40515  23.729  24.606   2.891
80980W        W40516  35.438   7.327  10.905
80981W        W40517  14.231  36.920   2.804
80982W        W40518  22.596  20.124  13.046
80983W        W40519  26.564  23.004   2.283
80984W        W40520  14.592  16.114  11.461
80985W        W40521  10.337  22.670  10.538
80986W        W40522  24.580  19.205  12.062
80987W        W40523  29.078  38.832  12.517
80988W        W40524  43.887  20.572   2.671
80989W        W40525  36.034  33.122  12.434
80990W        W40526  26.137  22.501  14.408
80991W        W40527  19.642   0.388   1.388
80992W        W40528  37.915  20.633   2.303
80993W        W40529  15.268  37.920   1.823
80994W        W40530  14.260  32.027   4.826
80995W        W40531  26.627  18.561  13.906
80996W        W40532  24.695  28.552  13.977
80997W        W40533   3.285   1.758  10.556
80998W        W40534  29.945  29.451   1.838
80999W        W40535  19.592  12.201   0.947
81000W        W40536   5.843   5.777   3.847
81001W        W40537  12.273  40.841   1.724
81002W        W40538  32.628  27.560   3.286
81003W        W40539  11.328  21.541   1.723
81004W        W40540  30.985  39.402  13.979
81005W        W40541  35.369  19.242   3.638
81006W        W40542  42.352  35.902  11.936
81007W        W40543   4.939  36.492   1.235
81008W        W40544  13.723  15.300   0.403
81009W        W40545  14.314  11.833  14.895
81010W        W40546  25.585  40.907   0.826
81011W        W40547  14.799  40.422  12.840
81012W        W40548  17.645  27.498  11.035
81013W        W40549  21.139  25.535  14.920
81014W        W40550  43.358  33.514   2.764
81015W        W40551   7.705  15.197   0.470
81016W        W40552  21.590  39.531  14.447
81017W        W40553  44.846  15.191   0.956
81018W        W40554  41.424  13.185  11.547
81019W        W40555  30.008  38.359   0.294
81020W        W40556  10.339  24.212  14.792
81021W        W40557  18.099   7.368  14.833
81022W        W40558  23.186   1.772  13.431
81023W        W40559  26.586  38.532   2.377
81024W        W40560  36.946   5.300  12.462
81025W        W40561   3.298  33.476   2.230
81026W        W40562  18.275  30.103  12.893
81027W        W40563  37.552   6.195  10.446
81028W        W40564  27.604   7.893   0.831
81029W        W40565  38.385  34.942  12.350
81030W        W40566  30.457  34.966  11.517
81031W        W40567  30.912  42.850  10.899
81032W        W40568  11.736  19.691  14.426
81033W        W40569   1.404  26.654   2.200
81034W        W40570  26.593  25.678   0.806
81035W        W40571  16.764  37.841  11.988
81036W        W40572   2.337  15.204  14.967
81037W        W40573  30.498  31.410   4.689
81038W        W40574  40.828  34.931  10.950
81039W        W40575  28.470  43.291   3.214
81040W        W40576   5.783  37.876   2.731
81041W        W40577   6.343  43.998   4.345
81042W        W40578  21.747  27.518   0.356
81043W        W40579  31.533   0.314   3.803
81044W        W40580  39.991  41.851   1.845
81045W        W40581  13.301  33.390   0.348
81046W        W40582  24.490  30.607  11.564
81047W        W40583  43.304  17.232  10.129
81048W        W40584   3.394  19.577  13.832
81049W        W40585   4.314  27.023   4.246
81050W        W40586  23.642  32.611  13.351
81051W        W40587   8.215  35.538  13.464
81052W        W40588  20.662  32.031   1.236
81053W        W40589   5.261  22.058   0.282
81054W        W40590   9.349  28.562   2.832
81055W        W40591   8.345  32.469   2.251
81056W        W40592  38.511  29.061   4.621
81057W        W40593  28.475  30.564  12.579
81058W        W40594  33.398   4.763  11.409
81059W        W40595  16.625  34.876   3.738
81060W        W40596   8.353  42.997   4.599
81061W        W40597  12.273  30.091  11.995
81062W        W40598  44.777  34.020   4.745
81063W        W40599  13.350  34.446   3.672
81064W        W40600   2.399  29.163   0.379
81065W        W40601   2.728  32.619   3.850
81066W        W40602  41.461   5.341   1.859
81067W        W40603  14.776  28.126   1.863
81068W        W40604  30.508  12.208   2.853
81069W        W40605  33.971  18.193  12.384
81070W        W40606  26.148  11.772   2.277
81071W        W40607  37.903  43.919   4.688
81072W        W40608  12.127  18.192   1.383
81073W        W40609   5.219   2.737  14.866
81074W        W40610  32.138   3.940  12.495
81075W        W40611  19.063  29.993   2.860
81076W        W40612   0.750   0.824  11.906
81077W        W40613  39.860   3.727  11.991
81078W        W40614  32.929  13.204  14.364
81079W        W40615  23.587  20.762   1.713
81080W        W40616   1.288  35.513   2.872
81081W        W40617   9.313   9.200  12.396
81082W        W40618  12.338  15.246  11.563
81083W        W40619  38.507  29.636  12.091
81084W        W40620  22.019  24.714  13.509
81085W        W40621  17.286  13.251  12.081
81086W        W40622  23.510  29.010   0.863
81087W        W40623  33.971   1.839   1.846
81088W        W40624  18.215  24.570   4.597
81089W        W40625  18.774  29.578   0.257
81090W        W40626  16.277  29.922  10.609
81091W        W40627  32.628   5.361  13.350
81092W        W40628  13.244   9.808  13.885
81093W        W40629  17.796  40.861   0.411
81094W        W40630  13.615   4.281  12.914
81095W        W40631  22.028  26.092   0.393
81096W        W40632   5.353  18.250   2.747
81097W        W40633  43.803  23.631   2.383
81098W        W40634  15.716  19.095  10.987
81099W        W40635  33.454   9.191  11.545
81100W        W40636  24.195  38.057   0.837
81101W        W40637  36.868  30.435  12.937
81102W        W40638  32.972  25.967  10.057
81103W        W40639  23.023  11.785   3.161
81104W        W40640  30.573  38.549  12.914
81105W        W40641  10.652  21.641  11.518
81106W        W40642  22.211  43.777  13.403
81107W        W40643  38.914   0.489  10.080
81108W        W40644   1.872   0.794   0.357
81109W        W40645   1.965  19.721  13.515
81110W        W40646  16.168  15.173  12.374
81111W        W40647  29.000  11.836   3.196
81112W        W40648  16.800  40.327  13.802
81113W        W40649  15.112  15.580  11.462
81114W        W40650  34.381  43.292   3.343
81115W        W40651  12.345  26.598   5.286
81116W        W40652  36.376  38.565  11.519
81117W        W40653  23.612  33.577  10.889
81118W        W40654  33.121  34.563  12.003
81119W        W40655  35.947  17.601  14.352
81120W        W40656  40.534  37.385   0.934
81121W        W40657   6.857  31.990   4.285
81122W        W40658   4.435  37.411  14.311
81123W        W40659   1.295  17.105  14.967
81124W        W40660  14.173  14.170   1.344
81125W        W40661  26.526   0.404  13.463
81126W        W40662  13.134  27.986   0.903
81127W        W40663  20.705  43.452  10.549
81128W        W40664  26.983  17.747  14.512
81129W        W40665  36.968  42.413   3.720
81130W        W40666  29.048  13.125  11.024
81131W        W40667  43.314  15.325   1.930
81132W        W40668   4.244  17.120   1.379
81133W        W40669  31.557   8.230  12.889
81134W        W40670   0.395   7.798  13.488
81135W        W40671  29.952   0.873  14.011
81136W        W40672   8.202  15.122  11.012
81137W        W40673  30.096   0.487  13.458
81138W        W40674  24.493  19.064   1.365
81139W        W40675  10.233  34.016  11.390
81140W        W40676  34.944  10.148  12.578
81141W        W40677  26.168  40.353   2.362
81142W        W40678  28.052  34.000  13.491
81143W        W40679   8.806  34.083  10.619
81144W        W40680  21.748  10.670  13.022
81145W        W40681  30.114  30.015   2.307
81146W        W40682  44.400  18.618  10.539
81147W        W40683  29.942  43.903   3.714
81148W        W40684   8.304   7.327   2.727
81149W        W40685  18.771   0.835  14.434
81150W        W40686   8.346  22.026  10.482
81151W        W40687   3.779  34.113  12.047
81152W        W40688  21.693  32.956  11.582
81153W        W40689   2.273  14.607  10.450
81154W        W40690  36.387   5.195  13.537
81155W        W40691  28.648  26.952   0.790
81156W        W40692  19.609  23.070  14.938
81157W        W40693  37.070  24.036  14.029
81158W        W40694   3.387  28.087   0.966
81159W        W40695  19.107  18.153  10.956
81160W        W40696  30.588  24.047   3.301
81161W        W40697   5.400  38.474   0.446
81162W        W40698  15.284   1.893  12.902
81163W        W40699  37.384  31.136   0.323
81164W        W40700  32.574   2.863  10.956
81165W        W40701  38.825  29.061   0.321
81166W        W40702  34.471  13.155   1.906
81167W        W40703   9.214   6.341   1.747
81168W        W40704   3.340  15.593   4.731
81169W        W40705  25.671  43.887   4.760
81170W        W40706  21.606  13.797  11.017
81171W        W40707   8.178  38.864  10.951
81172W        W40708  18.108  10.188   4.629
81173W        W40709   0.814  24.581   1.873
81174W        W40710   6.762  16.144  14.851
81175W        W40711  31.647  36.949   2.276
81176W        W40712   3.222  14.599   4.735
81177W        W40713  30.589  10.688  14.894
81178W        W40714  29.155  31.411  13.431
81179W        W40715  15.808   6.423   2.846
81180W        W40716   1.797  11.848   2.400
81181W        W40717  40.540  11.717   3.194
81182W        W40718  13.189   8.737   3.237
81183W        W40719  22.229  11.716  12.024
81184W        W40720  14.626   2.284  12.565
81185W        W40721  10.267  15.316  13.440
81186W        W40722  12.275   4.272  13.988
81187W        W40723  34.024  25.210  10.972
81188W        W40724  44.755  16.283  13.921
81189W        W40725  32.942   7.371   4.224
81190W        W40726  17.152  18.655   2.384
81191W        W40727  19.690  35.910  12.515
81192W        W40728  19.711  19.072  11.954
81193W        W40729  27.007  26.988  14.972
81194W        W40730  11.268  41.459   1.715
81195W        W40731  40.963   4.709  12.016
81196W        W40732  29.539  15.633  10.548
81197W        W40733   1.913  22.195  11.042
81198W        W40734  26.459  42.889   1.799
81199W        W40735  38.973  29.127  11.407
81200W        W40736  35.881  26.582  12.902
81201W        W40737  11.868  21.193   4.159
81202W        W40738  37.945  18.553  13.415
81203W        W40739  25.011  41.009  10.566
81204W        W40740  30.084  42.871  14.901
81205W        W40741  13.805  15.655  12.018
81206W        W40742  32.931  21.680   1.773
81207W        W40743  21.038  12.293  10.489
81208W        W40744  39.999   7.896   1.824
81209W        W40745  33.499   7.247  13.540
81210W        W40746  38.473  22.507   0.798
81211W        W40747  24.555  17.619  12.386
81212W        W40748  10.777  13.116  14.992
81213W        W40749  27.584  36.871  11.536
81214W        W40750  10.284  31.442  12.511
81215W        W40751  37.033  14.659   4.149
81216W        W40752  22.157  10.207   0.306
81217W        W40753  20.688  36.939   0.397
81218W        W40754  11.167  25.679  14.024
81219W        W40755  42.427  29.569   4.645
81220W        W40756  42.337  15.091   3.283
81221W        W40757   0.838  41.512  10.590
81222W        W40758   7.245  35.398  11.973
81223W        W40759  44.880  12.671   1.865
81224W        W40760   9.382  10.286  11.118
81225W        W40761   6.197  14.215  12.428
81226W        W40762  15.192  29.653   1.782
81227W        W40763  37.086  28.559   4.326
81228W        W40764  27.977  28.496  14.965
81229W        W40765  43.494  24.588   4.640
81230W        W40766  20.119  19.545   0.882
81231W        W40767  10.185  42.481   4.703
81232W        W40768  37.506   4.712   2.789
81233W        W40769  38.979  35.042   1.758
81234W        W40770   8.701  34.596   0.270
81235W        W40771  40.533  30.521  12.980
81236W        W40772  32.018  44.420   0.926
81237W        W40773  24.087  14.236  13.029
81238W        W40774  35.106  25.552  14.901
81239W        W40775  14.154   3.817   3.183
81240W        W40776  31.088  14.642  10.411
81241W        W40777   5.816   4.747  13.371
81242W        W40778   1.762  34.050  12.006
81243W        W40779  33.023   2.364   2.781
81244W        W40780  32.435   3.834   1.909
81245W        W40781  34.054  14.722  11.581
81246W        W40782  40.412  43.468  13.962
81247W        W40783  42.471  30.920   1.847
81248W        W40784  42.888  13.712   2.826
81249W        W40785   3.304  27.123  11.857
81250W        W40786   5.721  41.528   2.773
81251W        W40787   7.846  32.013   4.163
81252W        W40788   2.398  23.231   0.845
81253W        W40789  23.648  43.461   0.735
81254W        W40790  18.706  28.514  13.870
81255W        W40791  13.302  22.518  13.876
81256W        W40792  16.766  25.172   1.775
81257W        W40793  30.089  32.469  11.892
81258W        W40794   3.439  34.987  13.379
81259W        W40795   2.294  16.703   0.298
81260W        W40796  34.465   8.900  13.333
81261W        W40797   6.897  12.730   3.214
81262W        W40798  17.784  19.054  14.982
81263W        W40799  17.721   9.861   3.376
81264W        W40800   7.667   3.435   2.188
81265W        W40801  10.285   6.396   5.280
81266W        W40802  42.876  15.661   4.838
81267W        W40803  24.590  37.499  13.896
81268W        W40804  42.941  18.576  10.409
81269W        W40805  28.600  37.403   2.390
81270W        W40806  42.970  41.331  11.104
81271W        W40807   0.379  15.782   3.212
81272W        W40808  14.193   7.365   5.139
81273W        W40809  22.562   0.461  11.074
81274W        W40810  32.440  15.234  13.506
81275W        W40811  10.170  17.241   2.256
81276W        W40812   0.332  36.052   1.416
81277W        W40813   1.329   0.345   3.815
81278W        W40814  30.069   2.242  14.279
81279W        W40815  42.912  12.242  14.977
81280W        W40816   9.874  24.021   3.279
81281W        W40817  11.340   4.701   1.227
81282W        W40818  26.011  41.516  13.064
81283W        W40819   7.339  32.947   0.325
81284W        W40820  15.308  34.938  11.508
81285W        W40821  12.826  33.584   0.906
81286W        W40822  21.541   8.850  10.437
81287W        W40823  11.857  11.629  12.497
81288W        W40824  15.772  27.479  10.571
81289W        W40825  21.022  24.709   4.796
81290W        W40826  24.061   0.906  11.580
81291W        W40827  12.821  15.160  14.438
81292W        W40828  26.165  42.372  11.042
81293W        W40829   6.380  18.717   3.214
81294W        W40830  17.085  13.785  11.470
81295W        W40831  30.439  17.133   4.824
81296W        W40832  12.846  37.840   2.789
81297W        W40833  17.744   6.846   4.254
81298W        W40834   7.380  21.060  11.101
81299W        W40835  34.906  38.530  10.605
81300W        W40836   0.871   2.410   4.326
81301W        W40837  23.190  31.918  10.637
81302W        W40838   2.772  15.641   2.385
81303W        W40839  36.048   8.783  11.099
81304W        W40840  29.111  44.912  14.491
81305W        W40841  30.658   0.973  11.567
81306W        W40842  31.068  26.656  10.561
81307W        W40843  44.482   4.728   0.311
81308W        W40844   4.374   1.837   0.343
81309W        W40845  27.452  28.487  11.898
81310W        W40846  35.033  16.217  12.482
81311W        W40847  30.072  20.168  10.986
81312W        W40848  37.985  14.305  12.887
81313W        W40849   5.907  22.026   3.701
81314W        W40850  27.953   2.755  14.815
81315W        W40851  31.473  39.534  11.074
81316W        W40852   9.231  15.609  10.072
81317W        W40853  20.709   5.375   3.731
81318W        W40854  23.049  20.182  11.478
81319W        W40855  25.125  22.500   0.848
81320W        W40856  14.640  32.136   3.778
81321W        W40857  12.709  11.640   1.244
81322W        W40858   9.253  30.020   3.804
81323W        W40859  34.448  31.969   0.860
81324W        W40860   6.376  17.563   1.219
81325W        W40861  36.940  43.956   0.780
81326W        W40862  10.738  24.662  13.482
81327W        W40863  36.078  40.017  12.541
81328W        W40864  28.623  35.604  13.464
81329W        W40865  10.228  29.540  14.803
81330W        W40866   6.786  16.166   1.428
81331W        W40867  21.041  40.472  10.970
81332W        W40868  13.801   5.723   3.728
81333W        W40869  13.740  34.109  13.476
81334W        W40870   9.726  17.611   3.699
81335W        W40871  30.981  32.447   4.161
81336W        W40872  10.700  44.492   1.719
81337W        W40873  20.714   8.167  11.098
81338W        W40874  36.430   4.900   4.686
81339W        W40875  42.860  13.642  11.539
81340W        W40876  41.797  18.615   0.738
81341W        W40877  16.268  11.237   0.961
81342W        W40878   6.373  43.440   0.277
81343W        W40879   3.768   5.723   0.378
81344W        W40880  37.419  41.323   4.642
81345W        W40881  25.541  24.180  10.889
81346W        W40882  17.681  23.068   3.339
81347W        W40883  32.460   8.750   1.234
81348W        W40884   5.841  19.740  14.395
81349W        W40885  43.856  42.377  11.882
81350W        W40886  10.275  19.079   3.150
81351W        W40887  14.108  41.787   3.298
81352W        W40888  42.022  34.004   1.385
81353W        W40889  29.494  32.127  13.895
81354W        W40890  24.620  35.498  12.939
81355W        W40891  33.440   2.271   3.770
81356W        W40892  19.087  17.566   1.275
81357W        W40893  31.623  39.020   3.296
81358W        W40894  30.509  44.928  13.888
81359W        W40895  42.400   3.906   0.428
81360W        W40896  17.206   3.775   1.816
81361W        W40897  12.313  17.751   3.161
81362W        W40898  34.922  22.736   4.208
81363W        W40899  40.437  24.027   0.791
81364W        W40900  31.934  22.093  13.443
81365W        W40901  22.060  29.958   1.413
81366W        W40902  36.431  40.007   3.845
81367W        W40903  17.714  33.589   3.310
81368W        W40904  32.060  40.403   1.294
81369W        W40905  23.591  44.465   0.848
81370W        W40906  34.108  22.594  14.837
81371W        W40907   7.783  13.845  13.040
81372W        W40908  29.547  22.621   2.889
81373W        W40909  35.041   2.298   2.242
81374W        W40910   1.413  18.169  11.030
81375W        W40911  23.630   4.852  11.874
81376W        W40912  43.767  35.107  14.279
81377W        W40913  14.754  28.955   4.783
81378W        W40914   0.283  19.142  13.027
81379W        W40915   4.873  22.161  12.398
81380W        W40916  39.008  25.211  12.062
81381W        W40917  34.903  21.539   3.168
81382W        W40918  28.963   6.224  12.058
81383W        W40919   9.889  27.500  14.011
81384W        W40920  26.614  12.188  12.379
81385W        W40921  15.265  20.754   1.410
81386W        W40922  40.951   7.714  12.868
81387W        W40923  32.515  22.178  11.991
81388W        W40924  30.647   1.776  13.370
81389W        W40925  10.853   5.840   3.725
81390W        W40926  22.561  26.114   2.726
81391W        W40927  24.137  11.348   3.777
81392W        W40928  35.532  18.204   2.181
81393W        W40929  14.814  42.846   3.805
81394W        W40930  19.656  11.158   3.338
81395W        W40931  14.721  41.013  14.392
81396W        W40932   4.339  15.130   1.285
81397W        W40933  28.625  26.690   4.201
81398W        W40934  25.550  39.351  12.933
81399W        W40935  15.619  27.474  13.477
81400W        W40936  43.290  12.179   1.326
81401W        W40937  25.515  30.022  14.311
81402W        W40938  33.616   5.924  10.640
81403W        W40939  35.853  18.274   2.815
81404W        W40940  23.641   2.344  12.923
81405W        W40941  12.279  31.485   1.365
81406W        W40942  36.072   5.341   2.212
81407W        W40943   5.406  33.107  12.913
81408W        W40944   9.793  22.686   4.248
81409W        W40945  10.750   2.344  12.545
81410W        W40946   2.966  18.158  12.534
81411W        W40947  18.142  17.108   0.745
81412W        W40948  31.474  44.497  12.955
81413W        W40949  36.351   4.215  13.544
81414W        W40950  15.143   3.716  14.010
81415W        W40951   1.457  33.953  12.410
81416W        W40952  42.300  20.740   3.642
81417W        W40953  18.122  26.587  12.057
81418W        W40954   8.867  23.713   1.896
81419W        W40955  39.497  43.944  10.948
81420W        W40956  17.167  20.148  12.993
81421W        W40957  18.140  15.310   2.875
81422W        W40958  25.090   0.477   0.771
81423W        W40959  30.638  28.642   1.770
81424W        W40960  14.672  11.806   1.289
81425W        W40961  19.681  34.368   0.943
81426W        W40962  13.270  24.592  10.630
81427W        W40963  30.053  31.501   4.784
81428W        W40964  33.445  18.114   4.343
81429W        W40965  43.863  16.191  10.494
81430W        W40966  31.072  16.695   2.786
81431W        W40967  26.120  37.879   4.827
81432W        W40968   7.678  21.613  13.437
81433W        W40969  33.488  31.476  11.605
81434W        W40970  42.470   1.324   3.852
81435W        W40971  16.661  24.574   4.313
81436W        W40972  34.917  24.562   3.724
81437W        W40973  42.860   0.479   0.360
81438W        W40974  36.928   2.881   4.656
81439W        W40975  18.278  42.338  14.922
81440W        W40976  24.124   4.355   3.309
81441W        W40977  40.022  23.093   1.801
81442W        W40978  39.817   5.687  10.436
81443W        W40979  18.663  39.535  10.542
81444W        W40980  25.189  11.139   2.830
81445W        W40981  29.961  33.106  14.838
81446W        W40982  32.474  20.045  12.575
81447W        W40983  39.558   6.383   3.353
81448W        W40984   2.938  16.097   2.203
81449W        W40985  40.948  12.275   4.645
81450W        W40986  20.604  29.427   0.353
81451W        W40987  22.250  44.434   0.946
81452W        W40988   1.919  32.054   2.838
81453W        W40989  40.018   2.869  13.516
81454W        W40990   1.238  10.710  10.620
81455W        W40991  42.320  38.028   3.378
81456W        W40992  42.414   0.317  12.422
81457W        W40993  44.414  12.277   9.515
81458W        W40994   9.324  13.108  11.486
81459W        W40995  39.941  35.487  11.002
81460W        W40996   7.709  35.494   0.473
81461W        W40997  15.158  26.067   4.611
81462W        W40998  15.659  27.079   3.653
81463W        W40999   0.784  21.704  14.847
81464W        W41000  36.844  10.215   3.342
81465W        W41001  34.614   3.913   4.763
81466W        W41002  43.021  37.578  14.382
81467W        W41003   4.817   7.675   4.832
81468W        W41004  21.517  17.269   3.320
81469W        W41005  33.437  16.239   4.117
81470W        W41006   6.845  26.609   1.386
81471W        W41007  11.752  28.532  12.952
81472W        W41008   6.779  23.203   0.957
81473W        W41009  11.773   0.399  13.373
81474W        W41010   8.298  30.638   4.769
81475W        W41011  44.378   8.661   1.819
81476W        W41012   1.263   7.174   2.327
81477W        W41013  22.735  37.061  14.332
81478W        W41014   4.213   8.797   4.744
81479W        W41015  40.539  13.118  12.079
81480W        W41016   5.928  14.210   2.338
81481W        W41017  12.679  17.132   1.706
81482W        W41018  33.386   7.246   3.641
81483W        W41019  44.338  14.736   4.308
81484W        W41020  16.747  24.084  13.467
81485W        W41021  16.806  22.620   3.644
81486W        W41022  12.826  38.913   2.850
81487W        W41023  36.409  16.597  12.066
81488W        W41024  44.279  19.134   1.843
81489W        W41025  27.116  31.023   1.249
81490W        W41026  38.875  29.435   3.206
81491W        W41027   8.854   7.780  12.898
81492W        W41028  35.408  44.826  11.069
81493W        W41029  43.788  37.338  10.098
81494W        W41030  31.016  41.523   4.608
81495W        W41031  29.123  37.038   3.770
81496W        W41032  34.984  40.946   0.417
81497W        W41033  30.555  17.161   2.373
81498W        W41034  34.569  40.517   3.218
81499W        W41035  22.670  24.066   2.739
81500W        W41036  19.178  16.642  11.945
81501W        W41037  20.229  22.173   1.304
81502W        W41038  17.226  43.809  11.902
81503W        W41039  33.412  11.653   1.321
81504W        W41040  37.896   1.397   1.213
81505W        W41041  15.202  39.406  10.571
81506W        W41042  29.937  19.637   1.225
81507W        W41043  30.995   4.919  14.299
81508W        W41044  44.923  20.632   3.765
81509W        W41045  33.958  25.082   3.208
81510W        W41046   2.877  37.995   4.131
81511W        W41047  18.581  36.505  14.446
81512W        W41048   4.768  20.224  14.300
81513W        W41049  25.043  15.097   2.384
81514W        W41050  16.125  12.613   2.362
81515W        W41051  21.545  37.498   3.708
81516W        W41052  35.579  37.914  13.419
81517W        W41053   6.311  10.833  11.867
81518W        W41054  40.432  29.670  10.521
81519W        W41055  35.366  16.226   2.780
81520W        W41056  33.557  20.054   1.762
81521W        W41057  38.565  10.370   4.287
81522W        W41058  33.504  32.619   1.882
81523W        W41059   3.755  24.547  13.524
81524W        W41060  20.705  28.621   1.707
81525W        W41061  31.565  34.917   1.911
81526W        W41062  28.119  22.078   4.288
81527W        W41063  42.371  33.889   1.894
81528W        W41064  17.170  11.743   3.366
81529W        W41065   6.729  26.501  10.509
81530W        W41066  37.949  15.320  11.948
81531W        W41067  38.368  13.233  12.416
81532W        W41068   4.325  13.302   0.374
81533W        W41069  13.350  11.345   3.742
81534W        W41070   7.817   0.863  11.908
81535W        W41071  42.001  30.505  10.564
81536W        W41072  40.805  23.549  12.998
81537W        W41073  19.243  37.055  12.834
81538W        W41074  22.550   3.267  11.016
81539W        W41075  11.314  24.651  14.503
81540W        W41076  33.011  21.206  13.332
81541W        W41077  30.933  26.460   1.924
81542W        W41078  11.209   2.782  13.518
81543W        W41079   0.872  35.481   2.394
81544W        W41080  12.787  28.134  12.023
81545W        W41081  32.526  33.529   2.358
81546W        W41082  39.057  20.154   0.897
81547W        W41083  22.207  27.083  12.950
81548W        W41084  39.930  18.239   4.350
81549W        W41085   6.786   9.668  14.020
81550W        W41086  38.072  29.108   3.350
81551W        W41087  29.538  16.592  13.009
81552W        W41088  32.971  33.621  12.509
81553W        W41089  13.683  29.146   0.739
81554W        W41090  18.670  29.455  14.384
81555W        W41091  22.076  14.629  12.457
81556W        W41092  11.215  38.421  12.998
81557W        W41093  40.326  25.702  11.088
81558W        W41094   8.328  25.589   5.135
81559W        W41095   4.722  20.199   3.252
81560W        W41096  13.328  25.480   1.830
81561W        W41097   7.289  11.294  11.887
81562W        W41098  20.175   4.859  10.098
81563W        W41099  38.412  22.222  14.432
81564W        W41100  43.930  42.850   2.390
81565W        W41101   2.449  15.819  11.979
81566W        W41102  29.147  14.794  12.079
81567W        W41103   8.323  28.553   4.289
81568W        W41104  11.194  12.131  10.625
81569W        W41105  23.615  42.996   3.157
81570W        W41106  44.916  40.936   2.381
81571W        W41107  34.886  43.004  10.134
81572W        W41108  17.138  26.699  13.443
81573W        W41109  26.970  38.551   1.823
81574W        W41110  22.712  16.077  14.513
81575W        W41111  40.860  12.133   1.316
81576W        W41112  27.544   0.310  11.000
81577W        W41113  36.487  14.235   2.741
81578W        W41114  18.156  18.096   3.264
81579W        W41115  33.552  20.759  13.546
81580W        W41116  24.113  10.837  13.853
81581W        W41117  20.671  31.638   0.276
81582W        W41118   3.414  15.618  12.377
81583W        W41119  26.102   5.243   2.718
81584W        W41120  19.229   6.376  14.828
81585W        W41121  29.503  36.987   3.716
81586W        W41122   9.655  13.813   2.228
81587W        W41123  15.737   6.733  10.574
81588W        W41124   4.287  38.935   4.673
81589W        W41125  23.224  20.172   1.891
81590W        W41126  19.654  12.646  11.453
81591W        W41127   5.701   5.429   3.672
81592W        W41128  21.704  30.067  14.304
81593W        W41129   6.676  32.063  13.815
81594W        W41130  36.381  39.494   1.353
81595W        W41131  41.849  44.817   2.858
81596W        W41132  22.215  33.507  12.551
81597W        W41133  15.098  35.879   2.770
81598W        W41134   8.361  20.607  10.983
81599W        W41135  24.560   3.258  13.879
81600W        W41136  28.983  24.709  12.513
81601W        W41137  18.212  40.321  10.930
81602W        W41138  13.736  29.503   4.798
81603W        W41139  36.966  12.741   2.668
81604W        W41140  35.962   0.806   2.283
81605W        W41141  10.833  29.003   4.221
81606W        W41142  39.559  35.542  12.414
81607W        W41143  41.860  36.004   0.410
81608W        W41144  12.629   1.849   4.216
81609W        W41145  31.525  42.921  14.976
81610W        W41146  32.898  28.076   2.250
81611W        W41147  30.576  12.720  14.952
81612W        W41148  25.655  32.129   0.289
81613W        W41149  41.295  40.891  12.549
81614W        W41150  10.240  36.911   0.922
81615W        W41151  26.131  29.665  12.399
81616W        W41152  18.582  44.982   3.651
81617W        W41153  25.155   4.867   2.862
81618W        W41154  20.767   0.988  11.551
81619W        W41155  31.402  44.264   0.338
81620W        W41156   2.908  19.120  12.380
81621W        W41157   6.885  13.337   4.762
81622W        W41158  38.483  24.558   0.805
81623W        W41159   4.738   8.702   2.882
81624W        W41160  37.866  24.664  13.034
81625W        W41161  42.283  19.756  12.911
81626W        W41162  24.488   0.825  11.074
81627W        W41163   8.756  11.700   4.191
81628W        W41164   7.315  31.932   4.233
81629W        W41165   4.807   4.262  10.624
81630W        W41166  14.151  16.083   0.804
81631W        W41167  15.594  14.633  14.871
81632W        W41168   4.938  18.776  14.888
81633W        W41169  17.576   5.841   3.267
81634W        W41170  17.237  19.758  13.890
81635W        W41171  38.896  26.008   0.429
81636W        W41172   1.753  30.956  13.944
81637W        W41173  14.264  17.796  13.904
81638W        W41174  23.024  43.405   4.301
81639W        W41175  13.236  38.545  11.868
81640W        W41176  37.926  20.182  12.881
81641W        W41177  35.924  14.588   3.691
81642W        W41178  26.512   7.813   0.366
81643W        W41179  25.651  41.299   5.085
81644W        W41180  13.249  25.516  12.017
81645W        W41181  43.994  21.125  14.450
81646W        W41182   8.820   4.371  10.890
81647W        W41183  18.575  27.191  13.519
81648W        W41184  38.379   8.307   1.811
81649W        W41185   2.896  31.423  14.431
81650W        W41186  13.799  41.295   1.251
81651W        W41187  24.508  18.691  11.459
81652W        W41188  30.413  30.455  14.508
81653W        W41189  13.195  32.402   0.279
81654W        W41190  39.813   4.251  10.639
81655W        W41191  23.591  17.560   5.699
81656W        W41192  19.592   7.341  14.462
81657W        W41193  19.578   8.256  14.456
81658W        W41194   4.710  29.511   2.745
81659W        W41195  23.720  32.483  11.986
81660W        W41196  30.475  17.617   0.254
81661W        W41197  40.453  11.689  13.803
81662W        W41198  35.016  42.408  12.505
81663W        W41199  12.826   3.316   2.827
81664W        W41200  26.118  11.350  13.465
81665W        W41201  34.069  25.586   2.837
81666W        W41202  29.047   9.336   2.359
81667W        W41203   7.277  36.429  11.560
81668W        W41204   2.306   2.935  12.373
81669W        W41205  12.854  30.417   3.233
81670W        W41206  25.629  10.314   1.280
81671W        W41207   6.419  41.442   0.465
81672W        W41208  39.552  38.926   4.794
81673W        W41209  11.833  31.406  14.344
81674W        W41210  20.666  32.605  12.553
81675W        W41211  21.201  26.069  14.851
81676W        W41212  29.064  12.273   3.747
81677W        W41213   4.809  10.737  11.065
81678W        W41214  11.350  18.719   0.284
81679W        W41215   6.253   6.372   1.239
81680W        W41216  23.130  21.695   2.823
81681W        W41217  41.964  22.561   2.670
81682W        W41218   7.201   2.725  11.099
81683W        W41219   1.737  38.477  13.323
81684W        W41220  22.685  32.636  10.985
81685W        W41221  41.816   0.462   4.216
81686W        W41222   2.344  28.621  11.483
81687W        W41223  15.751  34.530   2.318
81688W        W41224  38.957  23.233   0.438
81689W        W41225  38.826  40.922   2.697
81690W        W41226  30.968  10.811  13.812
81691W        W41227  34.513  11.263  10.502
81692W        W41228   3.305   2.937   1.706
81693W        W41229  30.450  31.591  11.584
81694W        W41230   8.237  15.190   2.742
81695W        W41231  18.234  35.419  10.629
81696W        W41232  39.050  33.118  10.532
81697W        W41233   4.698  14.605  11.581
81698W        W41234   0.310  31.481  14.362
81699W        W41235   6.738   5.800  14.498
81700W        W41236  36.992  22.174  13.867
81701W        W41237  29.482  13.802  14.380
81702W        W41238   8.188  11.821  13.812
81703W        W41239  32.909   5.252   1.695
81704W        W41240  28.540   8.252   3.813
81705W        W41241  18.285  29.031   0.920
81706W        W41242  21.240  15.098  14.957
81707W        W41243  38.884   8.858   2.372
81708W        W41244  27.567  12.161  11.379
81709W        W41245  38.970   3.312  13.822
81710W        W41246  20.579  19.573  13.397
81711W        W41247  13.691  24.978   0.260
81712W        W41248  19.071   1.799   3.160
81713W        W41249   1.800  23.701  11.499
81714W        W41250   7.690  26.596   0.291
81715W        W41251  36.462   7.404   2.835
81716W        W41252   4.837  43.921   4.642
81717W        W41253  12.826  36.958  12.381
81718W        W41254  14.787  44.933  11.968
81719W        W41255   1.277  40.936  14.964
81720W        W41256  30.154   8.713   3.182
81721W        W41257  19.174  35.912  14.030
81722W        W41258  33.526  44.424  13.042
81723W        W41259   2.255  17.160  12.889
81724W        W41260   9.874  17.261   4.338
81725W        W41261  14.717  29.580   4.158
81726W        W41262  23.177   6.335  12.975
81727W        W41263  23.606  43.328   3.169
81728W        W41264  41.023  41.346  10.468
81729W        W41265   0.764  34.906   0.393
81730W        W41266  29.596   8.697   4.752
81731W        W41267  35.886  44.281   2.853
81732W        W41268  29.918   7.823  13.467
81733W        W41269   0.974  18.622   3.696
81734W        W41270   0.873  17.248   2.718
81735W        W41271  13.649  14.137   4.219
81736W        W41272   1.368  13.297   4.312
81737W        W41273  42.928  32.902   0.953
81738W        W41274   8.880  41.900   2.865
81739W        W41275  36.862  13.815   0.876
81740W        W41276  36.434  40.485   4.157
81741W        W41277  14.642  33.029  12.088
81742W        W41278   4.389   1.959  10.490
81743W        W41279  22.058  13.744  11.928
81744W        W41280  14.768  33.433   4.217
81745W        W41281  24.180  30.052   1.317
81746W        W41282   2.437  24.555  13.487
81747W        W41283  20.130  38.024   1.881
81748W        W41284  17.139   9.667   0.379
81749W        W41285   3.937  31.150  12.854
81750W        W41286  31.541   0.869   2.252
81751W        W41287  39.810  34.024  12.010
81752W        W41288   0.401  40.463  10.961
81753W        W41289  21.091  39.966   0.417
81754W        W41290  16.090  27.459   1.928
81755W        W41291   8.245   8.847   3.356
81756W        W41292   9.181  16.585   1.932
81757W        W41293  10.668  19.214  11.990
81758W        W41294  10.865  25.973   1.896
81759W        W41295  22.663  31.512   0.243
81760W        W41296  36.908   9.222   1.218
81761W        W41297  28.625  26.021  13.925
81762W        W41298   7.881  44.800  14.853
81763W        W41299  29.097  16.781   0.382
81764W        W41300  20.691  10.741  13.003
81765W        W41301  24.127  11.669  14.858
81766W        W41302   2.750  43.428  12.371
81767W        W41303  31.084   3.262  13.831
81768W        W41304  36.468   5.215   0.796
81769W        W41305  31.099  22.647  12.936
81770W        W41306   6.803   6.349  14.911
81771W        W41307  29.609  41.880   0.896
81772W        W41308  24.055  19.552   3.157
81773W        W41309  25.586   8.671   5.141
81774W        W41310  34.466  23.158  13.382
81775W        W41311  35.956  14.111   0.448
81776W        W41312  20.032  11.651  10.025
81777W        W41313  10.144   4.342  13.897
81778W        W41314  23.092  27.124   3.318
81779W        W41315  21.064  18.099   2.404
81780W        W41316  32.123   0.372  14.808
81781W        W41317   3.829  21.744  11.886
81782W        W41318  11.335  36.057   1.434
81783W        W41319  14.749  33.389   3.253
81784W        W41320  20.256  20.735   3.855
81785W        W41321  28.544  40.322  10.959
81786W        W41322  41.391  17.197  12.961
81787W        W41323  21.106  15.658  12.467
81788W        W41324  22.658  27.964  12.094
81789W        W41325  33.998  38.447   1.818
81790W        W41326  22.070  40.807  11.420
81791W        W41327  31.434  20.528   3.866
81792W        W41328   5.426  19.080   4.120
81793W        W41329   3.401   2.238   4.237
81794W        W41330  35.406  13.656  13.873
81795W        W41331  18.208  26.154   2.715
81796W        W41332  10.364  19.682  11.976
81797W        W41333  42.967  44.263   0.815
81798W        W41334   1.743  38.538  13.002
81799W        W41335  34.042   5.836  14.292
81800W        W41336  20.067  23.076   2.733
81801W        W41337  44.433  29.481   1.776
81802W        W41338  17.575  10.739   2.402
81803W        W41339   3.847  38.013   4.675
81804W        W41340  23.702   5.227   3.726
81805W        W41341  34.602  25.469   3.744
81806W        W41342  16.288   7.230  14.456
81807W        W41343  21.612   8.390   4.824
81808W        W41344  13.775  21.572  11.519
81809W        W41345   3.945  22.047   3.693
81810W        W41346  24.533  22.173  11.404
81811W        W41347  20.144  17.233  11.900
81812W        W41348   8.368   1.923   3.840
81813W        W41349  37.454  16.198   3.255
81814W        W41350   6.918  39.463  11.901
81815W        W41351  39.367  22.617   1.788
81816W        W41352   8.211  35.863  12.065
81817W        W41353  19.244  24.199  12.945
81818W        W41354   2.302  12.839   2.849
81819W        W41355  16.161  10.661  14.030
81820W        W41356  22.643  28.532   1.724
81821W        W41357  25.644   9.749   1.380
81822W        W41358  32.462  19.081   0.953
81823W        W41359  10.307  27.596   0.740
81824W        W41360  34.436  33.094  14.933
81825W        W41361   4.730  36.905  13.015
81826W        W41362  36.064  10.195   4.716
81827W        W41363  44.299  36.023  11.923
81828W        W41364  41.346  14.781   4.831
81829W        W41365  19.176  20.097   3.293
81830W        W41366   2.373  38.377   0.942
81831W        W41367  12.235   8.304   1.335
81832W        W41368  11.327  43.482   4.261
81833W        W41369   5.749  40.051   1.750
81834W        W41370   6.250  22.541  11.970
81835W        W41371  22.069   2.931   5.155
81836W        W41372   4.437  41.298   3.818
81837W        W41373   7.774  26.159  14.937
81838W        W41374  32.924  40.824  12.440
81839W        W41375   2.854  11.143   4.235
81840W        W41376   1.404   9.740  10.957
81841W        W41377  12.283  29.458   2.893
81842W        W41378  34.421  40.390   3.675
81843W        W41379  42.303  17.754   0.728
81844W        W41380  27.983  33.433  12.442
81845W        W41381  33.471  18.631  12.877
81846W        W41382  30.468  13.281  12.026
81847W        W41383  41.425  13.166   3.827
81848W        W41384  28.175  24.064  12.554
81849W        W41385  29.004  41.876   4.695
81850W        W41386  13.692  16.299  11.081
81851W        W41387  22.582  38.950   4.838
81852W        W41388  39.516  19.047  12.917
81853W        W41389   6.376  33.067   4.350
81854W        W41390  10.168   9.890   4.183
81855W        W41391   6.335  27.587   3.761
81856W        W41392  40.023  12.281  12.877
81857W        W41393  10.314   9.758   2.182
81858W        W41394  34.898  23.629   2.771
81859W        W41395  19.560  14.781   0.332
81860W        W41396   1.970  14.808   3.707
81861W        W41397  16.153  15.267   4.196
81862W        W41398  39.874  22.540   2.771
81863W        W41399   8.719  37.019  14.455
81864W        W41400  41.489  29.577   3.708
81865W        W41401  15.247  40.339  13.459
81866W        W41402  29.439  15.166  10.483
81867W        W41403   2.722  26.133   2.672
81868W        W41404  33.057  10.759   0.341
81869W        W41405  37.852  39.422   0.936
81870W        W41406  39.340  12.803   0.755
81871W        W41407  15.101   9.672   4.273
81872W        W41408  36.875  10.219   4.300
81873W        W41409  14.701   0.883  11.079
81874W        W41410  12.146  39.314  14.027
81875W        W41411  26.517  26.077  13.958
81876W        W41412  12.295   4.745   3.757
81877W        W41413   1.734  43.293   3.195
81878W        W41414  14.692  22.523  14.918
81879W        W41415  19.045  38.015  11.555
81880W        W41416  23.178   6.403   1.825
81881W        W41417  32.008  36.087   5.238
81882W        W41418   4.322  14.227   3.302
81883W        W41419  32.067  32.087   0.862
81884W        W41420   4.777   7.388  13.396
81885W        W41421  23.151  33.021  14.836
81886W        W41422  23.178  18.786  13.368
81887W        W41423  30.154  15.315  10.625
81888W        W41424  43.998  32.958  12.018
81889W        W41425  13.310   8.234  13.520
81890W        W41426  19.223  39.898   2.893
81891W        W41427  20.714  38.374   4.124
81892W        W41428   2.796  39.348  12.839
81893W        W41429  11.259  38.053   3.821
81894W        W41430  14.701  22.215   0.284
81895W        W41431  13.164  15.781  14.879
81896W        W41432  33.023  42.864  11.101
81897W        W41433  10.799  23.617  14.854
81898W        W41434  23.023  39.414   3.158
81899W        W41435  26.974  24.687  12.940
81900W        W41436   2.297  22.634  10.935
81901W        W41437  26.462  16.104   2.336
81902W        W41438  38.957  25.540  10.645
81903W        W41439  17.210   3.276  12.463
81904W        W41440  28.436  37.887   3.674
81905W        W41441  38.820  19.229   1.901
81906W        W41442  29.128  35.103   3.705
81907W        W41443  22.236  29.002  13.506
81908W        W41444  17.742  18.061  10.976
81909W        W41445  28.053   9.149  14.791
81910W        W41446  44.461  39.981  10.953
81911W        W41447  30.948  31.592  11.065
81912W        W41448  39.525  38.925   3.266
81913W        W41449  38.002  17.626   1.752
81914W        W41450  41.863  27.980   9.984
81915W        W41451   9.727  10.878   0.448
81916W        W41452  31.983  44.943   0.826
81917W        W41453  32.027  22.582  13.859
81918W        W41454  39.536  22.137   0.767
81919W        W41455  41.489  10.714  14.419
81920W        W41456  29.025  13.162   2.240
81921W        W41457   4.226   0.912   1.250
81922W        W41458   1.760  37.377  14.361
81923W        W41459  11.326   2.939   1.900
81924W        W41460   2.320  32.987  13.807
81925W        W41461  24.984  15.274  13.822
81926W        W41462  37.960  39.898  14.327
81927W        W41463   9.183  17.562  14.991
81928W        W41464  39.324   2.329   2.719
81929W        W41465   8.762  25.128  13.030
81930W        W41466  17.090   1.398  13.950
81931W        W41467  20.079   2.879  10.543
81932W        W41468  14.718  38.994  11.015
81933W        W41469   4.788  17.275   0.743
81934W        W41470  44.486  36.983  10.561
81935W        W41471  32.915  26.976  11.884
81936W        W41472  37.869  34.086  12.396
81937W        W41473  42.354  36.987   1.274
81938W        W41474  37.082  40.516  13.362
81939W        W41475  27.049   9.285  14.338
81940W        W41476  40.826  11.656   3.687
81941W        W41477  20.721   9.831   4.650
81942W        W41478  43.503  34.071  14.843
81943W        W41479  31.102  15.321   0.264
81944W        W41480  23.146  37.087   4.771
81945W        W41481  35.471   6.677   3.733
81946W        W41482  24.097   5.426  14.030
81947W        W41483  17.794  39.344  11.579
81948W        W41484  39.382  35.939   3.784
81949W        W41485  10.361  23.515  13.518
81950W        W41486  25.552  18.090   3.243
81951W        W41487  12.623  10.279  14.882
81952W        W41488  21.193  29.132  12.979
81953W        W41489   6.728  23.071   2.242
81954W        W41490  14.113  24.070  10.893
81955W        W41491  39.044  35.375  11.107
81956W        W41492   1.263  22.123   5.195
81957W        W41493   9.711  32.038   0.455
81958W        W41494  37.939  17.118  11.529
81959W        W41495   3.279  17.713  12.983
81960W        W41496  16.248   9.682   4.770
81961W        W41497  16.142  42.986   5.098
81962W        W41498  22.566   1.806   1.754
81963W        W41499   6.229   0.345   3.688
81964W        W41500  42.881  27.130  12.360
81965W        W41501  12.328   7.184  13.501
81966W        W41502   2.745  30.421  14.917
81967W        W41503  44.957  43.968   0.420
81968W        W41504   0.900  32.563  11.915
81969W        W41505   6.370  11.767  11.046
81970W        W41506  17.788   4.715  12.043
81971W        W41507  26.987  24.086  13.343
81972W        W41508  36.392  33.592   0.857
81973W        W41509  43.476  27.485   2.848
81974W        W41510  31.530  26.642   2.267
81975W        W41511  32.007  35.957   4.775
81976W        W41512  32.598   2.732   3.269
81977W        W41513   4.937  30.912   2.403
81978W        W41514  30.039  28.554   4.140
81979W        W41515  40.365  39.862   4.142
81980W        W41516   8.850  12.743  11.108
81981W        W41517   8.773  44.907   1.825
81982W        W41518  36.993  38.324   4.320
81983W        W41519  31.452  19.746   0.907
81984W        W41520  42.883  41.877  12.349
81985W        W41521  27.140  43.891  14.382
81986W        W41522  10.734  27.958   0.264
81987W        W41523  16.252  42.998   3.156
81988W        W41524   2.764  26.610   1.273
81989W        W41525  23.551  16.251  14.373
81990W        W41526  22.012  14.762  12.899
81991W        W41527  43.400  31.568   4.333
81992W        W41528  30.105  12.701   0.472
81993W        W41529  11.150  43.943  13.033
81994W        W41530  21.531  10.646  11.898
81995W        W41531  34.024  39.915   1.821
81996W        W41532   3.292  43.399   4.299
81997W        W41533  43.439  10.870   1.430
81998W        W41534  33.386  38.467   4.704
81999W        W41535  36.865  42.504   1.317
82000W        W41536  11.362  25.601   2.342
82001W        W41537  11.727  17.559   3.385
82002W        W41538   2.918   4.329  13.351
82003W        W41539  10.719   2.885   4.620
82004W        W41540  29.069   8.185   3.356
82005W        W41541  28.565  36.928   0.906
82006W        W41542  44.501  21.561  11.513
82007W        W41543  23.176  30.921   3.779
82008W        W41544  40.990  37.846  11.120
82009W        W41545  33.465  34.442  11.432
82010W        W41546   0.465   7.773  12.497
82011W        W41547  14.724  37.342   3.262
82012W        W41548  30.614  27.679   1.338
82013W        W41549  32.527  23.585  12.452
82014W        W41550  41.472  15.330  11.902
82015W        W41551  10.378  28.510  14.923
82016W        W41552  27.138  22.714  13.467
82017W        W41553   2.438  36.349   0.750
82018W        W41554  36.543  13.785  14.019
82019W        W41555   0.249  40.390   1.367
82020W        W41556  15.155  44.968   4.119
82021W        W41557  28.514  38.495  14.456
82022W        W41558  36.438  42.013   4.223
82023W        W41559  10.300  22.170  14.863
82024W        W41560  34.995  18.739  14.358
82025W        W41561  12.337  21.241   1.714
82026W        W41562  13.190   2.851   4.218
82027W        W41563  41.873   5.367   2.316
82028W        W41564  40.548   8.834   2.899
82029W        W41565  20.528  23.109   2.363
82030W        W41566   3.818  32.029   3.210
82031W        W41567  12.143  21.176  10.612
82032W        W41568  13.631  36.091  10.562
82033W        W41569  43.964   1.441   3.275
82034W        W41570  41.418  44.776   4.773
82035W        W41571  29.604  38.569   2.337
82036W        W41572  41.439   0.933   2.818
82037W        W41573  27.120  44.760   4.688
82038W        W41574  28.059  27.447  11.498
82039W        W41575  33.891  19.095   3.371
82040W        W41576  24.583  19.146  13.449
82041W        W41577  35.408  16.720  11.922
82042W        W41578  21.622  24.492  11.425
82043W        W41579  41.848  34.965   4.800
82044W        W41580  39.854  15.083  14.505
82045W        W41581  36.420  35.951  13.980
82046W        W41582  17.206  27.507   3.271
82047W        W41583   9.165  15.630  13.816
82048W        W41584  22.077  16.781   4.619
82049W        W41585   6.852   2.417   0.292
82050W        W41586  42.885   5.235   3.241
82051W        W41587  19.164  36.353  13.830
82052W        W41588  17.063   3.265  10.135
82053W        W41589  26.162  38.869  14.400
82054W        W41590  34.917  32.957  10.460
82055W        W41591  14.260  12.687   3.803
82056W        W41592  25.567  19.540   2.849
82057W        W41593   2.357  38.993  13.856
82058W        W41594  41.337  23.661  11.546
82059W        W41595  34.480  25.014  12.446
82060W        W41596  10.210   6.348  14.458
82061W        W41597  24.037  32.051   1.328
82062W        W41598  18.205   5.887   2.248
82063W        W41599  37.416  26.986  10.999
82064W        W41600  33.507   9.227  14.431
82065W        W41601  19.226  36.043   2.868
82066W        W41602   3.735  15.291  11.571
82067W        W41603  27.597  41.978  11.499
82068W        W41604  15.696  11.172   1.251
82069W        W41605   0.870  25.978   3.341
82070W        W41606  18.294  10.250   2.337
82071W        W41607  35.512   5.281  12.520
82072W        W41608  35.941  41.520  14.334
82073W        W41609  34.418   6.685   4.278
82074W        W41610  19.259  17.664  13.791
82075W        W41611  44.993  41.043   3.244
82076W        W41612  18.704  40.530   2.778
82077W        W41613  23.202  43.342   1.812
82078W        W41614  23.569  33.996   2.859
82079W        W41615   2.340  22.677   5.693
82080W        W41616  23.214  27.674  12.418
82081W        W41617  33.980  13.798  12.840
82082W        W41618  19.221  43.290  13.949
82083W        W41619  38.849  36.083  13.521
82084W        W41620  26.062   0.449   1.349
82085W        W41621  41.319   8.293   1.917
82086W        W41622  34.034   9.863   3.850
82087W        W41623  32.073  41.880   3.637
82088W        W41624  35.568  31.045   4.178
82089W        W41625  29.654  29.965  11.865
82090W        W41626  20.530   1.745   2.414
82091W        W41627   5.735  41.530  10.984
82092W        W41628  31.544  36.481  12.978
82093W        W41629   5.204   1.467   0.259
82094W        W41630  15.804  33.533  14.363
82095W        W41631   3.452  31.077   3.226
82096W        W41632  15.118  40.340   1.803
82097W        W41633  10.344  34.928   2.854
82098W        W41634  26.518  42.783  12.947
82099W        W41635  12.617  13.836  10.888
82100W        W41636  41.505  32.443   1.367
82101W        W41637   4.899  25.139  11.558
82102W        W41638  30.119  21.612   0.800
82103W        W41639  13.813  26.583   4.313
82104W        W41640  37.064  30.108  12.852
82105W        W41641  33.607   3.321   2.201
82106W        W41642  44.463  37.527   0.340
82107W        W41643  35.523   5.249   4.114
82108W        W41644  16.155  36.586   1.272
82109W        W41645  34.397  26.049  14.302
82110W        W41646  12.140  24.171  11.090
82111W        W41647   3.833   8.220   3.750
82112W        W41648  17.686  38.362   1.425
82113W        W41649  28.974   8.688  11.378
82114W        W41650   1.456  42.005  11.918
82115W        W41651  37.430  15.172  11.608
82116W        W41652  29.086  37.885  10.564
82117W        W41653   8.719  25.968  14.401
82118W        W41654  10.140  40.992   4.686
82119W        W41655  25.549  41.015   1.403
82120W        W41656  41.502   0.901   4.706
82121W        W41657  11.630  24.058   0.794
82122W        W41658  32.599   8.749  14.838
82123W        W41659  35.079  19.722   2.732
82124W        W41660  25.214   5.431   2.296
82125W        W41661  34.400  44.495  14.486
82126W        W41662  44.289  28.667   1.391
82127W        W41663  26.694  17.129   3.756
82128W        W41664   1.842   8.711   1.236
82129W        W41665  25.038   7.277  14.874
82130W        W41666  39.347   9.665   2.666
82131W        W41667   0.752  37.970  11.577
82132W        W41668   7.214   1.260  10.887
82133W        W41669   1.254   8.738   2.313
82134W        W41670  15.138   8.669   4.711
82135W        W41671  25.143  19.762   3.302
82136W        W41672  17.585  21.637  12.046
82137W        W41673  34.026  29.008   3.764
82138W        W41674  20.618   7.860  11.969
82139W        W41675   9.703  23.121   4.675
82140W        W41676   2.886   0.892  11.113
82141W        W41677  24.685  13.142   0.934
82142W        W41678   9.326  39.330  10.966
82143W        W41679  17.125  30.425   4.195
82144W        W41680   2.880  28.061   1.343
82145W        W41681  44.290   5.834  13.014
82146W        W41682  43.308  30.046   2.866
82147W        W41683  31.023   4.380   4.606
82148W        W41684  40.913   4.832  11.077
82149W        W41685  43.441  28.183  14.417
82150W        W41686  25.039  19.556  12.938
82151W        W41687  21.741  32.436  12.094
82152W        W41688  40.860   2.887  13.022
82153W        W41689  34.004  12.186   1.216
82154W        W41690  43.001  40.360   1.361
82155W        W41691  31.054  16.761  12.946
82156W        W41692   7.400  42.419   2.311
82157W        W41693  37.909  17.712  11.026
82158W        W41694  39.885   1.408  14.325
82159W        W41695  35.925   8.659   3.197
82160W        W41696  39.997  43.373   0.291
82161W        W41697   7.797   5.206   4.776
82162W        W41698   1.818  18.283   4.722
82163W        W41699  33.105  31.901   0.347
82164W        W41700  10.778  36.422  12.418
82165W        W41701  36.854  43.344   2.268
82166W        W41702  37.851  34.436   0.938
82167W        W41703  29.932  28.127   3.347
82168W        W41704  27.093  14.306  10.984
82169W        W41705   4.894  15.682  14.505
82170W        W41706  32.443  28.496   1.885
82171W        W41707  29.513  15.220   4.715
82172W        W41708  15.699  11.793  10.047
82173W        W41709  10.719   5.732   2.776
82174W        W41710  20.682   8.274  13.359
82175W        W41711   1.761  21.557  13.940
82176W        W41712  18.271   5.871   0.871
82177W        W41713  18.229  31.978  14.799
82178W        W41714  11.355   5.333   4.780
82179W        W41715  36.080   8.371  12.956
82180W        W41716  32.546   6.268  13.529
82181W        W41717  25.490  33.935  12.376
82182W        W41718  38.502  15.166  12.370
82183W        W41719  41.855  27.588  10.606
82184W        W41720  28.502  30.583   5.281
82185W        W41721  10.834  37.967   0.742
82186W        W41722   0.274   8.380  10.630
82187W        W41723   9.342  22.502  14.786
82188W        W41724  30.040  12.726  14.364
82189W        W41725  23.561  13.165   4.214
82190W        W41726   5.367   7.303   1.873
82191W        W41727  43.448   5.384  12.018
82192W        W41728   8.331  39.319   0.947
82193W        W41729  26.589  12.766   3.739
82194W        W41730  31.952  24.088  10.925
82195W        W41731   9.369  25.487  12.988
82196W        W41732  41.388   8.287   0.806
82197W        W41733  21.233  33.061  14.855
82198W        W41734  20.628  19.550   4.832
82199W        W41735  32.065   7.903   3.742
82200W        W41736  10.691   2.862  14.421
82201W        W41737  27.555  10.871  12.347
82202W        W41738  15.171  36.071   4.815
82203W        W41739  42.977   7.313   3.786
82204W        W41740  26.989  11.784  14.917
82205W        W41741  44.992  33.586   0.774
82206W        W41742  33.011  28.147   3.152
82207W        W41743  40.848  25.564   4.670
82208W        W41744   2.391  15.290   1.851
82209W        W41745   3.717   9.288   1.755
82210W        W41746  42.954  20.081   3.163
82211W        W41747  23.138   4.755  14.279
82212W        W41748  34.520  13.270  11.592
82213W        W41749  10.382  19.625   4.713
82214W        W41750  34.475  33.546   2.299
82215W        W41751  13.817   2.413  11.469
82216W        W41752  19.217  25.002  11.920
82217W        W41753  33.523   2.805  14.294
82218W        W41754   1.244   4.234   0.380
82219W        W41755  18.648   6.342   1.770
82220W        W41756  36.505   0.297  11.374
82221W        W41757  29.519   0.955   4.182
82222W        W41758  21.033  25.489   2.810
82223W        W41759   6.872  37.894  12.054
82224W        W41760  32.102  35.529  11.457
82225W        W41761   7.371   9.807  14.356
82226W        W41762  34.965  34.084   2.902
82227W        W41763  16.674   5.284   3.734
82228W        W41764  27.193  30.524  13.518
82229W        W41765  35.419  37.857   1.793
82230W        W41766  37.985  12.668   2.193
82231W        W41767  11.662  23.650   4.217
82232W        W41768  30.069  30.078  11.531
82233W        W41769  24.693  33.972   4.209
82234W        W41770   8.850   8.231   2.331
82235W        W41771   1.331  42.996  12.405
82236W        W41772  43.461   2.916   3.262
82237W        W41773  40.829  13.608   3.176
82238W        W41774  23.713  19.048   1.889
82239W        W41775  38.506  26.688   1.850
82240W        W41776  27.590  28.438   0.788
82241W        W41777  35.586  39.466   0.779
82242W        W41778   1.746  22.744   3.787
82243W        W41779  33.544  22.037  11.941
82244W        W41780  25.635   1.295  11.486
82245W        W41781  29.096   7.246   0.845
82246W        W41782  17.579  17.084  13.455
82247W        W41783   4.862  27.588  11.088
82248W        W41784  34.895   6.701  12.425
82249W        W41785  44.813   2.724   3.771
82250W        W41786  13.320   7.758   2.207
82251W        W41787   3.369  31.079  10.440
82252W        W41788  37.521  22.637  12.931
82253W        W41789   6.912   7.218   3.834
82254W        W41790   7.397  40.956   4.188
82255W        W41791  35.421  15.292   3.297
82256W        W41792  21.058  29.120  10.519
82257W        W41793  32.481  36.516   1.386
82258W        W41794  39.031  16.655  14.963
82259W        W41795  17.226  14.255  13.944
82260W        W41796   9.348  12.125  12.091
82261W        W41797  42.435  37.078   2.285
82262W        W41798   2.802  43.861   0.272
82263W        W41799   2.910  32.010  11.927
82264W        W41800   5.301  16.161   3.761
82265W        W41801  42.982  33.565   4.201
82266W        W41802  16.314  34.973   2.346
82267W        W41803  13.619  31.587   1.829
82268W        W41804  26.648   2.793   1.440
82269W        W41805  36.958  23.141  11.953
82270W        W41806  36.456  20.604  11.384
82271W        W41807  25.052  32.908   4.684
82272W        W41808  37.534  19.551  13.800
82273W        W41809   1.881   4.209  12.430
82274W        W41810  39.043   5.739  10.547
82275W        W41811  27.088   8.694   1.291
82276W        W41812  18.084  30.466   2.233
82277W        W41813   2.727  13.698   2.182
82278W        W41814  27.640  15.782   1.793
82279W        W41815  17.274  37.347  13.467
82280W        W41816  33.494  32.406   4.159
82281W        W41817  41.839  21.623  10.900
82282W        W41818  10.195  30.019  12.960
82283W        W41819  24.521  16.760  12.348
82284W        W41820   6.844  41.962   3.777
82285W        W41821  31.455  39.558   0.914
82286W        W41822  28.002  34.895   4.337
82287W        W41823   3.907   7.334   3.217
82288W        W41824  15.721  20.100   0.957
82289W        W41825  21.624   6.307  14.413
82290W        W41826  32.511  25.101   3.363
82291W        W41827  35.986   8.372  12.459
82292W        W41828  25.647  24.644   0.741
82293W        W41829  36.845  41.907   4.730
82294W        W41830  41.464  16.739  14.775
82295W        W41831  37.863   7.414   4.206
82296W        W41832  11.862  37.026   2.738
82297W        W41833  20.714  36.444   3.798
82298W        W41834  29.639  21.124   2.284
82299W        W41835  25.613   0.774   2.819
82300W        W41836  43.462   5.824   0.356
82301W        W41837  19.210   7.682  11.041
82302W        W41838  11.787  27.651  14.418
82303W        W41839   4.301  34.597  12.909
82304W        W41840  40.464  32.419  12.942
82305W        W41841   3.713   5.727  11.584
82306W        W41842  44.418  41.399   9.999
82307W        W41843  15.155  14.300  14.393
82308W        W41844  11.818   5.400   3.313
82309W        W41845   9.753   7.720  13.408
82310W        W41846  18.050  32.395  10.543
82311W        W41847  13.823  16.753   1.274
82312W        W41848  44.365   7.237   0.883
82313W        W41849  27.480  22.018   0.415
82314W        W41850  14.768  19.703   1.737
82315W        W41851  41.413   0.487  14.906
82316W        W41852  23.508  12.789  13.796
82317W        W41853  21.526  25.587   1.785
82318W        W41854  44.301  33.404   5.311
82319W        W41855  23.580  29.613  10.433
82320W        W41856  26.531  30.990  12.836
82321W        W41857  34.894  28.147   3.752
82322W        W41858  39.835  44.831  13.939
82323W        W41859  30.623  40.949  12.870
82324W        W41860   1.261   4.267   2.413
82325W        W41861  15.724  25.098   2.234
82326W        W41862   6.293   0.357  12.045
82327W        W41863  14.207  24.588  13.362
82328W        W41864   9.274  43.314   1.814
82329W        W41865  26.468  26.478   4.639
82330W        W41866  21.727   9.706   3.758
82331W        W41867  31.426  14.809   0.473
82332W        W41868  40.485   1.753  11.386
82333W        W41869  29.644   0.853  13.500
82334W        W41870  27.142  28.640   4.137
82335W        W41871  21.583  32.889   4.676
82336W        W41872  41.378   4.865   1.332
82337W        W41873  15.613  39.896  11.524
82338W        W41874  30.925  35.596   0.904
82339W        W41875  43.334  10.358   2.313
82340W        W41876  36.427  10.789   1.372
82341W        W41877  11.325  10.331   1.412
82342W        W41878  19.108  34.482   1.292
82343W        W41879  21.518   7.719  14.436
82344W        W41880   7.720  28.544  14.945
82345W        W41881  11.128  33.889  14.506
82346W        W41882  34.498  29.645  13.987
82347W        W41883  33.087  42.401  12.080
82348W        W41884  14.294  29.153   2.275
82349W        W41885  40.487   5.199   4.783
82350W        W41886  41.353  22.063  13.967
82351W        W41887  20.636  23.028   1.343
82352W        W41888  31.434  32.097   4.130
82353W        W41889  15.580  12.680  12.570
82354W        W41890  22.520   8.800   1.410
82355W        W41891  13.623  29.611   1.899
82356W        W41892  28.458  18.743   3.758
82357W        W41893   1.887  16.792  13.880
82358W        W41894  32.059  25.659  12.020
82359W        W41895  40.854  21.665  14.822
82360W        W41896  13.827  34.435  11.482
82361W        W41897  44.442   1.252   1.700
82362W        W41898  25.187  13.141  12.005
82363W        W41899   6.316   8.285   3.176
82364W        W41900  14.329  21.541  11.963
82365W        W41901   4.809   2.811  12.553
82366W        W41902  15.278  24.512   3.688
82367W        W41903  27.640   8.192  12.925
82368W        W41904  43.929  24.054   1.931
82369W        W41905  37.081  18.570  14.910
82370W        W41906  20.551   7.901   0.918
82371W        W41907  38.501  30.498   4.177
82372W        W41908  30.543  36.069  10.628
82373W        W41909  17.621   8.834  10.930
82374W        W41910  20.075  31.635  11.885
82375W        W41911  38.996  37.534   3.753
82376W        W41912  32.503   3.360  10.472
82377W        W41913  39.415  12.764   3.724
82378W        W41914  14.338   6.420   0.269
82379W        W41915  41.302  14.327   2.365
82380W        W41916  12.301  15.084   0.339
82381W        W41917   7.299  12.699   1.303
82382W        W41918   1.971   6.897  11.874
82383W        W41919  16.649   4.794  10.956
82384W        W41920  18.096  32.419   2.352
82385W        W41921  14.699  19.537   2.754
82386W        W41922  20.176  14.223   4.742
82387W        W41923   3.267  10.830  10.554
82388W        W41924   5.753   7.719  11.996
82389W        W41925  21.580   2.779  13.999
82390W        W41926   1.278  44.762  11.121
82391W        W41927  13.664   2.400   2.830
82392W        W41928  15.581  36.020  12.436
82393W        W41929  29.083  13.349  10.436
82394W        W41930  27.967  21.659  14.815
82395W        W41931   8.826  19.200   1.934
82396W        W41932  11.339  12.741  12.567
82397W        W41933  28.660  15.230   4.657
82398W        W41934  31.603  15.191   4.284
82399W        W41935  16.603   1.349   1.918
82400W        W41936  21.720  17.595   1.449
82401W        W41937   7.315  22.197  12.041
82402W        W41938  16.708   0.374  11.600
82403W        W41939  27.982  40.872   3.658
82404W        W41940  31.052   3.841   3.179
82405W        W41941  11.856  17.701   0.792
82406W        W41942  16.098  37.837  11.092
82407W        W41943  17.118  13.664   0.285
82408W        W41944  30.993  24.576   0.814
82409W        W41945  10.209  18.625  13.850
82410W        W41946  12.723  43.308   0.940
82411W        W41947  41.341   4.813   0.358
82412W        W41948  14.723  29.635  14.967
82413W        W41949  13.325  43.441  12.011
82414W        W41950  18.056  12.622   3.211
82415W        W41951  20.143  24.696  14.894
82416W        W41952   5.420  14.329   0.312
82417W        W41953  36.359  10.653  12.547
82418W        W41954  26.987  21.667  10.455
82419W        W41955  43.395  11.709  13.473
82420W        W41956  26.184  36.515   1.273
82421W        W41957   1.419  28.488   3.692
82422W        W41958  42.945  18.691   2.190
82423W        W41959  38.869  31.511   3.166
82424W        W41960  22.744  43.373  13.432
82425W        W41961  21.613   5.365   0.338
82426W        W41962  11.623  27.062  10.030
82427W        W41963  20.180  39.035  14.867
82428W        W41964  27.526  29.443   1.783
82429W        W41965  32.910  29.667   2.897
82430W        W41966  27.477  14.818   3.320
82431W        W41967  13.638   4.213  10.487
82432W        W41968  21.529   7.280  14.395
82433W        W41969  41.323   1.739  12.467
82434W        W41970  37.537  30.599   4.801
82435W        W41971   3.761  11.223   2.776
82436W        W41972  27.084  11.128  11.946
82437W        W41973  36.046  11.810  10.553
82438W        W41974  21.149  44.328   0.377
82439W        W41975  16.738  34.121  14.427
82440W        W41976   8.203   5.314   4.639
82441W        W41977   3.953  29.931  11.910
82442W        W41978   0.478  11.177  13.413
82443W        W41979   5.756  10.647  13.503
82444W        W41980  41.404  33.941  10.919
82445W        W41981  42.897  41.319   4.332
82446W        W41982  33.500  34.521   4.157
82447W        W41983  42.802  22.530   0.283
82448W        W41984  18.569  32.408   2.213
82449W        W41985  44.467  16.706   3.339
82450W        W41986  40.016  37.947   4.182
82451W        W41987  17.762   4.360   2.374
82452W        W41988  16.219  41.921  11.487
82453W        W41989   9.157   0.393   4.199
82454W        W41990  32.558   1.381  14.360
82455W        W41991  18.094  31.099   2.867
82456W        W41992  24.584  21.746   0.826
82457W        W41993  32.042  21.082  11.863
82458W        W41994   9.769   6.182   4.815
82459W        W41995  33.967  26.197  12.380
82460W        W41996  36.381  41.852  14.463
82461W        W41997  23.579  11.754  13.927
82462W        W41998  17.125  21.616  14.921
82463W        W41999  15.312   0.468  13.934
82464W        W42000   2.725   4.923  10.413
82465W        W42001  16.134  26.626   3.379
82466W        W42002  10.674  34.424  10.604
82467W        W42003  44.287  22.633  12.419
82468W        W42004   9.301  38.438   3.172
82469W        W42005   6.793   3.737   4.611
82470W        W42006   8.829  36.933  14.808
82471W        W42007  34.469  19.072   0.374
82472W        W42008  31.971   1.832  14.021
82473W        W42009   5.729  41.860   4.236
82474W        W42010  19.585   5.819   0.837
82475W        W42011  13.159   8.769  13.502
82476W        W42012  34.418  41.291   1.428
82477W        W42013  38.488   4.831  13.942
82478W        W42014  26.541  10.372   3.829
82479W        W42015  13.660  15.189  11.539
82480W        W42016  17.724  21.622  12.408
82481W        W42017  39.868  23.004   2.760
82482W        W42018   7.843  18.125  13.347
82483W        W42019   0.477  19.283  14.445
82484W        W42020  40.876  27.518  14.393
82485W        W42021  32.599  29.982  12.421
82486W        W42022  23.128   8.826  11.389
82487W        W42023  15.172  14.120   1.376
82488W        W42024   7.366  39.895   0.484
82489W        W42025   5.844  25.962   4.293
82490W        W42026  44.327  40.862   1.287
82491W        W42027   9.178  25.070   4.772
82492W        W42028  17.178  30.054   2.229
82493W        W42029  21.040   5.837  13.868
82494W        W42030  16.087  42.989   2.276
82495W        W42031  27.511  20.628   0.776
82496W        W42032   3.803   5.386   2.256
82497W        W42033  39.399  37.558   1.278
82498W        W42034   8.655   3.746   2.273
82499W        W42035   3.726  15.708  10.552
82500W        W42036  43.009  26.055  12.042
82501W        W42037  13.645  10.150   3.190
82502W        W42038  17.709   3.774   0.766
82503W        W42039  33.490  30.518   2.339
82504W        W42040  43.416  43.511  13.348
82505W        W42041  32.112  17.665   1.931
82506W        W42042  36.590   7.786   5.103
82507W        W42043  35.871  41.869   2.824
82508W        W42044  25.024  18.191  13.515
82509W        W42045  24.976  37.974   3.796
82510W        W42046  21.214   6.241   0.768
82511W        W42047  41.473  41.025   4.273
82512W        W42048   6.820  17.787   0.952
82513W        W42049  33.475  16.079   0.848
82514W        W42050   6.344  11.160   1.322
82515W        W42051  31.634  23.620  12.417
82516W        W42052  22.641  30.545   3.153
82517W        W42053  17.141  15.784   3.739
82518W        W42054  20.577  27.538   0.851
82519W        W42055  29.994  43.997  14.957
82520W        W42056  10.256   9.224  14.494
82521W        W42057   3.747   4.427  14.860
82522W        W42058  42.493  10.316   1.346
82523W        W42059  13.797  12.193  12.434
82524W        W42060  32.110  15.808  13.018
82525W        W42061  27.010   5.413  14.381
82526W        W42062  15.791  15.700  14.290
82527W        W42063  12.304  19.048  13.851
82528W        W42064   4.358  35.004   4.239
82529W        W42065  18.077  22.252   2.800
82530W        W42066  29.952  44.344   2.807
82531W        W42067  41.877   3.772   2.419
82532W        W42068  28.014  15.782   1.364
82533W        W42069  30.502   0.963   5.265
82534W        W42070   3.223  40.410   2.876
82535W        W42071  20.120  19.743   1.440
82536W        W42072  25.083  26.633   9.977
82537W        W42073  25.597  26.580   4.128
82538W        W42074  44.318   9.375   2.802
82539W        W42075  39.871  18.791  10.542
82540W        W42076  23.200  40.317  10.153
82541W        W42077   4.405  42.403  10.594
82542W        W42078   1.258  18.613   0.378
82543W        W42079  43.921  26.066  13.503
82544W        W42080  27.478  43.974  12.026
82545W        W42081   9.869   2.785   2.706
82546W        W42082  14.694  30.947   2.709
82547W        W42083  31.068  41.364  10.549
82548W        W42084   9.847   4.902   4.331
82549W        W42085  19.645  16.705   4.826
82550W        W42086   3.253  40.990  10.955
82551W        W42087  13.613  30.927   4.703
82552W        W42088   0.833  13.822  14.360
82553W        W42089  25.655  12.855   0.351
82554W        W42090  29.070  38.957  10.592
82555W        W42091  35.932  13.710  13.927
82556W        W42092  23.234  44.300   3.718
82557W        W42093  20.626   6.221   3.204
82558W        W42094  39.492  29.990   0.414
82559W        W42095  42.973   3.900   4.621
82560W        W42096  15.149  28.678   2.255
82561W        W42097  37.573   4.769   2.400
82562W        W42098   4.829   4.848   5.215
82563W        W42099  26.617  33.046   9.940
82564W        W42100  41.513   3.357  13.997
82565W        W42101  25.511  23.146  14.881
82566W        W42102  39.009  27.620  13.818
82567W        W42103   5.406  44.966   3.346
82568W        W42104  27.026  30.464   3.652
82569W        W42105  32.394  39.910  11.373
82570W        W42106  15.186  12.819  13.956
82571W        W42107  16.596  32.392  12.570
82572W        W42108  33.955  29.939   3.701
82573W        W42109  20.221  15.797   2.243
82574W        W42110  16.167  11.640   3.312
82575W        W42111  31.937  12.696  13.460
82576W        W42112  35.094  22.603   2.713
82577W        W42113  41.333  19.737   3.807
82578W        W42114  24.215  41.475  13.814
82579W        W42115  20.551  37.356   4.241
82580W        W42116   5.729  19.216  11.440
82581W        W42117   8.857  28.436   2.288
82582W        W42118  24.149  15.637  10.119
82583W        W42119  27.656  28.957   0.845
82584W        W42120   6.690  10.243  12.040
82585W        W42121   2.892  11.141   0.270
82586W        W42122  17.170  34.072  10.898
82587W        W42123  17.739  33.027  14.479
82588W        W42124  20.104  36.437  14.408
82589W        W42125  41.833  15.761  13.472
82590W        W42126   9.684  24.654   1.272
82591W        W42127  35.507  25.705   4.167
82592W        W42128  38.903  25.494  12.035
82593W        W42129  29.033   6.853  12.986
82594W        W42130  35.933  17.665   1.255
82595W        W42131  29.054  18.556  10.455
82596W        W42132  39.888  34.433   1.892
82597W        W42133  14.248  35.031   0.947
82598W        W42134  40.900  30.139   3.797
82599W        W42135  27.689  17.635   3.686
82600W        W42136   2.838  24.052   2.192
82601W        W42137  34.531  11.136  13.062
82602W        W42138  16.701  29.115   4.702
82603W        W42139  10.784   2.830  13.878
82604W        W42140  14.113  12.336   4.791
82605W        W42141   7.834  29.095  11.016
82606W        W42142  44.500  24.618   0.966
82607W        W42143   8.271  27.101   3.340
82608W        W42144   1.308  33.481   4.283
82609W        W42145   7.330  26.953   3.327
82610W        W42146   4.377   3.222  12.461
82611W        W42147  28.504  42.381   3.294
82612W        W42148  14.821  24.118   0.360
82613W        W42149  25.186  26.503  11.053
82614W        W42150   3.928  14.765   2.728
82615W        W42151  29.548  28.495  10.898
82616W        W42152  16.180  37.352   5.083
82617W        W42153  11.833  14.265   3.382
82618W        W42154   8.182  37.007  11.402
82619W        W42155  17.744   4.751  13.545
82620W        W42156  38.820  40.826  12.906
82621W        W42157  15.222  33.029  12.025
82622W        W42158  14.640   4.858  14.497
82623W        W42159  18.607  31.984  10.510
82624W        W42160   7.175   3.365   2.755
82625W        W42161  26.633  13.754  10.561
82626W        W42162  25.515  27.605   2.206
82627W        W42163   0.877   0.833   0.752
82628W        W42164  24.554  39.023  11.053
82629W        W42165  34.407  21.562   0.249
82630W        W42166  16.284   2.241   0.468
82631W        W42167  22.111  29.606   4.641
82632W        W42168  41.795   4.899  10.054
82633W        W42169  36.425  39.016   4.739
82634W        W42170  35.909  28.116   3.779
82635W        W42171  19.156  43.498  12.444
82636W        W42172  10.196  32.975  11.917
82637W        W42173  31.023  30.147  13.999
82638W        W42174   4.309  21.752   4.280
82639W        W42175  25.083   6.880   2.263
82640W        W42176  11.236   8.256  14.939
82641W        W42177  34.573  11.168  14.953
82642W        W42178  19.240   2.947   0.387
82643W        W42179  17.207  15.114   3.854
82644W        W42180  42.297  34.051   0.760
82645W        W42181   4.206  21.056  13.404
82646W        W42182  37.976  22.044  12.832
82647W        W42183  25.137  14.338  13.373
82648W        W42184   1.861  30.593   0.886
82649W        W42185  24.075  39.407  14.325
82650W        W42186   4.863  20.238  12.912
82651W        W42187  21.222  14.739  13.966
82652W        W42188  13.840  12.234  11.511
82653W        W42189  38.881   9.676  12.061
82654W        W42190   9.799  15.715  12.034
82655W        W42191  37.357   5.857   0.756
82656W        W42192   3.347  38.402   4.668
82657W        W42193   9.780  37.485  11.960
82658W        W42194  29.932  34.100  13.797
82659W        W42195  16.735   7.768   1.320
82660W        W42196  40.525  10.680   2.880
82661W        W42197  32.553  24.057   9.662
82662W        W42198   0.262  32.972  11.116
82663W        W42199   1.828  26.659  12.840
82664W        W42200  39.516  23.691  10.410
82665W        W42201  43.872  44.391   3.279
82666W        W42202   9.691  42.476  11.576
82667W        W42203  28.441  24.178  12.980
82668W        W42204  20.242   7.867  10.447
82669W        W42205  25.682  20.684  12.076
82670W        W42206  13.636  20.191  13.884
82671W        W42207  37.979  25.625  11.520
82672W        W42208  24.103  21.706  14.300
82673W        W42209  19.076   4.707   2.376
82674W        W42210   9.358  11.634  13.471
82675W        W42211  11.637  44.428   2.832
82676W        W42212   1.870  38.865  11.610
82677W        W42213  37.083   4.213  14.352
82678W        W42214  39.062   1.822  14.404
82679W        W42215   2.946  36.888  11.884
82680W        W42216   3.299  21.744  11.967
82681W        W42217  32.068   3.741  11.991
82682W        W42218   6.778  14.698   3.368
82683W        W42219  25.113   4.280  13.326
82684W        W42220  21.751  15.207   3.278
82685W        W42221  17.202  44.496   0.815
82686W        W42222   8.177  11.296   4.191
82687W        W42223  33.996  35.511   4.308
82688W        W42224  15.786  17.197  11.870
82689W        W42225  44.900  18.135  14.960
82690W        W42226  19.644  34.394   4.259
82691W        W42227  29.655  41.813  13.817
82692W        W42228   8.381  11.641   2.772
82693W        W42229  41.964  29.101  14.837
82694W        W42230   6.273  16.614   1.786
82695W        W42231   7.904  19.192   4.763
82696W        W42232  32.567   0.353  10.474
82697W        W42233  11.358  14.282   0.451
82698W        W42234  11.734  41.010  13.351
82699W        W42235   7.278  16.689  11.555
82700W        W42236  12.158  38.565  12.358
82701W        W42237  36.361  29.971  12.452
82702W        W42238  40.804  16.672   2.331
82703W        W42239  40.886  19.095  11.988
82704W        W42240  14.744   2.435   3.753
82705W        W42241  16.201  32.947   3.318
82706W        W42242   1.913  31.533  12.883
82707W        W42243  11.284  34.906   4.327
82708W        W42244  12.176  36.026   2.763
82709W        W42245  26.537  33.098   0.347
82710W        W42246  40.832   6.421  12.578
82711W        W42247  20.054   6.427   1.710
82712W        W42248  17.278  30.580  10.553
82713W        W42249  31.493  36.904  10.447
82714W        W42250   8.265  11.317   3.854
82715W        W42251  27.982  21.220   2.871
82716W        W42252  42.433  35.591  11.526
82717W        W42253   5.347  37.367  13.490
82718W        W42254  29.462  40.862   3.253
82719W        W42255  15.790  41.971  12.526
82720W        W42256  33.958   4.865   2.352
82721W        W42257   1.255  21.634   2.395
82722W        W42258   6.825  15.205   0.859
82723W        W42259  20.034  17.265  10.959
82724W        W42260  36.501   6.875   4.797
82725W        W42261   0.465  35.024  13.370
82726W        W42262  42.030  41.465  11.509
82727W        W42263  43.846  13.157   9.962
82728W        W42264  42.821  10.811   3.783
82729W        W42265  24.975  38.546  12.401
82730W        W42266  26.533   4.873  10.441
82731W        W42267  33.431  43.007   4.750
82732W        W42268  20.164  10.637  11.970
82733W        W42269  16.650  15.214   4.194
82734W        W42270  39.534  28.491  14.296
82735W        W42271  35.872   0.383   1.276
82736W        W42272  27.147  13.759   1.913
82737W        W42273  22.639   5.925  11.962
82738W        W42274  31.012  38.420   0.751
82739W        W42275   1.406   4.204  11.856
82740W        W42276  27.638  24.980  10.576
82741W        W42277   0.282  43.796  12.570
82742W        W42278   9.843   3.739   1.397
82743W        W42279  44.885  38.517  14.893
82744W        W42280   7.803   8.719   2.412
82745W        W42281  11.725  32.404   2.371
82746W        W42282   6.424  12.236   1.745
82747W        W42283  37.419   5.305   2.753
82748W        W42284  14.241  19.780   1.272
82749W        W42285  29.493  18.780   3.765
82750W        W42286  16.216   3.835   1.338
82751W        W42287  28.589  10.233  13.001
82752W        W42288  33.561  14.265  12.063
82753W        W42289  43.881   7.238  12.916
82754W        W42290  27.490  42.321   1.895
82755W        W42291  22.631   4.203   0.380
82756W        W42292  26.552  22.251   2.354
82757W        W42293  40.989  35.960   4.114
82758W        W42294  43.291  32.115  14.908
82759W        W42295  21.096  14.279   0.357
82760W        W42296  38.868  23.008   4.614
82761W        W42297  33.425  31.907  14.462
82762W        W42298   5.384  27.592   9.455
82763W        W42299  11.275  41.400  13.329
82764W        W42300  21.097  33.971  12.986
82765W        W42301  22.013  29.661   0.431
82766W        W42302  39.522  11.220  14.392
82767W        W42303  18.054  16.728  11.579
82768W        W42304  27.672  16.211   0.911
82769W        W42305  16.721  43.389  10.410
82770W        W42306  44.770  35.525  11.125
82771W        W42307  41.837  42.469  14.864
82772W        W42308  23.538  35.527  13.045
82773W        W42309  29.530  10.163  12.886
82774W        W42310  32.615  38.546  12.455
82775W        W42311  12.668  15.148   1.723
82776W        W42312  15.668  32.130   3.310
82777W        W42313   9.362   4.898  13.870
82778W        W42314   0.756  33.053   0.368
82779W        W42315  22.185  19.077   2.860
82780W        W42316   4.366   2.434  11.441
82781W        W42317  13.761  33.474   2.208
82782W        W42318  41.466  19.770   2.406
82783W        W42319  44.958  12.663  10.033
82784W        W42320  20.753  33.883  12.501
82785W        W42321  38.861  28.524  10.960
82786W        W42322  21.103  44.289  14.985
82787W        W42323   5.727  14.678   3.807
82788W        W42324   5.239  33.468   0.874
82789W        W42325  43.957  22.606   2.752
82790W        W42326  29.641   4.271  13.890
82791W        W42327  36.418  22.545   4.645
82792W        W42328  39.815  13.196   3.674
82793W        W42329  41.464  30.071   3.797
82794W        W42330  42.460   7.412   1.315
82795W        W42331  14.743  21.654  11.923
82796W        W42332  18.194  10.862   4.339
82797W        W42333  33.423  37.007  11.610
82798W        W42334  22.104  41.880  11.037
82799W        W42335  21.123  40.829  12.419
82800W        W42336  12.644  16.175   2.401
82801W        W42337  27.502  20.763  12.426
82802W        W42338  34.502  26.157  12.411
82803W        W42339   7.842  35.940   4.651
82804W        W42340  25.680  28.515  12.404
82805W        W42341  41.983  16.667   1.257
82806W        W42342  32.591   7.790   1.800
82807W        W42343  19.259   8.819  13.025
82808W        W42344   0.827   6.351  11.883
82809W        W42345  25.630  12.277  11.009
82810W        W42346  15.217   8.884   2.304
82811W        W42347  43.853   7.813   2.389
82812W        W42348  44.767  43.452   3.669
82813W        W42349  19.081  39.836  11.093
82814W        W42350  34.014   2.309   3.188
82815W        W42351  15.621  33.940  14.021
82816W        W42352  39.000  43.456  11.433
82817W        W42353  17.198  42.879   1.835
82818W        W42354  30.515   2.891   3.326
82819W        W42355   8.181  19.259   1.406
82820W        W42356  16.187  29.504   3.786
82821W        W42357  37.046   1.254   2.839
82822W        W42358  29.599  42.954  13.395
82823W        W42359   6.240  24.661   3.216
82824W        W42360  21.021  12.671   3.244
82825W        W42361  10.682  26.024   1.421
82826W        W42362  25.704  12.851   1.451
82827W        W42363  30.132   5.813  13.834
82828W        W42364  23.733  22.044  14.425
82829W        W42365   7.758  38.563   2.822
82830W        W42366  29.490  36.018   0.325
82831W        W42367  37.517  25.076   3.844
82832W        W42368  18.237  40.921  11.107
82833W        W42369  18.607  32.633   1.348
82834W        W42370  42.514   5.911   2.268
82835W        W42371  15.618  30.505   1.432
82836W        W42372  11.642  41.345   2.238
82837W        W42373  23.556  41.850  11.609
82838W        W42374  34.988   5.745  11.511
82839W        W42375  34.439   6.755  13.377
82840W        W42376  26.489  32.425   2.740
82841W        W42377  30.082  30.996   4.619
82842W        W42378  32.058   4.448  13.859
82843W        W42379  23.219  10.246  11.112
82844W        W42380  27.560  34.871   4.260
82845W        W42381  38.920  38.481   1.311
82846W        W42382  27.960  32.135   0.734
82847W        W42383  12.277  32.583  14.331
82848W        W42384   1.839   4.216   4.331
82849W        W42385  42.423   5.728  13.326
82850W        W42386  10.655  21.571  12.965
82851W        W42387  31.058   7.228  10.892
82852W        W42388  34.493  37.336   0.478
82853W        W42389  14.616  44.879   1.261
82854W        W42390  12.232  29.434   3.847
82855W        W42391   3.837  24.482  10.990
82856W        W42392   7.314   8.237  11.031
82857W        W42393   7.204  10.872   1.885
82858W        W42394   2.353   3.898  11.913
82859W        W42395   0.856  10.714   4.160
82860W        W42396  32.116   8.896   3.302
82861W        W42397   5.930   2.866  12.461
82862W        W42398  15.211  25.998   2.760
82863W        W42399  34.081  10.206  11.478
82864W        W42400  34.073  41.455   3.385
82865W        W42401  39.325  36.903  13.988
82866W        W42402  10.381  14.227   1.320
82867W        W42403  24.173  44.259  14.930
82868W        W42404   9.365  34.873  11.956
82869W        W42405   8.808  32.025  10.628
82870W        W42406  15.656   4.431  11.992
82871W        W42407  27.645  11.661  10.589
82872W        W42408  34.975  12.813  10.106
82873W        W42409  28.524  39.397   3.205
82874W        W42410   1.919   7.357  11.468
82875W        W42411  40.809  18.671   3.709
82876W        W42412  19.217  28.533   0.480
82877W        W42413  16.246  40.923   3.713
82878W        W42414   7.303  40.883  14.280
82879W        W42415   7.823   6.304  11.974
82880W        W42416  42.471  37.356  11.978
82881W        W42417  21.230  20.248   1.256
82882W        W42418  43.285   2.427  14.896
82883W        W42419   4.369  31.976  12.501
82884W        W42420   6.330  35.431  14.876
82885W        W42421   4.725  35.928   0.780
82886W        W42422  13.202  32.536   4.211
82887W        W42423  32.908  27.551   2.238
82888W        W42424  13.302  31.621   3.205
82889W        W42425  36.039  34.919   0.921
82890W        W42426  26.540  13.188  14.457
82891W        W42427  25.010  10.738  12.386
82892W        W42428  43.895   8.172   4.295
82893W        W42429  24.087   7.864   2.217
82894W        W42430  20.070   0.359   4.709
82895W        W42431  29.090  41.965   1.229
82896W        W42432  29.923  22.017  12.426
82897W        W42433  14.204   5.436   1.850
82898W        W42434  34.884  17.717   0.369
82899W        W42435   5.285  22.538   4.715
82900W        W42436  36.010  12.328   1.738
82901W        W42437  30.501  11.802   0.839
82902W        W42438  29.453  33.460   4.681
82903W        W42439   3.840  42.438  12.461
82904W        W42440  14.120  25.114   4.142
82905W        W42441  19.578  31.105  11.975
82906W        W42442  36.070  10.273  13.834
82907W        W42443  13.694   3.925  13.013
82908W        W42444  41.934  18.160   3.197
82909W        W42445  23.647  23.500   4.172
82910W        W42446  12.206  23.007   1.316
82911W        W42447  23.193  11.625   0.886
82912W        W42448   1.341  17.243  12.913
82913W        W42449  30.005  37.365  13.808
82914W        W42450   2.876   9.723  14.902
82915W        W42451  26.594  33.620   3.858
82916W        W42452  43.782  31.520   2.195
82917W        W42453  11.243  38.512   1.332
82918W        W42454   3.941   0.760   0.359
82919W        W42455  36.899  21.519   1.343
82920W        W42456  20.727  32.038   2.705
82921W        W42457  18.110   4.934   4.324
82922W        W42458  10.367  16.149   0.943
82923W        W42459  19.273  23.714   1.810
82924W        W42460  38.435  27.062  10.540
82925W        W42461   6.283  43.868   2.890
82926W        W42462  28.647  27.559   0.353
82927W        W42463  29.920  42.384   2.698
82928W        W42464  25.568  25.062   2.244
82929W        W42465  26.651  34.599   5.113
82930W        W42466  10.288  13.726  14.400
82931W        W42467   4.708  19.760  10.059
82932W        W42468  41.316  31.481   4.295
82933W        W42469  40.538  40.482   4.139
82934W        W42470   7.324  16.266   2.379
82935W        W42471  19.219  41.483  11.913
82936W        W42472  28.176   1.340   0.942
82937W        W42473   9.305  41.460   5.123
82938W        W42474  25.026  12.334  11.389
82939W        W42475   0.306  36.863  14.955
82940W        W42476  27.968  36.487  11.026
82941W        W42477  23.621  25.646  10.962
82942W        W42478  36.975  26.121  11.463
82943W        W42479  14.183  32.089  14.455
82944W        W42480   2.374  31.988  13.425
82945W        W42481  34.873   0.327   2.677
82946W        W42482  14.218  21.114  11.951
82947W        W42483   8.253  20.634  11.561
82948W        W42484  21.049  23.218  12.078
82949W        W42485  12.135  39.485   0.474
82950W        W42486  42.826  29.079  11.123
82951W        W42487  12.711   3.877   3.199
82952W        W42488  23.621  23.636  10.946
82953W        W42489  42.819  12.640   0.434
82954W        W42490   7.876  14.728   2.371
82955W        W42491  19.753   9.742   4.640
82956W        W42492  29.000  25.705   3.632
82957W        W42493  18.290  13.351   2.240
82958W        W42494  31.485  36.525   1.806
82959W        W42495  18.197  32.424   3.373
82960W        W42496  34.612  21.200  11.010
82961W        W42497   9.290  31.998   4.683
82962W        W42498  19.238   6.707  14.449
82963W        W42499  32.611  15.621   1.421
82964W        W42500  33.446  29.502   4.762
82965W        W42501  43.454  44.926   4.116
82966W        W42502  39.363  17.142   2.266
82967W        W42503  17.608   7.810   1.266
82968W        W42504  43.913  14.248   4.316
82969W        W42505  25.180  21.721   1.364
82970W        W42506   6.396   4.332   4.643
82971W        W42507   5.377  23.566  14.407
82972W        W42508  38.532   7.674  11.446
82973W        W42509  17.599  42.362   4.797
82974W        W42510   1.877  37.492   0.383
82975W        W42511   0.335  23.565  13.426
82976W        W42512  15.300  25.204   3.705
82977W        W42513  34.064  25.152  14.850
82978W        W42514  22.251  27.175  14.501
82979W        W42515  31.970   8.711  14.836
82980W        W42516   3.274   0.264   3.326
82981W        W42517   7.253  27.663   1.392
82982W        W42518  10.790   7.809   0.306
82983W        W42519  44.266  37.016   2.216
82984W        W42520  37.567  20.657  12.412
82985W        W42521  31.454  38.931  10.468
82986W        W42522   2.798  19.241  13.484
82987W        W42523  10.245  30.497   3.728
82988W        W42524   9.876  12.361   0.403
82989W        W42525  18.276  27.645   4.811
82990W        W42526  44.883   1.464  12.572
82991W        W42527  44.399   7.907   1.881
82992W        W42528  25.470  15.716   3.759
82993W        W42529   5.337  27.191   4.622
82994W        W42530   1.884  34.477   0.429
82995W        W42531  38.841   6.211   4.630
82996W        W42532  14.648  13.144  14.314
82997W        W42533  40.922  19.582   3.342
82998W        W42534  10.792  24.175   2.296
82999W        W42535  43.984   8.813  13.894
83000W        W42536   7.796  36.034  11.967
83001W        W42537  14.323  14.736   0.884
83002W        W42538  21.513   9.167   0.946
83003W        W42539  24.614   8.211  13.040
83004W        W42540  41.441  40.388  13.802
83005W        W42541  18.288  22.101  14.405
83006W        W42542  25.486   4.353  11.519
83007W        W42543  27.681   2.380   1.437
83008W        W42544  16.775  38.414   1.798
83009W        W42545  32.572  27.496   3.646
83010W        W42546  33.956  14.823  12.432
83011W        W42547   5.401   3.948   4.147
83012W        W42548  14.314  34.435   2.375
83013W        W42549   2.254  20.205   4.304
83014W        W42550  25.143   7.252  14.338
83015W        W42551  20.756   5.873  11.021
83016W        W42552  27.612  36.898   0.731
83017W        W42553  15.645  38.507  10.424
83018W        W42554  31.903  42.483   1.767
83019W        W42555  17.568  19.615   3.271
83020W        W42556   8.672   5.401   0.808
83021W        W42557  11.854  38.536   1.919
83022W        W42558  37.861  25.101   0.892
83023W        W42559  42.901  38.019   1.350
83024W        W42560   9.287  15.656  14.788
83025W        W42561  18.641  32.945   4.295
83026W        W42562  34.507  34.884   1.349
83027W        W42563  18.768  37.350  12.363
83028W        W42564   2.399   4.226   1.443
83029W        W42565  27.585  12.763   0.389
83030W        W42566  31.054  30.915  14.284
83031W        W42567   9.360  33.610  11.435
83032W        W42568  31.616   0.887   1.250
83033W        W42569  23.117  15.801  13.489
83034W        W42570  18.247  31.624   2.302
83035W        W42571  13.199  13.311   4.672
83036W        W42572  11.341  26.191  10.502
83037W        W42573  27.526  13.717  11.909
83038W        W42574  43.837  28.466   2.222
83039W        W42575   2.251   4.435   3.782
83040W        W42576   9.792   2.364   2.262
83041W        W42577  30.434   5.894   0.751
83042W        W42578  32.413  42.820   3.648
83043W        W42579   1.942   0.897  14.300
83044W        W42580  17.659  30.922  13.872
83045W        W42581  39.819  39.532   1.836
83046W        W42582  16.729  22.106  11.502
83047W        W42583  24.503  40.410   1.449
83048W        W42584  27.067   1.824  14.414
83049W        W42585  25.057  27.597   0.483
83050W        W42586   0.845   9.841  13.943
83051W        W42587  27.511  32.020  11.858
83052W        W42588  32.013   6.332   4.200
83053W        W42589  17.135  16.105   3.631
83054W        W42590   7.757  23.144  11.584
83055W        W42591  42.873   1.397  13.454
83056W        W42592  29.100  27.629  12.861
83057W        W42593  11.173   7.192  13.959
83058W        W42594  35.103  36.531  11.907
83059W        W42595  34.107   0.385  13.875
83060W        W42596  22.703  32.571   2.334
83061W        W42597   7.243  27.022   0.313
83062W        W42598  21.522  24.022  12.090
83063W        W42599   9.339  26.143   2.249
83064W        W42600   9.158  33.443   0.808
83065W        W42601  14.129  43.803   4.216
83066W        W42602  43.288   0.783   2.203
83067W        W42603  36.057  24.049  12.542
83068W        W42604  38.878  34.571   5.315
83069W        W42605  33.023   2.908  14.878
83070W        W42606   8.849  21.072  12.845
83071W        W42607  35.889  34.088  12.012
83072W        W42608  38.353  32.546  13.496
83073W        W42609  21.560  27.597  11.411
83074W        W42610  16.318  27.637   0.759
83075W        W42611  43.359  34.546   1.432
83076W        W42612  31.530  34.947  13.518
83077W        W42613   9.388  32.547  12.431
83078W        W42614  26.005  28.650  10.946
83079W        W42615  20.031  33.097   1.727
83080W        W42616  32.904   4.836  13.379
83081W        W42617  25.548  35.554   1.358
83082W        W42618  36.058  32.079   2.685
83083W        W42619  30.126   0.763  11.946
83084W        W42620   5.830  12.835  10.612
83085W        W42621  30.032  17.566   0.770
83086W        W42622  29.102  20.635  14.364
83087W        W42623  35.483   8.817  10.478
83088W        W42624  30.550  37.982   4.344
83089W        W42625  31.430  23.178  14.416
83090W        W42626  15.214   1.889  10.459
83091W        W42627   1.287  21.150  14.947
83092W        W42628  42.411   1.751   1.375
83093W        W42629  39.009  26.597  13.988
83094W        W42630  13.144  26.146  12.951
83095W        W42631  22.044  26.606   1.425
83096W        W42632  22.536  27.182   1.244
83097W        W42633  38.347  41.909   3.174
83098W        W42634  26.981  35.055   1.849
83099W        W42635  37.061  28.002  14.950
83100W        W42636  36.971  40.404   0.854
83101W        W42637  43.961  17.280  13.979
83102W        W42638  29.155   9.705   3.327
83103W        W42639  31.632  18.689   3.795
83104W        W42640  37.561  10.673   4.605
83105W        W42641  33.407  16.082  11.593
83106W        W42642   8.262   5.317  11.451
83107W        W42643  40.379  12.256  13.467
83108W        W42644  35.885   8.231   3.727
83109W        W42645  34.439  43.973  10.637
83110W        W42646  13.290   4.338  14.355
83111W        W42647  38.374  17.673  11.004
83112W        W42648  15.586   8.238   3.348
83113W        W42649  14.223  23.549   2.840
83114W        W42650  31.484  39.348   0.336
83115W        W42651  25.535  13.814  14.904
83116W        W42652   2.435  24.566  12.544
83117W        W42653  41.804  20.205  13.402
83118W        W42654  22.082  28.538   4.287
83119W        W42655  39.521  33.116   2.294
83120W        W42656  18.173  41.381  12.876
83121W        W42657  24.677  40.882   2.226
83122W        W42658  25.990  15.300  10.557
83123W        W42659  34.886  34.036   2.327
83124W        W42660  31.050  40.877  13.820
83125W        W42661  16.627   2.830   0.369
83126W        W42662   6.209  39.875  13.003
83127W        W42663  20.704  22.608   2.722
83128W        W42664  40.817  37.471   3.377
83129W        W42665  27.144  12.286  10.636
83130W        W42666  15.770  36.400  13.041
83131W        W42667  37.427  36.370   3.252
83132W        W42668  31.473  42.854  12.446
83133W        W42669  27.188  16.606   1.770
83134W        W42670  36.558  26.160   2.360
83135W        W42671  26.629   5.360   0.849
83136W        W42672  15.207  24.640   4.180
83137W        W42673  43.915  37.441  12.482
83138W        W42674  28.128   0.959  14.762
83139W        W42675  12.348  30.608  14.494
83140W        W42676  17.653   6.334  14.028
83141W        W42677   4.356  17.761  10.542
83142W        W42678   0.473  18.154  10.460
83143W        W42679  22.038  36.509  12.475
83144W        W42680  26.685  14.829   4.602
83145W        W42681   0.934  44.476  14.894
83146W        W42682  24.617  42.847   4.673
83147W        W42683  35.063  22.097  13.396
83148W        W42684  32.399  34.443  13.472
83149W        W42685  19.236  22.719  13.013
83150W        W42686  33.917   6.785   4.825
83151W        W42687  27.127   7.837   0.339
83152W        W42688  35.085  42.393   0.790
83153W        W42689  10.685  30.418   2.692
83154W        W42690  28.668  19.705  13.851
83155W        W42691   4.426  28.468  10.463
83156W        W42692  15.182  31.980  14.966
83157W        W42693  34.986  34.102   0.279
83158W        W42694  38.365  25.689   4.763
83159W        W42695  18.265  29.149  10.521
83160W        W42696   2.262   0.262   3.239
83161W        W42697  23.102  41.006  14.876
83162W        W42698  16.144  44.802  12.349
83163W        W42699  33.393  27.167   0.779
83164W        W42700   1.405  43.304  13.444
83165W        W42701  27.166  19.138   5.110
83166W        W42702   4.888   7.846  11.411
83167W        W42703   8.285  19.607   3.722
83168W        W42704  16.153  32.421   0.448
83169W        W42705  13.226  33.052  13.511
83170W        W42706  35.419  42.486  13.796
83171W        W42707  38.883  10.201  11.513
83172W        W42708  39.467  33.568   4.647
83173W        W42709   8.330  20.527   3.275
83174W        W42710  14.157   7.296   5.684
83175W        W42711  15.306  38.476   1.894
83176W        W42712  33.024  23.154  13.835
83177W        W42713  26.599  15.189  10.497
83178W        W42714  30.455  37.010   1.220
83179W        W42715  42.391  35.037  12.520
83180W        W42716  16.077  23.704   4.329
83181W        W42717  36.891  26.484   2.844
83182W        W42718  23.090  10.188   3.241
83183W        W42719  15.743  32.072  11.860
83184W        W42720  39.060  25.118  12.565
83185W        W42721  10.757   8.803  14.910
83186W        W42722  34.566  39.353  10.903
83187W        W42723  40.467  44.289  12.870
83188W        W42724  17.061   4.875   1.708
83189W        W42725  23.616   7.818  14.030
83190W        W42726  15.236  37.021  14.938
83191W        W42727  30.650   1.288   3.703
83192W        W42728  13.172  32.410   3.646
83193W        W42729  33.613   0.909  10.496
83194W        W42730  43.381  15.296   2.667
83195W        W42731  41.931  13.135   2.243
83196W        W42732  28.582  10.775  10.566
83197W        W42733  36.007   1.916  12.463
83198W        W42734  17.772   2.422  13.450
83199W        W42735  31.574  39.010  14.030
83200W        W42736  19.056  42.788  13.340
83201W        W42737  13.810   5.751  13.009
83202W        W42738  39.342  35.863   4.210
83203W        W42739  26.639   7.317  13.324
83204W        W42740   0.894  14.687  12.066
83205W        W42741  40.939  41.431   4.267
83206W        W42742   4.742  38.365  12.570
83207W        W42743  38.324  23.686   0.939
83208W        W42744  43.771   2.919  12.488
83209W        W42745   4.207  15.220  11.040
83210W        W42746  10.649  37.367  14.804
83211W        W42747  18.149  17.073   9.930
83212W        W42748  37.048  38.915   2.790
83213W        W42749  29.991  24.073  12.361
83214W        W42750  28.480  20.631   2.716
83215W        W42751  30.000  33.415   3.686
83216W        W42752  24.498  34.961   0.394
83217W        W42753  30.032  27.097  12.361
83218W        W42754  41.003   2.852  14.773
83219W        W42755  43.502  26.577   0.352
83220W        W42756  32.046  24.127   1.865
83221W        W42757  25.084  12.120  12.898
83222W        W42758  24.636  30.908   0.262
83223W        W42759   8.663  29.500   2.372
83224W        W42760  14.638  17.120  10.939
83225W        W42761  11.263  16.160  12.500
83226W        W42762  40.946   1.360   0.287
83227W        W42763  42.420  34.058   0.337
83228W        W42764   8.745  20.675   1.347
83229W        W42765  15.300  23.013  11.003
83230W        W42766   0.415  29.961   3.357
83231W        W42767  16.732   8.230  14.338
83232W        W42768   9.758  36.986   3.686
83233W        W42769  31.554  16.203   2.216
83234W        W42770  41.928  41.901  11.557
83235W        W42771  24.053  32.138   4.798
83236W        W42772   3.947  26.633   3.871
83237W        W42773  21.207  31.028   2.720
83238W        W42774  39.867  41.929  12.834
83239W        W42775  39.873  28.960   4.819
83240W        W42776  40.943  42.935  12.483
83241W        W42777  36.467   0.755  14.927
83242W        W42778  43.516  30.027   3.661
83243W        W42779  37.416  11.821  14.479
83244W        W42780  39.968  29.508  13.513
83245W        W42781  27.494  37.060   4.231
83246W        W42782  42.337   0.453  13.479
83247W        W42783  24.007  31.646   3.748
83248W        W42784  25.964   1.832  13.835
83249W        W42785  39.867   4.345   4.775
83250W        W42786   4.408  14.735   3.691
83251W        W42787  33.411  23.182  12.852
83252W        W42788   1.462  37.435  11.889
83253W        W42789  15.315  42.011   0.440
83254W        W42790  11.730  32.554   3.769
83255W        W42791  30.071   7.211   0.850
83256W        W42792   9.739  24.224  13.913
83257W        W42793  21.686  11.750  12.859
83258W        W42794  24.715  20.129  14.834
83259W        W42795  36.547  36.461  14.764
83260W        W42796  28.163  28.541   4.686
83261W        W42797  31.980  19.601   0.830
83262W        W42798  32.460  21.209  11.943
83263W        W42799  20.242  27.546  14.787
83264W        W42800  34.105  39.016  12.925
83265W        W42801   5.916  13.112  10.514
83266W        W42802  42.858   7.887   2.740
83267W        W42803  33.607   8.759   4.830
83268W        W42804  14.752  10.859  11.538
83269W        W42805   3.428  32.083  10.503
83270W        W42806  36.558  15.229  12.496
83271W        W42807  40.529   2.432  12.931
83272W        W42808  38.555  42.853  11.091
83273W        W42809  36.397  16.247  13.433
83274W        W42810   3.821  24.516  12.925
83275W        W42811  36.036  14.832   3.312
83276W        W42812  41.455  24.640   4.709
83277W        W42813  35.468  24.124   2.719
83278W        W42814  31.542  40.543  14.492
83279W        W42815   9.802  36.074   0.301
83280W        W42816  39.399  25.695  13.347
83281W        W42817  39.926  27.473  10.493
83282W        W42818  16.073  38.962   0.798
83283W        W42819   4.840  27.132   2.888
83284W        W42820  27.616  33.592  12.029
83285W        W42821  39.530  15.769   0.904
83286W        W42822  29.509  13.737   3.755
83287W        W42823   7.833  36.059  12.373
83288W        W42824   1.847  16.124  12.343
83289W        W42825   2.937  20.565   0.394
83290W        W42826  38.933  14.202   4.600
83291W        W42827  24.523  24.590   0.871
83292W        W42828  18.672  34.512  14.389
83293W        W42829   5.896   3.711   3.812
83294W        W42830   8.163  10.237  14.311
83295W        W42831  10.713  25.006  12.837
83296W        W42832  32.411   8.880  11.050
83297W        W42833  24.629  24.618  10.521
83298W        W42834  36.894  36.979   0.326
83299W        W42835  29.104  44.856   4.658
83300W        W42836  14.760   9.714  14.959
83301W        W42837   2.777   6.753   4.269
83302W        W42838  16.743   7.855   2.891
83303W        W42839  15.644  21.563  13.431
83304W        W42840  38.425  42.389  10.896
83305W        W42841  42.857  22.634  10.908
83306W        W42842  19.538  26.589   1.408
83307W        W42843  43.778  41.329  11.870
83308W        W42844  16.290  32.013   0.958
83309W        W42845  22.036  27.627   4.207
83310W        W42846   1.384  12.751  11.864
83311W        W42847   3.396   0.273   0.781
83312W        W42848  20.603  43.838  11.945
83313W        W42849  43.858  41.494  13.981
83314W        W42850   8.796  41.392  12.431
83315W        W42851  41.967  10.205  10.994
83316W        W42852   9.723  22.139   2.333
83317W        W42853  31.132  31.002   0.812
83318W        W42854  23.573  16.218  12.931
83319W        W42855  28.161  43.402  11.093
83320W        W42856  14.768  40.850  12.920
83321W        W42857  30.979  32.419   1.783
83322W        W42858  41.506  17.732  14.863
83323W        W42859  16.318  43.918   4.182
83324W        W42860  41.903  38.520  14.938
83325W        W42861  25.524   8.688   4.215
83326W        W42862  18.631  21.693  13.407
83327W        W42863   3.331   0.985  12.471
83328W        W42864  41.363   8.775  12.496
83329W        W42865  40.525   6.285   2.202
83330W        W42866  10.145  10.285   0.938
83331W        W42867  24.503  18.663  14.406
83332W        W42868  35.461  25.141  14.808
83333W        W42869  25.167   0.787  14.389
83334W        W42870  32.944   8.390   4.597
83335W        W42871  43.449  20.154  14.901
83336W        W42872  21.024   6.249   3.387
83337W        W42873   3.303  34.575   4.650
83338W        W42874  36.452  23.732  14.471
83339W        W42875  32.020  19.557   2.244
83340W        W42876   2.321  39.861   2.358
83341W        W42877  18.658  37.930   3.752
83342W        W42878  12.181  23.630  10.553
83343W        W42879  37.992  37.544  14.769
83344W        W42880   8.378  33.941   0.891
83345W        W42881  27.063  37.015   0.849
83346W        W42882   9.711  37.349  14.493
83347W        W42883  39.869   6.235  11.542
83348W        W42884   4.838  38.004   1.874
83349W        W42885  28.634  32.954  11.402
83350W        W42886  39.317  18.290  13.427
83351W        W42887  12.268  21.225   4.170
83352W        W42888  15.690  14.239   4.738
83353W        W42889  19.061  16.789  14.458
83354W        W42890  34.006  44.009  12.437
83355W        W42891  15.096  30.584  10.422
83356W        W42892  16.088  43.964  14.507
83357W        W42893  39.481  11.337  11.409
83358W        W42894  42.862  21.578   2.369
83359W        W42895   6.195   0.828  13.442
83360W        W42896  10.673  22.243   1.449
83361W        W42897  12.770   3.348  12.466
83362W        W42898  17.731   0.282  13.323
83363W        W42899  34.593  23.657   4.330
83364W        W42900   3.459  28.501  13.363
83365W        W42901  44.818  20.040   3.166
83366W        W42902   2.813  29.603  13.852
83367W        W42903  27.572  41.007   0.287
83368W        W42904  18.713   5.699  10.489
83369W        W42905  30.516  15.322   4.242
83370W        W42906  11.257   4.776   5.159
83371W        W42907  19.062   5.796  11.917
83372W        W42908  20.240   8.756   2.850
83373W        W42909  10.217   5.220  12.052
83374W        W42910  33.399  18.208  14.902
83375W        W42911  24.024  37.371   5.189
83376W        W42912  22.542  24.223   4.156
83377W        W42913  23.203  15.810   0.448
83378W        W42914  35.091   9.166  13.415
83379W        W42915  30.428  31.443  10.933
83380W        W42916  43.797  30.573   2.303
83381W        W42917   1.783  33.492  14.889
83382W        W42918  15.212  30.993  12.084
83383W        W42919  31.453  39.447   2.416
83384W        W42920  31.969   1.257  11.428
83385W        W42921  10.714  36.018  11.458
83386W        W42922  44.496  27.191   2.708
83387W        W42923  31.563   8.815   3.831
83388W        W42924   1.311  21.060   4.648
83389W        W42925  12.204  10.196  12.826
83390W        W42926  40.390  33.022  13.383
83391W        W42927  14.154  18.621  14.381
83392W        W42928  24.115  41.910   3.270
83393W        W42929  21.557  40.421   4.649
83394W        W42930  17.726   8.279  10.626
83395W        W42931  21.125  30.561  12.455
83396W        W42932  14.125  10.762   1.697
83397W        W42933   0.852  22.664  11.082
83398W        W42934  28.108   5.777  12.531
83399W        W42935   2.397  16.133  11.043
83400W        W42936  12.280  17.794  13.534
83401W        W42937   7.815   0.466  14.416
83402W        W42938  11.622   0.794  12.410
83403W        W42939  17.184  16.291  10.556
83404W        W42940  32.533  11.729   1.807
83405W        W42941  36.908  22.582  12.559
83406W        W42942   3.847  44.928  11.570
83407W        W42943  13.689  16.287  12.562
83408W        W42944  13.694  27.577   2.810
83409W        W42945  15.178  36.526  13.968
83410W        W42946   8.654   7.194  14.297
83411W        W42947  29.118   8.831  10.510
83412W        W42948   9.867  44.348  11.908
83413W        W42949   1.767  27.562  13.357
83414W        W42950  40.340  22.194  14.768
83415W        W42951   4.331  13.707   4.738
83416W        W42952  29.567  35.457   2.357
83417W        W42953  21.518  43.469  12.551
83418W        W42954  43.950  28.453  14.798
83419W        W42955   9.879  14.120  11.504
83420W        W42956  18.095  13.261   3.691
83421W        W42957  25.052  27.185  14.912
83422W        W42958  17.750   2.942   4.353
83423W        W42959  44.003   8.850   3.204
83424W        W42960  35.366   8.851  12.339
83425W        W42961  22.135  28.084   0.855
83426W        W42962  16.241  25.036   4.232
83427W        W42963  25.172  33.509   3.168
83428W        W42964   1.450  44.486  10.436
83429W        W42965  15.738  33.444   1.322
83430W        W42966   2.407  41.833  14.985
83431W        W42967  23.537  19.720  11.966
83432W        W42968   7.713   8.656   1.762
83433W        W42969  36.578  27.470  14.306
83434W        W42970   1.322  38.550   2.875
83435W        W42971  36.045  42.396  10.478
83436W        W42972  22.685   3.447  13.902
83437W        W42973  17.202  26.483  11.898
83438W        W42974  12.647  19.059  13.347
83439W        W42975  22.030   5.436   0.449
83440W        W42976  24.174   1.886  10.987
83441W        W42977  23.084  37.347   2.731
83442W        W42978  25.169  32.550  11.055
83443W        W42979  28.624  25.688  10.114
83444W        W42980   5.212  10.664  14.885
83445W        W42981   0.809  12.747  13.811
83446W        W42982   7.701  10.654  11.902
83447W        W42983  42.923   5.260  13.349
83448W        W42984  11.239  31.635  12.889
83449W        W42985   3.732  34.054  12.339
83450W        W42986  28.124  42.008   1.758
83451W        W42987  25.643  34.538   2.840
83452W        W42988  31.452  12.689  11.884
83453W        W42989  18.193  31.589  13.853
83454W        W42990  40.469  23.018  11.386
83455W        W42991   3.449  36.471  14.470
83456W        W42992  37.042  30.582   3.180
83457W        W42993  33.418  36.426  13.963
83458W        W42994  44.876  26.586   0.355
83459W        W42995  30.446  13.831  11.385
83460W        W42996  30.456  34.105  12.938
83461W        W42997   2.449  33.541  11.543
83462W        W42998  30.076  24.596   1.234
83463W        W42999   0.298  16.153  13.512
83464W        W43000  31.006   8.734  12.078
83465W        W43001  25.645  22.086  13.470
83466W        W43002  28.498   7.370   3.359
83467W        W43003   2.433  23.682  12.973
83468W        W43004   9.354   2.754  12.960
83469W        W43005  13.257  25.526   2.682
83470W        W43006   2.825  36.509   0.749
83471W        W43007  28.118  23.197   0.936
83472W        W43008  36.415  29.455  12.014
83473W        W43009  38.055  37.481   0.766
83474W        W43010   9.874  24.494  10.934
83475W        W43011  40.352  26.459   2.828
83476W        W43012   4.231  20.747  13.022
83477W        W43013  33.456   7.342   1.302
83478W        W43014  40.458   3.945   4.600
83479W        W43015  30.519   9.343   0.483
83480W        W43016  22.558   5.321   2.198
83481W        W43017  24.069  28.675   4.737
83482W        W43018  36.451  36.567  10.623
83483W        W43019  32.910  19.141   3.824
83484W        W43020  44.838   0.476  13.905
83485W        W43021  34.900  24.131  12.996
83486W        W43022   1.437  29.668   3.189
83487W        W43023  38.914   2.961  10.991
83488W        W43024  43.815  36.040   4.807
83489W        W43025  19.187  36.400   1.420
83490W        W43026   6.732  36.076   2.375
83491W        W43027  16.701  31.583   1.861
83492W        W43028  13.190   6.279   3.745
83493W        W43029   5.277  16.784   0.405
83494W        W43030  36.924   2.957   5.302
83495W        W43031  31.154  17.569  10.951
83496W        W43032  33.027   8.290  11.521
83497W        W43033  42.351  37.576  10.437
83498W        W43034  36.079  41.798  11.985
83499W        W43035  43.823   2.929  11.049
83500W        W43036  32.618  33.119  10.501
83501W        W43037   5.827   3.231  13.936
83502W        W43038  31.926  39.338  10.602
83503W        W43039  33.908  32.571   0.382
83504W        W43040  38.356  14.226   1.443
83505W        W43041  20.524  42.029   2.697
83506W        W43042  27.018  20.140  12.029
83507W        W43043  44.280  23.230   4.673
83508W        W43044  13.786  10.826   3.864
83509W        W43045  38.356  18.736   1.894
83510W        W43046   8.335  22.132  11.968
83511W        W43047   8.238  11.724  12.549
83512W        W43048  19.707   5.304   1.271
83513W        W43049  44.333   5.770   3.340
83514W        W43050  23.197  39.472  10.453
83515W        W43051   9.195  35.852   0.923
83516W        W43052  41.523   8.162   1.366
83517W        W43053   0.362  27.603   4.144
83518W        W43054  26.054  12.625  12.904
83519W        W43055   8.383  25.199   0.845
83520W        W43056   7.910  42.448  11.576
83521W        W43057  38.961  43.413  11.123
83522W        W43058   3.755  14.709   1.217
83523W        W43059  32.042   6.778   1.333
83524W        W43060  28.949  41.001   3.816
83525W        W43061  30.931  41.858  13.318
83526W        W43062  32.132   1.955  12.499
83527W        W43063  24.587  44.980  11.606
83528W        W43064   1.978  35.874   3.354
83529W        W43065  19.541   9.721   4.129
83530W        W43066  42.914   3.768  13.866
83531W        W43067   0.435   7.899  13.926
83532W        W43068  22.629  10.149   9.972
83533W        W43069  23.732  15.684   2.306
83534W        W43070   8.263  43.913   2.825
83535W        W43071  34.969  31.509   3.712
83536W        W43072  24.992  13.161  12.431
83537W        W43073  41.435  39.993  12.513
83538W        W43074  21.696  18.182  14.898
83539W        W43075   2.908  31.006   3.266
83540W        W43076  37.919  27.679  10.978
83541W        W43077  19.640  41.964   2.843
83542W        W43078  13.152   5.208  12.417
83543W        W43079  15.757  17.778  12.846
83544W        W43080   0.837  22.110  13.358
83545W        W43081  28.968  11.813  10.461
83546W        W43082  21.721  19.087  13.374
83547W        W43083   6.296  13.136   0.380
83548W        W43084  41.916  39.890   4.168
83549W        W43085  34.955  15.594   1.745
83550W        W43086  22.518  27.191  11.586
83551W        W43087  13.157  25.086  13.965
83552W        W43088  13.284  15.597   2.752
83553W        W43089  36.950  23.139   3.310
83554W        W43090   1.283  22.013  14.881
83555W        W43091  10.380  12.775   4.305
83556W        W43092  33.441  25.081  14.287
83557W        W43093  33.548  25.540   1.710
83558W        W43094  44.314  18.790  12.969
83559W        W43095  17.731  15.110  10.631
83560W        W43096  10.857  11.854   2.213
83561W        W43097  40.496   4.355  12.518
83562W        W43098  42.906  16.088   3.299
83563W        W43099  18.151  37.919  11.080
83564W        W43100   0.785  14.148   0.964
83565W        W43101  40.975   9.831  14.436
83566W        W43102  43.894  33.550   4.684
83567W        W43103  39.428  38.445  14.378
83568W        W43104  44.762  26.058  13.815
83569W        W43105  41.810  11.252  11.886
83570W        W43106  42.997   6.283  12.547
83571W        W43107   5.266  42.994  13.013
83572W        W43108  37.338  25.990   3.759
83573W        W43109   1.385  41.489  14.894
83574W        W43110  19.057  40.421  12.410
83575W        W43111  42.383  11.337  11.418
83576W        W43112  15.811  35.548  11.534
83577W        W43113  27.164  30.148  13.880
83578W        W43114   0.494   0.354  12.860
83579W        W43115  36.849  11.839  13.809
83580W        W43116  17.569   1.893   2.820
83581W        W43117  38.858  12.851  14.309
83582W        W43118  31.576  18.242  12.556
83583W        W43119  39.852  20.678   3.379
83584W        W43120   5.283  37.342  11.547
83585W        W43121  40.337   9.199   4.246
83586W        W43122  27.539  16.776   4.733
83587W        W43123   8.779  23.661  11.120
83588W        W43124  31.088  12.627  10.439
83589W        W43125   3.827  26.028   9.524
83590W        W43126  38.987  11.263  11.992
83591W        W43127   0.794  15.822  13.882
83592W        W43128  14.261  35.594  13.416
83593W        W43129  21.122  29.564   3.700
83594W        W43130  43.891  27.099   5.139
83595W        W43131  26.668  40.516   2.879
83596W        W43132  14.617  43.930   2.721
83597W        W43133  13.316  29.592   0.243
83598W        W43134  23.528   3.422   1.926
83599W        W43135  40.345  42.006  11.503
83600W        W43136  15.283  38.886   0.480
83601W        W43137  42.349  26.627   2.807
83602W        W43138  16.791  12.776   3.732
83603W        W43139  16.763  31.120  10.928
83604W        W43140  30.957  11.728  11.968
83605W        W43141   4.247   6.888  13.891
83606W        W43142  35.090   3.710  12.428
83607W        W43143   4.716  11.700  10.060
83608W        W43144  39.891  27.538  14.825
83609W        W43145  14.648  39.021   9.933
83610W        W43146  33.562  23.504  11.102
83611W        W43147  20.036   7.377   0.960
83612W        W43148  21.053  36.443   1.447
83613W        W43149  34.454  41.790   4.240
83614W        W43150  36.370   6.739  14.792
83615W        W43151  40.494  17.587  13.037
83616W        W43152  10.868  36.891  10.441
83617W        W43153   4.313  20.585   2.389
83618W        W43154  13.132  14.123  11.376
83619W        W43155   5.811  28.494   9.655
83620W        W43156   5.764  36.004   4.678
83621W        W43157  44.874  37.493   1.826
83622W        W43158  41.034   1.968   2.748
83623W        W43159  14.265   0.889   4.602
83624W        W43160  10.716  35.514   1.818
83625W        W43161  10.184  38.020  14.966
83626W        W43162   7.269  31.062  12.524
83627W        W43163  18.089   1.292   3.719
83628W        W43164  41.523  40.973   2.895
83629W        W43165  26.165   3.949   2.722
83630W        W43166   4.760  31.928   0.260
83631W        W43167  19.627   0.896  14.784
83632W        W43168  23.724  32.955  14.787
83633W        W43169   6.191  26.099   2.797
83634W        W43170  40.482  31.987   3.647
83635W        W43171   2.383  28.658   1.429
83636W        W43172  43.302  24.102  11.091
83637W        W43173   7.729  16.215  12.438
83638W        W43174  25.609  38.378   0.876
83639W        W43175  27.991  14.180   3.713
83640W        W43176  18.080   6.210   4.272
83641W        W43177  28.945  14.794   0.916
83642W        W43178   8.323  41.406  14.009
83643W        W43179  22.673  23.034   3.634
83644W        W43180   2.396  11.839  14.824
83645W        W43181  37.073  38.823   1.267
83646W        W43182  42.813   8.666  14.857
83647W        W43183  15.706  31.501  13.840
83648W        W43184   3.293  29.927   3.290
83649W        W43185  37.471  22.028  13.445
83650W        W43186  14.802  26.030   1.402
83651W        W43187   5.396   0.883   1.815
83652W        W43188  12.243   3.423  11.947
83653W        W43189  15.105  17.279  12.990
83654W        W43190  27.446  26.500   3.340
83655W        W43191  25.163  31.503   0.455
83656W        W43192   1.896  25.554  10.547
83657W        W43193   1.766   5.753  14.299
83658W        W43194   2.866  26.679  12.349
83659W        W43195  37.452  17.171   1.416
83660W        W43196   1.407   9.212   2.353
83661W        W43197  31.149  24.138  11.531
83662W        W43198   8.828  15.245  12.087
83663W        W43199   4.427  12.841  13.374
83664W        W43200  34.024  21.018   2.745
83665W        W43201   4.742   1.919   3.845
83666W        W43202  33.417  44.930   3.260
83667W        W43203  44.810  32.953  12.392
83668W        W43204  38.480  11.864   3.670
83669W        W43205  10.142  36.093   2.718
83670W        W43206  39.988   0.806  10.143
83671W        W43207  31.109   6.845  12.833
83672W        W43208  39.939  33.106   4.221
83673W        W43209   7.910  31.040  13.436
83674W        W43210  27.459  42.293  10.518
83675W        W43211  21.198  28.100   1.767
83676W        W43212  39.047  23.220   4.239
83677W        W43213  26.668  44.883   3.655
83678W        W43214  37.000  12.611   1.899
83679W        W43215   0.928  15.202   0.928
83680W        W43216   6.184  25.639   1.415
83681W        W43217  39.337   7.225  11.612
83682W        W43218  24.019  10.787   4.249
83683W        W43219  10.632  19.104   3.863
83684W        W43220   2.269  31.940  13.059
83685W        W43221  19.545  12.727  10.631
83686W        W43222  44.809  18.622   1.231
83687W        W43223  25.137  36.943  13.955
83688W        W43224   0.282  43.311   1.801
83689W        W43225  12.236  32.126  14.837
83690W        W43226   6.887  15.161  10.954
83691W        W43227  23.534  13.262  13.974
83692W        W43228  17.746  13.274  14.025
83693W        W43229   3.939  27.090   0.307
83694W        W43230  39.885   6.218  12.875
83695W        W43231  25.074   2.426  13.036
83696W        W43232   1.775   5.834  13.324
83697W        W43233  30.623  40.817  11.479
83698W        W43234  18.716  33.419   4.267
83699W        W43235  24.086   5.820  13.482
83700W        W43236  17.565  16.751   4.829
83701W        W43237  43.461  40.812   0.924
83702W        W43238  23.092  31.953  12.418
83703W        W43239  32.607  32.955  12.025
83704W        W43240   7.749  16.156   1.806
83705W        W43241   6.737  18.248  10.405
83706W        W43242  24.134  20.061   1.861
83707W        W43243   7.712  43.905   2.884
83708W        W43244  39.933  12.616  11.944
83709W        W43245   1.837   7.314   0.875
83710W        W43246  23.539  33.891  12.377
83711W        W43247   0.745  19.700   0.882
83712W        W43248  39.039  35.854   5.157
83713W        W43249  21.097  19.774   4.216
83714W        W43250  32.087  19.282   2.225
83715W        W43251  17.184   2.297  14.433
83716W        W43252  36.523  26.575   2.883
83717W        W43253  14.219  28.665   4.722
83718W        W43254   3.816  28.557  13.970
83719W        W43255   2.786  30.587   2.415
83720W        W43256  32.088  41.036  10.479
83721W        W43257  32.133  15.626   2.288
83722W        W43258  14.677  43.460  10.468
83723W        W43259  38.487  19.560  12.520
83724W        W43260  23.098   0.964  11.935
83725W        W43261   3.391  20.105   3.758
83726W        W43262  15.608   7.676  11.868
83727W        W43263  18.180  29.637   2.380
83728W        W43264  38.974  23.732  12.987
83729W        W43265  16.186  19.706   1.246
83730W        W43266  35.914  39.864   3.325
83731W        W43267  24.043  29.449   0.248
83732W        W43268   9.692  17.127  13.513
83733W        W43269   6.336   9.878   4.220
83734W        W43270   5.308  29.525   3.154
83735W        W43271  36.980   9.816   2.681
83736W        W43272  44.804  43.385  12.050
83737W        W43273  21.075  30.026  14.798
83738W        W43274   1.973  10.236  13.823
83739W        W43275  13.770  24.984  12.419
83740W        W43276  11.851  22.132   4.220
83741W        W43277  19.682  26.471   3.655
83742W        W43278   0.961  28.092   2.398
83743W        W43279  27.113  39.506   0.954
83744W        W43280  38.523  20.053   2.679
83745W        W43281   5.391   8.767   5.285
83746W        W43282   9.679  25.157   3.792
83747W        W43283  36.890  41.320  13.365
83748W        W43284  12.302  30.418   0.958
83749W        W43285  32.894  35.991  12.926
83750W        W43286  21.515   6.204  11.119
83751W        W43287  16.735  11.247  13.502
83752W        W43288   4.828  20.146   3.853
83753W        W43289  27.044  21.021   0.855
83754W        W43290   2.366  11.763   3.720
83755W        W43291   6.900  14.605   4.246
83756W        W43292  12.119  10.749  11.554
83757W        W43293   1.245  37.543   4.803
83758W        W43294  44.425  34.048  11.001
83759W        W43295   1.341  31.014   4.266
83760W        W43296  19.157  13.229  12.527
83761W        W43297  33.131  14.241  12.939
83762W        W43298  24.073  21.665   4.734
83763W        W43299  26.119  26.083  14.418
83764W        W43300  43.910  10.859  10.644
83765W        W43301  32.601   5.827  14.306
83766W        W43302  29.924  28.662  13.380
83767W        W43303   9.228  12.624   4.222
83768W        W43304  33.416   2.956   3.197
83769W        W43305  10.663  16.693  12.479
83770W        W43306  11.234  42.817  13.364
83771W        W43307   4.743  26.982  11.888
83772W        W43308  15.275  16.742  13.467
83773W        W43309   9.374  34.548  12.034
83774W        W43310  33.916   5.886   0.854
83775W        W43311  42.281  14.720   0.902
83776W        W43312   2.734  44.898   4.223
83777W        W43313  42.862  33.013  14.819
83778W        W43314  21.637  34.374   0.938
83779W        W43315  23.592  23.096   3.866
83780W        W43316   5.756  14.689  11.459
83781W        W43317  31.140   0.261  11.568
83782W        W43318  34.012  19.182   0.807
83783W        W43319  26.082  11.780  10.963
83784W        W43320   2.789   2.959   4.245
83785W        W43321  24.025   7.885  12.366
83786W        W43322   3.222  39.873   1.296
83787W        W43323  13.707  17.766  11.987
83788W        W43324  34.097   2.228  11.991
83789W        W43325  16.713  17.613   5.121
83790W        W43326   8.400   2.754   0.421
83791W        W43327   9.816  14.709  14.923
83792W        W43328  35.552   7.288  11.391
83793W        W43329   3.799  13.255  11.609
83794W        W43330   0.434  23.504   3.220
83795W        W43331   5.417  40.364   1.427
83796W        W43332   6.861   5.311   4.219
83797W        W43333  28.126  41.038  12.580
83798W        W43334  33.480  10.255  12.842
83799W        W43335  35.488  38.066  12.491
83800W        W43336  44.417  11.865  12.072
83801W        W43337  25.137  28.679  10.542
83802W        W43338  42.341  25.019  13.986
83803W        W43339  24.210  44.006   1.381
83804W        W43340   2.858  41.501  12.405
83805W        W43341  37.349  41.863   0.963
83806W        W43342  33.959  25.679  12.923
83807W        W43343   8.758  44.259  14.885
83808W        W43344  21.175  16.670   4.116
83809W        W43345  39.495  40.024  13.926
83810W        W43346  39.879  26.179  11.988
83811W        W43347  18.123  30.026   2.379
83812W        W43348  16.090  25.480   1.908
83813W        W43349  10.341  20.594  13.383
83814W        W43350   0.383  32.476   4.239
83815W        W43351  17.675  34.939  11.397
83816W        W43352  28.063  36.073   3.227
83817W        W43353  26.634  43.911   2.784
83818W        W43354  13.760   8.697   2.902
83819W        W43355  25.978  36.587   0.895
83820W        W43356   3.877  20.697  11.928
83821W        W43357   6.205  25.678  13.924
83822W        W43358  30.942  20.074  14.014
83823W        W43359   3.340  14.666  12.342
83824W        W43360  26.669  28.502   3.329
83825W        W43361  11.656   5.829  13.892
83826W        W43362  32.522  39.024  14.351
83827W        W43363  16.752   5.404  12.551
83828W        W43364  42.923  37.912  10.452
83829W        W43365   8.204  21.556  13.062
83830W        W43366   3.258   0.753   3.381
83831W        W43367  12.624  25.468   3.749
83832W        W43368   5.913  19.562   2.749
83833W        W43369  31.427   2.236   3.190
83834W        W43370   8.736  24.220  11.118
83835W        W43371  24.977  28.981  14.346
83836W        W43372  22.738  21.660  13.038
83837W        W43373  29.552  38.338   0.796
83838W        W43374  35.954  42.350   2.317
83839W        W43375  41.909   2.334   3.322
83840W        W43376  11.727  15.648   2.258
83841W        W43377  38.987  28.560  13.532
83842W        W43378  41.958  36.561  11.459
83843W        W43379   2.456  12.361   4.603
83844W        W43380  15.679  19.736   1.247
83845W        W43381  21.669  35.365  14.847
83846W        W43382   3.265  19.245  10.971
83847W        W43383  11.649  37.011   0.346
83848W        W43384  23.206  12.853  11.465
83849W        W43385   6.225   5.925   4.683
83850W        W43386  26.185   4.276  10.037
83851W        W43387  20.235  37.921   3.730
83852W        W43388  27.683  24.101   2.221
83853W        W43389  31.960  39.520   2.269
83854W        W43390   9.856   4.920  13.029
83855W        W43391   6.900  14.730   0.963
83856W        W43392  13.330   8.901   0.258
83857W        W43393  14.816   0.970  11.445
83858W        W43394  10.845  32.106   2.703
83859W        W43395  25.102  12.767   3.198
83860W        W43396  39.454  35.430  14.979
83861W        W43397  26.478  22.128   0.284
83862W        W43398   5.716  44.387  13.480
83863W        W43399  38.042  11.817  10.447
83864W        W43400  41.935  10.678  11.597
83865W        W43401  21.243  38.988   3.676
83866W        W43402  26.146  18.130   1.281
83867W        W43403  44.379  37.372  11.860
83868W        W43404  40.542  14.284  12.969
83869W        W43405  29.002  10.866  11.531
83870W        W43406   8.747  36.571  13.840
83871W        W43407  19.176  24.017  13.425
83872W        W43408  14.164   2.755   1.861
83873W        W43409  15.681  25.028   0.809
83874W        W43410  12.809  40.384  12.468
83875W        W43411   5.368  32.475  12.832
83876W        W43412  15.660   1.928  13.387
83877W        W43413  22.736  11.827   3.818
83878W        W43414  39.346   9.871  14.981
83879W        W43415  16.681  35.558  11.026
83880W        W43416   4.788   2.767  12.887
83881W        W43417   5.380  18.649  11.103
83882W        W43418  21.727  34.107   3.641
83883W        W43419  19.768  41.365  14.783
83884W        W43420  43.386  32.976  13.327
83885W        W43421  37.933  42.504   0.328
83886W        W43422   2.431  28.133   1.881
83887W        W43423  33.893  39.389  13.859
83888W        W43424   9.270   9.770  11.913
83889W        W43425  38.340  41.802   2.320
83890W        W43426   2.857  44.823   4.754
83891W        W43427  41.866  23.559   1.729
83892W        W43428  13.214   0.798   2.692
83893W        W43429  19.251   7.396   3.643
83894W        W43430  34.441  10.794   3.349
83895W        W43431  28.521  17.683   4.754
83896W        W43432  22.252  14.821   3.220
83897W        W43433  35.446  11.169  12.344
83898W        W43434  30.006   5.199   3.267
83899W        W43435  40.376   2.946   9.548
83900W        W43436  28.181  13.158  14.967
83901W        W43437  25.201   7.205   1.446
83902W        W43438   6.688  15.668  13.044
83903W        W43439  12.627  25.182  13.337
83904W        W43440   1.749  12.740   5.789
83905W        W43441   2.828  30.139  12.903
83906W        W43442   2.724  10.860  14.876
83907W        W43443  32.902  16.750  14.851
83908W        W43444  29.125  12.147   1.804
83909W        W43445  40.877  43.915  13.039
83910W        W43446  10.171  12.712   0.867
83911W        W43447  24.002  16.568  14.929
83912W        W43448  28.082  42.402  14.879
83913W        W43449  36.050  14.128  13.410
83914W        W43450   7.352   9.864   2.235
83915W        W43451   3.761  33.910  13.043
83916W        W43452  35.060  24.512   3.333
83917W        W43453   7.275  36.436  14.476
83918W        W43454  31.061  18.203   0.950
83919W        W43455  37.993   5.434  12.841
83920W        W43456  29.544  31.930   5.105
83921W        W43457  38.333  37.498  12.449
83922W        W43458  39.893   7.231  14.340
83923W        W43459  18.753  44.945   2.709
83924W        W43460  17.693  43.417  11.030
83925W        W43461   6.223   4.861  13.513
83926W        W43462  30.557  25.989  14.842
83927W        W43463  28.120  35.427   0.415
83928W        W43464   2.373   8.166  13.983
83929W        W43465  32.102  29.117   4.182
83930W        W43466   7.263   4.294  10.904
83931W        W43467  18.773  10.360  12.356
83932W        W43468   1.913  28.052   0.740
83933W        W43469  29.076  11.173  10.525
83934W        W43470  35.868  24.016   4.687
83935W        W43471  23.130   6.810   1.372
83936W        W43472  32.078  28.483   3.778
83937W        W43473  31.437  26.638  13.819
83938W        W43474  34.943  20.226  14.947
83939W        W43475  16.107   7.261   0.296
83940W        W43476   0.280   8.402   0.913
83941W        W43477  42.818  38.332   3.656
83942W        W43478  36.990   7.311   0.897
83943W        W43479  23.985  42.807   4.318
83944W        W43480  38.957  39.975  12.547
83945W        W43481  42.783   9.742  12.088
83946W        W43482   1.861  33.941   3.318
83947W        W43483   0.745  27.043   2.281
83948W        W43484  38.409  14.753   1.422
83949W        W43485  39.927  44.920   0.387
83950W        W43486  28.470  11.692   4.259
83951W        W43487  20.115  40.442  10.916
83952W        W43488  28.099   0.306   0.416
83953W        W43489  30.078  40.387  14.997
83954W        W43490   5.309  24.596   9.483
83955W        W43491  12.778   0.744  11.372
83956W        W43492  23.055  31.997  11.450
83957W        W43493  33.032  19.116  14.357
83958W        W43494  16.792   7.775  13.402
83959W        W43495  23.716  23.232  13.442
83960W        W43496  37.351  32.410  14.819
83961W        W43497   7.341  10.783  11.377
83962W        W43498  13.343  34.600   1.894
83963W        W43499   5.371   8.362   2.371
83964W        W43500  20.595  10.220   1.229
83965W        W43501   5.396   7.337  14.488
83966W        W43502  40.413  16.741   4.601
83967W        W43503  12.118   9.316   2.315
83968W        W43504  10.747  43.454   2.724
83969W        W43505  18.098  22.723   0.280
83970W        W43506  10.837  29.601   3.306
83971W        W43507  32.461  24.687   3.253
83972W        W43508  19.734   4.797  11.513
83973W        W43509  11.137  13.235   0.280
83974W        W43510  32.887   3.875   1.420
83975W        W43511  35.476  36.857   4.823
83976W        W43512  13.846  34.115  14.500
83977W        W43513   4.943  33.539  13.546
83978W        W43514  21.744  29.499   3.822
83979W        W43515   5.708  35.970  14.023
83980W        W43516  32.474  39.957   2.300
83981W        W43517  43.821   0.952   4.279
83982W        W43518  15.155  31.034  14.318
83983W        W43519  40.335  15.213   0.443
83984W        W43520  37.036  36.558   2.762
83985W        W43521  33.554  10.648   3.726
83986W        W43522  30.075  36.886   1.851
83987W        W43523   3.365  22.634   3.735
83988W        W43524  29.631   1.803   1.299
83989W        W43525  44.311  35.862  10.461
83990W        W43526  31.404  14.703   2.178
83991W        W43527  20.266  30.909  13.854
83992W        W43528  37.044  12.238  14.970
83993W        W43529   7.747  29.553   1.767
83994W        W43530  33.034  43.854   4.731
83995W        W43531  42.886   3.275   4.266
83996W        W43532  19.650  38.358   4.799
83997W        W43533  39.859   3.765   5.184
83998W        W43534  26.114  44.264  12.873
83999W        W43535   2.356  43.009   2.323
84000W        W43536  39.945  44.778   1.789
84001W        W43537  39.907  27.616  12.562
84002W        W43538  33.879   3.733   0.420
84003W        W43539  32.624  22.536  10.159
84004W        W43540   5.778  19.196   4.205
84005W        W43541   7.358   6.276  10.610
84006W        W43542  21.138  38.526  11.088
84007W        W43543   8.870  21.649   0.374
84008W        W43544   5.288  31.966  11.601
84009W        W43545   2.435  17.643   0.785
84010W        W43546  38.007  42.869   0.867
84011W        W43547  15.172   7.382   0.326
84012W        W43548  23.691   4.844  13.051
84013W        W43549   7.735   8.749  13.529
84014W        W43550  44.833  10.681  14.841
84015W        W43551  28.577  31.471   1.779
84016W        W43552  36.995  11.320   4.805
84017W        W43553  35.053  29.998  10.971
84018W        W43554   1.437  43.963  11.386
84019W        W43555  44.301  26.621   2.342
84020W        W43556  26.534  28.990  13.012
84021W        W43557  14.119   4.228   2.310
84022W        W43558  11.850  35.015   1.803
84023W        W43559  12.629   6.883   1.445
84024W        W43560   2.799  11.156  12.083
84025W        W43561  44.951  15.241   1.372
84026W        W43562   0.851  27.073  14.012
84027W        W43563  36.506  21.083   4.339
84028W        W43564  27.494  39.895   2.673
84029W        W43565   4.378  18.193   3.172
84030W        W43566  28.546  22.095  11.098
84031W        W43567  18.264  34.046   1.264
84032W        W43568  44.899  30.148   2.277
84033W        W43569  38.373  31.545   0.881
84034W        W43570  28.152  43.444   4.151
84035W        W43571   3.860  20.188  12.396
84036W        W43572  15.095  16.701   2.223
84037W        W43573  16.802  31.604  11.372
84038W        W43574   9.188  41.980  14.761
84039W        W43575  17.742   6.199   2.752
84040W        W43576  34.523   2.395   1.825
84041W        W43577  44.785  38.427   0.367
84042W        W43578   8.235  10.873  14.792
84043W        W43579  26.694  40.536  14.997
84044W        W43580  42.876  40.909  14.339
84045W        W43581  43.500   9.168  11.534
84046W        W43582  19.273  30.414   0.419
84047W        W43583  35.897  27.506  11.587
84048W        W43584   9.713  26.590  11.523
84049W        W43585  15.186  31.412  10.896
84050W        W43586  29.081  15.607   3.727
84051W        W43587  32.972   5.762  12.065
84052W        W43588  25.639   3.265   0.430
84053W        W43589  36.511  39.544  11.406
84054W        W43590   6.308  21.201   5.087
84055W        W43591  34.027  22.122   4.240
84056W        W43592  20.053  10.185  11.000
84057W        W43593  42.453  17.150  11.000
84058W        W43594  34.979  16.078   0.340
84059W        W43595  34.615  17.227   1.438
84060W        W43596  30.054  36.035  10.556
84061W        W43597   1.430  14.610   2.244
84062W        W43598  36.882  19.203   4.188
84063W        W43599  25.962   1.357  13.469
84064W        W43600  40.428  23.730  13.813
84065W        W43601   3.828  29.526  13.921
84066W        W43602  43.303  15.628  12.012
84067W        W43603  34.388   1.867  13.483
84068W        W43604   9.179  29.479  14.767
84069W        W43605  21.216   0.749   2.781
84070W        W43606  24.684   5.692   5.097
84071W        W43607  10.195  14.797   1.401
84072W        W43608  16.762  16.710   3.294
84073W        W43609  37.927  29.170  10.013
84074W        W43610  33.956   4.906  11.483
84075W        W43611  13.784   6.244   4.614
84076W        W43612  12.168  22.098   4.326
84077W        W43613  25.574  17.185  14.374
84078W        W43614  17.118  13.691   1.755
84079W        W43615  15.150   6.296   3.790
84080W        W43616  35.945  43.807  13.439
84081W        W43617  15.818  12.209   1.757
84082W        W43618  16.755   2.386  14.447
84083W        W43619   1.954  24.539  13.882
84084W        W43620  42.967  23.638   4.833
84085W        W43621   8.405  38.522  10.454
84086W        W43622  32.525  24.676  10.536
84087W        W43623  13.239  35.446   4.216
84088W        W43624  29.117  41.795   0.793
84089W        W43625   3.308   8.727   1.899
84090W        W43626  34.462  39.507   4.299
84091W        W43627  21.141  44.778   0.940
84092W        W43628  17.743  31.491   0.444
84093W        W43629  40.548   2.390   2.191
84094W        W43630  10.274  15.809   2.354
84095W        W43631  21.551  40.353   3.344
84096W        W43632  13.828  39.940  11.426
84097W        W43633  20.240  13.628  13.023
84098W        W43634  16.243  15.711   2.790
84099W        W43635  36.520  37.438   3.642
84100W        W43636  23.175   3.941  11.483
84101W        W43637   9.150  34.455   2.825
84102W        W43638  33.956  22.044   3.692
84103W        W43639  18.201  38.028  13.064
84104W        W43640   8.687   5.428  10.592
84105W        W43641  11.293   5.319  14.373
84106W        W43642  17.120  43.423   4.137
84107W        W43643  14.248  39.988  10.533
84108W        W43644  17.165   9.254  12.997
84109W        W43645  34.097  32.587  10.463
84110W        W43646  14.684  10.818  14.836
84111W        W43647  38.886  33.950   3.737
84112W        W43648  29.585  31.018  11.931
84113W        W43649  11.738  32.517  12.989
84114W        W43650  33.923  31.591   1.332
84115W        W43651  35.427   0.884   4.201
84116W        W43652  39.919  42.779  12.546
84117W        W43653  44.911  31.125  14.290
84118W        W43654   5.318  21.093   4.778
84119W        W43655  16.729   9.322  13.859
84120W        W43656  15.226  24.609  13.886
84121W        W43657  35.401  12.259   0.768
84122W        W43658  33.921   1.483   1.910
84123W        W43659  26.979  29.472  13.973
84124W        W43660   2.775  25.477  13.906
84125W        W43661  36.977  34.606   2.672
84126W        W43662  44.816  34.489   0.832
84127W        W43663  21.098  18.118   0.387
84128W        W43664  19.183  40.887   0.462
84129W        W43665  28.636  27.534   4.333
84130W        W43666  24.039  11.796   0.934
84131W        W43667  44.994  43.410   2.404
84132W        W43668  24.202  14.644  14.411
84133W        W43669  32.473  30.062   0.407
84134W        W43670  16.283  32.898   0.862
84135W        W43671   5.267  27.094   3.662
84136W        W43672  28.648  25.196   9.443
84137W        W43673  36.470  12.173  12.528
84138W        W43674  10.219  14.337   0.833
84139W        W43675  37.432  17.082  14.017
84140W        W43676  21.215  20.158  12.977
84141W        W43677  13.240  26.113   2.190
84142W        W43678  13.620  38.914  10.547
84143W        W43679   9.699  36.431  13.898
84144W        W43680  42.300   5.325   0.346
84145W        W43681   8.163  14.097   2.826
84146W        W43682  43.372  33.429   4.713
84147W        W43683   0.829  16.602  11.483
84148W        W43684  38.005   3.445  11.432
84149W        W43685  44.004  41.487  13.316
84150W        W43686  11.178  10.863  11.406
84151W        W43687  12.853  30.990   3.319
84152W        W43688   3.724  22.251   3.162
84153W        W43689   4.787   8.223  13.022
84154W        W43690  42.812   6.915   3.838
84155W        W43691  21.642  30.572  13.413
84156W        W43692   3.760  19.626   2.736
84157W        W43693  25.209  31.032   3.711
84158W        W43694  14.782  12.807  12.943
84159W        W43695  34.382   8.184   1.239
84160W        W43696  32.397  26.602   3.256
84161W        W43697  13.168  38.520  11.411
84162W        W43698  24.151  26.170   0.452
84163W        W43699  20.763  23.547   0.919
84164W        W43700   5.850   0.313  14.862
84165W        W43701  28.514  11.645   0.367
84166W        W43702  32.120  39.476   3.739
84167W        W43703   4.330  16.313   0.323
84168W        W43704  34.111   5.713   3.772
84169W        W43705  40.980  11.785  12.840
84170W        W43706  40.390  17.277  10.111
84171W        W43707  42.955  43.892   2.242
84172W        W43708  30.921  36.971  13.800
84173W        W43709  27.461  30.043  14.423
84174W        W43710  23.606  10.691   4.735
84175W        W43711  42.856  12.792  12.824
84176W        W43712  44.998   8.799   5.734
84177W        W43713  25.069  19.573   5.705
84178W        W43714  17.572  24.125  11.393
84179W        W43715  19.219  16.643   2.186
84180W        W43716  37.853  33.914   0.812
84181W        W43717   1.834  43.326  12.562
84182W        W43718  22.562  30.004  11.884
84183W        W43719  23.617   4.274   0.350
84184W        W43720  33.107  26.119   1.881
84185W        W43721  41.529  14.629  10.051
84186W        W43722  33.413  11.270  11.944
84187W        W43723  40.873  18.231   0.394
84188W        W43724  20.146  15.223  11.587
84189W        W43725   5.317  18.200  13.448
84190W        W43726  28.564  16.614  12.495
84191W        W43727  40.031  17.719   3.662
84192W        W43728  42.522  42.936  13.042
84193W        W43729  23.650   0.465  12.974
84194W        W43730   2.961  29.464  14.894
84195W        W43731  27.000  37.442   5.172
84196W        W43732  42.972  44.766   1.392
84197W        W43733   7.706  23.539   0.386
84198W        W43734  41.864  43.805  14.498
84199W        W43735  30.625   2.824  12.969
84200W        W43736   4.351  16.759  13.371
84201W        W43737  43.326  29.429   3.646
84202W        W43738  35.462  34.046  13.020
84203W        W43739  32.075  29.028   4.735
84204W        W43740  37.390   7.241  11.965
84205W        W43741   0.261  27.066   2.891
84206W        W43742  19.591  24.172  11.928
84207W        W43743  22.532  16.118   0.447
84208W        W43744  10.233  13.612   0.390
84209W        W43745  41.947  38.865  10.481
84210W        W43746  25.164  40.469  14.366
84211W        W43747  32.470  34.907   4.628
84212W        W43748  38.895   6.195   3.784
84213W        W43749   1.338  30.533   0.287
84214W        W43750   7.328  26.071   2.758
84215W        W43751  37.931  30.420  10.440
84216W        W43752  23.707  34.549  12.912
84217W        W43753  36.037  12.149   1.372
84218W        W43754   4.852  16.197  14.359
84219W        W43755  20.745  42.948  13.884
84220W        W43756   6.287  13.193   3.867
84221W        W43757   9.879  25.052  10.474
84222W        W43758  21.261   5.879   9.486
84223W        W43759  15.141   3.766   0.809
84224W        W43760  25.607  30.640  12.571
84225W        W43761  35.049  17.210   4.139
84226W        W43762  22.246  13.308   1.796
84227W        W43763   1.784  42.791   1.726
84228W        W43764  21.653  16.717   0.382
84229W        W43765  27.546  25.648  11.049
84230W        W43766  37.432  43.871  10.151
84231W        W43767  35.874  35.943  14.924
84232W        W43768   9.724  28.092   3.220
84233W        W43769  23.654  19.697   0.834
84234W        W43770  40.479  11.747  11.048
84235W        W43771  36.008  29.631   0.904
84236W        W43772  26.091  27.460   1.283
84237W        W43773   7.196  23.510  13.807
84238W        W43774  31.917   8.254   3.324
84239W        W43775  30.089  37.482   0.327
84240W        W43776  44.821  38.016  13.396
84241W        W43777  26.519  10.222  11.458
84242W        W43778  33.974  37.472  10.547
84243W        W43779  24.109  11.296  11.524
84244W        W43780  30.447  21.511   1.880
84245W        W43781  33.559  10.362  13.510
84246W        W43782  18.634  23.205   2.387
84247W        W43783  38.409  43.925   4.161
84248W        W43784   5.420  12.163   2.833
84249W        W43785   5.919  36.536   0.295
84250W        W43786  37.482  22.213  14.495
84251W        W43787  14.103  21.651   0.790
84252W        W43788  25.000  11.306  14.516
84253W        W43789  22.042   6.294   0.471
84254W        W43790   4.354  20.696  11.107
84255W        W43791   4.352  37.861  10.552
84256W        W43792  26.536  32.631  10.493
84257W        W43793  32.887  37.508  13.443
84258W        W43794   9.367   3.713   1.910
84259W        W43795  17.276  13.116   4.199
84260W        W43796  34.450  30.068   3.272
84261W        W43797  40.910  34.882  12.352
84262W        W43798  12.639  11.153  11.459
84263W        W43799   1.298  28.946   1.754
84264W        W43800   9.775  41.933  11.996
84265W        W43801  17.626  17.648   1.316
84266W        W43802  11.299   9.747  11.891
84267W        W43803  37.936   7.250   3.325
84268W        W43804  16.610  35.980   2.181
84269W        W43805  44.337  20.699  12.364
84270W        W43806  28.545  17.712   2.227
84271W        W43807   6.823  35.942  14.453
84272W        W43808  29.089   9.646  10.591
84273W        W43809   1.891   2.922   4.741
84274W        W43810  12.169  30.967  14.373
84275W        W43811  24.139  13.723  11.050
84276W        W43812  39.969  28.576   2.665
84277W        W43813  24.129   1.786   0.869
84278W        W43814   2.821  26.508  12.863
84279W        W43815  36.586  43.503  14.993
84280W        W43816   8.383  34.513   4.730
84281W        W43817  43.969   6.764   4.287
84282W        W43818  33.935   7.248  11.857
84283W        W43819  11.778  43.991  14.434
84284W        W43820  42.835  35.109   3.798
84285W        W43821  22.106  12.302  10.976
84286W        W43822  24.713  39.392  12.084
84287W        W43823  13.272   7.774   3.723
84288W        W43824  38.426  17.184  13.990
84289W        W43825  32.529  11.719   3.843
84290W        W43826  44.264  13.603  12.902
84291W        W43827  15.687  41.981  11.936
84292W        W43828  26.128  15.268   0.409
84293W        W43829  21.126   7.831   4.128
84294W        W43830  13.770   1.348  11.866
84295W        W43831  35.366  17.074   1.879
84296W        W43832  21.022  35.075  11.895
84297W        W43833  19.770  25.612   2.378
84298W        W43834  30.072  12.235  14.440
84299W        W43835  29.657   8.405  12.352
84300W        W43836   9.174  17.174   0.794
84301W        W43837  18.727  30.545  10.543
84302W        W43838  20.665   0.788   1.847
84303W        W43839  10.264  22.689   3.335
84304W        W43840  30.014  21.120   2.317
84305W        W43841  30.501   5.779   4.736
84306W        W43842  24.147  10.690  12.578
84307W        W43843  18.655  30.494   2.690
84308W        W43844  35.012  35.424  10.592
84309W        W43845  11.641  37.073   0.927
84310W        W43846  30.551   6.340  10.642
84311W        W43847  12.802  15.630  13.044
84312W        W43848  16.578  29.020   2.379
84313W        W43849  20.646  32.061  12.544
84314W        W43850   4.787  11.262  11.479
84315W        W43851  17.192  41.324  11.970
84316W        W43852   5.750   2.287   3.290
84317W        W43853  29.660  22.685   4.609
84318W        W43854  15.696   1.904   0.779
84319W        W43855  44.796  44.442  10.443
84320W        W43856   6.702   6.314   1.848
84321W        W43857  36.541  19.621   3.633
84322W        W43858  17.232   3.370   3.716
84323W        W43859   9.826   3.918  14.790
84324W        W43860  36.387  15.615  14.017
84325W        W43861  10.721   5.247  14.804
84326W        W43862  39.857  14.799   4.798
84327W        W43863  43.860  35.485   4.169
84328W        W43864  24.033  39.369   2.366
84329W        W43865  33.981  43.972  14.013
84330W        W43866  40.358  29.555   4.753
84331W        W43867  10.276   0.344  14.023
84332W        W43868  37.558  36.871   3.745
84333W        W43869  25.105  24.531   2.254
84334W        W43870  12.819  15.700  12.064
84335W        W43871   8.170  23.644  10.638
84336W        W43872  33.410  16.266  10.926
84337W        W43873  24.544   5.840  10.558
84338W        W43874   8.792  11.731   0.748
84339W        W43875  20.266  41.852   0.324
84340W        W43876  28.182  22.665   2.248
84341W        W43877  11.232  26.058   4.604
84342W        W43878  30.163  23.182  10.408
84343W        W43879  11.770  17.261  12.034
84344W        W43880   8.875   2.886   1.734
84345W        W43881  11.139  16.672  14.311
84346W        W43882   0.456  34.555   4.755
84347W        W43883  28.561  29.538  13.423
84348W        W43884  23.063  39.976   0.440
84349W        W43885  10.835  34.588   4.646
84350W        W43886  26.129  41.384   4.162
84351W        W43887  18.639  16.739  11.602
84352W        W43888  42.902   6.333  10.597
84353W        W43889  40.518  16.680  13.330
84354W        W43890  31.480  37.049   4.783
84355W        W43891  18.113  21.575  13.910
84356W        W43892  42.477  40.810  14.514
84357W        W43893  23.138  44.855   1.888
84358W        W43894  21.543   2.900   2.400
84359W        W43895  38.865  24.482   1.405
84360W        W43896  13.827   5.755  11.047
84361W        W43897  42.877  27.606  13.945
84362W        W43898  15.821   2.389   3.703
84363W        W43899   3.423  26.161  14.277
84364W        W43900  42.312  12.725   9.936
84365W        W43901   4.444   8.225  11.982
84366W        W43902  32.062  10.153  13.057
84367W        W43903  31.933  15.611  10.510
84368W        W43904   0.396  38.989   4.832
84369W        W43905  33.549  11.162   1.702
84370W        W43906  37.337  19.667   5.292
84371W        W43907  10.733  25.977  13.002
84372W        W43908  40.493  28.097  11.994
84373W        W43909  25.575   0.747  10.431
84374W        W43910  22.705  33.430   1.363
84375W        W43911  12.242  43.513  13.308
84376W        W43912  30.574  35.862  12.530
84377W        W43913  20.725  38.373   2.828
84378W        W43914  19.153  16.238  11.610
84379W        W43915   4.741  16.653  12.065
84380W        W43916  29.130  10.215  14.935
84381W        W43917  37.915   3.338   1.810
84382W        W43918   1.937  29.489  12.420
84383W        W43919  17.656  10.643  13.509
84384W        W43920  16.188  44.776  14.420
84385W        W43921  35.878  10.734   1.903
84386W        W43922  44.804  39.846   4.262
84387W        W43923  27.683   5.744  13.982
84388W        W43924  19.688  23.061   0.337
84389W        W43925  23.574   7.666   1.324
84390W        W43926   9.371  13.258  14.854
84391W        W43927  40.934  21.620   4.275
84392W        W43928  30.609   7.338   1.867
84393W        W43929   9.150  21.174  10.024
84394W        W43930  19.779   0.466   3.864
84395W        W43931  14.103  44.992  13.045
84396W        W43932  36.382  13.242   2.814
84397W        W43933  11.721  26.204  14.820
84398W        W43934  24.059  15.110  10.558
84399W        W43935  25.581  35.396  12.436
84400W        W43936  38.060  15.105   2.671
84401W        W43937  36.977  16.782   3.258
84402W        W43938  14.247   4.838   2.324
84403W        W43939  14.782  40.886  10.956
84404W        W43940  31.981  28.020   5.318
84405W        W43941  19.603  11.712  14.955
84406W        W43942  25.991  11.758  11.586
84407W        W43943   7.221  37.348   5.212
84408W        W43944  37.063  34.514  12.013
84409W        W43945  22.717  12.274   1.426
84410W        W43946  41.343  18.281   3.657
84411W        W43947  31.420  14.588  12.412
84412W        W43948  24.982  36.887   2.202
84413W        W43949   9.321  19.710   2.366
84414W        W43950  23.989  38.047   2.215
84415W        W43951  28.646  34.474   1.739
84416W        W43952  13.335  29.526  10.465
84417W        W43953  10.852  10.790   0.399
84418W        W43954   3.410   1.366   2.262
84419W        W43955  31.905   5.691  11.940
84420W        W43956  40.911  10.323  14.411
84421W        W43957  11.208  43.400   3.219
84422W        W43958  16.770   6.922   4.720
84423W        W43959   0.260  14.223  14.992
84424W        W43960  13.304  10.280   2.317
84425W        W43961   3.829  19.044  14.000
84426W        W43962  26.987  22.085  14.804
84427W        W43963  10.762   4.367   5.613
84428W        W43964  40.529  38.066   0.288
84429W        W43965  26.134  41.512  11.022
84430W        W43966  12.237   1.341   1.291
84431W        W43967   7.733   9.244   2.187
84432W        W43968  24.690   3.944  12.475
84433W        W43969  33.574  41.013   2.800
84434W        W43970   5.874  34.954  11.920
84435W        W43971   1.750  14.304  13.008
84436W        W43972   7.869   0.390  12.881
84437W        W43973  21.092  31.583   2.360
84438W        W43974  16.603  11.839   4.337
84439W        W43975  34.400   1.781  13.924
84440W        W43976  26.201  28.135  12.004
84441W        W43977   2.888  14.640   4.603
84442W        W43978  28.958  12.671   4.315
84443W        W43979   5.806  40.053  13.316
84444W        W43980  19.188  23.998   2.793
84445W        W43981  36.893  10.710  12.925
84446W        W43982  28.463  23.677   4.248
84447W        W43983   5.763  37.959  11.054
84448W        W43984  35.391  32.094  10.489
84449W        W43985  10.268  22.515   4.216
84450W        W43986  17.746  18.552  12.445
84451W        W43987  28.016  20.102   1.877
84452W        W43988   1.807  33.417  14.017
84453W        W43989  35.403   5.275   2.827
84454W        W43990  34.529   6.305  14.457
84455W        W43991  19.695   6.860   4.684
84456W        W43992  31.124  41.433   1.326
84457W        W43993   4.839  16.793   0.738
84458W        W43994   3.737   0.437  10.486
84459W        W43995  30.530  16.669   2.714
84460W        W43996  42.785  22.733  14.982
84461W        W43997   3.801  10.278  13.825
84462W        W43998  11.850  42.348   0.357
84463W        W43999  22.510   6.202   3.232
84464W        W44000   2.827  35.859  14.867
84465W        W44001   3.389  27.583   3.686
84466W        W44002  39.006  36.352   1.791
84467W        W44003  34.034   1.448   4.676
84468W        W44004  16.091   2.730  10.595
84469W        W44005   1.388   1.889   4.189
84470W        W44006  34.009  14.807  14.958
84471W        W44007  21.529  20.723  11.461
84472W        W44008  38.964  28.598   3.821
84473W        W44009  27.022   4.383  14.920
84474W        W44010   2.335   0.785  10.150
84475W        W44011  28.442  23.222  10.433
84476W        W44012  26.988   1.384   1.913
84477W        W44013  36.936  16.163   4.229
84478W        W44014  41.504  29.963   0.877
84479W        W44015  30.955  22.156  13.822
84480W        W44016  26.128   3.725   1.359
84481W        W44017  17.585  38.907  12.357
84482W        W44018  44.892  33.611   2.193
84483W        W44019   3.428  29.621  10.642
84484W        W44020  13.158  15.686  13.058
84485W        W44021  28.152  13.810  10.482
84486W        W44022  34.013  26.153   2.669
84487W        W44023  39.452  25.570  13.851
84488W        W44024   1.889  36.475  12.358
84489W        W44025  21.639  40.910   0.773
84490W        W44026  42.008  25.150   3.723
84491W        W44027  38.828  26.564   2.248
84492W        W44028  23.506  32.028   1.897
84493W        W44029   9.775  42.878  14.764
84494W        W44030  18.118   2.286   3.183
84495W        W44031  27.584  25.618  13.808
84496W        W44032  23.644  44.466  12.488
84497W        W44033  19.686  36.848  13.012
84498W        W44034  28.587  13.644   3.695
84499W        W44035   5.769  20.534  12.004
84500W        W44036  36.526  27.098   3.858
84501W        W44037   9.694  44.451  12.847
84502W        W44038  24.655   1.326  12.085
84503W        W44039   3.889  36.938  13.038
84504W        W44040  44.917  39.017  10.405
84505W        W44041  28.597  10.243  12.039
84506W        W44042  13.216  14.649   3.351
84507W        W44043  19.714  42.836  10.890
84508W        W44044   5.748  27.010   5.718
84509W        W44045  14.332  28.939  14.820
84510W        W44046  43.377  21.229   3.661
84511W        W44047  33.445  22.523  11.876
84512W        W44048  21.175  13.614  12.555
84513W        W44049   3.442   1.252   4.136
84514W        W44050  34.067  41.915  11.972
84515W        W44051  36.935  32.010  13.414
84516W        W44052   3.420  11.754  13.816
84517W        W44053  38.029  10.707  11.083
84518W        W44054  28.965  38.933   2.360
84519W        W44055  44.396   5.843   0.278
84520W        W44056  30.584  35.581   2.211
84521W        W44057  44.766  24.673   5.227
84522W        W44058   7.791  26.679   2.766
84523W        W44059  10.824  42.289  10.525
84524W        W44060  29.058  36.040  13.513
84525W        W44061   9.394  11.266  11.445
84526W        W44062  27.485  17.709   5.208
84527W        W44063  21.033  40.411   5.209
84528W        W44064  29.944  26.612  11.097
84529W        W44065   8.834  23.126  11.544
84530W        W44066  34.080  34.018  13.801
84531W        W44067  29.164  17.559  12.447
84532W        W44068  19.649  26.484  13.425
84533W        W44069  40.499  39.337   1.433
84534W        W44070  10.763  40.412   0.374
84535W        W44071   5.340  24.042   2.729
84536W        W44072  21.600  18.132  11.031
84537W        W44073  36.514  38.480   4.680
84538W        W44074   1.246   0.457   4.228
84539W        W44075  11.312   1.952  12.885
84540W        W44076  21.570  18.783   5.736
84541W        W44077  24.594   4.771   1.780
84542W        W44078   5.341  44.954   4.113
84543W        W44079  11.332  11.254  11.435
84544W        W44080  34.118  25.609   2.313
84545W        W44081  11.181  33.996   2.765
84546W        W44082  26.675  32.604  14.311
84547W        W44083   1.425  29.130   2.252
84548W        W44084  42.954  12.163   1.215
84549W        W44085  19.686  20.646  12.386
84550W        W44086  40.917  21.741   0.837
84551W        W44087  42.883   3.764  10.574
84552W        W44088   5.435   9.870  12.361
84553W        W44089  14.113  36.943  11.860
84554W        W44090   0.272  15.629  10.974
84555W        W44091  11.355  12.193  13.535
84556W        W44092  38.486  18.050   1.774
84557W        W44093   7.370  12.258  10.605
84558W        W44094  30.562  20.551  12.368
84559W        W44095  24.006  12.823  11.453
84560W        W44096  27.570  24.647   0.837
84561W        W44097  10.198   8.837  11.559
84562W        W44098  24.709   5.730  10.040
84563W        W44099  23.234  36.556  11.404
84564W        W44100  27.554  37.832   0.460
84565W        W44101  23.586  30.909   0.941
84566W        W44102  14.629  40.921   3.348
84567W        W44103  27.507  32.001  13.314
84568W        W44104  20.080  18.133   1.855
84569W        W44105  19.586  22.200  13.983
84570W        W44106  19.054  38.348   4.245
84571W        W44107  25.470   7.809   4.185
84572W        W44108  39.992  23.045   0.383
84573W        W44109  13.609  24.605  12.086
84574W        W44110  41.900  33.005   2.670
84575W        W44111  10.657  15.776  11.598
84576W        W44112   6.369  39.560  14.903
84577W        W44113  31.057  33.492  11.601
84578W        W44114  43.973  29.012  10.642
84579W        W44115  12.806  31.093   3.863
84580W        W44116  42.926  18.130   1.305
84581W        W44117  38.559   9.309   1.701
84582W        W44118  15.670   5.869   0.850
84583W        W44119  14.199  19.105  14.487
84584W        W44120  31.069  39.556   4.815
84585W        W44121   0.979  44.387  12.955
84586W        W44122  32.499  44.863   4.133
84587W        W44123  20.663  42.432   2.345
84588W        W44124  26.201  25.213   2.891
84589W        W44125   8.332  29.584  12.404
84590W        W44126  10.319  25.597   3.224
84591W        W44127   3.242  34.911  14.790
84592W        W44128  10.814  17.227  12.379
84593W        W44129   4.413  42.435  13.476
84594W        W44130   9.315  10.198  14.908
84595W        W44131  24.189  23.073   2.870
84596W        W44132  44.469  41.310  14.815
84597W        W44133  18.227  18.256  10.626
84598W        W44134   1.824  43.861   1.930
84599W        W44135  29.113   0.824  12.025
84600W        W44136  15.730  29.978  14.470
84601W        W44137  25.029  21.719   3.688
84602W        W44138   0.399  31.556  14.897
84603W        W44139   8.376   2.755  14.854
84604W        W44140  41.457   1.320   1.444
84605W        W44141  16.673  14.698   3.814
84606W        W44142  41.459  29.534   0.767
84607W        W44143  15.719  22.698   3.781
84608W        W44144  29.641  22.686   3.726
84609W        W44145  19.675  29.054  10.963
84610W        W44146   3.237  25.496  12.410
84611W        W44147  36.564   6.362  11.581
84612W        W44148  43.481  37.846   2.294
84613W        W44149   9.164   7.773  10.586
84614W        W44150   6.838  23.072  13.791
84615W        W44151  30.939  41.430  12.966
84616W        W44152   7.386  38.028  13.394
84617W        W44153   3.388  30.034  14.346
84618W        W44154   8.285  35.473   4.789
84619W        W44155  43.011  10.148  12.017
84620W        W44156  21.541  38.430  11.495
84621W        W44157  14.769  25.092  13.481
84622W        W44158  23.151  33.053   0.750
84623W        W44159  25.701   3.424  10.906
84624W        W44160  29.483  31.916   9.937
84625W        W44161  21.098  40.008  12.477
84626W        W44162  38.446  18.206   4.821
84627W        W44163  18.218  21.140   3.680
84628W        W44164  39.895  14.831  14.936
84629W        W44165  10.862   7.239  13.829
84630W        W44166  44.882   0.969  12.578
84631W        W44167  43.791  13.226  14.790
84632W        W44168   7.187  33.566  11.443
84633W        W44169  10.332  17.220  13.015
84634W        W44170  30.078   0.251   0.740
84635W        W44171  23.072  41.867  14.290
84636W        W44172  35.981  26.662   4.740
84637W        W44173  27.042   5.860   2.324
84638W        W44174  39.826   7.347  13.925
84639W        W44175  39.411  25.135  13.908
84640W        W44176  36.939  44.502   4.349
84641W        W44177  38.055  16.654   1.335
84642W        W44178  32.533   4.713   3.315
84643W        W44179  36.844   0.888  13.019
84644W        W44180  42.859  22.556  11.493
84645W        W44181  32.894   2.343   4.808
84646W        W44182  11.355  25.006  14.444
84647W        W44183   3.345   6.781   1.397
84648W        W44184  17.185  31.410  13.989
84649W        W44185   2.342  26.051   9.675
84650W        W44186  27.946   8.769  13.514
84651W        W44187  15.666  18.167   4.158
84652W        W44188  27.098  18.676  12.465
84653W        W44189  19.580   2.351  10.494
84654W        W44190  39.433  17.196   4.798
84655W        W44191  12.630  12.352   0.736
84656W        W44192  21.025   4.225   3.188
84657W        W44193  37.067  21.676  10.586
84658W        W44194   5.908  18.183  14.914
84659W        W44195   8.811  11.283   4.615
84660W        W44196   2.873   3.944   1.877
84661W        W44197  43.380   0.938  10.590
84662W        W44198  34.024  38.847   2.716
84663W        W44199  36.358  44.373   5.687
84664W        W44200   6.235  35.011   4.174
84665W        W44201  37.882  11.180   0.403
84666W        W44202  26.684   5.371  12.458
84667W        W44203  20.073  18.295   3.236
84668W        W44204   2.295  13.660   0.871
84669W        W44205  13.693  41.418  10.905
84670W        W44206  33.565   5.234   2.403
84671W        W44207  16.256  38.551  12.999
84672W        W44208  17.636  20.064  11.014
84673W        W44209  23.998  22.656   4.600
84674W        W44210  41.509   8.730  14.823
84675W        W44211   5.908  26.048  10.128
84676W        W44212  33.436  35.055  14.833
84677W        W44213  10.332   7.908  14.765
84678W        W44214   2.861   7.378   1.835
84679W        W44215  18.171  25.208   1.848
84680W        W44216   7.258  21.735  11.912
84681W        W44217  34.952  39.015  10.604
84682W        W44218   5.327  10.646   0.464
84683W        W44219  32.457  16.276   1.230
84684W        W44220   8.373  14.294   4.164
84685W        W44221  39.424  10.295  13.389
84686W        W44222   4.807  34.863   4.798
84687W        W44223  13.738  20.211   3.732
84688W        W44224  24.214  18.639   3.717
84689W        W44225  13.234   8.685  11.875
84690W        W44226  37.027   9.730  13.974
84691W        W44227  33.130  17.268  11.075
84692W        W44228  36.850   4.859   2.765
84693W        W44229  23.140  14.769   2.410
84694W        W44230  30.653  42.434  12.995
84695W        W44231   7.236  30.054   0.822
84696W        W44232  43.503   5.867   4.618
84697W        W44233  35.916  13.267  12.931
84698W        W44234  24.629  36.398  11.601
84699W        W44235  32.492   7.216   5.148
84700W        W44236  12.338   8.301  13.909
84701W        W44237   3.928  40.803  14.422
84702W        W44238  11.223  41.535   3.723
84703W        W44239  39.540  40.383   4.680
84704W        W44240   3.259   9.645  11.003
84705W        W44241  21.258  29.459   0.360
84706W        W44242  23.026  14.657  13.427
84707W        W44243   2.851  41.914   3.810
84708W        W44244   5.738  31.545  12.059
84709W        W44245  13.757  12.796  14.492
84710W        W44246  36.406  34.495  12.950
84711W        W44247  23.687  12.653   0.834
84712W        W44248  38.976   6.350   1.225
84713W        W44249  18.059  14.720   3.256
84714W        W44250  27.552  11.371  11.435
84715W        W44251   1.352  22.672   1.810
84716W        W44252   9.363  44.817  11.377
84717W        W44253  44.940   1.936   4.216
84718W        W44254  19.140  33.066  13.003
84719W        W44255  23.204  36.026  13.423
84720W        W44256   4.747   2.956   0.869
84721W        W44257  30.971  39.443  13.490
84722W        W44258  20.766  31.136  14.464
84723W        W44259   1.301  16.080   3.780
84724W        W44260   3.359  14.266   4.749
84725W        W44261  24.556  29.106   3.298
84726W        W44262  14.703  11.764   3.376
84727W        W44263  27.049  14.833   2.285
84728W        W44264  15.246  28.605  12.077
84729W        W44265   7.229  11.186  13.806
84730W        W44266   0.415  20.692   4.207
84731W        W44267   6.317  43.836   0.302
84732W        W44268  28.443  43.467   2.755
84733W        W44269   3.784   0.814  10.568
84734W        W44270  22.185   1.780   0.473
84735W        W44271  38.402  24.661   2.183
84736W        W44272  27.644  16.151  14.877
84737W        W44273  34.531  43.795   1.365
84738W        W44274   4.889  39.505   4.821
84739W        W44275  16.187  28.555  14.317
84740W        W44276   1.327  23.526   1.314
84741W        W44277  37.538  34.544   4.173
84742W        W44278   4.892  25.609   1.266
84743W        W44279  13.641   2.915  11.102
84744W        W44280   6.873  21.746  12.845
84745W        W44281  24.077   7.296  10.533
84746W        W44282  27.638  30.155   2.706
84747W        W44283   4.830  25.703  10.629
84748W        W44284   9.241   3.714   0.379
84749W        W44285  18.100  35.359  10.948
84750W        W44286  31.936   3.228   1.345
84751W        W44287   0.462  44.819   3.863
84752W        W44288  29.486  35.372  12.995
84753W        W44289  34.884  27.165  14.864
84754W        W44290  21.240  37.339   2.263
84755W        W44291   9.221  38.026   2.215
84756W        W44292  36.447  17.740  10.518
84757W        W44293  36.434  18.712   2.280
84758W        W44294  34.987  30.036   4.126
84759W        W44295  44.482  34.951  12.904
84760W        W44296  42.878  44.504   3.325
84761W        W44297   2.956   3.772   1.299
84762W        W44298  25.172  29.425   4.727
84763W        W44299  23.171  30.536  14.794
84764W        W44300  37.361   7.272   2.807
84765W        W44301  29.652   1.346   0.362
84766W        W44302  13.715  10.742  12.880
84767W        W44303   8.348  38.514  14.346
84768W        W44304  13.318  28.955  13.369
84769W        W44305  44.439  25.086   1.806
84770W        W44306  33.411   6.282  14.307
84771W        W44307  31.563  24.720   0.455
84772W        W44308  21.720   1.369   4.192
84773W        W44309  17.246   6.286  13.014
84774W        W44310  15.644  30.120   1.780
84775W        W44311  20.767   2.319  10.504
84776W        W44312  23.177  32.461  13.519
84777W        W44313  12.302  22.058  14.919
84778W        W44314  30.069  44.333  12.524
84779W        W44315  12.335  13.304   2.383
84780W        W44316   2.330  32.983   1.399
84781W        W44317  31.476  23.501   5.137
84782W        W44318  31.446   5.417   1.753
84783W        W44319  42.882  27.475  14.500
84784W        W44320   2.863  23.653  12.832
84785W        W44321   7.816  40.316  14.876
84786W        W44322  27.643  40.880  10.500
84787W        W44323  24.133  14.719   1.219
84788W        W44324  19.726  35.477   0.948
84789W        W44325  16.281  20.240   2.769
84790W        W44326  13.678  10.645   0.367
84791W        W44327  14.314   0.933   2.684
84792W        W44328  42.359   0.771  11.552
84793W        W44329   2.822  42.795   3.383
84794W        W44330  25.629  41.021  11.470
84795W        W44331   1.736   1.970   3.362
84796W        W44332  31.413  32.926  10.628
84797W        W44333  27.576  40.851  12.356
84798W        W44334  22.074  15.680   3.382
84799W        W44335  18.632   9.737   1.271
84800W        W44336  26.605  42.283   1.255
84801W        W44337  17.196  28.540   0.459
84802W        W44338  23.598  11.254  14.781
84803W        W44339  20.736  15.156   3.835
84804W        W44340   2.467  18.729  12.827
84805W        W44341  10.863  27.682   5.262
84806W        W44342  18.145  21.062   5.198
84807W        W44343  16.122  15.181   0.377
84808W        W44344  27.665  29.465   1.327
84809W        W44345  35.942  21.752  12.870
84810W        W44346  39.385  33.113  14.412
84811W        W44347  13.228  12.647  13.333
84812W        W44348  41.938  32.600  12.902
84813W        W44349   3.829   4.827  11.936
84814W        W44350  37.349  14.657  13.826
84815W        W44351  39.917   5.335   4.683
84816W        W44352  23.061   1.785   2.205
84817W        W44353   5.271  27.054   1.377
84818W        W44354  29.094  27.113   0.407
84819W        W44355  13.349  39.382  10.905
84820W        W44356  27.533  17.256   1.745
84821W        W44357  15.667  28.443  11.540
84822W        W44358  11.161  17.709  10.474
84823W        W44359  22.525  23.120  11.866
84824W        W44360  10.179  17.188   4.339
84825W        W44361  37.542  22.142  12.350
84826W        W44362  35.920  15.605   1.790
84827W        W44363   4.407  27.159  14.841
84828W        W44364  16.702  35.944  14.454
84829W        W44365  44.922   5.933   0.275
84830W        W44366   0.940  32.964  13.425
84831W        W44367   4.410  21.018  13.791
84832W        W44368   4.438  13.314  12.573
84833W        W44369   6.344  42.527  14.289
84834W        W44370  38.000  17.087   1.774
84835W        W44371   8.830   0.892   4.716
84836W        W44372  13.778  30.470  11.589
84837W        W44373  43.358  36.993   0.360
84838W        W44374  10.360  43.964   2.359
84839W        W44375   3.932  25.536   2.772
84840W        W44376  26.612  34.093   3.200
84841W        W44377  18.066  43.292  13.042
84842W        W44378   7.381  22.163  14.286
84843W        W44379   1.277  33.939  11.569
84844W        W44380  20.086  21.020   3.151
84845W        W44381  14.719  44.992  13.428
84846W        W44382   9.839  32.413   1.770
84847W        W44383  21.618  34.100  14.443
84848W        W44384  13.320   6.724  12.357
84849W        W44385   5.811  28.647   1.884
84850W        W44386  33.005  20.035  14.916
84851W        W44387  12.173   4.903   2.392
84852W        W44388  42.856  33.989  14.013
84853W        W44389  15.089  14.326   3.730
84854W        W44390  15.158  44.858   1.325
84855W        W44391   1.810  33.007  13.033
84856W        W44392   7.233   1.469  10.438
84857W        W44393  36.384  40.506   0.834
84858W        W44394  17.794   3.790   4.665
84859W        W44395  29.152   8.866  12.960
84860W        W44396  36.538  31.974  14.315
84861W        W44397  30.046   6.873  13.987
84862W        W44398  21.223   3.835   3.331
84863W        W44399  40.528  36.563  13.959
84864W        W44400  23.218  21.561  10.097
84865W        W44401  12.228  44.934   2.391
84866W        W44402  13.649  39.386  12.876
84867W        W44403   7.830  12.241   2.376
84868W        W44404  13.256  30.463   3.647
84869W        W44405   9.364  11.178   2.397
84870W        W44406  32.992  36.385  13.486
84871W        W44407   2.764  17.674   4.722
84872W        W44408  30.571  30.947  14.830
84873W        W44409  23.164   1.346   3.747
84874W        W44410  20.589  24.171  12.889
84875W        W44411  44.936  29.425   0.961
84876W        W44412   5.319  24.056  13.395
84877W        W44413  11.273  31.443   3.270
84878W        W44414   4.835   2.239   0.865
84879W        W44415   2.241  19.047   2.344
84880W        W44416  29.918  43.811   4.178
84881W        W44417  38.942  12.127  11.960
84882W        W44418  29.495  41.786   0.457
84883W        W44419   4.927  29.474   3.384
84884W        W44420  38.916   0.858  11.993
84885W        W44421  17.243   0.480  12.498
84886W        W44422  24.703  36.487  13.861
84887W        W44423  18.565  36.000  14.387
84888W        W44424  36.943  28.162   1.313
84889W        W44425  34.975   0.850   3.649
84890W        W44426  15.281  39.337   2.696
84891W        W44427  16.566  14.603  14.311
84892W        W44428  29.053  42.962  14.972
84893W        W44429   9.856  41.965  13.998
84894W        W44430   7.381   5.203  12.863
84895W        W44431  15.772   0.873  12.840
84896W        W44432   2.456   8.860  10.947
84897W        W44433  40.539  24.608  13.385
84898W        W44434  11.660  21.173  12.091
84899W        W44435  11.287  41.968   0.886
84900W        W44436  17.672  31.408   3.844
84901W        W44437   9.798  33.941   3.210
84902W        W44438  30.133  24.105  13.408
84903W        W44439  23.689  42.843  10.496
84904W        W44440  40.864  31.556  12.399
84905W        W44441  17.129  14.273  12.845
84906W        W44442  19.164  29.106  14.290
84907W        W44443  11.737  26.565   0.933
84908W        W44444  16.191  17.590  13.504
84909W        W44445  29.608  24.725  11.503
84910W        W44446  39.478  11.640  11.043
84911W        W44447  34.945  43.408   0.798
84912W        W44448  37.028  23.089   3.818
84913W        W44449  28.071  33.991   1.738
84914W        W44450  27.146  32.930  12.903
84915W        W44451  14.664  23.042  12.395
84916W        W44452  12.295  36.533  10.601
84917W        W44453   6.215  30.559   3.837
84918W        W44454  18.568  34.950  13.526
84919W        W44455  37.986  37.876   1.294
84920W        W44456  34.466  26.491   3.212
84921W        W44457   9.238  23.624   4.276
84922W        W44458  10.255   0.939   4.790
84923W        W44459  38.496  12.841   4.176
84924W        W44460  29.615  34.589  11.015
84925W        W44461  43.913   6.676  11.077
84926W        W44462  30.482  22.061  11.492
84927W        W44463  31.108  30.613  11.903
84928W        W44464  42.984   2.388   0.821
84929W        W44465  38.383  38.402  13.798
84930W        W44466  38.393  30.513  12.365
84931W        W44467  14.109  21.201   1.869
84932W        W44468   6.309  27.675  13.532
84933W        W44469  23.688   5.430  11.074
84934W        W44470  28.622  12.250   1.317
84935W        W44471  41.004  34.025   3.163
84936W        W44472  41.464  40.320  10.438
84937W        W44473  43.423  23.725   2.258
84938W        W44474  38.360  43.461   1.431
84939W        W44475  23.527  44.374  10.039
84940W        W44476  10.149  11.796   4.741
84941W        W44477   6.855   9.222  14.894
84942W        W44478  41.824   9.754   2.710
84943W        W44479  15.579  30.153   0.336
84944W        W44480  17.257  43.862   3.836
84945W        W44481  42.890  13.844   3.283
84946W        W44482  23.226  10.298   2.406
84947W        W44483  16.158  34.588  14.000
84948W        W44484  33.925  13.247   2.219
84949W        W44485  27.129  39.424   1.879
84950W        W44486  32.511  43.384   4.210
84951W        W44487   8.787   6.325   0.755
84952W        W44488   3.310  19.175   4.712
84953W        W44489  19.635  37.864   3.332
84954W        W44490   0.986   9.685  14.884
84955W        W44491  16.626  44.472   1.801
84956W        W44492  37.446  24.215  13.060
84957W        W44493  28.573  24.614   0.379
84958W        W44494   8.828   2.760  11.039
84959W        W44495  39.937  11.662   2.811
84960W        W44496  29.952  17.088  11.098
84961W        W44497  10.169   9.889   0.363
84962W        W44498  38.523  20.235  14.336
84963W        W44499  17.701  39.925  13.414
84964W        W44500  13.146  42.519  10.502
84965W        W44501  16.577  42.809   3.765
84966W        W44502   2.241  21.734  10.587
84967W        W44503  40.491  16.743   0.266
84968W        W44504   2.885  28.105  10.914
84969W        W44505  36.466   6.811  12.063
84970W        W44506  24.091  25.135   1.383
84971W        W44507  18.231   0.318  10.561
84972W        W44508  12.179  22.204  13.908
84973W        W44509  29.147  19.577  11.499
84974W        W44510  26.476  26.674   2.816
84975W        W44511  26.156   2.361  14.305
84976W        W44512  21.247  25.139  11.034
84977W        W44513  10.170  16.789   4.829
84978W        W44514   1.871  24.059   1.256
84979W        W44515  21.741  38.049   4.230
84980W        W44516  21.672  39.856  10.996
84981W        W44517  29.493  21.574   4.193
84982W        W44518  32.090   6.814   2.884
84983W        W44519  24.500  39.061   5.721
84984W        W44520   5.842  41.375   1.793
84985W        W44521  19.275  41.971   1.383
84986W        W44522  44.280  19.548  10.888
84987W        W44523   9.876  41.379   0.874
84988W        W44524  10.144  23.634   0.342
84989W        W44525  15.295  36.424   3.302
84990W        W44526   3.923  10.230  14.487
84991W        W44527  30.012  10.820  14.437
84992W        W44528  25.495   8.820  11.410
84993W        W44529  33.538   4.761   9.954
84994W        W44530  27.551  31.084   0.304
84995W        W44531  36.543  14.218   5.306
84996W        W44532  34.403   5.217  14.930
84997W        W44533  12.154  36.039  11.934
84998W        W44534  27.980  14.750   3.830
84999W        W44535  28.103  15.718  14.760
85000W        W44536  20.539  11.654  10.980
85001W        W44537  16.736  28.608  11.965
85002W        W44538  28.671  22.088  13.352
85003W        W44539  31.521  41.961   2.678
85004W        W44540   9.886  31.634   0.422
85005W        W44541  16.238  12.353   3.803
85006W        W44542  12.659  29.620   9.969
85007W        W44543  41.491  35.524   1.414
85008W        W44544   7.783   4.928  14.799
85009W        W44545  38.386  34.416  11.966
85010W        W44546  22.164   6.365   2.883
85011W        W44547  24.045  22.733   2.251
85012W        W44548  34.419  13.255   4.648
85013W        W44549  41.837   3.424  12.511
85014W        W44550  23.652  21.562  14.498
85015W        W44551  16.296  11.812   4.138
85016W        W44552  22.050  37.949  13.887
85017W        W44553   5.265  36.549   2.833
85018W        W44554  31.148   6.814  10.486
85019W        W44555   6.217   9.246  13.870
85020W        W44556  19.778   3.384   0.266
85021W        W44557  25.627  25.471   3.383
85022W        W44558  11.842  22.043   1.245
85023W        W44559  26.506  13.832   1.336
85024W        W44560  40.518  23.204   1.392
85025W        W44561  18.687  13.634  14.292
85026W        W44562   6.792   4.235   3.359
85027W        W44563  19.097  36.044  12.894
85028W        W44564   8.331  38.385   0.360
85029W        W44565  19.759  13.159  13.317
85030W        W44566  31.520  23.052   4.693
85031W        W44567   4.742   8.836   3.766
85032W        W44568  37.421  17.152  14.887
85033W        W44569  27.523  10.147   0.347
85034W        W44570   3.346  18.656   2.204
85035W        W44571  39.920  11.661   4.696
85036W        W44572  24.624  43.815   2.868
85037W        W44573  36.911  28.989  11.101
85038W        W44574  24.578   5.383   0.773
85039W        W44575   0.254  10.662   2.221
85040W        W44576  33.077  12.324  13.506
85041W        W44577  42.847  43.969  14.916
85042W        W44578  40.966  40.028  12.362
85043W        W44579   0.987  21.730  14.428
85044W        W44580  40.471  14.204   1.268
85045W        W44581  34.017  23.709   0.843
85046W        W44582  20.189  44.477   4.802
85047W        W44583  37.836   0.877  14.876
85048W        W44584  23.038  36.456  14.296
85049W        W44585  14.182  22.059  13.975
85050W        W44586  23.681  40.384  14.361
85051W        W44587  31.488  14.231  11.909
85052W        W44588  36.520  29.168  11.020
85053W        W44589  23.734  39.469  14.926
85054W        W44590  27.050  15.705  10.936
85055W        W44591  15.616  41.380  13.999
85056W        W44592  29.576  37.085  12.347
85057W        W44593   2.314   3.251   2.839
85058W        W44594  34.120  43.020   4.700
85059W        W44595  40.877  26.052   3.385
85060W        W44596   4.733   5.780  11.051
85061W        W44597  44.442   0.916  14.896
85062W        W44598  39.313   6.733   4.142
85063W        W44599  13.139  32.561  10.474
85064W        W44600  10.210  14.779   3.358
85065W        W44601  10.383  43.987   4.285
85066W        W44602  43.773   0.418  14.878
85067W        W44603   1.917   4.752  14.489
85068W        W44604  42.850  13.313  10.578
85069W        W44605  39.443  33.992  14.810
85070W        W44606  30.554  24.540   5.160
85071W        W44607  22.176   2.337   3.833
85072W        W44608   8.663  12.350   0.813
85073W        W44609  41.027   1.253   0.951
85074W        W44610  40.001   1.379   0.965
85075W        W44611  40.402  35.049  14.882
85076W        W44612   9.239  41.818   3.645
85077W        W44613  31.614  29.020  13.416
85078W        W44614   1.442  26.596   1.407
85079W        W44615  40.369  34.112  13.469
85080W        W44616  41.538   7.801   3.261
85081W        W44617  39.384  16.579   2.696
85082W        W44618  28.115  37.393   3.868
85083W        W44619  43.775  33.909   2.886
85084W        W44620  17.628  16.117  12.418
85085W        W44621   2.331  43.959  14.851
85086W        W44622  15.591  28.014  14.947
85087W        W44623  35.379  19.631   3.316
85088W        W44624  34.435  27.120  12.410
85089W        W44625   4.909  42.394  14.451
85090W        W44626   7.843  34.116   0.297
85091W        W44627  31.987  35.066  13.360
85092W        W44628  38.897   3.768  11.541
85093W        W44629  19.548  34.028   0.271
85094W        W44630   6.394  40.874  13.385
85095W        W44631  16.083  22.026   3.823
85096W        W44632  34.430  34.492  13.864
85097W        W44633  12.211  11.659   1.274
85098W        W44634   0.973  39.942  14.942
85099W        W44635  12.342  41.855   2.402
85100W        W44636  39.063  34.003   1.393
85101W        W44637  27.562  29.011   3.678
85102W        W44638  29.499  17.249   0.816
85103W        W44639  11.273  12.341  11.099
85104W        W44640  31.527  10.223  10.942
85105W        W44641   0.857  39.478   4.281
85106W        W44642  13.130  28.941  11.378
85107W        W44643  25.976  23.009  11.505
85108W        W44644  28.600  21.705   3.855
85109W        W44645  13.693  39.398   3.264
85110W        W44646  38.439   9.755   0.773
85111W        W44647  39.369  43.378  13.377
85112W        W44648   4.789  20.682  13.842
85113W        W44649   5.393  38.389  13.889
85114W        W44650  38.344  20.707  14.951
85115W        W44651   5.319   4.869  10.969
85116W        W44652  37.016   5.284   0.466
85117W        W44653  44.804  18.621   2.884
85118W        W44654   1.850  42.507   1.930
85119W        W44655  27.101  37.964  14.878
85120W        W44656  11.637  34.036   4.313
85121W        W44657  20.047   5.291  14.343
85122W        W44658  14.266  37.444  13.525
85123W        W44659  33.488   2.857   4.768
85124W        W44660  16.778  29.635   3.724
85125W        W44661  10.735  11.660   3.230
85126W        W44662  39.872  16.179   2.898
85127W        W44663  34.097  37.568   1.272
85128W        W44664  26.194  37.495   0.272
85129W        W44665   6.328  19.694  14.026
85130W        W44666  23.007  33.592   0.440
85131W        W44667  23.124  42.795   2.216
85132W        W44668  26.101  33.449   1.425
85133W        W44669   9.214   6.420   1.316
85134W        W44670  27.059   7.252   2.779
85135W        W44671  18.605   7.668  11.474
85136W        W44672  33.549  31.913   0.954
85137W        W44673  42.392  21.604   1.722
85138W        W44674   8.334   9.821   2.868
85139W        W44675  44.501  13.152  14.501
85140W        W44676   9.392   6.813  11.527
85141W        W44677   8.791  43.018   0.410
85142W        W44678  24.994   9.374   4.260
85143W        W44679  34.105  44.281   2.771
85144W        W44680   8.270  26.136   3.266
85145W        W44681  23.075   8.692   3.719
85146W        W44682  19.097  23.126   1.372
85147W        W44683  20.668   7.224  13.965
85148W        W44684  24.101  42.780  12.959
85149W        W44685  26.049  11.788  12.834
85150W        W44686  38.849  24.029  13.423
85151W        W44687  40.889  37.843  14.967
85152W        W44688  18.215  22.158  14.915
85153W        W44689  13.736  13.111  13.999
85154W        W44690   9.649  36.557   4.761
85155W        W44691   0.930   1.881  13.446
85156W        W44692  23.666  20.188  11.436
85157W        W44693  23.599  26.183  10.954
85158W        W44694  17.182  34.473  14.960
85159W        W44695   2.757  13.846  13.805
85160W        W44696  28.501   5.372  12.480
85161W        W44697  26.487   4.747  13.882
85162W        W44698  44.974   4.718   2.400
85163W        W44699   1.337  16.148  11.880
85164W        W44700   9.266   0.835  12.843
85165W        W44701  30.644  33.498   4.745
85166W        W44702  24.605  19.583   0.759
85167W        W44703   8.781  30.603  12.891
85168W        W44704  24.989  22.699   0.439
85169W        W44705   6.704  28.006  13.015
85170W        W44706  30.508  18.734   4.651
85171W        W44707  17.261  40.989  14.481
85172W        W44708  19.558   2.724   0.914
85173W        W44709  17.271  16.124  13.353
85174W        W44710  36.974  20.158   2.267
85175W        W44711  27.629  16.148   4.320
85176W        W44712  23.198  18.171  11.856
85177W        W44713  28.532  31.038   0.777
85178W        W44714   6.260  38.469  10.477
85179W        W44715  11.299  36.383  12.059
85180W        W44716  17.772  28.641   1.211
85181W        W44717  31.491  33.008   3.302
85182W        W44718  30.109  31.581  13.502
85183W        W44719  19.578  16.098   3.337
85184W        W44720  38.882  15.093  12.061
85185W        W44721   2.766   5.279   2.218
85186W        W44722  21.212  13.630  14.942
85187W        W44723  12.331   8.321   2.409
85188W        W44724  34.999  20.627   2.837
85189W        W44725  29.129  27.953   0.932
85190W        W44726  26.502  22.642  12.940
85191W        W44727  44.372  34.117   4.731
85192W        W44728  14.156   8.878  14.858
85193W        W44729  11.270  28.025  12.367
85194W        W44730  26.526  22.589  11.119
85195W        W44731   9.192  37.394   9.985
85196W        W44732  34.550  31.587   0.283
85197W        W44733  18.748  37.465  10.525
85198W        W44734  10.189  43.323  12.960
85199W        W44735  25.138   3.274  11.939
85200W        W44736  24.485  12.131   2.281
85201W        W44737  37.835  38.348  11.993
85202W        W44738   5.364  10.158   4.293
85203W        W44739   6.233  27.959  13.399
85204W        W44740   4.802  38.014   4.131
85205W        W44741  41.024  33.109   0.401
85206W        W44742  39.514  42.926   0.297
85207W        W44743  32.468  31.152   3.252
85208W        W44744  39.406  44.830   4.248
85209W        W44745   2.754  28.022  14.507
85210W        W44746  43.507  36.360   2.299
85211W        W44747  16.226  23.073  11.083
85212W        W44748  18.627  13.131  10.410
85213W        W44749  31.600  24.010   2.875
85214W        W44750   1.939  19.538  14.885
85215W        W44751   6.410  16.672  11.064
85216W        W44752  24.515   7.208  12.040
85217W        W44753  18.145  31.524   1.371
85218W        W44754  34.968  43.463   1.248
85219W        W44755  41.817  30.531   2.794
85220W        W44756  21.234  21.042  12.950
85221W        W44757  12.781  24.034  12.928
85222W        W44758  16.740  24.206  12.004
85223W        W44759  20.084  39.539   0.454
85224W        W44760   3.896   8.180  12.989
85225W        W44761   6.273  12.728   1.818
85226W        W44762   7.381   5.738   0.899
85227W        W44763  26.964  36.014   0.837
85228W        W44764   7.355  29.670  11.111
85229W        W44765  20.272  10.195  11.602
85230W        W44766  40.418  39.945   4.659
85231W        W44767   1.389  12.281   5.694
85232W        W44768  30.028   6.829   4.785
85233W        W44769  33.941  12.288  13.794
85234W        W44770  17.071   2.371   1.379
85235W        W44771  35.601  37.962   0.865
85236W        W44772  20.056   3.860   3.632
85237W        W44773  27.469  17.206   1.216
85238W        W44774   0.842  16.727   1.319
85239W        W44775  22.112  29.024   3.248
85240W        W44776   8.317  20.767   2.772
85241W        W44777  21.153   3.847   2.750
85242W        W44778  28.102  11.846   4.676
85243W        W44779  15.119  24.126   0.256
85244W        W44780  38.351  44.491  12.888
85245W        W44781  25.550   9.259   1.878
85246W        W44782  33.572   1.336   2.361
85247W        W44783   0.493  27.662   3.684
85248W        W44784  10.673   2.374  11.092
85249W        W44785  44.333  36.540   3.271
85250W        W44786  37.553  10.654   2.893
85251W        W44787   4.711  33.101   2.334
85252W        W44788  22.503  31.095  13.907
85253W        W44789  29.034  16.167   2.369
85254W        W44790  35.428  25.972  11.008
85255W        W44791   8.299  23.528   4.216
85256W        W44792  34.934  39.344   1.386
85257W        W44793   2.302   0.248   0.831
85258W        W44794  11.845  28.085   2.833
85259W        W44795  32.490  34.981   2.818
85260W        W44796  14.112  31.608   4.607
85261W        W44797  23.022  31.610   1.415
85262W        W44798   4.446  32.086   5.164
85263W        W44799  37.401   7.253  10.488
85264W        W44800  31.968   9.781  14.901
85265W        W44801  26.507  10.270   5.280
85266W        W44802  34.006  15.818   2.200
85267W        W44803  22.042   6.904   3.865
85268W        W44804  32.467  38.474  13.357
85269W        W44805   3.914  23.563  13.469
85270W        W44806  26.165  32.534   2.723
85271W        W44807  44.464  10.671  12.842
85272W        W44808  24.019  21.637   3.716
85273W        W44809  10.187  32.901   2.878
85274W        W44810  36.372  44.277  12.939
85275W        W44811  37.851  19.062  11.012
85276W        W44812  44.872  13.248  12.997
85277W        W44813  19.067  32.134  13.439
85278W        W44814  14.235  41.820   0.885
85279W        W44815  28.441  23.227   4.689
85280W        W44816  16.792  11.802  12.546
85281W        W44817  31.973  44.383  11.032
85282W        W44818  31.098  43.913   3.819
85283W        W44819  17.224   0.973   5.320
85284W        W44820  13.153   5.366  13.307
85285W        W44821  23.596  16.187  12.471
85286W        W44822  39.522   8.326  13.835
85287W        W44823   1.753  40.379   0.400
85288W        W44824  39.950  14.820  13.321
85289W        W44825  18.588  16.306   0.462
85290W        W44826   3.755  22.540  11.123
85291W        W44827  36.590   6.244   2.673
85292W        W44828  11.252  17.255   4.770
85293W        W44829  43.853  18.063   3.244
85294W        W44830  39.953  39.813   2.899
85295W        W44831  39.844  30.604  10.469
85296W        W44832  13.801  18.296  13.337
85297W        W44833  10.683  13.788  13.057
85298W        W44834  23.528  32.580  13.891
85299W        W44835   3.256  16.164  12.018
85300W        W44836   0.381   3.385  11.928
85301W        W44837   2.754   5.274  11.406
85302W        W44838  33.460  25.997  10.624
85303W        W44839  37.413  32.911  12.432
85304W        W44840  42.801  32.534   0.958
85305W        W44841   9.231   7.873  13.414
85306W        W44842  44.347   7.715  10.980
85307W        W44843  35.105  24.663   1.340
85308W        W44844   4.405  22.729  11.417
85309W        W44845  13.836  18.675   3.252
85310W        W44846  25.993  40.939   0.458
85311W        W44847  11.634  40.535   5.145
85312W        W44848  32.896  31.030  11.059
85313W        W44849  13.247  19.159  14.784
85314W        W44850  26.047  22.024  13.888
85315W        W44851  22.628  10.179   3.787
85316W        W44852  20.079   1.347  13.829
85317W        W44853  29.007  36.058  11.122
85318W        W44854  44.371  38.443  11.559
85319W        W44855  40.397   1.884  14.952
85320W        W44856  10.175  16.210   1.263
85321W        W44857  37.490  33.079   3.358
85322W        W44858  34.027  22.132   2.284
85323W        W44859  20.092  39.455  12.440
85324W        W44860   3.745  44.774  12.949
85325W        W44861   1.909  38.503  11.020
85326W        W44862  32.489  22.021   9.675
85327W        W44863  26.523  43.367  13.817
85328W        W44864  10.323   2.325   0.878
85329W        W44865  36.892   1.775   2.208
85330W        W44866  17.666   0.811  12.457
85331W        W44867  39.422  25.491   1.328
85332W        W44868  16.248   6.772   0.467
85333W        W44869  19.243  26.168   3.640
85334W        W44870  33.882  43.796   4.632
85335W        W44871   4.383  13.142  11.590
85336W        W44872  17.108  27.623   0.937
85337W        W44873   3.425  10.254  14.471
85338W        W44874   0.369  35.491  14.948
85339W        W44875   6.817  13.615   4.192
85340W        W44876   2.832  18.292   3.198
85341W        W44877  39.036  37.975   9.972
85342W        W44878  32.405  20.568   4.263
85343W        W44879  38.854  35.594  12.436
85344W        W44880  13.679  32.922   3.782
85345W        W44881  11.667   4.708   3.215
85346W        W44882  21.050  40.022  13.998
85347W        W44883  19.641  11.853   3.729
85348W        W44884   8.314  30.562   3.789
85349W        W44885  35.017   3.850   9.981
85350W        W44886  12.690  39.949   4.717
85351W        W44887  40.828  40.951  13.388
85352W        W44888  40.015  20.062  10.537
85353W        W44889  10.871  11.265  13.435
85354W        W44890  35.473   1.864   1.341
85355W        W44891  30.442  17.120   3.633
85356W        W44892  38.534  18.708   2.808
85357W        W44893   8.884  15.613   5.242
85358W        W44894   1.402  20.671  14.306
85359W        W44895  25.652   0.875  13.053
85360W        W44896   4.927  13.141   1.285
85361W        W44897  19.565  33.069   3.341
85362W        W44898   6.911  15.298  11.888
85363W        W44899  37.395   6.804   3.309
85364W        W44900  28.488   0.446  14.794
85365W        W44901  31.018  14.639   0.739
85366W        W44902  16.289   6.816  14.919
85367W        W44903  34.604  30.094  10.429
85368W        W44904  28.645  27.077   5.609
85369W        W44905  29.014  42.960   3.330
85370W        W44906  40.836  43.295  10.580
85371W        W44907  28.184  12.266  11.048
85372W        W44908  32.499  15.220   3.695
85373W        W44909   8.369  27.965  10.560
85374W        W44910  26.971   2.721  14.372
85375W        W44911  32.096  33.391  10.628
85376W        W44912  42.281  42.799  13.330
85377W        W44913  25.129  40.356   5.164
85378W        W44914  22.666   0.479  12.358
85379W        W44915  20.566  40.523  14.361
85380W        W44916  14.207  32.621  12.987
85381W        W44917  24.603  33.110   4.153
85382W        W44918  14.808  14.724  10.618
85383W        W44919  33.459  28.037   2.736
85384W        W44920   5.310  36.031  10.558
85385W        W44921   6.374  37.387  12.033
85386W        W44922   4.331  36.392  12.948
85387W        W44923  21.539  15.605  13.421
85388W        W44924  15.139  32.622  11.904
85389W        W44925  12.812  31.029  11.481
85390W        W44926   5.410  18.073  11.122
85391W        W44927  29.476  13.226  13.381
85392W        W44928  43.018   5.253   2.881
85393W        W44929  10.879  12.794  13.434
85394W        W44930  23.091  43.383   0.319
85395W        W44931   8.766  41.985  13.421
85396W        W44932  14.806   6.193  10.605
85397W        W44933  18.145  17.692   0.791
85398W        W44934   6.252  30.450  13.308
85399W        W44935  19.202  21.063   0.859
85400W        W44936  11.203   3.719  11.112
85401W        W44937  24.138  12.155  12.960
85402W        W44938  29.026  15.613  13.906
85403W        W44939   1.931  24.213   5.721
85404W        W44940  17.162  32.507   1.276
85405W        W44941  12.255  27.051  13.061
85406W        W44942  43.919   9.657  11.019
85407W        W44943  27.476   3.873   0.476
85408W        W44944  20.075  29.461  10.972
85409W        W44945  11.796   3.445  10.579
85410W        W44946  14.254  16.768   2.404
85411W        W44947  20.553   5.692   2.342
85412W        W44948  23.598  25.488   3.753
85413W        W44949  42.892  24.989  13.390
85414W        W44950   0.396  31.464  12.879
85415W        W44951  15.650   7.684  12.531
85416W        W44952  42.524  40.459   0.315
85417W        W44953  20.741  17.744   1.777
85418W        W44954  41.788  32.949  11.045
85419W        W44955  37.462  39.361   3.867
85420W        W44956  18.267   5.905  10.895
85421W        W44957  18.102   6.701   4.748
85422W        W44958  16.787   5.712  14.883
85423W        W44959  27.539  32.501  12.474
85424W        W44960  44.864   0.259  11.054
85425W        W44961  19.247  15.763  14.465
85426W        W44962  27.640  39.391  12.536
85427W        W44963   6.899  10.843  11.927
85428W        W44964  26.484  25.120  11.108
85429W        W44965   0.479  32.394   2.693
85430W        W44966  37.459   8.170   0.267
85431W        W44967  35.467  30.454  13.812
85432W        W44968  14.214  42.946  13.527
85433W        W44969   0.791  12.665   2.237
85434W        W44970  44.939   8.378  13.014
85435W        W44971  19.615   2.845   3.225
85436W        W44972  44.481  26.094  10.138
85437W        W44973  29.549  41.439  11.518
85438W        W44974  33.057  41.818  13.523
85439W        W44975   7.695  15.090   4.768
85440W        W44976  21.149  16.227  10.934
85441W        W44977  37.938  22.235  14.489
85442W        W44978   2.443   2.776  14.936
85443W        W44979  27.625  28.632   1.359
85444W        W44980   6.760  21.586   1.892
85445W        W44981   9.330   8.790  14.511
85446W        W44982  29.546   3.854   1.392
85447W        W44983   7.287  39.865   3.200
85448W        W44984  34.113  23.134  11.433
85449W        W44985  42.790  31.583   4.646
85450W        W44986   4.848  24.172  11.545
85451W        W44987  18.753   4.944  10.568
85452W        W44988  10.676  25.633   0.468
85453W        W44989   1.272   9.732  14.877
85454W        W44990  43.858  17.307   4.773
85455W        W44991  13.609  28.532   1.325
85456W        W44992  29.151  13.834   3.698
85457W        W44993  22.126  37.903  14.416
85458W        W44994  26.104  32.899  13.995
85459W        W44995  43.878  29.641  10.572
85460W        W44996  35.094   6.251  12.086
85461W        W44997  21.577  29.057  12.011
85462W        W44998   5.717   8.374   3.698
85463W        W44999  17.299  32.058   2.216
85464W        W45000  15.684  41.348   2.250
85465W        W45001  18.266  27.958  12.924
85466W        W45002   7.850   6.250   2.233
85467W        W45003   2.897  44.298  13.060
85468W        W45004  10.859  32.414  12.024
85469W        W45005  39.985  44.826  12.424
85470W        W45006  22.568  42.338  11.511
85471W        W45007   8.295  33.505  12.412
85472W        W45008  44.453  16.302  14.866
85473W        W45009  42.307  22.104   1.306
85474W        W45010  31.484  15.673  14.812
85475W        W45011  23.630  39.486  10.567
85476W        W45012  44.991  29.555   3.264
85477W        W45013  28.645  33.580   4.598
85478W        W45014  14.666  44.839   4.242
85479W        W45015   1.884  37.859   0.353
85480W        W45016  39.892   3.947   3.856
85481W        W45017  13.250  17.677  13.504
85482W        W45018   8.331  12.616  11.529
85483W        W45019  35.439   9.643  11.452
85484W        W45020  39.478   4.282   3.186
85485W        W45021  24.480  39.828   2.781
85486W        W45022  20.204  36.847  12.410
85487W        W45023  30.444  31.448  13.468
85488W        W45024   1.819  32.453   4.654
85489W        W45025  13.724  19.724   3.648
85490W        W45026   6.368  41.452   1.311
85491W        W45027   4.380   0.357   0.836
85492W        W45028  10.247   2.455  14.842
85493W        W45029   6.709  17.777   2.361
85494W        W45030  36.956   2.786   0.844
85495W        W45031  19.225  40.825   0.761
85496W        W45032  27.988  14.709   4.214
85497W        W45033  38.516   9.322  11.105
85498W        W45034  39.982  42.840  10.956
85499W        W45035  18.056  10.149  12.458
85500W        W45036  38.501   2.366   0.894
85501W        W45037  31.536  18.723   2.203
85502W        W45038  42.861   1.841  12.441
85503W        W45039  32.580  14.330  14.939
85504W        W45040  14.707  31.645   3.291
85505W        W45041  15.194  29.016  12.886
85506W        W45042  39.005  26.005  12.577
85507W        W45043   7.724  43.308   0.399
85508W        W45044   0.968  11.261   3.651
85509W        W45045  19.103  30.930   3.729
85510W        W45046  42.474  42.975  10.408
85511W        W45047  23.705  14.121  14.281
85512W        W45048  13.781  32.052  13.370
85513W        W45049  34.062  16.595   4.177
85514W        W45050  42.891  15.789   5.130
85515W        W45051  14.646  26.965   0.476
85516W        W45052  24.230  20.697  11.926
85517W        W45053  42.501  43.370   1.870
85518W        W45054  36.544  36.927   2.703
85519W        W45055  16.734  30.968   4.233
85520W        W45056  36.534  42.959   0.406
85521W        W45057   3.214  21.551  11.480
85522W        W45058  37.422   0.327   2.664
85523W        W45059   2.235   1.918  11.952
85524W        W45060  25.571  39.875   2.825
85525W        W45061   2.313  13.228   3.746
85526W        W45062   9.782  10.796  11.031
85527W        W45063  14.196  29.038  13.891
85528W        W45064  22.718  32.575  13.859
85529W        W45065  33.565  22.670  14.921
85530W        W45066  27.599  13.120   2.674
85531W        W45067  28.530  17.598   3.151
85532W        W45068  38.873   0.835   1.819
85533W        W45069  13.755  34.397   0.803
85534W        W45070  33.592   3.765   3.254
85535W        W45071  35.498  29.629  10.605
85536W        W45072  34.584  43.944   2.338
85537W        W45073  27.129  44.008  10.591
85538W        W45074   9.774   8.690  10.996
85539W        W45075  29.537  19.540  14.447
85540W        W45076   1.835   5.312   0.824
85541W        W45077  27.656  40.346  11.858
85542W        W45078  44.269  12.269   2.340
85543W        W45079  15.703   6.871  12.973
85544W        W45080  38.511  27.617  12.445
85545W        W45081  26.568   1.792  12.411
85546W        W45082  22.168   5.794  13.371
85547W        W45083  23.167  20.036   0.359
85548W        W45084  30.995   4.365   2.210
85549W        W45085  36.569  26.090  12.358
85550W        W45086  34.925  23.672   0.745
85551W        W45087  33.880  41.823   4.199
85552W        W45088  40.527  43.308   3.169
85553W        W45089  33.451  22.695  10.511
85554W        W45090   3.913  40.863  11.444
85555W        W45091  30.493  12.645   1.366
85556W        W45092  16.606  38.958  13.400
85557W        W45093  29.573   9.820   4.218
85558W        W45094  22.663  40.849  12.007
85559W        W45095  32.003  38.492  13.021
85560W        W45096  11.856  34.030   0.478
85561W        W45097  43.399  43.855   1.259
85562W        W45098  34.103  35.376  10.404
85563W        W45099  22.160  40.421   2.186
85564W        W45100  26.680  39.331  12.951
85565W        W45101  27.454  13.256   2.178
85566W        W45102   2.924  37.446   3.207
85567W        W45103  10.257  17.194   1.917
85568W        W45104  26.082  43.904   1.924
85569W        W45105  36.891   3.375   3.324
85570W        W45106  19.763  44.330  14.408
85571W        W45107  22.131  25.602  13.925
85572W        W45108  44.796   2.330   2.840
85573W        W45109   1.903  35.065   2.365
85574W        W45110  32.455  39.473   0.953
85575W        W45111  12.733  40.420  12.953
85576W        W45112   0.852  20.041  11.894
85577W        W45113  23.024  21.669   2.386
85578W        W45114  13.276  32.096   1.916
85579W        W45115   4.800  42.984   2.359
85580W        W45116   7.792  42.995  12.055
85581W        W45117  39.542   7.414  10.442
85582W        W45118  16.680  25.553  12.971
85583W        W45119   5.411  40.435  14.350
85584W        W45120  29.012   1.754  11.996
85585W        W45121   8.779  42.995  14.312
85586W        W45122  32.042  32.506  12.557
85587W        W45123  39.953  21.157  10.485
85588W        W45124  27.082  11.708  11.126
85589W        W45125   2.226  25.980  10.015
85590W        W45126  23.111  15.122  10.628
85591W        W45127  18.735  28.513  13.385
85592W        W45128  33.416  19.587   5.260
85593W        W45129  13.762  32.014   4.759
85594W        W45130  18.111  40.372   2.330
85595W        W45131   8.891  37.085   2.873
85596W        W45132  35.023   4.292   9.968
85597W        W45133   2.953  10.158  14.377
85598W        W45134  28.667  19.670  11.888
85599W        W45135  13.697  18.781   4.243
85600W        W45136  41.000  11.171   2.342
85601W        W45137   6.301  29.027  12.507
85602W        W45138  30.988   6.371   3.828
85603W        W45139  40.907  33.935   2.885
85604W        W45140   2.404  19.736  12.841
85605W        W45141  29.040  16.264   4.246
85606W        W45142   3.358   6.335   4.230
85607W        W45143  30.970  34.985  14.501
85608W        W45144  33.406   3.356  12.491
85609W        W45145  43.416   9.837   9.531
85610W        W45146   6.919  19.662  13.921
85611W        W45147  37.444   3.951   9.932
85612W        W45148  31.092  29.485  10.540
85613W        W45149  42.388   8.859   0.862
85614W        W45150  31.061  35.506  14.985
85615W        W45151   6.215  43.512  14.005
85616W        W45152  22.709  25.535  11.886
85617W        W45153  36.350  35.502   1.698
85618W        W45154   5.309  42.421  10.556
85619W        W45155   9.200  11.272   0.343
85620W        W45156   3.320  26.020  13.546
85621W        W45157  44.838  21.234  13.508
85622W        W45158   1.343  32.548   2.701
85623W        W45159  14.676  41.370   2.723
85624W        W45160   9.833  33.970   3.694
85625W        W45161  13.245  21.612   2.751
85626W        W45162  31.072  28.105  11.386
85627W        W45163   1.318  14.632   2.876
85628W        W45164   5.373  18.733  13.538
85629W        W45165  27.948  20.105   3.708
85630W        W45166  42.931  30.020   0.307
85631W        W45167  34.388  16.316  10.610
85632W        W45168  33.892  43.853   0.403
85633W        W45169  10.633  23.707   1.313
85634W        W45170  11.163  27.138  11.551
85635W        W45171  23.730   2.811  14.383
85636W        W45172  33.568  21.201   0.877
85637W        W45173  21.223   6.830   0.471
85638W        W45174  15.787  39.439   0.306
85639W        W45175  35.876  42.477   3.869
85640W        W45176  21.519  11.320  11.086
85641W        W45177  28.090  23.100   3.704
85642W        W45178  15.251  25.015   4.607
85643W        W45179  27.036  33.517  14.887
85644W        W45180  43.441  22.089   1.252
85645W        W45181  35.358  13.720  10.576
85646W        W45182  44.400  36.892   1.913
85647W        W45183  38.011  36.539  12.374
85648W        W45184   0.959   2.433  14.777
85649W        W45185  33.950   7.793  11.103
85650W        W45186  38.928  25.106  10.620
85651W        W45187  32.515  21.742  14.884
85652W        W45188   1.443  30.041  11.497
85653W        W45189   0.358  18.284  13.009
85654W        W45190  11.360  37.041  13.995
85655W        W45191  21.100   5.310  11.868
85656W        W45192  11.674  41.939   0.830
85657W        W45193  32.071  41.926  10.958
85658W        W45194  13.277  12.712   4.156
85659W        W45195  24.073   3.769   1.236
85660W        W45196  24.983  28.669  10.888
85661W        W45197  10.825   9.308   3.639
85662W        W45198  16.652  16.670   5.098
85663W        W45199  37.513   1.348  13.323
85664W        W45200  24.597  29.038   1.873
85665W        W45201  38.919  44.874   2.890
85666W        W45202  13.336   5.788  13.528
85667W        W45203  23.607   8.795  10.468
85668W        W45204  24.197  24.987  13.921
85669W        W45205   9.150  10.380  11.388
85670W        W45206  21.160  38.440  13.513
85671W        W45207  41.465   0.315  13.495
85672W        W45208  31.910   0.293  12.991
85673W        W45209  41.930   2.900  11.380
85674W        W45210  19.276  40.853  13.874
85675W        W45211  10.740  43.380   1.870
85676W        W45212  14.682   5.847  11.096
85677W        W45213   5.897   9.321  10.557
85678W        W45214   3.329  16.280  13.058
85679W        W45215  35.507   8.708  13.864
85680W        W45216  20.717   5.388   3.175
85681W        W45217  28.030  19.730   3.289
85682W        W45218  33.124   2.360   0.776
85683W        W45219  34.991  11.241   4.778
85684W        W45220  41.291  26.498   2.706
85685W        W45221  40.930  44.874  11.417
85686W        W45222  10.840   2.319   4.690
85687W        W45223   7.898  11.757  10.990
85688W        W45224  25.657  18.185   1.388
85689W        W45225  38.470   8.852   4.203
85690W        W45226  26.093  29.972  11.589
85691W        W45227  33.400  39.944   4.796
85692W        W45228  34.927  19.707   1.804
85693W        W45229  25.623  39.976  10.159
85694W        W45230   4.266   1.268  12.010
85695W        W45231  34.997   2.346  11.427
85696W        W45232  43.935   0.838   0.254
85697W        W45233  43.331  25.659  12.891
85698W        W45234  31.565  27.085   0.854
85699W        W45235  37.043  35.357  10.466
85700W        W45236   1.933  42.327  13.983
85701W        W45237   9.698  31.922  10.403
85702W        W45238  28.029  14.117  13.813
85703W        W45239  18.713  12.753   5.227
85704W        W45240  12.676  15.119  10.586
85705W        W45241  18.210   0.336  11.534
85706W        W45242  19.072   4.232  11.599
85707W        W45243  14.792  19.722   1.358
85708W        W45244  10.322  44.772  13.349
85709W        W45245  11.684  10.756   2.717
85710W        W45246  41.945  30.635  13.827
85711W        W45247  18.725  10.703   2.689
85712W        W45248  27.070  34.448  11.563
85713W        W45249   5.327  12.121   3.339
85714W        W45250  23.034  11.736   2.394
85715W        W45251  32.530  23.028  14.493
85716W        W45252  41.374  21.224   2.382
85717W        W45253  17.202   4.807  14.941
85718W        W45254  29.117  20.640  14.786
85719W        W45255  33.893  44.267   4.147
85720W        W45256  43.771  28.030   4.279
85721W        W45257  19.581  26.044   0.332
85722W        W45258   4.268  11.676   1.368
85723W        W45259  35.447  38.366   3.291
85724W        W45260   8.892  14.159   0.377
85725W        W45261  10.244   4.939   4.271
85726W        W45262  12.227  43.401   4.638
85727W        W45263  37.958  29.987  14.802
85728W        W45264  16.234   6.692  11.860
85729W        W45265   8.871  31.912  14.911
85730W        W45266   9.310  34.945   1.725
85731W        W45267   4.808  25.172   4.655
85732W        W45268  32.077  29.527  14.890
85733W        W45269   3.399  22.193  11.057
85734W        W45270  26.070  23.151  11.943
85735W        W45271  35.016  42.481  13.006
85736W        W45272   4.934  28.148   4.339
85737W        W45273  24.024  16.746  14.482
85738W        W45274   9.739  15.302   0.278
85739W        W45275  28.131   2.957   3.313
85740W        W45276  33.596  35.093   1.866
85741W        W45277  12.696  31.985  13.308
85742W        W45278  38.451   4.903   0.890
85743W        W45279  12.613  13.685   4.698
85744W        W45280   1.931  44.907   3.764
85745W        W45281   3.322   2.787   4.119
85746W        W45282  14.736  26.044  12.467
85747W        W45283   0.487  22.692   0.767
85748W        W45284   7.302  37.951   0.462
85749W        W45285   4.312  18.762  11.054
85750W        W45286  36.422  13.798  12.473
85751W        W45287  14.110  39.314  14.917
85752W        W45288   8.777  27.499   2.418
85753W        W45289  22.040  43.358  11.577
85754W        W45290  40.477  11.331  13.917
85755W        W45291  38.499  17.110   0.957
85756W        W45292  29.647  25.978  10.981
85757W        W45293  39.917  28.031  12.548
85758W        W45294   9.678  14.231  14.326
85759W        W45295  37.444   2.280   2.811
85760W        W45296  43.479   4.408  14.872
85761W        W45297  11.231  10.680   1.261
85762W        W45298  44.987  41.016  14.996
85763W        W45299  18.661  28.052  12.968
85764W        W45300  10.271  24.029  12.527
85765W        W45301  39.043  30.555  14.877
85766W        W45302  23.135  29.064  11.095
85767W        W45303  33.043   1.920  11.111
85768W        W45304  19.564  40.002   1.848
85769W        W45305  30.143  32.136  11.453
85770W        W45306  29.629  28.178  11.456
85771W        W45307  15.164   9.332  10.417
85772W        W45308   5.367   5.911   2.413
85773W        W45309  28.461  13.757   2.364
85774W        W45310  12.300  39.500   2.305
85775W        W45311  24.016   1.733   4.268
85776W        W45312   3.452  20.722   0.377
85777W        W45313  16.295  31.646  11.552
85778W        W45314  42.493   9.655   3.277
85779W        W45315   0.351  44.463   3.746
85780W        W45316   9.213  11.694  13.982
85781W        W45317   1.412  21.715  14.323
85782W        W45318   3.372   8.672   0.844
85783W        W45319  39.322  12.625  12.400
85784W        W45320   2.290  11.303   2.780
85785W        W45321  36.041  32.521  11.957
85786W        W45322  10.151  16.104   3.356
85787W        W45323  33.983   7.398  14.940
85788W        W45324  41.523  18.656   1.390
85789W        W45325  19.562   9.394   1.896
85790W        W45326  39.865  41.977  13.321
85791W        W45327  22.543  35.544   2.864
85792W        W45328  17.292  12.329   2.364
85793W        W45329  11.260   4.762  10.138
85794W        W45330   0.781  37.858  10.570
85795W        W45331   5.833  43.794   4.798
85796W        W45332  30.532   3.713  12.377
85797W        W45333  42.817  24.055   2.699
85798W        W45334  25.176  44.393   1.748
85799W        W45335  13.816   1.957   4.263
85800W        W45336   1.458   8.329   3.755
85801W        W45337  33.018  17.130  13.865
85802W        W45338  13.209   9.769  13.504
85803W        W45339  40.379  43.000  14.292
85804W        W45340  19.753  17.786  13.459
85805W        W45341  11.150  33.481  12.428
85806W        W45342  38.414  44.303   0.875
85807W        W45343  16.735  44.962   0.895
85808W        W45344  39.824   1.927  14.351
85809W        W45345   1.319  22.059   3.153
85810W        W45346  44.859  15.622   1.796
85811W        W45347   1.317  18.119   2.790
85812W        W45348   5.819  43.929   1.408
85813W        W45349  27.476  24.586   4.169
85814W        W45350   7.831  31.145  10.408
85815W        W45351  39.870  37.019  14.949
85816W        W45352  14.288  30.929  11.419
85817W        W45353  19.740  21.658  11.579
85818W        W45354  29.615   9.245   4.211
85819W        W45355   4.414   1.255  14.350
85820W        W45356   2.378  31.993   2.305
85821W        W45357  10.336  28.985  14.385
85822W        W45358  41.805  23.695   3.282
85823W        W45359   7.275  28.973   1.807
85824W        W45360  11.646  38.892   2.381
85825W        W45361  29.626  40.969   0.962
85826W        W45362  19.557  42.355  13.948
85827W        W45363  35.487  35.593  12.856
85828W        W45364  26.515  35.528   1.709
85829W        W45365   2.747  41.042   2.684
85830W        W45366  23.165  35.048  14.398
85831W        W45367  34.871  10.335   0.763
85832W        W45368   4.789  17.186   2.340
85833W        W45369   4.408  36.531   2.315
85834W        W45370  38.531  22.739   3.849
85835W        W45371  31.464  10.168   4.642
85836W        W45372  30.985   7.361   3.733
85837W        W45373  34.002  18.765  13.504
85838W        W45374   4.766   8.216  12.442
85839W        W45375   1.956  31.525  12.501
85840W        W45376   8.335  37.412  10.995
85841W        W45377  19.156  39.410  11.070
85842W        W45378  36.530  30.482  11.559
85843W        W45379  21.235  26.497   0.920
85844W        W45380  19.568  27.154   1.899
85845W        W45381  24.670  37.999   1.391
85846W        W45382  22.593   9.701  11.456
85847W        W45383  19.663  41.517   0.249
85848W        W45384  10.377  41.862   0.365
85849W        W45385  43.777   4.894  10.937
85850W        W45386  32.031  37.002  12.988
85851W        W45387  30.616  43.968   0.793
85852W        W45388  28.949  41.446   1.795
85853W        W45389  21.042  32.957   3.754
85854W        W45390  21.178  18.548   4.260
85855W        W45391  43.369  34.416   3.314
85856W        W45392  33.902   5.689  13.981
85857W        W45393   3.316  39.952   4.247
85858W        W45394   5.366   2.452  10.484
85859W        W45395   5.373  36.384  10.937
85860W        W45396   0.284   2.387   4.311
85861W        W45397  44.932   7.350  11.911
85862W        W45398   2.458   8.202   4.229
85863W        W45399  27.537  31.441  14.456
85864W        W45400  44.408  39.010   4.597
85865W        W45401  43.426   5.419  10.570
85866W        W45402  35.998  27.038  14.316
85867W        W45403  22.200   8.318  10.508
85868W        W45404  22.191  32.053  12.409
85869W        W45405  12.660  30.419  12.893
85870W        W45406  40.408  19.702   2.875
85871W        W45407   4.342  15.220  10.545
85872W        W45408  10.652  43.934  12.870
85873W        W45409  36.846  24.120  14.966
85874W        W45410  32.003  26.548  10.499
85875W        W45411  32.077  24.583   2.851
85876W        W45412  41.526  40.346  14.502
85877W        W45413  20.669  12.239   3.851
85878W        W45414  42.360   3.395  13.958
85879W        W45415   6.875  39.845  13.395
85880W        W45416  34.081  32.491  12.487
85881W        W45417  29.595  43.814   0.251
85882W        W45418   4.899   8.175   0.834
85883W        W45419  28.031  41.909   3.231
85884W        W45420  31.049  35.952   0.954
85885W        W45421  23.676  34.919  12.405
85886W        W45422  29.962  32.969   2.775
85887W        W45423  13.294  19.262  11.494
85888W        W45424   7.369   2.832  13.846
85889W        W45425  10.707  12.815   0.864
85890W        W45426  15.253  12.357   1.355
85891W        W45427  43.371   0.421  14.356
85892W        W45428  15.705  37.875  13.951
85893W        W45429  18.604  36.549   4.758
85894W        W45430  15.765  27.029  13.429
85895W        W45431  17.718   8.745   1.882
85896W        W45432  27.159  39.886   3.272
85897W        W45433  25.641   4.263   4.630
85898W        W45434  11.241  32.959   2.357
85899W        W45435   9.391  31.965  10.155
85900W        W45436  30.565  33.062   4.695
85901W        W45437   8.692   2.842   2.262
85902W        W45438  36.517  21.540   2.180
85903W        W45439  38.453  36.572   0.266
85904W        W45440   4.328  16.264  12.003
85905W        W45441   7.797  12.264   3.340
85906W        W45442   0.484  36.874   1.883
85907W        W45443  19.137  16.150  12.383
85908W        W45444  28.173  36.880  13.890
85909W        W45445   2.766  43.305   1.845
85910W        W45446  35.366  44.779   2.866
85911W        W45447  19.045  39.053   1.823
85912W        W45448   5.287  13.844  14.808
85913W        W45449  36.953  35.930  11.108
85914W        W45450  14.139  34.590  13.794
85915W        W45451  13.331  37.862   0.472
85916W        W45452  40.031  14.296   2.319
85917W        W45453  41.353  16.811   4.119
85918W        W45454  25.709  11.139  14.371
85919W        W45455   8.749  17.785   0.756
85920W        W45456  31.154  29.984   0.356
85921W        W45457  16.088  13.303  10.447
85922W        W45458  12.723  16.569  12.884
85923W        W45459  26.557  10.813   4.822
85924W        W45460   3.766   2.912   3.709
85925W        W45461  38.367  13.827  11.907
85926W        W45462  21.263  33.891   3.809
85927W        W45463  24.978   2.308  14.431
85928W        W45464   3.749   1.269   3.247
85929W        W45465  17.279  11.240  10.415
85930W        W45466  35.908  35.376   0.771
85931W        W45467  21.230   3.455   1.820
85932W        W45468  41.947  38.061  11.518
85933W        W45469   2.393  41.947   3.255
85934W        W45470  12.751  11.629   3.265
85935W        W45471  20.711  25.590  14.459
85936W        W45472  24.634  34.379   4.712
85937W        W45473  31.114  23.127   0.851
85938W        W45474  11.693  35.437   2.832
85939W        W45475   7.244   1.803  13.359
85940W        W45476  27.107  19.133   3.324
85941W        W45477  14.297  32.888  13.542
85942W        W45478  36.960   4.796   0.360
85943W        W45479   8.819   2.370  11.930
85944W        W45480   5.772  21.725   1.840
85945W        W45481  15.246  28.613   3.277
85946W        W45482  34.585  11.769  12.438
85947W        W45483  38.465  11.860   3.198
85948W        W45484  42.397   1.911  14.507
85949W        W45485  41.513  27.982  11.547
85950W        W45486   2.861   0.440  11.534
85951W        W45487  28.099   5.354   4.338
85952W        W45488  39.359   7.305   1.812
85953W        W45489  24.564  43.503  13.843
85954W        W45490  22.230  16.301   4.706
85955W        W45491  27.608  33.917  13.927
85956W        W45492  10.802  15.227   4.235
85957W        W45493  14.269  15.218   4.249
85958W        W45494  29.065  39.425   3.677
85959W        W45495  39.040  27.608   3.822
85960W        W45496   8.163  11.775   3.744
85961W        W45497  25.980   4.336  12.485
85962W        W45498  42.391   1.817   2.823
85963W        W45499   9.239  10.878   1.921
85964W        W45500   8.168  17.080   1.795
85965W        W45501  37.544  37.564  12.359
85966W        W45502  21.123  18.269  14.875
85967W        W45503  13.292  35.070  11.539
85968W        W45504  23.001  36.856   5.277
85969W        W45505   5.705  31.066  11.857
85970W        W45506  17.164  41.798   4.204
85971W        W45507  36.007  22.576   0.867
85972W        W45508  33.450  20.253  11.970
85973W        W45509  36.485  18.223  11.586
85974W        W45510  27.572  36.003   0.912
85975W        W45511   6.389  27.547   1.916
85976W        W45512  27.589   7.878   3.161
85977W        W45513  19.608  14.646   2.902
85978W        W45514  21.604  44.297   2.688
85979W        W45515   0.788   1.374   4.768
85980W        W45516  27.537   1.837  12.015
85981W        W45517  44.787  27.635   1.872
85982W        W45518  34.075  26.081  13.931
85983W        W45519  31.503  33.035   2.343
85984W        W45520   2.938  33.126  14.482
85985W        W45521  24.481  16.736   3.649
85986W        W45522   2.867  16.583  12.059
85987W        W45523  13.630  19.641  14.839
85988W        W45524  22.081  13.129   4.700
85989W        W45525  35.426  24.146   0.962
85990W        W45526  39.485   7.891   1.329
85991W        W45527  22.747  32.098  10.547
85992W        W45528  11.282  44.770  13.498
85993W        W45529  19.093  25.663  12.860
85994W        W45530  35.539  24.672  13.956
85995W        W45531  37.432  23.655  11.588
85996W        W45532   6.323  26.509  13.339
85997W        W45533  19.616   3.759  14.899
85998W        W45534  21.114  41.445  14.318
85999W        W45535  14.710  21.211   0.849
86000W        W45536  33.052   3.914  13.853
86001W        W45537  39.410  14.224   0.779
86002W        W45538  35.529  37.418  11.876
86003W        W45539  34.549  28.138  14.783
86004W        W45540  21.744  24.596  12.527
86005W        W45541  40.514  42.775  11.080
86006W        W45542  41.817   5.315  14.956
86007W        W45543  24.718  33.586  13.501
86008W        W45544   9.735  14.247   2.884
86009W        W45545  32.074  37.919   3.190
86010W        W45546   0.308   3.733  11.607
86011W        W45547  13.834  15.133  13.018
86012W        W45548  35.524  40.859   3.191
86013W        W45549  10.224  35.405   1.272
86014W        W45550  17.280  23.730  13.909
86015W        W45551  20.231  29.452   0.820
86016W        W45552   8.320  10.726   2.738
86017W        W45553   5.915  42.417  14.803
86018W        W45554  33.569  16.643  14.350
86019W        W45555  17.179  12.185   9.968
86020W        W45556  40.531   2.363  14.466
86021W        W45557  35.491  43.946  12.054
86022W        W45558  18.078   6.830   3.727
86023W        W45559  36.486  42.390  12.841
86024W        W45560  28.631  31.536  14.883
86025W        W45561  15.314   6.310   0.906
86026W        W45562  31.055  43.978  11.129
86027W        W45563  20.525  41.333  11.904
86028W        W45564   5.894  31.052   4.256
86029W        W45565  13.706   8.254   4.162
86030W        W45566   6.710  36.505   3.860
86031W        W45567  44.376  32.931   0.868
86032W        W45568   9.158   5.351   2.338
86033W        W45569  20.133   1.736   3.310
86034W        W45570  31.580  24.117  14.383
86035W        W45571  19.060  28.058   1.878
86036W        W45572  19.563   5.399   0.757
86037W        W45573  36.085  17.652   2.805
86038W        W45574  17.151  14.176   0.313
86039W        W45575  42.797   0.410   3.211
86040W        W45576  23.002  10.344   4.822
86041W        W45577  17.244  28.579  10.949
86042W        W45578   4.908  32.532  11.941
86043W        W45579  44.261  33.600  10.487
86044W        W45580  22.606  10.320  14.933
86045W        W45581  14.792  23.677  13.993
86046W        W45582  33.438  43.504   2.313
86047W        W45583  21.565  28.125   9.984
86048W        W45584  19.248  23.039   4.261
86049W        W45585   7.205  21.186   0.834
86050W        W45586  41.382  37.836  13.454
86051W        W45587  12.804  10.696   9.453
86052W        W45588  27.023  29.175   4.220
86053W        W45589  27.452   1.916  14.317
86054W        W45590  28.527   9.286  12.971
86055W        W45591   9.303   2.361   2.397
86056W        W45592  23.107   5.696  12.067
86057W        W45593   9.191   8.824  13.512
86058W        W45594  22.566  28.959  10.534
86059W        W45595  17.583  31.058   1.238
86060W        W45596  29.975  20.052   3.381
86061W        W45597  28.445  30.922   2.756
86062W        W45598   2.291  22.628  10.010
86063W        W45599  37.509   4.363  11.412
86064W        W45600  44.464  36.517   4.642
86065W        W45601  35.941  21.203   4.713
86066W        W45602  14.748  22.668   0.765
86067W        W45603  36.375   4.445  12.499
86068W        W45604  20.689  12.311  14.410
86069W        W45605  44.974   8.836   5.290
86070W        W45606   9.731  31.412   2.780
86071W        W45607  32.595  37.415  14.912
86072W        W45608   9.739   9.243   0.365
86073W        W45609  17.259   8.209   0.419
86074W        W45610  41.446   8.694  12.887
86075W        W45611  15.624  39.377  13.862
86076W        W45612  30.032  24.623   4.178
86077W        W45613   5.776  34.517  10.979
86078W        W45614  26.128   7.387  11.592
86079W        W45615  33.980  28.980  10.915
86080W        W45616  28.630   8.694  13.523
86081W        W45617  22.627  13.294   0.814
86082W        W45618  10.764  27.033  14.408
86083W        W45619   8.705  26.668  11.926
86084W        W45620   9.189   8.772   1.230
86085W        W45621  13.326  14.716  13.382
86086W        W45622  19.751  42.369   3.265
86087W        W45623  13.124   8.870   1.763
86088W        W45624   8.354  38.043  13.901
86089W        W45625  20.188  30.114  11.934
86090W        W45626   5.252   1.794  11.899
86091W        W45627  28.656   7.910   3.634
86092W        W45628   1.966  41.965  13.998
86093W        W45629  24.680  20.589  11.075
86094W        W45630  35.967   5.270   0.293
86095W        W45631   1.332  11.629  14.768
86096W        W45632  34.051  14.832  10.978
86097W        W45633  38.979  11.798   1.930
86098W        W45634   5.860  40.460  13.465
86099W        W45635  22.625  20.627  14.787
86100W        W45636   1.954  17.110  12.470
86101W        W45637   0.430   6.193  13.938
86102W        W45638   1.748   4.337  13.363
86103W        W45639  11.235  16.174  13.961
86104W        W45640   0.828   7.413   5.146
86105W        W45641   1.858   6.199   3.748
86106W        W45642  32.411  42.806   1.273
86107W        W45643  22.017  23.595  11.914
86108W        W45644  43.310  42.523   2.311
86109W        W45645  19.646  40.835  12.386
86110W        W45646  22.573   3.294  11.467
86111W        W45647   8.212   6.728   3.280
86112W        W45648  24.555   8.744  11.946
86113W        W45649  37.878  22.239   0.735
86114W        W45650  19.130  12.253   0.270
86115W        W45651  36.929   4.411  13.378
86116W        W45652  19.177  31.955  14.963
86117W        W45653   8.404  26.460  14.408
86118W        W45654  37.380  13.126  10.969
86119W        W45655  22.209  36.863   5.237
86120W        W45656   3.711  42.788   3.316
86121W        W45657  31.505  33.498  12.096
86122W        W45658  31.149  26.501  11.949
86123W        W45659  18.724  31.934  11.549
86124W        W45660  10.327  28.594   3.740
86125W        W45661  18.772  12.782  13.848
86126W        W45662  29.169  20.100   4.293
86127W        W45663  29.996  13.142   4.816
86128W        W45664  37.037  20.755  11.059
86129W        W45665  36.095  15.271  12.096
86130W        W45666  36.346  19.764   1.781
86131W        W45667  32.422  30.567   3.249
86132W        W45668  11.226  40.911  13.982
86133W        W45669  28.496  19.236   4.777
86134W        W45670  30.530   3.331   1.926
86135W        W45671   2.837  36.979  12.478
86136W        W45672   3.247  26.471  10.575
86137W        W45673  33.389  24.652  13.454
86138W        W45674  30.095  41.356  10.497
86139W        W45675  44.444  25.095   0.900
86140W        W45676  38.040  31.122   0.348
86141W        W45677   5.193   6.788  12.529
86142W        W45678   1.450  38.333  12.553
86143W        W45679  14.787   8.180   0.316
86144W        W45680  41.882  22.107   0.857
86145W        W45681  33.976   9.854  14.792
86146W        W45682  25.576  29.069   2.804
86147W        W45683  12.127  11.629  13.370
86148W        W45684  30.604   6.780  11.508
86149W        W45685   1.901  20.623   1.410
86150W        W45686   9.161  21.242  10.639
86151W        W45687  43.998  38.497  12.010
86152W        W45688  11.300  31.924   3.798
86153W        W45689  29.599  39.379   4.764
86154W        W45690   7.230  25.614  14.891
86155W        W45691   7.313  42.521  12.924
86156W        W45692  23.162  22.632   1.419
86157W        W45693   5.193  21.607  12.363
86158W        W45694  42.785  18.663   1.697
86159W        W45695   1.328  28.037  14.338
86160W        W45696  25.639  25.977  11.947
86161W        W45697  19.650  41.538  14.392
86162W        W45698  24.613  26.008   4.171
86163W        W45699  25.674   8.363   4.314
86164W        W45700  25.627  41.035   3.709
86165W        W45701  39.864   6.715  11.868
86166W        W45702  27.143  32.039  14.841
86167W        W45703  24.037  34.430  14.296
86168W        W45704  29.027   7.677  11.000
86169W        W45705   7.342  34.504   3.162
86170W        W45706  31.021   0.490   2.243
86171W        W45707  29.129  34.026   3.708
86172W        W45708  32.951  21.037  13.924
86173W        W45709   5.429   9.185   3.849
86174W        W45710  10.278  23.573  11.513
86175W        W45711  29.966  17.218   3.273
86176W        W45712  31.430  13.269   1.810
86177W        W45713   9.371  36.950  11.380
86178W        W45714  43.776   3.321   5.307
86179W        W45715  23.015  19.115   0.266
86180W        W45716  43.388  20.238  13.513
86181W        W45717  30.083  14.664  11.533
86182W        W45718  28.179  33.609   3.212
86183W        W45719  10.674   4.901  12.491
86184W        W45720  30.616  29.042  14.455
86185W        W45721  24.996  10.855   4.699
86186W        W45722   2.379   0.816  12.893
86187W        W45723   2.358  11.621  10.935
86188W        W45724  38.534  25.548  11.963
86189W        W45725   3.801  20.236   2.331
86190W        W45726  37.442  31.141   3.663
86191W        W45727  31.419  19.120  11.927
86192W        W45728  39.869   8.832  11.107
86193W        W45729   1.396  27.090   4.777
86194W        W45730  41.810  28.467   0.939
86195W        W45731  37.559  34.980   4.163
86196W        W45732  38.868   0.849   5.698
86197W        W45733  24.479  20.233  10.974
86198W        W45734   3.781  38.439   3.314
86199W        W45735  10.213  34.065   4.338
86200W        W45736  11.748  28.446   2.305
86201W        W45737  20.599  28.104  13.058
86202W        W45738  12.229  22.597  13.514
86203W        W45739  38.955  44.325  14.900
86204W        W45740  30.030   5.891  11.574
86205W        W45741  34.920   9.882  12.924
86206W        W45742  37.343  24.680   2.410
86207W        W45743  15.758   2.782  14.498
86208W        W45744  11.847  35.371  12.003
86209W        W45745  18.607  21.703   3.216
86210W        W45746  43.984  16.721   1.932
86211W        W45747  29.028  22.118   3.824
86212W        W45748   4.377  35.422   0.343
86213W        W45749  10.194  13.620   1.918
86214W        W45750  38.853  41.881   5.289
86215W        W45751   1.801  33.938   0.830
86216W        W45752  23.603  10.665   3.648
86217W        W45753   4.374  20.662   3.280
86218W        W45754   7.375  12.816  14.499
86219W        W45755   1.901  23.511   5.138
86220W        W45756  36.508  16.686  11.482
86221W        W45757  24.694  40.450   0.817
86222W        W45758  24.696  14.116   3.648
86223W        W45759  17.177  37.380  14.830
86224W        W45760  23.733  16.675   2.869
86225W        W45761  30.951   9.381  12.538
86226W        W45762  43.797  31.431   4.217
86227W        W45763   3.792  19.102  11.108
86228W        W45764  30.566  16.691  11.099
86229W        W45765  14.631  10.194  11.553
86230W        W45766   0.925  37.364   1.231
86231W        W45767   0.343  21.157  13.868
86232W        W45768   5.772  23.217   4.119
86233W        W45769  18.737  13.266   2.856
86234W        W45770  40.981   5.757  14.471
86235W        W45771  12.301  33.960  13.328
86236W        W45772  15.201   3.331  10.623
86237W        W45773  13.253   0.860  13.825
86238W        W45774   5.202  21.031   0.441
86239W        W45775  20.567  23.567  11.547
86240W        W45776   6.301  33.444   2.704
86241W        W45777  36.418  31.099  13.842
86242W        W45778   3.436  12.253  13.466
86243W        W45779   6.897  26.694   4.210
86244W        W45780  12.629   9.735  14.327
86245W        W45781  11.697   2.814   2.283
86246W        W45782  42.023  26.178   0.279
86247W        W45783  13.614  29.469  14.886
86248W        W45784  22.197  38.388  13.408
86249W        W45785  13.208  30.658   4.211
86250W        W45786   3.741  38.957   2.359
86251W        W45787  22.589  17.556  14.831
86252W        W45788   3.828   2.321   1.338
86253W        W45789  32.500  36.575   3.705
86254W        W45790   5.429  26.193   3.256
86255W        W45791   6.313  14.623   0.467
86256W        W45792   6.403  41.824  12.903
86257W        W45793   4.765  17.622  13.884
86258W        W45794  20.107  29.983  10.407
86259W        W45795   3.882  24.199   2.741
86260W        W45796  42.855  40.464   0.860
86261W        W45797  42.450  15.597   2.307
86262W        W45798  40.549  41.473  13.878
86263W        W45799  18.611  18.625   2.712
86264W        W45800   7.706  34.411   9.990
86265W        W45801  31.980   1.456  14.490
86266W        W45802  24.598  43.815  12.010
86267W        W45803  19.726   0.443  13.830
86268W        W45804  12.754  40.450  11.508
86269W        W45805  23.613  33.906   1.244
86270W        W45806  22.147  33.581   4.349
86271W        W45807  26.092  43.370  13.926
86272W        W45808   5.317  39.539  12.004
86273W        W45809  41.907  11.673  11.371
86274W        W45810   3.356  20.738   0.917
86275W        W45811  34.463  25.051   3.176
86276W        W45812  32.626   1.441  12.463
86277W        W45813  23.059   9.395   4.624
86278W        W45814   7.798  32.040  10.618
86279W        W45815  42.894  23.138   3.231
86280W        W45816  12.751  43.511   2.885
86281W        W45817  24.697  40.529  10.556
86282W        W45818   7.320  21.200  11.931
86283W        W45819  15.625  41.479  14.473
86284W        W45820  40.005  18.082   3.318
86285W        W45821  11.832  44.777  13.474
86286W        W45822  17.722   6.265   3.709
86287W        W45823   2.245   6.394  13.475
86288W        W45824  10.169  12.743   2.840
86289W        W45825   4.258  19.639  12.359
86290W        W45826  27.617  14.208  13.447
86291W        W45827  40.941  43.793   1.415
86292W        W45828  27.972   7.336  14.289
86293W        W45829  20.107  32.561   3.716
86294W        W45830  27.039   3.457   1.774
86295W        W45831  28.027  29.973   2.362
86296W        W45832  15.786  33.106  13.976
86297W        W45833  23.704  20.234   3.374
86298W        W45834   7.848  39.430   3.159
86299W        W45835  35.439   5.419  11.019
86300W        W45836  22.511  39.482  14.448
86301W        W45837   6.775   3.348  10.449
86302W        W45838  43.425  40.966   1.446
86303W        W45839  38.416  29.459  12.533
86304W        W45840   1.444   6.262  12.458
86305W        W45841   9.289  44.407   2.779
86306W        W45842  19.540  22.041   3.706
86307W        W45843  25.965  44.978   1.834
86308W        W45844  40.859  28.561   1.439
86309W        W45845  14.175  16.608  12.420
86310W        W45846  23.719  37.029  13.937
86311W        W45847  18.088  17.740   0.418
86312W        W45848   7.800  38.040   4.258
86313W        W45849  22.698  31.501  11.472
86314W        W45850  11.845   1.731   0.730
86315W        W45851  33.580  38.979  12.864
86316W        W45852  13.281  30.106  11.044
86317W        W45853   0.440  44.458   1.396
86318W        W45854  17.564   0.453   2.352
86319W        W45855  20.244   0.350  11.960
86320W        W45856  16.767  17.613  10.937
86321W        W45857   4.437  42.019   4.143
86322W        W45858   0.911  16.780  14.277
86323W        W45859  44.774  41.507   3.289
86324W        W45860  16.667  36.406  14.027
86325W        W45861  30.935  25.531  12.907
86326W        W45862  15.676   4.791   2.200
86327W        W45863  38.872  14.701  10.969
86328W        W45864  20.142  13.136  13.922
86329W        W45865  13.620   8.343   2.293
86330W        W45866   9.245   6.805  14.327
86331W        W45867  37.930  28.648  14.302
86332W        W45868  18.640  34.606  13.800
86333W        W45869  19.658  44.833   2.201
86334W        W45870   4.440   8.325   1.425
86335W        W45871  24.709   9.696  11.548
86336W        W45872   4.272  28.603   0.785
86337W        W45873  13.635  19.053  14.800
86338W        W45874  26.159  15.800  11.886
86339W        W45875  30.642  30.573  13.510
86340W        W45876  43.273  24.661  13.013
86341W        W45877  18.752  41.424  12.414
86342W        W45878   9.304   1.766   0.761
86343W        W45879   0.772  22.679   3.307
86344W        W45880  41.459  10.235   1.834
86345W        W45881  26.560   6.372  10.100
86346W        W45882   3.225  17.062  13.448
86347W        W45883  44.449  21.666   0.244
86348W        W45884   4.438  18.061   3.796
86349W        W45885   3.327  41.429  14.278
86350W        W45886   9.192   0.967   0.930
86351W        W45887  14.755  37.429  12.848
86352W        W45888  15.781  14.786  10.410
86353W        W45889  10.840   3.262   5.081
86354W        W45890  34.487  38.546   1.282
86355W        W45891  16.274  23.531   4.644
86356W        W45892  41.336   2.243   3.153
86357W        W45893  35.948   6.341  12.966
86358W        W45894  42.826  20.717  13.942
86359W        W45895  35.032   5.881   4.784
86360W        W45896  33.615   8.332   2.692
86361W        W45897  31.556  44.999   3.782
86362W        W45898  17.783   5.742   2.732
86363W        W45899   2.955   8.243   2.780
86364W        W45900  19.082  29.578  13.973
86365W        W45901   4.876  44.002  10.479
86366W        W45902  39.393  26.999   4.156
86367W        W45903  21.155  12.817   0.756
86368W        W45904  43.863  11.655  13.940
86369W        W45905  41.314  13.116   4.222
86370W        W45906  26.660  38.009  12.527
86371W        W45907  36.851  14.103  14.822
86372W        W45908  29.552  35.927  14.766
86373W        W45909  11.801  10.812   3.855
86374W        W45910   3.883  28.550  14.866
86375W        W45911   8.392   3.749   0.368
86376W        W45912  32.499  11.358   3.832
86377W        W45913  22.613   6.396  14.500
86378W        W45914   1.959  14.707   2.280
86379W        W45915   7.360  31.507   3.238
86380W        W45916  44.796  44.446   2.305
86381W        W45917  18.589   7.202  10.562
86382W        W45918  42.400  36.447  13.931
86383W        W45919  38.487  36.516  12.452
86384W        W45920  20.701  39.960  12.989
86385W        W45921  31.549  12.316  12.849
86386W        W45922   4.911  26.606  13.021
86387W        W45923  11.372  31.053  12.400
86388W        W45924  37.930  19.163   2.377
86389W        W45925  28.481  12.218   4.244
86390W        W45926   0.417  21.213  13.374
86391W        W45927  31.115  40.051   2.216
86392W        W45928  37.927  29.527  11.468
86393W        W45929  16.266   8.858   3.379
86394W        W45930  13.697   6.749   0.819
86395W        W45931   1.362   7.181   0.831
86396W        W45932  18.773   2.936   0.430
86397W        W45933  35.501  25.656  12.849
86398W        W45934  40.799  27.073   1.226
86399W        W45935   9.220  39.379   0.252
86400W        W45936   2.803  21.614   2.277
86401W        W45937  29.091   4.881   3.664
86402W        W45938  40.990   4.298  13.910
86403W        W45939  14.641  29.630  13.367
86404W        W45940  26.069   4.400   4.154
86405W        W45941  11.339  40.345  10.590
86406W        W45942  24.087  39.979   0.863
86407W        W45943  14.232  22.534  11.956
86408W        W45944  33.996  18.132  11.524
86409W        W45945  25.482  44.001  12.401
86410W        W45946  37.951   8.693  10.443
86411W        W45947  19.775  19.558  11.456
86412W        W45948  17.776  40.924  10.936
86413W        W45949  25.002  42.925   3.870
86414W        W45950  38.896  13.228   1.267
86415W        W45951   5.386  28.623  12.044
86416W        W45952  39.062  28.169   0.439
86417W        W45953  37.384  19.570   9.947
86418W        W45954  16.708  25.009  14.760
86419W        W45955  16.625  37.455  14.488
86420W        W45956   8.219   5.929  13.937
86421W        W45957   8.828   1.837  10.549
86422W        W45958   2.786  28.960   1.409
86423W        W45959  44.906   9.382   5.806
86424W        W45960   1.818  43.857   2.748
86425W        W45961   0.400  37.359   0.908
86426W        W45962  29.655   9.171  14.394
86427W        W45963  44.797  28.509  11.957
86428W        W45964   7.273  11.852   3.283
86429W        W45965  27.021  42.023   2.849
86430W        W45966  27.524  30.139  14.875
86431W        W45967  41.004  31.595   1.233
86432W        W45968  12.668  16.770  13.393
86433W        W45969   4.793  39.004   3.871
86434W        W45970  36.506  43.485  11.096
86435W        W45971  29.619  10.194   5.280
86436W        W45972  37.995  34.952   0.960
86437W        W45973   0.906   1.878  14.830
86438W        W45974  44.279   3.913  12.485
86439W        W45975  15.808  16.075  10.456
86440W        W45976  26.085  42.962   3.775
86441W        W45977   2.264   8.899  13.059
86442W        W45978  17.297  21.128   1.250
86443W        W45979  14.317  12.711  11.985
86444W        W45980  20.171  23.698  10.467
86445W        W45981  10.873  42.971   1.264
86446W        W45982  19.140  43.956   0.281
86447W        W45983  14.649  11.313   3.303
86448W        W45984  19.182  40.950  10.626
86449W        W45985   9.681  19.215  11.860
86450W        W45986  44.998  26.543   4.746
86451W        W45987  41.905  32.023  13.882
86452W        W45988  17.606  37.399  10.537
86453W        W45989  23.221  38.357   0.429
86454W        W45990  38.069  12.190  14.386
86455W        W45991  29.024  25.100   5.179
86456W        W45992  28.088  39.893   4.121
86457W        W45993  32.530   9.302  12.565
86458W        W45994  13.697   2.357  14.488
86459W        W45995  30.490  38.442  11.506
86460W        W45996  18.728  16.153   3.716
86461W        W45997  27.981  28.953   1.833
86462W        W45998   5.217  36.886  11.867
86463W        W45999  41.375  28.976   2.822
86464W        W46000  30.518  35.459  11.924
86465W        W46001  15.251  36.502   0.777
86466W        W46002  34.877  24.628  14.425
86467W        W46003  24.630  42.820   1.218
86468W        W46004  36.582   6.304  14.948
86469W        W46005  15.702  18.060   3.835
86470W        W46006   3.394  24.546   0.964
86471W        W46007  39.885  41.510  11.979
86472W        W46008  29.929   1.423   1.288
86473W        W46009  20.100  28.562   1.903
86474W        W46010  39.359  12.355   3.152
86475W        W46011  26.619  40.989   3.385
86476W        W46012  19.108   8.701   4.647
86477W        W46013  15.764  35.509   0.816
86478W        W46014   2.728  30.508  12.392
86479W        W46015  12.711  24.005  12.401
86480W        W46016  32.419  36.988  13.412
86481W        W46017  27.039  30.923   1.768
86482W        W46018   1.926  39.813   4.759
86483W        W46019  43.338  10.730   3.676
86484W        W46020  24.600  41.888  14.781
86485W        W46021  21.531   8.305  11.512
86486W        W46022  29.049  18.288  11.966
86487W        W46023  10.229  31.574  11.090
86488W        W46024  21.685   6.262  10.528
86489W        W46025  31.055  31.545  10.444
86490W        W46026  30.017  24.003   2.383
86491W        W46027  24.084  31.121   2.260
86492W        W46028  20.705   4.747  10.088
86493W        W46029  35.407   3.375  10.924
86494W        W46030  30.415   4.275   3.768
86495W        W46031  24.149  20.126   4.779
86496W        W46032  35.968  16.576  12.576
86497W        W46033  37.434   2.243   4.674
86498W        W46034  18.612  31.535  10.437
86499W        W46035   3.215   3.429  10.491
86500W        W46036  12.797  42.419  13.413
86501W        W46037   3.390  25.487  13.848
86502W        W46038  43.505  28.120   4.273
86503W        W46039  33.947  34.455  13.048
86504W        W46040  32.456  16.140   0.410
86505W        W46041   6.706   4.356  11.121
86506W        W46042  14.121  31.112   4.138
86507W        W46043  32.086  42.798  10.573
86508W        W46044  17.063  15.606   1.247
86509W        W46045   0.864  27.108   1.697
86510W        W46046  26.700  26.555   1.233
86511W        W46047  31.113   2.735  14.932
86512W        W46048  16.633  19.688   3.322
86513W        W46049  12.291  38.484  13.047
86514W        W46050  40.363   2.334  10.537
86515W        W46051  13.339  33.435   4.772
86516W        W46052  38.383  39.948   2.766
86517W        W46053  23.699   0.464  11.919
86518W        W46054  42.977  23.602   4.170
86519W        W46055   3.832   7.413  13.014
86520W        W46056  19.253  11.260  11.946
86521W        W46057   9.834  40.987   1.239
86522W        W46058  30.104  24.034  12.080
86523W        W46059  15.167  27.505   2.197
86524W        W46060  41.445  34.403  10.553
86525W        W46061  12.737  23.579   4.792
86526W        W46062  15.707  18.790  13.923
86527W        W46063  16.090  12.641  12.072
86528W        W46064  25.590  33.082  10.916
86529W        W46065  19.686  27.029   0.339
86530W        W46066   2.931  40.956  13.033
86531W        W46067  33.541  16.580  10.422
86532W        W46068  15.147  43.271   2.256
86533W        W46069  28.617  24.975   5.180
86534W        W46070  24.496  42.416   3.231
86535W        W46071  28.665  30.539   0.363
86536W        W46072  42.829  23.545  10.072
86537W        W46073  18.551  39.015  12.055
86538W        W46074   6.877  27.585  11.515
86539W        W46075  15.812  33.610  12.553
86540W        W46076  37.955  32.616  13.436
86541W        W46077   2.379   0.867  11.493
86542W        W46078   4.873   9.325   2.825
86543W        W46079   8.395  37.965   2.903
86544W        W46080   7.221  11.277  13.516
86545W        W46081  33.125   1.429   3.779
86546W        W46082   0.283  27.177   1.434
86547W        W46083  10.224  19.536  13.851
86548W        W46084  20.155   3.732   2.398
86549W        W46085   7.231   2.431   1.779
86550W        W46086  13.239  22.064   4.621
86551W        W46087  29.051  42.282   0.471
86552W        W46088  22.224  27.078   4.744
86553W        W46089  24.008  42.318  12.878
86554W        W46090  21.031  41.405   3.700
86555W        W46091  34.581  21.256  11.952
86556W        W46092  32.428  19.729  12.351
86557W        W46093  28.562  35.050  12.474
86558W        W46094  17.741  10.149   4.152
86559W        W46095  11.867  29.078   3.208
86560W        W46096  14.634  44.994   2.817
86561W        W46097  26.626  26.190  12.846
86562W        W46098  21.201  17.140  14.009
86563W        W46099  12.228  29.084  12.827
86564W        W46100  13.764  12.722  12.096
86565W        W46101  40.914   3.861   3.162
86566W        W46102  37.839  43.371   3.155
86567W        W46103  33.107  30.475  13.403
86568W        W46104   9.815   2.368   1.891
86569W        W46105  43.994  36.072  12.532
86570W        W46106  21.131  25.086  13.870
86571W        W46107  18.573   2.865  14.439
86572W        W46108  44.334  37.907  11.432
86573W        W46109  18.655   2.778  12.979
86574W        W46110  29.474  39.863   2.309
86575W        W46111  36.088  35.514  13.025
86576W        W46112  42.440  44.904   0.876
86577W        W46113  26.090   0.471  11.070
86578W        W46114  21.254  28.672   4.750
86579W        W46115  34.943  44.763   0.323
86580W        W46116  29.053  42.015   3.313
86581W        W46117  42.947  10.787  12.009
86582W        W46118  27.100  34.406   0.945
86583W        W46119  32.137  13.159   5.247
86584W        W46120  16.714  30.978   2.251
86585W        W46121  42.495  26.659   2.266
86586W        W46122  40.903  21.750  10.535
86587W        W46123  21.073  40.036   4.352
86588W        W46124  15.241  40.800   1.910
86589W        W46125   0.334  31.473  13.411
86590W        W46126  25.014   1.759  14.032
86591W        W46127  37.867  38.470  12.960
86592W        W46128   2.955  38.465  10.951
86593W        W46129  37.513  21.096   3.694
86594W        W46130  23.097   3.762  10.059
86595W        W46131  40.894  34.972   0.761
86596W        W46132   1.326   8.854  12.571
86597W        W46133  11.802  42.447   0.747
86598W        W46134  15.794  37.984   0.741
86599W        W46135  23.521  32.930   3.762
86600W        W46136  14.820  23.513  10.405
86601W        W46137  12.817   1.874  10.935
86602W        W46138  10.254  42.825  13.547
86603W        W46139  36.850  42.844   1.741
86604W        W46140  37.555  32.511  14.300
86605W        W46141  36.395  25.618  13.440
86606W        W46142   9.782  14.136   4.649
86607W        W46143  25.585   3.220   3.663
86608W        W46144  31.459   7.686  13.896
86609W        W46145  30.595   3.838   4.803
86610W        W46146  42.365   2.242   3.341
86611W        W46147  44.755  44.408   1.235
86612W        W46148   0.743  38.925  13.865
86613W        W46149   6.344  21.669  11.611
86614W        W46150  11.715  37.923   2.310
86615W        W46151  25.096  17.634   3.747
86616W        W46152   8.747   6.819  13.448
86617W        W46153  23.210  19.066   3.752
86618W        W46154   3.283   3.396  12.942
86619W        W46155  32.080  18.603  11.608
86620W        W46156   4.396   8.338   2.697
86621W        W46157  12.784   2.957   2.885
86622W        W46158  26.658   0.332  13.989
86623W        W46159  42.392  30.591  11.949
86624W        W46160  19.164  24.143   0.389
86625W        W46161  21.248  38.878   2.309
86626W        W46162  19.715  11.340   3.853
86627W        W46163  11.239   4.887  11.419
86628W        W46164   4.420  18.746  13.430
86629W        W46165  30.529  41.971   4.663
86630W        W46166   0.977   7.268  12.399
86631W        W46167   2.846   9.871   0.383
86632W        W46168  44.970  43.901  11.377
86633W        W46169   2.331  39.508   4.647
86634W        W46170  42.883   3.799   3.670
86635W        W46171  37.980   9.371   2.234
86636W        W46172   2.361  19.102   1.817
86637W        W46173  43.793  15.640  12.460
86638W        W46174  27.965  42.481   1.426
86639W        W46175  35.491  26.178  12.017
86640W        W46176  26.988  16.783  13.824
86641W        W46177  22.709  14.621   2.314
86642W        W46178   3.798  35.953   0.247
86643W        W46179  22.232  43.445  13.842
86644W        W46180  25.012  37.472  14.461
86645W        W46181  21.655  25.669  12.480
86646W        W46182  20.034  22.719  14.390
86647W        W46183   8.657  10.257   3.651
86648W        W46184  31.610  10.635  13.327
86649W        W46185  43.423  15.141   3.820
86650W        W46186  13.196  42.897   0.747
86651W        W46187  36.068   5.719   2.812
86652W        W46188  42.515  41.404   4.253
86653W        W46189  33.988  13.606   4.172
86654W        W46190  11.801  19.685  12.530
86655W        W46191  43.373  26.659   1.388
86656W        W46192   4.207  42.503  11.527
86657W        W46193  38.943  14.616   1.338
86658W        W46194  43.862  25.698   1.815
86659W        W46195  10.823  42.030   0.264
86660W        W46196  37.548  30.030   3.668
86661W        W46197  25.990  21.209  13.328
86662W        W46198  11.797  12.708   0.453
86663W        W46199  43.504   0.850  11.049
86664W        W46200  14.338  32.631   3.838
86665W        W46201  34.549   7.331   2.322
86666W        W46202  32.515  44.444   1.796
86667W        W46203  41.941   2.324   0.910
86668W        W46204   5.317  12.782  10.513
86669W        W46205  34.445  23.058   2.397
86670W        W46206  28.182  25.563  11.096
86671W        W46207  13.715  32.532   3.338
86672W        W46208  38.353   0.476  12.991
86673W        W46209  24.049  11.180  14.352
86674W        W46210  17.161  31.456  12.352
86675W        W46211   4.391  40.506  12.517
86676W        W46212  28.143  12.145  13.817
86677W        W46213   2.396  44.318   2.781
86678W        W46214  16.288  31.082  10.479
86679W        W46215   0.333  27.011   3.724
86680W        W46216   8.843   0.323  11.018
86681W        W46217  23.078   0.330  14.909
86682W        W46218   4.307  42.019   1.787
86683W        W46219  40.303  29.038  12.828
86684W        W46220  16.100  10.297   2.790
86685W        W46221  13.684  10.814   2.398
86686W        W46222  14.183  35.383   2.254
86687W        W46223   0.842  40.000   1.758
86688W        W46224  28.025  31.622   3.632
86689W        W46225  16.567  21.573  14.882
86690W        W46226  17.097  12.614   1.250
86691W        W46227  36.968  36.894   2.754
86692W        W46228   0.284   8.371  12.384
86693W        W46229  39.934   9.366   2.874
86694W        W46230   9.229  29.450  13.367
86695W        W46231  31.993  43.346  10.975
86696W        W46232  34.882  39.419  11.052
86697W        W46233  29.054  31.108   1.716
86698W        W46234   3.372  20.563   1.409
86699W        W46235   5.349  26.009  13.808
86700W        W46236  24.651  14.202  14.031
86701W        W46237   5.426  37.010  13.365
86702W        W46238  30.145  39.005   3.321
86703W        W46239  18.662  21.241   5.709
86704W        W46240  21.726  30.911   0.450
86705W        W46241  33.395  19.552  10.051
86706W        W46242  23.155  23.092   2.679
86707W        W46243   9.282  30.142   2.740
86708W        W46244  20.633   6.815  14.963
86709W        W46245   0.431  19.661  14.824
86710W        W46246  12.683  24.550  12.861
86711W        W46247   0.942   6.186  10.112
86712W        W46248  30.448  26.536  11.447
86713W        W46249   7.226  37.942   1.866
86714W        W46250  27.029  28.118  10.009
86715W        W46251  43.806  31.949  13.421
86716W        W46252  18.214  18.215  11.940
86717W        W46253  22.215  17.241   0.806
86718W        W46254  10.172  44.394  11.419
86719W        W46255  20.038  42.490   0.428
86720W        W46256  31.968  36.439  11.952
86721W        W46257  44.346  39.882  13.849
86722W        W46258  44.349   8.675   5.225
86723W        W46259  35.933  12.793   4.296
86724W        W46260  44.762  26.982  11.084
86725W        W46261  44.374   8.381  14.917
86726W        W46262  27.033  28.436   1.873
86727W        W46263   0.742  21.067  12.999
86728W        W46264   8.763  44.333   1.435
86729W        W46265  38.413  38.967  13.809
86730W        W46266  23.041  14.310  14.307
86731W        W46267  11.135  30.450   1.837
86732W        W46268  13.791  38.069   3.243
86733W        W46269   3.763  16.807   1.737
86734W        W46270  27.635  43.945   3.289
86735W        W46271  31.522  11.867  11.881
86736W        W46272   1.928  12.255   0.367
86737W        W46273   7.408  42.019  14.278
86738W        W46274   1.431  34.879  13.432
86739W        W46275  28.524  42.340   2.232
86740W        W46276  43.283  19.134   4.166
86741W        W46277  19.712   9.852  12.341
86742W        W46278  36.465  21.599   0.739
86743W        W46279  21.127  31.075  12.893
86744W        W46280  44.375  18.712   3.651
86745W        W46281  39.882  17.562   0.776
86746W        W46282   4.819  13.301  13.987
86747W        W46283  18.765   7.827  11.919
86748W        W46284   4.328  34.025   2.814
86749W        W46285  15.247  31.569   2.179
86750W        W46286  43.418  30.045  11.428
86751W        W46287   8.796  21.262  11.389
86752W        W46288   1.813  35.435   0.393
86753W        W46289   7.311  37.468  13.428
86754W        W46290  29.022  25.573  12.380
86755W        W46291  29.000   9.316  11.856
86756W        W46292  36.386  10.272   0.310
86757W        W46293  33.977  10.234  14.822
86758W        W46294  42.490  11.157   4.132
86759W        W46295  11.828  24.691  12.856
86760W        W46296   5.209  31.984   2.377
86761W        W46297  31.603  15.627   3.804
86762W        W46298  40.964  44.401   0.900
86763W        W46299   1.339  22.719  11.505
86764W        W46300   7.722  10.334   3.379
86765W        W46301  22.223   5.401   0.742
86766W        W46302  20.731  19.251  14.304
86767W        W46303  27.527  17.675  10.979
86768W        W46304  35.999  40.933  13.866
86769W        W46305  11.168   8.243   0.741
86770W        W46306   0.903   0.271  11.062
86771W        W46307  36.540  42.905  14.833
86772W        W46308  22.671  40.471   3.704
86773W        W46309  23.147   5.250   1.712
86774W        W46310  12.637   4.221  12.974
86775W        W46311  31.552  36.355   0.860
86776W        W46312   9.852   4.701  14.906
86777W        W46313  23.649  19.599   0.437
86778W        W46314  10.257   3.898  11.857
86779W        W46315  22.029  21.752   2.308
86780W        W46316  11.355  31.413  11.083
86781W        W46317   7.394  33.087  11.414
86782W        W46318  18.788  34.038   0.794
86783W        W46319  33.091  27.554   4.616
86784W        W46320  33.514  40.518   3.723
86785W        W46321   2.358  43.444   2.233
86786W        W46322  17.591   5.352   3.771
86787W        W46323  16.234  32.905   4.299
86788W        W46324  32.993  35.549   1.751
86789W        W46325  43.979   5.904   4.822
86790W        W46326   3.939  17.131  11.568
86791W        W46327  37.431  10.711   2.358
86792W        W46328  11.191  32.106   0.838
86793W        W46329   0.480   8.336   2.280
86794W        W46330  26.008  27.056  14.275
86795W        W46331  44.432  31.401  11.114
86796W        W46332  13.129   2.465  11.469
86797W        W46333  38.975  43.811  11.515
86798W        W46334   7.360  30.021   2.752
86799W        W46335  35.060   5.219   2.304
86800W        W46336   0.884   5.828  14.972
86801W        W46337  19.282  17.653   1.901
86802W        W46338  40.807  24.600  12.077
86803W        W46339  30.498  11.190   3.377
86804W        W46340  32.471  30.596   4.824
86805W        W46341  26.472  14.146   0.892
86806W        W46342  31.109  36.939   0.381
86807W        W46343   2.932  40.012   1.780
86808W        W46344  15.094   0.789  11.047
86809W        W46345  26.613   6.220  13.828
86810W        W46346   7.415  25.641  10.593
86811W        W46347   1.920  38.044  14.448
86812W        W46348  38.837  44.839  11.969
86813W        W46349   1.785   6.711   1.792
86814W        W46350  34.930  44.927   2.285
86815W        W46351   4.261  35.050  10.623
86816W        W46352  28.572  28.093  13.355
86817W        W46353   7.399  27.654  14.796
86818W        W46354  12.851   6.897  14.848
86819W        W46355  39.355  37.965  12.020
86820W        W46356   0.950  27.590   4.183
86821W        W46357  27.163  44.264   1.862
86822W        W46358  30.564   0.762   0.372
86823W        W46359  32.971   8.730   2.801
86824W        W46360  18.628  36.064  12.429
86825W        W46361  33.089  29.441   0.444
86826W        W46362  12.338  35.920  12.435
86827W        W46363  15.763   9.369   0.877
86828W        W46364  27.976  37.911  12.414
86829W        W46365  41.443  41.005  11.934
86830W        W46366  37.921  17.087  14.432
86831W        W46367  22.634   3.919   5.630
86832W        W46368  26.478   5.404   1.233
86833W        W46369  41.531  12.830   3.366
86834W        W46370  14.254   1.783  10.612
86835W        W46371   9.671  32.454   2.680
86836W        W46372  12.616  36.413  13.413
86837W        W46373  41.993   7.265   4.154
86838W        W46374  41.435   1.402   4.764
86839W        W46375  20.740  33.436  12.992
86840W        W46376  43.466  33.011  13.894
86841W        W46377   4.904  39.346   3.279
86842W        W46378   8.886   9.220   0.821
86843W        W46379  28.076  30.533  13.974
86844W        W46380  34.379  24.999   2.831
86845W        W46381  10.323   3.828   2.710
86846W        W46382  33.614  14.596  11.083
86847W        W46383  18.213  30.472   1.227
86848W        W46384  42.456   3.864   4.781
86849W        W46385  44.391   2.889  10.950
86850W        W46386  20.165   9.861  11.041
86851W        W46387  25.151  37.544   0.805
86852W        W46388   7.382   7.773  10.562
86853W        W46389  43.426  23.640  13.973
86854W        W46390  39.877  13.159   4.784
86855W        W46391   1.801   8.234   4.210
86856W        W46392   7.289  14.718  14.288
86857W        W46393  23.052  12.176  14.394
86858W        W46394  29.608  24.521   4.315
86859W        W46395  24.995   3.255   1.220
86860W        W46396  30.474  32.543   3.695
86861W        W46397  23.494   2.444  12.358
86862W        W46398  44.401   7.210   2.791
86863W        W46399  15.138  12.803   1.705
86864W        W46400  35.058  18.069  12.485
86865W        W46401  15.098  37.480   4.167
86866W        W46402  27.142   3.725  13.976
86867W        W46403  38.327   4.753  12.352
86868W        W46404   4.883  29.587   2.384
86869W        W46405  38.855  23.044  11.972
86870W        W46406  26.969  31.017   0.770
86871W        W46407   4.263   3.920   4.649
86872W        W46408   4.914  18.556  11.454
86873W        W46409  39.937  34.402  13.490
86874W        W46410  35.879  41.028   2.268
86875W        W46411  24.995   3.743  11.393
86876W        W46412   9.808   2.396   0.445
86877W        W46413   4.205  34.069   0.879
86878W        W46414  24.030  19.235  12.431
86879W        W46415  10.775  33.940  14.948
86880W        W46416  43.283  10.175   4.184
86881W        W46417  30.466  29.458   1.212
86882W        W46418  35.439   9.885   3.764
86883W        W46419   6.837   5.743  13.437
86884W        W46420  20.536  12.741  13.545
86885W        W46421  27.585  23.713   2.208
86886W        W46422  39.851  44.892   1.326
86887W        W46423  16.084   4.745   2.402
86888W        W46424  43.514   8.249  14.893
86889W        W46425   7.716  11.183  14.797
86890W        W46426  38.007  35.465   2.882
86891W        W46427  36.031   6.317  14.014
86892W        W46428   1.385  26.999  11.515
86893W        W46429  19.586  31.591   2.383
86894W        W46430  37.430  33.431  11.946
86895W        W46431  39.520  18.739   2.882
86896W        W46432  32.047  32.489   1.823
86897W        W46433   6.248  26.594  11.417
86898W        W46434  14.223   7.218  13.026
86899W        W46435  44.353   8.755   0.763
86900W        W46436   3.306  26.145  11.910
86901W        W46437   2.795   7.391  11.128
86902W        W46438  24.044   7.817   4.823
86903W        W46439  36.979  26.007   1.731
86904W        W46440  42.979  26.111   4.231
86905W        W46441  26.121  26.974  10.998
86906W        W46442  19.218  22.192  13.927
86907W        W46443  36.050  43.827   2.316
86908W        W46444  18.276  10.766   3.209
86909W        W46445   7.206  34.537   4.754
86910W        W46446  35.512   0.875  11.444
86911W        W46447  34.914  42.506   1.775
86912W        W46448  38.521  27.963  14.448
86913W        W46449  18.665  34.897  14.359
86914W        W46450  14.642  20.252  12.015
86915W        W46451  24.488  38.907   3.322
86916W        W46452  11.815  39.954  13.847
86917W        W46453  39.367  32.464  10.938
86918W        W46454  44.790   3.400  14.005
86919W        W46455  19.681  33.617  13.044
86920W        W46456  14.199  35.431  11.124
86921W        W46457  29.515   6.304   0.964
86922W        W46458  34.983  37.355   0.729
86923W        W46459   5.930  10.634   1.341
86924W        W46460   2.866  18.671  10.421
86925W        W46461  24.641  10.684  13.010
86926W        W46462  42.979  14.590  11.434
86927W        W46463  38.490  32.431  13.883
86928W        W46464   2.275  42.524   0.364
86929W        W46465  20.659  15.312  11.548
86930W        W46466  40.478  35.923  13.498
86931W        W46467  42.521  12.222   9.632
86932W        W46468  28.619  42.843   4.217
86933W        W46469   6.273  44.298   4.716
86934W        W46470  34.472  32.075   2.235
86935W        W46471  29.012  14.779  12.479
86936W        W46472  15.599  27.560   4.803
86937W        W46473  33.887  42.512  13.933
86938W        W46474   1.266  16.300   4.642
86939W        W46475  37.921  16.250  12.060
86940W        W46476  42.961  27.940  14.482
86941W        W46477  17.772  32.940   4.119
86942W        W46478  11.628  14.216  14.449
86943W        W46479  18.552  22.157  11.053
86944W        W46480  12.679  14.589   4.317
86945W        W46481   8.398  26.054   2.214
86946W        W46482  22.125  16.601  10.403
86947W        W46483  10.232  38.348   1.779
86948W        W46484  13.339  31.496   2.792
86949W        W46485  33.451  14.244  13.968
86950W        W46486  35.954  22.705  12.359
86951W        W46487  24.066  41.331   1.891
86952W        W46488   6.792  42.812   2.373
86953W        W46489  40.327  40.328   0.244
86954W        W46490  10.761  31.432   3.258
86955W        W46491  43.463  44.846   4.599
86956W        W46492  35.364  28.034  14.804
86957W        W46493   3.251   2.761   3.730
86958W        W46494  41.376  17.124  13.425
86959W        W46495  25.001  40.010  13.002
86960W        W46496  22.563  21.123   2.693
86961W        W46497  24.071  14.655  14.862
86962W        W46498   0.748  31.647  11.463
86963W        W46499   0.265  18.227   2.238
86964W        W46500  41.513   9.772   3.284
86965W        W46501  27.626   8.288   4.182
86966W        W46502  36.536  34.031   2.264
86967W        W46503  11.695  25.655   0.836
86968W        W46504  42.931  32.997   3.805
86969W        W46505  39.877  32.896  14.770
86970W        W46506  15.758  27.579  11.399
86971W        W46507  43.479   2.881  14.384
86972W        W46508  38.953  37.954  11.107
86973W        W46509  38.899  28.601   5.197
86974W        W46510  20.735  10.253   1.746
86975W        W46511  26.479  30.456  11.028
86976W        W46512  30.602  34.082   1.814
86977W        W46513  15.272  25.097   3.360
86978W        W46514  33.545  43.281  13.018
86979W        W46515  14.296  39.390   3.752
86980W        W46516   0.770  10.783   3.256
86981W        W46517  32.476  17.117  10.637
86982W        W46518  40.501  34.585  13.518
86983W        W46519  10.704   4.760   5.785
86984W        W46520   3.768  14.732   2.358
86985W        W46521   4.437  33.108  13.440
86986W        W46522  17.192  27.144  14.366
86987W        W46523  12.296  33.617   4.252
86988W        W46524   9.840  28.649  14.765
86989W        W46525   7.239  26.141   9.522
86990W        W46526   6.346  20.622  11.022
86991W        W46527   4.716  14.302   2.356
86992W        W46528  39.416  42.509   3.774
86993W        W46529  38.526  40.964  14.902
86994W        W46530  33.924  14.249  13.794
86995W        W46531  28.126  43.458  14.999
86996W        W46532  19.200  13.324   2.756
86997W        W46533  17.254  11.678  10.040
86998W        W46534  38.483  25.552  14.477
86999W        W46535  29.512  28.645   4.345
87000W        W46536  21.241  21.621  11.020
87001W        W46537  36.412  13.769  12.072
87002W        W46538   1.479  20.206  13.809
87003W        W46539   3.385  38.865  13.015
87004W        W46540  10.740  37.459   0.806
87005W        W46541   1.328  43.969  13.049
87006W        W46542  33.509  12.259  11.549
87007W        W46543  20.526  38.543   3.753
87008W        W46544  38.489  12.775  11.036
87009W        W46545   1.934  38.894   3.785
87010W        W46546   3.250  39.847   1.784
87011W        W46547  30.481   1.753   1.867
87012W        W46548  15.809  32.406   1.318
87013W        W46549   2.280  26.990  13.914
87014W        W46550  21.207  33.119   1.319
87015W        W46551  20.114  35.380   4.342
87016W        W46552  31.074  37.546   5.316
87017W        W46553  31.595   6.204  14.454
87018W        W46554   2.358  34.980   5.088
87019W        W46555  36.028  37.839  10.919
87020W        W46556  40.506   8.886   4.779
87021W        W46557  22.725  13.739  10.516
87022W        W46558  26.643  21.619   2.680
87023W        W46559   9.299   6.695   4.601
87024W        W46560  16.680  27.094   4.598
87025W        W46561  35.082  21.637  14.486
87026W        W46562  13.302   2.381   2.198
87027W        W46563  30.485  12.826   2.363
87028W        W46564  41.904  25.586  12.953
87029W        W46565   5.343  37.019  12.382
87030W        W46566  13.138  27.540  14.452
87031W        W46567  31.639   1.248  11.085
87032W        W46568  43.881  29.955  11.553
87033W        W46569  39.335  34.590  14.489
87034W        W46570   8.799  17.231   0.863
87035W        W46571  21.528  26.141  11.373
87036W        W46572  36.450  40.357   1.695
87037W        W46573  29.649   9.335   3.378
87038W        W46574  40.900   2.794   2.385
87039W        W46575  13.138  22.138   3.320
87040W        W46576  27.134  36.385   2.313
87041W        W46577  10.170  22.713   0.730
87042W        W46578  30.511  10.321   3.168
87043W        W46579  26.057  42.336  10.586
87044W        W46580   4.769   8.348   1.873
87045W        W46581  39.924  36.909  14.292
87046W        W46582  35.983  18.284  11.444
87047W        W46583  33.122   9.872   4.190
87048W        W46584  10.727  17.622   1.307
87049W        W46585  14.713   1.878   1.862
87050W        W46586   5.701  27.477  10.504
87051W        W46587  23.685  11.839   3.686
87052W        W46588  11.784  24.553   0.858
87053W        W46589  19.763  37.360   3.221
87054W        W46590  14.684  21.141  10.548
87055W        W46591  14.203   6.789   9.495
87056W        W46592  40.971  23.235  12.419
87057W        W46593  17.264   4.214   2.765
87058W        W46594  27.564  12.294   0.805
87059W        W46595   4.849  41.797   1.843
87060W        W46596   2.469  28.144  10.114
87061W        W46597  30.050   2.293  11.416
87062W        W46598   8.692  10.768   2.700
87063W        W46599   5.288   1.825  11.000
87064W        W46600   8.203  39.537   4.708
87065W        W46601  28.064  33.409   4.599
87066W        W46602  38.036  33.925   4.355
87067W        W46603  31.083  42.309   1.415
87068W        W46604   7.276   6.195  14.882
87069W        W46605  42.860  18.145  10.491
87070W        W46606  24.133  26.114   1.696
87071W        W46607  10.823  35.029  10.088
87072W        W46608  16.288  39.940  12.416
87073W        W46609  14.167  36.089  12.399
87074W        W46610   5.880  13.729  10.948
87075W        W46611  35.361   0.809   1.745
87076W        W46612  29.026   8.345   3.654
87077W        W46613  35.885  13.189  14.348
87078W        W46614  27.098  20.561   0.286
87079W        W46615  29.921  19.702   2.757
87080W        W46616  12.724   1.378   0.922
87081W        W46617  23.169  13.695  13.844
87082W        W46618   1.312   4.927   1.885
87083W        W46619  36.907   9.797  11.607
87084W        W46620  38.457  22.034   1.309
87085W        W46621  30.588  29.041  13.395
87086W        W46622  33.998  14.605   0.368
87087W        W46623  38.538   7.854   0.889
87088W        W46624   8.676   7.698   0.399
87089W        W46625  35.374  27.602  11.984
87090W        W46626  32.995  30.620   4.718
87091W        W46627  19.563  25.053  11.407
87092W        W46628  13.612  22.565   2.886
87093W        W46629  10.838  39.499  11.570
87094W        W46630  41.365  17.777  11.015
87095W        W46631  43.982  40.861  13.899
87096W        W46632  34.063  13.747   0.427
87097W        W46633  36.044  13.670   3.162
87098W        W46634  24.978  39.477  12.536
87099W        W46635  28.152  21.200  13.807
87100W        W46636   2.830  34.076  14.471
87101W        W46637   3.753  28.069  14.940
87102W        W46638  27.473  20.765  14.906
87103W        W46639  27.143  14.719  11.067
87104W        W46640   8.759  11.249  10.009
87105W        W46641   6.815  18.264  14.277
87106W        W46642   0.317   1.959   4.786
87107W        W46643  27.961  40.956   1.825
87108W        W46644  29.171  17.243  14.867
87109W        W46645   9.800  29.649   0.301
87110W        W46646  33.596  20.093  11.586
87111W        W46647  14.731  42.297  12.931
87112W        W46648  38.544  42.390  13.031
87113W        W46649  43.966  34.920  11.042
87114W        W46650  39.899  43.410  13.490
87115W        W46651  30.157  29.559   0.296
87116W        W46652   2.378  29.141   3.698
87117W        W46653  41.495  41.497   3.862
87118W        W46654   9.180  29.065   2.333
87119W        W46655  18.239  38.830   1.930
87120W        W46656  36.515  13.683   0.281
87121W        W46657  17.637   7.863   2.385
87122W        W46658  41.535  44.961   2.366
87123W        W46659  31.409  22.236  12.469
87124W        W46660   7.172   8.696  11.941
87125W        W46661  44.845  17.221  13.911
87126W        W46662  37.496  44.797  13.542
87127W        W46663   1.246  39.439   0.404
87128W        W46664  35.546  40.839  11.981
87129W        W46665  21.708   9.781   0.460
87130W        W46666  28.028  24.723   2.214
87131W        W46667  13.185  17.239  14.400
87132W        W46668  16.636  12.664   0.399
87133W        W46669   8.212  25.529  12.556
87134W        W46670   9.842  14.135   0.281
87135W        W46671   4.264  28.637   3.665
87136W        W46672   3.367  29.170   2.203
87137W        W46673  30.640  17.778   4.165
87138W        W46674  31.015  37.985   3.153
87139W        W46675  40.319  44.425   2.687
87140W        W46676  13.334  23.049  13.399
87141W        W46677  34.102  29.040  14.906
87142W        W46678  22.636  15.307   5.300
87143W        W46679  43.863  15.116   2.355
87144W        W46680  36.401  21.103  12.571
87145W        W46681  17.630  21.218  13.876
87146W        W46682  21.215  26.462  11.106
87147W        W46683  23.723   8.777  12.497
87148W        W46684   7.385  39.539   3.294
87149W        W46685  14.607  19.077  12.503
87150W        W46686  36.014  39.033   0.279
87151W        W46687  23.091  21.076  13.420
87152W        W46688  32.614  36.007  10.888
87153W        W46689  42.784  37.450  11.396
87154W        W46690  11.644  22.556   1.787
87155W        W46691  14.205  43.386   4.319
87156W        W46692  16.571  11.201   0.369
87157W        W46693   8.774  28.615  11.008
87158W        W46694  43.346  41.471   1.411
87159W        W46695   1.447  29.544  12.516
87160W        W46696  20.713  42.983   1.315
87161W        W46697  28.503  41.944  11.421
87162W        W46698  34.453  13.214   0.399
87163W        W46699  12.310  28.067  13.400
87164W        W46700   9.325   2.732  14.826
87165W        W46701   0.391  32.922  14.344
87166W        W46702  28.073   7.276   3.191
87167W        W46703  30.978  12.210  14.410
87168W        W46704   1.403  37.528   3.806
87169W        W46705   6.332  11.865   2.398
87170W        W46706  38.875  44.835  11.609
87171W        W46707  14.125  27.497  10.572
87172W        W46708  16.656   2.895   4.282
87173W        W46709  21.512  25.084   2.235
87174W        W46710  11.169   1.821  14.909
87175W        W46711  13.782  17.791   4.784
87176W        W46712  33.457  44.782  13.848
87177W        W46713   3.414  37.572   0.246
87178W        W46714  29.512   4.380   3.324
87179W        W46715  21.537  32.074  10.562
87180W        W46716  13.209  44.005  12.375
87181W        W46717  35.577   2.733  12.455
87182W        W46718  21.196  15.800  14.917
87183W        W46719  10.170   2.366   3.634
87184W        W46720  13.200  44.852   2.387
87185W        W46721  34.874  14.329   5.226
87186W        W46722  35.908  24.677  10.896
87187W        W46723  33.012  12.638  14.388
87188W        W46724  19.715   7.722  13.857
87189W        W46725  44.271  24.600   3.338
87190W        W46726  13.243   5.749   0.753
87191W        W46727  42.953  36.079  11.415
87192W        W46728  27.541  41.877   1.381
87193W        W46729   0.851   8.343  12.980
87194W        W46730  41.022  31.905   1.695
87195W        W46731   7.911  43.307   3.288
87196W        W46732  39.868  30.089   2.668
87197W        W46733  28.950   7.192  10.912
87198W        W46734  26.035  17.592   0.853
87199W        W46735  21.219  42.511  12.967
87200W        W46736  29.082   3.299  12.992
87201W        W46737  27.528   8.160   0.401
87202W        W46738   3.884   9.265  11.053
87203W        W46739  43.850   3.820  10.623
87204W        W46740   8.690   7.855   2.867
87205W        W46741  38.025  23.559  10.897
87206W        W46742  24.674  17.072  14.962
87207W        W46743   8.364  15.315  12.988
87208W        W46744  19.780   6.860  13.548
87209W        W46745  32.570  16.741  12.527
87210W        W46746  31.559   7.346  13.544
87211W        W46747  31.606  42.381  10.447
87212W        W46748  35.457  28.104  13.014
87213W        W46749   5.734  27.588   3.802
87214W        W46750  35.977  15.127  13.893
87215W        W46751  40.478   9.178   1.741
87216W        W46752  37.918  38.516   2.800
87217W        W46753  27.147  42.014  10.997
87218W        W46754   8.732  36.980   1.445
87219W        W46755   5.722   1.806  13.499
87220W        W46756  10.154  13.209   2.347
87221W        W46757  36.526  27.621   0.761
87222W        W46758   6.839  37.909   0.965
87223W        W46759   4.823  17.599   1.728
87224W        W46760  37.836  17.148  13.796
87225W        W46761   0.436   5.865   3.664
87226W        W46762   2.373  18.608  14.342
87227W        W46763  13.626  26.199   1.824
87228W        W46764  40.505   8.732  10.966
87229W        W46765  41.961  24.600  12.916
87230W        W46766   6.909  39.905   1.427
87231W        W46767  44.997   4.779   3.656
87232W        W46768  34.606  28.933   2.255
87233W        W46769  37.368  38.392   2.889
87234W        W46770  19.751  44.973   4.166
87235W        W46771  13.262   0.377  13.465
87236W        W46772  43.513  16.209  14.417
87237W        W46773  28.948   1.369   1.246
87238W        W46774  19.776   4.268  14.359
87239W        W46775  29.000  41.979   2.314
87240W        W46776   7.381  30.434   1.294
87241W        W46777   6.331  25.070   3.293
87242W        W46778  11.364  16.778   2.248
87243W        W46779  16.661  42.974  13.988
87244W        W46780  40.341  18.685  11.881
87245W        W46781  32.467  21.690  10.507
87246W        W46782  14.305   8.785  11.421
87247W        W46783  18.734  28.054   1.382
87248W        W46784  37.553  31.899  11.925
87249W        W46785  16.088   4.725   1.369
87250W        W46786  20.250  24.654   0.425
87251W        W46787  32.894  14.095  10.570
87252W        W46788  42.784  28.071  14.845
87253W        W46789  44.333  41.841  11.009
87254W        W46790  27.037   1.288  13.379
87255W        W46791   4.800  44.291   2.297
87256W        W46792  26.465  24.058  14.423
87257W        W46793  15.217   8.371   2.259
87258W        W46794   9.359  34.884   3.732
87259W        W46795  15.308  18.073  12.541
87260W        W46796  30.434  17.230  11.419
87261W        W46797  39.830  30.916  11.425
87262W        W46798  32.886  27.956   9.955
87263W        W46799   6.260  39.436   4.719
87264W        W46800   9.769   2.411  13.440
87265W        W46801  17.731   3.873  11.879
87266W        W46802  10.246  13.294   3.867
87267W        W46803  42.355   9.204   2.374
87268W        W46804  42.303  34.411  12.921
87269W        W46805  37.359  23.069  11.937
87270W        W46806  18.651  26.118  11.581
87271W        W46807  35.526   8.857   4.835
87272W        W46808  21.152   4.740   5.686
87273W        W46809  11.813  20.268  10.908
87274W        W46810  31.525   7.873  12.859
87275W        W46811  27.642  32.033  14.841
87276W        W46812  19.082  24.677   0.391
87277W        W46813   5.688   3.248  11.380
87278W        W46814  26.459  26.485  10.008
87279W        W46815  27.640   0.420   3.843
87280W        W46816  11.649   8.271   5.749
87281W        W46817  34.585   3.750   0.947
87282W        W46818  17.252  43.366   2.189
87283W        W46819  13.747  13.666   1.891
87284W        W46820  27.644  10.756   2.687
87285W        W46821   2.420  39.537   3.148
87286W        W46822  26.174   5.784  10.105
87287W        W46823   8.837  37.834  13.397
87288W        W46824  22.077  15.093  11.613
87289W        W46825  23.134   2.330  12.922
87290W        W46826  12.613  38.009   3.805
87291W        W46827  36.409  12.131   1.380
87292W        W46828  18.086   2.935  13.474
87293W        W46829  23.659   3.267   2.832
87294W        W46830  23.526  39.463   2.791
87295W        W46831  23.696  26.996  14.775
87296W        W46832   7.795  35.485  14.343
87297W        W46833  16.133   6.693  10.991
87298W        W46834  25.635  34.003   4.260
87299W        W46835   8.675   8.379  11.011
87300W        W46836  26.607  14.251  14.455
87301W        W46837  38.526  26.459  11.557
87302W        W46838  34.537  16.125   2.726
87303W        W46839  35.976  41.878  14.381
87304W        W46840  23.060  37.000   0.789
87305W        W46841  20.115  42.789   3.666
87306W        W46842   6.779  30.045   0.794
87307W        W46843  33.920  29.657  14.505
87308W        W46844  18.721  14.645  14.773
87309W        W46845  15.199  35.381  14.968
87310W        W46846   9.194  32.048  13.422
87311W        W46847  21.177  38.963  10.424
87312W        W46848   7.305  20.657   4.759
87313W        W46849  21.748  44.817  11.564
87314W        W46850  37.923  44.955  10.597
87315W        W46851   9.310   8.304  10.606
87316W        W46852  30.069   2.925   3.222
87317W        W46853  23.707  44.489   4.796
87318W        W46854  38.345  12.823  11.475
87319W        W46855  39.376  33.965   0.398
87320W        W46856  41.471  31.463   1.790
87321W        W46857  40.810  33.034   3.313
87322W        W46858   1.906  44.438   3.229
87323W        W46859  34.094  22.134  13.315
87324W        W46860  28.635  24.219  11.504
87325W        W46861   2.866  27.091  12.508
87326W        W46862  40.419  31.483   2.386
87327W        W46863  12.733  43.999  11.869
87328W        W46864  33.609  27.472   3.753
87329W        W46865  29.476  44.948   2.700
87330W        W46866  21.712  31.590  12.358
87331W        W46867  20.091  20.685   0.946
87332W        W46868  20.248  16.096  14.899
87333W        W46869  12.276  43.992  12.852
87334W        W46870  24.020  23.052  11.099
87335W        W46871   2.931   0.870   0.358
87336W        W46872   4.876  11.800   0.467
87337W        W46873   8.855   9.673   1.745
87338W        W46874   5.433   5.857  11.088
87339W        W46875  36.923   8.244  10.918
87340W        W46876   1.775  13.265  11.045
87341W        W46877  13.743  27.522   3.284
87342W        W46878  12.731  42.381   1.359
87343W        W46879  12.355  14.758  10.958
87344W        W46880  34.611  12.741   4.669
87345W        W46881  17.272  38.444   2.664
87346W        W46882  11.332  22.605  14.777
87347W        W46883   2.796  25.523  14.801
87348W        W46884  35.052  43.296   4.672
87349W        W46885  32.620  22.677   5.208
87350W        W46886  14.107  37.361   1.231
87351W        W46887  31.462  20.124   4.189
87352W        W46888   0.449  10.714   3.716
87353W        W46889  43.376  30.569   4.163
87354W        W46890  10.867  13.626  11.858
87355W        W46891  33.484   7.315  11.113
87356W        W46892  11.862  37.530   3.380
87357W        W46893  37.949  33.400   1.878
87358W        W46894  38.353  42.920  11.867
87359W        W46895  14.253  17.254   5.121
87360W        W46896  24.680  26.492   2.388
87361W        W46897   7.776  12.180   1.268
87362W        W46898  22.708  10.315   4.615
87363W        W46899   7.272  25.015   3.288
87364W        W46900   5.282   0.798   3.190
87365W        W46901  13.127  23.042  14.455
87366W        W46902   8.296  42.497  11.128
87367W        W46903   6.903  32.565  13.375
87368W        W46904  26.526  43.838  12.847
87369W        W46905  19.687  36.053   0.872
87370W        W46906  43.005  30.946   3.281
87371W        W46907  13.825  37.412   2.841
87372W        W46908  34.384  33.454  12.074
87373W        W46909  33.031  28.450   2.396
87374W        W46910  24.550   3.398   4.634
87375W        W46911  33.605   9.273   2.387
87376W        W46912  38.537  29.558   3.781
87377W        W46913  14.723   8.866   4.627
87378W        W46914  18.747   8.751   2.684
87379W        W46915   5.226  44.769   1.262
87380W        W46916  22.055  38.884   5.229
87381W        W46917  19.698   5.238   1.910
87382W        W46918  33.990   9.675   4.827
87383W        W46919  13.168   4.795  14.829
87384W        W46920  44.753  15.141  11.493
87385W        W46921  20.173  34.530  11.013
87386W        W46922  35.059  28.944  12.975
87387W        W46923   1.866  35.034  12.858
87388W        W46924  13.703  11.693   3.826
87389W        W46925  38.471  34.926   2.688
87390W        W46926   0.926  26.000  12.459
87391W        W46927  31.644  23.210  12.356
87392W        W46928  29.052   6.291  14.504
87393W        W46929  28.605  20.214  13.012
87394W        W46930  10.265  14.768  14.934
87395W        W46931   9.778  26.473   0.768
87396W        W46932  27.567  28.572   2.384
87397W        W46933  33.598   4.700   1.238
87398W        W46934   6.213   2.931   4.699
87399W        W46935  22.136  32.057  12.921
87400W        W46936  18.650  35.419   3.631
87401W        W46937  23.590   9.874  13.863
87402W        W46938  20.178  22.032  14.477
87403W        W46939  31.565  20.689   1.343
87404W        W46940  32.396  22.189   4.246
87405W        W46941  15.808  37.492   2.759
87406W        W46942  10.764  41.534   0.912
87407W        W46943  14.748  21.058   0.242
87408W        W46944  20.068   3.765   2.766
87409W        W46945   8.752  21.658  11.894
87410W        W46946  20.110  38.365   1.285
87411W        W46947  12.138  30.476  10.937
87412W        W46948  33.431  22.552  14.431
87413W        W46949   7.344  33.883   4.172
87414W        W46950  33.094  16.227  11.539
87415W        W46951  23.559  35.543   1.818
87416W        W46952   4.829  40.458  14.850
87417W        W46953  33.548  30.015  10.448
87418W        W46954   1.760  24.976  13.004
87419W        W46955   8.812  44.457  11.959
87420W        W46956  18.150  23.133   3.839
87421W        W46957  29.058  33.445   3.744
87422W        W46958  16.252  33.546   1.404
87423W        W46959   2.735   8.791   0.404
87424W        W46960   2.942  36.863   3.654
87425W        W46961  23.004  24.690  10.964
87426W        W46962  19.539  18.736  10.576
87427W        W46963   6.676  12.671   1.828
87428W        W46964  34.120  16.614  13.448
87429W        W46965   7.846  39.415   1.760
87430W        W46966  15.117  17.558  14.339
87431W        W46967   4.850  19.533   3.701
87432W        W46968   5.333  39.336   3.832
87433W        W46969  17.304  34.416   2.406
87434W        W46970  33.588  28.663  14.363
87435W        W46971  10.760   5.367   0.260
87436W        W46972  10.723   9.296  10.889
87437W        W46973  44.981  15.237  14.308
87438W        W46974  10.827   5.811   1.826
87439W        W46975  44.851  29.440   1.228
87440W        W46976   2.964  30.444  11.935
87441W        W46977  20.592  11.653   1.367
87442W        W46978  41.445  18.726  14.026
87443W        W46979  24.162  39.991   2.732
87444W        W46980  11.319  31.504   3.763
87445W        W46981  42.986  28.998   0.839
87446W        W46982   9.809  17.143  10.988
87447W        W46983  31.624  30.965   1.315
87448W        W46984  38.830  34.909  14.917
87449W        W46985   9.841  36.066   2.804
87450W        W46986  19.541   4.280   1.713
87451W        W46987  25.132   3.230   2.378
87452W        W46988  13.789  38.443   1.432
87453W        W46989   0.808  39.994   4.169
87454W        W46990  19.117  29.630   2.196
87455W        W46991   4.889  40.029   3.260
87456W        W46992  23.597  26.502  11.921
87457W        W46993   8.802   6.327   4.176
87458W        W46994  26.522   4.368  13.990
87459W        W46995  10.842  31.955   3.267
87460W        W46996  10.768   9.726   0.831
87461W        W46997  22.202   0.418   3.163
87462W        W46998  31.589  27.130  13.427
87463W        W46999  22.667  33.440  13.540
87464W        W47000  28.570  14.653   4.340
87465W        W47001  20.590  21.213   2.672
87466W        W47002  19.127  33.988  10.626
87467W        W47003  11.858  35.515  12.411
87468W        W47004   6.849  19.559   1.842
87469W        W47005  35.588   1.310  13.462
87470W        W47006  38.060   9.810  13.324
87471W        W47007  41.889  32.431  14.972
87472W        W47008  17.636   8.749  11.943
87473W        W47009  11.787  30.141   3.801
87474W        W47010   1.827   4.908   3.692
87475W        W47011  39.823  36.579   4.809
87476W        W47012  34.932  42.432   3.745
87477W        W47013  22.639  16.283   1.378
87478W        W47014  35.853  41.898   0.321
87479W        W47015  17.184  31.508   1.342
87480W        W47016   7.356  38.964  11.521
87481W        W47017  24.984  43.446  13.313
87482W        W47018  34.979  28.162  13.332
87483W        W47019   2.378  34.105   2.259
87484W        W47020   5.876  11.197  13.025
87485W        W47021   8.367   9.231   3.162
87486W        W47022  17.779   8.793   2.886
87487W        W47023  33.092  26.530   2.288
87488W        W47024  43.423  22.746  10.508
87489W        W47025   6.851  29.539   0.404
87490W        W47026  21.725   0.965  14.928
87491W        W47027  28.649  12.759  13.045
87492W        W47028  35.428  35.889  11.389
87493W        W47029  22.068  15.271  12.405
87494W        W47030  18.249  37.424   3.729
87495W        W47031  42.029  35.952  12.046
87496W        W47032  40.355  38.398   0.374
87497W        W47033  32.484  42.493   4.783
87498W        W47034  23.674   7.766  10.933
87499W        W47035  34.105  12.249  14.961
87500W        W47036  17.159  17.179  12.413
87501W        W47037  35.502  42.343   0.892
87502W        W47038  38.914  27.447  13.316
87503W        W47039  17.636   6.333  10.888
87504W        W47040  33.027  23.985  12.536
87505W        W47041  20.759  40.030  11.064
87506W        W47042  32.634  24.184  14.031
87507W        W47043   1.951  15.676   9.930
87508W        W47044  25.475  16.285   0.350
87509W        W47045  23.172  14.176   0.277
87510W        W47046  35.392  10.155   2.415
87511W        W47047  17.634   5.386  14.773
87512W        W47048  28.512  28.680  14.908
87513W        W47049  16.710  39.374   2.734
87514W        W47050  20.551  16.639  10.532
87515W        W47051   9.199  35.869  11.071
87516W        W47052  37.909   6.373   0.853
87517W        W47053  34.550  42.955   1.739
87518W        W47054  10.350  33.613   4.192
87519W        W47055   0.890  41.387  13.028
87520W        W47056   0.934  37.346  13.817
87521W        W47057   7.222  37.573   3.260
87522W        W47058  12.635  42.428   3.751
87523W        W47059  33.941  13.136   0.393
87524W        W47060  25.652  22.614  12.040
87525W        W47061  38.073   6.746   0.383
87526W        W47062  42.879  41.018  10.997
87527W        W47063   1.368  24.501   4.132
87528W        W47064   6.188  12.691  12.373
87529W        W47065  44.859  18.082   2.778
87530W        W47066  10.728  15.102   2.321
87531W        W47067  19.213  15.784   4.123
87532W        W47068  16.579  27.023   0.376
87533W        W47069  43.383  39.866   1.812
87534W        W47070   6.268  11.733  10.568
87535W        W47071  27.585  10.720  10.453
87536W        W47072  11.771  31.139   0.246
87537W        W47073   5.768  33.417   0.917
87538W        W47074   8.766  16.296   2.179
87539W        W47075   7.278  41.510  10.630
87540W        W47076  43.470   6.354  10.437
87541W        W47077  43.809  39.809  11.972
87542W        W47078  37.841  28.048   2.743
87543W        W47079   6.770  31.501   3.152
87544W        W47080  28.977  39.383   1.811
87545W        W47081   0.866   0.820   5.312
87546W        W47082  14.709  32.069   4.146
87547W        W47083  15.253   6.922   2.662
87548W        W47084   0.890   0.857  13.353
87549W        W47085  33.105   5.346  11.898
87550W        W47086  32.502  28.031   2.210
87551W        W47087  34.059  13.248  12.372
87552W        W47088   5.808  29.134  13.844
87553W        W47089  42.376  32.103  14.491
87554W        W47090  13.157   3.832   2.280
87555W        W47091  30.447  25.592   1.338
87556W        W47092  34.493   6.757  12.943
87557W        W47093  19.576  44.476   4.647
87558W        W47094  13.615  39.979  12.988
87559W        W47095  18.630   5.400   4.233
87560W        W47096   3.913  32.940  13.453
87561W        W47097  21.133  27.056   2.389
87562W        W47098  35.424  26.029   3.635
87563W        W47099   0.805  30.486  11.861
87564W        W47100  33.107  23.189  14.778
87565W        W47101  22.043  38.904  13.534
87566W        W47102  28.678  17.682  12.461
87567W        W47103  32.987  18.178   2.304
87568W        W47104  23.017  17.657   3.854
87569W        W47105   6.393  41.318  13.452
87570W        W47106  33.549  22.562  11.543
87571W        W47107  41.791  39.860  10.464
87572W        W47108  15.684  32.980   1.322
87573W        W47109  41.377  32.398   2.353
87574W        W47110  17.099  31.090   0.479
87575W        W47111  41.421  25.533  12.036
87576W        W47112  17.588  36.871  13.967
87577W        W47113  23.527   7.713  14.465
87578W        W47114   3.894   7.300   5.095
87579W        W47115  36.882   0.742   4.128
87580W        W47116   2.922  12.274  14.388
87581W        W47117   4.928  13.664  10.591
87582W        W47118  34.909  15.256  12.539
87583W        W47119  37.978  39.339  13.001
87584W        W47120  17.097  39.004   1.696
87585W        W47121  41.479  10.145   1.219
87586W        W47122  23.995   6.863  14.022
87587W        W47123  39.063  26.685  11.458
87588W        W47124  19.133   1.401  13.479
87589W        W47125   6.320   3.424   5.155
87590W        W47126  19.041  27.664   0.313
87591W        W47127   7.273  35.873   1.868
87592W        W47128   5.703  15.288  13.534
87593W        W47129  31.123  16.206  12.573
87594W        W47130  28.115   6.718  13.854
87595W        W47131  28.993  29.631   1.869
87596W        W47132   7.762  20.248   4.750
87597W        W47133  34.397  37.466  13.807
87598W        W47134  24.223  30.453   5.260
87599W        W47135  31.048  20.737  13.869
87600W        W47136  44.471  30.948   1.225
87601W        W47137   7.307  22.067   1.760
87602W        W47138  32.438  17.588   0.778
87603W        W47139  36.415  35.920  11.095
87604W        W47140  26.566  14.740   2.305
87605W        W47141  30.021  40.900   4.699
87606W        W47142  36.974  16.263   0.849
87607W        W47143  39.812  11.222   0.343
87608W        W47144   5.226  30.028   3.226
87609W        W47145  43.920  24.648   3.743
87610W        W47146  29.946  35.059  11.449
87611W        W47147  31.490  42.009   1.351
87612W        W47148  10.238  32.129   2.289
87613W        W47149  13.146  13.667   0.800
87614W        W47150  25.023  19.147   1.743
87615W        W47151  23.233  19.738   0.367
87616W        W47152   1.932   3.928  12.421
87617W        W47153  38.479  18.203  10.605
87618W        W47154  24.089  42.469   1.441
87619W        W47155   9.391   0.878   0.304
87620W        W47156  12.856   3.428  14.994
87621W        W47157  36.936  32.131  11.870
87622W        W47158  27.987  18.649   0.294
87623W        W47159  33.619  42.852   0.905
87624W        W47160  19.564   3.894   0.932
87625W        W47161  31.047   4.894   3.756
87626W        W47162  38.860  44.820  13.928
87627W        W47163   1.846  21.751  14.347
87628W        W47164  11.331  25.016   4.267
87629W        W47165  33.104  17.252   4.771
87630W        W47166  30.984  34.897  12.444
87631W        W47167  26.571   0.251  12.089
87632W        W47168  29.618  11.277   0.813
87633W        W47169  25.553  14.730  14.789
87634W        W47170  37.053  15.164  10.612
87635W        W47171  17.770   2.828   3.149
87636W        W47172  27.155  17.149  11.856
87637W        W47173   3.297  20.230   5.095
87638W        W47174  16.710  35.021  11.545
87639W        W47175  14.628   3.758  13.850
87640W        W47176  12.627   0.798  12.081
87641W        W47177   2.235  41.409  12.844
87642W        W47178   5.202   6.851   3.239
87643W        W47179  21.586  39.936  14.798
87644W        W47180   2.280  13.641  12.535
87645W        W47181  24.580  13.781   3.786
87646W        W47182  26.096   0.914  11.971
87647W        W47183  13.638  44.873  11.899
87648W        W47184  28.041  14.697  10.576
87649W        W47185  21.263  21.131   3.213
87650W        W47186  25.631  33.480  11.449
87651W        W47187  19.633  14.235   0.410
87652W        W47188  22.531   1.969   3.206
87653W        W47189  31.648  18.265   1.883
87654W        W47190  34.956  40.390   1.915
87655W        W47191  27.496  38.437   4.279
87656W        W47192   2.453   1.901  14.503
87657W        W47193   3.872  17.219   4.345
87658W        W47194  11.232  13.192   3.863
87659W        W47195  15.620  36.474   2.835
87660W        W47196   8.723  24.013   4.804
87661W        W47197  19.274  18.238   1.270
87662W        W47198  41.810  40.407  11.542
87663W        W47199  32.933   0.429   0.367
87664W        W47200  44.308  10.276  10.010
87665W        W47201   6.816  39.845   0.903
87666W        W47202  37.349  29.504   3.245
87667W        W47203  16.271  11.750   1.861
87668W        W47204  25.154  13.618  11.593
87669W        W47205  38.445  20.537  12.577
87670W        W47206  10.866  14.798   1.726
87671W        W47207  43.376  16.680  11.426
87672W        W47208  39.479  18.233  11.929
87673W        W47209  16.577  14.626   0.470
87674W        W47210   8.722   6.365  11.022
87675W        W47211  10.786  38.503   1.264
87676W        W47212   1.764   3.374  12.419
87677W        W47213  14.173  24.172   1.286
87678W        W47214  15.181  29.475  14.827
87679W        W47215  44.465   4.253   4.259
87680W        W47216  30.526   3.280   0.282
87681W        W47217  23.555  26.126   0.274
87682W        W47218  15.636  26.523  14.958
87683W        W47219  24.062  16.752   3.378
87684W        W47220  39.933  26.067   0.742
87685W        W47221  33.501  40.044  14.390
87686W        W47222  13.128  12.638   3.260
87687W        W47223  44.854  41.493  14.331
87688W        W47224  19.192  10.688  11.894
87689W        W47225  38.435  14.302  13.817
87690W        W47226  13.301  27.140  11.052
87691W        W47227  38.483   3.315   2.713
87692W        W47228  24.563  14.746  13.413
87693W        W47229   4.871  38.855   1.820
87694W        W47230   7.275  19.687  12.918
87695W        W47231  12.756  17.586   3.380
87696W        W47232  30.045  16.146  12.418
87697W        W47233  37.010  43.780  14.760
87698W        W47234  28.069   9.276   4.707
87699W        W47235  28.996   9.193  11.571
87700W        W47236  43.276  18.624   4.256
87701W        W47237  32.020  34.880   5.201
87702W        W47238  19.251  20.709  11.121
87703W        W47239   4.351   7.202  14.326
87704W        W47240  13.146  39.879  13.063
87705W        W47241  42.030   4.407   1.378
87706W        W47242  32.044   3.942  11.473
87707W        W47243   7.248  14.284  12.548
87708W        W47244   3.306   7.171   2.241
87709W        W47245  28.944  32.393  11.034
87710W        W47246   5.795  36.085  12.850
87711W        W47247   7.192  18.784   0.808
87712W        W47248  30.028  42.452  13.013
87713W        W47249  14.297  17.178   1.828
87714W        W47250  19.565   8.806  13.545
87715W        W47251  42.341  16.615  14.281
87716W        W47252  23.208  20.539  14.858
87717W        W47253   8.880  21.204   1.707
87718W        W47254  32.936  44.272   1.391
87719W        W47255  21.221  24.229   0.360
87720W        W47256  41.006  24.702  10.422
87721W        W47257  38.915  24.601  11.538
87722W        W47258   3.296  17.268   0.288
87723W        W47259  31.121  37.948   2.742
87724W        W47260  31.908   8.750  14.468
87725W        W47261  35.047   1.767  12.903
87726W        W47262   0.874  27.571   1.827
87727W        W47263  32.411  31.444   2.720
87728W        W47264  21.104  13.675   3.637
87729W        W47265   5.917  21.189   4.313
87730W        W47266   4.438  15.284   1.790
87731W        W47267   5.200   1.366   1.916
87732W        W47268   5.864  35.044  11.558
87733W        W47269  24.191  43.967   3.373
87734W        W47270  14.593   2.816  10.930
87735W        W47271  43.923  14.735   0.961
87736W        W47272  27.612  10.875  13.320
87737W        W47273  31.956  10.380  12.054
87738W        W47274   7.276  25.584   3.320
87739W        W47275  14.662   3.890  11.476
87740W        W47276   0.292   4.825   2.180
87741W        W47277  29.568   7.396  12.461
87742W        W47278  14.800   8.382  11.085
87743W        W47279  21.109   2.932   3.222
87744W        W47280  23.497  15.694   2.746
87745W        W47281  37.835  22.040  13.865
87746W        W47282  28.477  26.173  12.341
87747W        W47283  41.297  20.094   4.119
87748W        W47284  43.963  44.377   0.760
87749W        W47285  35.929  29.466  13.956
87750W        W47286  11.639  41.039   2.243
87751W        W47287  15.329   2.449  10.938
87752W        W47288  39.963  19.743   3.375
87753W        W47289  41.865  28.655  13.941
87754W        W47290  22.692   9.662   2.281
87755W        W47291  19.284  42.853  11.113
87756W        W47292  27.558  25.051  11.090
87757W        W47293  35.053  35.493  12.554
87758W        W47294  15.785   1.833  11.534
87759W        W47295  19.552  25.712  12.910
87760W        W47296  36.428   3.265  13.042
87761W        W47297  10.362  25.652   4.280
87762W        W47298  17.749  27.541   4.794
87763W        W47299  41.306  42.423  13.023
87764W        W47300  14.329  35.946  13.516
87765W        W47301  22.592  36.095  14.914
87766W        W47302   8.320  43.778   0.954
87767W        W47303  21.615  35.385  10.645
87768W        W47304  44.948   8.297   4.838
87769W        W47305  10.331   0.363   2.723
87770W        W47306  25.061  42.956  14.009
87771W        W47307  32.959  36.858  10.514
87772W        W47308  22.714   4.341   3.181
87773W        W47309  28.983  26.467  12.501
87774W        W47310  26.209  13.728   0.391
87775W        W47311  44.964   8.883  13.823
87776W        W47312  30.101   7.672  12.825
87777W        W47313  36.899  35.870   4.716
87778W        W47314  26.469  30.528  12.362
87779W        W47315  23.723   8.743   4.197
87780W        W47316   9.213  41.851  14.343
87781W        W47317   6.293  22.686  13.839
87782W        W47318   5.378  10.249   0.766
87783W        W47319  31.996  34.392  14.482
87784W        W47320   7.793  37.471  10.138
87785W        W47321   4.310  19.070   0.244
87786W        W47322  41.026  30.435   0.888
87787W        W47323   5.421  16.107  14.981
87788W        W47324  42.011  20.623   4.317
87789W        W47325  19.598  29.131   0.802
87790W        W47326  20.028  39.369   3.682
87791W        W47327   9.237  19.258   4.823
87792W        W47328  29.156  32.425   3.336
87793W        W47329  31.979  30.563  10.472
87794W        W47330   9.251  17.627  13.052
87795W        W47331  21.125   2.771  12.580
87796W        W47332  18.264  14.246  14.965
87797W        W47333  28.486  10.167   0.759
87798W        W47334  10.821   6.302   2.845
87799W        W47335  30.443  23.052   1.889
87800W        W47336   5.715  24.479   4.818
87801W        W47337   4.807  11.803  13.927
87802W        W47338   1.919  22.070  13.987
87803W        W47339  23.531   2.244  12.081
87804W        W47340  23.078  17.677   9.660
87805W        W47341   3.263   8.389  10.898
87806W        W47342  44.337  27.511  14.893
87807W        W47343   8.272  29.662  11.488
87808W        W47344   4.446   9.182  14.767
87809W        W47345  41.408  38.965   0.314
87810W        W47346  37.465  37.975   0.346
87811W        W47347  10.306  35.054  10.984
87812W        W47348  33.561  14.160  14.936
87813W        W47349   7.286  23.699  13.033
87814W        W47350  15.680  36.873  12.885
87815W        W47351  18.127   9.797  13.344
87816W        W47352  13.833   0.857  11.877
87817W        W47353   5.823  28.939   4.322
87818W        W47354  20.667   8.197   3.745
87819W        W47355  16.139  23.192  12.983
87820W        W47356   7.862   8.828  10.026
87821W        W47357  42.328  42.490   4.251
87822W        W47358  17.225  18.061  10.980
87823W        W47359  27.483  40.835  11.123
87824W        W47360  11.240  10.715  10.471
87825W        W47361   1.316  22.140  13.953
87826W        W47362   4.388  17.605  11.579
87827W        W47363  18.778  27.082  13.813
87828W        W47364  11.755   3.804   0.828
87829W        W47365   8.284  29.453   0.273
87830W        W47366  28.599  30.532  11.439
87831W        W47367  43.919  29.560  14.304
87832W        W47368   9.768  20.111   4.243
87833W        W47369  13.738  40.850   3.238
87834W        W47370  17.641   4.937   2.806
87835W        W47371  12.692  14.682  13.345
87836W        W47372  19.664  15.269  10.578
87837W        W47373   6.420  11.130  14.879
87838W        W47374  43.364  17.742  10.425
87839W        W47375  36.558  24.480   1.240
87840W        W47376  13.287  41.441   1.846
87841W        W47377  31.494  17.634  13.876
87842W        W47378  26.695  22.674  14.323
87843W        W47379   6.354   7.332   3.869
87844W        W47380   5.875  35.417   0.751
87845W        W47381  18.634   2.451   5.254
87846W        W47382  17.698  12.688  14.771
87847W        W47383  39.874  30.007   3.171
87848W        W47384   6.255  29.172  13.336
87849W        W47385   9.286  34.413   1.726
87850W        W47386   1.781   7.858   1.342
87851W        W47387  30.062  27.632   0.280
87852W        W47388  33.076  40.384   2.817
87853W        W47389  42.306  25.172  10.470
87854W        W47390  27.565  34.582   2.701
87855W        W47391  20.665  24.711   1.801
87856W        W47392  32.588  19.131   4.685
87857W        W47393  23.211  18.724   3.151
87858W        W47394  42.349  12.656   2.333
87859W        W47395  36.485   6.283   0.370
87860W        W47396  27.152  42.851   5.260
87861W        W47397  44.922  11.235   1.756
87862W        W47398  37.068  31.901  10.426
87863W        W47399  29.576  14.229   3.638
87864W        W47400   2.736  43.791   4.738
87865W        W47401  44.379  32.635  11.447
87866W        W47402  42.894  39.012  11.083
87867W        W47403  12.232   1.742   4.785
87868W        W47404   3.250  11.745   4.301
87869W        W47405   9.825  16.594   4.701
87870W        W47406   6.264  25.109   0.808
87871W        W47407  15.756   4.856   3.271
87872W        W47408  25.529  43.022  12.562
87873W        W47409  44.397  43.855  11.922
87874W        W47410  37.455  21.539  13.368
87875W        W47411  23.113  38.860   0.378
87876W        W47412   2.266  27.003  14.443
87877W        W47413   0.913  42.388  12.978
87878W        W47414   8.761  34.948   3.765
87879W        W47415  35.910  14.724  14.932
87880W        W47416  36.989   2.724   2.395
87881W        W47417  26.118  34.606  12.975
87882W        W47418  33.405   4.220   1.256
87883W        W47419  39.510  25.090  12.504
87884W        W47420  25.032   5.332   3.782
87885W        W47421  34.543  29.065  10.897
87886W        W47422  36.588  40.393  14.312
87887W        W47423  12.718  33.602  10.437
87888W        W47424  34.079  15.318   3.254
87889W        W47425  36.434  10.147   3.179
87890W        W47426  17.734  43.885  11.940
87891W        W47427  41.820  32.096  11.499
87892W        W47428  39.437   3.762   1.731
87893W        W47429  11.739  42.018  13.473
87894W        W47430   0.466   1.745  11.500
87895W        W47431  28.658  11.286  10.561
87896W        W47432   9.676   5.718   4.221
87897W        W47433   2.272  40.990   2.374
87898W        W47434  13.748  28.038   0.816
87899W        W47435  21.605  44.325  10.530
87900W        W47436  17.640  39.061   2.204
87901W        W47437  34.988  39.826   2.694
87902W        W47438  33.021   4.817   3.748
87903W        W47439   5.801  25.963  14.385
87904W        W47440   7.706   5.214  14.280
87905W        W47441  37.075  32.977  12.501
87906W        W47442  13.654  12.690  10.421
87907W        W47443  30.093  43.351   4.279
87908W        W47444  34.518  37.936   3.369
87909W        W47445   1.467  29.467   2.751
87910W        W47446  23.653   1.407  14.463
87911W        W47447  25.097  29.656   3.366
87912W        W47448  35.987   4.767   4.609
87913W        W47449  31.150   6.899  10.985
87914W        W47450   6.215   4.324   0.876
87915W        W47451  18.553  36.484   2.183
87916W        W47452  14.223  37.021   1.786
87917W        W47453  19.745  34.509  13.982
87918W        W47454  13.161   3.806  13.319
87919W        W47455  36.432   5.772  14.955
87920W        W47456  28.051  36.561   4.643
87921W        W47457  30.482  35.037   0.314
87922W        W47458  24.669  44.457  14.011
87923W        W47459   0.917  32.027  14.943
87924W        W47460   1.387  19.685   3.860
87925W        W47461  31.901   9.675   3.201
87926W        W47462  40.908   3.329  13.894
87927W        W47463  17.298   8.226   4.142
87928W        W47464   9.226  41.429  10.467
87929W        W47465  43.993  40.411   1.334
87930W        W47466   8.265  11.213   2.883
87931W        W47467  22.196   2.279  13.956
87932W        W47468   3.940  33.961   2.365
87933W        W47469  29.478  38.551  13.824
87934W        W47470  40.529  12.278   3.659
87935W        W47471  19.142  34.056   0.943
87936W        W47472   4.392  35.598   0.756
87937W        W47473   9.722  27.549   4.114
87938W        W47474   0.420  32.085  12.458
87939W        W47475   7.848  25.489  11.402
87940W        W47476  21.033  33.396   3.801
87941W        W47477   0.980  32.414   3.854
87942W        W47478  42.353  23.078  13.358
87943W        W47479   9.726  33.935   4.721
87944W        W47480  26.559  26.660   0.957
87945W        W47481   7.850  15.207  14.472
87946W        W47482  28.644   4.712   3.327
87947W        W47483  15.253   9.881  11.121
87948W        W47484  27.056  36.417   1.314
87949W        W47485   1.817  20.139   4.243
87950W        W47486  10.791  42.300   3.206
87951W        W47487  22.219  25.538   2.341
87952W        W47488   3.334  38.053  13.803
87953W        W47489  44.393  13.342   5.565
87954W        W47490  31.543  34.974   1.425
87955W        W47491   3.346  16.208   0.360
87956W        W47492  43.843  16.102  13.497
87957W        W47493  18.099  33.467  13.344
87958W        W47494  26.952  43.922   1.281
87959W        W47495  28.939  20.526   0.773
87960W        W47496   6.858  21.717  10.409
87961W        W47497  10.382  15.584  10.962
87962W        W47498  42.977   7.691   5.154
87963W        W47499   2.885  37.421  12.918
87964W        W47500   8.734  15.742  13.796
87965W        W47501  18.249  13.758  13.981
87966W        W47502  10.659   2.782  12.050
87967W        W47503  24.057  12.309  10.995
87968W        W47504  15.660  35.102   1.322
87969W        W47505   5.796  17.767   2.875
87970W        W47506  24.088   0.834   0.253
87971W        W47507  33.417  33.936  12.073
87972W        W47508   6.292   0.325  13.357
87973W        W47509  22.569   3.295   3.862
87974W        W47510  42.822  15.695  12.361
87975W        W47511  10.314   3.766   4.305
87976W        W47512  38.050  25.485   1.397
87977W        W47513  36.440   4.780  14.973
87978W        W47514  15.189  26.056  13.845
87979W        W47515  27.105  38.331   0.942
87980W        W47516  12.233  17.292  12.957
87981W        W47517  42.510  32.118   4.177
87982W        W47518  10.371  10.827   1.856
87983W        W47519  18.177  27.094   0.437
87984W        W47520  33.570  41.423   4.725
87985W        W47521  41.478  43.402   2.257
87986W        W47522  43.368  27.046  11.059
87987W        W47523  32.135  42.012  12.873
87988W        W47524  28.152  44.320  14.927
87989W        W47525  43.864  25.121  12.018
87990W        W47526   5.896  35.006   1.282
87991W        W47527  22.601  21.057   4.277
87992W        W47528  35.945   3.222   3.702
87993W        W47529  25.704  37.500   3.804
87994W        W47530   2.883  21.583  12.830
87995W        W47531  29.006  36.441  11.083
87996W        W47532   6.302  18.645   4.761
87997W        W47533  27.047   9.715  10.640
87998W        W47534  40.521  19.220   2.228
87999W        W47535  15.720   6.786  11.392
88000W        W47536  15.746   7.399  13.951
88001W        W47537   1.375  31.079   2.770
88002W        W47538  11.847  40.475  12.423
88003W        W47539  19.759  20.536  13.453
88004W        W47540  25.171  29.620  10.455
88005W        W47541   6.697  32.577   1.762
88006W        W47542  12.612  20.222  13.308
88007W        W47543  38.069  19.649   2.877
88008W        W47544  28.596  36.998   2.776
88009W        W47545  43.009  20.168  13.791
88010W        W47546  33.464   9.371   4.216
88011W        W47547  42.475   9.655   4.270
88012W        W47548  41.337  25.092  11.029
88013W        W47549  34.913  31.608  10.556
88014W        W47550  30.620   8.726  12.839
88015W        W47551  13.318  44.439  10.069
88016W        W47552  19.773  41.848  14.800
88017W        W47553  40.832   6.827   2.698
88018W        W47554  31.116  30.986   2.849
88019W        W47555  37.072  38.031   4.143
88020W        W47556  38.357  27.105   4.211
88021W        W47557   0.923  12.321  14.335
88022W        W47558  33.920  32.987   4.774
88023W        W47559   7.775  31.927  10.068
88024W        W47560  19.275   3.931   3.254
88025W        W47561  42.404  19.778  14.882
88026W        W47562  26.662  32.061  14.365
88027W        W47563  31.513  41.900  10.999
88028W        W47564  39.910   4.404  12.515
88029W        W47565   5.739  23.662  14.858
88030W        W47566  35.510   4.338  14.976
88031W        W47567  15.814   7.805   3.277
88032W        W47568  24.581  30.611  14.864
88033W        W47569  22.599  27.148  11.096
88034W        W47570   4.930  34.497   4.761
88035W        W47571   3.245  21.574  11.101
88036W        W47572  27.681   3.765  12.943
88037W        W47573  27.093  40.408   1.929
88038W        W47574  26.471  21.196  14.314
88039W        W47575  17.217  17.662   0.904
88040W        W47576   9.310  31.973  14.857
88041W        W47577  23.127   9.790  10.468
88042W        W47578  32.637  16.206  10.613
88043W        W47579  42.365   5.286  14.946
88044W        W47580  37.861   5.736  14.897
88045W        W47581  21.721  43.310  10.612
88046W        W47582  13.657  21.522  10.525
88047W        W47583  25.627   3.368   1.758
88048W        W47584  10.847  11.154   1.253
88049W        W47585  29.002  12.118   4.713
88050W        W47586   9.304  28.040  11.966
88051W        W47587  17.588   0.413  14.385
88052W        W47588  35.945   0.376   0.911
88053W        W47589  29.618   0.487   0.861
88054W        W47590  30.961  28.158  13.895
88055W        W47591  19.749  42.924   1.714
88056W        W47592  39.332  35.075  12.960
88057W        W47593   7.719  21.142   1.386
88058W        W47594  14.793  29.103  10.404
88059W        W47595  16.115   6.363   9.990
88060W        W47596   4.874   7.906   1.872
88061W        W47597  37.401  24.653  12.366
88062W        W47598  31.983  13.637  13.396
88063W        W47599  35.039  25.664   4.837
88064W        W47600  13.269  41.390   4.635
88065W        W47601  41.468   9.804  12.027
88066W        W47602   5.223  18.693  14.009
88067W        W47603  23.039  44.862  11.045
88068W        W47604   2.404  44.923   4.827
88069W        W47605  23.091   1.947   3.847
88070W        W47606  21.131  21.739  14.772
88071W        W47607  17.092  28.000   2.232
88072W        W47608  32.926   2.787  12.475
88073W        W47609  21.660   9.257  13.343
88074W        W47610  20.107   7.891   1.398
88075W        W47611  37.345  14.130  10.986
88076W        W47612  29.165   8.672   0.966
88077W        W47613  44.419  35.551  13.364
88078W        W47614  18.263  36.421  14.878
88079W        W47615  43.344  20.228   1.838
88080W        W47616  11.245   5.871  14.377
88081W        W47617  25.067  14.668  10.487
88082W        W47618  35.954  34.075  13.514
88083W        W47619   1.944  25.699   0.920
88084W        W47620  15.823   9.365   4.127
88085W        W47621  41.436  38.458   2.808
88086W        W47622  26.648  34.594  11.506
88087W        W47623  30.535  36.425  12.975
88088W        W47624  29.990  31.493   0.726
88089W        W47625  21.551  11.835   1.737
88090W        W47626  40.954   7.701   2.691
88091W        W47627   3.745   7.181   2.197
88092W        W47628  14.237  32.973   3.222
88093W        W47629  38.380  25.700  10.926
88094W        W47630  35.541   1.897  14.933
88095W        W47631  44.768  44.306  12.974
88096W        W47632  10.204   1.788   0.923
88097W        W47633   5.423  13.181   1.889
88098W        W47634  38.366   4.700   1.888
88099W        W47635  36.541  35.455   3.683
88100W        W47636  32.018   5.707  14.964
88101W        W47637  19.714   7.749   0.922
88102W        W47638   3.887  11.196   4.621
88103W        W47639   8.845  38.356  14.300
88104W        W47640  23.231  20.616   4.174
88105W        W47641  22.108  36.079  14.419
88106W        W47642  18.283  29.543  13.470
88107W        W47643  38.986  36.394   0.247
88108W        W47644  37.880  21.180   4.145
88109W        W47645   2.279  19.166   2.717
88110W        W47646  22.196  13.263   3.717
88111W        W47647  12.687  16.783  11.012
88112W        W47648  24.993   1.956   1.368
88113W        W47649  22.072  35.373   2.834
88114W        W47650   4.751   3.922  11.968
88115W        W47651  14.244   7.693   2.751
88116W        W47652  23.542  16.202   3.270
88117W        W47653  11.763  35.983   9.976
88118W        W47654  17.640  23.035  10.015
88119W        W47655  37.009  36.961   4.648
88120W        W47656  35.430  18.765   1.709
88121W        W47657  17.635  24.127  13.040
88122W        W47658  16.316  18.080   4.202
88123W        W47659   1.897  25.489   4.748
88124W        W47660  20.670  26.479  13.058
88125W        W47661   1.952  11.805   0.732
88126W        W47662   9.265  28.040  13.884
88127W        W47663   6.864  24.697   3.318
88128W        W47664  22.517  11.210  13.331
88129W        W47665  24.042  25.118  14.274
88130W        W47666  10.726  31.569   2.355
88131W        W47667  20.042   5.264  11.470
88132W        W47668  28.649  25.702   4.164
88133W        W47669  26.586  10.867   4.222
88134W        W47670  24.212  10.138   0.469
88135W        W47671   6.825  36.857   3.831
88136W        W47672  40.388  11.192  12.902
88137W        W47673   2.432  37.068   2.249
88138W        W47674   2.235  39.855  13.007
88139W        W47675  44.416   1.273  14.824
88140W        W47676  26.620  37.988  13.882
88141W        W47677   3.378  25.974   1.433
88142W        W47678  40.447  35.918   1.229
88143W        W47679  24.594  20.644  12.522
88144W        W47680  10.683  16.629   3.747
88145W        W47681  10.809  17.103   1.783
88146W        W47682  36.558  35.457  11.475
88147W        W47683  15.125  24.111  11.128
88148W        W47684  35.909  28.152  12.422
88149W        W47685   0.376  24.670   2.837
88150W        W47686  26.004   1.315   1.370
88151W        W47687  23.493  16.312   2.211
88152W        W47688  32.123  25.189   2.374
88153W        W47689  41.001  10.878   3.712
88154W        W47690  22.176  34.083   4.262
88155W        W47691  31.039  10.340  11.406
88156W        W47692   1.743  23.517  11.961
88157W        W47693  19.706   2.337  13.823
88158W        W47694   0.926  19.572   4.290
88159W        W47695  30.927   5.793   1.796
88160W        W47696  32.501  41.406  10.907
88161W        W47697  21.227  20.648   0.889
88162W        W47698   1.764  21.548   0.369
88163W        W47699  31.476  27.535   4.193
88164W        W47700  16.278  41.395   1.308
88165W        W47701  41.980  29.077  14.396
88166W        W47702   7.374  18.137  14.028
88167W        W47703  33.108  36.505   4.170
88168W        W47704   3.856  16.150   1.883
88169W        W47705  40.861   0.867  13.383
88170W        W47706  24.048  23.566  10.571
88171W        W47707  29.610  40.875  13.481
88172W        W47708  31.578  27.582   1.326
88173W        W47709  37.557  23.593  10.938
88174W        W47710  29.962  24.490   2.801
88175W        W47711  19.174  35.988   4.696
88176W        W47712  20.254   3.257  12.356
88177W        W47713   7.235  22.596  13.836
88178W        W47714   5.708   4.724  11.032
88179W        W47715   9.825  13.291  12.397
88180W        W47716  15.602  15.168  11.037
88181W        W47717  24.073  37.973  12.463
88182W        W47718   3.327   3.308   2.252
88183W        W47719  37.969  17.780  13.792
88184W        W47720  36.973   7.403   1.792
88185W        W47721   1.288  23.672  14.277
88186W        W47722  15.257  26.642  11.890
88187W        W47723  27.972  42.352   2.785
88188W        W47724  40.377  40.811   2.401
88189W        W47725  13.271  31.505  12.060
88190W        W47726   3.286  19.623  13.036
88191W        W47727  34.959  31.963   3.642
88192W        W47728   1.353  14.121   3.360
88193W        W47729   0.972  30.061   4.171
88194W        W47730  32.989  44.763   3.364
88195W        W47731  15.740   5.411   2.240
88196W        W47732   5.848  33.985   4.262
88197W        W47733  29.979  31.965  12.536
88198W        W47734  44.977   4.360   2.892
88199W        W47735   2.898   0.786   4.230
88200W        W47736  32.566  11.366   2.734
88201W        W47737  31.451  15.115  12.512
88202W        W47738  29.517  10.754  13.346
88203W        W47739  15.170  31.145  13.879
88204W        W47740  28.044  31.487  12.831
88205W        W47741  34.099  31.067  10.892
88206W        W47742   8.314   4.820   3.683
88207W        W47743   9.863  19.183   0.442
88208W        W47744  23.505  20.758   2.674
88209W        W47745  39.837  22.556  13.015
88210W        W47746  39.389  21.223   1.315
88211W        W47747  15.121   5.894  12.923
88212W        W47748  11.260   6.423   0.305
88213W        W47749  19.749  43.372  11.973
88214W        W47750  25.104  33.568  12.946
88215W        W47751  30.498  41.917  12.870
88216W        W47752  29.633   2.282  11.062
88217W        W47753  19.239  25.627  13.312
88218W        W47754  40.865   8.381  13.818
88219W        W47755  26.541   8.715  12.566
88220W        W47756  12.686  17.101  10.469
88221W        W47757  15.743  38.467   1.341
88222W        W47758  42.428  35.099   0.861
88223W        W47759   9.203  27.990  13.368
88224W        W47760  15.806   0.827  14.455
88225W        W47761   9.699  27.193   0.777
88226W        W47762  34.117  44.852   1.266
88227W        W47763  44.442  10.690   3.683
88228W        W47764  14.101  15.823   2.890
88229W        W47765  14.757  19.253   3.248
88230W        W47766   7.304  16.196  13.888
88231W        W47767   6.345  33.989  12.975
88232W        W47768  29.610  36.476  11.407
88233W        W47769  25.032  39.033  12.997
88234W        W47770  35.487  35.513   3.822
88235W        W47771   9.247   6.819   9.977
88236W        W47772  24.045  43.447  12.546
88237W        W47773  41.467  40.939  14.873
88238W        W47774   3.875   8.363   1.239
88239W        W47775   1.864  18.115  12.975
88240W        W47776  18.113   9.308   3.847
88241W        W47777  36.524  38.949   4.141
88242W        W47778  38.352   4.349   1.352
88243W        W47779   0.315   3.294  12.547
88244W        W47780  29.574  28.455   2.410
88245W        W47781   5.210   6.921  11.593
88246W        W47782  22.641  25.212   2.209
88247W        W47783  20.159  44.754   1.709
88248W        W47784   9.745   7.227  12.025
88249W        W47785   4.746  30.075   0.816
88250W        W47786  22.033  42.312   0.353
88251W        W47787  24.723   5.309  14.942
88252W        W47788  10.817  15.125   0.780
88253W        W47789  35.479   2.882  11.986
88254W        W47790  17.714  35.381  13.798
88255W        W47791  29.465  23.675  13.027
88256W        W47792  40.404  31.003  10.409
88257W        W47793   2.414   4.409  10.916
88258W        W47794  43.482  33.026   1.916
88259W        W47795   8.841  32.528  13.514
88260W        W47796  27.173  37.868   1.825
88261W        W47797   7.737  27.076  14.810
88262W        W47798  39.544   6.389  10.121
88263W        W47799  35.411  38.373  10.935
88264W        W47800  33.575  22.131   3.235
88265W        W47801  16.772  20.112   1.328
88266W        W47802  41.366   9.240   4.774
88267W        W47803   5.724  22.575  12.903
88268W        W47804  34.377  44.997   1.249
88269W        W47805  44.259   3.874   3.805
88270W        W47806  33.016  21.631  13.504
88271W        W47807   0.911  44.291   1.213
88272W        W47808   3.947  32.112   0.796
88273W        W47809  13.663  22.698  13.811
88274W        W47810  29.072  23.010   2.271
88275W        W47811  31.507   0.798  14.798
88276W        W47812  18.586  12.335   1.704
88277W        W47813  30.659  44.348   2.275
88278W        W47814   4.360   2.962  10.422
88279W        W47815  36.848  14.175   2.734
88280W        W47816  20.271   0.851   3.362
88281W        W47817  28.657  39.413  13.867
88282W        W47818  13.272   1.359   1.427
88283W        W47819  17.159   8.762   3.838
88284W        W47820  15.619  31.958  13.923
88285W        W47821  12.190  13.240  12.355
88286W        W47822  26.549   5.427  10.531
88287W        W47823  33.890   1.801  13.972
88288W        W47824  28.138  16.123   0.427
88289W        W47825  44.759   0.308  14.875
88290W        W47826  25.123  37.834   2.280
88291W        W47827   6.688   1.237   0.813
88292W        W47828  21.205  18.617  11.097
88293W        W47829  12.260  34.461   0.812
88294W        W47830  23.531  15.665   3.191
88295W        W47831   3.909  24.194   1.211
88296W        W47832  22.717   1.877   4.179
88297W        W47833  24.148   2.948  13.425
88298W        W47834  44.268  20.171   2.813
88299W        W47835  22.743  18.241   4.777
88300W        W47836  23.072  11.146  14.498
88301W        W47837  27.089  22.584   2.369
88302W        W47838  20.211  20.634   0.458
88303W        W47839  26.962  36.021  13.532
88304W        W47840  38.062  33.540  11.591
88305W        W47841  15.302  15.096  12.527
88306W        W47842  24.211  28.021  10.443
88307W        W47843  13.615  41.358   1.708
88308W        W47844  35.466  44.799  12.064
88309W        W47845   0.436   3.291   2.370
88310W        W47846  19.741  35.409   0.382
88311W        W47847  37.459  27.513   1.879
88312W        W47848  17.651   1.977  10.446
88313W        W47849   9.188  18.104  10.638
88314W        W47850  35.425  37.483  13.871
88315W        W47851  34.964  39.917  10.531
88316W        W47852  15.719  11.146  14.869
88317W        W47853   7.224  32.921   2.357
88318W        W47854  27.584  40.825  13.443
88319W        W47855  38.909  25.553   5.313
88320W        W47856  41.002  22.128   1.793
88321W        W47857  42.505  44.863   2.838
88322W        W47858  42.332  26.054  10.468
88323W        W47859  41.466  25.674  14.343
88324W        W47860  32.516   8.218   2.308
88325W        W47861  17.731  28.619  13.373
88326W        W47862   1.311  20.267   3.794
88327W        W47863  10.878   5.918  11.418
88328W        W47864   8.242  19.634  10.945
88329W        W47865  17.797  40.004   2.662
88330W        W47866   6.845  44.933  11.873
88331W        W47867  22.073  35.972  14.958
88332W        W47868   5.925  11.848   2.831
88333W        W47869  16.589  42.423   1.379
88334W        W47870   7.323  15.611   3.834
88335W        W47871   5.313  31.004   1.927
88336W        W47872   7.741  23.222  12.035
88337W        W47873  33.102   3.853  13.368
88338W        W47874  29.457  33.990  11.433
88339W        W47875  40.398  10.155  12.972
88340W        W47876   8.398  38.364   0.850
88341W        W47877  17.722  11.730   3.821
88342W        W47878  34.969  23.609   2.261
88343W        W47879  29.957  38.821  14.476
88344W        W47880   4.387  30.135  10.640
88345W        W47881  18.148  23.698  12.906
88346W        W47882  19.193  23.080  11.567
88347W        W47883  41.920  12.640   1.437
88348W        W47884  35.000  39.937   1.385
88349W        W47885  37.422   6.714  11.041
88350W        W47886  40.959   8.663   1.375
88351W        W47887  16.663  30.090   4.779
88352W        W47888  24.037  13.321   2.181
88353W        W47889  15.685  22.535   1.876
88354W        W47890  27.036  28.449  10.913
88355W        W47891   4.804  41.464  10.420
88356W        W47892   0.256  13.605  12.893
88357W        W47893   1.800  12.807   9.640
88358W        W47894   5.899   7.403   3.174
88359W        W47895  17.074  30.041  11.049
88360W        W47896  18.577   5.346   3.796
88361W        W47897   5.768   5.240  11.522
88362W        W47898  34.550  23.683  14.031
88363W        W47899   5.862  13.700   3.210
88364W        W47900  30.445   6.921  13.903
88365W        W47901  22.547  30.605   3.783
88366W        W47902  44.414  43.431   2.889
88367W        W47903  32.401  32.483   2.725
88368W        W47904  22.145  26.553   2.222
88369W        W47905  26.470   7.414  11.429
88370W        W47906  25.201   2.810   2.706
88371W        W47907  28.091   1.857  11.897
88372W        W47908  22.642   4.785   0.266
88373W        W47909   2.911   0.914  13.944
88374W        W47910  27.455   9.844   4.786
88375W        W47911  32.562  38.057   3.769
88376W        W47912  31.020  39.036   4.169
88377W        W47913   5.341  16.650  14.863
88378W        W47914  10.247   4.845   3.316
88379W        W47915  43.490  35.995  10.478
88380W        W47916  11.816  34.043   1.800
88381W        W47917  15.236  31.578  11.461
88382W        W47918  28.136  22.207  11.049
88383W        W47919  32.073  22.090   5.723
88384W        W47920  17.721  15.589  13.332
88385W        W47921  27.575  36.360  11.561
88386W        W47922  19.706  27.506   3.227
88387W        W47923  14.324  13.204   4.727
88388W        W47924  35.365  26.569  14.433
88389W        W47925  32.520  24.479   0.327
88390W        W47926  25.495  31.541  12.522
88391W        W47927  21.025  22.637  10.122
88392W        W47928  22.523   3.946   0.860
88393W        W47929  28.934  10.361   4.822
88394W        W47930  40.332  32.501   3.684
88395W        W47931  35.603  31.930   1.296
88396W        W47932  10.213  39.365   0.908
88397W        W47933   7.332  21.066  14.888
88398W        W47934   1.262  18.578   4.663
88399W        W47935  21.242   4.899   0.245
88400W        W47936   3.358   3.365  14.480
88401W        W47937  36.072  25.477  10.530
88402W        W47938  35.944   3.731   2.790
88403W        W47939  39.877  24.634   4.785
88404W        W47940  35.484   9.193   0.243
88405W        W47941  38.017  11.164  14.777
88406W        W47942  35.867  31.982  12.565
88407W        W47943  14.823   3.366   2.229
88408W        W47944  10.662  21.725   3.211
88409W        W47945   8.351   4.902   2.869
88410W        W47946  34.382  24.114  12.489
88411W        W47947  35.534  33.109   0.942
88412W        W47948   5.351   5.861  11.882
88413W        W47949  27.009  27.046   1.373
88414W        W47950   5.803  43.432   1.788
88415W        W47951  24.225  12.164  11.957
88416W        W47952  30.113  41.817  12.520
88417W        W47953  21.727  42.851  10.941
88418W        W47954  14.097  39.346  13.341
88419W        W47955  13.834  24.688   0.868
88420W        W47956   3.913  36.365   2.335
88421W        W47957  44.260  44.933  12.926
88422W        W47958  37.470  30.023  11.032
88423W        W47959  12.144  44.399  10.427
88424W        W47960  27.158  12.833   2.850
88425W        W47961  10.865  10.247   5.114
88426W        W47962  20.066  15.605   0.320
88427W        W47963  24.190   8.885  10.628
88428W        W47964  24.218  37.450   3.724
88429W        W47965   8.217   3.860  10.939
88430W        W47966  22.211  15.819  12.479
88431W        W47967   5.421  29.483  10.508
88432W        W47968   5.771  22.020   2.233
88433W        W47969  18.130  18.756  14.998
88434W        W47970  24.128  41.428  11.532
88435W        W47971   2.390  30.505  10.517
88436W        W47972   1.900  39.963   2.676
88437W        W47973  20.654  11.223  13.479
88438W        W47974  10.853   9.656  12.858
88439W        W47975  41.493  36.556   1.264
88440W        W47976  44.353  15.149   1.426
88441W        W47977   7.706  11.189  10.445
88442W        W47978  28.509  41.908  14.785
88443W        W47979  13.680  34.976  11.986
88444W        W47980   5.833  16.681  11.450
88445W        W47981   0.836  22.054   4.305
88446W        W47982  33.114  18.765   0.914
88447W        W47983  42.969   9.232   4.833
88448W        W47984  36.423   9.667   0.962
88449W        W47985  39.397  44.505   4.132
88450W        W47986   1.807  17.747  13.461
88451W        W47987  39.987  11.305  12.399
88452W        W47988  44.910   7.219  13.901
88453W        W47989  41.399  22.042   2.363
88454W        W47990   3.928  14.292   0.752
88455W        W47991  21.644  44.855  14.286
88456W        W47992   0.416  10.375  12.341
88457W        W47993   8.278  38.444   1.359
88458W        W47994  31.644  24.047   4.781
88459W        W47995  42.309  44.984  14.307
88460W        W47996  17.763  39.318  12.516
88461W        W47997   9.179  40.878  12.933
88462W        W47998   5.915   0.832  13.508
88463W        W47999  34.456  18.657   0.292
88464W        W48000  11.835  11.815   5.170
88465W        W48001  27.643   9.820   2.267
88466W        W48002  29.921  14.780  13.462
88467W        W48003  31.911  43.934  12.060
88468W        W48004  27.184   7.827  12.439
88469W        W48005  39.414  28.082   4.264
88470W        W48006  26.647   6.407   4.723
88471W        W48007  29.649  21.251   3.655
88472W        W48008  29.959  16.658  12.522
88473W        W48009   9.378  36.464   0.369
88474W        W48010  26.677  37.365  12.347
88475W        W48011   7.778  23.121  13.894
88476W        W48012   1.978  29.458  13.371
88477W        W48013  29.012   5.268  14.418
88478W        W48014  43.901   3.440  12.520
88479W        W48015  22.642  39.402  12.840
88480W        W48016  16.738  25.212   2.766
88481W        W48017   7.304  13.668   3.719
88482W        W48018   9.748   5.251  11.383
88483W        W48019  39.360   6.308   4.314
88484W        W48020  43.358  23.990   0.375
88485W        W48021  22.084  30.086   0.396
88486W        W48022  21.587  34.528   2.347
88487W        W48023   5.703   5.357   4.670
88488W        W48024  13.295  25.181   2.891
88489W        W48025  24.611  37.943  13.058
88490W        W48026  16.596  26.647  10.448
88491W        W48027  14.298  19.149  10.126
88492W        W48028  28.636  41.968  13.464
88493W        W48029  36.534  43.831  14.302
88494W        W48030  11.224  18.110  13.900
88495W        W48031   2.435  32.985  13.360
88496W        W48032  30.034  11.803   4.258
88497W        W48033  43.283  32.998   3.836
88498W        W48034  21.712   3.839   4.189
88499W        W48035  41.976  43.976  11.438
88500W        W48036  16.106  33.073  12.074
88501W        W48037  26.195   8.199   4.827
88502W        W48038  20.703  12.146   1.402
88503W        W48039  20.754  20.546   5.306
88504W        W48040   6.799  29.531  14.976
88505W        W48041   9.738  12.699   3.849
88506W        W48042   5.334  42.025  11.015
88507W        W48043   3.426  44.936  14.459
88508W        W48044  39.835  37.010  12.387
88509W        W48045   0.876   7.395   1.217
88510W        W48046  19.096  22.633  10.893
88511W        W48047   8.885  42.975  12.565
88512W        W48048  29.163  34.604  10.449
88513W        W48049  25.115   9.791  11.435
88514W        W48050  40.939   4.777   0.765
88515W        W48051  35.545  30.967   0.773
88516W        W48052   8.382   2.805   4.734
88517W        W48053  10.376  28.502   2.375
88518W        W48054  15.804  18.752   2.250
88519W        W48055  28.025  14.787  13.907
88520W        W48056  36.567  22.086   2.357
88521W        W48057  26.665  10.219   2.189
88522W        W48058  15.691   9.156   0.338
88523W        W48059   5.907  23.034   3.221
88524W        W48060  28.449  33.055   3.153
88525W        W48061   7.340  14.823   2.665
88526W        W48062  30.430  36.541  13.906
88527W        W48063  15.743  14.776  12.567
88528W        W48064  36.913  29.483   0.293
88529W        W48065  11.730   3.427   2.234
88530W        W48066  32.019  23.176   0.243
88531W        W48067  20.644  20.635  12.900
88532W        W48068   3.798  32.064   2.836
88533W        W48069  25.675   8.861   0.949
88534W        W48070   3.917  30.019  14.920
88535W        W48071  27.007   0.386   2.876
88536W        W48072   2.823   1.963   4.716
88537W        W48073   7.349  21.754   1.864
88538W        W48074  20.167  21.125   2.398
88539W        W48075  38.893  21.608  14.476
88540W        W48076  30.133  21.255  11.041
88541W        W48077  16.707  36.357  12.093
88542W        W48078  41.788  14.218  13.854
88543W        W48079  22.663  26.475  11.973
88544W        W48080   2.337  36.938  14.469
88545W        W48081   9.322  36.570  10.523
88546W        W48082  23.182  34.549   9.967
88547W        W48083  14.305  41.308   0.287
88548W        W48084  44.481  15.107  12.547
88549W        W48085   3.225  35.965  14.502
88550W        W48086  34.118  15.112  12.516
88551W        W48087  30.950  28.570   3.854
88552W        W48088  38.066  40.799  10.618
88553W        W48089  23.679  15.317   3.693
88554W        W48090  15.085  32.064  11.380
88555W        W48091  26.137  16.148  11.090
88556W        W48092   1.896   7.716  14.472
88557W        W48093   8.690   3.928  13.318
88558W        W48094  34.068   9.326   1.418
88559W        W48095  38.913  15.741   3.150
88560W        W48096  27.164  31.572   2.316
88561W        W48097  28.506  23.514  12.542
88562W        W48098   4.225  20.166   2.311
88563W        W48099   5.859   1.880   2.254
88564W        W48100  11.338   6.725   3.855
88565W        W48101  35.987  32.036   0.914
88566W        W48102  15.314  38.856   1.912
88567W        W48103   6.905  29.043  12.857
88568W        W48104  34.879  32.994  11.114
88569W        W48105  39.809  10.851  13.824
88570W        W48106  34.429  16.772  14.849
88571W        W48107  39.524   4.325   2.835
88572W        W48108  30.521  33.582   1.805
88573W        W48109  10.641  29.966   4.143
88574W        W48110   9.227  38.951  14.879
88575W        W48111   4.423  30.565   2.191
88576W        W48112   3.344  39.385  11.434
88577W        W48113  39.943  44.933  10.449
88578W        W48114  10.700  28.526  12.871
88579W        W48115  26.170  25.528  13.939
88580W        W48116   3.856   3.898   1.288
88581W        W48117  27.078   3.436   5.265
88582W        W48118  15.815   2.234  11.491
88583W        W48119  25.700  21.152  14.826
88584W        W48120  38.409  38.063  11.107
88585W        W48121   0.840  41.501  12.564
88586W        W48122   7.176  24.494   0.342
88587W        W48123  33.001  31.992  12.527
88588W        W48124  35.999  44.359   1.418
88589W        W48125   5.232  16.114   0.893
88590W        W48126  29.928  16.225   3.289
88591W        W48127  12.792  26.092  10.546
88592W        W48128  26.173   6.261  11.080
88593W        W48129  33.982  25.533  13.317
88594W        W48130  40.920   4.248   3.639
88595W        W48131  32.637  37.917  11.490
88596W        W48132   5.395  29.109  12.457
88597W        W48133   7.213   2.882  12.906
88598W        W48134  29.007  18.135   4.684
88599W        W48135  10.188  22.653   1.391
88600W        W48136  25.122  23.150  11.912
88601W        W48137  13.237  20.692  12.922
88602W        W48138   0.386  32.476   0.437
88603W        W48139  33.595  29.664   2.214
88604W        W48140  43.988  25.512   2.737
88605W        W48141  15.797  40.915  13.333
88606W        W48142  28.143  41.411  10.103
88607W        W48143  18.624  36.947  13.357
88608W        W48144   6.719   7.763  14.450
88609W        W48145  32.017  41.445  14.889
88610W        W48146  32.004  10.871  11.020
88611W        W48147  10.367  21.203   4.649
88612W        W48148   9.218  34.967  13.810
88613W        W48149  23.005  30.934  12.940
88614W        W48150  21.154  28.571  11.061
88615W        W48151  10.820   2.816   4.224
88616W        W48152  11.153  43.871   4.624
88617W        W48153  18.231  43.919  12.885
88618W        W48154  13.734   1.404   3.692
88619W        W48155   1.734   6.850  11.096
88620W        W48156   5.699  35.046   4.606
88621W        W48157   0.443  43.821   3.290
88622W        W48158  22.199  39.323  13.450
88623W        W48159   5.265   9.685  10.507
88624W        W48160  19.104  32.006  14.375
88625W        W48161   4.340  21.033  12.878
88626W        W48162  22.502  33.026   2.391
88627W        W48163  17.206  26.683  13.817
88628W        W48164  37.891  40.928   2.219
88629W        W48165  37.398  39.471  12.919
88630W        W48166  23.219  23.572   1.835
88631W        W48167  34.474  44.960  12.447
88632W        W48168  41.478  15.266  10.994
88633W        W48169   4.294  16.217   1.401
88634W        W48170  24.112  39.364  11.050
88635W        W48171  12.844  34.464  14.028
88636W        W48172  11.286  23.985   0.458
88637W        W48173   1.761  25.095  10.469
88638W        W48174  28.933  10.254  13.501
88639W        W48175  11.850  24.201   1.762
88640W        W48176  41.883  13.694  14.970
88641W        W48177  37.525   1.441  10.926
88642W        W48178  17.105  41.452  13.005
88643W        W48179  10.866  14.690   2.213
88644W        W48180  41.820  29.014  10.577
88645W        W48181   1.457   1.776  10.627
88646W        W48182  15.267  41.016  12.856
88647W        W48183  13.227  31.944  10.131
88648W        W48184   3.945  30.591  11.961
88649W        W48185  21.610  10.308   9.981
88650W        W48186  30.461  18.147   0.803
88651W        W48187   2.459   1.325  14.860
88652W        W48188  11.366  30.139  10.552
88653W        W48189  23.558   0.443   4.773
88654W        W48190  31.151  34.501  10.499
88655W        W48191  23.591  41.823  13.545
88656W        W48192  24.019  32.043   4.331
88657W        W48193  29.669  27.161   4.223
88658W        W48194   0.788   3.407   3.665
88659W        W48195  27.089  35.454   2.775
88660W        W48196  25.595  28.016   1.707
88661W        W48197   3.711  33.056  11.081
88662W        W48198  27.174  23.126   4.273
88663W        W48199  25.206  36.973  13.389
88664W        W48200   0.962  42.787  11.046
88665W        W48201  25.482  40.369   3.746
88666W        W48202  37.981  25.520   3.207
88667W        W48203  35.973  42.939  14.791
88668W        W48204  35.526  10.700   2.313
88669W        W48205  11.144   8.862  13.920
88670W        W48206  28.606  21.155   5.165
88671W        W48207  26.010  22.645   0.745
88672W        W48208  36.068  14.175  12.974
88673W        W48209  14.781   3.377   0.484
88674W        W48210   8.195  28.614   3.828
88675W        W48211   8.220  44.868   2.399
88676W        W48212  33.066  12.667   0.283
88677W        W48213  28.000  17.081   2.237
88678W        W48214   5.697  28.991   0.281
88679W        W48215   8.359  44.280  12.838
88680W        W48216   6.184  35.539   0.449
88681W        W48217  19.052  22.200   0.735
88682W        W48218  36.893  24.999  13.475
88683W        W48219   5.343   3.951  12.071
88684W        W48220  25.591  28.598   0.950
88685W        W48221   3.768   4.279  11.923
88686W        W48222  30.043   0.395  11.613
88687W        W48223  26.515  35.510   2.834
88688W        W48224  29.499  15.123   0.309
88689W        W48225  41.948  15.094  10.916
88690W        W48226   8.760  16.233  12.441
88691W        W48227  35.433  24.128   2.347
88692W        W48228   6.269  31.033   4.148
88693W        W48229  18.108   8.371  13.865
88694W        W48230  26.975  10.812   0.272
88695W        W48231  13.793  30.545   1.435
88696W        W48232   0.988  22.224  11.927
88697W        W48233  13.278   2.910  12.955
88698W        W48234  23.218  34.863  10.499
88699W        W48235  27.632  34.033  10.624
88700W        W48236  16.700   9.221   3.188
88701W        W48237  19.206   4.287   4.724
88702W        W48238   6.411   3.428   2.788
88703W        W48239  27.457  27.610  12.910
88704W        W48240  38.429   7.875   2.262
88705W        W48241  17.714  31.509   2.266
88706W        W48242   7.324   5.216  11.960
88707W        W48243  39.914  26.199   0.246
88708W        W48244  27.121   5.870  12.990
88709W        W48245   1.867  27.510   5.186
88710W        W48246   4.243  14.100  11.535
88711W        W48247  12.631   0.318   3.685
88712W        W48248  10.235  27.462  12.573
88713W        W48249  10.772  17.731  14.456
88714W        W48250  25.468  24.092   4.176
88715W        W48251  15.747  10.856  11.402
88716W        W48252  41.328  24.080  13.025
88717W        W48253  17.091   2.257   5.252
88718W        W48254  34.439  24.104  14.275
88719W        W48255  23.098  29.551   4.223
88720W        W48256  22.645   5.285   0.393
88721W        W48257  12.267  24.113   4.739
88722W        W48258  43.403  22.197   3.730
88723W        W48259   8.851   0.369   0.737
88724W        W48260   2.327  33.908   0.244
88725W        W48261  39.851   9.368   4.635
88726W        W48262   2.342  27.085  11.948
88727W        W48263  41.809  34.611  10.452
88728W        W48264  16.073  36.917  14.488
88729W        W48265  16.810  33.555  12.905
88730W        W48266  14.291   6.424  11.463
88731W        W48267  36.522  27.177  14.900
88732W        W48268   4.315  13.271  14.432
88733W        W48269  16.153   1.446  13.370
88734W        W48270  36.937  15.317   1.353
88735W        W48271  15.319  16.796  11.421
88736W        W48272  31.538  21.728  11.377
88737W        W48273  36.887  40.900  12.026
88738W        W48274   5.830  16.720   3.270
88739W        W48275   5.215  38.367   1.740
88740W        W48276  31.134  42.002   3.679
88741W        W48277  35.921  12.676   3.220
88742W        W48278  31.526   5.203   3.312
88743W        W48279   0.270  42.949  10.562
88744W        W48280  31.447  27.672  14.298
88745W        W48281  38.531  28.581  11.866
88746W        W48282  36.908  38.464   0.263
88747W        W48283  43.372   3.937   4.625
88748W        W48284   8.705  19.540  13.416
88749W        W48285   4.861  29.066  11.922
88750W        W48286  40.027  40.407   3.751
88751W        W48287   7.263   4.318  10.495
88752W        W48288  26.042  34.485   3.310
88753W        W48289  44.424  25.673  11.449
88754W        W48290  14.130  24.723   4.653
88755W        W48291  27.121  26.957   0.759
88756W        W48292  23.052  42.827   0.861
88757W        W48293  29.006  14.795  10.543
88758W        W48294  39.821  10.687   3.728
88759W        W48295  21.524  43.515   0.315
88760W        W48296  30.657   7.884   2.260
88761W        W48297   5.780  21.145  12.047
88762W        W48298   5.836  17.725   0.837
88763W        W48299  26.025  22.230   1.860
88764W        W48300  26.060  43.009  11.030
88765W        W48301  12.217  32.503   1.725
88766W        W48302   7.668   2.233  10.519
88767W        W48303  39.519   4.758  10.905
88768W        W48304  12.626  39.919  11.447
88769W        W48305   1.344  36.939   3.178
88770W        W48306  30.576   5.722   3.242
88771W        W48307  27.022  33.565   2.668
88772W        W48308  43.354  44.303  10.954
88773W        W48309  10.781  15.675   1.769
88774W        W48310  35.056  14.665  10.629
88775W        W48311  21.515  11.300  11.495
88776W        W48312  18.253  23.736   1.894
88777W        W48313   0.252   5.819   0.392
88778W        W48314  17.065  17.162  11.073
88779W        W48315   9.326  39.453  10.411
88780W        W48316   8.692  14.686   1.380
88781W        W48317  32.106   8.297   1.874
88782W        W48318  39.861   1.446   3.732
88783W        W48319  14.679  28.605  13.009
88784W        W48320  17.585  35.448   4.194
88785W        W48321  29.161   3.320  13.318
88786W        W48322   4.367  25.964  14.484
88787W        W48323  31.482  21.568   4.813
88788W        W48324  31.958  43.865  14.770
88789W        W48325  22.137  38.519  14.840
88790W        W48326  27.125  10.774   4.739
88791W        W48327  35.874  19.131   1.789
88792W        W48328  15.728  43.787   0.884
88793W        W48329  29.522   8.759   2.855
88794W        W48330  15.297   6.392  13.523
88795W        W48331  25.194  19.571  10.605
88796W        W48332  33.521  21.587   0.767
88797W        W48333  10.879  30.635  14.943
88798W        W48334  34.109  39.863   0.736
88799W        W48335  20.547  44.291  13.363
88800W        W48336  31.518  30.610  13.854
88801W        W48337  31.408   7.726  11.073
88802W        W48338  29.575   7.853   1.831
88803W        W48339  17.199   3.950  14.985
88804W        W48340  27.640   9.150  10.527
88805W        W48341  39.893  15.771  13.946
88806W        W48342   0.961  43.515   0.793
88807W        W48343   9.750  42.918  10.481
88808W        W48344   6.844  41.337   4.333
88809W        W48345  27.104   5.703   0.296
88810W        W48346  21.092  31.937   3.280
88811W        W48347  13.256  41.945   2.185
88812W        W48348  15.615  12.156  12.448
88813W        W48349  11.843  39.020   1.741
88814W        W48350  40.386  30.914   3.781
88815W        W48351   0.413   1.923  13.543
88816W        W48352  39.384  17.784   0.436
88817W        W48353  26.600  44.898   2.280
88818W        W48354   3.756  38.530   1.791
88819W        W48355  15.292  29.465  10.624
88820W        W48356   4.814  20.675  14.295
88821W        W48357  17.199  36.929  14.286
88822W        W48358  26.108  24.567   3.330
88823W        W48359  29.486   0.469   3.234
88824W        W48360  17.263   0.971  11.911
88825W        W48361  11.639  15.094   3.311
88826W        W48362  22.196  20.089  11.416
88827W        W48363  22.231  11.752  12.395
88828W        W48364   6.236  22.539  13.419
88829W        W48365  39.829  29.106   1.761
88830W        W48366  17.184  26.073   0.341
88831W        W48367  10.645  12.631  14.385
88832W        W48368  38.338  37.939   1.794
88833W        W48369  39.000  39.533  10.132
88834W        W48370  15.095  26.075   0.442
88835W        W48371  31.963  30.460   4.132
88836W        W48372   4.360  40.383   2.201
88837W        W48373  10.691   5.700  10.462
88838W        W48374  28.028   6.193   3.242
88839W        W48375  28.011  35.867   1.333
88840W        W48376  41.386  38.527   1.311
88841W        W48377   5.766  42.384  12.524
88842W        W48378   0.786  22.104  12.577
88843W        W48379  38.946  33.393  10.573
88844W        W48380   8.169  26.047  12.919
88845W        W48381   1.780  32.960  13.507
88846W        W48382   9.360  40.472  11.931
88847W        W48383   5.829  20.173  10.560
88848W        W48384   0.834  38.537  13.037
88849W        W48385  25.598  21.125   5.191
88850W        W48386  27.671  14.643  10.476
88851W        W48387  34.956  10.177  12.880
88852W        W48388  28.164   9.682   0.762
88853W        W48389  43.994  22.045   0.417
88854W        W48390  37.900   4.433  11.467
88855W        W48391  34.878  21.665   4.177
88856W        W48392  41.979  12.355   2.702
88857W        W48393  36.425  30.458   1.298
88858W        W48394  43.375  35.515   2.709
88859W        W48395  39.883  25.079  10.539
88860W        W48396  12.806  43.403  11.585
88861W        W48397  23.019  31.055  11.468
88862W        W48398  37.053  20.655   3.831
88863W        W48399  39.838  13.334   0.915
88864W        W48400  18.198  31.022   1.832
88865W        W48401   2.816  44.949   3.783
88866W        W48402  16.181  21.240  12.445
88867W        W48403  20.267  23.678   3.793
88868W        W48404  24.100  37.340  14.986
88869W        W48405  18.230  10.246  14.511
88870W        W48406  10.289  37.944  11.432
88871W        W48407   3.926  41.963   1.368
88872W        W48408  18.709  25.209   2.366
88873W        W48409   3.719  19.189   4.199
88874W        W48410  29.568  22.609  12.093
88875W        W48411  11.249   3.268   0.855
88876W        W48412  20.163   1.749   2.403
88877W        W48413   2.277   2.931   4.187
88878W        W48414  28.514  30.930   1.346
88879W        W48415  34.961  40.411  12.506
88880W        W48416   7.230  30.149  10.027
88881W        W48417  39.465  35.867  12.404
88882W        W48418  25.549   4.741   5.295
88883W        W48419  20.542  26.992  13.838
88884W        W48420  20.525  35.946  12.980
88885W        W48421  14.636  16.129   3.686
88886W        W48422  41.880   4.887  13.052
88887W        W48423  27.602   5.328  11.947
88888W        W48424  29.051   2.289  14.509
88889W        W48425  14.710   4.337  13.546
88890W        W48426  37.954  19.145   4.628
88891W        W48427  25.040  26.522   0.280
88892W        W48428  42.450  42.957  11.863
88893W        W48429  25.652  13.252  10.496
88894W        W48430  31.000  28.594  14.469
88895W        W48431  39.502  32.541  12.941
88896W        W48432  11.224   4.815  12.571
88897W        W48433  27.136  36.846   1.727
88898W        W48434  18.778   0.279  12.355
88899W        W48435  40.937  31.114  12.578
88900W        W48436   9.733  39.841  10.545
88901W        W48437  43.786  27.041  13.431
88902W        W48438   3.232  29.623  12.942
88903W        W48439   3.773   8.241   0.793
88904W        W48440   7.729  39.908   2.773
88905W        W48441  18.633  33.543   1.766
88906W        W48442   9.879  40.898   3.347
88907W        W48443   1.894  15.277   1.325
88908W        W48444  14.628   0.362   1.902
88909W        W48445  43.337   4.927  13.422
88910W        W48446  40.360  30.444   4.729
88911W        W48447   4.367  34.985   3.292
88912W        W48448  41.316   9.224  12.483
88913W        W48449  25.146   9.674   1.309
88914W        W48450  36.015  31.600  11.051
88915W        W48451   4.823  16.806  10.506
88916W        W48452  43.326  24.540   0.477
88917W        W48453  35.005  19.222   4.681
88918W        W48454   0.267  24.638   0.325
88919W        W48455  15.810  15.669   0.281
88920W        W48456  21.147  30.457  10.585
88921W        W48457  10.232   1.737  11.122
88922W        W48458  22.648  27.108  14.356
88923W        W48459  29.529  30.626  12.030
88924W        W48460  21.679  18.281   0.830
88925W        W48461   5.379   5.410   0.727
88926W        W48462  11.824   4.289  13.807
88927W        W48463  18.296  41.943   0.450
88928W        W48464   7.188  26.051   9.983
88929W        W48465  36.469   6.771   1.895
88930W        W48466  10.369   3.451   0.285
88931W        W48467  29.646  42.898   2.189
88932W        W48468  43.386  23.224   4.603
88933W        W48469  27.538  24.993   2.361
88934W        W48470   8.778  20.723   2.711
88935W        W48471  42.396  20.689   4.759
88936W        W48472  44.441  33.051  11.548
88937W        W48473   4.756  31.060  10.526
88938W        W48474  33.922  43.383  10.887
88939W        W48475  41.505  30.992  11.609
88940W        W48476  41.984  39.950  12.888
88941W        W48477  40.547  31.420  14.338
88942W        W48478  16.264  27.602  12.355
88943W        W48479   6.216   5.883  14.458
88944W        W48480  43.874  28.556  14.485
88945W        W48481  44.808  25.555  11.936
88946W        W48482  40.869   5.358  12.829
88947W        W48483  43.898  28.676  10.498
88948W        W48484   3.401   5.707   1.817
88949W        W48485  29.080  41.513  11.506
88950W        W48486  30.081  43.433   0.815
88951W        W48487  31.605  35.579  12.345
88952W        W48488  29.511  40.014   1.731
88953W        W48489  36.385  20.737   2.273
88954W        W48490   6.292  23.034  13.320
88955W        W48491  44.867  22.654   3.273
88956W        W48492   0.459  14.761   3.373
88957W        W48493   0.849   9.719   1.327
88958W        W48494   8.804  34.386   2.217
88959W        W48495  11.822   4.734   4.345
88960W        W48496  38.402   5.894  12.898
88961W        W48497  17.766  37.879   0.954
88962W        W48498  26.967  41.489   4.598
88963W        W48499  41.811  40.539  12.035
88964W        W48500   8.262   2.330   1.840
88965W        W48501  34.600  35.514   4.222
88966W        W48502  15.741  17.692   3.755
88967W        W48503   5.778  37.084   1.280
88968W        W48504   3.788  18.279   1.758
88969W        W48505   3.218  35.938  10.541
88970W        W48506  29.487  37.873   2.687
88971W        W48507  24.184   8.252   4.770
88972W        W48508  11.317   3.933  11.487
88973W        W48509  33.611  41.043  12.824
88974W        W48510   7.831  36.395   5.313
88975W        W48511  28.171  35.570   4.789
88976W        W48512  29.992  14.774  14.859
88977W        W48513  42.407  43.439   2.727
88978W        W48514  13.639  15.586   4.220
88979W        W48515  24.227  36.473  14.934
88980W        W48516  21.554  23.046  11.995
88981W        W48517  20.148  39.869   3.340
88982W        W48518   4.907  29.092   4.133
88983W        W48519  13.181   5.895   1.710
88984W        W48520  16.256  19.131  10.518
88985W        W48521  43.855   7.686  13.430
88986W        W48522   1.824  37.360   1.440
88987W        W48523  26.198  20.146   0.336
88988W        W48524  20.706  41.313  11.391
88989W        W48525  20.218  43.374   0.411
88990W        W48526  27.556  38.491  13.353
88991W        W48527  12.791  31.914  11.567
88992W        W48528  25.513  30.960  13.963
88993W        W48529  16.736  26.506   4.716
88994W        W48530  35.458  39.511  14.394
88995W        W48531  42.828  23.083  14.994
88996W        W48532  43.416  28.114  11.939
88997W        W48533  13.639  36.488  12.392
88998W        W48534   1.879  34.915  14.917
88999W        W48535  35.972  19.249  13.382
89000W        W48536   6.832  13.751   4.815
89001W        W48537  30.593  37.879   1.828
89002W        W48538   6.209  11.314  13.012
89003W        W48539  30.630   3.226   4.159
89004W        W48540  27.622   2.963   1.383
89005W        W48541  25.582  34.465  11.457
89006W        W48542  29.174  43.958  13.888
89007W        W48543  25.645  37.448   3.239
89008W        W48544   9.233  25.219  13.970
89009W        W48545   5.317  30.554  13.942
89010W        W48546   6.388  33.100   0.741
89011W        W48547   4.358  40.525  11.450
89012W        W48548  27.612  32.394   0.419
89013W        W48549  33.451  21.159   2.825
89014W        W48550   6.725   9.151   0.878
89015W        W48551  25.518   3.284  12.928
89016W        W48552  12.122  26.663   2.902
89017W        W48553  10.320  41.485   1.350
89018W        W48554  39.861  28.654   0.856
89019W        W48555  28.038   9.768  14.375
89020W        W48556  41.534   9.312   2.816
89021W        W48557  21.719  25.167   0.249
89022W        W48558  18.240  13.176   4.764
89023W        W48559  13.333  33.947  14.988
89024W        W48560  20.736   8.833  14.481
89025W        W48561  21.693  20.225  14.975
89026W        W48562  27.989  15.305   0.922
89027W        W48563   2.735   5.817  11.424
89028W        W48564   1.839  25.065  13.797
89029W        W48565  12.688  28.170  14.030
89030W        W48566  34.071  31.032   3.649
89031W        W48567  12.289  31.147   4.660
89032W        W48568   1.833  37.915  13.970
89033W        W48569  22.027  33.471   1.776
89034W        W48570   7.201  37.011   3.650
89035W        W48571  39.398  16.162  10.497
89036W        W48572  29.973  29.636  11.522
89037W        W48573  42.955  43.432   0.325
89038W        W48574  25.028  30.465   1.774
89039W        W48575   5.707  12.191   3.788
89040W        W48576   8.673  38.458  14.763
89041W        W48577  24.097  25.125   9.952
89042W        W48578  43.359   6.734   3.718
89043W        W48579  32.457  13.251  11.921
89044W        W48580  31.117  27.482   2.411
89045W        W48581   5.300  28.665  10.518
89046W        W48582  27.017   7.691  14.766
89047W        W48583   0.841  38.903   3.672
89048W        W48584  13.315  16.659  13.062
89049W        W48585  10.646   3.867   1.355
89050W        W48586  32.085  43.775   4.767
89051W        W48587  11.360  36.477   4.204
89052W        W48588   7.239  33.960   3.281
89053W        W48589  14.165  40.334   4.352
89054W        W48590   3.423   4.279  11.398
89055W        W48591  33.431  43.454  11.901
89056W        W48592   5.405  10.262  10.943
89057W        W48593  21.042  24.089  14.304
89058W        W48594  17.134   3.444   0.358
89059W        W48595  27.006   6.350  14.816
89060W        W48596  11.294  13.782  11.484
89061W        W48597  32.997   1.840  13.048
89062W        W48598  38.428   3.271  12.829
89063W        W48599  29.066  35.017   3.230
89064W        W48600   8.373  23.065   4.706
89065W        W48601   2.960  28.175   4.801
89066W        W48602  16.307  41.899   0.412
89067W        W48603  30.136  37.369   3.160
89068W        W48604  15.817  32.961   0.276
89069W        W48605   9.234  29.960   1.846
89070W        W48606  25.992   2.871  11.041
89071W        W48607   8.798   8.730  11.554
89072W        W48608   8.848  34.406   4.718
89073W        W48609  31.101  12.358  10.612
89074W        W48610  35.562  17.287  10.535
89075W        W48611  32.989  31.604   1.415
89076W        W48612   6.717  30.422   3.228
89077W        W48613   8.861  19.192  11.510
89078W        W48614  29.087  22.121  12.077
89079W        W48615  18.178  17.195   3.841
89080W        W48616  39.359  21.725   2.382
89081W        W48617  24.494  26.098   1.770
89082W        W48618  28.542  32.993   0.329
89083W        W48619  33.471  23.190  13.409
89084W        W48620  14.110   4.320  14.005
89085W        W48621  22.593  12.625   0.790
89086W        W48622  35.383  26.597   3.734
89087W        W48623   3.720  22.674   3.311
89088W        W48624  19.142  37.538  10.890
89089W        W48625  30.115  17.631   1.725
89090W        W48626  19.714  30.504   2.236
89091W        W48627   9.658   0.808   4.696
89092W        W48628   7.348   5.912  13.405
89093W        W48629   8.876  33.413   3.336
89094W        W48630  28.459  42.871  10.966
89095W        W48631   2.298  39.891  12.477
89096W        W48632  11.188  18.692  14.906
89097W        W48633  31.568  35.533   0.255
89098W        W48634  33.089  20.692  10.604
89099W        W48635  35.875   2.764   3.752
89100W        W48636   3.868  18.774  12.532
89101W        W48637  40.360  32.462   4.281
89102W        W48638  15.262   8.875  10.544
89103W        W48639  24.151  36.486  12.069
89104W        W48640  34.073  23.517  12.915
89105W        W48641  14.207   5.434  14.839
89106W        W48642  23.490  18.704  11.978
89107W        W48643  38.460  26.179  13.373
89108W        W48644  38.868  32.052   4.813
89109W        W48645  21.149  26.982  10.467
89110W        W48646  36.527  25.028  10.455
89111W        W48647   6.853   3.749  10.612
89112W        W48648  24.195   7.185  13.488
89113W        W48649   0.882  44.389  13.839
89114W        W48650  12.199   6.826  13.367
89115W        W48651   6.766  30.084  12.557
89116W        W48652  44.367  25.482   1.292
89117W        W48653  41.875   0.366  10.594
89118W        W48654  34.404   7.389  10.475
89119W        W48655  29.971  26.033   0.427
89120W        W48656  34.046  28.057  12.909
89121W        W48657  31.927  16.169  13.936
89122W        W48658  17.091  40.883  12.460
89123W        W48659  21.076   2.454   1.742
89124W        W48660   1.973  14.697  10.500
89125W        W48661  15.631  18.678  12.867
89126W        W48662   0.288  34.009  11.111
89127W        W48663  12.631   0.282  12.041
89128W        W48664   8.361  41.445   2.867
89129W        W48665  17.728  10.178   1.903
89130W        W48666  34.929  37.406   5.168
89131W        W48667   6.359  15.154   0.361
89132W        W48668  34.509  18.152  12.966
89133W        W48669  18.111  24.197   2.857
89134W        W48670  17.746  37.421   1.932
89135W        W48671  29.647  18.124  11.497
89136W        W48672   7.894  14.688  11.905
89137W        W48673  26.048   2.893  10.068
89138W        W48674  16.616   3.813   2.366
89139W        W48675  13.713  12.845  14.904
89140W        W48676   0.808  43.803  10.425
89141W        W48677  37.342   3.372   0.333
89142W        W48678  36.402  27.606  11.000
89143W        W48679  30.969  10.640   1.440
89144W        W48680  25.120  31.431   2.794
89145W        W48681   6.232  18.550   1.333
89146W        W48682  40.005  14.126  14.854
89147W        W48683  37.912   0.970  12.065
89148W        W48684  28.128  43.937  14.386
89149W        W48685  19.774  40.339   2.857
89150W        W48686  36.471  16.144  14.866
89151W        W48687   2.401   5.326   2.386
89152W        W48688  42.877  21.227   2.805
89153W        W48689  32.054  18.570   4.342
89154W        W48690   5.860   7.271  11.542
89155W        W48691  36.091  30.072   4.694
89156W        W48692  23.100  31.027  10.427
89157W        W48693  19.639   7.798  14.862
89158W        W48694   3.240  14.216  10.557
89159W        W48695  43.998  22.705   0.745
89160W        W48696  36.969  11.152  14.901
89161W        W48697  33.956  34.868   4.307
89162W        W48698  10.214  19.091  11.992
89163W        W48699  14.703   6.296   3.234
89164W        W48700  42.295  27.548   4.785
89165W        W48701   4.354   3.755   1.716
89166W        W48702  12.667  28.992   0.250
89167W        W48703   4.215  14.176  12.340
89168W        W48704   4.776  36.576   0.874
89169W        W48705  40.512  15.203   1.265
89170W        W48706  43.496  14.288  14.416
89171W        W48707  37.912   7.819  10.460
89172W        W48708   4.222  12.658  11.884
89173W        W48709  38.443  13.305   4.131
89174W        W48710  44.263  16.259  13.903
89175W        W48711  13.135   1.883  14.390
89176W        W48712   0.793  32.057   2.883
89177W        W48713  43.300  23.209  10.562
89178W        W48714  43.370  22.113  12.532
89179W        W48715  29.469  22.129  13.861
89180W        W48716   7.264  15.290  11.580
89181W        W48717   6.267  33.900   0.270
89182W        W48718  11.857  28.967   0.783
89183W        W48719  33.881  29.106   1.925
89184W        W48720   4.443  18.191  14.988
89185W        W48721  37.915  36.549   1.424
89186W        W48722  44.835  11.630  12.390
89187W        W48723  44.273  40.535   4.761
89188W        W48724  44.839  10.823  14.497
89189W        W48725  29.127  19.046   3.167
89190W        W48726  17.102   1.970  11.119
89191W        W48727   0.371  17.737   2.337
89192W        W48728   9.731  30.498  12.576
89193W        W48729   1.318  32.108   4.273
89194W        W48730  25.607   7.203  11.071
89195W        W48731  17.789  23.174  11.391
89196W        W48732  26.086  11.304   0.390
89197W        W48733  28.976  30.019   2.759
89198W        W48734  32.399   2.852  14.850
89199W        W48735  24.587  30.165   0.834
89200W        W48736  14.779  17.663   2.784
89201W        W48737  44.009  27.042  14.472
89202W        W48738  44.813  35.069   1.729
89203W        W48739  17.607  20.158   2.243
89204W        W48740  26.560  11.651  11.571
89205W        W48741   0.894  38.439   3.676
89206W        W48742  34.437  26.069   2.748
89207W        W48743  32.407  17.648  13.466
89208W        W48744  24.556  10.218  11.081
89209W        W48745   9.171   9.371  13.365
89210W        W48746   4.317  20.745  14.837
89211W        W48747  31.571  35.854   3.799
89212W        W48748  43.902  16.231  12.488
89213W        W48749   9.363   8.706  11.466
89214W        W48750   0.930  23.703  11.090
89215W        W48751   5.802  41.476   2.312
89216W        W48752  27.093  15.269   0.946
89217W        W48753  41.824  24.063   0.306
89218W        W48754  20.547   8.276  10.558
89219W        W48755   0.750   6.777  12.941
89220W        W48756  31.912  25.211   1.288
89221W        W48757  12.192  39.380   1.842
89222W        W48758   6.402  29.431   5.256
89223W        W48759  11.282  26.482   1.820
89224W        W48760  40.340  21.653  11.081
89225W        W48761   0.442  28.611  14.420
89226W        W48762  35.566  37.941   4.324
89227W        W48763  25.186  34.924   1.788
89228W        W48764   6.360  18.576  14.806
89229W        W48765  36.487   3.352  11.041
89230W        W48766  35.032  40.798   2.188
89231W        W48767   4.839  38.837  10.028
89232W        W48768  42.431   8.399   2.729
89233W        W48769  30.543  10.829   1.726
89234W        W48770  13.709   3.379   2.662
89235W        W48771  17.141  37.348   0.941
89236W        W48772  27.034  11.710   0.773
89237W        W48773  13.665  40.869   2.725
89238W        W48774  38.960   2.730   1.798
89239W        W48775  43.818   3.951  11.054
89240W        W48776  20.272   5.730   2.328
89241W        W48777   2.865   0.953  13.018
89242W        W48778  18.632  30.911  10.496
89243W        W48779  31.416   5.709   1.861
89244W        W48780  29.933   6.243   0.434
89245W        W48781  37.500  23.640  12.350
89246W        W48782  10.362   8.883  14.497
89247W        W48783  38.542   4.252   0.750
89248W        W48784  26.587  33.938  12.044
89249W        W48785   3.280  18.086  11.956
89250W        W48786  21.243   8.294  10.953
89251W        W48787  31.975  29.021   0.423
89252W        W48788  30.617   1.404  12.025
89253W        W48789  36.572  29.586  10.945
89254W        W48790  27.523  27.947  13.353
89255W        W48791   0.440  42.447  14.766
89256W        W48792  16.753  44.886   2.878
89257W        W48793  10.175   4.798   3.828
89258W        W48794  16.261  41.513   5.109
89259W        W48795  44.880  10.150   1.231
89260W        W48796  39.516  32.482  14.458
89261W        W48797  14.626  22.632  10.039
89262W        W48798  15.313   2.726   0.404
89263W        W48799  42.450  40.921  14.964
89264W        W48800  42.872  31.415  12.402
89265W        W48801  22.672  28.183   2.311
89266W        W48802  28.071  27.457  14.778
89267W        W48803  28.944  10.712  13.505
89268W        W48804  14.651  42.514   3.208
89269W        W48805   5.725  35.366   4.837
89270W        W48806  34.487   4.244  12.456
89271W        W48807   2.243  30.052   3.341
89272W        W48808   5.369  24.481   0.401
89273W        W48809   2.891   2.337   3.815
89274W        W48810  39.873  38.849  12.079
89275W        W48811  24.199  44.332  13.398
89276W        W48812  14.241  39.005   0.941
89277W        W48813  21.026  31.035  10.467
89278W        W48814  25.525   4.918   0.746
89279W        W48815  29.589   9.788  12.376
89280W        W48816  31.641  22.205   9.960
89281W        W48817   0.488  27.550   0.373
89282W        W48818  15.628  37.893  12.351
89283W        W48819  38.003  16.198  13.469
89284W        W48820  24.215  13.158  12.486
89285W        W48821  16.778  18.100  13.311
89286W        W48822  20.596  10.855   2.310
89287W        W48823   2.245   8.761   5.212
89288W        W48824   1.751  14.138  10.432
89289W        W48825   0.875  15.247  10.951
89290W        W48826   1.343  28.140   0.946
89291W        W48827  42.346  24.547  10.958
89292W        W48828   9.686  29.455  14.950
89293W        W48829   6.309   1.761   4.616
89294W        W48830   7.685  21.191   2.369
89295W        W48831  22.229  25.213   2.696
89296W        W48832  36.475  19.096   2.707
89297W        W48833  16.231   2.295  12.352
89298W        W48834   5.885  30.111   2.891
89299W        W48835  19.667  42.370  14.347
89300W        W48836  37.847  31.479  12.397
89301W        W48837  22.718  29.968   1.809
89302W        W48838  27.993  34.926   1.900
89303W        W48839  12.639  29.039  12.929
89304W        W48840  31.910   5.349  12.989
89305W        W48841  32.410  17.249  11.559
89306W        W48842  14.757  17.578   0.294
89307W        W48843   7.390  28.146   0.301
89308W        W48844  10.878  19.197  14.975
89309W        W48845  29.496  22.146   1.840
89310W        W48846   1.319  16.270  14.849
89311W        W48847   2.411  40.902  13.940
89312W        W48848  26.606  26.646   2.366
89313W        W48849   3.418  22.577   4.290
89314W        W48850  38.991   9.193  14.796
89315W        W48851  16.629  20.609   1.225
89316W        W48852  23.638  44.505   1.262
89317W        W48853  26.471   9.276  13.840
89318W        W48854  26.470  29.928  12.011
89319W        W48855   2.873  23.073   0.438
89320W        W48856   1.788  15.146   1.796
89321W        W48857  23.122  28.032   1.423
89322W        W48858  39.016  26.633  13.537
89323W        W48859   4.302  30.510  11.549
89324W        W48860  35.978  15.622  14.510
89325W        W48861   7.783  18.602   1.753
89326W        W48862   0.977   9.252   3.656
89327W        W48863  11.623   3.406  13.498
89328W        W48864  39.954  17.611  13.545
89329W        W48865  17.772  28.937   3.239
89330W        W48866  22.057  10.173  14.505
89331W        W48867  36.975  20.582   2.862
89332W        W48868  26.135  21.529   1.334
89333W        W48869  14.101   9.338   4.302
89334W        W48870   1.398  19.651   3.153
89335W        W48871  35.504  17.639  12.500
89336W        W48872  34.898   1.324   9.512
89337W        W48873  34.550  36.522   4.273
89338W        W48874  12.749  35.023   2.893
89339W        W48875   2.758  42.412  14.303
89340W        W48876  43.362  32.132   3.263
89341W        W48877  32.509  39.556   3.224
89342W        W48878  10.282  17.252   4.828
89343W        W48879  16.767  14.300  14.472
89344W        W48880  31.047  12.287   0.268
89345W        W48881  39.849  25.076   0.478
89346W        W48882  43.515  14.616  13.374
89347W        W48883  42.293  30.974  10.534
89348W        W48884   7.665  39.063   3.231
89349W        W48885  33.483  30.421  11.019
89350W        W48886  33.063  44.768  10.903
89351W        W48887  24.090  41.329  13.311
89352W        W48888  23.200   1.405   4.786
89353W        W48889  42.791  30.989   0.892
89354W        W48890  44.313   5.913  13.932
89355W        W48891  31.094  41.511   0.775
89356W        W48892  22.138  44.757   1.377
89357W        W48893  26.186  43.930  13.351
89358W        W48894   6.781  35.913  11.068
89359W        W48895  16.312   3.380  14.345
89360W        W48896  43.998  31.440   0.752
89361W        W48897  18.202  44.770   1.222
89362W        W48898  37.856   8.388  12.857
89363W        W48899  32.898  31.089   4.730
89364W        W48900  40.312  30.000  11.520
89365W        W48901  42.004  20.627  10.583
89366W        W48902  15.174   8.353   1.404
89367W        W48903  32.897   5.696  10.642
89368W        W48904  41.292   1.477   3.827
89369W        W48905  42.517   7.869   0.367
89370W        W48906   9.662  40.486  10.435
89371W        W48907  36.365  38.430  14.449
89372W        W48908   0.415  40.817  13.061
89373W        W48909   0.886  41.025  13.951
89374W        W48910  12.123  24.170   0.933
89375W        W48911  42.001   0.888   5.172
89376W        W48912   3.776  37.377   2.228
89377W        W48913  11.309  12.791  11.408
89378W        W48914   6.720  23.578   2.829
89379W        W48915  10.177  33.568  13.857
89380W        W48916  20.145  28.024   2.396
89381W        W48917  11.177  10.866  13.887
89382W        W48918  10.278  35.924  10.084
89383W        W48919  26.122  11.236  11.454
89384W        W48920  24.153  41.501   0.304
89385W        W48921  27.664  27.132  11.420
89386W        W48922  27.066  40.359   0.307
89387W        W48923  22.724   0.867   1.839
89388W        W48924  42.898  36.408  11.080
89389W        W48925  22.567  39.528  10.406
89390W        W48926  15.228  18.729  14.437
89391W        W48927  26.127   8.344   3.290
89392W        W48928   2.402  28.018   0.762
89393W        W48929  39.373   9.804  11.947
89394W        W48930   3.349   1.930   4.798
89395W        W48931  19.246   4.335   2.772
89396W        W48932  11.814  33.465   3.292
89397W        W48933  26.045  38.000  14.495
89398W        W48934  34.477  19.561   2.751
89399W        W48935  39.003  32.577  13.972
89400W        W48936  24.017  42.409   2.299
89401W        W48937  16.728  10.746  13.535
89402W        W48938   9.795  37.897   3.179
89403W        W48939  15.620  37.514  14.006
89404W        W48940  41.371  11.292   2.683
89405W        W48941   0.827  41.872  13.477
89406W        W48942  21.209  25.153  12.890
89407W        W48943  43.333  25.694  11.532
89408W        W48944  33.000   6.753  10.618
89409W        W48945  32.996  41.975   3.777
89410W        W48946  34.512  37.478  13.521
89411W        W48947  18.160  17.758   3.272
89412W        W48948  40.888  33.908  10.477
89413W        W48949  17.217  37.897  14.957
89414W        W48950  36.075  23.734   2.734
89415W        W48951  30.001  32.069   4.349
89416W        W48952  22.092  25.053   1.859
89417W        W48953  24.620   5.868  14.453
89418W        W48954  26.140  22.698  10.917
89419W        W48955  25.982  35.084  12.485
89420W        W48956  29.533   6.724  12.408
89421W        W48957  36.351  13.270   3.671
89422W        W48958   2.233  30.495  13.014
89423W        W48959  22.664  26.053  12.941
89424W        W48960  18.722  34.117   4.766
89425W        W48961  10.688  28.568   4.715
89426W        W48962  38.979  34.388  14.939
89427W        W48963  37.369  13.149   5.271
89428W        W48964  30.064  12.635   2.897
89429W        W48965   0.855  14.699   2.740
89430W        W48966  17.781   6.813   2.819
89431W        W48967  37.016  27.096  10.952
89432W        W48968  30.495  43.003   1.255
89433W        W48969  44.478  22.245  14.398
89434W        W48970  14.301  22.114  14.315
89435W        W48971   2.943  22.695  12.430
89436W        W48972  11.741  29.176  10.952
89437W        W48973   6.337  28.962   3.248
89438W        W48974  12.663  17.655  11.886
89439W        W48975   5.197  44.756   2.676
89440W        W48976   1.887  30.057  12.476
89441W        W48977  28.971  36.892   0.958
89442W        W48978   1.258  39.345  14.286
89443W        W48979  14.231  14.222   4.129
89444W        W48980  37.950  19.648  11.584
89445W        W48981  29.507  41.921   3.806
89446W        W48982  18.617   9.352   3.816
89447W        W48983  21.073  27.476  10.418
89448W        W48984  43.373  15.666   3.194
89449W        W48985  15.644  39.814  10.638
89450W        W48986  38.533   5.729   2.686
89451W        W48987   7.840  25.571  12.451
89452W        W48988  31.565  28.613   1.889
89453W        W48989   0.463  32.556   3.257
89454W        W48990  11.268  31.643  11.457
89455W        W48991  28.953   5.847   2.227
89456W        W48992  22.053  43.480  10.535
89457W        W48993  14.725  42.017   3.216
89458W        W48994  20.272  44.917   4.253
89459W        W48995  36.577  21.148  14.464
89460W        W48996   6.289  11.644   3.782
89461W        W48997  36.991  27.054  13.512
89462W        W48998  32.043  16.080  12.962
89463W        W48999  29.165  31.961  13.349
89464W        W49000  42.795  14.804   2.784
89465W        W49001  10.786  22.731  11.554
89466W        W49002  31.490  20.689   3.164
89467W        W49003  38.348   7.859   1.887
89468W        W49004  44.931   5.222  13.394
89469W        W49005  37.514  42.998   4.820
89470W        W49006  38.912  42.892   1.800
89471W        W49007   5.294   9.779  14.910
89472W        W49008  15.282  24.641   2.184
89473W        W49009  34.578  35.402   4.658
89474W        W49010  23.557  13.686  12.047
89475W        W49011   6.225  43.917   2.368
89476W        W49012  37.021   2.416  10.160
89477W        W49013  12.166  18.173  13.802
89478W        W49014  24.049  10.305   1.698
89479W        W49015  10.225  25.571  13.313
89480W        W49016  17.703   6.880  10.606
89481W        W49017   2.771  38.409  14.877
89482W        W49018  16.153  31.547   1.390
89483W        W49019   4.427   9.679   0.783
89484W        W49020  28.479  24.999  10.411
89485W        W49021  12.355   0.254  12.537
89486W        W49022  42.357  43.955   3.156
89487W        W49023  22.563  20.688  11.901
89488W        W49024  39.016  21.543  11.908
89489W        W49025   0.477  33.928   0.467
89490W        W49026  26.186  16.120  10.533
89491W        W49027  30.527  14.308   1.724
89492W        W49028  36.976   3.758   0.250
89493W        W49029  12.223  21.599  13.804
89494W        W49030  13.739  16.775   1.773
89495W        W49031  11.234  17.073   3.356
89496W        W49032   6.823  19.187  12.860
89497W        W49033  41.887  17.293  10.995
89498W        W49034  38.921  42.028  10.495
89499W        W49035  37.887  14.711  14.993
89500W        W49036  22.184  35.879  13.444
89501W        W49037  34.094   6.300   0.471
89502W        W49038  34.475  10.868   2.675
89503W        W49039  38.427  28.142  10.956
89504W        W49040  28.668  22.098   3.721
89505W        W49041  21.042  31.017  11.074
89506W        W49042  41.920  39.511   4.615
89507W        W49043  28.518  35.107   4.192
89508W        W49044  44.826  33.980   1.292
89509W        W49045   5.331   9.173  13.041
89510W        W49046   1.406  25.703  13.461
89511W        W49047  25.525  32.474  11.591
89512W        W49048   9.843  38.883  13.869
89513W        W49049  26.659  33.592   0.803
89514W        W49050  40.928   7.279   2.732
89515W        W49051  13.141  24.677  11.561
89516W        W49052  30.650   1.954  14.515
89517W        W49053  40.978  20.097  13.358
89518W        W49054  16.216  23.628   0.384
89519W        W49055  25.622  14.625   2.780
89520W        W49056  19.775   9.798   1.264
89521W        W49057  35.878  21.112  13.009
89522W        W49058  12.829   7.850   2.714
89523W        W49059   5.371  39.463   0.356
89524W        W49060  40.877  28.499  13.950
89525W        W49061  12.834  32.139   2.342
89526W        W49062  41.521   4.841  13.399
89527W        W49063  40.037  41.903   4.630
89528W        W49064  20.215  22.582  13.504
89529W        W49065  29.121  20.116  10.934
89530W        W49066  44.334  26.045  12.016
89531W        W49067   5.220  27.157  13.961
89532W        W49068  44.410  27.622   3.855
89533W        W49069   8.224  10.765  12.442
89534W        W49070  33.582  35.888  10.916
89535W        W49071  28.179  31.491  12.389
89536W        W49072  31.543   7.888  14.355
89537W        W49073  26.044   4.356   2.809
89538W        W49074   4.312  14.654  10.543
89539W        W49075   5.739  15.253  14.341
89540W        W49076   3.930  21.574   2.868
89541W        W49077  36.474  29.154   0.815
89542W        W49078   2.846   3.942   4.292
89543W        W49079  31.578  42.417  13.848
89544W        W49080  14.200  10.815  11.411
89545W        W49081  27.639  37.360  11.005
89546W        W49082  23.231  19.179   4.742
89547W        W49083   1.301  30.041  10.009
89548W        W49084  21.685  22.224  10.939
89549W        W49085  26.652  14.688  12.558
89550W        W49086  13.200  33.454   3.334
89551W        W49087  25.161   9.862  14.868
89552W        W49088  38.865   1.875   9.638
89553W        W49089  15.263  41.833   4.287
89554W        W49090  14.606   7.770   1.442
89555W        W49091  31.554  37.535   4.242
89556W        W49092  40.913  27.607  13.380
89557W        W49093  15.606  32.902   4.685
89558W        W49094   3.413  22.734   1.231
89559W        W49095  21.644  22.018   9.957
89560W        W49096   1.786  38.824  10.460
89561W        W49097   0.336  44.445   2.759
89562W        W49098  25.036  20.179  12.985
89563W        W49099  27.110  42.492  14.428
89564W        W49100  12.821  10.333   2.833
89565W        W49101  41.344  25.998  13.914
89566W        W49102  15.088  28.057   1.337
89567W        W49103  40.384   6.786  14.427
89568W        W49104  18.578  35.987   1.731
89569W        W49105   6.349   3.815  11.030
89570W        W49106  20.037   7.755   5.242
89571W        W49107  15.774  23.587   2.236
89572W        W49108  37.498  17.135   4.139
89573W        W49109  34.515  11.336   2.853
89574W        W49110  27.105  21.126   1.226
89575W        W49111  17.631  37.469   0.754
89576W        W49112  29.518  15.298   2.862
89577W        W49113  20.633   9.723  13.462
89578W        W49114  21.079  20.692  12.057
89579W        W49115  21.104  27.576  13.437
89580W        W49116  42.785  30.947  13.014
89581W        W49117   9.285  31.534   2.244
89582W        W49118  28.457   0.938  10.494
89583W        W49119  28.439  25.688   3.351
89584W        W49120  28.611  15.586  14.411
89585W        W49121  13.737  29.459   2.324
89586W        W49122  13.200  22.581  11.552
89587W        W49123  44.364  36.458   4.166
89588W        W49124  11.750  25.676  14.380
89589W        W49125   0.435  33.451   1.865
89590W        W49126  31.612  44.426   3.649
89591W        W49127  37.921  13.245  14.516
89592W        W49128   4.730  25.994  13.453
89593W        W49129  36.043   8.836   2.374
89594W        W49130  10.865  12.139   1.370
89595W        W49131  10.702  34.608   3.659
89596W        W49132   8.381  12.154  12.539
89597W        W49133  16.619  16.134   1.219
89598W        W49134   2.244  43.019  12.017
89599W        W49135  39.045   2.227   5.148
89600W        W49136  25.470  44.477   1.212
89601W        W49137  36.410  21.513  10.426
89602W        W49138   3.765  28.152  12.923
89603W        W49139  24.554  22.211   0.248
89604W        W49140   1.796  21.209  11.048
89605W        W49141  32.601  41.532   0.943
89606W        W49142  23.186  35.490  12.017
89607W        W49143  24.104  34.938   2.718
89608W        W49144   6.789   8.406  14.426
89609W        W49145  36.382   8.865   2.257
89610W        W49146  22.009  38.873   2.197
89611W        W49147   0.967  19.763  10.026
89612W        W49148  37.553  17.639   1.435
89613W        W49149  15.773  10.661   4.136
89614W        W49150  11.216  24.678   1.877
89615W        W49151  16.168  19.686   4.235
89616W        W49152   1.975  15.798  10.488
89617W        W49153  33.530  27.102  14.406
89618W        W49154  41.939  12.727  13.427
89619W        W49155   9.889  39.839   3.695
89620W        W49156   7.397  24.111   0.967
89621W        W49157  31.976  33.981   1.876
89622W        W49158  13.340  17.663   1.914
89623W        W49159   9.733  14.674  10.517
89624W        W49160  44.431  38.338   1.218
89625W        W49161  43.943  29.974  11.070
89626W        W49162  37.516   6.181  13.533
89627W        W49163  14.278   7.243  11.992
89628W        W49164  41.880   2.791   4.783
89629W        W49165  33.063  43.381  14.760
89630W        W49166  27.464  23.075   0.329
89631W        W49167   2.960  29.501  11.382
89632W        W49168  21.718   2.309   2.377
89633W        W49169  17.789  21.710   3.216
89634W        W49170  22.240  23.723  13.799
89635W        W49171   6.339  35.937  13.906
89636W        W49172  37.503  37.508   1.920
89637W        W49173   8.683  21.624   4.176
89638W        W49174  16.697  15.328  11.961
89639W        W49175   0.403   0.829   4.727
89640W        W49176   0.914  15.099   9.631
89641W        W49177  39.422  19.577   2.848
89642W        W49178  30.928  11.298  11.941
89643W        W49179  41.505  17.210  14.290
89644W        W49180   4.206   3.904   1.421
89645W        W49181  11.656  41.375   4.771
89646W        W49182  27.531  38.326   0.277
89647W        W49183  10.771   6.291  12.394
89648W        W49184  23.671  33.401   3.742
89649W        W49185  14.712  20.246   3.346
89650W        W49186  11.752   0.852   2.763
89651W        W49187  31.981  37.422  14.404
89652W        W49188   9.169  38.376  14.321
89653W        W49189   5.315  27.663   9.953
89654W        W49190  34.960  18.105  13.454
89655W        W49191   8.812  26.511  14.015
89656W        W49192   7.222  24.086  13.913
89657W        W49193   5.263  32.982   1.888
89658W        W49194  20.096  18.248  13.468
89659W        W49195  40.989   4.908   2.894
89660W        W49196  21.063  26.608   2.377
89661W        W49197  31.056  18.596   3.302
89662W        W49198  33.618  11.726   5.204
89663W        W49199  19.778  19.057  14.910
89664W        W49200  36.386  13.276   0.740
89665W        W49201   6.403  39.437   2.735
89666W        W49202  41.379  27.040   3.385
89667W        W49203  36.581  43.984  14.902
89668W        W49204  34.036  32.890   2.357
89669W        W49205  32.524  29.637  12.990
89670W        W49206   7.912  31.585   1.808
89671W        W49207  10.875  15.158  12.533
89672W        W49208  31.551  25.503   2.711
89673W        W49209  39.522  43.381   1.382
89674W        W49210  44.792  30.500   1.333
89675W        W49211  27.030  27.448  11.539
89676W        W49212  44.878   2.928   3.200
89677W        W49213   6.916  18.266   3.309
89678W        W49214  37.503   9.175   4.285
89679W        W49215   5.218  33.622   3.171
89680W        W49216   2.273  36.451   0.367
89681W        W49217  42.377  32.074  13.896
89682W        W49218  39.863  24.662   1.713
89683W        W49219  33.879  26.542  13.343
89684W        W49220  38.043  33.390   2.868
89685W        W49221  17.077  14.758   2.225
89686W        W49222  31.056  37.923  13.942
89687W        W49223  33.464   4.819  14.456
89688W        W49224  18.731  10.188   3.842
89689W        W49225  35.931  44.973  10.935
89690W        W49226  15.318  31.031  10.480
89691W        W49227  13.220  42.031   1.330
89692W        W49228  17.785  44.841   3.347
89693W        W49229  38.956  38.038  13.419
89694W        W49230  30.093  32.567   4.628
89695W        W49231  18.159  43.416   4.704
89696W        W49232  22.998  37.962   1.219
89697W        W49233  32.898  14.699   0.880
89698W        W49234   7.839   1.853  13.892
89699W        W49235  38.051   9.359   2.791
89700W        W49236   6.212  10.137   1.748
89701W        W49237   8.814  18.070   3.173
89702W        W49238  19.123  40.371   1.792
89703W        W49239  40.990  10.175   2.284
89704W        W49240  26.649  21.087   0.478
89705W        W49241  21.235  25.169  11.489
89706W        W49242  26.123  21.663   9.569
89707W        W49243  11.837  28.635  11.381
89708W        W49244  42.840  11.820  11.871
89709W        W49245  26.063  39.377  14.493
89710W        W49246  44.949  30.624  12.380
89711W        W49247  29.624  42.487   2.799
89712W        W49248   1.397  10.219   2.727
89713W        W49249  20.199   0.257  11.112
89714W        W49250  27.565  13.696   4.666
89715W        W49251  34.889  30.469  14.304
89716W        W49252  42.782  33.569   4.603
89717W        W49253  39.984   3.840  11.043
89718W        W49254  30.503  19.622   0.776
89719W        W49255   0.781  14.801   2.185
89720W        W49256   8.733  25.678   0.833
89721W        W49257  27.565  41.980   1.708
89722W        W49258  20.240  27.464   0.460
89723W        W49259  26.206  37.033  14.955
89724W        W49260  19.272   4.328  14.385
89725W        W49261  39.897  14.673  11.466
89726W        W49262  20.190  41.336   3.667
89727W        W49263  23.134  23.579   3.684
89728W        W49264  27.014  16.682  14.777
89729W        W49265  21.107  39.903  10.404
89730W        W49266  25.972  11.274   2.295
89731W        W49267  35.913  39.974  11.918
89732W        W49268  17.613  44.763  13.871
89733W        W49269  41.328  25.149  10.454
89734W        W49270  42.854  20.620   1.777
89735W        W49271  30.011   9.854  12.888
89736W        W49272  10.353  44.459   2.753
89737W        W49273   1.881  22.714   1.809
89738W        W49274  18.137  41.301  11.089
89739W        W49275   9.311  32.430   4.127
89740W        W49276  15.760  11.339   0.310
89741W        W49277  16.808  25.614   1.433
89742W        W49278   7.728  15.198   3.214
89743W        W49279  37.933  14.233  14.870
89744W        W49280  26.632   0.252   2.210
89745W        W49281  28.030  27.043   4.255
89746W        W49282  42.854  24.222  10.570
89747W        W49283   5.813  18.083  13.376
89748W        W49284  33.467  30.467   0.861
89749W        W49285  21.585  37.921  13.916
89750W        W49286  18.769  22.518   1.915
89751W        W49287   2.314  42.821   3.646
89752W        W49288   0.321  10.746   5.245
89753W        W49289   8.255  22.560  11.908
89754W        W49290  25.590  24.200  14.839
89755W        W49291  34.052  33.395   2.292
89756W        W49292  39.885  19.540  13.002
89757W        W49293  32.474   3.432   3.339
89758W        W49294  19.625  36.484   2.736
89759W        W49295  17.590   1.874  13.867
89760W        W49296  19.279   7.749   2.764
89761W        W49297  21.570   6.685  14.002
89762W        W49298  15.621  31.485  10.474
89763W        W49299  12.639   2.333   1.833
89764W        W49300  41.379  25.519  13.513
89765W        W49301  34.882  15.787  13.328
89766W        W49302  15.693  42.516   1.910
89767W        W49303   7.894  32.126   0.906
89768W        W49304  29.131  14.763   2.868
89769W        W49305  44.962  22.718  11.410
89770W        W49306  42.341  15.669   0.283
89771W        W49307  10.184  34.029   4.807
89772W        W49308  30.655  11.666   3.673
89773W        W49309  25.701  11.279  14.948
89774W        W49310  43.407  41.425   5.215
89775W        W49311  24.180  32.517   2.307
89776W        W49312  26.971   6.207  13.797
89777W        W49313   1.359  13.685   0.467
89778W        W49314  21.038  14.670   1.834
89779W        W49315   5.755   5.348  12.072
89780W        W49316  34.080  41.518   0.893
89781W        W49317  29.441  21.046   0.365
89782W        W49318  27.075   3.955   1.402
89783W        W49319  18.164  14.096   3.812
89784W        W49320   7.907   8.322  10.922
89785W        W49321  11.335  28.026   2.673
89786W        W49322   1.767  11.860   3.764
89787W        W49323  18.768   8.814  10.404
89788W        W49324   5.733  11.171  12.033
89789W        W49325  36.927  41.528  14.776
89790W        W49326   7.710  38.909  11.558
89791W        W49327   2.738  36.546  10.520
89792W        W49328  14.131  32.031  12.993
89793W        W49329  11.251  42.966   5.096
89794W        W49330  12.764  33.966  14.350
89795W        W49331  42.455   8.336  12.412
89796W        W49332   5.269   8.721   3.676
89797W        W49333  13.107  22.176   0.373
89798W        W49334  43.927   8.698  12.521
89799W        W49335  15.087  31.539  13.448
89800W        W49336  25.215  16.179  13.976
89801W        W49337   6.361  34.895  13.804
89802W        W49338   8.750  42.934   0.894
89803W        W49339  25.557  30.113   4.207
89804W        W49340  38.980  26.976   4.156
89805W        W49341  18.715  35.565  11.976
89806W        W49342  24.995   7.882   2.803
89807W        W49343   2.446  41.868  13.830
89808W        W49344  43.821  12.688   3.183
89809W        W49345  36.390  14.652   0.835
89810W        W49346  41.908  43.974   4.303
89811W        W49347  41.301  20.755  14.930
89812W        W49348  27.028  16.294   0.424
89813W        W49349  22.156  18.113   3.213
89814W        W49350  17.674  34.374   1.300
89815W        W49351  42.877   5.230   3.665
89816W        W49352   8.700  34.885  14.835
89817W        W49353   8.893  12.855   4.830
89818W        W49354  19.720  31.428  14.900
89819W        W49355  26.676  29.993   2.245
89820W        W49356  23.633  31.963   3.379
89821W        W49357  43.832  29.443   2.313
89822W        W49358   6.326  26.676  11.053
89823W        W49359  43.316  43.894  12.545
89824W        W49360  42.476   2.252  14.912
89825W        W49361  14.095  20.209  10.459
89826W        W49362  11.740  33.009   0.319
89827W        W49363  41.445   3.725  12.076
89828W        W49364  24.543   1.344  10.458
89829W        W49365   7.877  28.087   3.690
89830W        W49366  29.089  31.510  11.926
89831W        W49367  20.160  37.550   0.917
89832W        W49368   1.870  12.615   1.357
89833W        W49369   9.359  27.541   5.137
89834W        W49370   3.942  30.969   1.266
89835W        W49371  16.656  17.157   3.304
89836W        W49372  20.638  44.782  11.564
89837W        W49373  17.745  39.060  11.028
89838W        W49374  41.977  43.940   3.680
89839W        W49375  22.651  34.052   3.842
89840W        W49376  25.592  10.241   4.730
89841W        W49377  21.561  29.563  14.390
89842W        W49378   2.461   7.710  11.098
89843W        W49379  29.525   9.164  12.416
89844W        W49380  19.256  29.085   4.247
89845W        W49381  37.887  11.253   2.731
89846W        W49382  23.624  36.863  14.419
89847W        W49383  23.228  27.105  12.560
89848W        W49384   1.873  44.305   0.840
89849W        W49385  38.528  41.487  12.977
89850W        W49386  12.673  32.979   2.843
89851W        W49387  17.173  21.656   0.341
89852W        W49388  11.642  42.340  14.421
89853W        W49389  26.018  39.920   3.774
89854W        W49390   7.201   9.869   1.338
89855W        W49391  23.724  34.385   5.243
89856W        W49392  34.410   7.724  11.497
89857W        W49393  32.636  32.912  11.098
89858W        W49394  12.144  18.723   0.285
89859W        W49395   2.768  30.007  10.998
89860W        W49396  44.971  37.986   4.728
89861W        W49397  26.126  20.050  14.392
89862W        W49398   8.268  33.405   1.297
89863W        W49399  33.545  31.626  13.933
89864W        W49400  43.415  19.107   2.896
89865W        W49401  18.657  19.533   1.843
89866W        W49402   3.820  37.018   1.396
89867W        W49403   9.152  25.096   0.271
89868W        W49404  29.933   3.801  10.582
89869W        W49405  10.692  29.938   1.925
89870W        W49406  31.998  35.918  11.597
89871W        W49407  39.015  21.579   4.711
89872W        W49408  38.496   3.306  12.535
89873W        W49409  23.564  36.550  11.998
89874W        W49410   4.938  18.242   0.896
89875W        W49411   2.786  27.596  10.147
89876W        W49412  39.328  28.555  12.823
89877W        W49413  36.509  20.526   2.773
89878W        W49414  23.717  32.024   4.816
89879W        W49415  39.874  27.979  12.858
89880W        W49416  35.432  10.872  14.030
89881W        W49417  13.164  30.055   4.765
89882W        W49418   5.877  26.541   9.437
89883W        W49419  16.767  24.618   1.315
89884W        W49420  21.678  34.379   3.719
89885W        W49421  19.079  34.065  14.939
89886W        W49422  37.365   4.237  11.899
89887W        W49423  20.681  17.301   4.635
89888W        W49424   7.851  23.992   4.166
89889W        W49425  27.974  38.058  12.052
89890W        W49426  17.130  34.933   4.640
89891W        W49427  40.526   9.801   0.315
89892W        W49428   1.908  33.031   0.778
89893W        W49429  44.875  27.078  14.858
89894W        W49430  27.156  15.206  12.501
89895W        W49431  36.961   4.771   3.829
89896W        W49432  14.775   2.308  13.843
89897W        W49433  34.064  31.628   1.914
89898W        W49434   9.262  42.420  12.518
89899W        W49435  38.933  22.611  14.902
89900W        W49436   4.715  16.104   0.868
89901W        W49437  11.864   5.338   1.894
89902W        W49438   2.906  10.767  13.852
89903W        W49439  24.622  23.606  11.040
89904W        W49440  28.678  16.720   0.451
89905W        W49441  14.721  38.564   1.277
89906W        W49442  40.390   0.876  13.386
89907W        W49443  18.695  18.664  13.450
89908W        W49444  39.828  22.155   1.875
89909W        W49445  15.279  32.456  14.418
89910W        W49446   5.832  36.875   3.693
89911W        W49447  21.167  16.085   4.746
89912W        W49448  32.501  24.135   2.309
89913W        W49449   9.334   0.455   3.869
89914W        W49450  32.537   5.928   4.298
89915W        W49451  21.022  24.701  10.918
89916W        W49452   9.888  10.721  11.609
89917W        W49453  11.644  16.155   2.765
89918W        W49454  12.758   5.403   2.869
89919W        W49455  19.760   9.332  10.624
89920W        W49456  23.194  23.216   4.349
89921W        W49457  13.640  18.790   1.699
89922W        W49458   3.805  10.798  14.474
89923W        W49459  11.817  31.454  10.451
89924W        W49460  36.533   1.353   2.280
89925W        W49461  32.458  36.865   1.749
89926W        W49462  36.536  32.611  12.864
89927W        W49463   7.229  35.072  13.000
89928W        W49464  11.172  35.853  12.958
89929W        W49465  19.157  23.555   5.097
89930W        W49466  29.669  14.622   4.600
89931W        W49467   8.273  33.578   3.808
89932W        W49468  21.557  17.120   0.962
89933W        W49469  38.956  19.077   4.341
89934W        W49470  44.760  12.171  11.017
89935W        W49471  41.796  19.736  14.461
89936W        W49472  28.966  15.188  12.943
89937W        W49473  31.133  44.405  11.914
89938W        W49474   7.722   1.395   0.332
89939W        W49475  31.122  35.477  13.944
89940W        W49476  40.433   2.416   0.332
89941W        W49477   6.387  37.466  14.895
89942W        W49478  35.467  17.124  11.572
89943W        W49479  17.152  34.568   1.397
89944W        W49480  29.473  10.280   3.241
89945W        W49481   3.794  39.913  12.919
89946W        W49482  15.240  15.683   1.210
89947W        W49483  37.959  15.627  10.449
89948W        W49484  18.609   3.821  14.969
89949W        W49485  33.379  14.274   0.874
89950W        W49486  38.019   6.232  14.993
89951W        W49487  23.669  33.403   1.920
89952W        W49488  31.453  16.768   3.692
89953W        W49489  26.611  39.496  13.811
89954W        W49490  39.970  39.919  11.404
89955W        W49491  16.073  22.567  14.460
89956W        W49492   2.432  43.795  13.479
89957W        W49493   7.277   6.762   4.642
89958W        W49494  18.225   7.250   4.306
89959W        W49495   0.811  16.183  13.046
89960W        W49496  11.370  27.947   4.270
89961W        W49497  15.282  39.869  14.922
89962W        W49498  41.925  14.229   4.169
89963W        W49499   4.755  24.214   1.816
89964W        W49500   1.766  37.941   3.835
89965W        W49501   1.824  41.789  12.017
89966W        W49502   0.828   2.877  13.796
89967W        W49503  34.056  36.853   0.941
89968W        W49504  33.389  36.357   3.642
89969W        W49505  41.530   9.714  10.945
89970W        W49506   0.914  13.832   0.442
89971W        W49507  37.856  41.002  14.841
89972W        W49508   8.236  26.689   1.777
89973W        W49509  25.117  18.678  10.966
89974W        W49510   3.902  17.713  10.450
89975W        W49511   5.265  11.263  12.007
89976W        W49512  11.622  40.923  12.369
89977W        W49513  19.645  19.709  14.377
89978W        W49514  36.581  39.513  13.835
89979W        W49515   4.756  20.161   0.428
89980W        W49516  25.976  14.100  11.536
89981W        W49517  18.190   9.693  10.608
89982W        W49518  27.178   3.921   4.326
89983W        W49519  39.974  31.415  12.060
89984W        W49520  18.099  23.555  10.540
89985W        W49521  12.219  43.383   1.385
89986W        W49522  24.210  13.651  12.846
89987W        W49523   0.833   9.274  10.620
89988W        W49524  39.878   7.297   4.738
89989W        W49525   3.245  20.620   4.617
89990W        W49526   4.347  19.755   0.864
89991W        W49527  24.051  32.397   3.161
89992W        W49528  14.249  36.071  12.090
89993W        W49529  25.211  21.724  14.948
89994W        W49530  31.472  35.095   2.329
89995W        W49531  14.290  37.869  13.064
89996W        W49532  23.121   5.853   2.696
89997W        W49533  17.641  30.433   1.813
89998W        W49534  19.107  42.842   1.408
89999W        W49535  40.919  40.490  11.063
90000W        W49536  44.430  33.536   0.366
90001W        W49537  40.881  34.468   2.312
90002W        W49538  37.382  40.457   1.362
90003W        W49539  25.550  29.604   0.312
90004W        W49540   2.383  30.653  10.109
90005W        W49541   2.925  28.946   0.753
90006W        W49542   9.818  38.476  10.901
90007W        W49543   3.453  34.465  14.023
90008W        W49544  11.362  19.594   4.241
90009W        W49545  11.331  39.916  11.883
90010W        W49546  23.494  21.680   0.927
90011W        W49547  32.493  26.180  14.018
90012W        W49548  44.851  15.291  13.036
90013W        W49549  15.120  20.745   2.703
90014W        W49550  31.530  29.950  13.350
90015W        W49551  24.085   9.718   0.394
90016W        W49552  30.007  35.525  13.925
90017W        W49553  34.981  18.145   4.170
90018W        W49554  26.109  40.508  13.439
90019W        W49555  30.915  14.681  10.910
90020W        W49556  37.400  12.625  14.830
90021W        W49557  32.566  33.540   3.179
90022W        W49558  23.072  31.449   1.865
90023W        W49559  24.487   3.319  12.387
90024W        W49560  41.977  41.894  13.337
90025W        W49561  23.200  23.614   3.259
90026W        W49562  20.084  41.934   1.903
90027W        W49563   5.742  37.879   4.754
90028W        W49564   3.218   6.239  11.403
90029W        W49565   3.795  10.817   3.372
90030W        W49566  30.528  42.287   2.379
90031W        W49567  32.097   6.784  14.857
90032W        W49568  28.607  14.234   1.761
90033W        W49569  39.997  35.454  11.950
90034W        W49570  17.158  22.675  13.877
90035W        W49571  41.496  27.463   4.240
90036W        W49572  34.479  26.179   3.190
90037W        W49573  19.771  35.900  13.846
90038W        W49574  31.412  14.181   3.641
90039W        W49575  10.858  17.221  13.798
90040W        W49576  37.993  33.031  11.520
90041W        W49577  18.106  17.157  11.911
90042W        W49578   8.889  41.495   0.812
90043W        W49579   3.774   1.876   4.344
90044W        W49580  11.349  33.067   4.837
90045W        W49581  41.017  14.742   0.308
90046W        W49582  19.724  14.812  10.540
90047W        W49583   8.771  25.483  11.087
90048W        W49584   3.270  20.696  13.508
90049W        W49585   7.856  34.058   1.771
90050W        W49586  38.843  33.473   5.288
90051W        W49587  37.503  14.756   0.366
90052W        W49588  28.162  32.453  12.402
90053W        W49589   2.957   1.433   2.817
90054W        W49590  28.522  29.576  12.533
90055W        W49591  25.086  36.080   3.241
90056W        W49592  33.504   3.409   1.819
90057W        W49593   9.833  11.309   1.221
90058W        W49594  11.739  12.736  13.884
90059W        W49595  10.145  15.661  12.365
90060W        W49596  17.742  18.101  14.332
90061W        W49597  30.421  13.275   4.159
90062W        W49598  14.636  24.141   4.335
90063W        W49599  40.403   7.232  11.519
90064W        W49600  31.626  10.249  13.399
90065W        W49601  14.296  34.036  13.905
90066W        W49602  24.184   8.768   0.956
90067W        W49603   0.785  15.639  13.543
90068W        W49604  42.500  30.506   2.721
90069W        W49605  15.590  11.849  14.351
90070W        W49606  44.872  15.685   0.903
90071W        W49607  19.093   8.282  13.817
90072W        W49608  20.169  21.551   1.782
90073W        W49609  42.928  43.305   1.870
90074W        W49610  41.365  42.019  12.887
90075W        W49611  15.625  42.889  12.487
90076W        W49612  25.671  39.525   1.425
90077W        W49613  10.767  36.013   1.447
90078W        W49614   6.370  18.229   1.361
90079W        W49615   4.716  29.662  14.469
90080W        W49616  26.678  19.046   4.814
90081W        W49617   5.894  10.299  10.967
90082W        W49618   8.674  39.348   4.124
90083W        W49619  29.550   4.446   4.154
90084W        W49620  26.595  11.659  13.924
90085W        W49621  26.989  23.612  13.499
90086W        W49622   8.848  19.067   0.345
90087W        W49623   4.409  38.494   2.232
90088W        W49624  15.705  39.019  14.862
90089W        W49625  10.174  19.156  14.961
90090W        W49626  11.129   8.655   4.206
90091W        W49627  35.591  40.941  12.483
90092W        W49628   4.351  43.913   4.604
90093W        W49629   4.922  17.643   3.184
90094W        W49630   3.948  27.516   1.302
90095W        W49631  11.806  15.679  10.644
90096W        W49632   6.315   6.709   0.953
90097W        W49633  14.196  42.501  11.589
90098W        W49634  37.400  26.027   1.797
90099W        W49635  36.577  35.854  14.989
90100W        W49636  25.469  31.127   0.960
90101W        W49637  10.254  38.555  10.999
90102W        W49638  43.825  11.636   2.899
90103W        W49639  15.667  23.101  10.446
90104W        W49640  28.581  40.544  11.978
90105W        W49641  35.358   6.186  12.404
90106W        W49642  16.141  25.586   4.211
90107W        W49643   9.654   1.863   2.397
90108W        W49644  20.641  17.174  11.980
90109W        W49645  22.122  29.097  10.475
90110W        W49646  34.056  12.229  11.874
90111W        W49647  23.581  44.900   2.274
90112W        W49648  22.667  39.559   1.812
90113W        W49649  14.251   0.909  14.949
90114W        W49650  37.552  18.224  12.351
90115W        W49651  10.301  17.654   0.445
90116W        W49652  19.750  23.157   1.306
90117W        W49653  12.653  33.445  13.061
90118W        W49654  41.475  18.233   4.656
90119W        W49655  35.493  41.003  14.390
90120W        W49656  25.697  24.170   2.899
90121W        W49657   0.343  36.098  11.104
90122W        W49658   1.409  23.670   1.741
90123W        W49659  16.277  33.022   1.794
90124W        W49660  15.125  29.633  13.964
90125W        W49661  42.345  25.643   4.792
90126W        W49662   8.213   6.728   5.683
90127W        W49663  15.620   9.295  14.399
90128W        W49664   9.239   9.880   2.866
90129W        W49665  31.427  33.427   1.925
90130W        W49666   8.403  42.865   0.853
90131W        W49667  31.897  10.271   5.105
90132W        W49668  42.512  33.095  14.941
90133W        W49669   3.750   4.388   4.716
90134W        W49670  43.396  25.001  14.911
90135W        W49671  44.498  34.578   4.223
90136W        W49672   0.751  15.677  14.817
90137W        W49673  28.661  23.563   2.724
90138W        W49674  30.070  39.324  12.484
90139W        W49675  20.163  37.541  13.850
90140W        W49676  19.542  17.226   5.255
90141W        W49677  42.527   6.818   0.278
90142W        W49678  25.544  33.875   3.306
90143W        W49679  29.973  10.228   1.728
90144W        W49680  36.591  37.519   1.831
90145W        W49681   2.377  42.859  14.403
90146W        W49682  12.735  25.526   0.837
90147W        W49683  40.878  25.603   0.737
90148W        W49684  36.869  40.530   2.402
90149W        W49685   8.660  30.518  14.379
90150W        W49686   7.260   9.879  13.479
90151W        W49687  31.937  22.055   5.114
90152W        W49688  10.139  41.320  14.931
90153W        W49689  20.691  42.982   2.875
90154W        W49690  33.969   1.316  13.464
90155W        W49691   9.755  44.400   4.808
90156W        W49692  43.981  42.816   2.813
90157W        W49693  13.214  12.624  11.890
90158W        W49694  41.337  22.605   1.391
90159W        W49695  43.272  37.429   0.908
90160W        W49696  26.969   3.800   0.452
90161W        W49697  18.150  40.541  12.829
90162W        W49698  27.570  11.666  13.320
90163W        W49699  39.055   8.196  13.349
90164W        W49700  29.579  22.026  14.349
90165W        W49701  43.420  33.052   2.322
90166W        W49702  43.981  13.669  11.089
90167W        W49703  29.109  18.729  14.509
90168W        W49704   4.850  25.607   4.690
90169W        W49705  40.546  44.957   3.765
90170W        W49706  14.247  44.484   1.350
90171W        W49707   0.376  24.505   4.353
90172W        W49708  40.358  25.143  14.876
90173W        W49709  22.204  16.192  13.513
90174W        W49710   2.941   7.395  10.411
90175W        W49711   9.713  34.482  14.758
90176W        W49712  39.356  20.735   1.883
90177W        W49713  23.500   5.895  12.850
90178W        W49714  20.713  31.520   3.676
90179W        W49715  22.158  39.390   1.435
90180W        W49716  19.744  19.051   1.853
90181W        W49717  17.765   2.321  14.825
90182W        W49718  12.258   5.275  13.909
90183W        W49719  25.167   0.369   4.680
90184W        W49720  14.300  21.632  10.428
90185W        W49721  15.112  43.496  12.985
90186W        W49722  27.061  22.183   4.122
90187W        W49723  21.685   4.258   0.877
90188W        W49724  23.113   3.740   3.286
90189W        W49725  27.101  26.105   1.906
90190W        W49726   6.873  35.877   1.423
90191W        W49727  31.102   5.317   0.248
90192W        W49728  42.780  37.879  13.426
90193W        W49729  13.763  13.652  11.478
90194W        W49730  44.380  25.139   5.166
90195W        W49731  13.218  28.471   0.879
90196W        W49732  18.284  39.351   0.875
90197W        W49733  29.507  34.958   2.397
90198W        W49734  30.659  24.193   2.751
90199W        W49735  11.758   6.755   0.964
90200W        W49736  20.604  44.273   1.701
90201W        W49737  13.284  21.148  14.782
90202W        W49738  24.000  24.104   3.211
90203W        W49739  18.073   1.374   4.149
90204W        W49740  37.356  15.153  14.304
90205W        W49741  41.860  37.568  12.516
90206W        W49742  43.435   5.730  10.970
90207W        W49743  35.010   3.889   2.848
90208W        W49744  43.481   3.429   1.445
90209W        W49745  18.629   5.709   3.261
90210W        W49746  44.482  19.098   2.390
90211W        W49747  32.103  38.964  13.894
90212W        W49748  10.756  41.841  12.556
90213W        W49749  18.654   7.287   0.925
90214W        W49750  18.628  27.572   4.296
90215W        W49751  17.130  32.517  11.091
90216W        W49752  44.412  22.523   2.386
90217W        W49753  33.544  15.770   3.254
90218W        W49754  43.304  31.445   2.360
90219W        W49755  15.282  18.635  12.452
90220W        W49756   5.339  35.523  14.328
90221W        W49757  10.170  10.651  13.482
90222W        W49758  10.237  13.698  14.787
90223W        W49759  28.662  33.980  10.431
90224W        W49760  27.591  33.101  13.516
90225W        W49761  28.113   0.372   4.694
90226W        W49762  39.014   2.907  10.590
90227W        W49763   4.737  39.511   1.710
90228W        W49764  10.704  42.857  13.802
90229W        W49765   8.237   3.325  12.528
90230W        W49766  28.952   7.377   0.311
90231W        W49767  34.950   6.360  10.914
90232W        W49768   4.371  22.674  13.035
90233W        W49769  22.571  42.400  13.341
90234W        W49770  16.717  43.295  13.833
90235W        W49771  13.709  36.435   4.756
90236W        W49772  35.973   5.878   1.400
90237W        W49773  42.888  42.802   3.215
90238W        W49774   0.811  28.596  11.900
90239W        W49775  43.012  38.503  10.088
90240W        W49776  18.220  37.874  10.593
90241W        W49777  28.642   5.722   2.352
90242W        W49778   8.874  34.910  13.535
90243W        W49779  25.180  11.629  14.901
90244W        W49780  35.500  30.522  12.536
90245W        W49781  20.226  37.877  13.926
90246W        W49782  33.600  30.044   0.366
90247W        W49783   5.427  37.034   1.219
90248W        W49784  31.146  37.342  13.042
90249W        W49785  15.807  29.034   0.957
90250W        W49786  38.005  10.708   4.646
90251W        W49787  13.197  43.282   1.883
90252W        W49788  41.805  12.298   5.802
90253W        W49789  42.304  26.005  12.955
90254W        W49790  25.137  40.368  11.419
90255W        W49791  27.174  15.594   4.619
90256W        W49792  22.183   9.758  10.461
90257W        W49793  36.391  26.611   1.310
90258W        W49794   5.412   4.348  10.589
90259W        W49795  27.962  12.746  11.479
90260W        W49796  42.355  35.987   3.167
90261W        W49797   7.666  12.247  13.935
90262W        W49798  28.125  15.778   4.760
90263W        W49799  41.879   0.825  13.983
90264W        W49800  26.644   3.432   1.233
90265W        W49801  16.626  35.571   3.845
90266W        W49802  22.193   2.421  10.002
90267W        W49803  38.985  23.049  14.364
90268W        W49804  11.197   0.390   1.844
90269W        W49805  34.080  29.561   4.165
90270W        W49806  30.536  38.375  13.339
90271W        W49807  15.148  25.058   0.436
90272W        W49808  32.957   9.795   1.753
90273W        W49809   5.704  14.629   4.119
90274W        W49810   2.405   0.280  10.958
90275W        W49811  42.290   6.321  10.560
90276W        W49812   4.404  31.606   4.599
90277W        W49813  21.639  43.914  12.417
90278W        W49814  23.228  29.602   2.696
90279W        W49815   2.249  26.978   3.289
90280W        W49816  26.520   7.343   0.328
90281W        W49817   3.334  16.291  13.816
90282W        W49818  27.608  14.684  14.378
90283W        W49819  43.903  27.034   2.196
90284W        W49820  34.110  43.876  14.429
90285W        W49821  11.644  37.444   1.933
90286W        W49822  36.354   7.816  14.840
90287W        W49823  32.568  39.468  11.106
90288W        W49824  31.491  34.459  13.392
90289W        W49825  15.669   8.833  11.435
90290W        W49826  23.175  38.954  13.443
90291W        W49827   4.423  12.344   4.229
90292W        W49828  19.134  39.405   4.287
90293W        W49829  18.670  20.238  10.028
90294W        W49830  20.562  14.218  10.562
90295W        W49831  12.118   0.813  10.898
90296W        W49832  18.754  30.638   3.761
90297W        W49833  34.561  39.523   2.778
90298W        W49834  14.149  34.592  10.451
90299W        W49835  27.188  25.639  14.919
90300W        W49836  20.684  23.032   0.953
90301W        W49837  37.357  40.833  14.461
90302W        W49838  36.443  37.463  12.533
90303W        W49839   1.860   4.750   3.333
90304W        W49840  41.890  43.421  12.539
90305W        W49841  17.158  38.413   2.409
90306W        W49842  37.009   1.315   4.175
90307W        W49843  10.763  23.091  14.820
90308W        W49844  14.594  31.467  10.905
90309W        W49845  13.740  26.531  13.899
90310W        W49846   2.747  38.863  13.942
90311W        W49847  13.234   1.781   0.415
90312W        W49848  17.111  12.752   5.278
90313W        W49849   1.360   8.711  11.380
90314W        W49850   4.828  12.697  14.765
90315W        W49851  16.248  23.993   1.834
90316W        W49852   3.754  29.567  11.482
90317W        W49853  10.783  24.496  10.972
90318W        W49854  14.165  11.795   1.722
90319W        W49855   3.373   2.400  10.461
90320W        W49856  23.572  29.490  10.972
90321W        W49857   8.882  16.190   3.382
90322W        W49858  11.738  16.173   2.180
90323W        W49859  34.916  23.518  13.547
90324W        W49860  23.077  23.699  12.522
90325W        W49861   8.882  27.955  10.954
90326W        W49862  39.385  10.335   1.348
90327W        W49863  36.552   3.448   3.308
90328W        W49864   5.372  14.601   3.164
90329W        W49865   0.826  17.258  13.981
90330W        W49866   4.780  28.113   2.281
90331W        W49867  36.068  40.939   0.927
90332W        W49868  14.679  39.362  14.479
90333W        W49869  21.131  29.942  14.302
90334W        W49870  18.121  17.723   4.294
90335W        W49871  40.531   0.964   5.132
90336W        W49872  29.620   6.876   4.600
90337W        W49873  38.443  11.824   2.852
90338W        W49874  29.004  37.357  13.361
90339W        W49875  13.670   6.760  10.932
90340W        W49876  42.807   8.341  14.830
90341W        W49877  19.236   5.744  12.884
90342W        W49878  41.527   5.868  14.845
90343W        W49879  23.065  20.558   4.623
90344W        W49880  18.705   1.775   4.217
90345W        W49881   4.894  33.011  11.078
90346W        W49882  44.324  40.920   2.888
90347W        W49883  42.778   7.902  12.551
90348W        W49884  25.645  34.945  13.947
90349W        W49885  13.226  31.552  14.402
90350W        W49886  30.009  23.027   0.958
90351W        W49887   8.779  33.904  12.975
90352W        W49888  27.455  42.464   4.345
90353W        W49889  11.779   4.347   0.376
90354W        W49890  24.991  17.778   5.721
90355W        W49891  44.312  31.122   0.343
90356W        W49892  25.571  18.292   2.737
90357W        W49893   2.421  27.061   5.207
90358W        W49894  23.210  41.998  11.554
90359W        W49895  31.430  33.957  12.379
90360W        W49896  17.093   8.692  12.058
90361W        W49897  17.649   0.330   1.787
90362W        W49898  34.572  33.026   3.240
90363W        W49899   3.413  31.977  10.003
90364W        W49900  18.716  18.648  10.556
90365W        W49901  35.939  36.449   0.327
90366W        W49902  34.080   2.958   3.792
90367W        W49903   1.864  12.686  13.917
90368W        W49904  12.708  12.728  14.292
90369W        W49905  18.051  32.623  14.863
90370W        W49906   6.228  28.112   3.730
90371W        W49907  20.624  15.719   1.250
90372W        W49908   8.862   6.243  14.490
90373W        W49909  20.224  43.398  13.501
90374W        W49910  42.777  29.626   4.746
90375W        W49911  33.503  38.331   1.233
90376W        W49912   0.444  19.762  12.381
90377W        W49913   5.848  11.783  12.904
90378W        W49914   1.458  35.995   4.331
90379W        W49915  12.848  10.254  13.928
90380W        W49916  27.025  21.713  11.125
90381W        W49917  27.992   6.848   4.220
90382W        W49918  21.222   2.345   0.324
90383W        W49919  42.826  42.404  13.454
90384W        W49920  35.375  33.875   0.317
90385W        W49921   1.375   1.414   0.484
90386W        W49922  16.146   3.866   0.331
90387W        W49923   7.359  20.156  12.073
90388W        W49924   7.414  27.009  12.987
90389W        W49925   5.809  21.196   1.397
90390W        W49926  38.978  22.559  14.484
90391W        W49927   9.370  40.856   3.354
90392W        W49928  30.930  43.451   2.270
90393W        W49929  23.004  23.732  14.421
90394W        W49930  29.978  16.797  10.576
90395W        W49931   0.419  23.533   2.804
90396W        W49932   7.808  16.665  10.514
90397W        W49933  25.565  34.098   0.824
90398W        W49934  29.607  37.373   5.262
90399W        W49935  44.833  40.836  12.376
90400W        W49936  41.390  36.977  14.019
90401W        W49937  41.513  21.122  11.992
90402W        W49938  32.526  14.106  10.414
90403W        W49939  17.197  42.523  13.848
90404W        W49940  14.314  14.097   5.296
90405W        W49941  11.759  13.346  14.459
90406W        W49942   3.728  39.469  12.493
90407W        W49943   4.377  19.106   4.657
90408W        W49944   5.229  28.123  10.052
90409W        W49945  38.514   2.865   0.793
90410W        W49946  32.138  13.250  13.056
90411W        W49947  10.309  22.517  12.462
90412W        W49948  11.633  17.118   0.332
90413W        W49949  42.918  10.315  11.104
90414W        W49950  32.101  28.064   0.908
90415W        W49951  19.054  21.017  14.344
90416W        W49952  33.951  25.497   1.403
90417W        W49953  19.661  35.922   4.637
90418W        W49954   6.403  22.726   2.195
90419W        W49955  36.376  11.825   2.307
90420W        W49956  29.079   8.751   4.674
90421W        W49957   8.699  24.014   1.925
90422W        W49958  19.182  12.678   2.865
90423W        W49959  30.446   2.878  10.487
90424W        W49960  25.978  33.081   0.469
90425W        W49961  10.316  25.121   3.734
90426W        W49962  32.058  32.923   0.918
90427W        W49963  26.972  35.063   4.778
90428W        W49964   2.459  26.545   3.728
90429W        W49965   8.764  36.068   1.851
90430W        W49966  12.336  12.837  13.912
90431W        W49967   1.920  26.169  13.810
90432W        W49968  30.571   8.404  13.905
90433W        W49969  39.343  38.048  10.483
90434W        W49970  44.465  32.611   0.306
90435W        W49971  39.416  32.997  11.058
90436W        W49972  18.602   6.223  13.965
90437W        W49973  15.787  20.191   3.833
90438W        W49974  12.355   9.798  14.345
90439W        W49975  12.696   4.246  13.815
90440W        W49976   2.419  17.129   0.773
90441W        W49977   2.423   9.732  14.296
90442W        W49978  17.750   5.931  12.084
90443W        W49979  10.192  32.517   0.849
90444W        W49980  44.767  32.443   3.837
90445W        W49981  16.114  17.721  13.026
90446W        W49982  30.093  13.238  13.791
90447W        W49983  12.237  23.502  13.510
90448W        W49984  20.604  16.712  12.482
90449W        W49985  31.052  32.580  11.572
90450W        W49986  30.549  20.162  13.966
90451W        W49987  38.940  10.179   5.274
90452W        W49988  24.675  28.994   0.400
90453W        W49989  10.729   4.207   3.352
90454W        W49990  34.938   1.931   5.102
90455W        W49991  40.471  38.836   2.217
90456W        W49992  28.640  16.285   0.404
90457W        W49993  42.460  21.250  12.928
90458W        W49994  17.148  27.691   0.404
90459W        W49995  12.286  36.033  14.947
90460W        W49996   9.713  30.554  13.329
90461W        W49997  41.991   2.256  14.454
90462W        W49998  11.264  10.317  12.571
90463W        W49999  39.836  21.541  12.357
90464W        W50000  12.331  12.122   0.781
90465W        W50001  18.277  14.244   2.327
90466W        W50002  25.972  35.479  10.899
90467W        W50003  39.839   0.352   2.313
90468W        W50004  44.338   2.771   2.683
90469W        W50005   0.407  21.519   2.744
90470W        W50006  43.780  42.493  14.816
90471W        W50007  39.978   6.288  12.414
90472W        W50008  32.124  21.590   1.435
90473W        W50009   7.228  40.350  14.859
90474W        W50010  24.037  34.025  12.993
90475W        W50011   6.693  31.132   3.177
90476W        W50012  17.685  34.078  13.520
90477W        W50013  24.640  30.621  13.009
90478W        W50014  42.526  37.880   4.133
90479W        W50015  33.014   1.306   3.329
90480W        W50016  26.009  35.110  10.942
90481W        W50017  16.131  17.070   3.634
90482W        W50018  23.697  24.596  14.997
90483W        W50019  25.108  12.242  12.496
90484W        W50020  21.190  22.187   4.253
90485W        W50021  10.140  26.969  11.922
90486W        W50022  11.321   0.780   4.193
90487W        W50023  21.239  32.973  13.514
90488W        W50024  38.958  22.509   3.751
90489W        W50025  28.162  37.432  10.449
90490W        W50026   8.333  26.621  13.957
90491W        W50027  29.044  13.248   3.642
90492W        W50028   8.754   3.867  10.558
90493W        W50029  28.151  33.084  10.127
90494W        W50030   1.801  40.881   3.693
90495W        W50031  28.062   0.261  11.949
90496W        W50032  11.198  36.479   3.364
90497W        W50033  40.831   9.183  10.422
90498W        W50034  40.906  19.563  11.094
90499W        W50035  28.581  19.122  13.049
90500W        W50036  39.939  37.472  12.424
90501W        W50037  34.065  15.126  13.979
90502W        W50038  18.155  33.558   2.207
90503W        W50039  31.584  24.677  10.502
90504W        W50040  11.665  40.365   3.360
90505W        W50041  22.174  31.057   4.605
90506W        W50042   6.418  13.688   4.156
90507W        W50043  41.928  29.490  12.879
90508W        W50044  43.381  25.588  11.968
90509W        W50045  14.280  19.053   1.241
90510W        W50046  23.028   5.726   4.673
90511W        W50047   3.876   4.242  12.525
90512W        W50048  12.760  28.068  14.931
90513W        W50049   5.325  36.940   4.826
90514W        W50050  18.562  21.211   0.878
90515W        W50051  36.489   4.213  12.899
90516W        W50052   2.796  37.397   2.186
90517W        W50053  44.286   8.841   2.794
90518W        W50054  36.554  28.158   2.287
90519W        W50055  39.470  14.781   2.766
90520W        W50056  28.573  13.648  11.084
90521W        W50057  40.904  41.414  12.519
90522W        W50058  20.561  37.834  13.967
90523W        W50059   7.172  34.583   3.680
90524W        W50060  21.576  33.457  14.496
90525W        W50061   7.839  34.098  12.032
90526W        W50062  41.366  35.099  12.967
90527W        W50063   6.676  10.230  12.958
90528W        W50064  39.328  39.410  10.617
90529W        W50065  38.910  36.031  12.494
90530W        W50066  11.686  19.189  14.282
90531W        W50067  40.325   0.273  13.987
90532W        W50068   5.239  13.195  11.050
90533W        W50069  20.043   1.257   3.283
90534W        W50070  20.697  12.132  10.407
90535W        W50071  13.348  33.976  14.276
90536W        W50072  42.446  28.491   4.743
90537W        W50073  18.140  43.978  10.896
90538W        W50074  43.971  38.973   3.712
90539W        W50075  21.665  28.624  13.380
90540W        W50076   6.921   6.916   4.824
90541W        W50077  37.076  25.027   5.205
90542W        W50078  12.150  35.484  13.375
90543W        W50079  37.357  30.957   2.677
90544W        W50080  20.536  35.928  11.076
90545W        W50081   1.375  27.139   0.310
90546W        W50082  30.964  41.869  12.368
90547W        W50083   0.300   9.659  11.059
90548W        W50084  10.384  25.069  11.554
90549W        W50085  27.689  43.465  11.428
90550W        W50086  44.969  25.563   9.481
90551W        W50087  31.043  21.578   0.317
90552W        W50088  13.815  18.728   3.656
90553W        W50089  42.945  44.266   5.162
90554W        W50090  11.175   0.466   4.122
90555W        W50091  14.153  16.247  13.547
90556W        W50092  43.396  35.487  14.982
90557W        W50093  17.673  35.426  13.447
90558W        W50094   9.871   3.246   4.274
90559W        W50095  29.925   8.349   0.439
90560W        W50096  39.989   0.310  14.916
90561W        W50097  33.977  11.653   1.310
90562W        W50098  21.695  20.253  12.487
90563W        W50099  37.370  24.633  14.981
90564W        W50100  18.686  39.457  10.943
90565W        W50101  28.061  40.436   1.329
90566W        W50102  29.525  16.792  11.019
90567W        W50103  34.512   8.859  11.399
90568W        W50104  28.564  15.667   0.421
90569W        W50105  14.811  21.178   9.932
90570W        W50106  21.758   8.809  14.883
90571W        W50107   0.861  15.268   5.092
90572W        W50108  43.775   8.339  10.997
90573W        W50109  24.006   3.741   3.275
90574W        W50110  12.729  21.192  12.367
90575W        W50111  12.333   1.872  12.973
90576W        W50112   5.690   0.799   2.739
90577W        W50113  34.479  10.238  12.366
90578W        W50114  29.665  39.424  11.599
90579W        W50115  31.508  13.745   4.246
90580W        W50116  36.001  32.945   1.328
90581W        W50117  14.669  29.129   3.353
90582W        W50118  37.452  27.075   4.211
90583W        W50119  29.977   2.927  13.420
90584W        W50120  24.210   1.465   5.215
90585W        W50121   9.693  38.356   4.121
90586W        W50122  28.978   0.898  13.933
90587W        W50123  33.061  25.995  10.527
90588W        W50124  17.568   3.846  14.763
90589W        W50125  35.596  22.604  12.981
90590W        W50126   4.699  10.309   3.842
90591W        W50127  21.153  20.138   3.297
90592W        W50128   1.893  38.449   2.698
90593W        W50129  30.637  27.493  14.888
90594W        W50130  40.531  39.352   4.778
90595W        W50131  36.475   5.927  10.569
90596W        W50132  30.146  42.447   3.221
90597W        W50133   4.829   8.658  12.939
90598W        W50134   3.389  14.819  12.995
90599W        W50135  17.704  30.514   3.318
90600W        W50136  27.109  43.477   4.277
90601W        W50137  20.719  25.153  13.892
90602W        W50138  15.234  20.062  11.967
90603W        W50139  35.375  15.085   0.785
90604W        W50140  38.019  40.988   3.710
90605W        W50141  18.729   8.406   2.332
90606W        W50142   2.773  15.162  14.855
90607W        W50143  24.509  10.299   1.221
90608W        W50144  31.024   2.333  14.281
90609W        W50145  33.957   6.340  12.981
90610W        W50146  40.982  29.467  13.480
90611W        W50147   9.298  33.556   3.865
90612W        W50148  38.393  13.229  12.049
90613W        W50149  26.533   8.312  10.473
90614W        W50150  40.462  42.523  11.375
90615W        W50151  42.468  27.136  12.422
90616W        W50152  44.284  23.031   3.361
90617W        W50153   4.841  32.423  14.938
90618W        W50154  10.758  36.913   2.208
90619W        W50155  39.368  19.150   1.222
90620W        W50156  26.636   4.345   3.167
90621W        W50157  11.163  11.193  14.436
90622W        W50158  17.064  27.566   2.256
90623W        W50159  14.628  38.325   0.365
90624W        W50160   9.658  25.008   3.200
90625W        W50161  42.840   8.345  10.579
90626W        W50162   5.754   5.857   1.351
90627W        W50163  29.529   0.849   5.299
90628W        W50164  43.905   9.867  14.458
90629W        W50165  43.000  36.501  14.467
90630W        W50166  12.360   3.408  12.416
90631W        W50167   0.879  21.024   5.228
90632W        W50168   3.848   6.350  12.387
90633W        W50169  11.771  11.145  14.769
90634W        W50170   4.937  31.536  12.517
90635W        W50171  19.200  25.631   1.720
90636W        W50172  27.045  15.646  10.469
90637W        W50173  28.633   6.882   1.451
90638W        W50174  13.193  23.575   4.153
90639W        W50175  43.296  21.233   0.746
90640W        W50176   6.852  16.086  14.312
90641W        W50177   4.307  16.680   2.203
90642W        W50178   2.298  38.381  13.420
90643W        W50179  18.138   5.719   2.670
90644W        W50180  44.299  10.816   5.612
90645W        W50181  39.428  43.015  11.950
90646W        W50182  15.665  42.403   0.731
90647W        W50183  34.434  27.520  14.429
90648W        W50184  42.493  23.615   0.381
90649W        W50185   7.793  16.813  12.871
90650W        W50186  43.020  13.613   0.407
90651W        W50187  16.317  19.616  14.279
90652W        W50188  19.669  21.138   0.768
90653W        W50189  27.010  24.098  11.973
90654W        W50190   1.884   6.894   3.697
90655W        W50191  35.572   6.683   1.243
90656W        W50192  23.679   6.294   2.194
90657W        W50193  16.607  20.085  14.839
90658W        W50194  24.984  30.933   4.778
90659W        W50195  29.465   5.822  12.979
90660W        W50196  43.942  29.608  14.024
90661W        W50197  43.937   5.322  14.478
90662W        W50198   8.234   6.882   0.365
90663W        W50199   6.384  34.019   2.762
90664W        W50200   7.246  11.315   2.407
90665W        W50201  35.910   1.419  13.794
90666W        W50202  12.772  18.686   3.346
90667W        W50203  18.660  41.359  14.895
90668W        W50204  10.333  44.824   4.660
90669W        W50205  26.125  43.514  12.944
90670W        W50206  22.228  18.549   4.243
90671W        W50207  26.662  38.544  11.466
90672W        W50208   2.751  44.990  10.575
90673W        W50209  27.964  42.447   3.317
90674W        W50210  20.040  37.365  13.367
90675W        W50211  24.707  27.599   2.687
90676W        W50212  17.671  10.367  11.024
90677W        W50213  39.908  32.471   1.770
90678W        W50214  30.638  18.584  12.014
90679W        W50215  33.541  22.206   1.845
90680W        W50216  25.524  25.573  12.975
90681W        W50217  34.609  23.687   2.822
90682W        W50218   8.831  11.156   0.742
90683W        W50219  31.130  28.153   1.847
90684W        W50220  16.282  38.377  12.539
90685W        W50221   3.424  16.696   0.321
90686W        W50222  38.941  40.962   3.677
90687W        W50223  17.589  10.769  11.974
90688W        W50224  26.525   6.185  10.471
90689W        W50225   8.794  21.153  10.561
90690W        W50226  12.639  36.590  14.502
90691W        W50227  10.162  17.565   2.685
90692W        W50228  25.062   8.205  14.371
90693W        W50229  13.138  33.114  12.507
90694W        W50230  32.051   1.870  14.303
90695W        W50231  23.723  17.659  11.019
90696W        W50232  12.243  33.889   0.961
90697W        W50233  16.281  21.671  11.856
90698W        W50234   8.162   5.822  10.134
90699W        W50235  18.100   1.297  14.514
90700W        W50236  11.269   4.886  10.620
90701W        W50237  38.927  31.996   1.405
90702W        W50238   7.778  32.052   2.253
90703W        W50239   7.824   6.678   1.845
90704W        W50240  31.008  18.180  14.276
90705W        W50241  18.729   0.746   3.698
90706W        W50242   2.867  42.484  14.848
90707W        W50243  27.040  34.456  11.870
90708W        W50244  37.028  35.390  12.823
90709W        W50245  44.853  43.306   1.375
90710W        W50246  35.381  37.070   2.755
90711W        W50247  16.654   1.454   4.771
90712W        W50248  40.045  12.723  13.512
90713W        W50249   5.327  30.964   4.717
90714W        W50250   3.452  20.094  11.910
90715W        W50251  35.911  18.182  12.920
90716W        W50252  41.882  44.883   1.830
90717W        W50253  22.247  37.977  11.048
90718W        W50254  14.156   6.802  11.058
90719W        W50255  10.755   5.216   3.710
90720W        W50256  24.603  39.543  11.104
90721W        W50257  22.126  23.644  12.870
90722W        W50258  44.777  33.913  12.857
90723W        W50259  15.255  12.763  11.076
90724W        W50260  38.384  42.030   4.294
90725W        W50261  30.111   7.802   4.828
90726W        W50262  20.742  26.693  14.868
90727W        W50263   5.710  28.618   2.891
90728W        W50264  13.730   1.414   2.677
90729W        W50265  32.543  10.280   4.128
90730W        W50266   7.210   2.258  14.794
90731W        W50267   1.375   3.941  12.532
90732W        W50268  41.834  34.551   0.380
90733W        W50269  17.720   7.768  14.814
90734W        W50270  29.602  41.911   1.728
90735W        W50271  24.210  34.516   3.235
90736W        W50272  12.772  40.029  14.359
90737W        W50273  21.138  10.762  11.393
90738W        W50274  42.450  33.994   3.244
90739W        W50275  14.829  11.276   4.132
90740W        W50276  16.207   7.210   3.221
90741W        W50277  22.747  38.428   2.716
90742W        W50278  42.373  29.634  13.008
90743W        W50279  44.433  38.887  12.969
90744W        W50280   2.790  14.100  14.437
90745W        W50281  41.368  23.061   2.781
90746W        W50282  20.187  36.923  11.997
90747W        W50283  20.725   3.778   2.192
90748W        W50284  18.648   3.345   1.733
90749W        W50285   0.476  41.975   0.279
90750W        W50286  31.622  10.222  13.905
90751W        W50287  24.699   3.412   1.282
90752W        W50288  12.838  18.594  10.949
90753W        W50289  22.623  17.666   4.157
90754W        W50290  37.057  10.158   1.846
90755W        W50291  42.788   1.844  14.877
90756W        W50292   0.406   5.390   0.382
90757W        W50293  28.152  41.307   2.357
90758W        W50294  23.608  16.589   2.178
90759W        W50295  38.393  26.461  10.433
90760W        W50296   3.820  16.709  13.049
90761W        W50297  10.768  15.794  12.515
90762W        W50298  16.605   7.679   4.180
90763W        W50299  11.173  21.156  14.802
90764W        W50300   8.674  26.482   3.248
90765W        W50301  18.786  13.762   0.833
90766W        W50302  40.987  11.307   3.184
90767W        W50303  26.683  17.680   2.300
90768W        W50304  17.252   6.872   1.823
90769W        W50305  23.105   0.481  12.061
90770W        W50306  12.718   2.288  11.561
90771W        W50307   6.212  13.717  13.827
90772W        W50308  43.506   8.347  11.511
90773W        W50309  22.597  26.119  13.951
90774W        W50310  36.441  11.781  10.553
90775W        W50311  35.080  18.095  13.967
90776W        W50312   8.249   0.941   4.777
90777W        W50313  18.604   0.267   4.327
90778W        W50314   4.299  11.775   3.706
90779W        W50315  39.877  22.247  11.566
90780W        W50316   9.813   5.376   0.871
90781W        W50317   4.373  28.115   1.755
90782W        W50318   9.237  18.076   4.786
90783W        W50319   4.730   7.245   0.788
90784W        W50320  21.165   4.374   1.381
90785W        W50321   3.379  36.851   3.732
90786W        W50322  15.213   9.254   1.929
90787W        W50323  39.364   4.834  11.893
90788W        W50324  34.885  37.515   9.963
90789W        W50325   7.186  44.485  10.968
90790W        W50326  42.915  41.453  12.466
90791W        W50327  36.908   7.695  14.847
90792W        W50328  43.452  28.104  13.832
90793W        W50329  33.898  42.975   1.778
90794W        W50330   3.427  27.473   0.260
90795W        W50331  28.661  10.182  12.444
90796W        W50332   8.689   6.401  14.943
90797W        W50333  16.143  35.490   0.303
90798W        W50334  44.974  24.096   3.667
90799W        W50335   0.436  13.778   0.907
90800W        W50336  13.789  16.151   1.804
90801W        W50337  41.356  32.974   2.717
90802W        W50338  39.947  37.069   3.864
90803W        W50339  20.121  14.102  14.983
90804W        W50340  39.062  30.045  13.846
90805W        W50341  23.174  10.655   3.807
90806W        W50342  21.206  23.233  13.309
90807W        W50343  38.514  35.856  10.939
90808W        W50344  20.666  20.228  11.861
90809W        W50345  42.850  36.533   4.129
90810W        W50346  25.574  27.008  12.491
90811W        W50347  35.479  25.072  12.405
90812W        W50348  22.017  40.963  12.345
90813W        W50349  40.480  13.259   0.887
90814W        W50350   5.377   3.357  13.515
90815W        W50351  28.050  32.091  11.979
90816W        W50352  30.436  36.962   0.876
90817W        W50353  14.300  32.129   0.465
90818W        W50354  39.513   0.315  10.410
90819W        W50355  22.125  16.193   1.432
90820W        W50356  35.020   6.241   2.892
90821W        W50357  43.295  31.534  14.276
90822W        W50358  42.019  31.434   3.354
90823W        W50359  43.019  42.317   0.465
90824W        W50360  13.626  12.756   3.179
90825W        W50361  34.041  43.482   3.170
90826W        W50362  43.499   4.921  11.993
90827W        W50363   2.851  12.704   0.366
90828W        W50364  19.096  21.204  12.430
90829W        W50365   2.452  23.725   1.726
90830W        W50366  24.497   0.278   2.708
90831W        W50367  36.474  31.518  12.013
90832W        W50368   2.463   5.223   4.301
90833W        W50369  17.678  13.122   4.176
90834W        W50370   2.787   1.317   3.169
90835W        W50371  19.193   2.256   0.756
90836W        W50372  26.603  24.584  14.366
90837W        W50373  20.686  27.109   2.749
90838W        W50374  36.012  30.547  13.041
90839W        W50375   4.441   1.834  11.085
90840W        W50376   4.416   9.809   1.427
90841W        W50377  26.612  12.749   4.280
90842W        W50378  10.860  27.029  13.314
90843W        W50379  25.008  20.230   4.822
90844W        W50380  38.905   0.910  14.016
90845W        W50381  11.790  31.152  13.506
90846W        W50382   5.237  32.439  14.828
90847W        W50383   8.233  34.560  11.455
90848W        W50384   0.473  21.185   1.744
90849W        W50385  35.545  44.995   3.648
90850W        W50386  37.087  31.601   1.297
90851W        W50387  26.164   9.217  12.508
90852W        W50388  43.789  42.346  12.833
90853W        W50389  35.033   9.797  13.859
90854W        W50390   2.377  33.556  12.933
90855W        W50391  36.929  39.056   3.292
90856W        W50392  30.006  18.168   2.286
90857W        W50393  18.112  12.750  10.625
90858W        W50394  31.555  42.875   3.376
90859W        W50395  37.953  24.670   2.387
90860W        W50396  24.535  22.502  11.068
90861W        W50397  31.065   0.874  14.831
90862W        W50398  14.306   5.305  10.933
90863W        W50399  35.544   8.747   1.840
90864W        W50400  17.168  30.982  12.414
90865W        W50401  40.442  32.611  12.370
90866W        W50402  44.282  13.299   4.612
90867W        W50403  20.677  23.686   4.800
90868W        W50404   9.192  33.932   1.232
90869W        W50405  25.636  43.808   3.226
90870W        W50406  38.009  35.429   1.824
90871W        W50407  24.637  17.074   1.833
90872W        W50408   1.811  17.229   1.904
90873W        W50409  41.979  44.845  13.361
90874W        W50410  44.278  25.647   0.384
90875W        W50411  11.706   1.437  13.361
90876W        W50412  28.441  44.436  11.003
90877W        W50413  12.683  29.114   9.437
90878W        W50414   5.433  16.725  11.955
90879W        W50415   0.441   2.258  14.787
90880W        W50416   7.728  27.588  13.832
90881W        W50417  35.368  19.095  13.405
90882W        W50418   5.241   4.810  12.026
90883W        W50419   8.849  40.045  13.883
90884W        W50420  22.713  13.332  10.404
90885W        W50421  25.661  41.411   4.252
90886W        W50422   8.755  41.356  14.763
90887W        W50423  11.127  38.346   2.273
90888W        W50424  24.558  30.135   0.413
90889W        W50425  16.131  43.273  10.984
90890W        W50426  43.282  37.557  13.332
90891W        W50427  34.592  20.661   2.396
90892W        W50428   5.911  31.580   2.807
90893W        W50429  21.056  36.023   5.790
90894W        W50430  27.126  43.825   2.240
90895W        W50431  42.439  21.181   0.308
90896W        W50432  18.669  34.534  14.959
90897W        W50433  17.286  32.470   4.326
90898W        W50434  41.827  20.187   2.771
90899W        W50435   2.948   8.182  12.500
90900W        W50436  15.126  43.356  14.830
90901W        W50437  32.111  29.472  11.112
90902W        W50438  23.511  40.312   3.234
90903W        W50439   0.398  18.598   0.869
90904W        W50440   4.296  29.136  13.038
90905W        W50441  30.463   2.902   4.351
90906W        W50442  37.393  41.036   2.345
90907W        W50443   2.242  11.268  14.475
90908W        W50444  10.379  37.001   1.425
90909W        W50445  39.350  21.100  14.957
90910W        W50446   1.769  14.239   2.666
90911W        W50447   1.816  21.080   0.451
90912W        W50448   5.906  27.016   2.685
90913W        W50449  21.244  26.033  13.889
90914W        W50450  16.079   9.256   0.478
90915W        W50451  30.076   4.881  11.066
90916W        W50452   3.882   3.362  12.376
90917W        W50453   7.296  22.088  13.002
90918W        W50454  27.447  38.534   2.411
90919W        W50455  27.966  41.791   2.718
90920W        W50456  18.160  38.384  11.064
90921W        W50457   7.390  27.659   4.263
90922W        W50458   7.727  32.628   0.846
90923W        W50459  12.327  34.443  12.573
90924W        W50460   0.423  21.026  11.911
90925W        W50461  39.053  40.859  14.911
90926W        W50462  34.089  21.693  12.042
90927W        W50463  15.238  40.358   2.391
90928W        W50464   6.340  22.113   1.762
90929W        W50465  34.577  36.064  12.566
90930W        W50466   1.909  31.552  14.447
90931W        W50467  18.663  28.600  12.383
90932W        W50468   4.380  41.017   3.327
90933W        W50469  39.363  41.520   3.149
90934W        W50470  12.150  36.006   4.338
90935W        W50471  33.423  32.976  11.052
90936W        W50472   5.438  41.023  11.899
90937W        W50473  20.035  34.883  10.960
90938W        W50474  31.600  14.340   2.364
90939W        W50475  30.658  38.944   2.209
90940W        W50476   3.866  37.397   0.413
90941W        W50477  23.507  25.996  14.390
90942W        W50478  11.134  18.177   3.203
90943W        W50479   4.802  11.278   1.249
90944W        W50480  41.482  41.919  11.438
90945W        W50481  24.518  12.217   4.296
90946W        W50482   2.413  31.528  14.452
90947W        W50483  26.534   2.937   0.459
90948W        W50484   7.278  29.136  14.919
90949W        W50485   5.813   5.283   2.762
90950W        W50486   7.194  12.189  11.874
90951W        W50487   5.407  39.407   0.884
90952W        W50488  24.635  28.592   4.327
90953W        W50489   2.954  24.987  14.833
90954W        W50490  29.594  40.368  13.442
90955W        W50491  20.731  30.497  13.356
90956W        W50492  32.598  14.822   4.275
90957W        W50493  37.961  21.626   4.774
90958W        W50494  41.864  25.515  14.908
90959W        W50495  44.946  31.604   0.409
90960W        W50496  28.622  23.649  12.888
90961W        W50497  37.874  39.342   3.194
90962W        W50498  31.446   3.886   1.300
90963W        W50499  15.266  25.523   2.245
90964W        W50500   0.359  39.886   4.699
90965W        W50501  12.694  10.146   0.804
90966W        W50502  21.058  31.411  14.281
90967W        W50503  15.089  33.497   3.805
90968W        W50504  44.989   4.860  14.491
90969W        W50505  36.061  16.633  11.081
90970W        W50506  25.489   9.288  14.974
90971W        W50507  25.477   3.261  14.470
90972W        W50508  13.829  19.159   0.481
90973W        W50509  22.015  33.892  10.954
90974W        W50510   1.739  10.745  11.951
90975W        W50511  11.740   8.171  13.046
90976W        W50512  16.665  10.636   0.395
90977W        W50513  16.603   3.403  14.861
90978W        W50514  42.790  25.601   2.204
90979W        W50515  38.048  10.330  12.401
90980W        W50516   0.450  24.153   0.301
90981W        W50517  33.929  17.608  13.950
90982W        W50518  26.029  37.876   3.712
90983W        W50519   1.803  38.359   2.183
90984W        W50520  19.694   2.234   4.809
90985W        W50521  40.508   6.738   3.162
90986W        W50522  32.059   9.158   1.422
90987W        W50523  43.298   3.714  10.625
90988W        W50524   3.757  20.655  14.876
90989W        W50525  17.683  15.204   1.763
90990W        W50526   8.373  33.991  12.513
90991W        W50527  39.544   4.867   1.228
90992W        W50528  26.475  23.238   1.212
90993W        W50529  13.317  41.368  10.640
90994W        W50530  30.503  39.367   4.704
90995W        W50531  33.101  17.193  10.464
90996W        W50532  28.624   0.315  12.823
90997W        W50533   1.967  22.204   1.709
90998W        W50534  11.316  16.741   3.778
90999W        W50535  19.224  41.931   4.182
91000W        W50536  16.783  13.822   4.600
91001W        W50537   5.262  40.034   1.768
91002W        W50538  38.506  38.531   3.809
91003W        W50539  37.407   0.304  14.310
91004W        W50540  14.694   4.802  11.941
91005W        W50541   2.742  18.140   0.770
91006W        W50542  29.922   4.232   4.608
91007W        W50543  31.596  10.839   4.130
91008W        W50544  26.495  29.552   2.245
91009W        W50545  33.928  15.248  12.998
91010W        W50546  41.041  13.728  11.095
91011W        W50547  37.898  17.570   2.328
91012W        W50548  14.161   3.827   0.301
91013W        W50549  29.918   3.393  13.985
91014W        W50550  41.965  31.067   4.606
91015W        W50551   4.204  35.363   2.227
91016W        W50552   4.822  32.399  13.434
91017W        W50553  31.601  41.369   0.332
91018W        W50554  42.328  24.649  14.792
91019W        W50555  39.406  34.111   1.316
91020W        W50556  14.777  10.271   2.713
91021W        W50557  21.628  11.328  12.860
91022W        W50558   1.897  37.379   2.251
91023W        W50559  39.872  30.516   3.648
91024W        W50560  15.804  31.127  14.801
91025W        W50561  30.028  34.087  12.466
91026W        W50562   7.884   8.660   3.267
91027W        W50563  38.371  10.812   2.365
91028W        W50564  38.980  25.660  11.470
91029W        W50565  14.678  43.334   2.396
91030W        W50566  17.101   2.808  14.349
91031W        W50567   9.155  28.151   1.805
91032W        W50568  43.881  38.026   2.252
91033W        W50569   1.268  41.035  11.991
91034W        W50570  42.959  44.481  13.007
91035W        W50571  20.079  34.042   0.462
91036W        W50572  30.647  14.317  11.612
91037W        W50573  38.851  13.292  11.949
91038W        W50574  14.742  34.487   3.810
91039W        W50575  28.053  30.127  14.510
91040W        W50576  40.929  16.273  12.861
91041W        W50577  23.099  28.499   0.842
91042W        W50578  20.572  15.697  13.873
91043W        W50579  38.378  28.032   1.223
91044W        W50580  25.558  42.942   1.707
91045W        W50581  36.097  16.248   0.861
91046W        W50582  25.202  18.669   0.431
91047W        W50583  14.319  44.273  10.929
91048W        W50584  27.113  27.581   0.817
91049W        W50585  25.105  44.380   0.383
91050W        W50586  17.620  33.502  10.629
91051W        W50587  10.869  43.820  11.041
91052W        W50588  32.972   9.158   4.297
91053W        W50589  23.695  29.639   3.687
91054W        W50590  23.691   2.450  14.858
91055W        W50591  19.136   0.448  13.840
91056W        W50592  27.556  30.956   0.726
91057W        W50593  20.646  32.392   2.415
91058W        W50594  27.029  20.095  14.456
91059W        W50595  22.144  35.988  11.883
91060W        W50596  17.675  22.569  12.464
91061W        W50597   5.217   1.302  12.926
91062W        W50598   5.213  15.754   4.119
91063W        W50599   5.222  22.056   3.697
91064W        W50600  33.490  10.670   1.830
91065W        W50601  33.115  30.093  10.114
91066W        W50602   6.892  16.746  14.028
91067W        W50603  17.174  19.194  14.815
91068W        W50604  25.649  29.020   3.190
91069W        W50605  34.106  29.930  11.525
91070W        W50606  12.155  11.354   4.600
91071W        W50607  38.445   3.732   4.152
91072W        W50608  11.792  15.093  10.622
91073W        W50609  38.853  32.021   2.370
91074W        W50610  30.061  41.306   3.840
91075W        W50611   0.376   4.839  10.540
91076W        W50612   4.237  16.170  10.450
91077W        W50613   8.331  36.410   2.417
91078W        W50614  17.676  24.160  10.602
91079W        W50615  37.027  37.350   3.344
91080W        W50616  44.407  18.709   0.849
91081W        W50617   9.172  24.559   1.433
91082W        W50618  14.162  18.180   4.668
91083W        W50619  32.442  15.795   4.184
91084W        W50620   3.434  38.489   1.840
91085W        W50621  24.539   8.294   9.452
91086W        W50622  25.063  42.390  10.962
91087W        W50623  34.543  16.746   2.789
91088W        W50624  29.604  43.381  14.963
91089W        W50625  12.763  39.321   2.260
91090W        W50626  40.482  11.230   1.885
91091W        W50627  24.546  38.426   3.733
91092W        W50628  37.409  17.148   5.193
91093W        W50629  34.511  32.037  13.471
91094W        W50630  37.879  37.945   4.186
91095W        W50631   3.944  38.549  12.014
91096W        W50632  43.777  36.052   1.911
91097W        W50633  42.849   4.386  14.425
91098W        W50634  13.738  22.113  10.561
91099W        W50635   8.814  18.774   2.405
91100W        W50636  40.993  25.188   0.440
91101W        W50637   6.825   4.756  14.458
91102W        W50638  35.869  17.127   4.125
91103W        W50639  11.283  44.790   3.244
91104W        W50640   4.350  11.269   2.881
91105W        W50641  21.652  44.894   3.788
91106W        W50642  41.873  26.568   2.219
91107W        W50643  41.410   6.892  10.603
91108W        W50644  21.078  14.294   4.127
91109W        W50645  39.492  30.535  13.436
91110W        W50646  10.331  29.938   4.288
91111W        W50647  40.802   3.428  13.051
91112W        W50648  28.037  36.854   2.843
91113W        W50649  44.938  19.539  13.474
91114W        W50650  22.712  38.455  10.606
91115W        W50651  15.155   2.257  11.981
91116W        W50652   9.394   1.310   0.740
91117W        W50653  36.927  13.738   2.780
91118W        W50654  40.531  38.972   0.900
91119W        W50655  11.690  31.049   1.343
91120W        W50656  13.689  43.823   2.353
91121W        W50657  35.920  28.504   4.262
91122W        W50658  37.524  39.060   4.667
91123W        W50659  41.928  17.216   0.944
91124W        W50660  16.169  43.974  13.972
91125W        W50661   9.722  29.051   4.745
91126W        W50662  10.233  36.422   0.477
91127W        W50663  19.088  21.098   4.813
91128W        W50664  21.683  28.651   3.653
91129W        W50665   9.754  44.859   4.691
91130W        W50666   1.899  26.131   2.747
91131W        W50667  20.650  32.439   0.805
91132W        W50668  17.580   3.309   3.258
91133W        W50669  42.433  22.219   4.795
91134W        W50670  16.199   5.224   2.685
91135W        W50671   8.807  20.256  12.889
91136W        W50672  25.202  13.246   4.799
91137W        W50673  29.619  41.845   4.632
91138W        W50674  33.442  24.661   3.349
91139W        W50675   3.456  21.657   1.707
91140W        W50676   4.436   4.231   3.681
91141W        W50677  29.124  10.359   3.731
91142W        W50678   2.370  41.941   4.351
91143W        W50679  12.682   2.389   2.285
91144W        W50680   4.714  22.578   1.859
91145W        W50681  27.070  25.550  12.477
91146W        W50682   7.175  24.679   1.761
91147W        W50683  24.685   6.909  11.393
91148W        W50684  23.219  35.078   3.205
91149W        W50685  33.034  25.613  13.817
91150W        W50686  36.958  41.032   4.816
91151W        W50687  42.336   1.817   3.723
91152W        W50688  41.410  26.032  12.382
91153W        W50689   0.956  13.339  10.916
91154W        W50690  39.871  40.802   2.409
91155W        W50691  22.713  37.057  13.490
91156W        W50692   2.951  39.975   3.816
91157W        W50693  23.130  13.718  12.523
91158W        W50694  28.507  34.536   3.156
91159W        W50695  42.400  36.848  13.031
91160W        W50696  44.888  23.142  11.604
91161W        W50697   8.840  17.589  10.554
91162W        W50698   7.725   8.211   4.262
91163W        W50699   7.397   3.222  11.912
91164W        W50700   9.873   5.193  14.408
91165W        W50701   7.738  43.998  10.418
91166W        W50702   3.931  35.001  14.996
91167W        W50703  35.557  44.902  12.916
91168W        W50704   4.360   2.730  12.422
91169W        W50705   4.758  35.571   3.189
91170W        W50706  39.481  12.683  10.891
91171W        W50707   4.239  27.181   1.759
91172W        W50708  23.719   0.846  14.002
91173W        W50709  35.522  36.516  12.413
91174W        W50710  38.386  32.531  10.964
91175W        W50711  39.399  15.285   4.347
91176W        W50712  22.102   8.899  13.054
91177W        W50713  29.502   9.339   0.926
91178W        W50714   0.387   7.825  14.290
91179W        W50715  40.977  36.474   3.849
91180W        W50716  26.094  17.089   1.446
91181W        W50717  13.304  36.420  14.893
91182W        W50718   2.816  12.846  13.006
91183W        W50719  39.838   0.812  14.513
91184W        W50720  11.209  35.059  12.847
91185W        W50721   9.711   7.399   3.730
91186W        W50722  29.622  14.725   2.753
91187W        W50723  14.299  26.624  10.425
91188W        W50724  32.420  10.771   2.682
91189W        W50725  41.018   6.291  13.354
91190W        W50726  18.084  21.117   2.839
91191W        W50727   3.734  29.627   3.209
91192W        W50728  18.564  24.698  13.795
91193W        W50729  19.100  33.566   0.248
91194W        W50730  29.423  20.155   1.816
91195W        W50731  17.739   1.777   2.404
91196W        W50732  32.467  36.017   1.225
91197W        W50733  13.154  37.402   2.194
91198W        W50734  20.186  39.014  14.428
91199W        W50735  18.098  12.695  11.497
91200W        W50736  24.152  38.870  14.931
91201W        W50737  31.616  41.522  10.994
91202W        W50738   5.205  12.272   4.264
91203W        W50739  26.500  36.881   5.247
91204W        W50740  33.965   6.204  13.473
91205W        W50741  14.307  33.895  14.343
91206W        W50742  40.902  14.257  14.915
91207W        W50743  32.035  16.134   2.287
91208W        W50744  36.416  35.019   3.759
91209W        W50745  39.919  35.042   3.649
91210W        W50746   1.787  19.224   2.729
91211W        W50747  17.790  11.646  10.551
91212W        W50748  25.105   6.199  13.903
91213W        W50749  15.169  18.735   1.930
91214W        W50750  41.319  12.261  11.437
91215W        W50751  33.127  39.898   0.837
91216W        W50752  31.462  25.593  14.291
91217W        W50753  18.134  20.715  12.393
91218W        W50754  22.170  29.635  11.895
91219W        W50755  35.440  14.797  12.433
91220W        W50756  32.466   5.927   0.768
91221W        W50757  17.709  24.161   4.344
91222W        W50758  12.695  19.694  11.548
91223W        W50759  33.034  41.361   3.288
91224W        W50760  15.177  30.911  14.826
91225W        W50761  17.757  33.386   1.449
91226W        W50762  44.397  23.072   1.268
91227W        W50763  38.552  44.758   3.641
91228W        W50764  34.972   6.770   3.376
91229W        W50765  40.482  15.657   0.866
91230W        W50766  14.254   1.852  13.322
91231W        W50767  31.915  21.595   0.276
91232W        W50768  21.170  38.968  10.975
91233W        W50769  10.702  17.637  13.348
91234W        W50770  25.601  16.109   5.281
91235W        W50771   0.987  34.935   0.824
91236W        W50772  40.345   0.816   4.180
91237W        W50773   3.903  20.209   0.433
91238W        W50774  15.160  40.549  12.991
91239W        W50775  15.215  20.059  14.327
91240W        W50776   8.285  20.180   0.293
91241W        W50777  18.233  32.026   1.371
91242W        W50778  43.817  20.737   3.709
91243W        W50779  33.582  23.163   2.692
91244W        W50780  18.747  32.630   0.420
91245W        W50781  16.313   8.302  13.318
91246W        W50782  18.196  31.080  14.453
91247W        W50783  24.009   6.223  12.518
91248W        W50784  27.531  41.813   4.702
91249W        W50785  13.281  25.088   1.863
91250W        W50786  12.848  16.736  10.509
91251W        W50787  14.235  16.782  13.376
91252W        W50788  32.498  17.287   2.686
91253W        W50789  34.456  41.966  13.050
91254W        W50790  43.453  26.497  14.949
91255W        W50791  13.165  31.903   0.473
91256W        W50792   3.856  41.429  13.453
91257W        W50793  26.142   5.321   3.360
91258W        W50794   8.293  23.994   5.686
91259W        W50795  16.688  23.540  10.609
91260W        W50796  44.270  11.643  11.476
91261W        W50797  26.092  27.655  14.504
91262W        W50798  32.545  19.121   0.250
91263W        W50799  17.213  44.504   4.347
91264W        W50800  17.709  16.658   3.232
91265W        W50801  28.661  28.437   1.242
91266W        W50802  11.221   7.292  14.801
91267W        W50803  41.871  37.577  12.880
91268W        W50804   8.245  39.983  12.006
91269W        W50805  28.622  40.386   1.294
91270W        W50806  16.709  23.607  14.877
91271W        W50807   1.901  43.919  13.432
91272W        W50808  34.431   0.891  13.512
91273W        W50809  24.518   8.337   5.802
91274W        W50810  14.233  10.245   0.756
91275W        W50811  35.951  38.525   4.805
91276W        W50812  43.337  25.129  12.988
91277W        W50813  27.536  39.501   3.642
91278W        W50814   9.687  10.800   2.778
91279W        W50815   3.773  38.011  12.534
91280W        W50816  41.014  23.107  14.475
91281W        W50817  31.598  41.019  10.992
91282W        W50818  19.129  36.557   0.463
91283W        W50819  44.480  17.573   0.313
91284W        W50820  21.085  21.127   2.245
91285W        W50821  25.683   9.200   2.403
91286W        W50822  10.350  15.284  11.404
91287W        W50823  12.138  40.448  12.485
91288W        W50824  20.531  37.836  13.041
91289W        W50825  40.543  27.076  11.078
91290W        W50826  34.957   8.204   4.135
91291W        W50827  19.698  23.683   4.699
91292W        W50828  27.009  31.919   0.425
91293W        W50829  13.194  31.537   1.756
91294W        W50830  44.419  13.619   0.257
91295W        W50831  18.273  22.065  11.067
91296W        W50832  13.225  34.009   1.753
91297W        W50833  31.899  19.059  12.046
91298W        W50834  29.962  15.792   5.146
91299W        W50835   1.301  22.187   0.346
91300W        W50836  32.500   4.751  11.993
91301W        W50837  30.161  24.612  11.019
91302W        W50838  34.393  39.061   4.722
91303W        W50839  39.933  38.522   4.318
91304W        W50840  11.753  21.070   5.238
91305W        W50841   1.810  31.946   3.629
91306W        W50842   5.812  18.254  11.605
91307W        W50843  16.307  39.346  12.043
91308W        W50844   9.884   8.797  14.345
91309W        W50845  36.094  20.705  14.853
91310W        W50846   4.766   9.825   0.331
91311W        W50847   3.245  18.736  10.453
91312W        W50848   1.242  28.511   4.773
91313W        W50849  34.405  24.157  13.943
91314W        W50850  41.004  15.617   3.653
91315W        W50851  44.390  30.570  13.982
91316W        W50852  14.607  41.929   0.771
91317W        W50853  15.262  29.658   4.191
91318W        W50854  23.719  44.826  11.937
91319W        W50855   0.824  37.898   1.803
91320W        W50856  31.577  32.549   3.765
91321W        W50857  13.626  17.660   2.872
91322W        W50858   9.661  36.439   3.337
91323W        W50859  41.964  31.005   1.821
91324W        W50860  32.959  33.602   3.834
91325W        W50861  13.141  28.966  12.535
91326W        W50862  20.250  34.525   2.416
91327W        W50863  31.096  36.878  11.954
91328W        W50864  20.596  42.361  14.844
91329W        W50865  32.894   2.362   3.670
91330W        W50866  44.496   4.276  12.842
91331W        W50867  17.224   4.236   0.350
91332W        W50868  32.097  28.168  11.427
91333W        W50869  24.230  28.591  14.829
91334W        W50870  17.694  34.009  13.931
91335W        W50871   4.268  35.107  12.473
91336W        W50872   9.366  33.882  13.414
91337W        W50873  18.790   7.406   9.983
91338W        W50874  21.590   2.313  10.990
91339W        W50875  11.226  39.934  10.601
91340W        W50876  35.582  32.469  14.916
91341W        W50877   9.860  14.785  14.468
91342W        W50878  36.904  10.828  13.847
91343W        W50879  20.147  24.090   2.702
91344W        W50880  30.484   0.810  14.817
91345W        W50881   6.287  10.635   3.675
91346W        W50882  17.167  35.505   0.864
91347W        W50883   7.393  18.702  13.439
91348W        W50884  12.263  20.679   3.699
91349W        W50885  28.067  29.053  12.359
91350W        W50886  38.427  31.013   0.413
91351W        W50887  31.578   9.366   4.162
91352W        W50888   6.686  19.731   2.841
91353W        W50889  24.518  18.605   1.779
91354W        W50890  13.701  42.374  13.994
91355W        W50891   0.257   0.766  13.415
91356W        W50892   5.848  20.708  11.546
91357W        W50893  42.442  39.502  12.837
91358W        W50894  40.022  30.044   1.911
91359W        W50895   9.689  41.868  14.940
91360W        W50896  35.909  31.422   4.311
91361W        W50897   7.263  34.070  11.555
91362W        W50898  41.462  11.865   2.203
91363W        W50899   3.399  31.594   0.920
91364W        W50900  21.182  15.144   3.186
91365W        W50901  32.610  34.464  13.856
91366W        W50902  42.830   5.246   4.251
91367W        W50903  22.522  14.695  12.485
91368W        W50904  27.009  25.703  12.998
91369W        W50905  31.140  18.758  10.990
91370W        W50906   0.333  28.465   1.915
91371W        W50907  20.265  23.545   0.250
91372W        W50908  22.649  41.494   3.827
91373W        W50909   7.324  40.943   1.363
91374W        W50910   1.340   7.850  10.466
91375W        W50911   0.341  20.039   2.756
91376W        W50912  42.426   1.338  14.292
91377W        W50913  30.140  28.050   3.653
91378W        W50914  15.631  21.029   1.921
91379W        W50915  25.206  41.803   2.412
91380W        W50916  17.569   5.268  12.368
91381W        W50917  24.676   5.692   0.774
91382W        W50918  13.322  24.520   2.191
91383W        W50919  16.794  35.934   3.739
91384W        W50920  19.249  34.957   0.475
91385W        W50921  31.970  18.157   3.200
91386W        W50922  20.698  30.619  11.576
91387W        W50923  26.558  16.770   4.210
91388W        W50924  44.428  22.212  13.009
91389W        W50925  38.010  30.596  14.882
91390W        W50926  34.085  31.153  12.871
91391W        W50927  13.809  17.129   0.318
91392W        W50928  32.418   1.343  11.930
91393W        W50929  39.969  31.625  13.798
91394W        W50930   3.333  32.012   4.604
91395W        W50931   4.890  22.635  14.505
91396W        W50932   2.314   7.311  13.463
91397W        W50933  36.959  25.704  11.938
91398W        W50934  34.107  36.032  12.867
91399W        W50935  39.454  18.565   0.356
91400W        W50936  29.039  31.545  11.022
91401W        W50937   3.362   6.691  14.468
91402W        W50938  41.934  23.022  12.507
91403W        W50939  39.984  15.200  13.055
91404W        W50940  35.091  40.910   1.929
91405W        W50941  24.110  32.450   1.263
91406W        W50942  28.607  12.172   3.687
91407W        W50943  29.537  34.910  11.419
91408W        W50944  31.495  23.038   1.382
91409W        W50945  33.468  44.883  11.872
91410W        W50946  39.391  36.512   4.214
91411W        W50947  25.698   4.805  13.910
91412W        W50948  38.822  19.680  10.563
91413W        W50949  10.659  11.717  13.470
91414W        W50950  27.500  41.943  10.530
91415W        W50951  31.911  22.070  14.314
91416W        W50952  12.665  17.591   4.342
91417W        W50953  18.119  32.582  12.339
91418W        W50954   9.845  31.000   2.411
91419W        W50955  34.455  34.415  11.882
91420W        W50956  42.347   6.695  12.095
91421W        W50957   3.439  42.904  11.503
91422W        W50958  18.137  25.002  13.462
91423W        W50959  37.487  37.982   0.819
91424W        W50960   8.799   6.899   1.910
91425W        W50961  11.642   6.920  10.961
91426W        W50962  31.568  43.472  13.335
91427W        W50963  43.867  30.052   2.684
91428W        W50964  35.412   6.705   0.432
91429W        W50965  38.462   2.277   2.896
91430W        W50966  34.091  43.014  13.996
91431W        W50967   7.243  20.708  13.817
91432W        W50968  35.499  21.688  12.991
91433W        W50969  11.314  20.034  10.532
91434W        W50970  16.209  26.680   2.682
91435W        W50971  21.587  37.002   2.705
91436W        W50972  41.365  11.699  12.483
91437W        W50973  10.733   8.341   2.892
91438W        W50974   7.859   3.334   0.306
91439W        W50975  41.006   2.463  11.890
91440W        W50976  26.688  40.023  14.299
91441W        W50977  34.602   2.287   4.142
91442W        W50978  26.985  14.185  14.839
91443W        W50979  40.841   8.384   0.287
91444W        W50980  23.079  39.050  11.933
91445W        W50981  12.849  35.071  11.068
91446W        W50982  37.830   5.717  12.549
91447W        W50983  32.612  37.520   2.720
91448W        W50984  35.980   7.218   0.858
91449W        W50985  12.819  24.219  13.389
91450W        W50986  32.609  36.934  11.932
91451W        W50987  28.437  32.553   3.184
91452W        W50988  43.399  25.170   3.670
91453W        W50989  37.851  21.181  11.091
91454W        W50990  21.082  25.203   1.445
91455W        W50991   5.413   3.745  11.029
91456W        W50992  11.231   9.239   1.237
91457W        W50993   0.266  24.566   1.259
91458W        W50994  22.705  25.194   1.384
91459W        W50995  16.716   9.758  13.811
91460W        W50996  30.941   1.330  12.030
91461W        W50997  11.755  26.956   5.165
91462W        W50998  14.127  22.591   0.796
91463W        W50999  14.265  19.562   4.197
91464W        W51000  40.035  26.077  14.928
91465W        W51001  34.939  38.455  11.018
91466W        W51002  34.951  18.710   3.235
91467W        W51003  39.555  34.587  13.437
91468W        W51004  24.506  32.481   3.383
91469W        W51005   9.261   0.776   2.882
91470W        W51006  14.689  26.612  11.441
91471W        W51007  39.467   1.465   3.216
91472W        W51008  32.448  17.722  14.977
91473W        W51009  17.607  37.858  10.453
91474W        W51010  20.656  10.652   1.263
91475W        W51011   4.751   0.486   1.761
91476W        W51012  15.328  18.230   0.794
91477W        W51013  39.422  38.512   4.290
91478W        W51014   2.398  43.857  12.376
91479W        W51015  44.493  20.687  13.337
91480W        W51016  37.447  38.830  11.565
91481W        W51017  31.506  19.558   3.227
91482W        W51018  40.838  25.670  12.576
91483W        W51019   0.873  28.935   1.284
91484W        W51020  41.924  43.346   2.726
91485W        W51021  11.655   1.888  10.127
91486W        W51022  12.852  20.255  14.927
91487W        W51023  43.830  43.967   1.228
91488W        W51024   4.699  12.643  10.076
91489W        W51025  39.003   3.290   1.244
91490W        W51026  43.369  20.700  12.016
91491W        W51027   0.793   5.421   2.901
91492W        W51028  17.213  20.575  12.499
91493W        W51029  39.528  31.507   4.334
91494W        W51030  20.229  43.903   3.772
91495W        W51031  44.946  13.165  12.572
91496W        W51032   1.825  38.391  13.812
91497W        W51033  25.565  15.758  14.850
91498W        W51034   2.432  32.525  13.421
91499W        W51035  16.247  27.049  14.435
91500W        W51036  32.470  27.552   2.244
91501W        W51037  23.735  16.656   3.345
91502W        W51038  24.627   2.849  14.415
91503W        W51039   4.319  18.545   1.905
91504W        W51040  30.971  31.031   0.351
91505W        W51041  39.046  22.101  10.490
91506W        W51042  13.290  39.958   3.165
91507W        W51043  27.976  18.087   4.766
91508W        W51044  36.991  27.647   1.762
91509W        W51045   9.763  29.558   1.411
91510W        W51046  15.633  30.594   4.723
91511W        W51047  20.119   6.914  12.355
91512W        W51048  42.971  32.602   1.784
91513W        W51049  21.212  41.499   1.854
91514W        W51050  39.910  36.368  11.491
91515W        W51051  24.530  14.202   0.313
91516W        W51052  25.546  39.479   3.152
91517W        W51053  35.962  24.178   4.192
91518W        W51054  38.463  19.209   3.808
91519W        W51055  31.068   3.416  13.023
91520W        W51056   5.280  12.148  10.644
91521W        W51057  12.293  25.603  13.518
91522W        W51058  24.153  20.724   3.160
91523W        W51059  20.566  33.548  13.819
91524W        W51060  10.314  17.116  13.455
91525W        W51061  43.869  31.467  11.084
91526W        W51062   4.751  16.304  11.454
91527W        W51063  33.545   5.856  11.996
91528W        W51064  12.180   4.270   1.314
91529W        W51065  26.015   9.251   0.316
91530W        W51066   7.222  14.191  10.532
91531W        W51067  27.660  44.463  13.498
91532W        W51068   3.369  43.507  11.475
91533W        W51069  40.413  21.541   2.728
91534W        W51070   4.729  25.201  12.053
91535W        W51071  20.253  14.338  12.577
91536W        W51072  11.364  22.604   3.695
91537W        W51073   0.959   2.925   0.442
91538W        W51074  43.331  32.410   1.395
91539W        W51075  11.234   5.866  12.435
91540W        W51076  41.871   6.310  12.842
91541W        W51077  18.203  35.107  13.456
91542W        W51078  35.594  20.549  14.976
91543W        W51079   4.353  37.033  11.050
91544W        W51080   1.950  22.593   1.349
91545W        W51081   6.801   3.292   0.787
91546W        W51082  32.044  35.013   4.301
91547W        W51083  35.898   7.688  13.876
91548W        W51084   3.710  29.481   1.825
91549W        W51085  21.202  35.363   2.269
91550W        W51086  40.322  16.274   2.418
91551W        W51087  18.746  37.473  11.058
91552W        W51088  35.517  34.888   2.200
91553W        W51089  33.490  44.004   3.660
91554W        W51090   2.284  10.309  10.558
91555W        W51091   1.795   6.791   2.783
91556W        W51092   4.342  28.681   3.318
91557W        W51093  19.114  11.219  13.054
91558W        W51094  19.658  30.945   4.724
91559W        W51095   3.216  37.048  14.320
91560W        W51096  12.339   8.317   5.615
91561W        W51097  43.961  28.061  12.914
91562W        W51098  21.699   9.178   0.385
91563W        W51099  41.827  16.267  13.022
91564W        W51100  44.812   2.955  13.390
91565W        W51101  33.060   0.856  11.378
91566W        W51102  23.096  36.911   3.225
91567W        W51103  35.992  14.107   1.839
91568W        W51104   4.389  18.183  12.471
91569W        W51105  41.367   2.384   1.223
91570W        W51106  24.099  10.315  14.478
91571W        W51107   5.911  23.987   0.912
91572W        W51108   0.900   4.421   0.483
91573W        W51109  21.697  15.790   0.393
91574W        W51110  43.915  15.634   4.335
91575W        W51111   8.185   1.371   0.727
91576W        W51112   2.351  38.386   4.210
91577W        W51113  41.303   9.813   5.319
91578W        W51114  33.572   4.320   2.398
91579W        W51115  36.009  18.574   4.161
91580W        W51116  12.126  16.620  11.018
91581W        W51117  19.230  13.151   4.188
91582W        W51118   1.297  44.469   1.332
91583W        W51119  42.517  40.466  13.051
91584W        W51120  30.528  26.141   3.246
91585W        W51121  11.215  37.868  14.509
91586W        W51122  26.029  26.485   3.751
91587W        W51123   1.825   3.402  12.075
91588W        W51124   4.209   3.776  11.598
91589W        W51125  32.475  43.300   3.224
91590W        W51126   2.431  42.444   4.142
91591W        W51127  22.634  32.114   3.368
91592W        W51128  34.944  27.169  13.929
91593W        W51129  28.156  23.069  12.554
91594W        W51130  29.575  39.035   3.367
91595W        W51131  21.074  34.973  12.450
91596W        W51132  23.074  12.248   0.803
91597W        W51133  34.374  43.285   0.391
91598W        W51134   5.719  27.993   1.875
91599W        W51135  32.978  31.982  10.591
91600W        W51136  33.574   5.900  12.936
91601W        W51137  42.841  25.543   1.236
91602W        W51138  15.166   1.806  14.978
91603W        W51139  36.428  25.993   2.854
91604W        W51140  43.393  36.395   1.375
91605W        W51141  22.581   1.414   2.881
91606W        W51142  44.424  28.134  14.902
91607W        W51143   2.317  23.729   1.355
91608W        W51144  22.198  10.172  11.535
91609W        W51145  10.638  23.661   4.264
91610W        W51146  20.226  31.422   3.644
91611W        W51147  26.065   8.163  12.389
91612W        W51148   4.276  37.876   2.723
91613W        W51149   4.855  16.279   4.249
91614W        W51150  24.701   0.746   1.212
91615W        W51151  29.034  31.445   0.907
91616W        W51152  19.104  11.758  11.101
91617W        W51153  34.109  40.361   0.297
91618W        W51154  31.563   4.375   1.308
91619W        W51155  23.008  29.470  12.365
91620W        W51156  37.575  10.807  12.054
91621W        W51157  37.059  31.106  12.487
91622W        W51158   6.826  44.850   2.371
91623W        W51159  35.092  35.963   1.848
91624W        W51160  31.611  29.029   2.322
91625W        W51161  39.437  24.094  13.881
91626W        W51162  10.287  27.657  14.758
91627W        W51163  28.673  41.510   0.371
91628W        W51164  38.938  25.593   0.932
91629W        W51165   1.759  21.191  13.539
91630W        W51166  21.698  33.555   3.713
91631W        W51167   4.794  13.736  12.465
91632W        W51168  35.972   7.180   3.787
91633W        W51169  27.078  23.533  14.823
91634W        W51170  30.057  38.394  13.032
91635W        W51171  10.705  31.101  14.336
91636W        W51172  14.329  15.296  10.557
91637W        W51173   1.751  44.897  11.914
91638W        W51174   2.309  21.710   2.215
91639W        W51175  17.630   2.886  12.407
91640W        W51176  42.823  17.786  14.373
91641W        W51177  18.617  23.703   2.231
91642W        W51178  12.202  17.668   2.278
91643W        W51179   6.789  33.580  11.507
91644W        W51180  21.091  13.324   2.234
91645W        W51181  39.395  44.888  10.470
91646W        W51182   4.257  18.188   0.435
91647W        W51183  16.173   1.870   0.350
91648W        W51184   0.823  27.596   3.232
91649W        W51185  17.300   3.304   0.909
91650W        W51186   4.415  17.145  11.012
91651W        W51187  31.439   3.231  13.331
91652W        W51188  32.925  25.673   1.803
91653W        W51189  26.641   7.686   3.205
91654W        W51190   8.291  30.023   4.601
91655W        W51191  21.536  25.978   4.250
91656W        W51192  15.681  27.602   3.639
91657W        W51193  41.937  22.677  11.403
91658W        W51194  34.579   5.712   4.613
91659W        W51195  13.626  25.969   0.467
91660W        W51196  28.469   1.378  10.895
91661W        W51197  36.370   7.416  14.466
91662W        W51198   6.692  19.098   0.336
91663W        W51199  38.395  13.176   0.942
91664W        W51200   0.754  18.088  13.473
91665W        W51201  43.334  16.181  12.395
91666W        W51202  36.351  25.686  11.064
91667W        W51203  27.176  15.795  13.405
91668W        W51204   1.362  11.844   0.890
91669W        W51205  41.525  42.939  12.989
91670W        W51206  15.234  30.126   0.472
91671W        W51207  11.251  20.524   4.167
91672W        W51208  21.612  44.327   4.162
91673W        W51209   1.817  26.007  12.991
91674W        W51210  40.030  27.499   4.353
91675W        W51211  44.863  37.397   2.814
91676W        W51212   2.420  15.319   0.803
91677W        W51213   5.350  18.618   0.951
91678W        W51214  35.585   3.941  12.867
91679W        W51215   1.761  27.565  12.052
91680W        W51216  12.642  36.484   4.115
91681W        W51217  17.710   4.340   0.459
91682W        W51218  38.060  30.439  13.838
91683W        W51219  17.652  39.040  13.408
91684W        W51220   6.743  31.626   2.701
91685W        W51221  42.352   4.918   4.269
91686W        W51222  33.556  19.729  10.431
91687W        W51223  18.618  16.256   1.853
91688W        W51224   1.825   6.420   3.182
91689W        W51225   1.901  20.123   3.284
91690W        W51226  18.295  21.188  14.420
91691W        W51227  41.951   2.412  14.889
91692W        W51228  36.909  18.624   0.844
91693W        W51229   5.405   8.756   2.331
91694W        W51230  38.916  16.669  13.062
91695W        W51231  33.591  29.071  10.062
91696W        W51232  33.470  44.804   0.964
91697W        W51233  44.441  14.754   1.769
91698W        W51234   4.822  11.680   4.769
91699W        W51235  42.293  25.704  11.569
91700W        W51236  24.631  35.531   2.291
91701W        W51237  16.770   3.798   0.400
91702W        W51238  34.072   9.707  11.528
91703W        W51239  16.653  15.141   4.614
91704W        W51240  14.099  44.405  14.911
91705W        W51241   3.875  34.910  13.839
91706W        W51242  23.984   9.876  11.861
91707W        W51243  29.951   9.825   0.340
91708W        W51244   6.281  36.990  14.872
91709W        W51245  34.926  30.461  13.962
91710W        W51246   4.381   3.900   2.885
91711W        W51247  12.161  13.229  11.950
91712W        W51248  33.470  41.815  14.288
91713W        W51249  29.559  34.103  14.778
91714W        W51250  16.153  35.007  11.402
91715W        W51251   6.191  28.084  12.063
91716W        W51252  44.279  30.478  11.874
91717W        W51253  20.606  27.596   3.729
91718W        W51254  24.497  25.151   2.216
91719W        W51255  31.095  18.057   5.240
91720W        W51256  42.776  15.625   0.868
91721W        W51257  33.596  28.635   4.118
91722W        W51258  29.118   6.424   3.675
91723W        W51259  39.915  42.358  14.379
91724W        W51260   1.274  26.483  12.930
91725W        W51261  37.456  39.966  14.893
91726W        W51262  33.040  34.468   3.806
91727W        W51263   8.698  40.009  11.393
91728W        W51264  25.692  14.172   1.714
91729W        W51265  19.084   9.771   4.641
91730W        W51266  30.020  27.062  10.943
91731W        W51267   5.371   5.718  14.316
91732W        W51268  29.152  42.428  12.539
91733W        W51269  26.060  28.147  12.580
91734W        W51270   2.229  12.261   3.259
91735W        W51271  18.624  19.725  13.447
91736W        W51272  10.732   4.340  10.434
91737W        W51273  18.772  13.671  12.509
91738W        W51274  27.995  42.871   3.368
91739W        W51275   8.829  43.338   4.219
91740W        W51276  12.849  16.107  11.500
91741W        W51277   1.969   5.707  12.363
91742W        W51278  40.013   8.773  12.068
91743W        W51279  41.396  31.608   3.282
91744W        W51280  39.932  24.616   3.836
91745W        W51281  10.299   4.750  10.408
91746W        W51282   8.794  44.963   4.152
91747W        W51283  15.817   0.267  11.070
91748W        W51284   6.319   8.380   1.385
91749W        W51285  20.734  26.542  10.126
91750W        W51286   0.399  39.831  11.069
91751W        W51287  17.185   0.932  11.547
91752W        W51288  11.173   6.863   0.762
91753W        W51289   5.308  20.690  13.315
91754W        W51290  25.029  33.620  10.952
91755W        W51291  39.047  43.794   3.184
91756W        W51292  21.579  27.059   3.645
91757W        W51293  43.988  30.646   4.142
91758W        W51294   7.361  30.450   0.924
91759W        W51295   4.216  28.135  13.899
91760W        W51296   9.357  23.119   1.443
91761W        W51297  39.065  41.942   4.728
91762W        W51298   2.723   3.875  12.506
91763W        W51299  30.089  36.854  14.872
91764W        W51300  27.604  19.112  11.585
91765W        W51301  27.631  18.633   3.675
91766W        W51302   7.731  33.515   5.176
91767W        W51303  13.297  40.445   4.322
91768W        W51304   7.416  41.315   2.757
91769W        W51305  18.200  21.719  12.539
91770W        W51306  32.065  30.444   0.914
91771W        W51307  33.458  13.614   4.641
91772W        W51308  14.781  10.862  13.922
91773W        W51309   1.286  35.458   1.369
91774W        W51310  23.219  38.481   3.277
91775W        W51311   4.371  16.170  13.457
91776W        W51312  37.392  24.580   4.638
91777W        W51313  30.098   6.353   2.181
91778W        W51314  25.049  44.290  12.066
91779W        W51315  42.024  44.413  11.452
91780W        W51316  15.215  19.731  12.955
91781W        W51317  38.405  14.184  11.536
91782W        W51318  10.679  31.503  12.496
91783W        W51319  29.006  42.427  14.375
91784W        W51320   2.935   7.299  14.797
91785W        W51321  23.041   6.185  10.487
91786W        W51322  13.718   6.802   1.766
91787W        W51323   1.411   5.428   1.394
91788W        W51324  18.700   7.723   0.781
91789W        W51325  36.034  24.560   4.699
91790W        W51326  29.076  24.028  14.499
91791W        W51327  33.112  32.014  11.465
91792W        W51328  42.461  31.899   5.291
91793W        W51329  13.669  31.546  10.517
91794W        W51330   8.718   2.902  14.828
91795W        W51331  29.445   1.452   3.827
91796W        W51332  37.390  44.886   4.321
91797W        W51333  41.523   0.915   3.842
91798W        W51334  42.283  13.263  12.936
91799W        W51335  33.929  15.294  14.817
91800W        W51336  21.538  33.475  14.812
91801W        W51337   2.729  30.432  10.460
91802W        W51338  29.010  16.681  10.930
91803W        W51339  33.082  13.813   3.687
91804W        W51340  39.430   4.740  10.631
91805W        W51341  29.509  20.528  12.381
91806W        W51342  10.361  35.043   3.342
91807W        W51343  22.011   4.415   1.782
91808W        W51344  26.987   4.278  14.291
91809W        W51345  24.492  30.641  10.989
91810W        W51346  25.667  41.514  12.505
91811W        W51347  23.072  17.107  11.089
91812W        W51348  17.289  12.701   3.823
91813W        W51349  31.031  27.537  12.969
91814W        W51350  38.061  32.452   3.856
91815W        W51351   6.815   0.290  13.464
91816W        W51352  27.166  32.027   2.898
91817W        W51353  31.541   3.738  11.594
91818W        W51354  17.600  42.791   4.213
91819W        W51355  41.425   4.903   2.183
91820W        W51356  42.342  33.907  10.987
91821W        W51357  37.899  24.047  13.961
91822W        W51358  37.520  43.291   4.240
91823W        W51359  30.984   5.810   2.286
91824W        W51360  29.064  41.358   2.786
91825W        W51361  35.022  22.680  13.873
91826W        W51362  11.199   9.376   1.782
91827W        W51363  29.548  20.099  13.396
91828W        W51364   3.903   5.245   4.117
91829W        W51365  19.673  11.240  13.989
91830W        W51366  35.991  32.485   3.365
91831W        W51367  21.554  24.974   1.359
91832W        W51368  43.350  25.138  11.477
91833W        W51369  39.909  42.852   2.292
91834W        W51370  32.435   6.360  14.473
91835W        W51371  19.105  37.011  13.986
91836W        W51372   2.245   1.396   0.760
91837W        W51373  33.431  20.180   2.722
91838W        W51374  12.789   3.378   3.378
91839W        W51375   6.211  20.669  13.515
91840W        W51376   2.396  29.503  14.963
91841W        W51377   3.869  21.613  12.541
91842W        W51378  16.219  24.214  10.608
91843W        W51379   3.786  30.468  12.929
91844W        W51380  27.177  30.908   2.287
91845W        W51381  10.221  30.596  10.524
91846W        W51382  41.352  12.302   0.359
91847W        W51383   0.463  38.455  13.975
91848W        W51384  37.533   3.826   0.774
91849W        W51385   8.785   0.880  11.458
91850W        W51386  27.948  30.583  12.883
91851W        W51387  25.137   5.808   5.176
91852W        W51388  42.992  29.552  12.498
91853W        W51389   6.400  22.575   2.694
91854W        W51390  19.692  30.042  13.022
91855W        W51391  31.038   6.295   0.728
91856W        W51392  10.714  41.449   4.696
91857W        W51393  36.406   3.874   1.740
91858W        W51394   0.421  19.666  13.540
91859W        W51395  40.536  11.812  10.056
91860W        W51396  23.015   6.886   5.195
91861W        W51397  17.718  24.221   5.210
91862W        W51398   5.260  10.799  13.428
91863W        W51399   2.748   8.275   1.917
91864W        W51400  21.047  19.072  12.357
91865W        W51401  43.345   7.755   1.717
91866W        W51402  18.683  16.152   3.294
91867W        W51403   1.282   2.239  12.984
91868W        W51404  15.198  17.560   0.484
91869W        W51405  22.040  32.099  10.144
91870W        W51406  13.760  26.678  11.090
91871W        W51407  11.320   5.915  10.587
91872W        W51408  25.162  30.990  12.824
91873W        W51409  10.202  35.984  13.496
91874W        W51410  19.211  31.046  10.931
91875W        W51411  35.864  27.121   0.328
91876W        W51412  35.857  24.199  13.999
91877W        W51413   9.274  21.064   1.813
91878W        W51414  43.800  10.198   3.359
91879W        W51415   4.438  38.958   1.403
91880W        W51416  15.740  27.486  10.932
91881W        W51417  19.251  39.826  14.324
91882W        W51418  44.317   6.831  12.570
91883W        W51419  41.934  36.555  12.861
91884W        W51420  11.370  37.977  10.472
91885W        W51421   6.756  35.424  13.873
91886W        W51422   9.865   0.425  14.489
91887W        W51423  34.473  37.577   4.624
91888W        W51424  43.491  12.846  14.445
91889W        W51425  17.260  18.273   3.861
91890W        W51426  24.524  10.824   2.891
91891W        W51427  34.466   3.873  14.355
91892W        W51428  12.337  38.481   1.371
91893W        W51429  34.557   3.417  13.356
91894W        W51430  21.225  15.138   0.408
91895W        W51431   6.315  15.126   0.785
91896W        W51432  32.431  37.361   3.384
91897W        W51433  29.610  24.987   3.735
91898W        W51434   0.369  44.762   4.783
91899W        W51435  11.339  44.470  12.000
91900W        W51436  42.875  11.158  14.969
91901W        W51437   9.343  39.404   3.282
91902W        W51438  25.594   5.765  14.317
91903W        W51439  27.978  36.952   0.911
91904W        W51440  16.629  16.637   4.256
91905W        W51441  32.073  34.512  12.468
91906W        W51442  20.564  28.658   3.799
91907W        W51443  36.923  33.115   2.836
91908W        W51444  33.542   5.862   0.454
91909W        W51445   5.224   6.404  14.284
91910W        W51446  16.710  29.070   3.233
91911W        W51447   6.351  39.343   0.389
91912W        W51448   6.814  30.594  10.976
91913W        W51449  12.682  28.515  12.920
91914W        W51450  33.388  17.771  14.340
91915W        W51451  16.290   2.233  11.879
91916W        W51452  39.513   5.801  11.543
91917W        W51453  38.472  33.400  13.406
91918W        W51454  25.214  22.997   3.386
91919W        W51455  41.519  44.295  12.043
91920W        W51456  39.447  40.813   1.779
91921W        W51457  34.397  42.359  12.503
91922W        W51458  19.575  29.438   0.421
91923W        W51459  41.379  17.120  14.768
91924W        W51460  32.536  27.164   3.234
91925W        W51461  30.017   8.192  11.081
91926W        W51462  39.950  35.567  12.831
91927W        W51463  28.043   0.883   1.932
91928W        W51464  17.688  33.910  12.852
91929W        W51465  24.557  11.228   0.815
91930W        W51466  35.480   1.932  11.476
91931W        W51467  27.689  17.694   2.198
91932W        W51468   3.946  31.022  11.528
91933W        W51469   1.409  12.823  12.897
91934W        W51470  33.114  11.202   4.130
91935W        W51471   7.867   3.810   1.737
91936W        W51472  28.957  19.582   1.367
91937W        W51473  22.542  37.918   1.294
91938W        W51474  37.575   9.212  11.479
91939W        W51475  38.975  17.253   4.650
91940W        W51476   2.413  10.245  10.147
91941W        W51477   9.802  38.536   2.670
91942W        W51478  41.895   4.344   0.728
91943W        W51479  43.324  23.722  14.452
91944W        W51480  39.023   3.456  12.856
91945W        W51481   0.861  26.542  13.526
91946W        W51482  44.863  18.185   3.844
91947W        W51483  29.521   1.831  12.531
91948W        W51484  11.849   8.297  13.879
91949W        W51485   2.924  26.986   1.703
91950W        W51486  31.002  36.986   1.214
91951W        W51487  10.693   4.413  13.795
91952W        W51488  27.177   8.315  10.488
91953W        W51489  23.703   9.862  10.584
91954W        W51490  37.942   3.945   3.779
91955W        W51491   8.392  19.048   0.827
91956W        W51492  29.959  14.169   0.369
91957W        W51493  16.758  31.946  14.842
91958W        W51494  43.494  27.070   2.263
91959W        W51495  41.430  19.578   1.803
91960W        W51496   2.415  35.572  12.952
91961W        W51497  11.291  19.127  11.088
91962W        W51498  30.151   0.884  14.954
91963W        W51499  10.828  34.427  14.449
91964W        W51500  24.199  14.237   2.799
91965W        W51501   8.877  32.912  12.876
91966W        W51502  42.007  22.033   3.774
91967W        W51503  33.052   0.279  13.539
91968W        W51504  28.474  39.520   0.865
91969W        W51505   4.351   4.914  13.819
91970W        W51506  11.198  32.036  11.901
91971W        W51507  25.675  22.711  13.542
91972W        W51508  43.953  25.594  10.414
91973W        W51509  39.535  16.089  13.944
91974W        W51510  11.818   9.754   3.360
91975W        W51511   1.923  27.132  13.308
91976W        W51512  30.551   6.223   2.670
91977W        W51513  19.773  37.057   1.348
91978W        W51514  33.916  41.356   1.714
91979W        W51515  32.088  27.148   0.441
91980W        W51516  18.594  37.527  13.320
91981W        W51517  39.842  12.702   1.917
91982W        W51518  25.193  31.908   4.758
91983W        W51519   6.181  29.941  12.848
91984W        W51520  32.548  25.009  14.894
91985W        W51521  34.451  22.726  14.497
91986W        W51522  38.961  22.608  13.989
91987W        W51523  15.636  44.995  12.481
91988W        W51524  33.569  14.095   4.275
91989W        W51525  23.068  33.111   1.878
91990W        W51526  13.616  44.792   0.961
91991W        W51527  44.843  41.395   0.730
91992W        W51528  16.178  35.536  12.504
91993W        W51529  22.636  41.951   3.170
91994W        W51530   7.262  11.263   4.286
91995W        W51531  32.131  33.383   1.910
91996W        W51532  14.227  34.490   4.132
91997W        W51533   9.321  41.032  14.483
91998W        W51534  28.139  16.246  11.076
91999W        W51535  41.938  15.184   0.906
92000W        W51536  27.518  26.102  13.497
92001W        W51537   3.312  16.226   1.384
92002W        W51538  34.374  42.296   4.313
92003W        W51539  30.105  28.011  11.438
92004W        W51540  10.672  35.942   3.331
92005W        W51541  13.781  26.017  11.599
92006W        W51542  29.621  30.996   3.386
92007W        W51543  20.756  10.733   2.802
92008W        W51544  10.201  21.108   1.906
92009W        W51545  37.994  43.309   4.118
92010W        W51546   7.686  42.478  14.022
92011W        W51547  43.886  35.435  12.007
92012W        W51548  12.345  44.456   2.672
92013W        W51549  14.140  29.543   5.147
92014W        W51550  18.708  15.232   0.252
92015W        W51551   2.316  23.677   4.156
92016W        W51552   4.258  11.678  11.878
92017W        W51553   7.239  16.788  12.883
92018W        W51554  37.395  44.009   1.814
92019W        W51555  43.800  20.602  12.346
92020W        W51556   7.217  42.513  10.409
92021W        W51557  20.237  34.912  11.901
92022W        W51558  15.250   1.427  10.611
92023W        W51559  14.620   1.947  11.129
92024W        W51560  36.556  15.316   4.826
92025W        W51561  28.681   9.217   4.278
92026W        W51562   1.433  30.421   3.800
92027W        W51563  26.586   4.943   4.640
92028W        W51564   4.386  10.377   4.218
92029W        W51565  23.095  17.758  14.327
92030W        W51566   2.721  18.617   1.794
92031W        W51567  33.975  10.231  13.393
92032W        W51568   4.884  31.485  11.919
92033W        W51569  39.447  43.823   9.965
92034W        W51570   9.170  15.270  14.443
92035W        W51571   3.729  39.838   4.736
92036W        W51572  13.631  13.166   2.859
92037W        W51573  25.577  41.885   2.665
92038W        W51574  33.557  43.866   1.835
92039W        W51575  33.039  15.739   3.725
92040W        W51576  18.595   4.364   3.298
92041W        W51577  21.039  22.035  13.547
92042W        W51578  10.848  37.051  11.125
92043W        W51579  29.984  11.271   0.427
92044W        W51580  25.032  28.966  13.967
92045W        W51581  34.940  38.070   1.243
92046W        W51582  27.000  42.977   0.962
92047W        W51583  29.077  44.760   2.286
92048W        W51584  33.514  32.437   0.866
92049W        W51585   2.881  12.334  13.349
92050W        W51586   9.265  43.359   3.763
92051W        W51587  43.897  24.001  11.456
92052W        W51588  17.217  34.019   1.711
92053W        W51589  20.718  37.009   3.813
92054W        W51590   3.935  34.394   0.302
92055W        W51591   9.161  44.871  11.068
92056W        W51592  27.470  31.554  11.560
92057W        W51593  28.068  33.547   5.146
92058W        W51594   8.856  40.000   2.342
92059W        W51595  35.363  16.566  14.828
92060W        W51596  42.440  22.623  12.827
92061W        W51597  37.867  11.855   4.339
92062W        W51598   8.168  31.418   3.728
92063W        W51599  32.110  25.185   3.801
92064W        W51600  30.511  13.128   2.404
92065W        W51601  41.995  35.014  10.636
92066W        W51602   0.974  23.508  10.479
92067W        W51603  22.107  34.371   2.229
92068W        W51604  38.844   5.276   1.434
92069W        W51605  25.125  29.629  13.506
92070W        W51606  43.904  10.255   4.150
92071W        W51607  24.568  25.576   4.198
92072W        W51608  19.687  37.336  14.846
92073W        W51609  13.703  27.624   0.455
92074W        W51610  14.695  42.904   2.833
92075W        W51611   3.954  29.965   4.352
92076W        W51612  40.004  41.325  12.412
92077W        W51613  10.766  34.882   3.332
92078W        W51614  16.663  11.302   0.838
92079W        W51615  30.446   3.880  13.312
92080W        W51616  17.749   8.332  11.897
92081W        W51617  29.457  41.337   4.170
92082W        W51618  11.354  44.891   2.213
92083W        W51619  37.370  13.670   0.469
92084W        W51620  12.742  10.285  13.464
92085W        W51621  33.931  39.492   4.690
92086W        W51622  34.420  19.265  11.439
92087W        W51623  24.981  30.972   4.207
92088W        W51624  34.393  27.015  10.605
92089W        W51625   6.226   3.314  12.391
92090W        W51626  10.749  29.999  12.905
92091W        W51627  27.001  32.124   9.931
92092W        W51628  42.833  17.082  14.770
92093W        W51629  29.539  29.438   3.689
92094W        W51630  44.774  16.082  10.041
92095W        W51631  29.165  22.209  13.487
92096W        W51632  40.889   9.331   0.731
92097W        W51633  36.075  36.572  14.916
92098W        W51634  18.251  15.652  11.419
92099W        W51635  30.947   4.921   0.431
92100W        W51636   5.768  22.564   0.395
92101W        W51637  18.606   9.874  11.042
92102W        W51638   4.435  15.163  11.928
92103W        W51639  43.960  28.559  13.309
92104W        W51640  14.703  43.788  10.954
92105W        W51641  38.932  11.677   4.127
92106W        W51642  26.635  21.530   4.816
92107W        W51643  29.157  24.999   1.924
92108W        W51644  14.128  31.562  13.422
92109W        W51645  28.103  36.850  12.553
92110W        W51646  43.876  31.154  11.379
92111W        W51647  12.808   8.341  12.428
92112W        W51648  15.711  28.623  12.849
92113W        W51649  20.740  25.550  11.425
92114W        W51650  32.571  31.948  10.062
92115W        W51651  42.336  19.745   1.393
92116W        W51652  16.795  10.177   0.250
92117W        W51653  19.771  13.145   1.914
92118W        W51654  12.267  28.052  11.126
92119W        W51655  43.323  11.717  14.894
92120W        W51656  30.625  23.561   0.425
92121W        W51657  29.121   1.871   0.275
92122W        W51658  42.850   8.797  13.878
92123W        W51659  12.679  19.239   1.343
92124W        W51660  24.681   6.371   4.286
92125W        W51661  38.335  44.259   3.222
92126W        W51662  34.978  32.412   1.875
92127W        W51663  25.051  11.690   1.731
92128W        W51664  40.920  20.632   2.671
92129W        W51665  25.011  24.523   1.441
92130W        W51666  19.244  11.269  14.938
92131W        W51667  10.154  43.842   0.389
92132W        W51668  20.743   5.725   2.713
92133W        W51669   3.926  36.873  12.480
92134W        W51670   5.236  36.963   4.165
92135W        W51671  36.871  42.929  10.597
92136W        W51672   7.738   6.751  10.481
92137W        W51673  42.393  16.167  13.901
92138W        W51674  43.501  30.985   2.213
92139W        W51675  24.121  25.135  11.383
92140W        W51676   5.405  12.212   0.401
92141W        W51677  37.901   7.824   4.204
92142W        W51678   5.282  13.741  10.950
92143W        W51679  18.659   0.829   1.812
92144W        W51680  26.084  38.970   1.423
92145W        W51681   9.330   5.350  13.319
92146W        W51682  41.013  41.372   4.837
92147W        W51683   4.915  16.788  12.983
92148W        W51684  27.560  10.339   1.717
92149W        W51685   4.450   8.766   4.307
92150W        W51686  25.176  24.720  10.928
92151W        W51687  38.014  35.452  13.873
92152W        W51688   7.307  27.039   5.702
92153W        W51689  29.604  31.641   4.180
92154W        W51690   0.482   3.224  14.985
92155W        W51691  38.845   7.223   3.732
92156W        W51692  34.454  17.137  14.499
92157W        W51693  17.098  24.522  13.830
92158W        W51694  30.415  36.486   4.278
92159W        W51695  42.515  19.650   0.453
92160W        W51696  28.988  10.355  12.843
92161W        W51697   6.407  24.688  11.958
92162W        W51698  26.615  13.619   4.203
92163W        W51699   6.185   8.747  12.877
92164W        W51700  41.434  32.029   3.769
92165W        W51701  28.597  30.157   0.245
92166W        W51702  23.627  34.935  14.464
92167W        W51703  12.839  30.637  12.566
92168W        W51704  18.232  14.796  13.453
92169W        W51705  31.448  20.544  13.019
92170W        W51706  32.094  23.180  12.413
92171W        W51707  15.121  31.026  12.432
92172W        W51708  28.440  35.442  11.018
92173W        W51709   6.387  15.215  11.501
92174W        W51710  31.901  36.910   2.353
92175W        W51711  24.226  22.567  14.459
92176W        W51712  25.071  17.781  11.964
92177W        W51713  22.213   4.738   0.441
92178W        W51714   0.790  41.817   1.722
92179W        W51715  20.069  28.158  10.092
92180W        W51716  30.554   4.727   3.792
92181W        W51717  22.232  16.748   2.886
92182W        W51718  12.701  36.075   0.472
92183W        W51719  14.643  27.058  12.905
92184W        W51720  19.676   0.827   4.710
92185W        W51721   3.401   2.819  12.040
92186W        W51722  42.350  28.140   4.682
92187W        W51723  19.209  20.038   2.669
92188W        W51724  40.458   2.881  14.834
92189W        W51725  32.487  10.730  14.284
92190W        W51726  44.921  36.374  13.493
92191W        W51727  37.067  44.303  14.825
92192W        W51728   3.715  25.545   1.345
92193W        W51729  11.280  34.444   3.861
92194W        W51730   1.850  36.913  12.050
92195W        W51731  19.563  42.023  13.383
92196W        W51732   5.810  17.104  11.454
92197W        W51733  41.827  14.722  10.106
92198W        W51734   4.244  15.779   1.902
92199W        W51735  40.960   1.425   1.919
92200W        W51736   3.950  33.000  14.494
92201W        W51737   2.946   1.903  14.825
92202W        W51738  31.124  13.168   2.841
92203W        W51739  24.221   8.160   4.260
92204W        W51740  39.545   0.776   5.265
92205W        W51741  17.243  20.273  11.439
92206W        W51742   8.183  41.406   4.186
92207W        W51743  41.451  28.470  14.459
92208W        W51744  10.253  40.538  12.549
92209W        W51745   0.902  16.307   2.196
92210W        W51746  23.617  29.063  12.414
92211W        W51747  21.025  39.402   0.778
92212W        W51748  18.573  12.776  13.349
92213W        W51749   2.332  34.863  12.926
92214W        W51750  37.377  29.600   4.342
92215W        W51751  20.233  30.491   0.254
92216W        W51752   4.912   9.683   2.750
92217W        W51753   2.878  33.383   0.897
92218W        W51754   6.698   9.724  11.441
92219W        W51755  28.078  12.143  10.626
92220W        W51756  17.141  21.546   1.831
92221W        W51757   7.356  23.240   2.804
92222W        W51758  44.756  44.399  12.550
92223W        W51759  39.517  44.288  13.038
92224W        W51760  19.646  11.801  11.956
92225W        W51761   7.287  10.739  11.871
92226W        W51762  43.324   2.434   0.943
92227W        W51763  35.924  10.309   0.467
92228W        W51764  29.089  32.599   0.786
92229W        W51765  17.700  35.408   1.254
92230W        W51766  41.973   9.217   0.421
92231W        W51767  39.443   2.357   2.228
92232W        W51768  35.512  15.145  11.542
92233W        W51769  11.278   4.370  11.610
92234W        W51770  32.113  25.648   4.187
92235W        W51771  35.859  29.058  14.902
92236W        W51772  34.003   9.706   2.203
92237W        W51773  36.953  25.702   3.215
92238W        W51774  23.199   3.347   0.411
92239W        W51775  35.496  43.391  14.513
92240W        W51776  40.877  35.494   4.154
92241W        W51777   9.257  39.051   2.239
92242W        W51778  17.623  22.712  10.889
92243W        W51779  21.739   2.463  11.902
92244W        W51780  20.648   4.336   5.208
92245W        W51781  42.832  21.212   4.306
92246W        W51782  29.953  40.467   3.827
92247W        W51783  11.639   0.920  13.458
92248W        W51784  26.193   7.860  14.348
92249W        W51785  38.980  32.970  10.043
92250W        W51786  28.156  36.435  13.328
92251W        W51787   9.748  13.109  12.943
92252W        W51788   3.383  43.340  14.472
92253W        W51789  29.542   3.292   2.244
92254W        W51790  15.617  20.096   9.471
92255W        W51791  18.234  24.049  11.026
92256W        W51792   9.180  21.585   1.789
92257W        W51793  11.865  15.729   0.327
92258W        W51794   4.746   0.801   0.462
92259W        W51795  43.950  14.322   1.695
92260W        W51796   7.230   7.184   3.189
92261W        W51797  23.716   9.152   1.814
92262W        W51798  40.862  15.674   0.784
92263W        W51799  24.668  28.018  11.461
92264W        W51800  19.206   7.707  12.840
92265W        W51801  16.177  28.013   4.170
92266W        W51802  22.102  10.256  12.034
92267W        W51803   3.392  33.397  14.877
92268W        W51804  21.688  43.341  12.033
92269W        W51805  14.161  20.669  13.335
92270W        W51806   4.784  15.662   3.289
92271W        W51807   2.376  31.065  14.505
92272W        W51808  44.309   7.737   4.645
92273W        W51809  14.617  13.821  13.399
92274W        W51810  37.452  30.988   4.832
92275W        W51811  16.292   9.369  13.363
92276W        W51812  40.973  29.961   2.218
92277W        W51813  10.682  34.588   1.698
92278W        W51814   1.837   3.855   3.854
92279W        W51815   2.257   4.207  12.962
92280W        W51816  24.127  15.642  12.488
92281W        W51817   5.406  32.424  10.452
92282W        W51818  27.035  34.438  13.851
92283W        W51819  36.924   3.898  11.030
92284W        W51820  25.546  33.506  12.442
92285W        W51821  20.065  26.683  12.517
92286W        W51822  43.451  21.694  13.526
92287W        W51823   9.150  32.513   1.905
92288W        W51824   3.899  21.086  12.951
92289W        W51825  11.826  41.313   4.276
92290W        W51826  16.276  17.608  13.974
92291W        W51827  24.194  14.829  12.025
92292W        W51828  10.366  31.036   0.457
92293W        W51829   2.854  12.343   1.316
92294W        W51830  34.611  35.933  13.010
92295W        W51831  41.833  33.065   0.424
92296W        W51832  25.509  39.808  13.404
92297W        W51833  39.449  17.257   1.418
92298W        W51834   8.698   9.238  12.495
92299W        W51835  25.110   9.649   1.716
92300W        W51836  24.677  40.830   1.882
92301W        W51837  32.097  32.396  10.580
92302W        W51838   1.431  32.132  10.042
92303W        W51839  28.034   6.811  11.873
92304W        W51840   8.343   7.283  10.975
92305W        W51841  16.293  17.720  11.559
92306W        W51842  10.816   5.193   4.820
92307W        W51843   8.197  21.715   2.714
92308W        W51844  40.916  26.650   2.860
92309W        W51845  41.382   7.865  12.853
92310W        W51846  19.278  38.838   0.815
92311W        W51847  29.074  10.342   1.396
92312W        W51848  30.472  12.126  11.031
92313W        W51849   4.258  11.252  11.464
92314W        W51850   0.807   2.440  14.308
92315W        W51851  14.596  35.570  13.364
92316W        W51852  35.905  38.511   1.923
92317W        W51853   7.723  21.612  12.464
92318W        W51854   8.728  15.646   4.839
92319W        W51855   2.466  20.103  14.904
92320W        W51856  35.948   2.722  14.829
92321W        W51857  14.230  40.456  11.929
92322W        W51858  22.040  39.894   2.894
92323W        W51859  32.992  34.376  10.427
92324W        W51860  12.239  16.739   0.735
92325W        W51861  26.668  26.009  11.907
92326W        W51862  19.683  10.176   3.654
92327W        W51863  28.097  19.646  11.878
92328W        W51864   6.320  35.581  13.529
92329W        W51865  42.517  34.466   4.627
92330W        W51866  16.647  37.855  14.943
92331W        W51867   8.195  40.898   1.735
92332W        W51868  12.660  19.559   1.378
92333W        W51869  44.266  36.572  10.592
92334W        W51870  20.182  10.221   9.930
92335W        W51871   0.988   3.803   4.229
92336W        W51872  39.938  30.560   2.255
92337W        W51873  24.192  33.107  11.037
92338W        W51874  33.589  28.937  12.555
92339W        W51875   0.918  36.042  12.349
92340W        W51876   4.761  34.906   2.249
92341W        W51877  18.675  44.365   3.279
92342W        W51878  21.185   3.917  12.068
92343W        W51879  22.023   4.264  13.062
92344W        W51880   1.266  24.152   0.381
92345W        W51881  32.614   3.416  10.934
92346W        W51882  34.486   1.322   1.328
92347W        W51883  31.950  37.544  12.363
92348W        W51884  32.485   7.245   0.895
92349W        W51885   2.814   5.780  14.807
92350W        W51886   9.882   3.355   2.690
92351W        W51887  38.858  23.141  13.011
92352W        W51888  30.551  25.572  12.886
92353W        W51889  19.537  22.247   1.262
92354W        W51890  23.602  22.528  12.898
92355W        W51891  32.100  16.257   4.131
92356W        W51892  33.940  20.141  12.072
92357W        W51893  18.770   1.286   0.940
92358W        W51894  39.875  38.967   2.895
92359W        W51895  19.132  10.340  14.861
92360W        W51896  36.423  39.820  14.804
92361W        W51897  44.291  12.646  10.018
92362W        W51898  42.503  35.972  14.881
92363W        W51899  37.869  40.428  13.499
92364W        W51900  32.610  44.796  14.293
92365W        W51901  20.207   5.692  11.415
92366W        W51902  23.610  43.765  11.478
92367W        W51903  28.563   9.202   1.842
92368W        W51904   4.430  18.123   4.132
92369W        W51905   9.723  29.622  13.802
92370W        W51906  44.410  37.915   5.117
92371W        W51907  14.299  22.577   3.751
92372W        W51908   0.334  26.598  13.967
92373W        W51909  28.126   0.854   4.313
92374W        W51910   8.190  30.908   4.349
92375W        W51911  14.184  23.048  12.831
92376W        W51912  33.491  19.640   2.883
92377W        W51913  23.573  29.484   0.464
92378W        W51914  44.798  40.470   2.797
92379W        W51915  30.931  19.199   3.269
92380W        W51916  31.538  12.246  10.513
92381W        W51917  32.055   7.354  11.121
92382W        W51918  23.056  34.533  14.013
92383W        W51919  10.829  13.226  11.064
92384W        W51920   8.260  30.973   4.809
92385W        W51921  40.387  44.873   5.255
92386W        W51922  30.116  41.350  12.429
92387W        W51923  16.804  27.577  14.409
92388W        W51924  25.966  42.457   3.819
92389W        W51925  12.819   6.188   9.974
92390W        W51926   2.853   3.358  11.525
92391W        W51927   9.297  22.507   1.756
92392W        W51928   4.327  20.760   1.309
92393W        W51929  36.059  29.474  10.600
92394W        W51930  13.277  24.522  11.891
92395W        W51931  11.665  39.423   1.377
92396W        W51932   5.281  37.539  14.382
92397W        W51933  18.763  42.419  13.802
92398W        W51934  24.126  25.062   1.843
92399W        W51935  18.296  16.144  12.872
92400W        W51936  23.212  35.098   5.207
92401W        W51937   3.737  39.315   1.859
92402W        W51938  32.053   4.310  10.612
92403W        W51939  29.570  11.664  14.846
92404W        W51940  33.449   6.222   2.235
92405W        W51941  10.763  37.348  11.096
92406W        W51942  13.700   7.764   0.279
92407W        W51943  24.105  39.446  12.516
92408W        W51944  27.197   8.285   0.966
92409W        W51945  16.582  41.013  10.591
92410W        W51946   9.271  39.030  10.127
92411W        W51947   4.218   1.842   0.829
92412W        W51948   2.302  43.951  11.372
92413W        W51949  38.849  28.011  14.404
92414W        W51950  33.413   9.389  12.927
92415W        W51951  36.935  22.182   4.746
92416W        W51952  40.816   2.817   3.244
92417W        W51953   1.841  19.117  11.609
92418W        W51954  34.407   3.765  14.959
92419W        W51955  25.198  43.301   4.258
92420W        W51956  28.076  30.517   2.284
92421W        W51957  33.994   0.295  14.980
92422W        W51958  40.905  33.947  13.939
92423W        W51959  25.496   2.468   2.338
92424W        W51960  44.296   4.790   2.713
92425W        W51961  39.375  36.913   3.302
92426W        W51962  25.019  37.438  12.420
92427W        W51963  12.200  30.582   2.192
92428W        W51964  33.440   2.342   9.938
92429W        W51965  13.331  19.764  11.534
92430W        W51966   7.885  17.081  14.840
92431W        W51967  29.578   5.403  10.986
92432W        W51968   3.405  34.009  10.404
92433W        W51969  14.692   9.160  13.954
92434W        W51970  21.259  14.334  13.369
92435W        W51971  35.864  17.215  12.489
92436W        W51972   0.450  12.243  11.520
92437W        W51973  44.439  23.217   0.403
92438W        W51974  38.544  32.405  14.349
92439W        W51975  31.121   5.810   0.336
92440W        W51976  24.550   5.691   2.734
92441W        W51977   6.383  22.121  11.435
92442W        W51978   5.896   8.228   4.169
92443W        W51979  40.534  21.045  10.062
92444W        W51980  34.053  29.535  11.610
92445W        W51981  37.582   3.858  10.622
92446W        W51982  25.116   5.700  13.889
92447W        W51983  29.436  29.571   0.784
92448W        W51984  32.086  30.523   3.338
92449W        W51985  14.733   0.831   2.309
92450W        W51986  17.185  10.365   0.384
92451W        W51987  36.030  42.310   0.414
92452W        W51988   1.860  26.608  13.405
92453W        W51989  16.696   0.799   2.270
92454W        W51990   4.881  11.198  13.931
92455W        W51991   1.243  23.132   5.212
92456W        W51992  42.919  28.642  11.858
92457W        W51993  44.884   5.222  14.496
92458W        W51994  22.671  16.594   5.210
92459W        W51995  29.489  36.094   5.194
92460W        W51996  30.028  27.619  12.084
92461W        W51997  39.450  43.836   5.212
92462W        W51998  19.650  44.417   4.291
92463W        W51999  18.753  24.113   3.203
92464W        W52000  42.915   8.256   3.695
92465W        W52001   1.413  44.350  14.025
92466W        W52002  26.500  30.026  11.562
92467W        W52003  42.466  13.229   2.733
92468W        W52004  31.974  24.638   0.253
92469W        W52005  11.207  22.206  10.413
92470W        W52006   0.325  38.842  12.473
92471W        W52007  38.518  36.509  10.523
92472W        W52008  29.584   9.365  13.481
92473W        W52009  16.600  26.467   2.803
92474W        W52010  21.676  28.572   1.386
92475W        W52011   1.377  25.194   1.372
92476W        W52012   5.312  16.652  12.427
92477W        W52013   4.443  33.040   1.929
92478W        W52014  44.919  40.944   0.247
92479W        W52015  30.477  41.791   1.933
92480W        W52016  41.444  33.925   4.774
92481W        W52017   7.859  19.675  14.464
92482W        W52018   6.244   7.876   3.251
92483W        W52019   3.801  16.765   4.166
92484W        W52020  26.680   5.409  13.353
92485W        W52021  28.459  37.088   4.831
92486W        W52022  25.970   2.835   0.962
92487W        W52023  24.665  13.263   3.351
92488W        W52024   2.405  14.789  11.947
92489W        W52025  38.324  21.096   0.890
92490W        W52026  38.967  31.411   0.890
92491W        W52027  42.393   1.463   1.695
92492W        W52028  22.640   7.177  11.924
92493W        W52029  37.025  31.505  13.330
92494W        W52030  16.700  41.919   2.756
92495W        W52031  40.433  23.680   1.352
92496W        W52032  25.693  16.273   4.609
92497W        W52033  30.481  37.564   0.433
92498W        W52034  24.550  32.950   4.776
92499W        W52035   4.342   2.397  11.022
92500W        W52036   9.292  24.043  11.547
92501W        W52037  18.158   8.731   2.828
92502W        W52038  41.410   2.941   4.801
92503W        W52039  42.387  20.102   2.210
92504W        W52040   8.321   6.399  13.037
92505W        W52041  33.995   0.801   3.241
92506W        W52042  15.627  24.686  14.482
92507W        W52043  15.696   3.451   1.425
92508W        W52044  41.928  27.176  13.870
92509W        W52045  36.561  39.960  11.423
92510W        W52046  43.944  11.162   3.368
92511W        W52047  43.356  11.217   0.466
92512W        W52048  28.551  42.301   2.759
92513W        W52049  13.144  34.574   0.302
92514W        W52050  44.011  25.596  14.828
92515W        W52051   4.244   8.772  13.008
92516W        W52052  13.658  44.455  14.490
92517W        W52053   3.456   6.188  14.499
92518W        W52054  37.520  13.665   0.846
92519W        W52055   3.235  37.341  14.801
92520W        W52056  24.651  11.221  12.063
92521W        W52057   8.670  40.322   1.308
92522W        W52058   5.321  30.909  12.016
92523W        W52059  35.488  20.090  10.496
92524W        W52060  19.627  28.176  14.810
92525W        W52061   9.318   0.940   1.843
92526W        W52062   6.737  39.843   3.158
92527W        W52063  18.172  29.168  11.418
92528W        W52064   1.346  36.406  12.891
92529W        W52065  21.092  21.570   1.833
92530W        W52066  16.712  39.420   3.149
92531W        W52067  14.176  32.469   4.636
92532W        W52068  39.433   3.764  10.903
92533W        W52069  42.950  30.940   2.384
92534W        W52070  28.998  17.120   0.925
92535W        W52071  20.114   2.437   3.710
92536W        W52072  19.140  18.191  14.366
92537W        W52073  41.515  14.325   1.373
92538W        W52074  40.952  32.474  14.965
92539W        W52075  35.950  22.604   2.683
92540W        W52076   7.329   9.176   0.296
92541W        W52077  29.646  33.532  12.878
92542W        W52078  10.238  31.504   2.699
92543W        W52079  23.035  29.619   4.786
92544W        W52080  18.223  12.161   3.864
92545W        W52081   6.750   1.850   1.416
92546W        W52082  17.741  34.609   0.277
92547W        W52083  33.940  43.463   0.872
92548W        W52084   6.787  19.242  14.965
92549W        W52085   0.886  35.896  14.016
92550W        W52086  10.816  40.939  13.472
92551W        W52087  12.617  22.518   2.798
92552W        W52088  33.024  26.016  11.507
92553W        W52089  41.004  19.778  12.367
92554W        W52090  26.178  27.989  10.412
92555W        W52091   1.808  25.683   2.902
92556W        W52092   0.891  33.884   4.672
92557W        W52093  26.496   2.925  13.443
92558W        W52094  25.075  25.679  13.838
92559W        W52095  18.774  26.473   1.334
92560W        W52096   3.220  24.485  12.438
92561W        W52097   8.887  13.283   2.280
92562W        W52098   3.289   1.263  13.911
92563W        W52099  43.879  28.658   3.170
92564W        W52100  13.238  38.527   0.850
92565W        W52101  30.095  33.124   3.149
92566W        W52102  38.991  20.051   1.259
92567W        W52103  44.978  26.990   3.214
92568W        W52104  10.796   3.244  10.626
92569W        W52105  20.113  14.781  12.548
92570W        W52106  35.026  27.094  11.537
92571W        W52107   7.216  38.470   3.363
92572W        W52108  38.345  11.193  10.573
92573W        W52109  40.383  28.014  14.282
92574W        W52110  25.098  20.626   1.232
92575W        W52111   8.765  35.371   1.356
92576W        W52112  41.485  42.291  14.979
92577W        W52113  28.989  41.476  13.828
92578W        W52114  15.170   6.692  10.428
92579W        W52115  11.254   5.855   3.147
92580W        W52116   3.847  14.167   0.377
92581W        W52117  44.274   7.681   5.218
92582W        W52118  31.601  39.381   4.816
92583W        W52119  30.510  13.648   0.785
92584W        W52120  10.874  15.783   2.763
92585W        W52121   7.180  41.310  14.875
92586W        W52122  19.247  25.165  14.383
92587W        W52123  27.657  24.574  13.316
92588W        W52124  32.043  39.891   2.816
92589W        W52125   1.846  42.801  13.823
92590W        W52126  44.880  12.787  11.017
92591W        W52127  11.681  38.834  14.423
92592W        W52128  19.562  11.279  12.485
92593W        W52129  39.343  15.822   1.790
92594W        W52130  24.093  42.960   0.450
92595W        W52131  38.840  33.438   3.345
92596W        W52132  37.961   2.849  12.521
92597W        W52133  17.666   4.297   3.652
92598W        W52134  18.275  24.045  11.990
92599W        W52135   5.835  21.099   0.348
92600W        W52136  20.527   3.462  12.876
92601W        W52137  37.340   5.265  10.432
92602W        W52138  24.631  13.263  14.018
92603W        W52139  40.409  14.737   1.451
92604W        W52140  38.990  41.512   2.197
92605W        W52141   5.218  19.182  12.928
92606W        W52142  24.126  33.459   2.368
92607W        W52143  23.495   2.465  13.515
92608W        W52144  26.583  39.845   2.350
92609W        W52145  13.713  11.187   2.881
92610W        W52146  12.657  15.115   0.267
92611W        W52147  17.153   2.248   0.369
92612W        W52148   7.268  29.094   2.839
92613W        W52149  11.838  36.038   4.702
92614W        W52150   5.690  44.342  12.389
92615W        W52151  22.644  42.998  14.427
92616W        W52152   5.248  40.964  11.583
92617W        W52153   3.880  39.551  10.913
92618W        W52154  39.478   1.823   0.887
92619W        W52155  16.152  17.273  11.960
92620W        W52156  19.047   5.724   4.758
92621W        W52157  20.656   5.909   0.751
92622W        W52158  25.196  20.273   1.428
92623W        W52159  17.181  27.181  11.872
92624W        W52160  30.500  35.992  13.519
92625W        W52161  33.909  37.943  13.393
92626W        W52162  43.429  41.439  13.337
92627W        W52163  40.880  24.973   1.371
92628W        W52164  23.127  17.246   3.838
92629W        W52165  10.231  26.498  12.400
92630W        W52166  42.026  18.761  14.848
92631W        W52167   8.796   2.300  14.353
92632W        W52168  27.973  41.840  13.881
92633W        W52169  33.605  24.558  13.878
92634W        W52170  30.015  44.943  12.066
92635W        W52171  43.318  35.575  14.495
92636W        W52172  20.263   1.847   2.747
92637W        W52173  40.035   8.791   2.710
92638W        W52174   1.932  30.622  12.514
92639W        W52175   1.272  34.540   4.645
92640W        W52176  15.309   6.400   1.217
92641W        W52177  16.209   3.258  12.547
92642W        W52178  17.203  28.131  14.889
92643W        W52179   6.391   1.761  14.416
92644W        W52180  33.423  29.454  14.772
92645W        W52181  23.143  17.696  13.893
92646W        W52182  22.175  33.463   2.750
92647W        W52183   3.788  39.876  14.777
92648W        W52184  19.132  42.355  10.965
92649W        W52185  29.955   7.893  13.864
92650W        W52186  29.172  21.148  11.518
92651W        W52187  31.646   7.809   0.850
92652W        W52188  41.385  16.634  12.875
92653W        W52189  26.621  38.991  11.951
92654W        W52190  13.169  25.185   1.424
92655W        W52191  36.849  42.397  10.412
92656W        W52192   8.318  42.862  11.113
92657W        W52193  17.760   0.930  13.348
92658W        W52194   9.850  18.180  14.759
92659W        W52195  34.558   0.744  13.971
92660W        W52196  24.179  23.031  13.327
92661W        W52197  39.930  18.129  12.874
92662W        W52198  29.564   5.306   2.265
92663W        W52199   5.256  30.934   0.739
92664W        W52200   6.237  39.436  12.392
92665W        W52201  14.721  21.746   4.639
92666W        W52202  15.318  17.303   0.757
92667W        W52203  34.872  11.363   4.157
92668W        W52204  23.662  27.110   3.674
92669W        W52205  38.374  24.996   2.716
92670W        W52206  29.532  28.489   3.864
92671W        W52207  12.266  41.986  12.466
92672W        W52208  34.466  24.091  13.418
92673W        W52209   6.780  33.400   4.814
92674W        W52210   0.767  12.782   4.308
92675W        W52211  43.836  15.752  12.982
92676W        W52212  26.487  44.878  10.498
92677W        W52213  39.003  34.048  14.999
92678W        W52214  19.622  40.803  14.839
92679W        W52215   1.948  29.489  11.898
92680W        W52216  42.920  28.563   2.665
92681W        W52217  35.079  41.349   2.257
92682W        W52218   1.439  17.199  11.514
92683W        W52219  29.955   0.922  14.499
92684W        W52220  20.543  25.474   1.911
92685W        W52221  37.949   4.422  10.132
92686W        W52222  30.934  19.265  13.885
92687W        W52223  20.658  35.578  13.316
92688W        W52224   8.190  21.138   2.894
92689W        W52225   8.353  38.884  12.352
92690W        W52226  20.048  37.383  12.385
92691W        W52227  10.851  15.207   1.310
92692W        W52228  27.634   1.265   2.363
92693W        W52229   7.741  18.688  13.983
92694W        W52230  16.587   0.840  14.422
92695W        W52231  17.259  39.351   4.616
92696W        W52232   2.465   9.214  12.986
92697W        W52233  43.975  41.524  14.454
92698W        W52234   6.888  34.920   1.741
92699W        W52235  16.742   3.749   1.911
92700W        W52236  30.951   3.348  13.343
92701W        W52237  21.078  16.764  14.409
92702W        W52238   3.853  43.987   2.199
92703W        W52239  25.567  13.145  10.888
92704W        W52240  35.040  39.061  11.449
92705W        W52241  26.697  15.585   1.874
92706W        W52242  36.428   4.814  11.076
92707W        W52243   4.242  39.034   0.378
92708W        W52244  28.006  27.964   4.615
92709W        W52245   9.372  21.590  10.422
92710W        W52246  12.693  41.900   2.706
92711W        W52247  32.521  27.499   0.477
92712W        W52248  31.027  30.104  12.514
92713W        W52249  28.036  20.097   2.262
92714W        W52250  39.917   2.789  10.917
92715W        W52251  35.976  30.547  10.948
92716W        W52252  25.977  38.341   2.403
92717W        W52253  31.441   2.352  12.499
92718W        W52254  22.037  40.966   2.371
92719W        W52255  22.100   5.422  12.409
92720W        W52256  15.784  15.314   1.249
92721W        W52257  35.390   1.386  13.039
92722W        W52258  42.355  38.525   3.339
92723W        W52259  21.188  43.973   2.794
92724W        W52260   7.282   6.349  12.883
92725W        W52261  24.550  23.182  10.502
92726W        W52262   1.800  15.313  13.909
92727W        W52263   1.414   1.323   0.965
92728W        W52264   2.263  34.079  14.302
92729W        W52265  15.107  21.690   1.791
92730W        W52266  34.038  18.055  11.891
92731W        W52267  13.628  24.585   1.789
92732W        W52268   3.908  38.071   3.858
92733W        W52269   3.881  35.521  13.459
92734W        W52270   6.854   4.867   0.276
92735W        W52271  26.135   8.255  14.981
92736W        W52272  16.225  34.989  13.006
92737W        W52273  11.212  32.055  11.506
92738W        W52274   2.734   9.786   4.240
92739W        W52275  39.380  44.879   0.894
92740W        W52276   0.475  22.746   0.418
92741W        W52277   5.414  36.881  13.968
92742W        W52278  14.115  24.000  11.416
92743W        W52279  12.223  29.627  11.377
92744W        W52280   4.748  19.708  11.455
92745W        W52281  38.545  19.557  12.908
92746W        W52282  44.358  40.337   2.812
92747W        W52283   6.379   0.251   1.816
92748W        W52284   2.377  23.667  11.986
92749W        W52285   0.959  25.497   1.312
92750W        W52286  43.954  27.064   0.289
92751W        W52287  22.118  39.535  11.455
92752W        W52288   5.423  22.593  14.835
92753W        W52289  17.642  36.995   1.780
92754W        W52290  10.285  29.965  11.025
92755W        W52291   9.801   0.257  10.952
92756W        W52292   5.793   4.430  13.862
92757W        W52293  37.359  11.697  12.982
92758W        W52294  27.054  32.086  12.997
92759W        W52295  31.614  22.671  14.485
92760W        W52296  37.572  20.099   1.931
92761W        W52297  35.479  32.039   1.893
92762W        W52298   8.291  11.658   0.324
92763W        W52299  27.621  10.376   4.725
92764W        W52300  12.121   1.365   4.757
92765W        W52301  30.631  37.942  11.468
92766W        W52302  31.426  27.583   3.303
92767W        W52303  24.581  11.651   2.829
92768W        W52304  30.528  29.984   1.774
92769W        W52305   1.437  43.865  12.065
92770W        W52306   5.419  41.427   0.344
92771W        W52307  24.064  14.331  13.970
92772W        W52308   0.281  26.179   0.334
92773W        W52309  41.410  29.017  10.438
92774W        W52310   8.798  27.966   4.145
92775W        W52311   4.243  29.966   2.334
92776W        W52312  34.019  29.097  13.469
92777W        W52313  11.862  29.119   2.372
92778W        W52314  42.317  33.026   2.327
92779W        W52315  38.548  11.707   4.174
92780W        W52316   0.453  10.724   4.173
92781W        W52317  18.600  21.528   4.215
92782W        W52318   3.273  13.172  13.511
92783W        W52319   0.820  22.014   4.818
92784W        W52320  30.932  34.531  14.483
92785W        W52321  10.728  11.233   1.931
92786W        W52322  39.354   1.253  14.945
92787W        W52323  28.631  33.414   0.959
92788W        W52324  35.967  33.903   3.218
92789W        W52325   7.301   7.337  14.958
92790W        W52326   2.384  17.249   3.274
92791W        W52327  22.197  41.914   3.710
92792W        W52328  36.471  42.847  13.797
92793W        W52329  40.422  19.146  12.965
92794W        W52330  38.961  41.987  13.514
92795W        W52331  15.795  40.848   3.199
92796W        W52332  26.695  35.877   3.280
92797W        W52333  32.437  31.607   0.431
92798W        W52334  36.050   8.788   0.474
92799W        W52335   0.421  28.074  13.845
92800W        W52336  23.034  13.287  10.444
92801W        W52337  33.098  25.528   3.180
92802W        W52338  32.609   6.206  12.438
92803W        W52339  13.161  27.971   9.935
92804W        W52340   0.987  12.792  10.010
92805W        W52341  14.712   6.220  11.062
92806W        W52342  42.366  25.024  14.901
92807W        W52343  37.431   2.940   4.816
92808W        W52344  40.449  15.207   2.764
92809W        W52345  43.492  19.063  11.581
92810W        W52346  12.330  33.449  13.312
92811W        W52347  18.284  27.157  11.898
92812W        W52348  30.608  12.621  12.449
92813W        W52349   9.709  12.163  14.029
92814W        W52350  28.554  44.942  12.560
92815W        W52351  20.168  22.599  10.910
92816W        W52352   6.710  18.244  14.858
92817W        W52353  43.442  32.581  13.978
92818W        W52354  27.660  14.266  11.113
92819W        W52355  15.199  39.423   4.793
92820W        W52356  44.767   3.243   0.440
92821W        W52357   4.219  13.752  11.925
92822W        W52358  35.961  43.876  13.993
92823W        W52359  18.260  43.874  12.528
92824W        W52360   5.873  41.870  12.007
92825W        W52361   3.231  40.460   4.144
92826W        W52362  39.409  31.968  11.080
92827W        W52363  40.834  42.408   3.187
92828W        W52364  12.284  20.037   0.891
92829W        W52365   2.785  39.552   3.761
92830W        W52366  10.354  35.083   4.685
92831W        W52367  33.063  13.285   4.351
92832W        W52368  19.619   7.332   0.956
92833W        W52369   3.907  11.307  11.523
92834W        W52370  28.611  27.033  14.926
92835W        W52371  32.537  12.740  10.974
92836W        W52372  18.579   1.246   0.323
92837W        W52373  19.046   4.747  14.849
92838W        W52374  18.656  14.189  10.623
92839W        W52375  42.934  22.640  10.547
92840W        W52376  25.045   7.909   0.758
92841W        W52377   1.333  40.478  10.603
92842W        W52378  28.523   9.350   4.817
92843W        W52379   7.184  35.458  14.389
92844W        W52380  37.451  21.137  10.503
92845W        W52381   4.258  10.818   2.189
92846W        W52382   5.901  28.038   0.331
92847W        W52383   0.354  14.169   1.789
92848W        W52384  42.412   8.783   4.226
92849W        W52385  24.126  30.482  13.488
92850W        W52386  15.731  41.957   0.830
92851W        W52387  39.977   8.239   0.867
92852W        W52388  34.419   2.745   2.712
92853W        W52389  14.115  20.680   1.779
92854W        W52390  20.110  22.727   2.667
92855W        W52391  27.567   4.902   1.858
92856W        W52392   4.780  39.402  14.915
92857W        W52393  34.913  18.222   0.428
92858W        W52394  19.748  27.956   4.836
92859W        W52395  22.662  16.284  12.429
92860W        W52396  36.593   2.447  14.831
92861W        W52397  31.930  24.178  12.966
92862W        W52398  31.462   9.305   2.238
92863W        W52399  42.373   4.822  11.396
92864W        W52400  40.954  41.951   0.796
92865W        W52401  28.658   9.209  14.902
92866W        W52402  42.807  28.019  11.874
92867W        W52403  38.497   0.481   2.767
92868W        W52404   5.851  20.623   2.802
92869W        W52405  41.369  24.646  13.379
92870W        W52406  15.219  26.534  12.401
92871W        W52407  44.010   0.309  11.563
92872W        W52408  37.863  26.031   4.716
92873W        W52409  10.761  29.663  10.436
92874W        W52410   3.946  41.913  10.499
92875W        W52411  20.535  21.727   4.628
92876W        W52412  10.806   3.345   0.426
92877W        W52413  10.232  38.382  13.020
92878W        W52414   2.788  24.035  14.853
92879W        W52415   9.332   0.248   1.820
92880W        W52416  23.059  20.241   2.216
92881W        W52417  13.213  12.222   2.200
92882W        W52418  35.603  32.435  10.490
92883W        W52419  11.292  21.143  14.030
92884W        W52420  32.399  11.862   9.946
92885W        W52421  16.183  32.041  12.857
92886W        W52422  27.472  10.751   4.755
92887W        W52423  26.636  11.678   4.619
92888W        W52424   1.401  42.846   4.251
92889W        W52425  42.847  15.101  10.405
92890W        W52426  43.386   1.363  10.526
92891W        W52427  24.485  44.426   3.835
92892W        W52428  31.562  23.498  11.093
92893W        W52429  26.531  29.482  11.922
92894W        W52430  12.323  15.089  14.799
92895W        W52431   3.956  13.684   0.741
92896W        W52432  44.437   5.226  14.441
92897W        W52433  31.045  17.765   2.889
92898W        W52434  15.796  43.954   2.682
92899W        W52435   7.384  13.144   1.923
92900W        W52436   9.686  10.313   0.279
92901W        W52437  42.370   6.893   0.934
92902W        W52438  17.575  30.468   4.302
92903W        W52439  13.695   7.677   2.376
92904W        W52440  39.836  32.511  13.994
92905W        W52441  10.866  19.243  10.404
92906W        W52442  17.098   3.809   2.887
92907W        W52443  22.224  19.663  12.049
92908W        W52444  24.090   5.727  14.313
92909W        W52445  33.018   8.790  10.934
92910W        W52446  22.504  33.608   4.294
92911W        W52447   2.888  12.846   2.362
92912W        W52448  22.217  23.064  12.536
92913W        W52449  25.615   7.794   0.463
92914W        W52450  11.231  17.203   0.944
92915W        W52451  17.062   1.331   3.679
92916W        W52452   2.342  33.398   4.195
92917W        W52453  21.755   7.239  12.016
92918W        W52454  24.139  27.600   4.171
92919W        W52455  21.700   3.363  11.868
92920W        W52456  17.270  38.393  13.804
92921W        W52457  33.982  26.004  13.387
92922W        W52458  18.180  40.998  14.831
92923W        W52459  11.853   7.285   1.780
92924W        W52460  43.465  10.818   2.855
92925W        W52461  42.332  36.943  12.364
92926W        W52462  26.152   5.257   0.419
92927W        W52463  39.341  39.959   0.849
92928W        W52464  13.736  14.223   3.380
92929W        W52465  42.031  25.546   4.146
92930W        W52466  42.299  10.336   0.344
92931W        W52467  22.594   4.892   2.413
92932W        W52468   5.193  39.333  13.990
92933W        W52469  12.266   3.333  14.511
92934W        W52470   5.689  13.692   1.442
92935W        W52471  44.264  42.976   4.825
92936W        W52472  29.567  16.763   3.726
92937W        W52473   2.848  10.811   3.845
92938W        W52474  43.429  23.022  13.023
92939W        W52475  35.599  16.209   3.351
92940W        W52476  24.612   5.376   0.481
92941W        W52477  18.075  11.664  10.510
92942W        W52478   4.320   7.726  11.548
92943W        W52479   3.223   9.394   5.292
92944W        W52480   4.272  11.684  14.396
92945W        W52481  31.964   0.285  13.926
92946W        W52482  14.133   7.897   1.834
92947W        W52483  40.427  37.890   2.688
92948W        W52484   6.850   1.743   0.858
92949W        W52485  40.842  13.105   0.470
92950W        W52486  16.184  30.927   2.204
92951W        W52487   8.663   5.256  12.040
92952W        W52488  33.935  26.517   3.153
92953W        W52489  17.586  18.734  11.945
92954W        W52490  14.200  39.334   1.834
92955W        W52491  33.433  15.608   4.128
92956W        W52492  24.652  43.428   3.356
92957W        W52493   1.379  11.360   4.781
92958W        W52494  40.894  17.763   1.231
92959W        W52495   4.254  25.134  11.465
92960W        W52496  12.118  17.189   1.391
92961W        W52497   7.294  43.921   0.782
92962W        W52498  21.582  19.640  10.618
92963W        W52499   6.411  32.578  10.629
92964W        W52500  29.987   7.306   0.275
92965W        W52501  17.296   2.280   4.272
92966W        W52502  23.124  13.756   0.389
92967W        W52503  10.695  31.562   3.869
92968W        W52504   9.838  12.312  12.088
92969W        W52505  40.872  27.689  11.088
92970W        W52506  28.094  43.944   2.760
92971W        W52507  21.689  14.740   4.598
92972W        W52508  18.675   6.802   3.848
92973W        W52509  40.950  20.688  10.595
92974W        W52510  30.131  40.394   3.260
92975W        W52511  27.474  32.495  14.363
92976W        W52512   5.226  42.506   2.762
92977W        W52513   8.344  44.965  14.861
92978W        W52514   2.313  39.523  14.446
92979W        W52515  44.848  11.754  13.398
92980W        W52516   1.740   5.919  13.836
92981W        W52517  43.470  32.977   2.674
92982W        W52518  36.512  31.974   2.810
92983W        W52519   4.261  23.102  13.928
92984W        W52520  13.603  42.456  13.383
92985W        W52521  22.744  27.640   0.288
92986W        W52522  41.029   8.900   4.761
92987W        W52523  34.466   3.378  14.840
92988W        W52524  16.293  11.161   4.169
92989W        W52525  37.846  10.228  14.812
92990W        W52526   6.403  37.902  13.388
92991W        W52527  23.605  32.048   3.692
92992W        W52528  10.370  20.092  13.362
92993W        W52529  29.496  14.181   4.224
92994W        W52530   4.221  16.075   1.777
92995W        W52531   5.354   4.404   1.930
92996W        W52532   7.802   9.339  11.054
92997W        W52533  20.095  43.772   2.390
92998W        W52534   4.218  25.527   1.312
92999W        W52535   8.167  23.617   4.764
93000W        W52536   0.481  10.784   1.436
93001W        W52537  33.019  37.884   3.670
93002W        W52538  43.770  29.643  12.432
93003W        W52539  25.601  40.439   4.766
93004W        W52540   9.221  17.156   3.769
93005W        W52541  20.109  16.813  10.959
93006W        W52542   1.815  29.987   2.378
93007W        W52543  13.714   2.923  11.943
93008W        W52544  36.567  22.184  10.567
93009W        W52545  21.125  20.181   0.269
93010W        W52546  29.592  38.900   1.220
93011W        W52547  10.852  24.555   0.858
93012W        W52548   9.260   3.274  14.510
93013W        W52549  22.006   6.776   2.726
93014W        W52550   2.330   0.986   3.732
93015W        W52551  25.018   6.353   2.340
93016W        W52552  37.881   1.916   9.477
93017W        W52553   1.976  13.829   3.630
93018W        W52554  33.880   1.238  10.468
93019W        W52555   1.278  42.508  12.517
93020W        W52556   3.854  27.524  14.956
93021W        W52557   9.709  44.391   0.762
93022W        W52558  16.642  21.152  13.808
93023W        W52559  15.636   3.333   9.983
93024W        W52560  10.708  41.963   1.332
93025W        W52561  32.464  22.697   4.622
93026W        W52562   8.311   3.341   2.242
93027W        W52563   9.246  41.823  10.923
93028W        W52564   4.733   7.752  11.921
93029W        W52565  19.105  14.733   3.322
93030W        W52566  25.172   0.823  11.037
93031W        W52567   4.827  18.780   0.324
93032W        W52568   5.746   6.712  11.608
93033W        W52569   4.885  35.895  14.501
93034W        W52570   6.232  24.631  12.346
93035W        W52571  29.104  28.618  14.401
93036W        W52572  21.230   0.327  13.810
93037W        W52573  43.515  22.664  11.521
93038W        W52574  34.931  32.086   4.611
93039W        W52575  17.724  30.602  11.596
93040W        W52576  44.813  41.876   2.322
93041W        W52577  10.383  15.685   1.363
93042W        W52578   8.870   5.384   2.875
93043W        W52579  11.645   3.712  10.150
93044W        W52580  35.436   2.458  13.973
93045W        W52581  33.469  26.165   1.918
93046W        W52582  13.683  31.407  11.125
93047W        W52583  11.696  36.062   0.439
93048W        W52584  16.693   5.904  12.035
93049W        W52585  30.492   3.797   2.294
93050W        W52586  11.802  14.266  10.550
93051W        W52587  22.674  17.089   4.770
93052W        W52588  21.123   7.755  14.010
93053W        W52589  20.692  16.077   1.740
93054W        W52590  37.842   2.845   5.733
93055W        W52591  15.693  16.193   3.631
93056W        W52592  12.207  18.243   4.260
93057W        W52593  27.970  26.132   4.726
93058W        W52594   0.365  33.428  13.003
93059W        W52595  16.677   9.257   4.113
93060W        W52596   3.374  31.992   4.251
93061W        W52597  39.445  43.431   3.261
93062W        W52598  25.070  37.925  13.945
93063W        W52599  25.011  42.984   5.223
93064W        W52600  14.234  35.004  10.560
93065W        W52601   7.741  25.154  13.919
93066W        W52602   6.914  40.911   4.737
93067W        W52603  19.276   3.294  10.995
93068W        W52604  30.950  39.832   0.420
93069W        W52605  34.890   0.431  13.973
93070W        W52606  11.271  37.023  14.775
93071W        W52607  27.996  16.653   0.926
93072W        W52608  14.626   4.260   1.282
93073W        W52609  25.690  17.217  13.410
93074W        W52610  16.306   3.827   3.348
93075W        W52611  37.408  36.355  14.771
93076W        W52612  25.061  39.992   3.299
93077W        W52613  21.189  24.115  12.433
93078W        W52614  19.175  14.819  12.567
93079W        W52615  28.016  23.213   4.156
93080W        W52616  19.155  17.632   0.728
93081W        W52617   1.316  33.875   0.781
93082W        W52618  38.850   2.909  14.828
93083W        W52619  15.208  32.112   4.258
93084W        W52620  22.677  37.054   1.251
93085W        W52621  19.253  36.998   3.322
93086W        W52622  29.453  11.842  13.396
93087W        W52623  40.340  20.585  14.401
93088W        W52624  23.597  21.617   3.668
93089W        W52625  38.969  21.612   3.286
93090W        W52626  19.063  24.122   2.191
93091W        W52627  34.603   0.958   3.724
93092W        W52628  44.940   3.847  11.041
93093W        W52629   9.877  37.412  12.958
93094W        W52630  24.144   9.324  13.416
93095W        W52631  11.223  44.413  12.574
93096W        W52632  43.454  10.818   9.455
93097W        W52633  31.952  25.630  14.979
93098W        W52634  23.496  14.099  13.532
93099W        W52635  14.723  34.994  11.498
93100W        W52636  21.105  21.736   4.133
93101W        W52637  40.456  38.448  13.520
93102W        W52638   8.845  24.140  11.549
93103W        W52639  41.895  40.963  11.886
93104W        W52640  16.694   8.703  10.570
93105W        W52641  39.908   0.963  12.489
93106W        W52642   3.381  12.226   3.719
93107W        W52643  31.505   7.780   3.304
93108W        W52644  11.269  42.005  10.448
93109W        W52645  40.386  36.854  10.488
93110W        W52646  38.055  20.668   2.760
93111W        W52647  44.412  12.166  11.921
93112W        W52648  24.587  32.067  10.573
93113W        W52649   0.856  14.265  13.518
93114W        W52650  13.793   7.766   2.717
93115W        W52651  21.744  19.696   4.698
93116W        W52652  15.147  31.961  12.557
93117W        W52653  31.082  16.609  12.010
93118W        W52654   5.817   7.353  13.893
93119W        W52655  15.196  20.125  14.986
93120W        W52656  25.631  32.064   1.713
93121W        W52657  43.017   6.903  11.589
93122W        W52658  19.218  24.088   0.895
93123W        W52659   9.322  17.070  13.486
93124W        W52660  26.090  43.802  13.935
93125W        W52661  23.595  20.224  12.467
93126W        W52662  12.689  28.143  11.128
93127W        W52663   8.714  44.986   3.684
93128W        W52664  28.034  11.259  13.831
93129W        W52665  35.495  28.639  10.947
93130W        W52666  22.716  41.438  12.447
93131W        W52667  40.521  10.161   0.759
93132W        W52668  13.791   6.852   3.160
93133W        W52669  35.915   7.726  12.854
93134W        W52670  40.021  36.926  11.893
93135W        W52671   7.769   9.664  11.503
93136W        W52672   7.227  24.017   3.257
93137W        W52673   8.256  20.254   4.213
93138W        W52674  13.753   3.405  13.460
93139W        W52675  44.944  18.748   1.880
93140W        W52676  15.816  13.781   4.832
93141W        W52677  12.145  43.385   2.362
93142W        W52678  15.284  15.593  14.812
93143W        W52679  29.611  13.272  14.833
93144W        W52680  21.679  43.008   3.332
93145W        W52681  27.056   7.253   4.233
93146W        W52682  20.117  37.441  14.976
93147W        W52683  36.441  40.923  12.412
93148W        W52684  35.958  26.549   1.739
93149W        W52685  31.982  14.711  10.909
93150W        W52686  43.367  25.984   2.678
93151W        W52687  40.010  12.804   0.730
93152W        W52688  29.526  10.231  14.903
93153W        W52689  10.813  40.875  11.407
93154W        W52690  13.316   3.774  14.816
93155W        W52691   6.210  34.522  12.387
93156W        W52692  31.079  38.876  10.006
93157W        W52693  17.123   5.692   0.292
93158W        W52694   8.658  34.927  11.883
93159W        W52695  44.779   9.729   4.665
93160W        W52696  25.508  34.369  10.556
93161W        W52697   9.663  39.505   2.372
93162W        W52698  11.364  33.590   0.731
93163W        W52699  36.074   9.780   4.793
93164W        W52700  14.812  43.504  13.326
93165W        W52701  19.120  26.150   2.706
93166W        W52702  28.525  31.474   3.679
93167W        W52703   3.287  13.122  11.861
93168W        W52704  17.603  19.142   1.758
93169W        W52705   2.959   7.176   1.265
93170W        W52706  33.546  39.870   2.711
93171W        W52707  30.125  29.939   4.215
93172W        W52708  38.969  44.755   0.846
93173W        W52709  31.404  19.770  12.942
93174W        W52710  18.742  17.138  10.442
93175W        W52711  11.830  10.685  11.956
93176W        W52712  26.985   6.272  12.997
93177W        W52713  32.015  29.507   1.312
93178W        W52714  27.119   5.791   4.126
93179W        W52715  26.079  31.141   1.404
93180W        W52716   0.282  12.619  12.953
93181W        W52717   7.694  37.518  14.287
93182W        W52718  44.367  21.060  14.410
93183W        W52719  35.891   3.899   4.113
93184W        W52720  32.070  17.777   4.625
93185W        W52721  16.102  20.263   1.900
93186W        W52722  22.200  40.918   4.645
93187W        W52723  40.817   3.252  11.876
93188W        W52724   0.346  44.865  13.883
93189W        W52725  38.536  12.766  13.881
93190W        W52726  29.128  13.178  12.987
93191W        W52727  18.172   7.188   1.406
93192W        W52728  28.480  17.691  14.444
93193W        W52729  15.103  32.588   3.217
93194W        W52730  33.423  17.619  10.897
93195W        W52731  17.091  32.022  11.598
93196W        W52732   1.411  22.666   3.245
93197W        W52733  17.085  29.497   0.404
93198W        W52734  22.723  25.652   0.309
93199W        W52735   9.730  22.074  11.082
93200W        W52736  43.866  20.589  11.572
93201W        W52737  39.436   5.308  13.424
93202W        W52738  42.343  16.679   3.348
93203W        W52739  17.165  24.021  10.889
93204W        W52740  20.664  21.690  10.908
93205W        W52741  15.112  19.108  10.589
93206W        W52742   2.767  12.278   2.324
93207W        W52743  31.494  12.792   0.446
93208W        W52744  15.142   4.385   0.845
93209W        W52745   2.956  18.742   4.802
93210W        W52746  13.780   2.451  14.819
93211W        W52747   9.192  27.652  14.474
93212W        W52748  29.569  32.911   2.688
93213W        W52749  12.761  20.705  11.513
93214W        W52750  43.422  20.036  14.477
93215W        W52751  31.630  36.913  14.920
93216W        W52752   1.328  16.678  12.001
93217W        W52753  10.646  41.465   1.330
93218W        W52754  25.208  42.945  13.019
93219W        W52755  20.542  12.279   2.318
93220W        W52756  20.663  16.092  11.545
93221W        W52757  30.622  25.007  11.977
93222W        W52758   5.817  25.507  11.421
93223W        W52759  29.019   7.402   4.201
93224W        W52760  22.054  42.357   4.228
93225W        W52761  25.562   3.729   3.819
93226W        W52762   9.173  33.948  14.425
93227W        W52763  23.731  25.658   3.234
93228W        W52764   9.859  31.941  13.439
93229W        W52765  11.665  16.075  12.477
93230W        W52766  13.614   6.240   3.249
93231W        W52767  23.193   3.808   1.262
93232W        W52768   1.425  21.059   1.881
93233W        W52769   2.943   5.345  12.825
93234W        W52770  24.045   6.688   0.947
93235W        W52771  14.622  18.210   0.967
93236W        W52772   8.270   5.881  11.874
93237W        W52773   9.846   0.286  10.589
93238W        W52774  28.002  12.756  10.460
93239W        W52775   3.712  22.738   2.252
93240W        W52776  41.872   1.823  14.790
93241W        W52777   2.309  36.407   3.798
93242W        W52778   4.398  36.452  10.479
93243W        W52779  41.796  41.012  13.000
93244W        W52780   4.760   1.902  14.952
93245W        W52781  15.082  31.082   0.440
93246W        W52782  33.490  19.577   1.240
93247W        W52783  30.162  31.129  14.983
93248W        W52784  41.885  28.050  13.036
93249W        W52785  34.525  10.375  10.554
93250W        W52786  37.420  38.425   2.386
93251W        W52787  41.842   9.315   3.264
93252W        W52788  39.985  36.960   1.355
93253W        W52789  41.937   8.770   2.193
93254W        W52790  44.806   4.705   9.921
93255W        W52791  27.552  13.128   4.793
93256W        W52792  42.939  15.739   1.363
93257W        W52793  18.204  40.469  14.797
93258W        W52794  10.868  34.989  12.426
93259W        W52795  38.376  29.556   0.314
93260W        W52796  39.416   6.700  10.412
93261W        W52797  21.526  15.822  10.124
93262W        W52798  38.326  13.331   4.810
93263W        W52799  44.909  19.620  11.046
93264W        W52800  39.912   6.757  12.513
93265W        W52801  35.384  12.785  13.003
93266W        W52802  37.071  14.686   4.805
93267W        W52803  21.727  19.675  10.155
93268W        W52804  21.022   9.343   3.637
93269W        W52805  30.068  42.346   2.209
93270W        W52806  43.958  19.162   3.640
93271W        W52807  22.684  10.782  10.519
93272W        W52808  22.033   8.338  13.996
93273W        W52809  32.104  14.654  12.084
93274W        W52810   6.715  27.553   2.787
93275W        W52811   6.850   4.721   1.921
93276W        W52812  23.670  42.392   1.814
93277W        W52813   2.789  30.950   0.243
93278W        W52814  30.468  32.491   1.217
93279W        W52815   7.258  43.835   1.835
93280W        W52816  31.127  35.939   9.961
93281W        W52817  40.038   0.453  10.979
93282W        W52818  11.779  26.485   2.792
93283W        W52819  15.677   9.160  13.931
93284W        W52820  25.134  41.891   3.368
93285W        W52821  30.139  27.981  12.348
93286W        W52822  32.096   2.725  11.930
93287W        W52823   7.276  37.387  12.019
93288W        W52824  10.716  26.547   3.283
93289W        W52825   8.890  40.035   0.422
93290W        W52826  17.615  34.405   4.217
93291W        W52827  26.514  44.422   4.212
93292W        W52828  20.743  20.225  11.563
93293W        W52829  32.044   4.803  14.389
93294W        W52830   6.404  20.245   3.829
93295W        W52831  27.448  29.955  11.960
93296W        W52832  30.042  28.578  10.977
93297W        W52833  34.896   1.435   2.252
93298W        W52834   1.321  17.557   0.331
93299W        W52835  34.045  30.510   1.795
93300W        W52836   4.353  33.611  13.861
93301W        W52837   2.251  43.927  10.906
93302W        W52838  19.738  30.417   2.677
93303W        W52839   6.776   7.290  10.966
93304W        W52840   5.824  41.435   0.774
93305W        W52841  33.486  30.531   9.980
93306W        W52842  13.130   5.305   0.840
93307W        W52843  41.845  14.651   0.918
93308W        W52844  18.670  28.530   0.329
93309W        W52845  30.990   9.684   2.705
93310W        W52846  18.150  20.725   4.751
93311W        W52847   7.735   0.272   0.913
93312W        W52848   4.732  29.489  13.424
93313W        W52849  37.478  24.586   0.310
93314W        W52850  11.362  11.131   3.644
93315W        W52851  20.234  12.232   2.829
93316W        W52852  16.195  31.039  13.443
93317W        W52853   1.402  16.124   3.214
93318W        W52854  32.582  27.135   4.205
93319W        W52855  12.125  35.915   1.893
93320W        W52856  10.219  14.311   1.847
93321W        W52857  22.137  14.188  14.856
93322W        W52858  11.690  21.253   2.351
93323W        W52859   1.776   1.445  13.036
93324W        W52860   4.733   1.731  10.973
93325W        W52861  40.306   4.293   0.287
93326W        W52862   7.763  35.488   0.788
93327W        W52863   6.390  11.291  11.032
93328W        W52864  19.535  31.636   3.848
93329W        W52865  20.202  31.516  14.298
93330W        W52866   7.407  12.314  13.324
93331W        W52867   3.314  29.144   1.380
93332W        W52868   8.322  16.811  13.855
93333W        W52869  17.083  18.564  11.968
93334W        W52870  23.650  39.890  12.829
93335W        W52871  33.979   8.275  13.506
93336W        W52872   7.227  29.020  13.867
93337W        W52873  29.577  33.618   3.823
93338W        W52874  37.937  35.935  13.943
93339W        W52875  30.459  28.053  12.456
93340W        W52876  37.437  14.618   3.187
93341W        W52877  29.001  17.585  13.433
93342W        W52878   5.391  43.951  10.543
93343W        W52879  34.111   8.706  13.895
93344W        W52880  12.617  19.597   0.298
93345W        W52881   4.313  13.259   4.266
93346W        W52882  20.525  25.570  13.918
93347W        W52883  22.693   2.808   9.519
93348W        W52884  28.114  43.450   0.732
93349W        W52885  41.040  42.852  13.420
93350W        W52886  27.060  31.468   4.778
93351W        W52887  32.059  37.943   4.262
93352W        W52888  15.727  40.823   0.347
93353W        W52889   1.340  36.479  14.976
93354W        W52890   3.876  15.723  12.908
93355W        W52891  36.031  37.989  13.910
93356W        W52892  34.469  28.154  14.436
93357W        W52893  27.105  11.151  13.416
93358W        W52894  11.194  38.995  14.347
93359W        W52895  36.548  43.805   4.833
93360W        W52896  41.320  15.272  10.587
93361W        W52897  21.208  25.049   1.732
93362W        W52898  13.323   5.307   4.298
93363W        W52899  16.235  34.509  14.428
93364W        W52900   4.944   8.713   5.169
93365W        W52901  29.996  16.217   1.711
93366W        W52902  14.722  19.766   9.607
93367W        W52903   8.205  36.454   0.332
93368W        W52904   1.948   0.976  10.582
93369W        W52905   4.350  25.595  13.334
93370W        W52906  44.326  24.640  11.563
93371W        W52907  40.892  35.571  12.368
93372W        W52908  40.331  30.555  10.028
93373W        W52909  16.304  25.067   2.853
93374W        W52910  26.059  36.910   2.746
93375W        W52911  31.637  42.518  11.075
93376W        W52912  29.433  20.600  13.947
93377W        W52913  28.543   9.233  13.377
93378W        W52914  13.176  20.742  11.010
93379W        W52915  17.166  25.480  11.886
93380W        W52916  43.497  17.609  14.997
93381W        W52917   6.746  36.562  13.416
93382W        W52918  11.662  39.546   2.306
93383W        W52919  34.584   7.739   0.883
93384W        W52920  29.540  10.338  11.965
93385W        W52921  32.110  21.535   4.721
93386W        W52922  24.176  29.438   1.833
93387W        W52923  23.622  10.648  11.093
93388W        W52924  30.566  13.233   0.852
93389W        W52925   3.340   6.230   0.853
93390W        W52926  19.122   6.287  10.927
93391W        W52927  15.814  27.664   2.736
93392W        W52928   4.251  23.592  14.439
93393W        W52929  20.065  39.321   4.188
93394W        W52930  24.138  35.378  13.416
93395W        W52931  35.532   7.759  14.433
93396W        W52932  29.055   4.759  10.139
93397W        W52933  41.940   5.772   0.824
93398W        W52934   1.802  11.205   5.572
93399W        W52935  10.755   1.394   2.387
93400W        W52936  30.965  44.382   3.827
93401W        W52937   2.850  40.520   3.805
93402W        W52938  20.062  42.904  13.883
93403W        W52939  23.153  26.489  10.480
93404W        W52940  14.148  14.122  11.119
93405W        W52941  27.035   9.198   0.368
93406W        W52942  26.505  41.403  12.493
93407W        W52943  11.371   9.244   0.874
93408W        W52944  43.997   7.686  10.619
93409W        W52945  12.619  11.842  11.003
93410W        W52946  33.047  27.480   3.812
93411W        W52947  22.127  27.575  13.961
93412W        W52948  11.807  16.306   1.846
93413W        W52949  31.538  44.396  10.436
93414W        W52950  39.036  40.458  11.987
93415W        W52951   4.248  36.485   4.676
93416W        W52952   6.278  15.789   1.770
93417W        W52953   5.810  34.899  14.356
93418W        W52954  17.157   1.974   1.221
93419W        W52955  37.365  34.477  13.906
93420W        W52956  40.912   5.702  10.591
93421W        W52957  31.971  11.806   4.353
93422W        W52958  13.825  34.959  14.421
93423W        W52959   9.193   6.425   3.373
93424W        W52960  12.126   4.891  14.876
93425W        W52961   7.704  32.134  13.990
93426W        W52962  35.515   9.289   0.928
93427W        W52963  41.798  39.965   2.744
93428W        W52964  20.260  41.904   3.304
93429W        W52965  31.099  37.422  11.377
93430W        W52966  35.900  13.812   1.394
93431W        W52967  16.739  15.679  14.281
93432W        W52968  33.907  36.404  11.915
93433W        W52969  19.177  15.679  13.548
93434W        W52970  12.750  26.023   9.470
93435W        W52971  34.512  11.716   3.775
93436W        W52972  20.267   1.280   0.412
93437W        W52973  17.123  36.441  11.929
93438W        W52974  38.954   4.912  10.983
93439W        W52975  23.614   9.255   3.773
93440W        W52976  40.465  39.000   0.364
93441W        W52977   7.885  24.571  13.875
93442W        W52978  42.377  14.324  12.007
93443W        W52979  21.670  34.911  11.534
93444W        W52980   1.454  43.459   0.894
93445W        W52981   7.357  32.069  11.993
93446W        W52982  13.734  11.299  13.324
93447W        W52983  20.549  21.046  11.527
93448W        W52984   7.311  26.030   3.282
93449W        W52985  32.067  40.029   1.329
93450W        W52986   1.337  39.412   4.216
93451W        W52987   3.322   0.403  10.422
93452W        W52988   1.422  13.610   2.684
93453W        W52989  36.422  16.765  13.369
93454W        W52990  17.237   1.351  13.322
93455W        W52991  30.027  14.278  10.969
93456W        W52992  15.131  36.029   3.811
93457W        W52993  22.652  20.527   0.963
93458W        W52994  22.059   2.369   4.228
93459W        W52995  27.086  36.578  13.507
93460W        W52996  28.667   2.959   2.679
93461W        W52997   1.912   0.965  12.530
93462W        W52998  11.363  21.034   3.247
93463W        W52999  21.027   5.741  13.349
93464W        W53000  34.583  22.010  10.553
93465W        W53001  37.372  22.571   3.327
93466W        W53002  44.463  24.618   1.827
93467W        W53003  30.528  22.583   1.882
93468W        W53004  27.037  38.494  11.418
93469W        W53005  19.210  43.944   0.818
93470W        W53006  25.982  15.633  11.542
93471W        W53007  44.945   3.224  12.580
93472W        W53008  34.040  14.338   1.705
93473W        W53009   0.404  35.501   4.252
93474W        W53010  25.068   5.308   0.266
93475W        W53011   0.368  30.910  12.923
93476W        W53012  22.533  11.828   2.367
93477W        W53013  23.601   6.242   4.699
93478W        W53014  24.119  14.111  11.999
93479W        W53015  13.147  28.612  12.519
93480W        W53016  36.912  20.139   2.684
93481W        W53017  28.490   3.813  12.476
93482W        W53018  16.119  39.376   1.885
93483W        W53019  24.635  31.469   3.147
93484W        W53020   0.807   8.321   4.836
93485W        W53021  36.493  12.760  12.042
93486W        W53022   5.855   4.858   1.868
93487W        W53023   7.172  10.679  12.834
93488W        W53024  41.974   4.832   1.779
93489W        W53025  19.144  27.093   3.202
93490W        W53026  16.202  38.885   1.305
93491W        W53027   8.899  28.577   3.365
93492W        W53028  34.424   2.778  13.426
93493W        W53029   7.866  25.642   1.260
93494W        W53030  31.087   7.370  12.342
93495W        W53031  31.938  40.822   1.436
93496W        W53032  17.774   3.421   2.334
93497W        W53033   3.309  22.651  13.992
93498W        W53034  43.934  42.481  10.504
93499W        W53035  38.844  37.935  11.472
93500W        W53036  20.113  29.918  14.824
93501W        W53037   7.762  27.603   0.931
93502W        W53038   4.730  44.462   4.258
93503W        W53039  17.605  18.714  13.982
93504W        W53040  27.108  44.379  12.863
93505W        W53041  19.046  24.030   1.873
93506W        W53042  32.118  44.977  13.432
93507W        W53043  14.760  29.483  11.855
93508W        W53044  26.514   2.273   3.192
93509W        W53045   6.842  26.158  10.987
93510W        W53046  16.296  15.788  11.944
93511W        W53047  18.554  16.671   0.746
93512W        W53048  42.323  44.400  10.127
93513W        W53049   1.921  17.644   0.343
93514W        W53050  42.790  42.932  12.903
93515W        W53051  21.191  24.194  14.913
93516W        W53052  23.015   8.701   4.602
93517W        W53053  28.111  10.361   1.388
93518W        W53054  25.060  32.911   3.275
93519W        W53055   3.252  39.948   4.608
93520W        W53056  17.131   5.829   3.753
93521W        W53057  20.168   9.324   1.312
93522W        W53058  36.479  44.291  10.447
93523W        W53059  20.742  15.137  11.913
93524W        W53060  20.542   2.790  14.514
93525W        W53061  21.048  31.987   2.770
93526W        W53062  28.079   6.816  10.483
93527W        W53063  11.692  17.162   4.232
93528W        W53064  42.430  13.709  12.569
93529W        W53065  21.711  41.005   3.702
93530W        W53066  40.979  11.262   0.290
93531W        W53067  28.181   0.819  13.917
93532W        W53068   0.855  11.246   4.722
93533W        W53069  16.310  28.981  11.126
93534W        W53070  41.503  38.983   0.763
93535W        W53071  18.160  22.598  12.899
93536W        W53072  19.047  15.143   4.681
93537W        W53073  33.014  24.136   2.190
93538W        W53074  14.226   3.345   2.254
93539W        W53075  30.428  14.765   3.827
93540W        W53076  18.677  31.929   4.797
93541W        W53077  41.988  26.164  12.022
93542W        W53078  35.459  32.526  11.008
93543W        W53079  24.209  33.569  11.398
93544W        W53080  13.141  10.694  11.882
93545W        W53081   1.309  28.056   1.379
93546W        W53082   5.434  43.877   3.366
93547W        W53083   7.313  22.503  11.003
93548W        W53084  22.115   9.277   0.955
93549W        W53085  30.086  38.517   2.419
93550W        W53086   5.197   9.209  12.481
93551W        W53087   6.400  23.134   3.714
93552W        W53088  27.959  42.807   2.894
93553W        W53089  36.590  37.412   2.279
93554W        W53090  36.563  19.246  14.768
93555W        W53091  10.787  31.923  11.468
93556W        W53092  30.654  11.223   4.811
93557W        W53093  32.099  41.806   5.317
93558W        W53094   1.795   0.289   0.285
93559W        W53095  16.122   1.852   5.229
93560W        W53096  34.039  30.628   3.372
93561W        W53097  20.546  25.075   3.869
93562W        W53098  25.492  21.069   1.319
93563W        W53099  32.528  16.186  13.331
93564W        W53100  32.493   4.738  13.346
93565W        W53101  36.864  15.698  10.564
93566W        W53102  26.626  24.565   0.385
93567W        W53103   6.786  37.951  11.413
93568W        W53104  30.924  19.589  14.358
93569W        W53105  34.869  30.992   1.441
93570W        W53106  10.152  43.510   0.466
93571W        W53107  37.428   7.845   5.101
93572W        W53108  32.421  27.114  14.998
93573W        W53109  32.885   8.716  13.309
93574W        W53110  42.936  39.026  14.302
93575W        W53111  44.441   9.830   0.461
93576W        W53112  29.173  18.247  10.534
93577W        W53113  29.932  15.158  12.407
93578W        W53114   9.663  23.729  12.544
93579W        W53115  34.953  39.903   0.779
93580W        W53116  37.988   2.870  13.448
93581W        W53117  16.098  39.059   1.901
93582W        W53118  10.857   8.817   3.774
93583W        W53119   7.308   8.763   2.739
93584W        W53120  33.926  37.875   3.689
93585W        W53121  17.129  39.415   1.379
93586W        W53122  44.361  38.463  10.412
93587W        W53123  24.632   5.782  11.957
93588W        W53124  22.647  20.054  11.069
93589W        W53125  32.616  23.606   1.766
93590W        W53126  13.608  34.950   1.808
93591W        W53127   0.442   7.787   1.437
93592W        W53128  38.357   2.721   4.639
93593W        W53129  42.813  31.082   4.689
93594W        W53130  13.715   8.272   0.259
93595W        W53131  24.560  20.548   0.333
93596W        W53132  31.065  24.724  10.083
93597W        W53133   1.808  20.056   0.280
93598W        W53134  10.769  38.877  11.937
93599W        W53135  31.515  31.575  10.413
93600W        W53136  15.738  13.254  12.072
93601W        W53137  33.944  17.579   0.857
93602W        W53138  21.746  19.192   0.469
93603W        W53139  12.158  31.587  14.898
93604W        W53140  37.913   9.327  13.988
93605W        W53141  21.212  35.440  14.007
93606W        W53142  39.314  28.996  13.460
93607W        W53143  29.492  32.075  11.481
93608W        W53144   6.370   9.888  14.805
93609W        W53145  43.403   4.246   2.183
93610W        W53146  39.953  23.714   4.794
93611W        W53147   1.471  24.597  14.872
93612W        W53148  24.709  24.024  13.818
93613W        W53149  32.124  18.617   3.213
93614W        W53150  20.240  44.279   1.872
93615W        W53151  20.196  31.141   2.234
93616W        W53152  35.503  35.961   1.335
93617W        W53153  29.961  16.583  11.017
93618W        W53154  15.818  41.503  10.523
93619W        W53155  34.058  37.476   4.281
93620W        W53156   4.871   0.281  13.030
93621W        W53157  15.096  39.486   2.290
93622W        W53158  14.335  44.819  13.820
93623W        W53159  37.997  43.291  11.017
93624W        W53160   1.782  10.783   4.137
93625W        W53161  39.840  11.814   3.825
93626W        W53162   4.744   4.343  14.464
93627W        W53163  29.060  16.620  13.898
93628W        W53164  10.325  28.953   3.153
93629W        W53165  44.310   7.733   0.415
93630W        W53166  44.997  22.676   2.721
93631W        W53167  27.013  21.211   2.228
93632W        W53168  17.624  16.177   1.698
93633W        W53169  17.276  22.100  14.508
93634W        W53170  14.615  24.112  13.871
93635W        W53171  18.748  17.071  14.332
93636W        W53172  39.958   8.820   4.279
93637W        W53173   2.441  19.774   0.943
93638W        W53174  24.986  16.763   2.860
93639W        W53175  44.878  25.199   0.871
93640W        W53176  27.967  25.690  14.900
93641W        W53177  16.172   6.261   3.806
93642W        W53178  29.485  11.862   3.655
93643W        W53179  24.007  40.892   3.282
93644W        W53180  37.851  31.578   3.799
93645W        W53181  13.700   5.335  11.993
93646W        W53182   6.847  23.673   0.247
93647W        W53183  29.129   7.711  14.871
93648W        W53184  36.515  29.042  10.497
93649W        W53185  29.561  28.072  13.394
93650W        W53186  42.872  40.951   1.786
93651W        W53187   5.388  43.306   2.674
93652W        W53188  12.645   0.792   1.394
93653W        W53189  44.476   8.699  11.956
93654W        W53190  23.723   1.368  12.886
93655W        W53191   7.413   0.489  12.970
93656W        W53192  12.743  27.448  11.588
93657W        W53193  42.306  41.901   3.186
93658W        W53194  39.367  29.076   4.822
93659W        W53195  35.357   8.204  11.875
93660W        W53196  43.995   7.687   3.771
93661W        W53197  22.017  27.686   2.283
93662W        W53198   9.340   2.366   4.339
93663W        W53199   0.374   5.265   1.925
93664W        W53200   4.804  19.723   0.376
93665W        W53201  24.687   0.406   1.885
93666W        W53202   6.347  42.820   1.371
93667W        W53203  17.622   3.326   0.277
93668W        W53204  43.471  28.664  13.386
93669W        W53205  44.431  32.063   4.140
93670W        W53206   1.272  35.449  12.046
93671W        W53207  16.087  43.390  11.414
93672W        W53208  20.598  32.009   1.759
93673W        W53209  16.763  15.651   2.846
93674W        W53210  35.101  16.243  12.888
93675W        W53211  29.495  12.715  11.949
93676W        W53212   9.886  18.585   0.318
93677W        W53213  40.416  27.564  14.483
93678W        W53214  14.107  19.205  12.572
93679W        W53215  35.408  20.046  12.572
93680W        W53216  32.952  34.546   3.383
93681W        W53217   3.892  13.769   2.267
93682W        W53218  26.656  22.676   4.233
93683W        W53219   9.376  18.191   4.172
93684W        W53220  38.939  34.515   4.685
93685W        W53221  15.196   7.235  14.495
93686W        W53222  34.906  10.372  13.365
93687W        W53223  32.548   0.840  14.859
93688W        W53224  40.956  38.935   2.801
93689W        W53225  15.695   3.392   2.782
93690W        W53226  25.188  11.135   1.314
93691W        W53227  26.484  38.420  12.008
93692W        W53228  44.295  19.261  11.088
93693W        W53229  10.213  27.031  14.866
93694W        W53230   0.463   6.905  13.835
93695W        W53231  10.237  33.008  12.409
93696W        W53232   1.314  33.074  11.405
93697W        W53233  40.991  20.720   4.128
93698W        W53234  28.081   7.313  10.570
93699W        W53235  23.516   8.406   3.766
93700W        W53236  42.421   2.416  14.445
93701W        W53237  14.737  43.411  13.008
93702W        W53238  30.093  27.678   1.700
93703W        W53239   6.267  35.430   3.841
93704W        W53240  35.499   4.340   1.912
93705W        W53241  29.584  43.855  11.036
93706W        W53242  38.884  19.779   2.746
93707W        W53243  14.165  30.096   0.351
93708W        W53244   0.362  22.155  14.897
93709W        W53245  21.648  22.523   0.899
93710W        W53246  38.855  36.055  11.485
93711W        W53247  12.841  25.659  13.522
93712W        W53248  15.255   6.749  13.990
93713W        W53249   7.693  31.105  14.968
93714W        W53250  30.985  11.785   3.867
93715W        W53251  40.903   6.211   3.736
93716W        W53252  31.953  12.148   4.272
93717W        W53253  11.826  36.918   3.719
93718W        W53254  13.628  37.516   0.742
93719W        W53255  28.181   2.433  11.553
93720W        W53256  44.965  10.240  14.515
93721W        W53257   6.785  28.599  12.911
93722W        W53258  29.942  25.611   3.353
93723W        W53259  11.305  13.772  12.495
93724W        W53260  27.614  34.049   2.259
93725W        W53261  32.602  28.984  13.480
93726W        W53262  41.360  11.244  13.532
93727W        W53263  32.419   9.826  11.372
93728W        W53264  20.272   7.258   4.658
93729W        W53265  41.799  16.256   0.335
93730W        W53266  19.679  15.158   4.634
93731W        W53267   3.445  28.145  14.999
93732W        W53268  31.634  33.591  13.925
93733W        W53269  30.143  27.498   2.817
93734W        W53270  12.757  33.474  12.058
93735W        W53271  15.205  37.339   2.335
93736W        W53272  22.015  32.550   3.639
93737W        W53273  36.001  27.015   3.237
93738W        W53274  43.296  15.326  12.873
93739W        W53275   0.888  42.417  14.775
93740W        W53276  31.027  24.078   1.751
93741W        W53277  29.049  29.020   0.947
93742W        W53278  20.105  41.308  12.447
93743W        W53279  22.738   4.338   1.338
93744W        W53280  27.151  14.651   3.639
93745W        W53281  21.069  10.842   0.379
93746W        W53282  37.087   6.259   0.386
93747W        W53283   2.340  30.480   5.249
93748W        W53284   6.394  33.522  11.527
93749W        W53285  28.935  23.111   2.689
93750W        W53286   0.966  38.339   0.914
93751W        W53287   9.753  20.584  14.358
93752W        W53288   7.681  37.523   3.205
93753W        W53289  23.062  29.482  13.811
93754W        W53290  16.174  15.212  12.843
93755W        W53291  11.773  42.802  12.480
93756W        W53292  26.572  28.474  14.882
93757W        W53293  30.964  31.083   1.711
93758W        W53294  25.478   1.836   3.748
93759W        W53295  36.392  34.945   5.210
93760W        W53296   8.373  14.255  10.949
93761W        W53297  41.793  16.614   2.817
93762W        W53298  30.428  32.131   1.899
93763W        W53299  18.583  21.041   4.601
93764W        W53300  28.994  21.700  11.942
93765W        W53301  38.518  20.720   0.778
93766W        W53302  18.142  41.891  14.855
93767W        W53303  40.913  13.316   0.967
93768W        W53304  19.614  44.443   1.725
93769W        W53305   3.226  44.424   0.418
93770W        W53306   0.457  41.799   4.759
93771W        W53307  38.984  20.609  11.119
93772W        W53308   0.328  36.588  14.344
93773W        W53309  20.532   1.415  13.473
93774W        W53310  35.417  31.061  11.372
93775W        W53311  29.528  15.646  10.154
93776W        W53312  16.711  31.918  12.399
93777W        W53313  13.206  38.447   1.360
93778W        W53314  12.642  10.247   4.794
93779W        W53315  15.103   1.468  13.390
93780W        W53316  12.698  21.188  11.530
93781W        W53317  19.544  12.682   3.840
93782W        W53318   8.378  33.119   1.430
93783W        W53319  36.536   8.893  13.538
93784W        W53320  25.708  37.979   4.658
93785W        W53321  14.834  15.776   4.307
93786W        W53322  12.814  20.237  10.475
93787W        W53323   7.176   3.281  11.041
93788W        W53324  28.938  40.506  14.483
93789W        W53325  11.790  19.126   0.306
93790W        W53326  22.251  20.240  12.570
93791W        W53327  31.599  34.999  11.501
93792W        W53328   8.169   1.322  11.397
93793W        W53329  17.719  34.534   1.735
93794W        W53330  28.087   0.372   9.968
93795W        W53331  28.139  17.749   0.329
93796W        W53332  28.625  18.253   1.851
93797W        W53333   6.371  43.441  14.472
93798W        W53334  18.140   1.762   0.350
93799W        W53335  42.473  38.869   0.425
93800W        W53336   5.369  19.157   4.746
93801W        W53337  23.019  22.650  12.878
93802W        W53338  19.081  30.018  13.061
93803W        W53339  26.686  16.641  13.525
93804W        W53340  32.923  36.054  11.478
93805W        W53341  36.474  38.065  11.957
93806W        W53342  26.143  34.083   3.817
93807W        W53343  42.883  43.404  11.437
93808W        W53344  40.828  29.998   4.641
93809W        W53345  27.683  10.832   3.333
93810W        W53346  35.570   8.299   1.785
93811W        W53347  23.578  28.098  14.415
93812W        W53348  41.508  23.994   3.861
93813W        W53349  38.550  32.506  11.379
93814W        W53350   6.811  38.851   1.815
93815W        W53351  19.701  28.131   3.242
93816W        W53352  14.339  24.001   4.660
93817W        W53353   7.806  38.959  10.100
93818W        W53354  44.819  18.254  14.289
93819W        W53355  21.102   1.888  10.029
93820W        W53356  30.526   1.359  10.580
93821W        W53357  39.833  27.075  11.895
93822W        W53358  10.186  34.088   0.302
93823W        W53359  11.209  30.959   1.757
93824W        W53360  12.337   4.808  12.346
93825W        W53361  13.286  36.856   4.661
93826W        W53362  14.609  33.513   0.465
93827W        W53363  34.987  29.139   0.833
93828W        W53364  14.794  20.274   2.698
93829W        W53365  28.517  18.672   4.151
93830W        W53366  27.188   7.820  10.900
93831W        W53367  24.086  14.728   0.311
93832W        W53368  21.742   9.657  13.476
93833W        W53369  42.865   9.716   2.369
93834W        W53370  22.584  24.120   1.849
93835W        W53371  44.351  20.718   0.958
93836W        W53372  18.650  30.155  11.097
93837W        W53373   8.750  44.951  13.513
93838W        W53374  13.334  35.414   0.319
93839W        W53375  37.368  37.453  10.472
93840W        W53376   8.878   8.209  14.910
93841W        W53377  23.656  18.157   2.192
93842W        W53378  43.324  10.755  10.621
93843W        W53379  23.142  26.981   2.275
93844W        W53380   4.901  36.972   4.266
93845W        W53381  18.766  19.220  14.850
93846W        W53382  19.211   6.236  11.476
93847W        W53383  22.084   7.267  11.402
93848W        W53384  13.296  24.130  11.924
93849W        W53385  36.432  13.311   2.200
93850W        W53386  12.178  22.688  12.462
93851W        W53387  12.153  40.497  13.489
93852W        W53388  18.636  23.518   0.815
93853W        W53389  31.105  22.232   2.803
93854W        W53390  33.985  27.059  11.465
93855W        W53391  42.977  18.616   1.235
93856W        W53392  18.663  36.532  11.602
93857W        W53393  23.729  31.438   4.277
93858W        W53394  40.912  41.796  10.974
93859W        W53395  42.455  26.590  13.501
93860W        W53396  40.870  22.665  14.364
93861W        W53397  33.027  19.765   3.327
93862W        W53398  11.848  24.230   2.805
93863W        W53399  21.735  31.912   0.392
93864W        W53400  40.015  32.112  13.907
93865W        W53401  39.392   3.401   1.247
93866W        W53402   4.353  35.071   0.884
93867W        W53403   8.695  22.078  14.368
93868W        W53404  34.607  25.150   1.890
93869W        W53405  39.414  19.556   2.307
93870W        W53406   7.335  12.622  12.952
93871W        W53407  23.055  30.929   4.693
93872W        W53408  17.791  23.627  11.950
93873W        W53409  10.691  24.065  14.922
93874W        W53410  14.633  13.818  12.852
93875W        W53411   3.280  12.661   2.711
93876W        W53412  44.316  42.397  10.903
93877W        W53413  20.168  20.731   1.359
93878W        W53414  24.161  27.616  10.981
93879W        W53415   2.417  12.770   4.287
93880W        W53416  32.983  39.827   3.781
93881W        W53417  28.455   8.823  11.917
93882W        W53418   0.910  41.886  11.492
93883W        W53419  12.812   2.845  10.946
93884W        W53420  14.236  40.977   2.300
93885W        W53421  26.548  22.083  10.541
93886W        W53422  26.103  12.857  11.500
93887W        W53423   6.330  18.775   2.215
93888W        W53424  22.520  37.948  12.539
93889W        W53425  21.519   7.776  13.942
93890W        W53426  12.736  42.937   2.864
93891W        W53427   3.320  43.368  11.093
93892W        W53428   5.235  30.519  14.451
93893W        W53429  12.183   3.743   5.216
93894W        W53430  21.684  31.496  13.948
93895W        W53431   3.426   8.174  14.384
93896W        W53432   9.215  40.451   2.340
93897W        W53433  10.735  22.011  13.953
93898W        W53434  19.131   2.468   0.366
93899W        W53435  38.941  28.037   3.632
93900W        W53436   9.233  13.260  13.924
93901W        W53437   2.261  20.611   3.815
93902W        W53438  38.965  24.106   0.873
93903W        W53439  18.733  16.600  12.839
93904W        W53440  37.408  22.017  11.067
93905W        W53441  28.166  26.133  12.351
93906W        W53442  43.879   9.838   0.886
93907W        W53443  35.026  15.277   4.311
93908W        W53444   4.706  41.438  11.474
93909W        W53445  20.230  41.502  13.055
93910W        W53446  33.964  20.524  13.007
93911W        W53447  23.667   8.227   3.164
93912W        W53448  16.240  14.700   2.881
93913W        W53449  41.888  22.093  11.879
93914W        W53450  17.561  29.160  11.046
93915W        W53451  17.116  17.660   1.263
93916W        W53452  40.875  34.062  13.425
93917W        W53453  36.530  23.696  12.062
93918W        W53454  10.162  25.511  11.035
93919W        W53455  31.509  40.908  12.522
93920W        W53456   5.353  26.546   4.774
93921W        W53457  36.355  29.482   0.760
93922W        W53458  19.061  10.706  12.366
93923W        W53459  13.796   8.357   0.818
93924W        W53460   8.213   2.279   2.312
93925W        W53461  26.133  18.198  13.371
93926W        W53462  28.111   0.855   4.798
93927W        W53463  23.216  21.758   3.338
93928W        W53464  44.474  32.469   1.709
93929W        W53465  33.562  18.716  12.018
93930W        W53466  35.089   8.341   1.444
93931W        W53467  31.107  41.893   4.744
93932W        W53468  35.072  14.224  14.396
93933W        W53469   8.237  37.460   2.734
93934W        W53470   0.879  17.263   5.194
93935W        W53471  13.306  32.958   4.258
93936W        W53472  36.385   1.360   0.942
93937W        W53473  25.121  39.363  14.843
93938W        W53474  16.787  30.473   3.191
93939W        W53475  11.629  30.072   3.237
93940W        W53476  32.071   1.250   0.748
93941W        W53477  14.140   5.821  14.933
93942W        W53478  12.282  20.252  10.529
93943W        W53479  22.085  32.414   2.885
93944W        W53480  28.631  40.410  13.886
93945W        W53481  41.888   3.951   2.742
93946W        W53482  26.003   2.901   0.281
93947W        W53483  44.909  30.036   1.433
93948W        W53484  38.997   0.427  13.860
93949W        W53485   2.248  22.130  13.491
93950W        W53486  24.173  19.127   0.413
93951W        W53487  22.127  32.957   3.320
93952W        W53488  23.646  24.529   4.658
93953W        W53489  16.106   9.235  13.822
93954W        W53490  35.092   9.216  10.501
93955W        W53491  29.107  42.395  11.027
93956W        W53492  26.641   5.425   2.273
93957W        W53493  25.575  23.497   1.759
93958W        W53494  18.617  32.994  11.535
93959W        W53495   6.218  27.197  14.320
93960W        W53496  42.388  39.834   3.705
93961W        W53497   9.373   5.405   4.345
93962W        W53498   3.303  32.563   3.323
93963W        W53499  14.606  36.965   1.393
93964W        W53500  16.079  40.515   3.669
93965W        W53501  16.693  30.030   2.240
93966W        W53502  22.552   2.786  13.986
93967W        W53503  33.459  31.917   9.963
93968W        W53504  19.589  13.257  14.020
93969W        W53505  15.300  23.019  12.004
93970W        W53506  18.546  27.644  12.866
93971W        W53507  25.015  40.532  14.975
93972W        W53508  28.989  36.575  10.474
93973W        W53509  24.651   0.469   1.391
93974W        W53510  38.061   8.792  10.968
93975W        W53511  16.578  36.398   1.920
93976W        W53512  42.481  34.465   3.206
93977W        W53513  32.536  14.714   2.681
93978W        W53514  19.277  27.503  11.939
93979W        W53515  37.429  17.115   2.414
93980W        W53516  26.558   8.180  14.371
93981W        W53517  15.086  11.670  14.822
93982W        W53518  24.584  15.110   0.762
93983W        W53519  26.626  43.020   0.401
93984W        W53520  30.435  10.299   2.879
93985W        W53521  43.882   9.184   0.903
93986W        W53522   3.404  27.182   1.388
93987W        W53523  40.026  39.902  14.472
93988W        W53524   4.917  12.781  11.956
93989W        W53525  14.258  40.949  13.837
93990W        W53526  44.979   1.343   2.316
93991W        W53527   2.269  38.539  14.484
93992W        W53528  24.512  26.182   1.397
93993W        W53529   7.855  28.145  12.958
93994W        W53530  35.022  27.191  12.481
93995W        W53531  30.001   4.854   0.859
93996W        W53532  33.568   5.330  14.381
93997W        W53533  39.465   9.790   0.280
93998W        W53534  38.523  31.629  11.007
93999W        W53535   7.697   4.285  11.080
94000W        W53536  10.648  11.782   4.676
94001W        W53537  11.139   1.457  13.347
94002W        W53538  28.989  18.072   0.447
94003W        W53539  36.500  14.330  10.962
94004W        W53540   0.384   6.796   2.332
94005W        W53541  31.556  10.276   1.398
94006W        W53542  18.634  26.953  13.016
94007W        W53543  22.022   9.849  14.323
94008W        W53544  33.532  41.884  14.947
94009W        W53545  30.070  40.542  10.531
94010W        W53546  29.520  43.790  12.879
94011W        W53547  40.512  40.457   1.364
94012W        W53548   2.368   8.163   3.839
94013W        W53549  16.133  22.594   3.634
94014W        W53550  17.654  42.788   0.741
94015W        W53551  10.637  15.136  13.900
94016W        W53552  15.209  41.471   2.757
94017W        W53553   4.875  42.437  11.969
94018W        W53554  27.103  22.661   1.753
94019W        W53555  32.057   2.864   2.370
94020W        W53556  38.536  12.775  14.986
94021W        W53557  39.545   2.313  12.027
94022W        W53558  43.505  44.881   0.294
94023W        W53559  28.070  41.526   4.671
94024W        W53560   9.759  36.449  14.373
94025W        W53561  41.404  24.526  11.094
94026W        W53562   7.404   9.350   2.848
94027W        W53563  26.653   7.280   2.726
94028W        W53564  20.628  17.142  14.342
94029W        W53565  31.101  18.095  11.040
94030W        W53566   9.775  13.637   0.745
94031W        W53567  36.036  40.875  12.487
94032W        W53568  32.969  43.822  12.528
94033W        W53569  31.091  15.609   3.758
94034W        W53570  22.583  24.485  12.492
94035W        W53571  26.992   9.162   3.194
94036W        W53572  41.448   2.953   2.824
94037W        W53573   6.373   4.864  13.959
94038W        W53574  27.062   1.760   3.241
94039W        W53575  19.535  44.356  13.044
94040W        W53576  26.688   3.796   4.613
94041W        W53577   1.292  39.412  11.571
94042W        W53578   8.800   2.324   4.326
94043W        W53579  36.852  28.481   2.674
94044W        W53580  23.188  21.209   0.481
94045W        W53581  41.378   5.693   0.264
94046W        W53582  26.050  38.939   0.895
94047W        W53583  35.874  44.289  12.985
94048W        W53584  39.354  11.808  13.504
94049W        W53585  30.522  18.193  11.545
94050W        W53586  26.467   7.248  11.893
94051W        W53587  27.069  22.680  11.924
94052W        W53588  38.054  27.107  14.990
94053W        W53589  40.547  28.589  12.522
94054W        W53590  25.551  23.736  14.497
94055W        W53591   5.921   2.866   3.332
94056W        W53592  17.746  42.480   0.372
94057W        W53593  11.367  41.341   0.253
94058W        W53594   2.419   7.248  11.931
94059W        W53595  18.131  22.599   4.792
94060W        W53596   7.786  39.023  12.422
94061W        W53597  38.014  44.764  12.030
94062W        W53598   4.342   9.200   4.802
94063W        W53599   0.863  23.008   0.432
94064W        W53600  30.650   6.241  12.970
94065W        W53601   8.333   1.799   1.380
94066W        W53602  15.688  29.609  13.320
94067W        W53603   3.444   2.752   2.666
94068W        W53604  33.598  42.013  11.501
94069W        W53605  31.563  31.466  12.453
94070W        W53606  28.024  27.962  12.579
94071W        W53607  21.254   3.444   4.284
94072W        W53608  23.680  19.693  13.800
94073W        W53609  36.472  18.653  14.295
94074W        W53610  34.393  25.016  13.855
94075W        W53611  30.956  43.462  14.875
94076W        W53612  34.873  35.863   2.885
94077W        W53613   8.401  35.362  10.514
94078W        W53614  14.245   7.272  13.448
94079W        W53615   0.474  28.091   0.801
94080W        W53616  33.123   0.837  10.512
94081W        W53617   7.729  15.302  12.900
94082W        W53618  32.563  14.618   3.311
94083W        W53619  32.470   6.867   3.838
94084W        W53620  39.560  28.129   2.195
94085W        W53621  40.468  28.469  14.032
94086W        W53622  44.802  18.655  12.935
94087W        W53623  28.538  31.135   3.373
94088W        W53624  11.767  16.709  13.824
94089W        W53625  26.999   4.802   1.358
94090W        W53626  39.366   8.174  11.440
94091W        W53627   7.891  19.614   4.750
94092W        W53628   9.719  36.991  14.885
94093W        W53629  40.495  23.493  10.421
94094W        W53630   7.716  43.778   1.719
94095W        W53631   3.262   7.837   3.374
94096W        W53632   4.865  19.187   1.800
94097W        W53633  11.328  11.209  10.044
94098W        W53634   8.820  19.678  14.498
94099W        W53635   3.300   4.280  13.535
94100W        W53636  24.097  38.006   1.361
94101W        W53637  39.359   8.376   2.395
94102W        W53638   3.441   4.795   2.671
94103W        W53639  40.542   6.881   1.308
94104W        W53640  31.039  33.454   0.417
94105W        W53641   3.407  19.572   1.891
94106W        W53642  13.294  31.064   4.758
94107W        W53643  25.572  35.428  11.397
94108W        W53644  14.747  12.357   3.204
94109W        W53645  14.287  41.323  14.849
94110W        W53646  44.262   9.246   1.274
94111W        W53647  22.569  12.740   2.667
94112W        W53648  32.032   0.846   1.330
94113W        W53649  26.666  40.943  10.450
94114W        W53650  36.549  40.942   2.832
94115W        W53651  36.442   4.928   0.937
94116W        W53652  28.469   1.869  11.100
94117W        W53653  36.017  25.166   2.672
94118W        W53654   5.396  43.318   3.302
94119W        W53655  33.514   8.280   3.334
94120W        W53656  41.919  40.325   4.684
94121W        W53657  43.485  44.500   2.898
94122W        W53658  21.730  22.160  13.994
94123W        W53659   0.288   0.479  14.355
94124W        W53660   4.222   2.793  11.548
94125W        W53661  28.667  14.674   3.847
94126W        W53662   6.230  20.211  11.449
94127W        W53663  11.136  21.517   0.369
94128W        W53664  41.936  30.051  14.410
94129W        W53665  37.930  15.277   4.257
94130W        W53666  11.740  19.741  14.861
94131W        W53667  22.061  18.268  14.438
94132W        W53668  16.645  36.391   2.877
94133W        W53669   2.362  27.463   4.756
94134W        W53670  22.526  17.271   2.823
94135W        W53671  40.309  43.407  13.371
94136W        W53672  18.592  36.943   0.453
94137W        W53673   8.900  37.845  12.574
94138W        W53674   8.881  26.651  12.877
94139W        W53675  18.757  32.570  12.579
94140W        W53676  13.246  36.544  13.055
94141W        W53677  25.075  17.582  14.812
94142W        W53678  21.649  15.697  14.473
94143W        W53679   4.255  33.053   0.806
94144W        W53680  38.030  44.471  11.569
94145W        W53681   0.963  16.245  11.077
94146W        W53682  11.821  34.392   1.322
94147W        W53683  32.480  13.197  13.983
94148W        W53684  27.635  14.609   1.878
94149W        W53685  33.028  30.533  10.426
94150W        W53686   2.766   5.221  10.626
94151W        W53687  32.123   6.196   3.832
94152W        W53688  30.019  44.462  11.104
94153W        W53689  32.134  31.579  12.022
94154W        W53690  18.616  10.149  11.005
94155W        W53691  10.876  42.819  12.066
94156W        W53692  14.201  25.188  12.924
94157W        W53693  26.963   9.656   2.803
94158W        W53694  45.000  38.367   1.336
94159W        W53695  31.507  36.948  13.802
94160W        W53696  16.288   9.817  13.975
94161W        W53697  23.041  33.931   5.236
94162W        W53698  30.591  11.730   2.734
94163W        W53699  20.246  25.125  14.397
94164W        W53700  28.973  33.601  11.054
94165W        W53701  42.838  33.572   0.850
94166W        W53702  32.524  22.733  13.484
94167W        W53703   6.716  22.685  13.955
94168W        W53704  41.409   0.401  11.507
94169W        W53705  40.516   3.299  11.935
94170W        W53706   8.341   7.721   0.957
94171W        W53707   2.744   3.771   4.622
94172W        W53708   0.364   0.444  11.398
94173W        W53709   4.920  25.495  14.936
94174W        W53710  34.610  36.584  14.312
94175W        W53711  34.492  16.261  10.894
94176W        W53712  23.240  17.303  14.788
94177W        W53713  40.306  38.043   3.825
94178W        W53714  15.805  12.299   4.837
94179W        W53715   3.743  19.744  11.041
94180W        W53716  31.933  13.283  13.506
94181W        W53717  26.480  43.271   4.637
94182W        W53718  17.234  35.471  14.011
94183W        W53719   4.343   4.704   4.270
94184W        W53720  41.026   1.240  14.889
94185W        W53721  19.266  35.993   3.229
94186W        W53722  37.407  33.986   2.318
94187W        W53723  29.951  15.725  10.064
94188W        W53724  17.697  12.168  12.876
94189W        W53725  39.879   1.969  10.986
94190W        W53726  22.569  16.146  13.845
94191W        W53727  42.890  38.422  12.050
94192W        W53728  16.691  34.887   1.259
94193W        W53729  25.178  36.056  12.866
94194W        W53730   6.339   7.361  13.335
94195W        W53731   0.450  39.457  11.857
94196W        W53732   3.753  41.827  12.455
94197W        W53733   6.752  19.140   2.384
94198W        W53734   1.847  44.899  10.581
94199W        W53735   0.958  27.006   3.680
94200W        W53736   7.892  35.901   2.224
94201W        W53737  31.545  11.731  10.965
94202W        W53738  33.406  13.121   1.366
94203W        W53739  16.112  33.594  11.571
94204W        W53740   7.196  21.700  14.409
94205W        W53741  29.490  26.646  14.957
94206W        W53742  28.087  41.377   5.247
94207W        W53743  27.490   9.833   4.160
94208W        W53744  20.195  40.363  12.000
94209W        W53745  10.855  34.569   0.428
94210W        W53746   8.861  17.743   2.752
94211W        W53747  38.334  42.943   2.847
94212W        W53748  20.562   8.693   3.195
94213W        W53749  44.876  22.124  13.054
94214W        W53750  43.765  16.227   1.256
94215W        W53751  25.649  26.966  10.889
94216W        W53752  39.439  14.673   3.252
94217W        W53753  26.128  28.145   3.836
94218W        W53754  27.164   0.456   4.174
94219W        W53755  14.235   0.404  14.815
94220W        W53756  22.091  44.868  12.926
94221W        W53757   7.866  42.452   4.604
94222W        W53758   6.809   0.983   0.877
94223W        W53759  26.965  26.062  14.490
94224W        W53760  25.563   7.351  14.830
94225W        W53761  34.507  16.276  14.931
94226W        W53762  34.505  27.130  10.993
94227W        W53763   6.240   0.821   1.922
94228W        W53764  22.185  36.498   0.255
94229W        W53765  30.585  15.235  13.391
94230W        W53766  43.348  29.484  11.065
94231W        W53767  19.720  34.919  12.353
94232W        W53768   2.377  43.799   0.385
94233W        W53769  10.806  13.187  13.420
94234W        W53770  44.908  38.969   1.852
94235W        W53771   9.198  28.544   3.787
94236W        W53772  31.643  15.103   1.803
94237W        W53773  28.544   5.754  10.569
94238W        W53774   2.949  24.103  11.957
94239W        W53775  29.128  29.013   1.431
94240W        W53776  42.506  19.574  12.486
94241W        W53777  29.553  15.819  13.475
94242W        W53778  36.988  19.137  14.798
94243W        W53779   1.291  40.314  10.918
94244W        W53780  28.496  36.939  13.394
94245W        W53781  13.817  25.590  11.885
94246W        W53782   5.384  20.655  13.810
94247W        W53783   1.833  28.186   4.203
94248W        W53784  26.532  44.931   3.385
94249W        W53785  15.603  22.195  11.474
94250W        W53786  17.722   4.918   3.769
94251W        W53787  26.608   2.788  13.987
94252W        W53788  35.030  18.204  10.484
94253W        W53789  30.518   5.742   4.307
94254W        W53790   6.386  18.651   1.771
94255W        W53791  43.958   4.900  12.423
94256W        W53792  11.193   9.753   3.816
94257W        W53793  18.716  39.460   4.157
94258W        W53794  26.088   6.837  10.497
94259W        W53795   5.888  40.403  13.923
94260W        W53796   9.684  20.768  14.893
94261W        W53797  44.338  19.259   0.862
94262W        W53798  27.657   7.358  13.006
94263W        W53799  44.755   1.935   2.757
94264W        W53800  19.632   4.358  14.962
94265W        W53801  43.767  26.582  11.962
94266W        W53802  11.240   5.705   2.834
94267W        W53803  29.552  32.500  12.994
94268W        W53804  35.509  22.628   0.750
94269W        W53805  31.993  35.045  12.915
94270W        W53806  43.492  30.060  12.893
94271W        W53807  27.510  36.413   0.320
94272W        W53808  38.914  13.326   4.233
94273W        W53809  33.524  18.650  14.778
94274W        W53810  41.837  27.164  13.061
94275W        W53811   0.979  23.659  11.988
94276W        W53812   3.364  21.582   0.732
94277W        W53813  11.635   1.817  13.825
94278W        W53814  33.882   9.171  12.521
94279W        W53815   2.781  14.200  10.569
94280W        W53816  13.613  21.675   2.241
94281W        W53817  36.018  21.045   4.332
94282W        W53818  42.470  33.611   4.211
94283W        W53819  27.651   6.318   4.656
94284W        W53820  15.179  13.643   0.917
94285W        W53821  17.086  11.160   0.898
94286W        W53822  29.543   4.744   0.794
94287W        W53823  30.618  25.206  14.403
94288W        W53824  42.512  36.517  10.426
94289W        W53825  42.878   8.364  11.566
94290W        W53826  31.970  42.359   3.690
94291W        W53827  21.034  41.954  14.500
94292W        W53828   8.680   9.694   3.316
94293W        W53829  16.214  37.036   0.936
94294W        W53830   8.333  33.972  13.368
94295W        W53831   2.945   2.837  11.474
94296W        W53832  32.500  17.722  14.025
94297W        W53833  11.372   0.921  11.017
94298W        W53834   8.272  23.119  13.791
94299W        W53835  44.329   6.305   5.320
94300W        W53836   5.914  39.528   0.883
94301W        W53837  11.622  30.151  13.515
94302W        W53838  43.868  14.766  12.007
94303W        W53839  16.202  43.413   4.353
94304W        W53840   0.255  26.529   1.448
94305W        W53841  40.942  16.100   1.887
94306W        W53842   2.346  11.258  10.907
94307W        W53843   8.758  13.822   2.276
94308W        W53844   3.445   6.804   1.920
94309W        W53845  33.515   7.678   2.765
94310W        W53846  31.584  29.487  14.006
94311W        W53847  23.522  32.923  14.450
94312W        W53848  15.093  21.173  10.957
94313W        W53849   8.834  16.268   1.369
94314W        W53850  25.194   0.798   2.841
94315W        W53851   2.828  28.579   4.211
94316W        W53852  23.693  32.987   2.178
94317W        W53853  29.009  24.103  11.103
94318W        W53854  21.651  30.951   0.904
94319W        W53855  33.436  42.840  14.880
94320W        W53856  41.396  17.766   3.178
94321W        W53857  21.633  13.781  11.889
94322W        W53858   8.801  31.125   3.671
94323W        W53859  20.034   0.295  13.323
94324W        W53860  29.089  44.862  12.925
94325W        W53861  38.064  13.208   1.810
94326W        W53862  43.007   8.374   0.372
94327W        W53863  12.161  44.923  14.504
94328W        W53864  31.467  11.222   2.217
94329W        W53865  34.407  38.037  11.523
94330W        W53866   3.269  12.709   2.328
94331W        W53867  19.768  12.322  12.896
94332W        W53868  15.596  23.620   2.844
94333W        W53869  34.069  41.839  11.590
94334W        W53870  32.448   4.846  11.499
94335W        W53871  18.681  17.244   4.204
94336W        W53872   2.244  38.521   2.358
94337W        W53873   9.272  24.127   4.184
94338W        W53874  10.168  44.775  10.480
94339W        W53875  29.646  37.937  14.823
94340W        W53876  36.098  27.977   0.329
94341W        W53877  20.056  37.456   4.339
94342W        W53878  35.466  10.809  10.463
94343W        W53879  43.297  21.069  14.012
94344W        W53880  10.377  31.052   2.849
94345W        W53881   8.258   9.184   2.346
94346W        W53882  34.044  34.040  14.305
94347W        W53883  12.783  43.302   1.313
94348W        W53884   3.318  40.517   3.837
94349W        W53885   3.456  30.982   2.272
94350W        W53886  21.238  19.071   1.929
94351W        W53887   8.388  17.209  13.835
94352W        W53888   5.202  11.282  12.522
94353W        W53889  39.367  25.073   4.687
94354W        W53890  18.778  44.464   4.155
94355W        W53891  39.066  39.335  14.481
94356W        W53892  28.094   5.300  11.106
94357W        W53893  32.020   3.405   0.356
94358W        W53894  33.609   7.374   0.745
94359W        W53895   2.302  22.571  13.957
94360W        W53896  44.833  37.984  10.920
94361W        W53897  33.091  40.931   3.771
94362W        W53898   7.402  43.791  10.444
94363W        W53899  29.516  23.125  14.460
94364W        W53900  30.656  18.758  14.458
94365W        W53901  10.251  31.087   5.288
94366W        W53902  34.477  11.656  14.417
94367W        W53903  23.065  13.639   0.793
94368W        W53904   7.724  21.193  14.829
94369W        W53905  18.083  38.367   3.691
94370W        W53906  21.039  44.903  14.835
94371W        W53907  34.536  25.008   3.722
94372W        W53908  11.838  34.525   3.749
94373W        W53909  26.505  32.091  14.836
94374W        W53910  34.484  16.781   3.652
94375W        W53911   3.453  34.087  11.445
94376W        W53912  24.679  41.998  13.798
94377W        W53913  33.027   5.377  14.762
94378W        W53914  28.950  27.493  13.473
94379W        W53915  12.768  13.632  13.838
94380W        W53916  24.650  38.490  13.393
94381W        W53917  29.468  31.422  14.837
94382W        W53918  37.032  44.819  13.450
94383W        W53919   1.913  38.470   3.184
94384W        W53920  44.366  43.784  14.775
94385W        W53921  41.436  28.619   3.177
94386W        W53922  20.627   7.682  14.477
94387W        W53923  42.960  17.689   1.360
94388W        W53924  29.151  30.129  14.376
94389W        W53925  44.491  12.275  10.069
94390W        W53926  26.532  16.112   2.794
94391W        W53927  21.561  28.569  10.413
94392W        W53928  27.130   2.249   0.839
94393W        W53929  20.271   6.837   4.163
94394W        W53930  14.320  24.159   2.220
94395W        W53931  17.081   9.268   1.354
94396W        W53932  41.816  28.486  14.954
94397W        W53933  14.176  24.084   3.297
94398W        W53934  43.373  31.904  13.472
94399W        W53935   2.417  42.810   0.959
94400W        W53936   6.784  28.976  14.012
94401W        W53937  44.829   8.762   0.855
94402W        W53938  13.187  38.885   0.931
94403W        W53939   2.350  19.099   4.641
94404W        W53940  11.194   6.833   2.390
94405W        W53941  26.205   5.219  12.951
94406W        W53942  23.180  17.200  13.388
94407W        W53943  36.477  36.470   2.685
94408W        W53944  43.490  36.991  11.552
94409W        W53945   4.292  12.356   3.743
94410W        W53946  32.440  21.747   4.132
94411W        W53947  29.119   9.811   0.345
94412W        W53948  41.336  22.633   0.366
94413W        W53949  25.045  30.016  13.935
94414W        W53950  31.112  28.127  12.856
94415W        W53951  21.547  21.669  13.443
94416W        W53952  11.323  36.848   4.237
94417W        W53953  23.061  14.785  14.372
94418W        W53954  37.971  22.206   1.386
94419W        W53955  11.765  15.813   4.223
94420W        W53956  35.476  18.112   3.828
94421W        W53957  40.846   2.239  14.435
94422W        W53958  26.549  11.653   3.251
94423W        W53959  20.101  27.667  13.889
94424W        W53960  22.032   1.954   9.469
94425W        W53961  27.628   9.786   1.925
94426W        W53962  14.767   0.428   2.863
94427W        W53963  13.824  33.893   1.427
94428W        W53964   3.779   3.408   1.449
94429W        W53965   1.417  23.729  10.015
94430W        W53966  19.754  40.409   1.404
94431W        W53967  10.648  40.911   2.379
94432W        W53968  13.164  37.522  13.414
94433W        W53969   4.256  31.080  12.948
94434W        W53970  30.646  30.659  12.069
94435W        W53971  30.933  41.473  11.121
94436W        W53972  11.784  31.127   2.193
94437W        W53973  21.245  43.835   2.290
94438W        W53974  32.011  17.132  11.451
94439W        W53975  31.539  32.113   3.340
94440W        W53976  12.702  28.478  12.496
94441W        W53977   3.761  23.034   4.349
94442W        W53978   7.313  43.818   4.703
94443W        W53979  19.173   9.377  13.824
94444W        W53980   8.244  40.955   3.725
94445W        W53981   4.727   7.394   0.246
94446W        W53982  28.495  14.301   3.327
94447W        W53983  34.021  10.831   4.270
94448W        W53984  14.159   8.364   3.355
94449W        W53985  17.077   0.955  10.573
94450W        W53986  10.299   9.200   0.947
94451W        W53987  17.593  42.884  14.468
94452W        W53988   2.288  10.303  13.379
94453W        W53989  42.466  29.075   4.708
94454W        W53990  43.884   0.289   3.801
94455W        W53991  35.875  42.514   2.818
94456W        W53992  37.038  18.080  14.765
94457W        W53993   8.160   0.791  11.945
94458W        W53994   1.425  16.663   3.243
94459W        W53995  37.014  22.674  13.450
94460W        W53996  36.872   4.224   4.117
94461W        W53997  31.426  22.615   2.267
94462W        W53998  32.435  23.557  11.375
94463W        W53999  41.879  24.132  12.405
94464W        W54000  10.350  19.200  13.511
94465W        W54001  16.806   6.413  12.454
94466W        W54002  10.851   8.278  14.352
94467W        W54003  41.950   2.293  12.563
94468W        W54004  32.444  41.936  11.119
94469W        W54005  44.004   7.824  13.988
94470W        W54006  19.584   8.406  11.564
94471W        W54007  41.403  28.034   2.879
94472W        W54008  26.160   1.897   0.821
94473W        W54009  32.442  14.234   2.393
94474W        W54010   5.325  25.628   0.905
94475W        W54011  18.606  37.962  14.840
94476W        W54012  17.695  15.635   4.265
94477W        W54013  19.157  18.647  11.010
94478W        W54014  27.079  36.017  10.146
94479W        W54015  12.330   5.352   4.236
94480W        W54016   1.802   0.909  12.064
94481W        W54017  19.721  35.054  14.940
94482W        W54018  12.336  13.275   4.308
94483W        W54019   6.832  34.880   2.283
94484W        W54020  12.840   7.847   0.800
94485W        W54021  39.994   7.799   2.384
94486W        W54022  23.237  18.715  12.547
94487W        W54023  42.939  14.740  12.913
94488W        W54024  24.513  10.830   0.835
94489W        W54025  40.922  26.025   4.721
94490W        W54026  15.812   6.393   3.686
94491W        W54027  21.540  28.975   4.828
94492W        W54028  27.155  22.518  11.080
94493W        W54029  39.903  19.080   2.370
94494W        W54030  43.797  25.127   0.405
94495W        W54031  42.929  39.863   3.219
94496W        W54032   4.769  34.958   3.197
94497W        W54033  18.787  13.815  14.989
94498W        W54034  40.890  17.587  11.865
94499W        W54035   2.282  41.995  11.878
94500W        W54036  14.685  16.279  14.805
94501W        W54037   1.357  35.886   2.856
94502W        W54038  17.071  14.316  11.898
94503W        W54039  19.585  39.832   0.271
94504W        W54040  30.644  23.611   1.277
94505W        W54041  33.049  10.668  14.332
94506W        W54042  24.652  41.504   4.598
94507W        W54043  28.473  26.154   0.426
94508W        W54044  22.669   7.835  13.031
94509W        W54045   7.286  32.902  12.044
94510W        W54046  35.934  21.127  14.980
94511W        W54047  31.058  30.598  10.137
94512W        W54048   8.269  23.709   1.720
94513W        W54049  13.149  16.235  13.802
94514W        W54050  28.107  32.032  13.043
94515W        W54051  12.742  40.842   2.843
94516W        W54052  39.011  27.546  14.329
94517W        W54053  28.970  44.929   1.259
94518W        W54054  23.076  39.811  12.356
94519W        W54055  34.875   3.806  14.503
94520W        W54056  12.148  36.095   0.893
94521W        W54057  22.606  41.426   3.249
94522W        W54058  36.465  11.621  13.534
94523W        W54059  30.071  16.668   1.710
94524W        W54060   3.424  17.261   5.201
94525W        W54061   2.363  31.594   3.182
94526W        W54062  25.569  44.476  10.894
94527W        W54063  10.329  20.704   3.640
94528W        W54064  21.568   1.957   3.859
94529W        W54065  11.637  30.944   3.216
94530W        W54066  30.952  13.750  11.590
94531W        W54067  29.454  43.975  14.409
94532W        W54068  44.426  25.080   1.330
94533W        W54069  34.891  17.795  12.472
94534W        W54070  38.845   4.252   0.752
94535W        W54071  14.682  26.631   1.360
94536W        W54072   3.845  21.748  13.062
94537W        W54073  25.535  12.645   2.671
94538W        W54074  28.524  25.174  12.361
94539W        W54075   4.248  23.519  11.005
94540W        W54076   8.897  12.802  10.491
94541W        W54077  41.883  44.794   0.420
94542W        W54078  42.978  36.346  10.539
94543W        W54079  41.463   4.368   2.314
94544W        W54080  12.303   1.241  12.920
94545W        W54081  21.213  23.093   2.357
94546W        W54082  11.193   4.231   3.217
94547W        W54083  11.276  30.967   2.758
94548W        W54084  16.592  39.038  11.100
94549W        W54085  43.488  31.608  11.381
94550W        W54086  41.858  13.670   2.723
94551W        W54087  40.342  18.689  10.523
94552W        W54088  44.367  15.208  11.923
94553W        W54089  43.920  43.446  13.503
94554W        W54090  18.270  44.408   2.407
94555W        W54091  31.931  30.450   2.293
94556W        W54092  21.577   2.302  12.506
94557W        W54093   4.717  22.705  11.919
94558W        W54094  33.567  28.541   2.878
94559W        W54095  26.062   9.842   4.719
94560W        W54096  19.197  31.646   1.736
94561W        W54097  37.969  11.340   1.707
94562W        W54098  20.136  40.504   2.260
94563W        W54099  23.671  20.253   1.869
94564W        W54100   5.374  35.463  11.071
94565W        W54101  21.720  34.108  13.804
94566W        W54102  34.584  12.727   2.336
94567W        W54103  17.669  33.029  12.475
94568W        W54104   2.945  24.647   3.157
94569W        W54105  35.372  16.313  10.460
94570W        W54106   9.160  27.689   3.871
94571W        W54107   9.256  14.253  12.978
94572W        W54108  26.117  15.267  14.417
94573W        W54109  29.553  15.764   0.845
94574W        W54110  38.539  17.593  10.403
94575W        W54111  44.792  41.435  12.024
94576W        W54112  14.608   1.280   0.315
94577W        W54113  36.453  30.432   4.692
94578W        W54114  28.537  39.056   0.955
94579W        W54115   5.299   6.853   2.743
94580W        W54116  20.187  16.198   1.733
94581W        W54117  23.221  21.635  13.328
94582W        W54118   1.418   2.947   3.854
94583W        W54119   6.762  12.157  14.817
94584W        W54120  34.489   4.239  14.841
94585W        W54121  28.663   1.466  10.541
94586W        W54122  12.678  12.211   0.341
94587W        W54123  10.305  39.872  14.294
94588W        W54124  13.664  24.534   0.419
94589W        W54125  23.129  22.135  14.832
94590W        W54126  13.691  44.474   2.717
94591W        W54127  18.136  37.507  14.448
94592W        W54128  15.096  42.398  12.950
94593W        W54129  13.342  10.226  12.515
94594W        W54130  37.414   2.464   3.212
94595W        W54131  44.933  27.159   1.445
94596W        W54132  40.947  21.551   2.187
94597W        W54133  29.012  28.550  13.402
94598W        W54134  39.902   4.378   3.758
94599W        W54135   8.872   8.782   4.764
94600W        W54136  31.058   5.704  13.947
94601W        W54137  18.732  40.388   1.225
94602W        W54138  39.395   0.809   4.186
94603W        W54139  20.199   1.358   1.347
94604W        W54140   2.387  37.890  10.434
94605W        W54141  19.672  31.967   1.231
94606W        W54142   7.868   0.385   4.772
94607W        W54143   9.163  18.203  11.125
94608W        W54144  34.054  28.061  12.379
94609W        W54145  16.147  11.773  13.350
94610W        W54146  19.641   8.397  13.968
94611W        W54147  38.990   7.905  14.835
94612W        W54148  29.451   7.807   2.872
94613W        W54149  38.040   7.401  14.513
94614W        W54150  10.716   1.808  10.989
94615W        W54151   2.799   5.313   4.714
94616W        W54152  11.679  12.332   0.393
94617W        W54153   6.355  28.935   4.622
94618W        W54154   0.789   4.874   0.371
94619W        W54155  27.989  31.605  13.881
94620W        W54156  38.345  34.552  14.827
94621W        W54157  37.418  10.737  11.437
94622W        W54158  24.627  25.468   2.199
94623W        W54159   4.229  13.812  11.579
94624W        W54160  31.436  30.995   4.760
94625W        W54161  25.628  13.254   0.245
94626W        W54162  21.118   6.776  10.478
94627W        W54163   2.895  33.501   1.427
94628W        W54164   5.775  42.457  14.289
94629W        W54165   1.852  28.989  12.406
94630W        W54166   3.881  32.974  12.438
94631W        W54167   7.209  18.175  11.966
94632W        W54168   2.830  16.680   1.379
94633W        W54169  26.528  39.948   1.863
94634W        W54170  39.386   5.244   0.327
94635W        W54171  23.133  20.628  12.559
94636W        W54172  30.052  43.413  14.322
94637W        W54173   3.819   0.803  11.982
94638W        W54174  23.593  11.332  13.794
94639W        W54175  29.494  37.852  12.065
94640W        W54176  34.542  40.400   4.778
94641W        W54177   8.816   6.877   2.873
94642W        W54178  18.208  29.058  13.922
94643W        W54179  12.196  44.964  13.954
94644W        W54180  20.657  35.951  14.986
94645W        W54181  34.965  42.474  11.546
94646W        W54182  25.025  32.493  13.916
94647W        W54183  15.746  28.523  10.583
94648W        W54184   0.320  16.673   0.962
94649W        W54185  40.404  35.425  12.957
94650W        W54186   4.372  35.032   2.219
94651W        W54187  32.952  33.462   4.758
94652W        W54188  39.843  13.193  12.027
94653W        W54189  13.623  38.563   4.634
94654W        W54190  20.754  16.672   2.263
94655W        W54191  30.531   0.868  12.843
94656W        W54192  42.957  26.651  11.967
94657W        W54193  31.512  32.911   3.669
94658W        W54194  36.848  19.752   4.813
94659W        W54195  11.655   5.832   2.362
94660W        W54196  22.098  21.198   3.188
94661W        W54197   2.765  29.444   1.880
94662W        W54198  19.650  38.468   4.249
94663W        W54199   2.402  33.622  10.888
94664W        W54200  37.362  35.078  12.019
94665W        W54201   5.732  34.413  12.041
94666W        W54202  11.809  42.297  13.918
94667W        W54203  18.560   2.833   0.910
94668W        W54204   8.766  33.082  14.287
94669W        W54205  29.022  27.005   3.384
94670W        W54206  17.074  19.543  13.323
94671W        W54207  41.325   3.387   4.326
94672W        W54208  22.167  13.304   1.429
94673W        W54209  32.019  43.290  14.317
94674W        W54210  14.270  13.674   0.369
94675W        W54211  10.722  36.399   3.382
94676W        W54212  11.737  37.035  12.041
94677W        W54213  39.460  10.774   3.659
94678W        W54214   6.704  16.200   3.813
94679W        W54215   2.250   1.281   3.726
94680W        W54216  19.065  22.532   0.820
94681W        W54217  41.422  19.619  14.331
94682W        W54218  15.638   7.308  10.978
94683W        W54219  35.432  44.444   0.327
94684W        W54220   2.955  27.057  14.824
94685W        W54221  41.959  12.699  10.418
94686W        W54222   1.890  28.603   0.787
94687W        W54223  27.161   3.801  12.463
94688W        W54224  37.532   8.791  14.356
94689W        W54225  35.533  29.593  12.017
94690W        W54226  16.594   3.461   2.880
94691W        W54227  31.099  28.655   4.322
94692W        W54228  36.381  42.343   1.311
94693W        W54229  16.169  30.574  11.585
94694W        W54230   1.841  42.307  14.779
94695W        W54231  24.686  44.870   2.886
94696W        W54232   3.412  10.653   0.763
94697W        W54233   0.480   2.739  13.475
94698W        W54234  21.208   0.403   0.844
94699W        W54235   7.182  20.211  12.924
94700W        W54236  21.233   0.928  14.497
94701W        W54237  22.042  17.222   2.227
94702W        W54238  18.112  26.168  10.540
94703W        W54239  25.682  19.060  14.774
94704W        W54240  11.352   4.274   4.668
94705W        W54241  30.908  26.461   0.268
94706W        W54242  22.076   4.372  13.980
94707W        W54243   7.902  21.038   0.418
94708W        W54244  39.500  15.312  12.470
94709W        W54245  44.914  41.957  13.824
94710W        W54246  23.497  37.552  13.468
94711W        W54247  22.542  10.731   2.749
94712W        W54248   3.266  44.472   5.258
94713W        W54249  35.061  29.032  13.465
94714W        W54250  15.819  26.598   4.717
94715W        W54251  30.988  40.510   4.299
94716W        W54252  33.005  16.784  12.570
94717W        W54253  29.926   5.860   3.326
94718W        W54254  36.063  28.044   1.784
94719W        W54255  43.915  33.112   2.248
94720W        W54256  31.037  13.826  13.925
94721W        W54257  37.862  22.022   0.321
94722W        W54258   7.785  23.689   3.772
94723W        W54259  43.467  30.518  13.451
94724W        W54260   5.273   5.323   3.213
94725W        W54261   3.892  19.706  12.047
94726W        W54262   7.752  14.152   4.140
94727W        W54263  41.359  27.114   2.698
94728W        W54264  41.470   7.173  10.893
94729W        W54265  37.027   1.968  13.318
94730W        W54266  19.630  25.508  13.987
94731W        W54267  10.779  17.175   1.394
94732W        W54268  43.003  34.870  14.396
94733W        W54269   0.470   5.883   4.745
94734W        W54270  37.990  40.007   1.837
94735W        W54271  36.087  40.404  10.599
94736W        W54272   3.446  31.080   2.776
94737W        W54273  12.615   5.881   1.881
94738W        W54274  31.457  23.144   0.481
94739W        W54275  36.963   1.964  14.880
94740W        W54276  15.679   5.770  12.880
94741W        W54277   2.784  17.086  13.510
94742W        W54278  27.671  17.295   4.316
94743W        W54279  15.639  38.500  10.910
94744W        W54280  22.235  39.472   4.150
94745W        W54281  35.533  27.006  12.534
94746W        W54282  13.222  12.347   1.896
94747W        W54283  25.473  22.745   4.286
94748W        W54284  23.613   3.334  10.432
94749W        W54285  22.724  25.125   2.869
94750W        W54286  33.473  40.378  11.911
94751W        W54287  35.892  19.142  14.388
94752W        W54288  30.637  25.097  10.630
94753W        W54289   7.279  44.967  13.809
94754W        W54290   2.267  31.547   1.400
94755W        W54291  27.016  19.644   0.747
94756W        W54292  31.459  38.929  14.838
94757W        W54293   8.861   6.908  10.529
94758W        W54294   1.258  26.463   0.761
94759W        W54295  35.363  34.443  11.526
94760W        W54296  13.639  27.602  10.467
94761W        W54297  41.902  27.637   1.772
94762W        W54298  42.903  10.337  13.028
94763W        W54299  34.889  43.377   0.326
94764W        W54300  35.388   6.374   2.731
94765W        W54301   2.791  34.453  10.921
94766W        W54302  25.195  41.862   4.778
94767W        W54303  30.042   1.905   1.243
94768W        W54304   5.366  23.163  11.110
94769W        W54305   5.437  26.204  14.493
94770W        W54306   4.852  28.577   1.867
94771W        W54307  20.675  43.871  11.456
94772W        W54308   5.344  42.921   1.412
94773W        W54309   0.437   9.237  14.308
94774W        W54310  13.703  27.972  14.418
94775W        W54311  29.164  26.586  12.998
94776W        W54312  27.471   8.732   4.639
94777W        W54313  38.453  27.105   1.328
94778W        W54314  40.958  37.464  10.408
94779W        W54315  15.803  15.129  10.443
94780W        W54316   4.926  17.650   0.436
94781W        W54317  11.298   3.711   0.877
94782W        W54318  33.100  23.697  13.876
94783W        W54319  14.097  14.725   2.888
94784W        W54320  39.496   7.725   1.801
94785W        W54321  26.175  34.938   0.396
94786W        W54322   7.343   9.856   0.737
94787W        W54323   1.877  18.602   2.811
94788W        W54324  32.562  21.041   3.228
94789W        W54325  10.679   4.336   3.753
94790W        W54326   9.331  18.659   2.714
94791W        W54327  24.147  19.212   2.676
94792W        W54328  42.358  39.322   0.918
94793W        W54329   7.308  25.112  10.478
94794W        W54330  24.054  37.888  11.517
94795W        W54331  41.511  27.532  13.372
94796W        W54332  18.555  40.866  13.434
94797W        W54333  43.476  40.901  14.884
94798W        W54334  35.396  34.612  11.881
94799W        W54335  15.631   6.236  14.027
94800W        W54336  21.171  22.662  10.450
94801W        W54337  37.460  22.729   2.778
94802W        W54338   6.807  11.710  10.570
94803W        W54339  22.044  42.386   3.629
94804W        W54340  25.507  39.412  13.390
94805W        W54341  44.361  44.377  14.027
94806W        W54342  35.983  25.492   0.456
94807W        W54343  35.053  15.606   3.297
94808W        W54344  35.035  43.293  13.401
94809W        W54345  10.363   5.298  13.448
94810W        W54346  34.593  38.374   1.877
94811W        W54347  18.131  30.999  11.064
94812W        W54348  43.421  39.507   1.301
94813W        W54349  32.121  23.626   0.883
94814W        W54350  12.662  26.692   0.759
94815W        W54351   2.934  34.002  12.365
94816W        W54352  42.496  36.921  11.911
94817W        W54353   5.697   0.383  14.287
94818W        W54354   9.684  29.466   3.311
94819W        W54355   1.480  37.864   1.766
94820W        W54356  26.122   5.318   3.803
94821W        W54357   0.919   5.703  10.498
94822W        W54358  20.582  25.693  14.776
94823W        W54359  33.130  25.189  12.879
94824W        W54360  14.245  43.354  12.992
94825W        W54361  37.005  10.816  14.310
94826W        W54362   6.786   7.904  13.939
94827W        W54363   6.307  13.235  10.592
94828W        W54364   3.327  41.043  10.497
94829W        W54365   0.452  19.658   3.691
94830W        W54366  28.031  39.492  10.151
94831W        W54367  18.547  20.217   1.283
94832W        W54368  23.570   0.475   1.785
94833W        W54369  29.574  29.576   2.851
94834W        W54370  17.117  38.831  14.954
94835W        W54371  26.097  24.498   4.702
94836W        W54372  15.153  10.355   2.379
94837W        W54373   7.219  42.979   1.871
94838W        W54374  24.598  15.125  12.999
94839W        W54375  13.207  42.917   5.246
94840W        W54376  27.622  26.686  10.900
94841W        W54377  35.389  18.728   4.166
94842W        W54378   4.716  35.853  12.870
94843W        W54379  24.576  29.558  12.576
94844W        W54380  37.468   4.256  14.785
94845W        W54381  31.002  39.393  12.088
94846W        W54382  34.081   8.281   4.269
94847W        W54383  42.872   1.902   2.302
94848W        W54384  32.528  35.037  13.316
94849W        W54385  38.566  18.068  14.380
94850W        W54386   3.423  34.048   2.319
94851W        W54387  28.157  14.723   0.783
94852W        W54388  25.577  17.100   0.904
94853W        W54389  23.236   8.811   1.775
94854W        W54390   6.303  36.938  12.492
94855W        W54391  34.614   2.775   3.205
94856W        W54392  17.570  16.313  14.371
94857W        W54393  28.594  24.981   4.159
94858W        W54394  28.111   6.197  13.397
94859W        W54395  28.037  10.292  14.278
94860W        W54396  13.628  37.884   2.692
94861W        W54397  21.174   5.763   2.889
94862W        W54398   7.249  12.682   4.139
94863W        W54399  25.659  25.211  10.103
94864W        W54400  30.526   4.789  14.029
94865W        W54401   1.322   9.389  12.983
94866W        W54402  27.650  42.856  11.034
94867W        W54403   6.776   1.733  12.838
94868W        W54404  36.885   2.743  12.478
94869W        W54405  34.414  27.025   4.685
94870W        W54406  27.967   9.770   3.172
94871W        W54407  21.067   4.234   4.793
94872W        W54408  44.784   8.214   3.350
94873W        W54409   0.775  22.642   2.231
94874W        W54410  16.152  26.070   3.847
94875W        W54411  15.683   1.779  10.445
94876W        W54412  28.455   0.324   1.808
94877W        W54413  17.697  27.156  13.932
94878W        W54414   1.422  13.138  12.041
94879W        W54415  42.793  27.127   2.837
94880W        W54416  30.961  42.979  11.539
94881W        W54417  11.713  41.423   1.368
94882W        W54418  26.019  36.518  11.977
94883W        W54419  28.512  16.614  11.381
94884W        W54420  19.234  12.309  10.459
94885W        W54421  38.073  43.442  14.278
94886W        W54422   9.174  12.752   3.167
94887W        W54423   4.254  28.162   1.263
94888W        W54424  14.212  29.596  10.928
94889W        W54425  26.014  37.368   2.694
94890W        W54426  17.176  25.514   0.393
94891W        W54427  25.711  20.071   0.939
94892W        W54428  22.079   9.799  12.069
94893W        W54429   6.396  44.359   2.388
94894W        W54430  30.155  43.974   4.646
94895W        W54431  25.522  33.563   4.667
94896W        W54432   3.309  21.599  13.482
94897W        W54433  15.801   5.924   1.228
94898W        W54434  40.449  23.071   4.708
94899W        W54435  10.374  28.648   1.391
94900W        W54436   7.265  10.344   1.873
94901W        W54437  25.986  41.360   1.414
94902W        W54438  37.556  25.683  13.501
94903W        W54439  37.466  28.107  10.957
94904W        W54440  37.032  31.986   1.313
94905W        W54441  14.174  12.783   2.841
94906W        W54442  42.787  17.665  12.403
94907W        W54443  13.305  10.262   4.342
94908W        W54444  17.743  41.787  14.362
94909W        W54445   9.881  41.013  11.962
94910W        W54446  44.279  21.718  11.119
94911W        W54447  25.534  35.949   2.837
94912W        W54448  18.094  23.719  11.451
94913W        W54449   0.392  37.085   2.773
94914W        W54450   0.764  35.536  11.443
94915W        W54451  16.142  40.348   3.283
94916W        W54452  26.552  41.327   0.375
94917W        W54453  19.251   2.269  12.904
94918W        W54454  36.887  11.371   1.378
94919W        W54455  32.523   2.303  10.529
94920W        W54456  43.969  34.973   3.354
94921W        W54457  44.937   7.264   2.253
94922W        W54458   3.744  43.461   4.834
94923W        W54459  34.439  31.591   1.319
94924W        W54460   2.939  33.105  11.505
94925W        W54461  43.976  10.325  14.026
94926W        W54462  24.024  23.004   0.907
94927W        W54463  17.578  30.431  13.353
94928W        W54464  34.552  44.433   0.941
94929W        W54465  34.402  35.541  14.461
94930W        W54466  28.110  30.465   1.808
94931W        W54467  31.600   5.880   0.767
94932W        W54468   2.804  25.187  13.914
94933W        W54469   5.334   8.249   4.243
94934W        W54470  13.619  30.956  10.444
94935W        W54471   1.455   4.742   0.830
94936W        W54472   6.828  39.056  12.423
94937W        W54473  31.949  20.758   2.800
94938W        W54474  16.276  12.123  12.394
94939W        W54475   2.325  40.866   3.789
94940W        W54476  38.886   6.730   3.231
94941W        W54477   3.308   4.711  12.840
94942W        W54478  33.583  29.028   4.755
94943W        W54479  25.550   9.720   3.697
94944W        W54480   9.362  31.910   1.768
94945W        W54481   8.785  39.978  12.033
94946W        W54482  32.075  35.397  13.987
94947W        W54483  16.744  25.503   3.680
94948W        W54484  14.335  40.323   4.816
94949W        W54485  40.807  43.802  11.023
94950W        W54486   1.862  10.770  10.942
94951W        W54487  16.777  15.230  13.060
94952W        W54488   3.861   5.922   1.851
94953W        W54489  23.718  26.571  12.855
94954W        W54490  20.150  10.364   2.206
94955W        W54491  34.001   3.756  12.836
94956W        W54492  40.523   6.330   3.681
94957W        W54493  36.440  37.501  10.578
94958W        W54494  10.327  39.819   1.327
94959W        W54495   8.703  23.017   1.421
94960W        W54496   8.754  31.634   9.943
94961W        W54497  22.515   1.316  10.511
94962W        W54498  24.227  10.359  13.422
94963W        W54499   7.375   7.416  14.380
94964W        W54500  31.079  18.160   1.411
94965W        W54501  20.253  38.063   3.377
94966W        W54502  27.185  14.750  14.771
94967W        W54503  25.663   6.680  11.126
94968W        W54504  38.071  24.623  11.088
94969W        W54505  13.325   8.357   2.756
94970W        W54506   6.743  42.334   0.261
94971W        W54507  41.302  33.486  11.589
94972W        W54508  30.089  35.555  12.977
94973W        W54509   2.886  40.414   1.264
94974W        W54510  23.556  40.872   0.845
94975W        W54511   8.306  19.699  12.470
94976W        W54512  36.975  33.508  11.908
94977W        W54513   9.189   2.341  14.958
94978W        W54514  30.533  12.634   4.678
94979W        W54515  15.702  26.573  10.119
94980W        W54516  26.462   9.669   0.414
94981W        W54517  19.231   3.247   4.657
94982W        W54518  13.717  36.507   0.921
94983W        W54519   5.366  32.122   1.923
94984W        W54520  23.089  12.793   1.253
94985W        W54521  23.514  37.446   1.433
94986W        W54522  23.660  21.135  13.481
94987W        W54523   4.363  37.542  13.329
94988W        W54524  12.831  20.118  11.374
94989W        W54525  34.500  13.157   1.264
94990W        W54526  44.952  19.241   0.927
94991W        W54527  27.062  13.651  14.444
94992W        W54528   4.920  22.700  12.569
94993W        W54529   9.338  22.132  10.408
94994W        W54530  21.621  13.246   4.330
94995W        W54531  33.466  10.330   2.826
94996W        W54532  27.951  15.112  12.526
94997W        W54533  38.890   5.806   2.349
94998W        W54534  39.873  11.258  14.782
94999W        W54535  43.771  29.512   3.226
95000W        W54536  11.785  15.708   3.279
95001W        W54537  28.140  31.025  10.072
95002W        W54538  21.102   7.846  11.948
95003W        W54539  18.129  36.476  10.939
95004W        W54540  26.014   3.428   0.419
95005W        W54541  16.159  39.363   3.169
95006W        W54542  11.665  14.621  12.534
95007W        W54543  38.046  24.513   4.329
95008W        W54544  43.869  17.747  12.843
95009W        W54545  16.626   8.271   4.133
95010W        W54546  33.509  44.980   1.747
95011W        W54547  24.013  15.789  11.886
95012W        W54548  20.248   9.806   1.447
95013W        W54549   4.707  35.109   0.810
95014W        W54550  26.034  16.131   2.351
95015W        W54551  38.377   3.869  11.998
95016W        W54552  20.729  27.589   4.218
95017W        W54553  23.567  44.822   3.805
95018W        W54554  39.422  12.325  13.364
95019W        W54555  12.255  22.029  13.039
95020W        W54556  25.170  18.683  13.324
95021W        W54557  11.817  17.618  11.612
95022W        W54558  37.996  32.397   4.650
95023W        W54559  44.482   9.258  12.529
95024W        W54560  29.430  10.660  14.360
95025W        W54561   8.751  14.220   1.417
95026W        W54562  16.672  12.357   2.335
95027W        W54563   3.292   4.399   2.369
95028W        W54564  27.484  16.752   0.847
95029W        W54565  24.977  22.084  12.049
95030W        W54566  27.668  23.605   2.669
95031W        W54567  35.077  19.606  12.463
95032W        W54568   9.781   3.758   0.924
95033W        W54569  14.834  17.778   3.176
95034W        W54570   1.872   3.366  14.435
95035W        W54571   7.245  44.890   1.441
95036W        W54572  31.986  18.785   3.706
95037W        W54573  28.087   4.887  12.963
95038W        W54574  25.529  24.144   4.610
95039W        W54575  31.435  31.562  13.508
95040W        W54576  29.593  41.327   5.132
95041W        W54577  21.648  44.357   2.334
95042W        W54578  12.743  42.797  11.899
95043W        W54579  26.640  22.995   1.799
95044W        W54580  12.778  13.191   1.841
95045W        W54581  30.651   7.403   0.479
95046W        W54582   0.963   6.707   0.370
95047W        W54583  33.618   8.168  10.006
95048W        W54584  30.028   9.733   2.673
95049W        W54585  10.249  14.600   4.667
95050W        W54586   7.213  43.326   3.382
95051W        W54587  18.178  42.914   4.792
95052W        W54588  13.127   6.197  14.274
95053W        W54589  41.389  10.148  10.528
95054W        W54590  29.978  19.683  11.484
95055W        W54591   9.313  30.916   0.947
95056W        W54592  30.611  41.370   3.762
95057W        W54593  11.840  43.910   0.454
95058W        W54594  29.112   2.235  13.890
95059W        W54595  42.953   1.387  10.642
95060W        W54596   9.863  23.529   3.296
95061W        W54597   0.396  11.197   0.400
95062W        W54598   6.835  27.146  11.438
95063W        W54599  44.759  14.146   2.839
95064W        W54600  34.523   8.801   2.326
95065W        W54601  19.115  12.310   4.601
95066W        W54602  27.086   7.873  11.431
95067W        W54603  35.997   3.853  10.889
95068W        W54604   8.399   2.287  10.607
95069W        W54605  20.723  32.598  11.860
95070W        W54606  40.997  35.933  14.454
95071W        W54607  32.061   1.270  13.451
95072W        W54608  11.133  10.701   2.227
95073W        W54609   0.830   1.368  13.494
95074W        W54610  28.060  16.158   4.287
95075W        W54611  26.467  18.574  11.429
95076W        W54612   0.868  42.987   4.274
95077W        W54613  38.961   0.859   1.213
95078W        W54614  26.013  40.907   3.680
95079W        W54615   5.431  23.226  10.586
95080W        W54616   8.375  19.711   4.645
95081W        W54617  28.106   9.247  12.534
95082W        W54618  26.952  11.157   1.250
95083W        W54619  44.869  22.012  13.975
95084W        W54620   3.459  23.717   1.296
95085W        W54621  19.601   4.926   2.763
95086W        W54622   1.333  15.182  10.912
95087W        W54623  26.154  40.486   0.848
95088W        W54624  34.556  42.371   3.767
95089W        W54625  34.914  35.408  13.513
95090W        W54626  44.925  15.328  13.448
95091W        W54627  10.199   7.192  14.904
95092W        W54628  23.080  11.185   0.347
95093W        W54629  16.605  44.937  14.898
95094W        W54630  44.881  17.683  12.830
95095W        W54631  11.727  16.159  11.112
95096W        W54632  32.082  37.526  11.500
95097W        W54633  42.949  12.781   3.307
95098W        W54634  10.256  43.018  10.039
95099W        W54635  30.452  10.832  12.895
95100W        W54636  34.007  40.913   4.238
95101W        W54637  43.400  29.526  14.760
95102W        W54638   7.270  42.501   3.692
95103W        W54639   3.380  21.571  13.963
95104W        W54640  36.464  35.410  11.970
95105W        W54641  25.127  23.172   0.449
95106W        W54642  13.753  22.622  14.385
95107W        W54643  35.991  36.852   0.279
95108W        W54644   6.408  32.096   3.181
95109W        W54645  35.585  41.994   0.464
95110W        W54646  35.586  41.958   1.352
95111W        W54647  25.132  32.037   0.392
95112W        W54648  36.916  37.444   0.940
95113W        W54649  30.996   7.190   2.275
95114W        W54650  14.312  20.613  12.947
95115W        W54651   2.900  30.030   1.742
95116W        W54652  24.498  35.082  12.886
95117W        W54653  11.729   0.906   5.165
95118W        W54654  19.574  16.081   4.646
95119W        W54655  11.795  38.010   3.690
95120W        W54656  20.554  31.079   0.248
95121W        W54657  41.440  20.701  10.592
95122W        W54658  23.193  32.916   4.131
95123W        W54659  37.032  33.038  10.516
95124W        W54660   7.364  33.586   1.357
95125W        W54661  18.292  38.978  12.374
95126W        W54662  37.032  44.971   1.350
95127W        W54663  39.386  22.646  11.491
95128W        W54664  24.686  25.004  14.850
95129W        W54665  23.236   9.773  11.004
95130W        W54666  27.691  35.394   3.755
95131W        W54667  36.856  15.100  13.029
95132W        W54668  18.742  42.883   2.747
95133W        W54669  43.484  30.534  11.421
95134W        W54670  21.687  33.996  11.997
95135W        W54671  31.644   4.918  13.807
95136W        W54672   5.405   9.690   1.231
95137W        W54673  35.859  31.093  14.344
95138W        W54674  15.753  36.583   1.395
95139W        W54675   9.835  18.573   3.260
95140W        W54676  16.190  20.553   1.357
95141W        W54677   9.261  38.325   1.822
95142W        W54678  11.195  16.774   1.860
95143W        W54679  24.719  35.939   1.335
95144W        W54680  37.833   2.940  12.001
95145W        W54681   3.248  17.672   4.730
95146W        W54682  34.371  41.789   0.964
95147W        W54683  30.424   1.740  12.467
95148W        W54684  19.550  26.135   4.231
95149W        W54685  30.463  40.509   3.797
95150W        W54686  42.017   9.369  10.930
95151W        W54687  23.193  27.951  10.479
95152W        W54688  34.491  10.314   1.741
95153W        W54689   1.432   3.832  14.898
95154W        W54690  30.574   0.318   4.229
95155W        W54691  21.563  11.703   3.761
95156W        W54692   3.785  43.958   4.734
95157W        W54693  29.996  43.321   3.208
95158W        W54694   4.916  18.595   1.270
95159W        W54695   4.870  29.042  10.459
95160W        W54696  11.168  21.068  12.357
95161W        W54697  38.020  12.772  10.517
95162W        W54698  11.741  30.578  12.515
95163W        W54699   6.858  17.204   4.174
95164W        W54700  42.956  12.173  12.971
95165W        W54701   8.830  35.459   1.852
95166W        W54702  34.441  19.071   2.898
95167W        W54703  26.138   9.210  12.985
95168W        W54704  28.594  24.993  11.555
95169W        W54705  13.278  10.865   5.183
95170W        W54706  25.705  29.075  12.407
95171W        W54707  34.988   2.372  11.037
95172W        W54708  10.875  18.066   0.308
95173W        W54709  34.450  31.150  11.023
95174W        W54710   7.296  16.716   0.361
95175W        W54711   5.289  37.544   1.790
95176W        W54712  36.913   1.892  12.476
95177W        W54713  17.265  12.293   4.732
95178W        W54714  35.399  25.519   2.672
95179W        W54715   0.396  33.458  13.469
95180W        W54716  16.581  19.749  12.567
95181W        W54717  40.855  33.454  14.967
95182W        W54718   6.701   9.395   0.472
95183W        W54719  12.294   6.860  12.359
95184W        W54720   4.944  30.515  14.980
95185W        W54721  14.711  41.453   3.674
95186W        W54722  16.664   7.283  15.000
95187W        W54723  25.988  30.603   2.732
95188W        W54724  15.718  31.618   3.738
95189W        W54725   2.867  11.797   1.768
95190W        W54726  22.703  11.718  12.930
95191W        W54727  27.588  11.365  12.092
95192W        W54728  17.157  41.025  11.469
95193W        W54729  12.690  10.235   5.172
95194W        W54730   0.878  29.083   2.782
95195W        W54731   9.394  31.072  12.960
95196W        W54732  38.467  41.401   0.789
95197W        W54733  24.135  10.690   4.768
95198W        W54734  20.180  26.626   2.839
95199W        W54735  19.231  22.701   2.196
95200W        W54736  22.057  38.044   0.830
95201W        W54737  41.489  18.647   2.270
95202W        W54738  21.743  29.057   4.225
95203W        W54739  33.016   4.447   1.909
95204W        W54740  12.147  28.479   0.873
95205W        W54741  35.362  25.992  12.459
95206W        W54742  21.749  33.116   2.229
95207W        W54743   5.771   1.816   0.797
95208W        W54744  10.734  18.651   0.313
95209W        W54745  42.394  28.621   2.890
95210W        W54746  30.437  36.894   3.652
95211W        W54747   1.447  35.878  14.492
95212W        W54748  20.232  13.754  13.459
95213W        W54749  19.600  37.953  11.910
95214W        W54750  19.540   7.273   4.748
95215W        W54751  22.148   8.242   4.796
95216W        W54752  30.937  38.443  11.577
95217W        W54753   1.390  18.635  14.830
95218W        W54754   5.924  39.893  14.878
95219W        W54755  44.387  44.768  14.767
95220W        W54756  21.141  20.639  12.430
95221W        W54757  39.999  18.273  12.538
95222W        W54758  24.494  38.922   1.260
95223W        W54759  27.677   5.417  12.543
95224W        W54760  20.566  22.170   4.839
95225W        W54761  28.167   8.830   1.911
95226W        W54762   6.236  25.707  14.933
95227W        W54763  31.580   9.849  11.448
95228W        W54764  26.546  15.102   2.323
95229W        W54765  21.731  10.803   3.329
95230W        W54766  27.090   6.362   4.189
95231W        W54767  17.779  14.781  10.915
95232W        W54768  19.182  42.357   2.777
95233W        W54769  38.461  29.125  11.534
95234W        W54770  20.680  34.043   2.297
95235W        W54771   3.733   5.870   3.670
95236W        W54772   3.713  42.919   3.639
95237W        W54773  13.233  32.497  12.352
95238W        W54774  41.871   4.426   2.252
95239W        W54775  10.758   6.712   2.295
95240W        W54776   3.224  37.430  11.958
95241W        W54777  27.050  25.062   0.874
95242W        W54778  25.039  35.888   2.838
95243W        W54779  31.007   8.675   0.438
95244W        W54780  40.394  23.622   9.972
95245W        W54781  31.952  42.324   2.662
95246W        W54782   9.343   5.716   4.171
95247W        W54783  26.532  22.114  14.382
95248W        W54784  44.293  26.978   1.293
95249W        W54785  25.207  29.091  12.950
95250W        W54786   9.668  36.928   2.858
95251W        W54787  10.376  44.768  13.998
95252W        W54788  31.595  30.608  11.424
95253W        W54789   2.402   6.814   0.340
95254W        W54790   5.840  10.144   1.311
95255W        W54791  39.380  13.168  12.862
95256W        W54792  15.154   7.794  10.418
95257W        W54793  15.175  38.571   1.254
95258W        W54794   9.328  25.638   0.754
95259W        W54795   0.851   1.873   4.245
95260W        W54796   7.780  27.562  14.886
95261W        W54797  32.599  17.699  11.972
95262W        W54798  14.795  44.488  13.458
95263W        W54799  29.589   7.250  14.363
95264W        W54800  11.691  19.081  14.972
95265W        W54801  31.408  40.840  10.549
95266W        W54802  33.950  15.647  13.925
95267W        W54803  21.091   6.707  14.504
95268W        W54804   0.463  14.816   4.799
95269W        W54805  37.966  14.718   1.373
95270W        W54806   5.408  20.695   3.743
95271W        W54807  32.960  29.133   2.322
95272W        W54808   8.268  41.788   3.350
95273W        W54809  11.804  15.219   2.321
95274W        W54810  40.958   5.290   3.844
95275W        W54811   0.327  21.529  14.796
95276W        W54812  36.399  41.424  13.507
95277W        W54813   1.411  27.116   1.851
95278W        W54814  41.359  37.377   4.610
95279W        W54815   9.653  23.528   0.418
95280W        W54816  21.560  20.671   5.097
95281W        W54817   5.377  24.635  12.869
95282W        W54818  39.819  36.364   2.695
95283W        W54819  17.193  43.923   4.154
95284W        W54820  34.475   1.250  12.359
95285W        W54821   8.288  36.588  14.475
95286W        W54822  19.637  16.114   4.272
95287W        W54823  16.747  43.963  10.947
95288W        W54824  22.643  23.120  13.321
95289W        W54825  17.089  37.065   3.674
95290W        W54826   5.909   2.376   2.287
95291W        W54827  19.731  28.947   2.247
95292W        W54828   6.324  22.698   0.862
95293W        W54829  34.497   1.282   4.783
95294W        W54830  22.243  13.665  11.039
95295W        W54831  24.228  10.243   2.200
95296W        W54832  27.628  23.104   0.793
95297W        W54833  12.293  10.811  13.422
95298W        W54834   2.804  37.999  14.449
95299W        W54835  43.829  14.624  10.498
95300W        W54836   5.897  21.580   4.349
95301W        W54837  10.725   9.656   2.805
95302W        W54838  39.951  17.139  11.869
95303W        W54839  44.886  10.710   4.233
95304W        W54840  13.171  44.323  11.484
95305W        W54841   7.869  26.052  12.983
95306W        W54842  44.300  10.683  12.025
95307W        W54843  29.935  27.962   9.486
95308W        W54844  43.907  42.939   4.697
95309W        W54845  40.493   8.828   3.737
95310W        W54846  14.662  35.577  11.912
95311W        W54847  25.468  20.732   0.289
95312W        W54848  27.670  39.944   3.809
95313W        W54849  34.865  27.538  11.077
95314W        W54850  12.682  35.493   2.702
95315W        W54851  31.036  31.487   4.627
95316W        W54852  39.972   2.876   2.666
95317W        W54853  32.001  29.575  13.805
95318W        W54854  18.732  10.145  11.500
95319W        W54855  40.967  34.543   1.225
95320W        W54856  16.236  24.975  11.407
95321W        W54857   3.432  22.503  10.537
95322W        W54858  36.502   8.847   0.743
95323W        W54859  34.994  35.559  14.028
95324W        W54860   7.172  25.653   4.239
95325W        W54861  33.470  23.562   2.707
95326W        W54862  28.161  12.685   1.740
95327W        W54863   1.799   6.397  14.953
95328W        W54864  37.064  13.804   1.265
95329W        W54865  22.655  43.817   2.235
95330W        W54866   6.921  25.120  11.884
95331W        W54867  39.009  11.326  10.118
95332W        W54868   1.915  33.564  12.880
95333W        W54869  18.064  40.488  14.445
95334W        W54870  25.975  38.831   3.781
95335W        W54871   6.387  30.594  12.930
95336W        W54872   0.957  11.361   2.799
95337W        W54873  35.857  28.031   4.741
95338W        W54874  13.341  30.073  13.901
95339W        W54875  37.439  25.554  12.977
95340W        W54876  16.097  35.423   3.326
95341W        W54877  15.139   3.828  14.508
95342W        W54878  17.801   7.854   1.744
95343W        W54879  43.330  19.261  12.530
95344W        W54880  11.669   0.356   1.921
95345W        W54881  12.155  14.321  13.413
95346W        W54882  17.259   0.802   4.154
95347W        W54883  24.647  42.974   3.740
95348W        W54884  19.764   8.759   1.404
95349W        W54885  15.772  31.000   1.226
95350W        W54886  18.220  16.179  11.076
95351W        W54887  21.260  22.041   2.723
95352W        W54888  41.951   9.303   1.932
95353W        W54889  33.968  10.235  12.935
95354W        W54890  37.042   0.460  11.421
95355W        W54891   8.685  27.113  14.800
95356W        W54892  26.601  44.301  12.989
95357W        W54893  33.516  11.714  11.536
95358W        W54894  43.395  40.504  14.914
95359W        W54895   1.309   2.893   1.796
95360W        W54896  14.718  22.618   4.837
95361W        W54897  32.574  30.103  14.950
95362W        W54898   9.283  16.278   2.347
95363W        W54899  26.515  26.661  10.990
95364W        W54900  35.865  11.371  13.312
95365W        W54901  18.635  23.657   0.467
95366W        W54902   4.358  21.593   1.874
95367W        W54903  23.552   2.814   1.423
95368W        W54904   5.747   4.907  12.528
95369W        W54905   7.780  40.027  14.283
95370W        W54906  31.001  22.521   4.652
95371W        W54907  38.006  39.873   0.873
95372W        W54908  34.589  12.178  13.470
95373W        W54909   3.408  18.103  13.541
95374W        W54910  30.493  16.739   1.428
95375W        W54911  41.802  31.470  13.925
95376W        W54912  17.195  36.461  11.496
95377W        W54913  22.198  23.671   3.383
95378W        W54914   5.688  40.321   0.396
95379W        W54915  44.459  33.896  10.417
95380W        W54916   4.819   8.858   0.834
95381W        W54917  21.065  39.370   4.343
95382W        W54918  44.338  12.799  10.569
95383W        W54919  41.459  23.221   0.396
95384W        W54920   1.877  16.237  13.821
95385W        W54921  26.680  34.906   0.837
95386W        W54922   6.291  28.585   5.094
95387W        W54923  38.858  10.359  12.521
95388W        W54924  41.884  28.117  13.988
95389W        W54925  30.999  37.500   3.631
95390W        W54926  31.497   5.907  11.995
95391W        W54927   7.841   7.258   2.704
95392W        W54928  31.527  18.735  10.931
95393W        W54929  25.642  29.950   2.670
95394W        W54930  44.907  31.905   3.193
95395W        W54931  25.168  18.256  11.104
95396W        W54932  43.850  35.519  12.952
95397W        W54933   6.360  11.231   0.947
95398W        W54934  28.643  40.856   4.327
95399W        W54935  19.172  28.161  11.521
95400W        W54936   7.819  33.511   2.812
95401W        W54937  36.387   2.942  12.420
95402W        W54938  14.097  19.230  11.468
95403W        W54939   9.330  43.993  12.532
95404W        W54940  15.734  20.536  13.518
95405W        W54941  30.985  17.173   0.752
95406W        W54942   0.943  42.811  13.358
95407W        W54943  40.003  21.655  11.870
95408W        W54944  39.896   6.735  14.343
95409W        W54945  12.844  36.434   2.281
95410W        W54946  10.198   1.788  10.574
95411W        W54947   4.710  22.141   3.666
95412W        W54948  22.179  37.838   3.157
95413W        W54949  18.096  32.130  11.887
95414W        W54950  28.455   6.755  11.422
95415W        W54951  11.153  23.678   0.794
95416W        W54952  33.088  22.729  12.005
95417W        W54953   9.313  15.708  12.924
95418W        W54954  36.435  28.964  14.966
95419W        W54955  23.710  31.574  12.455
95420W        W54956  32.112  31.152  13.049
95421W        W54957  18.200  13.750   1.354
95422W        W54958  27.560  42.924   0.826
95423W        W54959  20.159  12.827  12.862
95424W        W54960   0.408  40.508  11.530
95425W        W54961  19.641  13.130  12.947
95426W        W54962  14.633  40.418   1.358
95427W        W54963   2.284  13.105   0.765
95428W        W54964  11.303  44.287  14.860
95429W        W54965  29.552  17.653   2.376
95430W        W54966  27.130  35.414  11.541
95431W        W54967  43.387  35.879  11.122
95432W        W54968  32.028  31.530  14.806
95433W        W54969  33.626  28.164   4.290
95434W        W54970   8.810  32.093   2.800
95435W        W54971   3.294  38.853  10.455
95436W        W54972  13.760  21.046  12.883
95437W        W54973   7.692  16.224  12.983
95438W        W54974  37.909  28.678  14.989
95439W        W54975  13.705  33.551  14.275
95440W        W54976   3.419  38.070  14.904
95441W        W54977  31.544   3.817  11.904
95442W        W54978   4.293   7.680  11.937
95443W        W54979  14.127   0.967   2.194
95444W        W54980  40.907   4.743   2.413
95445W        W54981  14.244   6.403   2.255
95446W        W54982  27.964  16.165  12.831
95447W        W54983  10.224  20.031  11.404
95448W        W54984  39.961   6.807   1.372
95449W        W54985  44.368  14.623  10.642
95450W        W54986  27.652  29.082   1.243
95451W        W54987   7.180   9.198   4.339
95452W        W54988  23.025  40.368   4.147
95453W        W54989  32.100  14.821  12.369
95454W        W54990  44.372  23.594  10.140
95455W        W54991   2.781   5.872   4.735
95456W        W54992  33.066   4.387  14.964
95457W        W54993  20.126  12.841   4.127
95458W        W54994  29.471  38.328  12.512
95459W        W54995  35.981  28.614  12.986
95460W        W54996   8.160  33.005   0.449
95461W        W54997  16.767  37.469   1.255
95462W        W54998  32.119  28.097  12.957
95463W        W54999  44.306  21.234   5.264
95464W        W55000  18.601  10.778  11.414
95465W        W55001  36.865  44.863  11.607
95466W        W55002   8.253  25.117   0.268
95467W        W55003  11.265  26.012   1.274
95468W        W55004   1.957  31.045   2.674
95469W        W55005  41.875  13.702   2.275
95470W        W55006  14.712  30.149  10.539
95471W        W55007  21.731  33.388  11.550
95472W        W55008  16.313  19.064   0.272
95473W        W55009  19.047   0.822   2.390
95474W        W55010   8.317  18.071   0.966
95475W        W55011  27.583  24.070  11.081
95476W        W55012  42.383  38.375  12.986
95477W        W55013  12.150  11.804   0.780
95478W        W55014  35.502  41.858   2.810
95479W        W55015  27.961   4.348   1.784
95480W        W55016   5.194  16.226  13.976
95481W        W55017  32.056  23.203   3.769
95482W        W55018  15.674  33.040  14.877
95483W        W55019   7.304  42.986   2.370
95484W        W55020  16.644  42.332  10.624
95485W        W55021  43.870  33.023  14.763
95486W        W55022  43.418  14.183  12.847
95487W        W55023  21.252  26.657  12.090
95488W        W55024   4.283  44.868   2.888
95489W        W55025  15.193  22.600   3.804
95490W        W55026  31.620  41.008   3.763
95491W        W55027   0.465  27.025  11.412
95492W        W55028  20.587  20.693   1.328
95493W        W55029  40.859  18.711   4.291
95494W        W55030  26.076   3.928   0.846
95495W        W55031  24.650  18.258  12.425
95496W        W55032  15.592  15.120   3.743
95497W        W55033  11.339  30.626  11.593
95498W        W55034  25.581  33.022  10.513
95499W        W55035   2.810  36.868  10.908
95500W        W55036  18.144  12.664   2.838
95501W        W55037   6.228  14.653   1.809
95502W        W55038  21.578  16.704   4.755
95503W        W55039  44.427  23.623  14.427
95504W        W55040   7.747  39.406   2.359
95505W        W55041  32.996   9.658  11.909
95506W        W55042  35.051  15.219   1.809
95507W        W55043   9.267  19.739   2.760
95508W        W55044  10.318  22.998   4.681
95509W        W55045  42.788  18.596   5.083
95510W        W55046  40.847  21.546   0.261
95511W        W55047   0.743   8.798   0.293
95512W        W55048  37.975   6.816   0.782
95513W        W55049  40.326  44.470  11.541
95514W        W55050  18.148  38.011  13.359
95515W        W55051  11.337  39.370  14.328
95516W        W55052   2.801  33.523   2.391
95517W        W55053  41.421  14.293   0.265
95518W        W55054  44.288  44.466  10.580
95519W        W55055  17.255  19.618  14.811
95520W        W55056   4.442  26.566   3.183
95521W        W55057   2.261  18.708   3.343
95522W        W55058  26.547  10.362  12.091
95523W        W55059  38.426  41.812  14.359
95524W        W55060  32.501  10.195  13.994
95525W        W55061   6.267  21.067  12.871
95526W        W55062   1.927  39.900  12.421
95527W        W55063  37.877  17.654   1.444
95528W        W55064  33.985  28.542  14.928
95529W        W55065  32.608  27.988   4.158
95530W        W55066  23.115  30.605  13.520
95531W        W55067   7.754  37.839  13.873
95532W        W55068  40.955  22.579   2.674
95533W        W55069  15.174   7.713  14.013
95534W        W55070  27.176  38.453   4.311
95535W        W55071   0.457   8.836   2.262
95536W        W55072  38.433  31.079  14.297
95537W        W55073  14.812  31.559   3.834
95538W        W55074  23.046  19.266   1.881
95539W        W55075  44.991  31.454  11.414
95540W        W55076  43.869  14.804   4.793
95541W        W55077  42.917  44.935  14.776
95542W        W55078   5.198   5.375  13.821
95543W        W55079   1.843  29.041   0.245
95544W        W55080  14.691  21.544   5.290
95545W        W55081  21.168  36.988   3.156
95546W        W55082  25.692  25.139   0.835
95547W        W55083  42.514  31.526   4.198
95548W        W55084  12.622  10.687   0.760
95549W        W55085   5.264  14.335  13.815
95550W        W55086  41.859  28.980   3.728
95551W        W55087  18.733  25.618   4.599
95552W        W55088   4.884  27.180   3.373
95553W        W55089  44.437  35.978   1.370
95554W        W55090  43.779  23.201   1.400
95555W        W55091   4.800  43.914  13.373
95556W        W55092  34.394  17.258  12.375
95557W        W55093  16.262  42.915  13.966
95558W        W55094  15.284  25.043  14.452
95559W        W55095  24.005  43.476  12.063
95560W        W55096  43.923  14.108   2.183
95561W        W55097  32.543  22.206  12.533
95562W        W55098  32.991   5.714   3.339
95563W        W55099  28.952  12.780   3.802
95564W        W55100  29.114  43.502   3.680
95565W        W55101  23.087  12.632   2.708
95566W        W55102  19.040  28.952  11.456
95567W        W55103  40.508  27.145   2.269
95568W        W55104  33.913  43.473  13.411
95569W        W55105  20.570  12.648   1.398
95570W        W55106  38.842  21.523   1.725
95571W        W55107  29.514   3.288   9.963
95572W        W55108  42.350  16.703   1.279
95573W        W55109  30.018  15.218   2.663
95574W        W55110  39.369   8.266  11.070
95575W        W55111  31.523  31.016  12.964
95576W        W55112  15.727  31.489   1.812
95577W        W55113  25.171  39.549   9.485
95578W        W55114   4.742   6.345  14.937
95579W        W55115  12.824  20.228   0.803
95580W        W55116  34.513  18.575   4.670
95581W        W55117  35.992  19.101  12.083
95582W        W55118  34.588  27.690  14.975
95583W        W55119  41.859  11.348   4.684
95584W        W55120  41.299  21.653   2.285
95585W        W55121  11.270  35.413   2.196
95586W        W55122  44.401  28.099  10.894
95587W        W55123  26.994  13.344  14.351
95588W        W55124   5.270  12.144  10.896
95589W        W55125  28.641  15.287   3.366
95590W        W55126  21.146   8.684   4.704
95591W        W55127  39.989   4.919  10.605
95592W        W55128  41.001  13.142   3.864
95593W        W55129  41.335   2.269   2.862
95594W        W55130  12.180   6.917   1.356
95595W        W55131  26.463  43.004  14.351
95596W        W55132  27.490  26.580   4.722
95597W        W55133  24.644  15.692  13.950
95598W        W55134  37.897  12.792  12.836
95599W        W55135  32.918  20.719   0.448
95600W        W55136  25.494  25.714  11.879
95601W        W55137   4.897  34.590  11.983
95602W        W55138   1.867   8.842   4.149
95603W        W55139   5.302   9.700  13.431
95604W        W55140  30.152  19.250  11.059
95605W        W55141  31.117   6.221  11.568
95606W        W55142  14.322  28.539  14.029
95607W        W55143  42.318  33.996  14.932
95608W        W55144  34.046   5.731   1.350
95609W        W55145  27.513  25.518  14.502
95610W        W55146  34.597   9.889   0.965
95611W        W55147   4.380  41.992  14.389
95612W        W55148  36.874  23.181  13.930
95613W        W55149  27.105  34.007   3.282
95614W        W55150  29.009  29.170   4.713
95615W        W55151  23.506  12.810   0.358
95616W        W55152   4.271  32.895   0.456
95617W        W55153   3.246  20.267   0.416
95618W        W55154   4.371  14.728   4.318
95619W        W55155  16.097   6.423  10.549
95620W        W55156  27.995   6.882   2.394
95621W        W55157   8.770   4.778  13.034
95622W        W55158  40.488  37.355  12.473
95623W        W55159  16.684   7.210  13.512
95624W        W55160  30.655  43.904  11.949
95625W        W55161  41.519  14.723   3.755
95626W        W55162  25.499   0.887  13.864
95627W        W55163  24.537  23.509  14.009
95628W        W55164  15.140   0.429  13.014
95629W        W55165  27.506  12.318  12.551
95630W        W55166  16.798  36.481  14.382
95631W        W55167   6.737  38.462  12.445
95632W        W55168  10.307  21.199   2.712
95633W        W55169  10.639  28.102   0.775
95634W        W55170   0.763   9.207   1.236
95635W        W55171  42.306  42.411  14.391
95636W        W55172  35.385  32.966  11.589
95637W        W55173  27.957  44.850   0.286
95638W        W55174   1.885   2.320   4.296
95639W        W55175   7.232  39.812   2.261
95640W        W55176  22.504  43.345  11.934
95641W        W55177  27.509  25.559   4.246
95642W        W55178  32.515  27.945   1.863
95643W        W55179   7.180  20.610  12.881
95644W        W55180  33.955  14.219  11.117
95645W        W55181  38.922   7.172  13.405
95646W        W55182  30.499   4.351  14.886
95647W        W55183  35.443  40.387  12.881
95648W        W55184   6.243  28.019  12.914
95649W        W55185  33.420  19.284   3.165
95650W        W55186  10.220   0.334  11.922
95651W        W55187  23.018   0.983  14.988
95652W        W55188  17.750  28.591  10.429
95653W        W55189  18.237  14.800  11.398
95654W        W55190   9.837  12.717  14.502
95655W        W55191   1.895  36.844   0.913
95656W        W55192   8.680  40.832  11.417
95657W        W55193  44.353  43.786  12.994
95658W        W55194  11.208  18.690   4.213
95659W        W55195   3.265  10.771   3.729
95660W        W55196   8.272  11.831   2.387
95661W        W55197  42.806  42.814  13.825
95662W        W55198  25.550  35.868  13.361
95663W        W55199  23.596  21.193   1.725
95664W        W55200  32.121   9.799  14.277
95665W        W55201  39.549   5.334  12.044
95666W        W55202  13.152  34.546  13.044
95667W        W55203  37.015  39.466   0.754
95668W        W55204  11.365  27.580   2.365
95669W        W55205   8.291  30.107  13.353
95670W        W55206  36.463  28.081  14.919
95671W        W55207  25.528  18.289   2.392
95672W        W55208  29.426  30.046   3.349
95673W        W55209  13.258  11.817   3.196
95674W        W55210  40.326  25.511   0.893
95675W        W55211  11.664  21.709   1.286
95676W        W55212  34.020  35.449  13.484
95677W        W55213  34.504  34.439  10.482
95678W        W55214  39.876  30.979   0.780
95679W        W55215  30.086  21.708  14.005
95680W        W55216   7.796  11.824   0.915
95681W        W55217  34.545  29.651   1.782
95682W        W55218  36.906   2.232  12.529
95683W        W55219  28.002  21.636   1.749
95684W        W55220  30.010  31.963   3.253
95685W        W55221  21.642  36.904  13.462
95686W        W55222  27.963  18.085  11.572
95687W        W55223  27.634   5.894  13.498
95688W        W55224   9.265   3.713   2.319
95689W        W55225  28.492  17.127  13.436
95690W        W55226  33.405  26.556   2.739
95691W        W55227  29.114  27.609   3.764
95692W        W55228   7.199   0.806   0.966
95693W        W55229  30.921  17.614   3.315
95694W        W55230  44.966  13.347   2.316
95695W        W55231  30.047  15.316   4.663
95696W        W55232   1.356  43.816  12.578
95697W        W55233  22.101   7.400   2.830
95698W        W55234  13.656  29.135  12.359
95699W        W55235  41.000  14.738   4.760
95700W        W55236   2.726   0.398   3.261
95701W        W55237   1.806  40.370  12.826
95702W        W55238  37.026  35.399   4.652
95703W        W55239  15.291  42.462  10.612
95704W        W55240  34.430  36.400   3.808
95705W        W55241  10.365  40.326   2.344
95706W        W55242  40.036  13.134   1.866
95707W        W55243  17.198   1.320  12.401
95708W        W55244  15.220   3.425  12.561
95709W        W55245  35.427  37.910  12.066
95710W        W55246  26.481  12.212   1.730
95711W        W55247  16.309   5.769  14.286
95712W        W55248  30.493  38.925   4.241
95713W        W55249  17.187  25.594   2.204
95714W        W55250  34.371   0.742   3.355
95715W        W55251  26.092  37.842  11.040
95716W        W55252   2.231  43.395  10.888
95717W        W55253  16.645  41.310   4.707
95718W        W55254   0.842  26.992   2.687
95719W        W55255  19.747  19.759  12.027
95720W        W55256  37.879  12.352  11.957
95721W        W55257  29.172   0.434  10.479
95722W        W55258  43.822   9.291  11.578
95723W        W55259  44.439  38.498   4.138
95724W        W55260  43.851   5.844  10.424
95725W        W55261   8.254  15.794   1.442
95726W        W55262   6.763  44.318   4.206
95727W        W55263   3.330  19.175   2.380
95728W        W55264  21.059  39.344  14.465
95729W        W55265  12.649  29.061   4.168
95730W        W55266  29.102   4.383  11.117
95731W        W55267  39.905  41.988   4.209
95732W        W55268   7.761  15.228   3.853
95733W        W55269  25.524  33.560  14.365
95734W        W55270  41.523  23.610   2.671
95735W        W55271  34.612  11.323  11.086
95736W        W55272  25.969   0.857  14.030
95737W        W55273  10.355  12.280  11.488
95738W        W55274  13.190  20.079  11.514
95739W        W55275  35.927   4.873  12.982
95740W        W55276  24.626   1.370  12.857
95741W        W55277  26.459   8.303  12.003
95742W        W55278  18.090  42.301   3.346
95743W        W55279  31.569   8.663   1.881
95744W        W55280  19.727  27.672  14.512
95745W        W55281  40.433   9.217   2.396
95746W        W55282   7.330   9.180   3.296
95747W        W55283  27.069  27.683   3.792
95748W        W55284  41.463  28.574  11.869
95749W        W55285  19.765  21.539  14.407
95750W        W55286  21.641  10.244  10.909
95751W        W55287  34.477  22.607   2.245
95752W        W55288  37.886  14.626   4.825
95753W        W55289  26.580   4.728   2.686
95754W        W55290   4.924  32.954  12.348
95755W        W55291   9.688  33.596   4.717
95756W        W55292   5.412  24.706  14.995
95757W        W55293  30.479  21.061   3.165
95758W        W55294  18.746  43.989  10.927
95759W        W55295  19.235  21.663   2.209
95760W        W55296  29.089  18.762   0.366
95761W        W55297  27.996  13.612   5.293
95762W        W55298   7.779  30.068  14.391
95763W        W55299  26.608  39.995  12.985
95764W        W55300  44.433  29.452  14.814
95765W        W55301  15.652   5.900   2.723
95766W        W55302   7.720  28.627   0.900
95767W        W55303  40.353  44.330   3.760
95768W        W55304   6.908  41.485   2.243
95769W        W55305   7.412  40.381  13.986
95770W        W55306  43.014   2.237   2.807
95771W        W55307  28.074   5.231   1.360
95772W        W55308  18.096  30.973   1.278
95773W        W55309  17.247  25.967  13.363
95774W        W55310  30.018  22.650   3.804
95775W        W55311  19.273   7.386  10.609
95776W        W55312  40.410  44.937   2.684
95777W        W55313  20.175  21.709  10.927
95778W        W55314  26.015  37.504   3.325
95779W        W55315  28.650  26.143   0.933
95780W        W55316  14.318  29.654   3.672
95781W        W55317  34.942  26.459  13.820
95782W        W55318  32.565  38.394   3.783
95783W        W55319  43.908   5.394   0.260
95784W        W55320  44.772  18.280   0.909
95785W        W55321  23.076  35.110   4.303
95786W        W55322  28.182  18.717  11.981
95787W        W55323  15.795   8.776  13.328
95788W        W55324  32.920  35.503  13.310
95789W        W55325  12.627  36.932   0.313
95790W        W55326  31.919  24.226   2.381
95791W        W55327   2.775  42.923   1.796
95792W        W55328  27.977   5.925  11.079
95793W        W55329  19.051  34.964  14.341
95794W        W55330  19.612   1.823   4.208
95795W        W55331   7.365  39.939   1.268
95796W        W55332  17.136   2.342   4.738
95797W        W55333  35.531   6.916  14.785
95798W        W55334  12.753  29.949  14.279
95799W        W55335  10.682   6.388   1.262
95800W        W55336  42.775  34.973   0.831
95801W        W55337  33.567  40.351  10.979
95802W        W55338   2.419  10.362   1.736
95803W        W55339  19.240  33.454  11.060
95804W        W55340  43.324  10.324  10.586
95805W        W55341  43.473  29.937  14.462
95806W        W55342  18.645  44.326   0.818
95807W        W55343   3.384  17.090   2.871
95808W        W55344  42.398  43.910   0.771
95809W        W55345  25.019  13.251  11.384
95810W        W55346  40.510  35.567  14.789
95811W        W55347  16.792  30.096  11.480
95812W        W55348  22.553   7.738  14.760
95813W        W55349   3.334  29.044  13.845
95814W        W55350  19.645  24.099   0.953
95815W        W55351  13.704  43.470   3.189
95816W        W55352   0.289   4.391   1.350
95817W        W55353  13.121  26.528  13.997
95818W        W55354   5.317  41.485   3.701
95819W        W55355  35.554   0.338  11.939
95820W        W55356   3.744  18.208   4.317
95821W        W55357  33.085  29.498   2.410
95822W        W55358  32.544  31.926   2.191
95823W        W55359  10.835   3.930  11.427
95824W        W55360  35.578  28.446   4.295
95825W        W55361   2.367  24.182   5.169
95826W        W55362  31.943  30.434  13.511
95827W        W55363  18.238  29.559  13.822
95828W        W55364   0.453  39.020  11.026
95829W        W55365   7.885   1.880  10.507
95830W        W55366  39.033  36.499   2.671
95831W        W55367  38.938  25.114   3.358
95832W        W55368  10.838  13.261  14.324
95833W        W55369   0.322   1.817  14.024
95834W        W55370  34.550  17.759   3.782
95835W        W55371   6.766  23.670  12.372
95836W        W55372   4.728  35.358   0.392
95837W        W55373  31.965  27.128   2.749
95838W        W55374  37.055  27.041   0.766
95839W        W55375   6.301   6.224   5.137
95840W        W55376  39.557  15.769  13.902
95841W        W55377  36.078  31.624  13.411
95842W        W55378  20.573  43.400   3.633
95843W        W55379   1.923  36.412   1.318
95844W        W55380  27.984  17.595   0.927
95845W        W55381  29.086   3.812  12.343
95846W        W55382  42.802   1.919  10.963
95847W        W55383  16.655  41.919   4.160
95848W        W55384   0.423  40.365   0.440
95849W        W55385  28.087  16.109  13.854
95850W        W55386   8.204  10.182  10.488
95851W        W55387  43.817  27.024  12.478
95852W        W55388  20.614  16.108   4.826
95853W        W55389  20.172   2.226   4.674
95854W        W55390   1.401   6.260   1.273
95855W        W55391  11.764  41.868  12.467
95856W        W55392  27.167  25.520  11.007
95857W        W55393  39.973  20.756   4.679
95858W        W55394  32.426  39.013   0.322
95859W        W55395   0.400  38.913  14.822
95860W        W55396  26.520  26.026  10.909
95861W        W55397   9.714  29.928  11.000
95862W        W55398   5.760  44.941  12.888
95863W        W55399  12.146   1.316  14.355
95864W        W55400  27.994  33.115   2.746
95865W        W55401  31.029  34.599   3.222
95866W        W55402  30.658  41.796  13.962
95867W        W55403  37.951  36.050  13.457
95868W        W55404  22.635  35.530   0.871
95869W        W55405  37.985  33.408  13.543
95870W        W55406  31.955  44.455   0.467
95871W        W55407   7.370  23.172   0.442
95872W        W55408  12.839  12.728  13.869
95873W        W55409  11.211  31.949  10.570
95874W        W55410  42.347   0.468   0.894
95875W        W55411  25.694  24.992  11.423
95876W        W55412  11.139  31.481  13.367
95877W        W55413  23.136   3.720  12.402
95878W        W55414   4.751  25.219  12.519
95879W        W55415  31.489   2.407   1.878
95880W        W55416  27.455  37.428   3.788
95881W        W55417  22.092  11.253  11.867
95882W        W55418  35.522  23.128   1.257
95883W        W55419  10.312  20.243   1.312
95884W        W55420  20.543  44.938  12.340
95885W        W55421  35.576  40.406   3.642
95886W        W55422  22.082  43.840   4.618
95887W        W55423  22.155  31.052   4.265
95888W        W55424  17.699  30.140  10.482
95889W        W55425  18.717  44.805  11.089
95890W        W55426  37.519  43.331  14.975
95891W        W55427  16.598  24.518  14.431
95892W        W55428  39.024  14.218   0.448
95893W        W55429  29.990  23.614   2.261
95894W        W55430  30.554  15.662   5.085
95895W        W55431  28.056  32.636  11.576
95896W        W55432   7.198  25.697  11.411
95897W        W55433   1.738   2.852   1.434
95898W        W55434   9.357  18.579  11.073
95899W        W55435  35.867  41.995   1.781
95900W        W55436  43.013   9.805  12.530
95901W        W55437  34.415  16.130  14.480
95902W        W55438  26.603  24.541  11.497
95903W        W55439  14.271  42.400   1.812
95904W        W55440  41.815  39.035  12.095
95905W        W55441  29.086  28.929  11.543
95906W        W55442  40.364  30.022  11.993
95907W        W55443  38.957  10.748   1.833
95908W        W55444  13.732   6.868   5.624
95909W        W55445  35.094  17.284  13.426
95910W        W55446   7.758  33.512   9.992
95911W        W55447  10.676  31.994  10.055
95912W        W55448  17.259  26.650  14.312
95913W        W55449   1.781  20.630  14.957
95914W        W55450  41.341  15.300   5.154
95915W        W55451   3.950  15.750   2.671
95916W        W55452  36.898  40.882   1.766
95917W        W55453  32.906  24.024  14.013
95918W        W55454  16.083  31.079   3.827
95919W        W55455  41.303  34.104  13.331
95920W        W55456   0.798   3.313  10.150
95921W        W55457  35.592  36.940  13.427
95922W        W55458  31.923  16.238  13.347
95923W        W55459  44.757  30.590   3.376
95924W        W55460  15.212   1.261  11.507
95925W        W55461  35.035  26.990   1.449
95926W        W55462  37.055  36.402  13.315
95927W        W55463  31.455  43.021  14.354
95928W        W55464  12.651  19.271   4.768
95929W        W55465  25.061  25.544   0.761
95930W        W55466  41.002  29.165  14.971
95931W        W55467  39.040  37.479  11.907
95932W        W55468  44.906  39.319  12.562
95933W        W55469  24.155  43.446   2.680
95934W        W55470  10.220  15.812  13.315
95935W        W55471  37.016   5.409   1.712
95936W        W55472  27.489  16.134   5.304
95937W        W55473  14.812  17.092  14.364
95938W        W55474  43.373  28.978   4.339
95939W        W55475  43.951   9.209   3.734
95940W        W55476  18.592  16.764   0.248
95941W        W55477  43.352  30.602  10.463
95942W        W55478   0.264  43.773   2.196
95943W        W55479  33.959  31.551  14.506
95944W        W55480  40.844   1.417  12.045
95945W        W55481  15.155   6.239  10.919
95946W        W55482  34.963  42.922  10.957
95947W        W55483  29.069  25.113   0.314
95948W        W55484  38.020  31.459  12.913
95949W        W55485   3.262  19.192  13.984
95950W        W55486  37.994  29.549   4.164
95951W        W55487   0.353  43.512   4.312
95952W        W55488  16.656  21.589  12.571
95953W        W55489   7.835  34.379  12.831
95954W        W55490  21.246  15.172  10.500
95955W        W55491  37.506  14.770   5.091
95956W        W55492  15.585  16.213  11.988
95957W        W55493  13.175  28.028  11.076
95958W        W55494  23.662  35.543  13.986
95959W        W55495  20.144   0.404  10.621
95960W        W55496  36.581  43.371   5.283
95961W        W55497  18.578  13.719  11.603
95962W        W55498   2.857  27.066  14.500
95963W        W55499  42.286   6.781  13.455
95964W        W55500   9.229  28.669   0.389
95965W        W55501  13.203  12.777   0.421
95966W        W55502  33.950  42.385   4.597
95967W        W55503  43.766  34.020  11.020
95968W        W55504  30.639  18.089   4.248
95969W        W55505  32.478  17.112  12.836
95970W        W55506  18.241   7.303  14.322
95971W        W55507   6.740   8.896  11.882
95972W        W55508  20.627   5.895  10.113
95973W        W55509  42.970  14.169  14.286
95974W        W55510  10.646  11.817  14.822
95975W        W55511  42.483  20.713  13.499
95976W        W55512  39.393  18.701  11.092
95977W        W55513   2.399  32.608   1.360
95978W        W55514  15.709  23.232  11.104
95979W        W55515  40.313  36.076   4.157
95980W        W55516  18.236   8.176   0.450
95981W        W55517  17.304  36.952   4.325
95982W        W55518  42.997  42.399   1.776
95983W        W55519  32.011  12.277   1.269
95984W        W55520  37.499  22.697  10.516
95985W        W55521  34.488  35.990  12.048
95986W        W55522  14.253  42.821  14.794
95987W        W55523   3.718   7.884   2.218
95988W        W55524  12.323  37.367   3.676
95989W        W55525  43.011   6.380   0.464
95990W        W55526   3.809  18.099  11.492
95991W        W55527  10.159  24.977   0.400
95992W        W55528   6.238  11.351   3.157
95993W        W55529  32.990   5.281   4.718
95994W        W55530   0.748  42.469  12.374
95995W        W55531  19.091   2.321   2.824
95996W        W55532   7.830  34.403   2.390
95997W        W55533   1.834  39.980  13.893
95998W        W55534  33.926  39.416   0.815
95999W        W55535   8.244  35.966  14.767
96000W        W55536  34.521   4.847   1.380
96001W        W55537  13.137  18.072   4.176
96002W        W55538  26.530   9.772   4.335
96003W        W55539  25.120  13.653  12.912
96004W        W55540   5.771  38.541  13.399
96005W        W55541  12.658   6.319  13.995
96006W        W55542  23.658  37.086  11.522
96007W        W55543   7.192   6.328   2.667
96008W        W55544  42.351  28.678  13.025
96009W        W55545  34.908  39.990  12.566
96010W        W55546  34.012  38.411  12.417
96011W        W55547  16.716  39.956  14.311
96012W        W55548  23.189  32.004   2.271
96013W        W55549   3.381  19.764  10.560
96014W        W55550  12.629   6.734   3.331
96015W        W55551  44.285  25.563  11.986
96016W        W55552  15.692  30.456   0.823
96017W        W55553   0.807  34.458  13.516
96018W        W55554  37.452  41.004  13.883
96019W        W55555  34.589  15.768  14.405
96020W        W55556   5.435   9.365   4.175
96021W        W55557  44.990  21.522  12.371
96022W        W55558   0.451   2.789   4.143
96023W        W55559  38.453  28.185   3.786
96024W        W55560  39.888  37.576   1.404
96025W        W55561  42.015  25.037   0.378
96026W        W55562  13.646  22.632  10.558
96027W        W55563  20.639  11.793  14.827
96028W        W55564  18.632  23.648  12.993
96029W        W55565  32.969  26.173  10.955
96030W        W55566   7.353  34.969   4.123
96031W        W55567  19.048  30.018  14.813
96032W        W55568   6.896   3.285   1.858
96033W        W55569   8.662  10.760   3.225
96034W        W55570  28.931  26.205   2.846
96035W        W55571  13.182  15.680   5.213
96036W        W55572  42.857  15.698   2.261
96037W        W55573   2.260  18.130  10.583
96038W        W55574  39.481   7.183  13.015
96039W        W55575   5.398  30.944  11.601
96040W        W55576  33.035  35.564  14.299
96041W        W55577  24.511   0.880   4.226
96042W        W55578  10.383   8.371   0.316
96043W        W55579  23.217  27.599  13.439
96044W        W55580  28.498  38.935  12.482
96045W        W55581  21.152   1.273   1.287
96046W        W55582   7.730   6.729  13.901
96047W        W55583  17.201  20.737   1.272
96048W        W55584  36.991   6.244  13.421
96049W        W55585  26.658  28.615  11.901
96050W        W55586   5.396  19.202  12.566
96051W        W55587  24.628  40.973   0.798
96052W        W55588  23.585  36.940   5.166
96053W        W55589  20.167   0.358   0.471
96054W        W55590  28.479  19.132   5.093
96055W        W55591   9.376  13.294  10.620
96056W        W55592  18.058  37.961   1.269
96057W        W55593  37.921  24.101  13.450
96058W        W55594   6.741  24.708  11.482
96059W        W55595  31.984  36.902   2.886
96060W        W55596  12.144  28.504  11.002
96061W        W55597  19.741  24.071   4.157
96062W        W55598  14.720   6.841  14.455
96063W        W55599  15.610  40.415  13.449
96064W        W55600  39.816   8.658  10.155
96065W        W55601  31.147  21.692   0.772
96066W        W55602  32.025   3.406   3.249
96067W        W55603  29.926   3.816   1.441
96068W        W55604  44.484  40.008   3.198
96069W        W55605  22.022  11.819  11.588
96070W        W55606  10.727  33.083   2.729
96071W        W55607   6.795  23.180  12.993
96072W        W55608   9.772  27.482  12.386
96073W        W55609  22.527  29.508  10.970
96074W        W55610  10.862  16.252   0.731
96075W        W55611   3.408  25.529  13.489
96076W        W55612  44.499  15.642   0.939
96077W        W55613  25.044  27.467   2.830
96078W        W55614  15.631  41.400  14.974
96079W        W55615   9.299  36.461   4.303
96080W        W55616  19.606  21.740  13.927
96081W        W55617  29.656   7.689   2.316
96082W        W55618  30.000  21.238   1.901
96083W        W55619  25.101  42.819  11.999
96084W        W55620  26.177   5.364  13.358
96085W        W55621  24.535  14.183  14.765
96086W        W55622  30.945  11.326   4.798
96087W        W55623  30.967   6.414  13.033
96088W        W55624  35.054  21.095   0.296
96089W        W55625  27.447  29.092   0.376
96090W        W55626  21.755  25.502  11.023
96091W        W55627   0.284  29.666  14.469
96092W        W55628  26.170  13.843   0.903
96093W        W55629  23.511   5.708   3.375
96094W        W55630   3.809  37.470  12.521
96095W        W55631  34.573  21.134  13.356
96096W        W55632  40.937  10.144  14.923
96097W        W55633  39.846  38.493   3.869
96098W        W55634  34.864  44.993   3.704
96099W        W55635  18.073  30.501   0.816
96100W        W55636  18.581   8.845  13.377
96101W        W55637  20.050  26.955  12.419
96102W        W55638  12.257  28.525   2.869
96103W        W55639  36.446  10.332   4.651
96104W        W55640  30.070  14.316   1.332
96105W        W55641  16.232   3.920  13.927
96106W        W55642  27.665  15.579  12.861
96107W        W55643   3.751  32.419   3.243
96108W        W55644   2.404  33.540   4.710
96109W        W55645  19.175  13.201   4.789
96110W        W55646   0.965   7.355  14.833
96111W        W55647  29.491   4.304   2.754
96112W        W55648  40.958   2.942   4.125
96113W        W55649  24.694  12.224  10.407
96114W        W55650   1.349  10.670   1.824
96115W        W55651  16.227  44.875   1.443
96116W        W55652  27.577  11.757  13.903
96117W        W55653  15.324   1.927   0.453
96118W        W55654   8.869  14.205  10.963
96119W        W55655  41.971  42.803  13.349
96120W        W55656  29.068   6.694   4.771
96121W        W55657  13.239  38.025   0.765
96122W        W55658   9.757  20.612   0.319
96123W        W55659  29.171   1.285  13.386
96124W        W55660  13.675  38.379  12.968
96125W        W55661  39.547  40.035   4.751
96126W        W55662  19.216   7.766   4.810
96127W        W55663  22.198  25.020   4.141
96128W        W55664  25.121  14.131  14.867
96129W        W55665  15.284  34.087   3.202
96130W        W55666  15.771  32.452  11.483
96131W        W55667  29.028  30.063  11.918
96132W        W55668  15.252  14.795   1.335
96133W        W55669  19.239  25.047   4.717
96134W        W55670  14.776  43.386  14.422
96135W        W55671  25.155  28.586   1.857
96136W        W55672   5.904  27.654  11.083
96137W        W55673  33.446  39.465   2.287
96138W        W55674  12.116  19.272  10.955
96139W        W55675  10.841   2.870  13.036
96140W        W55676   1.744  35.073  14.337
96141W        W55677  26.953  25.123  12.067
96142W        W55678  35.480  29.553   4.157
96143W        W55679  32.554   7.679   2.273
96144W        W55680  40.314  15.694  11.026
96145W        W55681   2.257   0.850   1.280
96146W        W55682  14.144  16.626   4.719
96147W        W55683  42.458  25.524   0.820
96148W        W55684  23.240  28.145   2.857
96149W        W55685  13.634   8.335   2.769
96150W        W55686  23.502  43.961   2.775
96151W        W55687  32.418   9.690   1.347
96152W        W55688  35.398  44.901   4.215
96153W        W55689  11.317  42.525   4.667
96154W        W55690  31.490  44.970   1.725
96155W        W55691  17.277  44.395  12.058
96156W        W55692  38.935  39.345  11.522
96157W        W55693  39.360  12.682  12.903
96158W        W55694  15.725  27.961  14.460
96159W        W55695  10.198  30.570   2.834
96160W        W55696  43.433  27.505  13.863
96161W        W55697  13.758   3.838   2.194
96162W        W55698   3.734  15.266   4.723
96163W        W55699  29.925  11.271  11.893
96164W        W55700  12.850   3.906  13.367
96165W        W55701  13.736  32.517   0.910
96166W        W55702  23.044  40.522  13.796
96167W        W55703   1.325  44.260   4.732
96168W        W55704  44.863  30.045  12.579
96169W        W55705  36.995  23.641  13.406
96170W        W55706  30.611  21.685  13.473
96171W        W55707  15.104  34.909   1.379
96172W        W55708   3.457  12.749   9.992
96173W        W55709  25.651  41.506  10.589
96174W        W55710   6.711  38.447   1.820
96175W        W55711  12.338  13.288  12.915
96176W        W55712  33.508  12.798  13.896
96177W        W55713   7.785  32.418   4.683
96178W        W55714  43.991  42.806   0.758
96179W        W55715  30.066  18.119   4.770
96180W        W55716  38.483  24.648   2.745
96181W        W55717  43.511  41.916   0.802
96182W        W55718  43.476  32.394   3.664
96183W        W55719  32.434  28.999   4.693
96184W        W55720  23.097  30.046  10.642
96185W        W55721  43.460   9.718  12.940
96186W        W55722  22.139  37.072  14.833
96187W        W55723   2.348  35.531   4.265
96188W        W55724  26.460  10.668   1.788
96189W        W55725  32.592  34.101   3.181
96190W        W55726  43.465  32.099   1.715
96191W        W55727  38.374  18.085   2.194
96192W        W55728   1.422  36.523  12.580
96193W        W55729  28.156   6.922   4.761
96194W        W55730   4.266  11.756  13.892
96195W        W55731  39.451  37.451  10.418
96196W        W55732  17.619  36.903   4.202
96197W        W55733   5.847  36.478   3.865
96198W        W55734   0.753  29.554   4.680
96199W        W55735  31.644   3.824  14.860
96200W        W55736  28.998  10.153  10.910
96201W        W55737  22.694  31.074   1.834
96202W        W55738  42.410  16.170  12.872
96203W        W55739  22.572  37.945  11.120
96204W        W55740  28.615  12.333   2.369
96205W        W55741  43.861   3.951  11.928
96206W        W55742  18.177   6.847   2.742
96207W        W55743   7.783  26.180  14.383
96208W        W55744   1.293  29.919   5.614
96209W        W55745  11.174   8.888   4.725
96210W        W55746   1.847   3.355  10.471
96211W        W55747  28.439  43.991  11.554
96212W        W55748  42.932   4.831  14.485
96213W        W55749  13.616   6.736   2.230
96214W        W55750  44.338  21.582  13.426
96215W        W55751   0.376  27.557   2.793
96216W        W55752  14.681  25.218   2.263
96217W        W55753  23.153  24.722  14.005
96218W        W55754  25.138  41.447  10.411
96219W        W55755  11.629  38.023   2.874
96220W        W55756   6.273   0.840  14.331
96221W        W55757  39.827  30.155  12.561
96222W        W55758   5.892  13.212  11.019
96223W        W55759  25.210  34.014  11.118
96224W        W55760  22.694  43.825  13.029
96225W        W55761   0.759   1.889   2.255
96226W        W55762  32.443  26.686   2.888
96227W        W55763  29.662   3.438   2.675
96228W        W55764  16.741   8.844   1.792
96229W        W55765  30.099  35.604   0.334
96230W        W55766  22.195  16.573   3.263
96231W        W55767  39.907  38.946   3.178
96232W        W55768  40.534  15.752   1.347
96233W        W55769  16.600  23.502   1.417
96234W        W55770  37.386  18.095  11.958
96235W        W55771   9.715  42.019  11.439
96236W        W55772  14.309   2.928   3.817
96237W        W55773  22.626   2.331  12.001
96238W        W55774  25.560  20.215  11.915
96239W        W55775   5.859   2.733   4.285
96240W        W55776  44.259  18.769   3.380
96241W        W55777  31.535   6.358  13.358
96242W        W55778  13.198  35.030   2.377
96243W        W55779  30.521  39.357   1.263
96244W        W55780   0.274  21.017  12.365
96245W        W55781   2.399  43.963   2.831
96246W        W55782  40.891  11.859  12.091
96247W        W55783  38.911   0.826   4.208
96248W        W55784  14.824  10.724  10.517
96249W        W55785  25.144  12.230  11.046
96250W        W55786  17.573  27.031   0.251
96251W        W55787  37.385  34.609   1.334
96252W        W55788  14.813  33.969  14.021
96253W        W55789  16.277  21.052  12.978
96254W        W55790   8.725  32.027   3.639
96255W        W55791  43.509  32.454   4.600
96256W        W55792  14.780  15.690  14.767
96257W        W55793   9.799  38.939   0.896
96258W        W55794   1.968  34.098   2.383
96259W        W55795  32.921   7.850   2.799
96260W        W55796  15.651   1.952   3.790
96261W        W55797  19.041  43.511  10.975
96262W        W55798  11.208   3.244   3.673
96263W        W55799  36.933  20.224  11.115
96264W        W55800  16.271  20.562  13.948
96265W        W55801  19.085   1.923  13.464
96266W        W55802  42.902   0.333   1.290
96267W        W55803  44.286  36.575  13.827
96268W        W55804   5.908  24.688  12.499
96269W        W55805  37.934  30.029   0.779
96270W        W55806  18.228  11.624  11.052
96271W        W55807  12.217  37.079   0.307
96272W        W55808   6.890  20.158  11.914
96273W        W55809   2.226   1.909   4.171
96274W        W55810  30.993  22.678   1.876
96275W        W55811  32.591  33.551  14.467
96276W        W55812  40.900   9.783  12.391
96277W        W55813  38.870  15.262  10.160
96278W        W55814  44.879   9.807  14.956
96279W        W55815  38.031  38.837  13.837
96280W        W55816  38.489  43.021  14.834
96281W        W55817  40.810  22.645  11.974
96282W        W55818  35.105  10.715   3.360
96283W        W55819  31.554  44.397  13.844
96284W        W55820  40.954   0.452   3.329
96285W        W55821   0.941  36.952   4.140
96286W        W55822   3.900  31.612  13.341
96287W        W55823   5.887  23.707   0.844
96288W        W55824   5.370   6.785  12.939
96289W        W55825  13.667  17.777   0.743
96290W        W55826  38.931  13.329   1.790
96291W        W55827  34.516   7.700   3.841
96292W        W55828  30.907   6.328   1.446
96293W        W55829  31.591  42.888   4.326
96294W        W55830  37.380  21.152  14.475
96295W        W55831   6.359   0.906   2.403
96296W        W55832  30.941  22.210   4.197
96297W        W55833  17.735  17.282   3.199
96298W        W55834  23.080  23.105  12.441
96299W        W55835   8.181  22.700   4.153
96300W        W55836  32.965  24.045  10.921
96301W        W55837  14.101   0.911   1.235
96302W        W55838  17.582  14.735   3.726
96303W        W55839  21.652  39.440  11.933
96304W        W55840   8.309  27.589  13.489
96305W        W55841  31.913  16.753  14.499
96306W        W55842  33.023   9.758   4.698
96307W        W55843   5.718  31.473  10.507
96308W        W55844  21.744  16.652  12.951
96309W        W55845  31.574  27.157  11.092
96310W        W55846   1.786  16.177   0.321
96311W        W55847  19.654  42.998  12.985
96312W        W55848  28.559  37.495  13.898
96313W        W55849  38.410  29.462   3.196
96314W        W55850  24.054  27.653  11.994
96315W        W55851  43.369  15.186   0.380
96316W        W55852  21.724  27.485  13.343
96317W        W55853   6.707  27.507   3.377
96318W        W55854  44.404  34.890  14.380
96319W        W55855  40.022   1.387  12.967
96320W        W55856   6.680  17.158   2.841
96321W        W55857  15.809  44.335   4.756
96322W        W55858   0.932  41.524  14.475
96323W        W55859   5.837  26.510  12.523
96324W        W55860  36.404  38.525   4.217
96325W        W55861  28.539   3.355   1.397
96326W        W55862  35.401  21.175   2.224
96327W        W55863  20.538  10.192  10.419
96328W        W55864  36.967  24.062   1.257
96329W        W55865  28.071  34.041  11.101
96330W        W55866  41.890  27.105   0.945
96331W        W55867  31.044   8.376   4.204
96332W        W55868  33.913   3.440  13.419
96333W        W55869  28.626  15.256  13.961
96334W        W55870  28.598  14.196   4.340
96335W        W55871  22.102  28.681  13.904
96336W        W55872   6.707  10.655  12.461
96337W        W55873   7.355   2.787   2.209
96338W        W55874   0.263  23.697   0.312
96339W        W55875   3.908  16.308   2.742
96340W        W55876  24.119  15.151   1.815
96341W        W55877  27.644  43.428  14.331
96342W        W55878  29.479  23.131   1.746
96343W        W55879  31.070  14.266   1.908
96344W        W55880  28.937  32.100   4.128
96345W        W55881  37.498  35.049   5.196
96346W        W55882   1.257  28.578   0.481
96347W        W55883  43.345  14.261   2.856
96348W        W55884  27.184   3.299   0.793
96349W        W55885  25.662  26.524  10.625
96350W        W55886  34.002  30.000   2.699
96351W        W55887  16.682   4.802   3.860
96352W        W55888  23.038  34.078  11.926
96353W        W55889  15.592   0.903   0.932
96354W        W55890  14.243  20.654  14.416
96355W        W55891   2.279  32.508   0.735
96356W        W55892  22.700  36.523   0.305
96357W        W55893  13.193  36.963   1.435
96358W        W55894  20.199   5.840   2.873
96359W        W55895  16.720  24.080   4.293
96360W        W55896  25.545  30.922   1.719
96361W        W55897  10.847  36.870   1.776
96362W        W55898  36.932  24.662  14.965
96363W        W55899  42.337  40.032  10.624
96364W        W55900  30.982  11.224  13.440
96365W        W55901  26.032  38.390  12.043
96366W        W55902  38.405  21.566   3.241
96367W        W55903  13.335  20.091  13.957
96368W        W55904  21.096   5.225   2.210
96369W        W55905   3.219  37.421   3.813
96370W        W55906   7.838  40.443   0.316
96371W        W55907  34.864  30.040   4.617
96372W        W55908  18.599   4.876  14.438
96373W        W55909  39.519  27.580  13.022
96374W        W55910  40.819  14.596  14.360
96375W        W55911  29.101  33.612  14.400
96376W        W55912  31.111  35.085   1.417
96377W        W55913  27.060  28.552  12.014
96378W        W55914  39.502   4.772   4.213
96379W        W55915  25.573   0.441  11.439
96380W        W55916  13.747   7.820   9.522
96381W        W55917  24.605   9.259  12.991
96382W        W55918  39.979  19.767  13.352
96383W        W55919   0.486  43.897  10.459
96384W        W55920  37.866   6.278  13.850
96385W        W55921  41.834  33.007  13.027
96386W        W55922  19.271  14.698   2.848
96387W        W55923  18.657  40.328  13.518
96388W        W55924   4.206   3.767   0.383
96389W        W55925  23.069  16.704   3.827
96390W        W55926  43.351  37.081   3.224
96391W        W55927   9.285  28.547   4.164
96392W        W55928   0.942  24.068  14.915
96393W        W55929  16.752  32.024   3.679
96394W        W55930  12.631   7.332   3.301
96395W        W55931  24.174   6.357   5.214
96396W        W55932  17.558  14.745   4.309
96397W        W55933  42.917  36.438   0.809
96398W        W55934   5.354  36.402  14.883
96399W        W55935  40.912  28.544  12.898
96400W        W55936   5.845  43.392   4.296
96401W        W55937   4.236   2.738   4.225
96402W        W55938  38.040  43.781  14.915
96403W        W55939  29.454  39.999  10.487
96404W        W55940   8.220   8.361  14.373
96405W        W55941  36.845  29.114   2.350
96406W        W55942  33.380   5.771   3.284
96407W        W55943   1.325  15.225   5.206
96408W        W55944  18.722  15.671   1.414
96409W        W55945   4.909  20.250  10.933
96410W        W55946  21.124  43.474  13.384
96411W        W55947  20.713  26.133  12.530
96412W        W55948   4.250  31.471  10.471
96413W        W55949  35.957  16.286   2.762
96414W        W55950  38.368  26.008   4.767
96415W        W55951  24.980  38.063   4.158
96416W        W55952  22.666   8.300  10.469
96417W        W55953  25.482  31.623   4.631
96418W        W55954  21.739  33.483   3.386
96419W        W55955  27.185  11.715  12.552
96420W        W55956  23.214  29.958   1.289
96421W        W55957  33.131  37.449  11.923
96422W        W55958   7.350   6.708   2.362
96423W        W55959  28.095  10.713   4.687
96424W        W55960  23.158  35.546   1.814
96425W        W55961  31.145  39.957   3.253
96426W        W55962  22.549  16.625   0.278
96427W        W55963  42.935   0.960  14.506
96428W        W55964  24.196  14.315   1.377
96429W        W55965  34.870   8.252   0.792
96430W        W55966   7.702  16.221  11.859
96431W        W55967  41.956  39.830  12.486
96432W        W55968   1.394  17.225   2.795
96433W        W55969  23.240  14.230  10.478
96434W        W55970  41.820  37.509   4.288
96435W        W55971  34.577  19.072   0.800
96436W        W55972  37.868  37.865  13.987
96437W        W55973  17.674  15.794  11.596
96438W        W55974  19.704  24.015   3.727
96439W        W55975   4.707  21.523  13.378
96440W        W55976  15.131  18.216   1.284
96441W        W55977  19.103  44.392  13.803
96442W        W55978  26.648   5.212   2.696
96443W        W55979  27.981  24.677  13.946
96444W        W55980   3.357  23.647   2.882
96445W        W55981  24.146  20.085   0.277
96446W        W55982  17.164  23.181   9.989
96447W        W55983  21.564  29.657  10.609
96448W        W55984   0.782   3.254  12.496
96449W        W55985  17.166  36.864  10.503
96450W        W55986  44.483  24.020   0.769
96451W        W55987   8.196  13.819  13.406
96452W        W55988   9.796   0.855  11.081
96453W        W55989   9.306  24.595   9.965
96454W        W55990   2.263   4.923   1.785
96455W        W55991  40.957  30.540   3.211
96456W        W55992  38.548  25.573  14.986
96457W        W55993  16.200  13.168   0.365
96458W        W55994   7.856  37.514   1.384
96459W        W55995  34.951  28.607  14.833
96460W        W55996  13.807  26.481  13.462
96461W        W55997  30.592  12.328  12.091
96462W        W55998  31.021   1.393   2.417
96463W        W55999  42.900  23.003   0.300
96464W        W56000  16.742  31.962  11.053
96465W        W56001  19.622  27.621  10.448
96466W        W56002  29.938  24.215  14.915
96467W        W56003  43.892   1.943   4.828
96468W        W56004   9.342   7.265  13.923
96469W        W56005   6.802   2.328  13.880
96470W        W56006  40.491  20.182  13.422
96471W        W56007  31.561   4.429   4.353
96472W        W56008   7.194  17.301   4.304
96473W        W56009  14.221  40.441   3.844
96474W        W56010  21.686  36.977  10.140
96475W        W56011  21.512  36.504   2.812
96476W        W56012  20.577  14.341  13.970
96477W        W56013   7.817  30.430  13.878
96478W        W56014  20.049   5.282   4.671
96479W        W56015  38.437  24.162   3.291
96480W        W56016  30.970   1.478   1.304
96481W        W56017  44.411  33.040   2.765
96482W        W56018   3.340  22.640   0.334
96483W        W56019  16.284  26.573  13.986
96484W        W56020   3.277  30.122   4.159
96485W        W56021  24.500  44.340  12.983
96486W        W56022  12.850  15.763  13.944
96487W        W56023  33.590  41.953  12.825
96488W        W56024   9.752  39.412  13.874
96489W        W56025  26.034  37.874   1.387
96490W        W56026  10.193   3.375  11.437
96491W        W56027  39.976  31.530   2.665
96492W        W56028  36.997  32.996   3.777
96493W        W56029  40.490  17.585  10.404
96494W        W56030  14.245  10.374   3.746
96495W        W56031  12.796  43.405   0.428
96496W        W56032  34.396  41.344   0.425
96497W        W56033  37.432  31.482   2.776
96498W        W56034  41.385  42.380  13.445
96499W        W56035  14.151  13.246   4.136
96500W        W56036  29.967  36.067  11.000
96501W        W56037  34.438  10.356   0.327
96502W        W56038   1.417  14.105  13.475
96503W        W56039  44.986   8.672   1.331
96504W        W56040  30.005   4.219   2.754
96505W        W56041  25.189  20.621  12.381
96506W        W56042  36.435   2.369   9.944
96507W        W56043  22.616  20.165  13.321
96508W        W56044   7.729  14.153   3.859
96509W        W56045  30.124  29.550  12.384
96510W        W56046  13.298  35.983   4.828
96511W        W56047  42.890  18.278   0.275
96512W        W56048  26.078  13.108  10.419
96513W        W56049  39.005  18.744  12.421
96514W        W56050  27.609  39.912  11.978
96515W        W56051  14.160  35.877  14.507
96516W        W56052  22.700   1.854  14.394
96517W        W56053   6.723   6.185   4.238
96518W        W56054  22.695  24.056   2.213
96519W        W56055  12.737  32.554   3.708
96520W        W56056  11.775  28.053  14.423
96521W        W56057  30.588  23.714  11.507
96522W        W56058  23.018   2.786   1.276
96523W        W56059   3.253  21.116  10.570
96524W        W56060   6.833   6.818  13.802
96525W        W56061   1.285  18.689   0.734
96526W        W56062  12.237  24.012  11.558
96527W        W56063  41.386  35.989  14.001
96528W        W56064   9.244  23.155   1.762
96529W        W56065   4.398   9.264   0.744
96530W        W56066  32.487  40.349  11.554
96531W        W56067   9.747  30.078   0.298
96532W        W56068  27.665  31.149  13.877
96533W        W56069  28.560   6.374  13.035
96534W        W56070  13.323  27.007   0.353
96535W        W56071  10.171  20.596   1.906
96536W        W56072  16.727   9.214  14.311
96537W        W56073  18.632   3.403   1.289
96538W        W56074  16.263  33.402  12.073
96539W        W56075  24.187  21.563  12.842
96540W        W56076   0.757  44.824   4.295
96541W        W56077  13.212  42.478   2.824
96542W        W56078  22.576  15.235   1.864
96543W        W56079  23.732   1.383   0.473
96544W        W56080  24.019  43.796  10.480
96545W        W56081   6.221  13.823  10.438
96546W        W56082  31.586  40.400   1.880
96547W        W56083  43.273   1.742   3.209
96548W        W56084  39.532  31.970  12.538
96549W        W56085  22.245  17.635   1.860
96550W        W56086  43.990  42.873   1.368
96551W        W56087  26.547  19.776   1.883
96552W        W56088  37.989  15.689   1.875
96553W        W56089  10.378  44.475   9.922
96554W        W56090  41.841  12.669  14.376
96555W        W56091   8.305  20.059   4.762
96556W        W56092   1.470  20.176   0.265
96557W        W56093  34.514  39.029   0.922
96558W        W56094   2.240  30.914   3.801
96559W        W56095  13.600   0.478  10.908
96560W        W56096  42.429  39.861  12.887
96561W        W56097  22.165   6.201   3.369
96562W        W56098  22.589  39.971   4.736
96563W        W56099   9.353  31.624  11.970
96564W        W56100   1.244  41.925   1.392
96565W        W56101  40.827  26.494  10.591
96566W        W56102  21.608   3.280   4.250
96567W        W56103  21.227  23.710  13.896
96568W        W56104   6.264  33.897   1.348
96569W        W56105   7.332  27.676  11.512
96570W        W56106  16.737  43.448  14.998
96571W        W56107  39.420  26.107   2.892
96572W        W56108  38.071  44.760   1.888
96573W        W56109  21.164   9.340   1.267
96574W        W56110  28.444  20.617  14.416
96575W        W56111  10.674  32.903   1.216
96576W        W56112  11.196   0.901  10.415
96577W        W56113  38.448  21.649   1.839
96578W        W56114   0.331  15.131   4.702
96579W        W56115  41.464  23.209  12.023
96580W        W56116  28.623  26.029   1.701
96581W        W56117  36.950  28.488  12.540
96582W        W56118  27.998  16.085  12.502
96583W        W56119  34.020  43.410   1.779
96584W        W56120  33.390  22.083   4.642
96585W        W56121  11.366  21.155  10.528
96586W        W56122  20.119  10.250  11.883
96587W        W56123   8.178  41.853   3.641
96588W        W56124  29.543  10.826  12.444
96589W        W56125   2.326   7.186   1.352
96590W        W56126  40.441  10.723   2.229
96591W        W56127  19.698   0.385  12.029
96592W        W56128  27.183  34.513   4.272
96593W        W56129  28.577  32.394  10.407
96594W        W56130  25.655  13.290  14.438
96595W        W56131   9.830   5.361   2.879
96596W        W56132  13.257   7.748   9.653
96597W        W56133  17.778  27.038  11.472
96598W        W56134  11.763  42.026   4.770
96599W        W56135  41.398  26.088  13.047
96600W        W56136  21.226  26.073  14.495
96601W        W56137  37.509  22.676   2.361
96602W        W56138  13.193  31.407  14.898
96603W        W56139  36.057  16.094   1.264
96604W        W56140  41.303   4.926  12.866
96605W        W56141   1.408  20.237   4.605
96606W        W56142  31.105  19.565   2.769
96607W        W56143  15.098  22.157   2.780
96608W        W56144  12.777  17.093   1.234
96609W        W56145  25.058  26.618  13.901
96610W        W56146  20.691  38.900  11.493
96611W        W56147  42.343  28.988   3.804
96612W        W56148  39.502  13.254   4.659
96613W        W56149  19.677   9.666   2.216
96614W        W56150  40.851  43.302   0.950
96615W        W56151  37.889  20.723  14.479
96616W        W56152   8.234  42.010   2.834
96617W        W56153  20.126   1.800  13.828
96618W        W56154  37.493  27.192  14.925
96619W        W56155  42.861  29.932  14.890
96620W        W56156  12.227  12.309   1.807
96621W        W56157  30.611  21.232   2.842
96622W        W56158  29.158  37.362   4.270
96623W        W56159  41.335  12.697   1.932
96624W        W56160  35.940  24.533  13.950
96625W        W56161  20.615  44.269   3.259
96626W        W56162   9.796  21.757   4.298
96627W        W56163  36.003  21.041  12.379
96628W        W56164   5.434   4.744  14.870
96629W        W56165  13.678   9.356  12.998
96630W        W56166  43.411  19.167   1.891
96631W        W56167  35.479  34.423   0.455
96632W        W56168  33.027  17.787   0.957
96633W        W56169  27.953  11.274   3.241
96634W        W56170  11.241  29.073  12.566
96635W        W56171   4.268  26.668  12.339
96636W        W56172  38.823  33.551  13.397
96637W        W56173  20.525  19.140   1.886
96638W        W56174  44.499  21.603  14.979
96639W        W56175  23.571  12.180  11.086
96640W        W56176  10.247   4.902   0.884
96641W        W56177  10.232   3.807   4.731
96642W        W56178  28.177  10.726  13.889
96643W        W56179  37.008  18.159   2.375
96644W        W56180  41.361  17.134  10.899
96645W        W56181   6.235  26.563   5.221
96646W        W56182  16.767  11.226  11.914
96647W        W56183   3.284  18.182  13.879
96648W        W56184  20.733  43.488   4.265
96649W        W56185   5.194  33.608   4.340
96650W        W56186   1.931  44.270   2.221
96651W        W56187   1.398  30.588  11.604
96652W        W56188  19.557  26.021  10.992
96653W        W56189  14.218   6.198   0.785
96654W        W56190  40.043  35.387   2.881
96655W        W56191  14.212   2.894   2.349
96656W        W56192  26.072  36.089  11.383
96657W        W56193  29.041  17.174   4.764
96658W        W56194  42.989  29.999  14.485
96659W        W56195  39.984  32.448   3.229
96660W        W56196  21.209  15.195   1.343
96661W        W56197  41.330  40.514   2.695
96662W        W56198   7.218   6.351   1.407
96663W        W56199  41.841  19.686  12.398
96664W        W56200  13.616  11.765   4.309
96665W        W56201   4.810  30.010  11.076
96666W        W56202  29.498  42.827  12.514
96667W        W56203  35.951   4.212  11.413
96668W        W56204  24.650   1.839  12.513
96669W        W56205  36.433  14.615   3.301
96670W        W56206  28.564  42.314  12.348
96671W        W56207  38.885   1.833   0.830
96672W        W56208  27.168  10.765   2.256
96673W        W56209  19.640  38.363  12.055
96674W        W56210   0.867  35.403   4.692
96675W        W56211  11.287   5.759  10.061
96676W        W56212  43.284  37.458   3.683
96677W        W56213   8.786  18.211   4.603
96678W        W56214   6.875  34.509   3.662
96679W        W56215   5.824  31.965  13.819
96680W        W56216  34.974   4.720   4.736
96681W        W56217   7.350  21.648   0.438
96682W        W56218  40.467  19.776  11.985
96683W        W56219  11.672  11.799   1.369
96684W        W56220  17.590  38.903   9.934
96685W        W56221   5.252   6.257   3.150
96686W        W56222  22.188  10.211  11.068
96687W        W56223  43.949   6.205   2.213
96688W        W56224  43.878   1.768  12.502
96689W        W56225  20.117  40.981  13.793
96690W        W56226   7.837   2.387   3.681
96691W        W56227   5.810  22.250   0.328
96692W        W56228  25.089  30.647  10.537
96693W        W56229  30.950  13.283  12.065
96694W        W56230  31.015  43.774   1.893
96695W        W56231  41.809  36.035   2.685
96696W        W56232  18.563  28.678   3.148
96697W        W56233  38.979  39.416   1.223
96698W        W56234  26.204  12.286   2.267
96699W        W56235  23.230  33.060   3.286
96700W        W56236  27.588  16.716  14.923
96701W        W56237   6.889  13.275   3.362
96702W        W56238   9.217  39.872   4.718
96703W        W56239   4.771  18.581   4.733
96704W        W56240  30.127  35.409  12.459
96705W        W56241  32.890  40.306  12.887
96706W        W56242  16.307   6.869   1.312
96707W        W56243  31.619  34.520  12.404
96708W        W56244  41.437  27.511   3.233
96709W        W56245  25.141  40.886   1.313
96710W        W56246  22.231  22.717  11.072
96711W        W56247  33.107  13.647   3.248
96712W        W56248  13.190  17.234  12.049
96713W        W56249  33.574   8.657  13.862
96714W        W56250  11.626   9.654  14.462
96715W        W56251   8.200  44.796  13.025
96716W        W56252  18.094  14.814  12.342
96717W        W56253  35.497  30.134   3.238
96718W        W56254  28.475   8.167   1.837
96719W        W56255  17.585  23.693  14.319
96720W        W56256  23.125   0.934  11.610
96721W        W56257  29.508  25.623   9.452
96722W        W56258  40.828  43.975   0.300
96723W        W56259  35.501  31.606   2.408
96724W        W56260   5.377  14.728  14.431
96725W        W56261  26.667  37.466   0.442
96726W        W56262  19.071  39.903   1.213
96727W        W56263   8.711  30.922  12.376
96728W        W56264   1.387  30.428   4.166
96729W        W56265  14.212  25.967  14.886
96730W        W56266  37.555   3.759   3.335
96731W        W56267  34.498  28.506   1.823
96732W        W56268  14.231  25.488  14.321
96733W        W56269   8.708   0.463  12.394
96734W        W56270   4.247  24.112  11.571
96735W        W56271  18.264  34.388   3.665
96736W        W56272  25.962   9.798   2.351
96737W        W56273  13.337  35.110   1.449
96738W        W56274   7.376  12.319  12.542
96739W        W56275  36.499  28.614  13.462
96740W        W56276  38.007  38.827  14.969
96741W        W56277  42.900  30.096   4.217
96742W        W56278  26.638  24.690  12.058
96743W        W56279   1.434  34.386  13.031
96744W        W56280  25.103  17.284   2.823
96745W        W56281  35.021  35.876   3.176
96746W        W56282  14.292  28.176   1.732
96747W        W56283  18.112  40.933   3.631
96748W        W56284   3.919  33.498   2.388
96749W        W56285  31.105  18.094   1.695
96750W        W56286  31.585  22.089  13.364
96751W        W56287  19.115   1.791  10.545
96752W        W56288  14.707  35.096  13.378
96753W        W56289  17.078   5.404  10.436
96754W        W56290  21.514  26.085  11.064
96755W        W56291  36.551  44.880  11.059
96756W        W56292  10.651  36.543   0.244
96757W        W56293   0.904   3.246  14.011
96758W        W56294   0.765  25.527   3.234
96759W        W56295  23.089  15.184   1.326
96760W        W56296  44.362   9.715  13.336
96761W        W56297  13.159  25.008   4.127
96762W        W56298   7.241  38.491   2.394
96763W        W56299   5.893  31.441  11.023
96764W        W56300  37.488  41.848   2.666
96765W        W56301  34.082  17.233   9.957
96766W        W56302   9.371  17.746   0.729
96767W        W56303  42.305   3.865   2.323
96768W        W56304  10.858  38.985  14.404
96769W        W56305   5.359  24.594  10.114
96770W        W56306  18.627   1.408  13.043
96771W        W56307  33.097  12.736  14.921
96772W        W56308   2.302  33.460   2.749
96773W        W56309  32.061   9.682  11.492
96774W        W56310  33.890   9.823   4.115
96775W        W56311  13.609   9.208   3.369
96776W        W56312  32.039  13.841  14.913
96777W        W56313  38.540  24.154   4.223
96778W        W56314  16.704  17.765  13.520
96779W        W56315  12.716  44.504  14.427
96780W        W56316  21.597  22.202   2.892
96781W        W56317  32.071  10.851   0.295
96782W        W56318  11.821   0.987  13.816
96783W        W56319  41.977  22.542  12.510
96784W        W56320   4.350  32.615  11.964
96785W        W56321   1.413   1.388   2.279
96786W        W56322  29.550  28.590  14.364
96787W        W56323   6.753   6.191   4.740
96788W        W56324   3.289  32.991   2.317
96789W        W56325  12.702   8.707   0.478
96790W        W56326  22.597  43.961   0.269
96791W        W56327  21.152  34.004   4.281
96792W        W56328   1.256  30.112  12.479
96793W        W56329  11.759  44.316   0.268
96794W        W56330  17.594  30.028   0.820
96795W        W56331   6.222  25.659  11.084
96796W        W56332  20.059   4.935  12.428
96797W        W56333  30.645   1.952  12.969
96798W        W56334  37.857  11.769   2.282
96799W        W56335  30.121  16.655  14.276
96800W        W56336  15.252   1.276   2.871
96801W        W56337  11.721  34.461  12.504
96802W        W56338  16.148   7.374  12.883
96803W        W56339   9.265  31.141   5.763
96804W        W56340   4.333  38.829  14.908
96805W        W56341  31.959   0.463  11.508
96806W        W56342  25.177  23.548  14.988
96807W        W56343  16.228  29.620  14.775
96808W        W56344   1.952  25.159   2.306
96809W        W56345  33.439  42.372  13.398
96810W        W56346   6.271  41.964   1.448
96811W        W56347  42.856   3.301  14.922
96812W        W56348  23.151  14.664   1.776
96813W        W56349  13.713  18.586  14.018
96814W        W56350  41.979  24.212   1.694
96815W        W56351  20.181  41.415   0.471
96816W        W56352  31.080   3.858  13.961
96817W        W56353  44.834   7.352   1.309
96818W        W56354  15.146  38.451   4.734
96819W        W56355  14.261  13.792   2.719
96820W        W56356  11.688  33.547  14.909
96821W        W56357   9.320  11.139  14.850
96822W        W56358  34.412  20.654  13.936
96823W        W56359   9.798  29.098   3.320
96824W        W56360  10.661  10.672   3.740
96825W        W56361  22.674  16.660   2.663
96826W        W56362  15.114  20.160  10.530
96827W        W56363  43.433   6.736  12.090
96828W        W56364   2.421   4.809  13.004
96829W        W56365   9.334  25.556   2.225
96830W        W56366  18.556  38.041   2.681
96831W        W56367  37.058  12.324   1.223
96832W        W56368  11.819   8.896   0.471
96833W        W56369  11.156  18.071  13.510
96834W        W56370   9.798  34.911   0.327
96835W        W56371   2.825  24.575   5.127
96836W        W56372   6.395   3.236   4.206
96837W        W56373   6.216   9.768   3.379
96838W        W56374  16.236   5.921  13.539
96839W        W56375  41.000  25.199   4.205
96840W        W56376  35.887   1.314  14.347
96841W        W56377  21.709   4.218   1.321
96842W        W56378  15.105  43.378   1.299
96843W        W56379  22.743  12.340  12.920
96844W        W56380   2.436   5.306   3.800
96845W        W56381  27.498  37.902  10.942
96846W        W56382  33.102   3.282  10.477
96847W        W56383  16.807  33.468  14.330
96848W        W56384   2.794  20.561   3.834
96849W        W56385  39.834  24.667  14.931
96850W        W56386  38.047  14.293   0.745
96851W        W56387  18.219  11.183  10.438
96852W        W56388  14.717  21.755   9.665
96853W        W56389  34.482  10.797  10.432
96854W        W56390  43.969  39.469   4.603
96855W        W56391  11.206  28.650  12.553
96856W        W56392  24.053  38.442  14.815
96857W        W56393  44.273  44.407  10.153
96858W        W56394   4.288  23.128  12.490
96859W        W56395  12.149  34.031   1.303
96860W        W56396  11.314   2.357  10.581
96861W        W56397  13.729  35.460   4.751
96862W        W56398  25.192  27.952   5.105
96863W        W56399  31.014  43.898   3.243
96864W        W56400   5.439  37.365   3.342
96865W        W56401   0.352  35.586   2.286
96866W        W56402   7.298  40.027   4.146
96867W        W56403  40.976  10.635  13.937
96868W        W56404   2.227  25.502   3.691
96869W        W56405  10.278  27.100  10.004
96870W        W56406  26.087  37.338  13.033
96871W        W56407  34.501  13.821  11.387
96872W        W56408   5.303   7.769   3.649
96873W        W56409   7.331  39.554  12.876
96874W        W56410  13.686  25.592  11.390
96875W        W56411  18.100  27.654  14.831
96876W        W56412  24.148  27.177   3.714
96877W        W56413   9.309  23.529   0.952
96878W        W56414  38.542  25.153  14.790
96879W        W56415  38.507  31.068  12.038
96880W        W56416  35.476  41.844  10.618
96881W        W56417  35.995  10.144   2.727
96882W        W56418   3.389  18.760   0.921
96883W        W56419  25.111  38.955   3.357
96884W        W56420  38.946  15.816  13.840
96885W        W56421  21.047   0.403  11.029
96886W        W56422  38.999  38.393  10.457
96887W        W56423  10.202  33.445   1.316
96888W        W56424  36.551  20.595  14.839
96889W        W56425  27.081  21.071  13.990
96890W        W56426   5.748  24.079  13.901
96891W        W56427  22.501   2.371  10.918
96892W        W56428  44.840  37.068   0.791
96893W        W56429  14.683  31.485  12.547
96894W        W56430  17.643  29.615  12.834
96895W        W56431  25.049   4.272   5.675
96896W        W56432   3.435  26.667   1.785
96897W        W56433  26.517  23.660  14.325
96898W        W56434   0.366  19.218   2.855
96899W        W56435  21.556   8.833  12.381
96900W        W56436  19.592  26.548   2.283
96901W        W56437  11.206  29.032   2.782
96902W        W56438  22.701   9.880   2.695
96903W        W56439  39.401  30.941   0.251
96904W        W56440  34.414  25.202  14.828
96905W        W56441   4.778  11.806   3.637
96906W        W56442  22.164  42.910   3.841
96907W        W56443   3.261  37.023   2.663
96908W        W56444  36.957  30.554   2.743
96909W        W56445  41.469  15.632  10.608
96910W        W56446  12.855  16.224   3.777
96911W        W56447   7.833  19.545   2.299
96912W        W56448   1.806  36.064  11.108
96913W        W56449   1.335  25.640   0.925
96914W        W56450   3.747  38.031   2.903
96915W        W56451  28.980  35.931  13.940
96916W        W56452  22.660  37.954  12.856
96917W        W56453  30.027  25.007  14.422
96918W        W56454  25.193   3.881   4.816
96919W        W56455   0.299  37.417   4.158
96920W        W56456  41.924  21.209  10.577
96921W        W56457  25.138  20.187   2.400
96922W        W56458  12.204  10.161  11.983
96923W        W56459   8.853  12.247  13.959
96924W        W56460  37.559  25.203  14.500
96925W        W56461  17.587  24.212  14.467
96926W        W56462   0.314  32.962   3.817
96927W        W56463  14.793   1.781  11.931
96928W        W56464   3.901  37.934   4.268
96929W        W56465  22.161  12.314   4.739
96930W        W56466   8.368   0.393  13.812
96931W        W56467  43.779   3.279  13.845
96932W        W56468  23.142   3.316  13.814
96933W        W56469  41.368  19.199   2.818
96934W        W56470   8.360  36.086  13.856
96935W        W56471  21.660   9.262   4.618
96936W        W56472  15.297  18.650   1.402
96937W        W56473  40.431  35.990  13.793
96938W        W56474  17.709   9.869   0.879
96939W        W56475  13.252  27.477  11.509
96940W        W56476  21.685  22.147   4.122
96941W        W56477  16.752  34.999  14.422
96942W        W56478  28.034  36.936   3.375
96943W        W56479  27.068   3.832   2.254
96944W        W56480  40.378   5.884  13.810
96945W        W56481  32.093  16.571   4.163
96946W        W56482  30.163  10.383  12.065
96947W        W56483  23.097   7.309  10.488
96948W        W56484  38.965   9.200   4.175
96949W        W56485   4.764  44.953  10.442
96950W        W56486  43.866  42.957   3.151
96951W        W56487  21.181  22.057  11.094
96952W        W56488  43.301  37.486  10.089
96953W        W56489  38.886  39.045   0.358
96954W        W56490  30.159  23.083   1.737
96955W        W56491  12.289   0.390   0.877
96956W        W56492  20.607  44.759   1.376
96957W        W56493   2.937  21.120  10.428
96958W        W56494  14.228  41.461  10.533
96959W        W56495  10.826  20.733  12.579
96960W        W56496  10.256  30.994   3.276
96961W        W56497  12.838  40.940  14.370
96962W        W56498  34.390   0.832   2.829
96963W        W56499  13.719  11.356  14.481
96964W        W56500   6.922  19.636  12.486
96965W        W56501  15.605  12.813   3.836
96966W        W56502  27.609  31.508   0.831
96967W        W56503  28.146  13.276  11.388
96968W        W56504  41.300  26.971   1.340
96969W        W56505  40.427  38.431  11.556
96970W        W56506  32.086  20.173   1.431
96971W        W56507  20.591  25.692  13.376
96972W        W56508  24.146  10.660  14.890
96973W        W56509   1.834  24.604  10.618
96974W        W56510  16.780  12.722  12.020
96975W        W56511  36.944  39.331   1.727
96976W        W56512  32.414  16.212   1.799
96977W        W56513  18.723  40.482  12.429
96978W        W56514  43.959  35.006  10.434
96979W        W56515  42.298  13.674   2.874
96980W        W56516  16.728  13.764  10.618
96981W        W56517   1.787   7.885  10.990
96982W        W56518  41.369  26.129   4.770
96983W        W56519  37.412  15.600   1.402
96984W        W56520  11.223  33.999  13.891
96985W        W56521   9.191  31.899  10.578
96986W        W56522  34.020  35.375   1.899
96987W        W56523  37.399  43.444  11.471
96988W        W56524  33.517  30.604   2.807
96989W        W56525  28.068   4.379   2.710
96990W        W56526  12.670  24.064  10.893
96991W        W56527   2.291  25.028   1.715
96992W        W56528  40.389  27.101  10.563
96993W        W56529  37.860  32.098   1.837
96994W        W56530   8.212  32.935  12.559
96995W        W56531  28.030  43.815  14.867
96996W        W56532  29.113   9.249   2.729
96997W        W56533  29.120  30.981  14.820
96998W        W56534  43.981  42.016  12.047
96999W        W56535  14.268   6.804  14.848
97000W        W56536  31.076  34.502   1.814
97001W        W56537   0.963  23.122   2.248
97002W        W56538  38.030  42.329   2.806
97003W        W56539  33.967  35.008   0.879
97004W        W56540   4.219  12.780   0.434
97005W        W56541  19.201  27.161   0.806
97006W        W56542  16.640  40.929   3.276
97007W        W56543   4.429  37.962  11.123
97008W        W56544  40.051  34.471   0.436
97009W        W56545  16.768  21.629  11.909
97010W        W56546  17.209  43.406   0.800
97011W        W56547   8.783  19.668   1.804
97012W        W56548  43.922  13.638  13.887
97013W        W56549  22.152  39.532  12.507
97014W        W56550  42.905  14.796  14.513
97015W        W56551   0.767  14.108  11.518
97016W        W56552  34.093   4.412   3.721
97017W        W56553   7.333  26.964  12.009
97018W        W56554  30.441  42.998  12.878
97019W        W56555  36.970  42.788  13.501
97020W        W56556   2.886  31.072   3.806
97021W        W56557  19.683  42.497  11.383
97022W        W56558  38.963  38.942  11.081
97023W        W56559  40.860  41.886  14.003
97024W        W56560  21.196  28.950   0.258
97025W        W56561  32.542   7.289  10.936
97026W        W56562  38.030  19.130  11.992
97027W        W56563  12.699   3.247  13.815
97028W        W56564  29.514  17.264  14.909
97029W        W56565  40.428  14.594  14.357
97030W        W56566  26.541  33.107   1.425
97031W        W56567  25.092  32.539   3.652
97032W        W56568   0.268  25.124  12.880
97033W        W56569  10.167  24.142   2.353
97034W        W56570   3.276  40.472   5.155
97035W        W56571  10.289  19.238  14.396
97036W        W56572   1.464  11.695  12.516
97037W        W56573  32.620  24.138  13.529
97038W        W56574   0.484  42.982  13.331
97039W        W56575   7.747  32.114  13.420
97040W        W56576   6.787  23.666   1.789
97041W        W56577  25.614  14.265   1.377
97042W        W56578  39.977   6.874  13.997
97043W        W56579   5.328  31.585   4.147
97044W        W56580   2.384  36.962  13.050
97045W        W56581  43.012  41.311   2.850
97046W        W56582  23.186   9.806   0.302
97047W        W56583   5.784  44.915  10.967
97048W        W56584  37.451  35.527   4.694
97049W        W56585  23.060  22.547   0.293
97050W        W56586  24.669  28.122  14.289
97051W        W56587  31.955  39.027   2.684
97052W        W56588  31.089  43.492   4.165
97053W        W56589  19.569   3.278  14.464
97054W        W56590  20.261   6.910  14.955
97055W        W56591  11.739  22.628   3.823
97056W        W56592  21.149   8.760   1.256
97057W        W56593   0.294  24.520  14.842
97058W        W56594  31.035  35.555  10.913
97059W        W56595  14.669   5.352  14.771
97060W        W56596  43.902  27.492   3.719
97061W        W56597  43.888  43.380  14.464
97062W        W56598  36.351   3.842   2.896
97063W        W56599  19.183   9.369  11.857
97064W        W56600  37.890  11.240  12.502
97065W        W56601  39.540  37.000   1.400
97066W        W56602  23.064  13.143  14.387
97067W        W56603   0.381  41.035  11.906
97068W        W56604  23.145  37.516  11.079
97069W        W56605   2.831  41.799  10.632
97070W        W56606   2.292  19.678   0.250
97071W        W56607  10.258  39.965  11.373
97072W        W56608  32.410  17.106   2.384
97073W        W56609  12.772  20.132   1.411
97074W        W56610  38.056  13.779  13.409
97075W        W56611  19.553  20.608  13.926
97076W        W56612   2.925  30.062  11.376
97077W        W56613  35.917  21.629   3.761
97078W        W56614  38.907  20.679  13.544
97079W        W56615   3.909  14.670   4.712
97080W        W56616  40.542   9.366   3.237
97081W        W56617  39.817  11.637   1.878
97082W        W56618  28.558   6.734   4.791
97083W        W56619  20.218  19.068  12.838
97084W        W56620   4.714   1.441  12.401
97085W        W56621  41.986  19.136   4.818
97086W        W56622  44.262  40.968   3.857
97087W        W56623  30.943  17.636   1.808
97088W        W56624  14.594  29.997   2.683
97089W        W56625  24.003  44.913  10.493
97090W        W56626   3.945  25.086  11.498
97091W        W56627  25.562   6.227   4.685
97092W        W56628  21.713  11.680   2.858
97093W        W56629  19.104  21.252   1.791
97094W        W56630   9.827  14.190   3.184
97095W        W56631  18.705   0.461   0.940
97096W        W56632  36.005  42.958   2.262
97097W        W56633  21.562  19.572  11.974
97098W        W56634   3.896  19.143  13.545
97099W        W56635  32.451  12.743  10.564
97100W        W56636  11.225  28.950   4.303
97101W        W56637  17.175  23.704   0.783
97102W        W56638  24.989  13.624  13.383
97103W        W56639  28.991   9.816   4.712
97104W        W56640  35.911  31.917  12.961
97105W        W56641   0.974  19.606   1.236
97106W        W56642  43.362  24.113   2.183
97107W        W56643  25.979  34.914   3.220
97108W        W56644  26.648  25.498   1.283
97109W        W56645  33.899  37.966   2.218
97110W        W56646  33.937  15.579   2.664
97111W        W56647  41.952  22.534  14.991
97112W        W56648  40.885  29.657   4.131
97113W        W56649  25.099  12.826  12.495
97114W        W56650   7.786  30.926   1.387
97115W        W56651  21.569  26.629  14.388
97116W        W56652   0.289   4.863   1.331
97117W        W56653  22.695   7.197   0.366
97118W        W56654  33.061   2.360  14.419
97119W        W56655  39.545   8.873   4.680
97120W        W56656  38.905   6.220   0.446
97121W        W56657   7.366   9.224  10.510
97122W        W56658  41.861  27.672   2.733
97123W        W56659   4.282  36.062   2.236
97124W        W56660  18.544  25.695   0.790
97125W        W56661  11.234  12.177  14.823
97126W        W56662  38.454   9.273  10.456
97127W        W56663  44.878   1.445   4.222
97128W        W56664   0.935  33.564   5.194
97129W        W56665  24.052  26.081   2.739
97130W        W56666  18.658  14.591   0.844
97131W        W56667   9.677  21.627  12.395
97132W        W56668   7.902  14.747   2.664
97133W        W56669   8.243  36.006   3.294
97134W        W56670  43.976   8.812  10.996
97135W        W56671   3.252  10.171   4.789
97136W        W56672   0.899  24.622   1.293
97137W        W56673  34.913  33.381  14.480
97138W        W56674  34.451  43.830  14.911
97139W        W56675  16.174  25.644  12.404
97140W        W56676  25.521  22.113   0.873
97141W        W56677   0.378  36.431   2.683
97142W        W56678  16.249  27.947   2.792
97143W        W56679   8.193  40.451  13.354
97144W        W56680  24.176  13.846   3.708
97145W        W56681  29.066   5.249   0.432
97146W        W56682  22.667   1.238  10.941
97147W        W56683  31.420  32.048  11.023
97148W        W56684  24.491   4.253   3.164
97149W        W56685  15.607  37.388  12.968
97150W        W56686  10.642   9.367  14.792
97151W        W56687  44.491  40.987  12.828
97152W        W56688  40.543  11.373   4.247
97153W        W56689  17.188  39.903   3.322
97154W        W56690  12.619  31.461   2.798
97155W        W56691  12.121  19.557  14.817
97156W        W56692  32.422   2.923   2.899
97157W        W56693  43.386  10.253  13.318
97158W        W56694   9.747  24.156   2.687
97159W        W56695  12.259  38.388   4.124
97160W        W56696  41.930  41.303  11.077
97161W        W56697  19.763   4.771   4.823
97162W        W56698  41.338  43.320   4.321
97163W        W56699   5.927  15.594   0.812
97164W        W56700  11.628  41.447   3.696
97165W        W56701  31.423  23.612  14.951
97166W        W56702  26.094  44.888  11.982
97167W        W56703   3.353  23.208   2.410
97168W        W56704  29.147  17.590   4.805
97169W        W56705  16.769  27.583   4.278
97170W        W56706  15.580  37.022  12.573
97171W        W56707  23.511  36.994  13.414
97172W        W56708  24.489   9.889   4.634
97173W        W56709   6.401  30.100   4.175
97174W        W56710  15.160  37.996   4.318
97175W        W56711  29.995  36.037  14.880
97176W        W56712  27.142  43.923   0.889
97177W        W56713  35.439   8.257  13.983
97178W        W56714   4.204  37.536  11.987
97179W        W56715  26.011   9.674   3.356
97180W        W56716  15.722  39.902   0.958
97181W        W56717  43.312  38.994  13.878
97182W        W56718  43.510   1.293  14.410
97183W        W56719  11.184  44.932  12.845
97184W        W56720  21.660   8.275   1.336
97185W        W56721  12.787   9.709   3.338
97186W        W56722   1.732   0.250  12.051
97187W        W56723  42.017  14.137   3.277
97188W        W56724  22.009   3.412   1.736
97189W        W56725   8.901   5.390   5.231
97190W        W56726   3.255  13.782   2.853
97191W        W56727  29.949   5.436  13.503
97192W        W56728  14.645  26.041  13.043
97193W        W56729  34.412  36.080   4.174
97194W        W56730   2.408   6.290  12.007
97195W        W56731   3.320   5.268  14.841
97196W        W56732  30.079  36.015   2.892
97197W        W56733  26.558  44.860   4.260
97198W        W56734  26.034  10.826   4.658
97199W        W56735  35.415  11.813   4.203
97200W        W56736   1.852  10.642   3.252
97201W        W56737  16.307  41.364   4.755
97202W        W56738  22.549  41.451   1.726
97203W        W56739   2.227   2.922   0.387
97204W        W56740  18.087  20.253   3.275
97205W        W56741  31.093   9.377   3.723
97206W        W56742  14.639   9.876   1.702
97207W        W56743  10.808  24.655  12.458
97208W        W56744   5.439  32.074  14.997
97209W        W56745  39.471  12.263   2.302
97210W        W56746  38.502   2.782  12.377
97211W        W56747  30.581  21.260  11.119
97212W        W56748  29.570  22.739  10.033
97213W        W56749  17.267  42.513   2.404
97214W        W56750  26.580  31.634  14.339
97215W        W56751   7.341  30.118   2.283
97216W        W56752   7.768  35.538  10.643
97217W        W56753  10.267  12.798  10.617
97218W        W56754  40.488  16.127   4.246
97219W        W56755  27.012   7.295   9.981
97220W        W56756   4.418  41.961  13.041
97221W        W56757  14.790  11.231  14.428
97222W        W56758  31.024  12.303   4.218
97223W        W56759  21.137  43.833  14.437
97224W        W56760   9.684  23.134  13.929
97225W        W56761  20.638  43.414   0.877
97226W        W56762  28.643  41.388  14.981
97227W        W56763  28.177  16.763  10.962
97228W        W56764  35.471  33.994  14.421
97229W        W56765   1.757  31.996  11.583
97230W        W56766  21.677  14.763  10.638
97231W        W56767  42.880  40.828  13.497
97232W        W56768  44.970  28.073   3.752
97233W        W56769  28.478  15.627   1.408
97234W        W56770  15.626  36.003  14.275
97235W        W56771  16.598  44.473   0.464
97236W        W56772   4.409  20.702  14.429
97237W        W56773  32.628  14.310   3.320
97238W        W56774   9.761  17.175  14.399
97239W        W56775  40.391  12.360  12.043
97240W        W56776   8.205  15.155   0.730
97241W        W56777  31.485   2.368   1.401
97242W        W56778  43.421   9.819  12.380
97243W        W56779   7.853  31.899   1.361
97244W        W56780   5.195  10.199   3.677
97245W        W56781  43.280  15.095   4.728
97246W        W56782   7.186  24.556  12.507
97247W        W56783  18.107   4.391  10.595
97248W        W56784  35.980  25.643  10.921
97249W        W56785  41.437   5.205  13.842
97250W        W56786   5.869  22.651  14.472
97251W        W56787  10.769   5.687  13.873
97252W        W56788   0.828  31.539   0.439
97253W        W56789  31.120  16.245   1.428
97254W        W56790  25.592   6.276   3.860
97255W        W56791  37.911   9.710   4.774
97256W        W56792  29.050  17.763   0.864
97257W        W56793  25.502  19.284   9.942
97258W        W56794  38.525  36.498   4.690
97259W        W56795  44.837   8.767   0.467
97260W        W56796  15.267  18.692  11.885
97261W        W56797  25.546  34.556   3.804
97262W        W56798   3.797  44.775   0.905
97263W        W56799  44.845  30.647  11.031
97264W        W56800  22.035  20.525  14.950
97265W        W56801  19.087  13.296  12.052
97266W        W56802  43.999  16.123   0.316
97267W        W56803  44.006  18.647   3.282
97268W        W56804  25.973  43.881   2.388
97269W        W56805  19.641  31.955   3.176
97270W        W56806  30.454  21.742   4.811
97271W        W56807   2.827  10.206   0.909
97272W        W56808  44.265  32.490  12.998
97273W        W56809  35.437   7.189  14.773
97274W        W56810   2.232  14.302   3.771
97275W        W56811  16.705  27.463  12.876
97276W        W56812  14.674  36.095   3.301
97277W        W56813  18.142   3.762   1.277
97278W        W56814  15.316  11.821  12.947
97279W        W56815  44.269  38.984  10.594
97280W        W56816  30.640  15.630  13.004
97281W        W56817  36.435  40.993  13.857
97282W        W56818  29.068  35.929   1.265
97283W        W56819  18.580  24.228   1.714
97284W        W56820  34.021  33.919  12.448
97285W        W56821  21.065  43.865  10.123
97286W        W56822  13.704   9.273   0.409
97287W        W56823  41.307   9.646   3.699
97288W        W56824   6.878  16.261   0.299
97289W        W56825  30.584   2.905  11.601
97290W        W56826   9.746   2.799  13.528
97291W        W56827  35.534  40.461   4.660
97292W        W56828  24.059  27.020   0.394
97293W        W56829   1.815   6.398  12.925
97294W        W56830   0.354  22.112  10.443
97295W        W56831  16.626  32.993   4.761
97296W        W56832   2.803  25.132  14.379
97297W        W56833  10.692  13.767  14.903
97298W        W56834  21.742  29.004   3.200
97299W        W56835   4.745  44.290   0.275
97300W        W56836  36.906  40.820   1.319
97301W        W56837  13.615  42.491   2.756
97302W        W56838  24.014  35.043   0.770
97303W        W56839  12.697   5.867  10.438
97304W        W56840  29.157  20.681   2.191
97305W        W56841  20.534  30.008   4.216
97306W        W56842  37.558   4.387   1.239
97307W        W56843  17.694  23.199   5.207
97308W        W56844  11.292  43.855  11.426
97309W        W56845  19.263  22.532   3.370
97310W        W56846  34.036  43.422   1.377
97311W        W56847  20.611  29.561   1.741
97312W        W56848  33.114  11.240  14.475
97313W        W56849   2.444  42.970   4.801
97314W        W56850  37.390  15.101  12.536
97315W        W56851  39.459   0.478  11.609
97316W        W56852   8.744  43.344  13.829
97317W        W56853  33.480  36.967   1.730
97318W        W56854  38.894  39.460   2.248
97319W        W56855  19.142   4.368  12.919
97320W        W56856  20.066  44.972   2.269
97321W        W56857  41.515  27.592  10.435
97322W        W56858   8.726   9.371  14.284
97323W        W56859  18.749   3.296  14.771
97324W        W56860  44.781  11.804   1.738
97325W        W56861   6.794   0.441   3.632
97326W        W56862  22.011  18.137  13.905
97327W        W56863  31.584  23.697   0.413
97328W        W56864   5.758  19.778   3.828
97329W        W56865   3.340  21.208  12.447
97330W        W56866   9.779  30.972  10.011
97331W        W56867  25.994   8.282   0.360
97332W        W56868  23.171  24.994   3.795
97333W        W56869  10.812  16.771   4.829
97334W        W56870   2.458  40.027  14.348
97335W        W56871   3.414  25.974   5.693
97336W        W56872   8.390  41.431   1.912
97337W        W56873   3.333  40.892   2.341
97338W        W56874  12.118  16.813  13.381
97339W        W56875  41.833  34.505  13.511
97340W        W56876  32.125  38.430  11.465
97341W        W56877  44.398   9.806  11.420
97342W        W56878  12.213  36.093  14.492
97343W        W56879  39.340  25.012  11.045
97344W        W56880   2.291  26.192  13.059
97345W        W56881   0.962  11.206   5.255
97346W        W56882   4.321  32.399  12.550
97347W        W56883   0.472   9.181   3.331
97348W        W56884  29.482  18.604  14.286
97349W        W56885  23.707   2.949  10.953
97350W        W56886  20.204  22.612  11.395
97351W        W56887   2.434  24.229  14.331
97352W        W56888  23.232   3.271   9.463
97353W        W56889  41.007   2.288  11.519
97354W        W56890  22.596  23.535  13.809
97355W        W56891  40.821   1.424   2.238
97356W        W56892  11.260   5.277   2.824
97357W        W56893  17.193  38.989   0.920
97358W        W56894   7.749   4.381  11.860
97359W        W56895  38.475   6.238  10.495
97360W        W56896  44.435  35.940  12.520
97361W        W56897   3.756   1.342  11.541
97362W        W56898  31.592  11.751  14.880
97363W        W56899   1.935   1.947   0.860
97364W        W56900  38.556  28.621  14.030
97365W        W56901  18.231  30.503  10.457
97366W        W56902   4.936  21.752   0.826
97367W        W56903  38.499  30.008  12.447
97368W        W56904  23.067  42.484  11.018
97369W        W56905  37.445  35.587   2.405
97370W        W56906  32.980  12.170   3.854
97371W        W56907  20.222   3.892   0.266
97372W        W56908  33.978  21.259   3.871
97373W        W56909  43.807   6.410   3.288
97374W        W56910   8.263  22.586   0.731
97375W        W56911   0.890   9.763   0.943
97376W        W56912  30.459  14.251   4.675
97377W        W56913  35.445  32.015   2.663
97378W        W56914  34.430  34.110   4.283
97379W        W56915  44.791  13.720  13.378
97380W        W56916   8.695   4.423   0.380
97381W        W56917  11.268  15.802   4.631
97382W        W56918  30.503  14.594   0.455
97383W        W56919   1.326   8.319  14.409
97384W        W56920   3.735  20.179  13.969
97385W        W56921  42.479   5.783  14.882
97386W        W56922  37.485  37.418  11.080
97387W        W56923   5.287  16.151  14.414
97388W        W56924  32.460  39.030  13.524
97389W        W56925  40.937  17.132  14.319
97390W        W56926  42.014  25.155   4.670
97391W        W56927   8.676  23.536   9.610
97392W        W56928   1.801  32.132   3.207
97393W        W56929   0.881  31.008   1.277
97394W        W56930  23.211   8.282  11.099
97395W        W56931  40.473  24.143  13.897
97396W        W56932  39.357   9.771   0.762
97397W        W56933  17.170  22.120   1.736
97398W        W56934  40.907  23.579  14.357
97399W        W56935  33.467  29.519  12.041
97400W        W56936   0.377  37.889   4.226
97401W        W56937  40.974  26.102   4.129
97402W        W56938   5.868  25.028  12.445
97403W        W56939   5.393  11.165  14.795
97404W        W56940  35.975   1.831   9.504
97405W        W56941  13.755  28.980   4.162
97406W        W56942  14.233  14.639  12.037
97407W        W56943  19.577  34.996   0.291
97408W        W56944  29.466  34.007   3.782
97409W        W56945  20.071   8.815   1.402
97410W        W56946  43.911  37.504   5.110
97411W        W56947   3.931  11.157  13.880
97412W        W56948  31.144  31.898  14.355
97413W        W56949  22.049   3.838   3.680
97414W        W56950  16.765  32.916  14.333
97415W        W56951  39.348   6.255  11.090
97416W        W56952  15.678  33.988  12.032
97417W        W56953  41.401  36.916  11.390
97418W        W56954  12.136  15.761   3.200
97419W        W56955  32.529  33.591   1.246
97420W        W56956   2.935  29.565  10.431
97421W        W56957   9.726  24.999  14.884
97422W        W56958  30.151  39.826   3.386
97423W        W56959   1.353   2.841   4.250
97424W        W56960  28.441  27.120  12.838
97425W        W56961  38.346  18.595  10.523
97426W        W56962  21.251  17.592   0.746
97427W        W56963  40.901  25.979   0.882
97428W        W56964  34.409  24.993   5.284
97429W        W56965  42.955  19.610  12.987
97430W        W56966   4.780  35.079   5.146
97431W        W56967  44.431  18.294   4.261
97432W        W56968   8.171   0.282   4.316
97433W        W56969  40.505  41.292  11.565
97434W        W56970  40.013  28.085   2.726
97435W        W56971  12.616  28.181   9.958
97436W        W56972  16.307  13.226   4.643
97437W        W56973  12.615  41.325  13.058
97438W        W56974  30.642  25.182  11.098
97439W        W56975   5.367  30.482   5.215
97440W        W56976  20.104   4.217  10.594
97441W        W56977  30.434  20.675  11.094
97442W        W56978  35.408  23.141  12.568
97443W        W56979   6.313   3.218  14.439
97444W        W56980  31.991  37.394   9.996
97445W        W56981  30.601  34.453  14.496
97446W        W56982  36.493  23.215   2.345
97447W        W56983  44.865  23.165  11.970
97448W        W56984  43.301  15.283  12.387
97449W        W56985  37.432  28.460  11.035
97450W        W56986  44.886  43.924   1.269
97451W        W56987  35.900  18.633   1.219
97452W        W56988   6.841  14.605  12.827
97453W        W56989  11.709  16.257  13.883
97454W        W56990  38.403  33.088  12.857
97455W        W56991   8.796  17.261   3.338
97456W        W56992  25.035  13.281   2.323
97457W        W56993   5.903   3.356   4.668
97458W        W56994  27.023  43.365   4.805
97459W        W56995  16.217  35.002   0.954
97460W        W56996  15.663  34.398   3.201
97461W        W56997   4.906  26.569  14.366
97462W        W56998  40.835  43.913  11.473
97463W        W56999  27.659  30.934  12.367
97464W        W57000  13.110  34.562  12.059
97465W        W57001  41.920  21.752   0.776
97466W        W57002  21.650  43.880  13.842
97467W        W57003  33.102  29.564  14.329
97468W        W57004  41.850   3.446   2.236
97469W        W57005   2.776   2.318  11.031
97470W        W57006  30.981   1.275   0.728
97471W        W57007  30.060  32.091  10.906
97472W        W57008  40.548  23.561  12.902
97473W        W57009  38.553   1.830  10.910
97474W        W57010  44.299  16.604  10.593
97475W        W57011  41.922  35.063   2.394
97476W        W57012  17.612  34.029   2.286
97477W        W57013  18.073   6.389   1.775
97478W        W57014   7.195  17.731   3.326
97479W        W57015  13.689  43.003  10.621
97480W        W57016  30.629   5.393   4.345
97481W        W57017  20.540  37.879   4.347
97482W        W57018  11.295  33.448   0.463
97483W        W57019  18.245  22.189   5.127
97484W        W57020  27.004  36.523  10.594
97485W        W57021  35.030  29.590   4.127
97486W        W57022  25.174  41.363   0.272
97487W        W57023  43.493  11.172   3.174
97488W        W57024  32.044  44.934   3.748
97489W        W57025  33.938  41.296  12.031
97490W        W57026  13.306  26.479   3.218
97491W        W57027  22.651  14.277  14.851
97492W        W57028  31.448  40.017  13.351
97493W        W57029  17.290   9.854  12.499
97494W        W57030  15.118  42.500   1.230
97495W        W57031  38.822  14.833  11.435
97496W        W57032  38.345  35.852   0.836
97497W        W57033  40.535  24.040   0.262
97498W        W57034  19.611  43.788  10.516
97499W        W57035  11.743  26.463   1.262
97500W        W57036  14.216  25.520   5.241
97501W        W57037  18.593  38.009   4.269
97502W        W57038  28.672   3.345  12.070
97503W        W57039   5.403  29.438   0.366
97504W        W57040   0.889  24.171   1.867
97505W        W57041  37.491   5.342  11.038
97506W        W57042   1.356   2.897  12.020
97507W        W57043  29.996  42.453   1.767
97508W        W57044  10.741  26.150  14.476
97509W        W57045  32.962  33.123   0.850
97510W        W57046  39.050  24.110   1.715
97511W        W57047  25.081   0.273   3.220
97512W        W57048  38.514  24.170   3.865
97513W        W57049  36.929  29.542  10.486
97514W        W57050  15.326  40.546   4.814
97515W        W57051  10.746  30.422   1.713
97516W        W57052   5.395  21.090   0.734
97517W        W57053  15.284  19.766  11.539
97518W        W57054   8.354   3.350  10.522
97519W        W57055  23.518  28.962  10.891
97520W        W57056   3.224   8.350  12.443
97521W        W57057   7.172  10.797  14.297
97522W        W57058  30.601  33.114  13.894
97523W        W57059  14.101   8.344   0.344
97524W        W57060  30.925  38.952  11.934
97525W        W57061  36.860  21.081  10.640
97526W        W57062  18.203  34.868  12.861
97527W        W57063  32.075  14.335  11.435
97528W        W57064  21.200  29.002   1.418
97529W        W57065   0.269   7.271  10.581
97530W        W57066  16.165   3.804   4.668
97531W        W57067  32.108  19.180   1.424
97532W        W57068   3.784  33.993   4.806
97533W        W57069   3.357   5.870  10.997
97534W        W57070   2.286  43.979   3.663
97535W        W57071  15.645  13.156  11.092
97536W        W57072  33.054   0.303   2.290
97537W        W57073  23.990  19.245  14.478
97538W        W57074   3.253  29.112   2.711
97539W        W57075  15.247  39.376   1.822
97540W        W57076  15.170   5.721  14.279
97541W        W57077  29.047  44.321  11.590
97542W        W57078  32.924  34.935   3.772
97543W        W57079  28.104  18.057   3.293
97544W        W57080  36.401  14.665  11.027
97545W        W57081  16.598   4.309  12.078
97546W        W57082  11.817  35.076   4.614
97547W        W57083  17.698  32.575  13.993
97548W        W57084  40.398  42.803  10.514
97549W        W57085  15.708  37.486   3.842
97550W        W57086  20.242  12.265   1.330
97551W        W57087  32.073  42.943  14.391
97552W        W57088  25.083  41.536   3.248
97553W        W57089   9.704  21.601   1.435
97554W        W57090  37.009   2.752  13.822
97555W        W57091  30.955  23.996   5.181
97556W        W57092  15.792  18.097  14.444
97557W        W57093  43.865  32.579  11.994
97558W        W57094   9.156  14.104  13.501
97559W        W57095  33.475  12.322  11.022
97560W        W57096  11.821   1.921   1.894
97561W        W57097  41.423  14.828   0.782
97562W        W57098  25.663   4.308  11.977
97563W        W57099   8.331  12.724  14.460
97564W        W57100  23.056  29.960  13.475
97565W        W57101  10.719  37.401  11.965
97566W        W57102   6.358  39.813   3.241
97567W        W57103  29.424  42.783   1.694
97568W        W57104  18.586  37.975   4.684
97569W        W57105  12.290   9.329  11.102
97570W        W57106  34.052   3.752   2.266
97571W        W57107  19.671  28.566  13.856
97572W        W57108   1.913   4.939  13.815
97573W        W57109  30.914  12.673  12.988
97574W        W57110  16.308  18.774  10.512
97575W        W57111  24.663  40.038  11.970
97576W        W57112   6.769   9.668   0.815
97577W        W57113  13.719   4.903  11.008
97578W        W57114  24.595  15.752  13.508
97579W        W57115  12.195  31.030  12.473
97580W        W57116  12.131  10.303  14.822
97581W        W57117  38.971  13.266   3.661
97582W        W57118   8.808  22.593   3.187
97583W        W57119  39.327  28.503  14.841
97584W        W57120  31.130  40.845   0.484
97585W        W57121   0.341  24.640  11.866
97586W        W57122  13.747   6.918   9.487
97587W        W57123   1.776  25.965  14.990
97588W        W57124  34.050  40.407  14.961
97589W        W57125  14.229  27.590  13.528
97590W        W57126   9.376  23.659   0.476
97591W        W57127  39.550  38.560   3.341
97592W        W57128  17.575  41.304  13.842
97593W        W57129   7.843  39.815   1.883
97594W        W57130  35.395   7.269  12.365
97595W        W57131  30.598  38.056   0.250
97596W        W57132   8.383  14.639  14.879
97597W        W57133   0.810  15.712   1.882
97598W        W57134  16.190  23.024   3.828
97599W        W57135  25.662  23.602  12.508
97600W        W57136  11.304  11.724  11.975
97601W        W57137  30.073  24.698  12.924
97602W        W57138   8.723  24.719   4.747
97603W        W57139  21.201  25.640   5.125
97604W        W57140  14.708   3.764  14.803
97605W        W57141  18.131   3.455   1.846
97606W        W57142  10.725  28.456  13.858
97607W        W57143  24.624  30.438   1.386
97608W        W57144   6.840  24.686   2.832
97609W        W57145  18.576  39.811   0.270
97610W        W57146  38.553   2.868   1.869
97611W        W57147   8.778  11.725   0.424
97612W        W57148  30.534  13.217  12.887
97613W        W57149  42.007  11.192   3.185
97614W        W57150  16.726  10.763  14.404
97615W        W57151  27.542  43.798   2.852
97616W        W57152  37.455  26.653   9.971
97617W        W57153  28.595   0.964   4.750
97618W        W57154   4.870  43.480   2.666
97619W        W57155  23.730  30.600   4.678
97620W        W57156  14.620   2.405   2.697
97621W        W57157   0.252  11.223  12.996
97622W        W57158  20.692   6.365   2.208
97623W        W57159  23.207   7.195  13.830
97624W        W57160  28.185  34.921   2.415
97625W        W57161  15.675  18.565   3.713
97626W        W57162  44.840  24.645  10.925
97627W        W57163  21.095  38.530  11.564
97628W        W57164  25.215  14.749  13.042
97629W        W57165  27.599  12.723  11.472
97630W        W57166  12.705  39.329  11.076
97631W        W57167  24.691  12.154   2.725
97632W        W57168  23.571  44.377  14.300
97633W        W57169  18.165  40.487  12.433
97634W        W57170  34.027   2.446   4.616
97635W        W57171  28.028   3.942  12.078
97636W        W57172  38.855  38.465   0.271
97637W        W57173   5.408  34.435   3.174
97638W        W57174  34.082  29.643   4.753
97639W        W57175  17.282   2.256   1.789
97640W        W57176  39.889  44.318   0.293
97641W        W57177  30.991  16.104  11.568
97642W        W57178  43.997  43.277  11.379
97643W        W57179  44.312  18.226   1.242
97644W        W57180   7.789  18.682   3.702
97645W        W57181  30.004   1.834   2.878
97646W        W57182  28.087  43.019  14.840
97647W        W57183  13.810  30.117  14.413
97648W        W57184  44.279  32.050   4.738
97649W        W57185  16.570  13.136  13.867
97650W        W57186   8.886  23.142  13.315
97651W        W57187   8.818  38.054   4.246
97652W        W57188   8.733  25.713   4.834
97653W        W57189  24.627  31.992  14.372
97654W        W57190  27.096  35.068  12.892
97655W        W57191   5.835   2.240  14.006
97656W        W57192  32.610  42.477  14.833
97657W        W57193  20.682  19.254  10.052
97658W        W57194  26.180  29.604  12.900
97659W        W57195   5.913   1.786   0.318
97660W        W57196  14.120  44.780  14.412
97661W        W57197  21.687  22.231   3.665
97662W        W57198   7.751  39.963   4.251
97663W        W57199  26.043  29.599  14.403
97664W        W57200  12.272  21.177   1.318
97665W        W57201   4.413  30.466   4.260
97666W        W57202  20.739  27.643  11.973
97667W        W57203  23.234  37.909  11.379
97668W        W57204  10.149  11.342   2.872
97669W        W57205  25.691   1.872  12.958
97670W        W57206  31.081   0.807  11.597
97671W        W57207   8.715  30.430  12.363
97672W        W57208  19.284   8.219  13.338
97673W        W57209   8.316  18.052  12.529
97674W        W57210  30.448   3.374   0.926
97675W        W57211  36.496  20.219   0.862
97676W        W57212   5.885   1.405   2.708
97677W        W57213  30.964  27.109  10.949
97678W        W57214   0.392  17.207   0.346
97679W        W57215  29.950   3.893  13.803
97680W        W57216  29.075  28.065  14.974
97681W        W57217  34.875  34.380   1.418
97682W        W57218  15.816   0.818   0.469
97683W        W57219  35.940  44.802   3.788
97684W        W57220  27.650  27.567  10.607
97685W        W57221  28.119  22.642   1.854
97686W        W57222  19.732   8.896   0.849
97687W        W57223  29.176   5.438   3.345
97688W        W57224  24.180  14.694  11.486
97689W        W57225   3.251   4.714  12.483
97690W        W57226  26.985  15.140  13.875
97691W        W57227  35.559   9.688  14.877
97692W        W57228  23.140  26.166   3.263
97693W        W57229  36.864  41.501  12.081
97694W        W57230  24.605  30.152   4.297
97695W        W57231  40.952  15.777   4.682
97696W        W57232  32.134  32.633   2.333
97697W        W57233   7.237  35.092   1.298
97698W        W57234  14.599  38.992  10.442
97699W        W57235  36.438  37.381   0.836
97700W        W57236   3.763  15.095   0.297
97701W        W57237  38.449  38.829   4.337
97702W        W57238  32.967  38.011   2.848
97703W        W57239  22.561  26.520   0.263
97704W        W57240  34.417  14.295  11.413
97705W        W57241  34.605  12.161  12.418
97706W        W57242  44.001  24.167   0.937
97707W        W57243   4.781   9.704  10.521
97708W        W57244  15.783   1.339   3.844
97709W        W57245  42.928  21.192  13.856
97710W        W57246  32.450  20.232  13.320
97711W        W57247  39.422  17.734   3.283
97712W        W57248   7.267  16.292   1.826
97713W        W57249  22.506  33.024   4.248
97714W        W57250  26.148  30.538  12.912
97715W        W57251  44.805  26.142   2.891
97716W        W57252   6.330   1.815   1.389
97717W        W57253  18.275  11.658   4.695
97718W        W57254  40.408  31.503  12.062
97719W        W57255  34.874   2.393  12.096
97720W        W57256   5.847  22.143   4.207
97721W        W57257  31.100   4.264   1.889
97722W        W57258  34.984  22.081  11.931
97723W        W57259  21.533  30.095   0.293
97724W        W57260  19.145  21.061   5.273
97725W        W57261  43.459  36.551  12.008
97726W        W57262  38.535  19.724   2.898
97727W        W57263  35.025  27.460  14.448
97728W        W57264  35.362  26.578   2.876
97729W        W57265  15.251  20.537  12.077
97730W        W57266   7.173   6.260  12.482
97731W        W57267  17.253   6.921   0.259
97732W        W57268   0.986  33.591  13.960
97733W        W57269   2.834  42.368   0.341
97734W        W57270  11.330   3.234   2.341
97735W        W57271   2.456  25.963   0.483
97736W        W57272  44.926  38.497   3.647
97737W        W57273  41.309  16.117   1.290
97738W        W57274  24.202  29.532  11.583
97739W        W57275  31.438  15.780  11.520
97740W        W57276  42.838  10.300  13.336
97741W        W57277  41.528  32.399   4.678
97742W        W57278   5.280  31.116  14.957
97743W        W57279  37.005  18.621   3.238
97744W        W57280   8.873  10.771  10.609
97745W        W57281  27.589  39.322  14.349
97746W        W57282  44.969  44.880   4.659
97747W        W57283   7.706  13.679  10.972
97748W        W57284  28.021  26.641  13.418
97749W        W57285   0.264  41.991   3.822
97750W        W57286  27.574   1.922   1.809
97751W        W57287  43.325   4.872   1.284
97752W        W57288   3.446  42.843   1.712
97753W        W57289  34.402   4.285   1.888
97754W        W57290  22.670  13.119  12.017
97755W        W57291   2.875  15.255   4.121
97756W        W57292  14.758  37.524   2.866
97757W        W57293  19.587  23.062  14.314
97758W        W57294   8.875  29.529   1.893
97759W        W57295  25.611  43.346  11.976
97760W        W57296  44.941  17.210   2.665
97761W        W57297  25.134  13.741   0.429
97762W        W57298   6.816  27.993  10.641
97763W        W57299  15.643  10.251   4.317
97764W        W57300  40.439   4.325   3.834
97765W        W57301  26.958  42.849  13.399
97766W        W57302  11.840  42.832  13.853
97767W        W57303   7.367   0.463   1.913
97768W        W57304  38.966  32.062  11.865
97769W        W57305   5.805  19.554  13.419
97770W        W57306  29.957   0.853   2.229
97771W        W57307  38.005  43.448   5.133
97772W        W57308  11.363  25.662   3.311
97773W        W57309   9.330  37.922  11.476
97774W        W57310   7.378   0.456   4.222
97775W        W57311  19.056  30.560  13.404
97776W        W57312   3.868  22.545  10.155
97777W        W57313  39.976  24.978  11.879
97778W        W57314  37.873  26.192  14.376
97779W        W57315  42.421  15.120   1.343
97780W        W57316  26.000  30.586   3.868
97781W        W57317  44.301  31.444  10.536
97782W        W57318   8.287   9.280   1.898
97783W        W57319  23.530  31.015  11.857
97784W        W57320  14.734  30.485  12.572
97785W        W57321  12.618  13.329  13.988
97786W        W57322  26.073  19.073  11.877
97787W        W57323   7.383  14.804  13.002
97788W        W57324  13.196  27.009  12.082
97789W        W57325   3.280  28.971  10.572
97790W        W57326  10.298  14.727   1.884
97791W        W57327  33.580  11.203   2.804
97792W        W57328  14.273  27.602   0.825
97793W        W57329  14.213  20.233  12.514
97794W        W57330   6.424   9.241   2.810
97795W        W57331  30.423  34.561   4.653
97796W        W57332  30.944   2.844  14.340
97797W        W57333  13.115  11.136  11.581
97798W        W57334  38.961  39.345   3.821
97799W        W57335  28.948  38.350  13.340
97800W        W57336  39.813  15.272   2.673
97801W        W57337  37.456  27.674   0.806
97802W        W57338  18.185  21.594  14.865
97803W        W57339  20.575  16.633   1.221
97804W        W57340  44.486  39.521  14.514
97805W        W57341  25.085  24.201   4.798
97806W        W57342  41.038  33.102   1.726
97807W        W57343  40.026  12.235   2.852
97808W        W57344  10.662  29.969  14.865
97809W        W57345   0.289   1.274   3.774
97810W        W57346   8.330  32.006  11.488
97811W        W57347  29.620  24.023  13.439
97812W        W57348   3.435  33.937   3.163
97813W        W57349   0.281   0.924  12.006
97814W        W57350  37.539  21.669   2.862
97815W        W57351  17.714  27.035   3.841
97816W        W57352  25.022   2.349   2.242
97817W        W57353  30.960   2.966  12.991
97818W        W57354  33.386  42.405   2.221
97819W        W57355  37.392  37.021   3.326
97820W        W57356   2.420  30.533  12.463
97821W        W57357  33.975   8.358  14.347
97822W        W57358  34.093  39.338   2.758
97823W        W57359  35.604  27.024  14.795
97824W        W57360  11.192  13.276  10.437
97825W        W57361  42.869   2.275   0.312
97826W        W57362   2.281  15.580   0.370
97827W        W57363  29.168  16.608   1.216
97828W        W57364   6.729   9.826   1.258
97829W        W57365  19.155  32.558  14.278
97830W        W57366  26.581  20.223  13.314
97831W        W57367  17.741  31.429  12.404
97832W        W57368  41.297  21.516   1.720
97833W        W57369  19.181  38.431   3.818
97834W        W57370  33.623  40.416   3.359
97835W        W57371  25.482   1.857   2.217
97836W        W57372  22.512  35.957   2.826
97837W        W57373  12.821  35.988  14.826
97838W        W57374   0.839   8.395   0.469
97839W        W57375  43.376   6.789   3.284
97840W        W57376   7.815  32.540  12.569
97841W        W57377   1.747  41.042   3.193
97842W        W57378  30.039  22.680  10.968
97843W        W57379  12.341   2.307  11.124
97844W        W57380  20.089  22.163  12.489
97845W        W57381  40.329  40.437   2.256
97846W        W57382  26.103  17.131   5.148
97847W        W57383   5.689  35.945   2.889
97848W        W57384  13.659   1.450  13.840
97849W        W57385  32.891  11.651  14.031
97850W        W57386  13.258  15.088  12.968
97851W        W57387  30.918   5.905   2.845
97852W        W57388  29.160  19.073   4.296
97853W        W57389  29.933  17.795  11.065
97854W        W57390  36.051  28.636  14.442
97855W        W57391  43.366  36.590  10.561
97856W        W57392   1.426   6.743  11.106
97857W        W57393  22.076  34.596   1.331
97858W        W57394  27.117  20.582  10.999
97859W        W57395  44.280  30.032  11.468
97860W        W57396  31.591  14.633   1.379
97861W        W57397   7.752  35.568   3.845
97862W        W57398  21.559  36.550   1.418
97863W        W57399  43.909   4.235  10.501
97864W        W57400  15.124   9.373  12.868
97865W        W57401   4.359  38.824   2.233
97866W        W57402  26.082  30.113   1.447
97867W        W57403  22.658  42.453  14.006
97868W        W57404  35.055  13.123   3.234
97869W        W57405   0.363  25.618   1.831
97870W        W57406   7.293  24.608  11.496
97871W        W57407  35.562  39.527  13.814
97872W        W57408  19.086   4.415  10.926
97873W        W57409  18.094  10.801   2.873
97874W        W57410   8.206   7.844  14.470
97875W        W57411  31.552  13.114   4.250
97876W        W57412  32.972  40.470  10.641
97877W        W57413  12.787  42.988  14.791
97878W        W57414  12.279   0.790   3.261
97879W        W57415  23.134  32.018  12.900
97880W        W57416  22.653  31.908  11.421
97881W        W57417  17.588   4.396  14.859
97882W        W57418  29.125  44.325   3.357
97883W        W57419   1.845   7.790  10.636
97884W        W57420  39.493  29.005   1.882
97885W        W57421   6.795  33.066   3.348
97886W        W57422  34.025  15.713  12.453
97887W        W57423  25.202  28.516  11.870
97888W        W57424   3.901  25.177  10.919
97889W        W57425   7.669  18.101   0.881
97890W        W57426  25.028  31.946   2.767
97891W        W57427   6.912  22.614   3.296
97892W        W57428  35.550   2.876   2.294
97893W        W57429  30.159  28.023   1.882
97894W        W57430   5.811   2.965  11.083
97895W        W57431  17.574  26.597   2.296
97896W        W57432  23.079  31.053  12.501
97897W        W57433  21.181  16.643   0.944
97898W        W57434  32.083   0.789   3.149
97899W        W57435  19.754  32.063  12.401
97900W        W57436  27.474  41.464   4.617
97901W        W57437   3.340  19.638   4.669
97902W        W57438  40.371  14.133   4.736
97903W        W57439  35.966  44.379   3.175
97904W        W57440  40.027  18.773   1.906
97905W        W57441  12.157  42.000   3.289
97906W        W57442  31.066  15.288  13.915
97907W        W57443  22.194  44.795   4.635
97908W        W57444  22.065  44.407  11.450
97909W        W57445  32.451  21.584   3.842
97910W        W57446  44.880  15.128  12.087
97911W        W57447   5.310   8.196  12.897
97912W        W57448  17.746  28.935   4.187
97913W        W57449   0.252  38.535   1.836
97914W        W57450  31.057  39.001   4.603
97915W        W57451  26.491   8.347   2.351
97916W        W57452  21.033  27.459   4.776
97917W        W57453  13.603  20.740  14.977
97918W        W57454  24.149  28.008   2.233
97919W        W57455   1.871  20.576   4.195
97920W        W57456  18.130   9.832   2.886
97921W        W57457   2.453  36.371   4.767
97922W        W57458  31.463  17.642  12.981
97923W        W57459   2.427  30.550  14.769
97924W        W57460  40.538   1.974   5.267
97925W        W57461  35.367   3.445  11.613
97926W        W57462   2.375  21.033  12.514
97927W        W57463  12.139  16.732   3.827
97928W        W57464  20.111   7.386  10.893
97929W        W57465  41.968  28.485  11.572
97930W        W57466  33.494  18.545   0.309
97931W        W57467   3.248  34.956  14.355
97932W        W57468  13.728  19.744  12.363
97933W        W57469  36.865  20.543   2.311
97934W        W57470   5.424  15.803   4.604
97935W        W57471  34.871  16.796  12.913
97936W        W57472  44.894  39.039  12.514
97937W        W57473  13.161  20.221   3.732
97938W        W57474  36.921  19.703   3.781
97939W        W57475  15.731  35.976  12.932
97940W        W57476  39.540  36.571  13.392
97941W        W57477  17.112  42.836   0.347
97942W        W57478  26.674  40.870  10.932
97943W        W57479   4.284  44.971   1.336
97944W        W57480   6.272   1.454  10.064
97945W        W57481  14.713  36.423   2.690
97946W        W57482  39.365  41.940  10.568
97947W        W57483  26.078  40.896  12.892
97948W        W57484   0.855   6.256   4.778
97949W        W57485  11.704  37.422  12.360
97950W        W57486  21.027  15.652  14.004
97951W        W57487  24.093  24.115  14.390
97952W        W57488  10.672  20.161   2.787
97953W        W57489  22.220  32.126   3.766
97954W        W57490  41.013  42.526   2.870
97955W        W57491  29.598  38.073  11.114
97956W        W57492  23.193  27.537  14.865
97957W        W57493   4.731   8.834   9.950
97958W        W57494  34.075  22.540  10.568
97959W        W57495  41.416  31.561  11.591
97960W        W57496  15.596  33.571  12.893
97961W        W57497  25.646  15.592   0.475
97962W        W57498  16.284  14.702   3.217
97963W        W57499   1.891   5.738   1.818
97964W        W57500  43.805  27.973  10.463
97965W        W57501   9.726  26.521   1.381
97966W        W57502  19.624  34.067  10.545
97967W        W57503  12.352  44.864  10.955
97968W        W57504  17.093  26.676   4.328
97969W        W57505  14.152  44.969   1.896
97970W        W57506  41.419  29.124   4.698
97971W        W57507  23.101   3.874  11.951
97972W        W57508  35.875  34.507  10.991
97973W        W57509  31.933  24.209   4.229
97974W        W57510  18.055  28.955   3.319
97975W        W57511  20.632   6.267  13.460
97976W        W57512  44.867   4.220   3.706
97977W        W57513  17.704   3.884   1.808
97978W        W57514  37.347   3.930  14.446
97979W        W57515  42.006  30.572  12.031
97980W        W57516  37.852   2.919   4.276
97981W        W57517  38.922  31.947   3.811
97982W        W57518  31.519  37.088  11.997
97983W        W57519  28.478   4.204  13.832
97984W        W57520  21.579  38.826  14.809
97985W        W57521   3.404  42.958  10.406
97986W        W57522   1.476  22.196  10.100
97987W        W57523   3.891  19.671   3.711
97988W        W57524  18.141  38.952  10.973
97989W        W57525  13.306  14.625  13.935
97990W        W57526  12.155   7.811  10.941
97991W        W57527  15.731  31.132  10.609
97992W        W57528  25.478   9.722  14.998
97993W        W57529  27.150  16.308  14.843
97994W        W57530  44.503  26.498   1.394
97995W        W57531  11.747  43.426   1.922
97996W        W57532  30.134  19.649  12.837
97997W        W57533  38.507  26.698   0.346
97998W        W57534   0.836  22.518  13.454
97999W        W57535  39.439   6.780   3.369
98000W        W57536  30.156   2.231   4.727
98001W        W57537  44.997  36.953  12.400
98002W        W57538  21.041   3.227   3.332
98003W        W57539  13.801  36.073  14.352
98004W        W57540  40.480  20.572  11.503
98005W        W57541  41.943  32.132   0.372
98006W        W57542  39.354  26.603   3.301
98007W        W57543  14.149  25.681  10.895
98008W        W57544  30.060   5.771  10.978
98009W        W57545   5.849   2.850  12.083
98010W        W57546  40.018   1.343   1.837
98011W        W57547  14.778  39.906   2.299
98012W        W57548   9.862  23.130  12.514
98013W        W57549  32.482  12.327  14.795
98014W        W57550  14.784  31.565  13.373
98015W        W57551  25.500  41.376  12.829
98016W        W57552  34.888  17.754  14.299
98017W        W57553  13.668   1.481  11.084
98018W        W57554  41.482  11.654   5.318
98019W        W57555  41.457  33.392   1.877
98020W        W57556  42.358  18.104   2.409
98021W        W57557  36.998  33.551  13.055
98022W        W57558  15.291  44.905  11.611
98023W        W57559  13.836  15.790   3.302
98024W        W57560  19.550  43.810   4.177
98025W        W57561   6.341   3.885   1.784
98026W        W57562  39.955  43.309   2.232
98027W        W57563  27.649   4.725   0.952
98028W        W57564   3.919  44.455   2.331
98029W        W57565  35.076  24.713  12.364
98030W        W57566  37.053   0.887  14.906
98031W        W57567  37.084  15.274   3.199
98032W        W57568  21.710  40.483   4.125
98033W        W57569  28.580  24.672  14.334
98034W        W57570  37.568  35.979   4.200
98035W        W57571  18.281  15.796  12.451
98036W        W57572  11.628  16.633   3.160
98037W        W57573   9.734  17.745   0.897
98038W        W57574  34.498   5.720  13.818
98039W        W57575  38.964  33.966   1.885
98040W        W57576  25.975  18.654   1.366
98041W        W57577  14.231  23.058   4.120
98042W        W57578  25.578   2.378  14.902
98043W        W57579   9.340   5.791   2.419
98044W        W57580  20.576  37.433   3.233
98045W        W57581  43.870  42.413   1.834
98046W        W57582  29.078  15.304  13.410
98047W        W57583  29.070  15.215  13.887
98048W        W57584  16.282  33.526   0.258
98049W        W57585   4.253  14.715   4.600
98050W        W57586  12.690   3.446   2.194
98051W        W57587  10.232  40.339  11.916
98052W        W57588   3.955  26.544  13.990
98053W        W57589   7.254   4.246   4.622
98054W        W57590  31.499  13.277  14.760
98055W        W57591  14.824   0.759  11.931
98056W        W57592  13.741  20.157   2.691
98057W        W57593  20.579   0.456   0.455
98058W        W57594   5.413   4.724   0.748
98059W        W57595   5.905  29.112   1.258
98060W        W57596   8.405  44.266  13.990
98061W        W57597   8.405  26.962  12.020
98062W        W57598  40.401  34.935  10.456
98063W        W57599   7.814  19.121  13.535
98064W        W57600   8.748   9.745  11.534
98065W        W57601   7.382  29.006   4.731
98066W        W57602  25.502   6.300  13.480
98067W        W57603  43.387  11.318  12.928
98068W        W57604  33.932  43.779  13.539
98069W        W57605  43.469  35.454  12.912
98070W        W57606  44.418  40.983  12.019
98071W        W57607  43.355  23.680   2.677
98072W        W57608   9.267  15.721  10.515
98073W        W57609  20.084  32.615   1.339
98074W        W57610  28.626  21.752  11.940
98075W        W57611  18.770  18.692  10.041
98076W        W57612  11.628  12.624  10.604
98077W        W57613  22.546  26.200  12.360
98078W        W57614  28.627   7.335  13.009
98079W        W57615  29.055  22.007  12.464
98080W        W57616  29.059  18.095   2.858
98081W        W57617  29.983  36.564  10.566
98082W        W57618   2.426  19.712  11.864
98083W        W57619   8.839   4.421  13.906
98084W        W57620  21.622  10.820   0.340
98085W        W57621   0.434  26.513   4.310
98086W        W57622   0.774   9.715   2.787
98087W        W57623  27.972  39.402  12.432
98088W        W57624  41.968   4.922   4.609
98089W        W57625  44.963  25.666  12.404
98090W        W57626  13.274  19.625   2.776
98091W        W57627  31.606  19.087   3.779
98092W        W57628  37.831   9.654  13.000
98093W        W57629  18.663  34.902   2.676
98094W        W57630   3.412  38.339   3.299
98095W        W57631  23.154  27.987   1.852
98096W        W57632   6.792   7.362   2.389
98097W        W57633  32.000  43.891  10.092
98098W        W57634  14.240  14.832  10.606
98099W        W57635  21.606  14.835   0.258
98100W        W57636  33.956  24.570   3.236
98101W        W57637  38.050  26.962  11.965
98102W        W57638  31.903  42.319  11.394
98103W        W57639   0.822  26.647  13.032
98104W        W57640  32.014  28.454  12.409
98105W        W57641  36.500   3.771  14.804
98106W        W57642  39.030  15.594   4.756
98107W        W57643   8.707  29.547   3.188
98108W        W57644  31.902  28.179   4.781
98109W        W57645  21.621  10.159  13.974
98110W        W57646   5.757   0.342   2.881
98111W        W57647  36.033  43.777   0.259
98112W        W57648  30.589  14.153  10.413
98113W        W57649  37.421   3.286  14.895
98114W        W57650  33.970  40.946   1.421
98115W        W57651  37.006  29.094  14.395
98116W        W57652  20.104  28.563  10.435
98117W        W57653  32.453  23.683   5.201
98118W        W57654  24.025  16.601   4.147
98119W        W57655   8.698   1.751   4.804
98120W        W57656  12.227   0.831   2.898
98121W        W57657   7.255  18.673   1.451
98122W        W57658  27.522  16.266   3.666
98123W        W57659  23.621  33.052  11.438
98124W        W57660   1.787  33.100   3.774
98125W        W57661   2.316  38.438  10.591
98126W        W57662   7.181  15.728  13.028
98127W        W57663   6.200  15.189  10.894
98128W        W57664  20.184  10.771   1.275
98129W        W57665  27.588  35.091  13.055
98130W        W57666   8.392  31.468  11.384
98131W        W57667   7.813  29.493   1.319
98132W        W57668  35.480  21.558  13.333
98133W        W57669  41.901  35.591   1.742
98134W        W57670  38.949  41.441  14.968
98135W        W57671   7.782  38.422  11.377
98136W        W57672  22.162  38.333  12.551
98137W        W57673  22.223  23.685   3.807
98138W        W57674  17.160  38.861   2.815
98139W        W57675  20.652  33.414   1.821
98140W        W57676  30.630  17.146   5.129
98141W        W57677  38.471  40.839   3.166
98142W        W57678  24.549  18.210  11.600
98143W        W57679  39.501  15.133  12.952
98144W        W57680  37.035  29.545   0.807
98145W        W57681  33.994  33.432   0.312
98146W        W57682   9.832  24.634   3.238
98147W        W57683  16.238  35.442  14.977
98148W        W57684  20.653  44.342   0.834
98149W        W57685   4.771  25.689  11.456
98150W        W57686  44.960  44.997  13.528
98151W        W57687  11.737   6.270   1.221
98152W        W57688   9.261  18.632   0.419
98153W        W57689  37.472   1.252   1.878
98154W        W57690   1.904  26.153   4.827
98155W        W57691  40.319   7.826   0.449
98156W        W57692  32.553  31.038   3.804
98157W        W57693  25.179  39.910  11.526
98158W        W57694  22.745  30.643  14.494
98159W        W57695  30.539  32.505  12.363
98160W        W57696  31.901  13.317  11.511
98161W        W57697  40.830  15.738  14.461
98162W        W57698  41.493  22.023   4.164
98163W        W57699  27.554  36.010  13.819
98164W        W57700  43.361  22.609   0.956
98165W        W57701   1.290   5.392  10.916
98166W        W57702  34.067  37.338  11.119
98167W        W57703  19.091  10.163  12.542
98168W        W57704  37.432  39.347  14.314
98169W        W57705   3.843  35.481   0.735
98170W        W57706  41.299  21.238   0.832
98171W        W57707  22.679  38.904   0.301
98172W        W57708  24.091   4.249  12.508
98173W        W57709  23.108  35.088   1.400
98174W        W57710   7.395  17.710  11.443
98175W        W57711  33.901  16.316  11.579
98176W        W57712  43.481  20.612  11.101
98177W        W57713  12.647  11.191   1.219
98178W        W57714  32.538   3.392   1.397
98179W        W57715  17.074   5.272   4.718
98180W        W57716  44.973   6.741   0.367
98181W        W57717  27.076  22.721   3.338
98182W        W57718  35.365  42.901   1.292
98183W        W57719  21.095  26.203  12.838
98184W        W57720  23.090  28.652   4.679
98185W        W57721   6.838   9.804   2.816
98186W        W57722  18.637   7.683  11.037
98187W        W57723  11.308  24.157  11.014
98188W        W57724  13.846   5.196  11.038
98189W        W57725  13.633  26.687   1.735
98190W        W57726  24.211   0.332   1.214
98191W        W57727   4.395  10.748   3.150
98192W        W57728  41.463  20.697   2.714
98193W        W57729  38.035  32.132  13.533
98194W        W57730  43.492  21.737   0.401
98195W        W57731  18.558   0.987  11.506
98196W        W57732   6.684  22.742  12.547
98197W        W57733  29.010   4.407   2.851
98198W        W57734  41.926  17.119   4.271
98199W        W57735  39.966  39.924  13.501
98200W        W57736  27.173  18.216   3.712
98201W        W57737  25.036   0.754   0.731
98202W        W57738  40.956  39.871   1.741
98203W        W57739   7.222  38.437   2.769
98204W        W57740  18.164  14.266  10.976
98205W        W57741  38.502  39.945  10.973
98206W        W57742  31.617  34.989  10.434
98207W        W57743   2.920   8.199  12.941
98208W        W57744   3.735   8.310  14.826
98209W        W57745   9.839  40.973  13.020
98210W        W57746   1.896  29.919  11.083
98211W        W57747   2.346  30.913   3.237
98212W        W57748  28.488  30.612  10.486
98213W        W57749  20.082  24.543   1.266
98214W        W57750  21.697  25.687   0.403
98215W        W57751  33.121  40.380   0.365
98216W        W57752  21.706  20.246  10.893
98217W        W57753   3.224  33.986   2.817
98218W        W57754  37.491   6.193  11.068
98219W        W57755   9.346  17.596   0.332
98220W        W57756   3.758  43.298   4.320
98221W        W57757  16.225  40.850  11.422
98222W        W57758   8.837   3.882   0.733
98223W        W57759   6.249  34.510  11.113
98224W        W57760  40.896   3.908   4.141
98225W        W57761   7.874  15.622  10.051
98226W        W57762  27.469  39.997  14.821
98227W        W57763  20.585   7.814   3.809
98228W        W57764  17.721  11.749  11.879
98229W        W57765  20.095  10.714  10.909
98230W        W57766  17.610  11.281  10.623
98231W        W57767  41.430   2.242   5.083
98232W        W57768  40.328  42.779  10.084
98233W        W57769   4.841  12.287  13.353
98234W        W57770  28.137  25.150  14.448
98235W        W57771  20.704  18.270   3.758
98236W        W57772  43.889  35.037  12.481
98237W        W57773  26.035  42.820   4.745
98238W        W57774  22.583  21.643  14.469
98239W        W57775  21.251  35.098  13.991
98240W        W57776   0.828  20.738  11.977
98241W        W57777  21.191  18.629  12.837
98242W        W57778  33.382  39.538  10.610
98243W        W57779  25.187   4.888  13.336
98244W        W57780  15.264  18.561   2.884
98245W        W57781  23.205  35.875   3.675
98246W        W57782  34.922   0.966  14.504
98247W        W57783  14.249  30.044  10.899
98248W        W57784  41.972  36.527   0.340
98249W        W57785  22.092   2.804   0.293
98250W        W57786   9.750  40.935  14.939
98251W        W57787  37.403  44.309   2.408
98252W        W57788  40.885  30.023   2.785
98253W        W57789  26.690   4.245   2.214
98254W        W57790  31.124  28.094  12.488
98255W        W57791   1.866  35.392   3.207
98256W        W57792   5.826  14.637  13.990
98257W        W57793  25.215  35.597   0.464
98258W        W57794  10.300  42.838  11.510
98259W        W57795   8.188  30.591   2.902
98260W        W57796   0.986   0.812  10.434
98261W        W57797  25.698  26.159  14.931
98262W        W57798   2.236  17.285   1.818
98263W        W57799  29.116  26.113  14.997
98264W        W57800  38.031  27.494   0.340
98265W        W57801  39.482  19.253  12.524
98266W        W57802  31.919   3.918  13.488
98267W        W57803   8.268  29.063  14.842
98268W        W57804  27.972  30.158  10.451
98269W        W57805   0.979   7.852   1.366
98270W        W57806  11.624  10.633  13.969
98271W        W57807  38.897  39.433  10.541
98272W        W57808  32.553  19.272  11.034
98273W        W57809  39.001  29.983  13.512
98274W        W57810  30.558  38.849   3.840
98275W        W57811  17.181  44.885   3.354
98276W        W57812  15.141  17.083  13.411
98277W        W57813  27.046   1.957  14.007
98278W        W57814  33.458  32.518   2.901
98279W        W57815  28.665   2.241  13.953
98280W        W57816  15.708   1.266   1.435
98281W        W57817   7.864  43.469  14.459
98282W        W57818  36.903  16.233  14.957
98283W        W57819  21.734  39.427   3.746
98284W        W57820  30.505   1.254   2.307
98285W        W57821  20.160   2.276  13.930
98286W        W57822  12.647   5.296   3.240
98287W        W57823   1.450   6.824  14.392
98288W        W57824  36.446  25.505  14.308
98289W        W57825   4.336  27.519   0.891
98290W        W57826  42.483   9.679  13.340
98291W        W57827  29.941   7.195   3.202
98292W        W57828  43.911  31.451  11.892
98293W        W57829  21.557   4.435  11.461
98294W        W57830  26.189   1.455   0.797
98295W        W57831  40.823  12.681  13.474
98296W        W57832  24.524  23.151   5.286
98297W        W57833  35.935  29.128   2.715
98298W        W57834  20.558  27.478   1.876
98299W        W57835  36.938   0.374  14.955
98300W        W57836  30.497   8.199  11.562
98301W        W57837  22.251   6.297  12.440
98302W        W57838  27.091  24.488   0.922
98303W        W57839  38.854  30.133   2.387
98304W        W57840  24.694  29.083  12.484
98305W        W57841  44.307  22.631   2.715
98306W        W57842  40.965   1.423  13.003
98307W        W57843  33.618  12.641   4.810
98308W        W57844  31.631  31.557   2.235
98309W        W57845  41.901  34.401  10.996
98310W        W57846  27.086  30.607   2.662
98311W        W57847  31.593  19.093  12.353
98312W        W57848   2.849  14.820   2.752
98313W        W57849  25.661  15.588   4.642
98314W        W57850  40.930   0.364   0.934
98315W        W57851  17.227  31.106   2.350
98316W        W57852   8.829   4.374   1.935
98317W        W57853  39.859  29.564   1.848
98318W        W57854   3.924  20.243  12.997
98319W        W57855  16.763  11.191  12.935
98320W        W57856  35.047  29.587  13.879
98321W        W57857  25.496  26.577   1.701
98322W        W57858  13.233  31.546   4.279
98323W        W57859  34.917  19.135   0.449
98324W        W57860  16.668  11.848  14.497
98325W        W57861   7.275   4.827  12.906
98326W        W57862   6.216  37.931  14.510
98327W        W57863  30.455  13.715  10.545
98328W        W57864  14.661   9.226  14.409
98329W        W57865   5.841  23.586   4.821
98330W        W57866  18.056   4.745   4.802
98331W        W57867  24.695   9.271  11.492
98332W        W57868  31.033  29.143  13.801
98333W        W57869  14.795  35.475  10.497
98334W        W57870  13.246  20.592  14.832
98335W        W57871  33.598  16.609   9.931
98336W        W57872   2.911   6.852  11.989
98337W        W57873  14.310  16.282  10.938
98338W        W57874   7.904   0.271  10.092
98339W        W57875  30.548  41.009   3.651
98340W        W57876  43.440  27.590   0.390
98341W        W57877  24.718  13.332  14.365
98342W        W57878  44.853  17.646   2.690
98343W        W57879  23.056  43.858   4.668
98344W        W57880  13.159  36.592   0.385
98345W        W57881  22.605  34.399  13.795
98346W        W57882  39.860  22.995  13.396
98347W        W57883  28.144  29.490   2.813
98348W        W57884  15.778  25.103  11.414
98349W        W57885  12.690  44.311   0.304
98350W        W57886  12.217  15.749  11.998
98351W        W57887   0.946   9.801   2.253
98352W        W57888   0.898   7.822   3.711
98353W        W57889  40.969  25.025  13.487
98354W        W57890  22.181  37.987  13.049
98355W        W57891  12.148  32.964  10.504
98356W        W57892  31.644  13.773  14.363
98357W        W57893  19.261  24.677   1.922
98358W        W57894  25.587  32.561  14.897
98359W        W57895   7.700  39.030   0.382
98360W        W57896  34.433  23.064   3.747
98361W        W57897  38.358  33.037   0.347
98362W        W57898   5.231  37.906  10.949
98363W        W57899  39.903   0.468   3.317
98364W        W57900  34.908  23.026  14.989
98365W        W57901  18.723   9.166   1.303
98366W        W57902   8.721  13.162  12.410
98367W        W57903  24.219  26.162  11.021
98368W        W57904  38.359  43.976   1.451
98369W        W57905  34.479  35.596   0.846
98370W        W57906  18.114   5.931   4.152
98371W        W57907  28.016  16.807  14.422
98372W        W57908   3.311  25.552  14.960
98373W        W57909  12.150  34.932  11.475
98374W        W57910  29.474  25.142   5.101
98375W        W57911  32.574  13.813  12.081
98376W        W57912  24.641  38.965  14.813
98377W        W57913   6.695   9.714  13.514
98378W        W57914  41.004  42.422  14.488
98379W        W57915  12.131  37.914   4.247
98380W        W57916  16.240  22.999  11.960
98381W        W57917  16.104  21.147  10.532
98382W        W57918   9.869  22.092  11.490
98383W        W57919   0.794  19.567  14.988
98384W        W57920  44.317  29.114   2.281
98385W        W57921  12.166  38.056   0.422
98386W        W57922  15.245   8.326   9.600
98387W        W57923   6.401  13.334   2.335
98388W        W57924  43.771  42.438   0.940
98389W        W57925  35.442  14.631  14.505
98390W        W57926  42.520  17.616   1.882
98391W        W57927  29.550  39.560   1.734
98392W        W57928  15.104  24.016  12.900
98393W        W57929  20.231  28.667   2.736
98394W        W57930  14.216  27.084  11.998
98395W        W57931  26.981  42.831   0.392
98396W        W57932  36.061  29.557   4.603
98397W        W57933  39.554  17.727  13.515
98398W        W57934  22.735   1.826  12.448
98399W        W57935   3.860   0.921  11.447
98400W        W57936  22.082  39.833   0.302
98401W        W57937  23.219  25.116   4.686
98402W        W57938  20.545  30.107   3.172
98403W        W57939   3.304  36.576  11.375
98404W        W57940  41.011  26.103  12.553
98405W        W57941  33.884  27.505   2.311
98406W        W57942  24.483  13.350   4.267
98407W        W57943  18.574  22.187  12.027
98408W        W57944   1.818  27.149   1.809
98409W        W57945  40.530  32.081  12.571
98410W        W57946  44.762   2.859  14.489
98411W        W57947  40.931  13.316   1.217
98412W        W57948  39.434   4.832   4.672
98413W        W57949  11.623  10.670   3.316
98414W        W57950   1.359  17.558  12.397
98415W        W57951   7.778  21.186   2.890
98416W        W57952   3.339   8.302  12.066
98417W        W57953  15.716  39.458  14.323
98418W        W57954  13.658  37.058   3.242
98419W        W57955   2.415  17.650   1.296
98420W        W57956   2.780  14.621   1.924
98421W        W57957   5.344  25.502  13.399
98422W        W57958  21.705  23.057  12.400
98423W        W57959  27.635  20.200  11.482
98424W        W57960  39.981   5.291   3.832
98425W        W57961   3.276  25.565   0.920
98426W        W57962  44.266  10.853   2.382
98427W        W57963   3.715  41.299   1.435
98428W        W57964  35.968  26.576  13.894
98429W        W57965  22.223  44.758   0.960
98430W        W57966  18.155   5.807   4.654
98431W        W57967  10.285  10.717   0.829
98432W        W57968  39.025   0.478  14.860
98433W        W57969   9.807   7.383  14.389
98434W        W57970  32.495  27.690   9.512
98435W        W57971  13.695  37.537   0.396
98436W        W57972   8.286   9.819   2.179
98437W        W57973   9.785   4.878   4.749
98438W        W57974  41.848  43.397  12.962
98439W        W57975  27.185  31.554   2.814
98440W        W57976  37.930   6.190  12.917
98441W        W57977  25.049  20.099   0.350
98442W        W57978  33.972  31.109   0.444
98443W        W57979  38.513  16.094   2.256
98444W        W57980  21.192  23.183   0.422
98445W        W57981  25.180  41.991   4.253
98446W        W57982   0.402  12.300  12.480
98447W        W57983   3.783  17.675  12.088
98448W        W57984  35.478   4.330   1.359
98449W        W57985  42.954  19.183   3.219
98450W        W57986   1.735  31.109  10.434
98451W        W57987  11.337  35.471  14.368
98452W        W57988   5.740  26.681   2.798
98453W        W57989   8.727  32.983   1.897
98454W        W57990  38.063  16.740   2.863
98455W        W57991   6.262   3.944  13.310
98456W        W57992  20.657  23.186  11.492
98457W        W57993  32.987   9.706  14.984
98458W        W57994  14.233   2.830   4.158
98459W        W57995  26.129  20.695   2.816
98460W        W57996   6.803  22.248   2.239
98461W        W57997  44.294  29.118   3.270
98462W        W57998  18.152   1.752  10.999
98463W        W57999  36.901  36.852  10.533
98464W        W58000   3.912   3.912  14.350
98465W        W58001   2.894  29.530   0.859
98466W        W58002  18.062   4.388   0.299
98467W        W58003  25.499  28.947  12.027
98468W        W58004   1.393  44.825  12.539
98469W        W58005   3.827  42.524  14.770
98470W        W58006   5.770  27.073  14.349
98471W        W58007  34.049  27.019   1.885
98472W        W58008  10.696   1.464   1.436
98473W        W58009   7.862  44.496   2.707
98474W        W58010   9.817  23.510  14.839
98475W        W58011  39.018  41.948  14.275
98476W        W58012  14.632  29.970   0.362
98477W        W58013  11.168   1.872  12.501
98478W        W58014   2.940  18.774   1.405
98479W        W58015  12.623  34.089   4.650
98480W        W58016   5.852  36.960   4.119
98481W        W58017  15.807  22.188   2.787
98482W        W58018   5.216  32.592   1.883
98483W        W58019   0.323  31.124   3.840
98484W        W58020  15.712  27.616   4.309
98485W        W58021   5.215  17.670   3.264
98486W        W58022  16.577   1.474   4.253
98487W        W58023   8.264  35.977  11.567
98488W        W58024  42.468  35.093   2.870
98489W        W58025  20.571  42.782  14.818
98490W        W58026  14.777   9.737  10.479
98491W        W58027  41.293  32.061   4.180
98492W        W58028   3.723   4.298  10.641
98493W        W58029   9.203   6.411   2.283
98494W        W58030  18.723  24.976  11.595
98495W        W58031  14.676  36.846   4.753
98496W        W58032   2.859   4.796  11.051
98497W        W58033  23.171  24.673   4.633
98498W        W58034   1.238  12.164  13.970
98499W        W58035  18.210   3.264   1.305
98500W        W58036   6.770  15.614   0.368
98501W        W58037  33.006  28.505   4.335
98502W        W58038   9.296  13.179   4.829
98503W        W58039  16.709  25.573  11.437
98504W        W58040  24.210  20.187   1.418
98505W        W58041   0.400  43.420  14.349
98506W        W58042  35.098  36.843   2.661
98507W        W58043   5.857  39.412  13.808
98508W        W58044  17.228  34.042  14.818
98509W        W58045  29.520  10.248  13.349
98510W        W58046  32.623   3.400  13.993
98511W        W58047  17.263  27.507   1.722
98512W        W58048  37.555  35.863  12.030
98513W        W58049  30.656   4.768   4.622
98514W        W58050   9.277  44.004  11.070
98515W        W58051   2.766  13.194  10.587
98516W        W58052   6.687   5.721   4.795
98517W        W58053  26.621  22.741  14.925
98518W        W58054   4.749  19.629  13.476
98519W        W58055  42.442   1.877  10.903
98520W        W58056  42.396  25.144   4.603
98521W        W58057   6.828  13.605  13.311
98522W        W58058   6.922  22.641   1.921
98523W        W58059  27.570  42.813   3.631
98524W        W58060  40.387   7.883   4.739
98525W        W58061  34.564  32.492   1.240
98526W        W58062   0.473   6.705  10.443
98527W        W58063   8.404  28.026   3.248
98528W        W58064   1.780  30.460  11.466
98529W        W58065   6.184  15.803  10.510
98530W        W58066  17.741  21.727   1.835
98531W        W58067  34.896  11.656   3.843
98532W        W58068  28.471  13.347   4.301
98533W        W58069  22.123   6.361  12.070
98534W        W58070  36.447   2.733  11.539
98535W        W58071   5.811  30.425   0.349
98536W        W58072  35.545   9.842  12.421
98537W        W58073  26.035  40.986  10.922
98538W        W58074  17.753  43.399  11.567
98539W        W58075   9.364  17.275  12.953
98540W        W58076  35.985   5.698  14.337
98541W        W58077   4.393  10.784  10.482
98542W        W58078   6.230   9.781  11.422
98543W        W58079  29.497  41.987  10.510
98544W        W58080  23.579  14.305   3.723
98545W        W58081  32.614  12.172   3.322
98546W        W58082  44.876  27.681  13.411
98547W        W58083  37.483  28.122   2.179
98548W        W58084  24.105  36.987  14.884
98549W        W58085   1.344  30.436  14.370
98550W        W58086  26.545  41.829  11.961
98551W        W58087  11.744  35.990  14.384
98552W        W58088  27.566   5.252   2.795
98553W        W58089  14.718  23.596  14.801
98554W        W58090   0.265  28.639   1.299
98555W        W58091  31.951  26.695   1.285
98556W        W58092  26.024  13.720  10.609
98557W        W58093   8.826  33.092   2.180
98558W        W58094  40.521   6.214   0.308
98559W        W58095  10.186  39.928   3.330
98560W        W58096  14.808   8.226  11.476
98561W        W58097   7.176   5.330   2.217
98562W        W58098  42.367   2.444   2.839
98563W        W58099  38.930  10.269  13.453
98564W        W58100  35.901  40.860   4.805
98565W        W58101  33.108   4.248   0.320
98566W        W58102  44.792   1.811   1.826
98567W        W58103   8.671  40.910  12.884
98568W        W58104  42.375  14.108   2.281
98569W        W58105  39.932  13.348   1.381
98570W        W58106  41.011   1.910   4.325
98571W        W58107  32.968  33.044  14.976
98572W        W58108  18.544  44.789   2.401
98573W        W58109  36.040   0.366  14.506
98574W        W58110  39.003  17.119  13.033
98575W        W58111  41.953  30.549   9.973
98576W        W58112   4.703  42.025  10.450
98577W        W58113  18.681  10.749  12.863
98578W        W58114  23.569  23.653   2.388
98579W        W58115  36.505  26.186   0.281
98580W        W58116  36.865  13.765   2.225
98581W        W58117   7.770   7.800  11.969
98582W        W58118  22.706  24.521   3.753
98583W        W58119  29.109  21.076   1.269
98584W        W58120  21.213  31.140   2.283
98585W        W58121  27.600  26.969   2.404
98586W        W58122  19.168  31.593  14.884
98587W        W58123  36.504   6.325  13.407
98588W        W58124   7.183  22.706  12.464
98589W        W58125   8.207   7.407  12.550
98590W        W58126   5.307   0.894  10.573
98591W        W58127   3.392  20.071   2.365
98592W        W58128  18.091  19.122  13.984
98593W        W58129  30.645  14.110  14.281
98594W        W58130  25.136  29.992  13.440
98595W        W58131  22.514   8.230  14.512
98596W        W58132   7.246  13.343   3.266
98597W        W58133  18.055  42.784  13.832
98598W        W58134  25.061  19.237   3.191
98599W        W58135  28.620  12.172  14.778
98600W        W58136  43.797  14.118   2.854
98601W        W58137  42.032   2.405  10.587
98602W        W58138  20.670  18.670   0.897
98603W        W58139  14.244  20.565   2.418
98604W        W58140   2.862  18.692  11.880
98605W        W58141  36.998  43.327  13.494
98606W        W58142  16.154  16.613   3.808
98607W        W58143  14.700  38.057  12.022
98608W        W58144  21.126   4.284  11.568
98609W        W58145  24.056  18.615   2.690
98610W        W58146   7.783  20.593   2.378
98611W        W58147  10.854  34.428   4.148
98612W        W58148  22.070   0.361   4.637
98613W        W58149  11.146  24.056  12.932
98614W        W58150   4.904  43.309  13.381
98615W        W58151  26.158  22.580   4.824
98616W        W58152  44.781  26.469   3.293
98617W        W58153  39.012  35.069   4.168
98618W        W58154   4.721  13.728   3.670
98619W        W58155   6.197  17.618  11.553
98620W        W58156  41.888  17.709   2.386
98621W        W58157  20.668  39.491   1.406
98622W        W58158  23.151  22.596  10.435
98623W        W58159   9.279  31.071  14.449
98624W        W58160  32.973   4.274   2.212
98625W        W58161  13.830  13.842  10.906
98626W        W58162  18.735  11.142   2.339
98627W        W58163  29.118  18.620  12.515
98628W        W58164  17.162  19.164   2.892
98629W        W58165  10.662  25.497  10.053
98630W        W58166   9.196  33.999  10.603
98631W        W58167   1.780  42.432   4.712
98632W        W58168  41.923   0.472  13.523
98633W        W58169  11.131   8.396   2.243
98634W        W58170   5.833  10.329  10.051
98635W        W58171   4.860  29.454   4.766
98636W        W58172  23.091   1.809  14.942
98637W        W58173  20.046  17.621   2.839
98638W        W58174  38.401  16.240  12.972
98639W        W58175   1.466  35.478  12.924
98640W        W58176  35.000  23.091  12.000
98641W        W58177   1.342  24.056   5.658
98642W        W58178   1.444  29.455   1.794
98643W        W58179  38.457  21.548  10.546
98644W        W58180  39.549   3.910   2.225
98645W        W58181  19.182  34.394   2.687
98646W        W58182  15.158  23.548  14.831
98647W        W58183   5.358  43.012   5.121
98648W        W58184  43.490  27.000   3.757
98649W        W58185  39.953  10.252  10.898
98650W        W58186  16.232   2.762   2.826
98651W        W58187  41.504  30.985   1.800
98652W        W58188  42.959  25.473   5.185
98653W        W58189  37.870  34.974   3.684
98654W        W58190   2.268  40.408  13.499
98655W        W58191   7.745  19.590   0.296
98656W        W58192  33.399  15.241  14.947
98657W        W58193  28.010   6.832  14.780
98658W        W58194  11.346   8.353  12.369
98659W        W58195   7.199  30.548   2.387
98660W        W58196  15.271  37.438  12.384
98661W        W58197  11.359  39.870  11.062
98662W        W58198  13.352  29.477   1.288
98663W        W58199  26.035  33.114  11.442
98664W        W58200  16.711  34.913   4.677
98665W        W58201  26.169  41.004   2.240
98666W        W58202  13.809  16.122  12.950
98667W        W58203   2.428  38.448   2.747
98668W        W58204  38.366  28.651   2.793
98669W        W58205  30.115  41.810   4.671
98670W        W58206   9.704  27.027  11.556
98671W        W58207  22.613  37.892   3.650
98672W        W58208  19.665  26.028  12.497
98673W        W58209  20.147  28.137  13.870
98674W        W58210  37.497  36.061   3.150
98675W        W58211   2.741  33.432   3.379
98676W        W58212   7.753   5.889   1.369
98677W        W58213  16.636  29.014   2.766
98678W        W58214  26.654  24.512   4.690
98679W        W58215   2.936  14.816  14.500
98680W        W58216   4.731   0.838   4.699
98681W        W58217  21.145   3.906  13.349
98682W        W58218   7.864  10.829   1.910
98683W        W58219  35.041  36.938   1.877
98684W        W58220  34.406  33.930  12.574
98685W        W58221  14.294  26.610  12.458
98686W        W58222  44.802   1.397   4.692
98687W        W58223   4.924   9.258   0.867
98688W        W58224  28.515  27.562  14.822
98689W        W58225  28.624  33.507  10.517
98690W        W58226  26.466  18.245  14.768
98691W        W58227  27.457  35.051  12.545
98692W        W58228  22.070  33.017  11.403
98693W        W58229  11.815   0.327  11.884
98694W        W58230  19.625   4.778   3.299
98695W        W58231   0.962  10.715   9.987
98696W        W58232  40.852  24.217   3.774
98697W        W58233   4.361  21.081   4.257
98698W        W58234  31.433   5.247  11.391
98699W        W58235  35.551  29.087   3.317
98700W        W58236   6.403  24.723   0.859
98701W        W58237  43.906  37.438  11.119
98702W        W58238   7.766   4.330   0.274
98703W        W58239  17.616  26.062  11.938
98704W        W58240   1.871  20.141  14.509
98705W        W58241  28.597  37.410   4.305
98706W        W58242  43.916   7.857   4.766
98707W        W58243  11.729   3.823  10.464
98708W        W58244  14.338  33.966  10.896
98709W        W58245  40.484   1.473   3.776
98710W        W58246  39.497  33.055   4.813
98711W        W58247   1.886  15.225  12.898
98712W        W58248  23.171  40.851   4.267
98713W        W58249  17.082  23.563   3.346
98714W        W58250  37.900   3.305   3.724
98715W        W58251  21.613  18.689  12.409
98716W        W58252  34.503  40.482   0.342
98717W        W58253   8.229   2.961   0.850
98718W        W58254  41.834  27.067  11.511
98719W        W58255  30.073  29.618  10.570
98720W        W58256  36.942  28.006  11.418
98721W        W58257  29.566   5.858  13.829
98722W        W58258  10.742  13.162  11.463
98723W        W58259  40.509  39.500  11.968
98724W        W58260  14.294  21.172  12.467
98725W        W58261  28.514  42.011   0.244
98726W        W58262  18.607  43.515  14.381
98727W        W58263  24.644  22.996  11.522
98728W        W58264   9.871  16.307  11.924
98729W        W58265  33.888  40.478  12.501
98730W        W58266  25.160   5.839   4.346
98731W        W58267  34.478  27.007  13.309
98732W        W58268  14.717  28.521  12.433
98733W        W58269   7.193  28.472   1.853
98734W        W58270  37.959  14.254   2.209
98735W        W58271   4.209  26.163  12.027
98736W        W58272  20.114   9.360  12.896
98737W        W58273  29.660   0.784  11.505
98738W        W58274  35.852  39.341   4.259
98739W        W58275  20.650  30.478   4.691
98740W        W58276  35.376  35.602   0.402
98741W        W58277   7.312  12.701  11.096
98742W        W58278  44.869  38.394  12.540
98743W        W58279  25.060  26.170   0.271
98744W        W58280   6.870  13.774   1.349
98745W        W58281  15.694  38.919   0.876
98746W        W58282  40.873  21.152  14.433
98747W        W58283  30.004   1.945   3.377
98748W        W58284  11.192  21.172   0.963
98749W        W58285  26.161  39.992   4.807
98750W        W58286   7.416  20.041  10.974
98751W        W58287   0.832  33.441   1.276
98752W        W58288  31.002  37.933  10.560
98753W        W58289  31.958  34.375   2.333
98754W        W58290  11.745  44.386   2.219
98755W        W58291   6.208  27.096   0.259
98756W        W58292  18.226  15.677  13.987
98757W        W58293  13.105  16.700   3.818
98758W        W58294  11.164  38.409  14.340
98759W        W58295  30.415  39.808  14.297
98760W        W58296  33.501  36.408   0.852
98761W        W58297  42.497   4.788   2.239
98762W        W58298  17.752  32.143   0.337
98763W        W58299  12.800   5.817   3.748
98764W        W58300   2.822  21.716   4.706
98765W        W58301  10.685  27.187  12.984
98766W        W58302  15.725  33.536  10.609
98767W        W58303   3.372  41.966  12.000
98768W        W58304   3.394  43.846  14.898
98769W        W58305  15.702   5.311  13.525
98770W        W58306  14.278   0.287  12.496
98771W        W58307  24.715  29.016  13.860
98772W        W58308   7.891   7.357   9.973
98773W        W58309  27.511  27.118   4.698
98774W        W58310  20.733  20.119  12.971
98775W        W58311   6.397   8.750   3.810
98776W        W58312  25.110  39.946   2.794
98777W        W58313  31.115  38.986  11.412
98778W        W58314  35.909  42.525   0.830
98779W        W58315  10.347  32.946   1.440
98780W        W58316  23.520   6.724   5.262
98781W        W58317   8.809  19.556   4.291
98782W        W58318  31.409  42.390   4.761
98783W        W58319   1.275  31.135   3.854
98784W        W58320  15.666  27.584  11.963
98785W        W58321  19.159  17.630   2.786
98786W        W58322  24.167   1.903   2.757
98787W        W58323  15.102   5.747   1.734
98788W        W58324  42.853   9.206  10.494
98789W        W58325  17.777  27.168   4.698
98790W        W58326  21.668   7.673   3.206
98791W        W58327  17.169  25.629  10.888
98792W        W58328  29.580  39.053  11.393
98793W        W58329  13.162  39.868   4.160
98794W        W58330  36.973   9.353  13.898
98795W        W58331  40.320  15.180   2.250
98796W        W58332  13.817  17.161  11.438
98797W        W58333   5.848  20.116  13.443
98798W        W58334  19.680  10.212  14.873
98799W        W58335  20.579  42.898   0.839
98800W        W58336  10.177  24.495  14.468
98801W        W58337  32.561  30.956   4.605
98802W        W58338   2.762  44.992   1.701
98803W        W58339  38.500  19.603   0.954
98804W        W58340  23.499  36.892  13.029
98805W        W58341   5.408  27.036   5.182
98806W        W58342  43.296   8.733   4.349
98807W        W58343  20.149  38.929   1.741
98808W        W58344  37.461   8.713   3.182
98809W        W58345   9.212  28.585  14.360
98810W        W58346   5.260  25.524  13.874
98811W        W58347  19.570  42.311   3.692
98812W        W58348  37.833  29.568   2.750
98813W        W58349  40.936  37.843  12.994
98814W        W58350  39.482  33.546  11.462
98815W        W58351  40.341  32.451  12.072
98816W        W58352  31.937  28.099  10.921
98817W        W58353  32.577   2.377  13.847
98818W        W58354   4.817  22.602   4.828
98819W        W58355   6.751   0.805  14.891
98820W        W58356  17.158  16.781  14.993
98821W        W58357   6.830  16.216   3.231
98822W        W58358  34.547  14.660  14.994
98823W        W58359  22.690  13.191   3.299
98824W        W58360  21.719   6.825   1.270
98825W        W58361  31.543  26.198   2.323
98826W        W58362  10.759  20.747  14.867
98827W        W58363   1.368   1.247  14.815
98828W        W58364  11.793   8.767   5.320
98829W        W58365  26.653  38.416   1.861
98830W        W58366   0.790  18.676   4.265
98831W        W58367  43.494  11.154  14.871
98832W        W58368  23.630  42.943  14.846
98833W        W58369  30.099  31.486   1.438
98834W        W58370  20.702  26.043   3.369
98835W        W58371  13.726   2.750   1.742
98836W        W58372  25.131  13.144  12.876
98837W        W58373  36.439   9.261   3.308
98838W        W58374  16.637  22.704  12.069
98839W        W58375  28.970  13.695  14.932
98840W        W58376   9.799  23.627   4.769
98841W        W58377  25.997  26.580  11.539
98842W        W58378  32.590  20.116  10.552
98843W        W58379  43.869  17.678   1.431
98844W        W58380   1.246  42.855   3.313
98845W        W58381  42.330  15.587   1.359
98846W        W58382  41.945   6.365   3.283
98847W        W58383  30.423  28.959   0.248
98848W        W58384  15.191  41.534   2.194
98849W        W58385   7.224   4.850  11.449
98850W        W58386  38.939  16.726  11.559
98851W        W58387  38.343  42.012  11.396
98852W        W58388  39.810  34.028  11.568
98853W        W58389  20.222  41.820  14.499
98854W        W58390  34.452  35.565   3.309
98855W        W58391  12.647   1.799  12.384
98856W        W58392  38.053   3.222  13.988
98857W        W58393  23.677  15.621  12.824
98858W        W58394  43.881  26.488  12.449
98859W        W58395  29.599  40.503  10.550
98860W        W58396  11.624  24.683   2.741
98861W        W58397  20.204  13.697  10.614
98862W        W58398  31.981  10.275  14.954
98863W        W58399  30.915  11.749  13.914
98864W        W58400   1.427   7.288  14.899
98865W        W58401  15.179  26.201   2.330
98866W        W58402  15.788  18.197  13.328
98867W        W58403  25.218  32.961   0.479
98868W        W58404   7.884  36.001   4.204
98869W        W58405  37.347  14.711   3.794
98870W        W58406  22.022  12.162  12.497
98871W        W58407  11.307  31.519   0.455
98872W        W58408   9.348  13.649  14.827
98873W        W58409  12.317  20.086   3.662
98874W        W58410  15.243   7.257   2.336
98875W        W58411  25.701   8.196  11.863
98876W        W58412   1.392  24.657   3.690
98877W        W58413  28.087  42.919   2.254
98878W        W58414  17.156  40.323  13.388
98879W        W58415  44.887  39.852   2.784
98880W        W58416   3.852   6.839  13.932
98881W        W58417   7.743  36.361  10.515
98882W        W58418  30.045  24.515  13.534
98883W        W58419   0.863  43.905  14.921
98884W        W58420  34.955   2.904   4.243
98885W        W58421  14.814   2.947  13.411
98886W        W58422  18.206  23.533  12.041
98887W        W58423  42.913  27.652   2.815
98888W        W58424  36.092  30.148  10.937
98889W        W58425   6.272  20.768   2.360
98890W        W58426  10.254  41.947   2.224
98891W        W58427  28.463   7.354   4.609
98892W        W58428  40.012  23.541  10.508
98893W        W58429  14.148  34.518  11.479
98894W        W58430  28.089   0.250   2.733
98895W        W58431   0.302   9.690  12.939
98896W        W58432  20.756  28.609  11.480
98897W        W58433   7.801  29.450   0.868
98898W        W58434   3.863  21.705  13.935
98899W        W58435  10.862  30.001   2.866
98900W        W58436  13.655  33.944   3.277
98901W        W58437  22.682  34.430   1.287
98902W        W58438  36.021   2.822   2.889
98903W        W58439   8.767  14.822   2.712
98904W        W58440  11.326  35.438  10.530
98905W        W58441  11.252  31.556  12.539
98906W        W58442  38.045  19.780  14.281
98907W        W58443  37.483   0.343   3.780
98908W        W58444   7.304  32.636   2.779
98909W        W58445  25.068  11.177   4.809
98910W        W58446   5.401   7.871  10.888
98911W        W58447  15.803  40.405   3.278
98912W        W58448  30.525   2.419  12.883
98913W        W58449   4.398  29.506  13.975
98914W        W58450   5.767  21.164   1.808
98915W        W58451  12.302  20.682  11.612
98916W        W58452  11.858   3.302  13.855
98917W        W58453  27.577  10.733   0.244
98918W        W58454  15.759  39.338  11.527
98919W        W58455   3.771  43.829  11.887
98920W        W58456  16.741  30.493  10.549
98921W        W58457  24.178  25.163   4.602
98922W        W58458   5.769  11.329  12.379
98923W        W58459  18.055  27.584  11.575
98924W        W58460  32.991  18.631  14.358
98925W        W58461   4.364   9.788  14.979
98926W        W58462  18.179  29.515   3.154
98927W        W58463   1.759  20.101  10.610
98928W        W58464  35.074  32.588   0.309
98929W        W58465  22.609  35.916   0.961
98930W        W58466  23.588  12.178  11.944
98931W        W58467  44.925  19.266  11.498
98932W        W58468  32.629  26.129  10.934
98933W        W58469  11.719  32.140   5.182
98934W        W58470   9.719  33.407   4.178
98935W        W58471   1.282  34.559   2.416
98936W        W58472  10.351  25.714  11.562
98937W        W58473  16.293  37.358   1.768
98938W        W58474  18.238  44.754  10.957
98939W        W58475  28.141  25.083   0.390
98940W        W58476  42.907  38.993   0.369
98941W        W58477  40.413  16.763  10.603
98942W        W58478  38.903  28.489   4.163
98943W        W58479  42.351   8.356   1.235
98944W        W58480   1.246  23.149  10.149
98945W        W58481   6.770  18.175   4.704
98946W        W58482  15.615  17.252  13.486
98947W        W58483  44.825  16.697  14.964
98948W        W58484  13.184  31.083  11.536
98949W        W58485  11.662  40.840   4.816
98950W        W58486  24.674   2.930   3.724
98951W        W58487  22.742  34.403   3.662
98952W        W58488  19.090  21.148   2.800
98953W        W58489   5.388  39.548  13.390
98954W        W58490  15.596  10.206  12.927
98955W        W58491  28.025  24.598   1.315
98956W        W58492   8.213  41.998  14.945
98957W        W58493   3.953  23.056  13.328
98958W        W58494   2.725   1.381   4.312
98959W        W58495  11.819  31.526   3.368
98960W        W58496  28.119  18.204   3.754
98961W        W58497   8.794  20.033  12.457
98962W        W58498  23.083   7.677  14.860
98963W        W58499   7.701   6.348  14.501
98964W        W58500  42.469  36.559   1.284
98965W        W58501  38.506  41.517   0.264
98966W        W58502  30.910  40.002   1.812
98967W        W58503  14.808  19.651  13.959
98968W        W58504  42.871   1.798   1.444
98969W        W58505  43.434  40.472   0.772
98970W        W58506  31.000   6.804  13.506
98971W        W58507  35.571  21.538  11.987
98972W        W58508  18.255  31.036  10.559
98973W        W58509  41.828   1.791   0.950
98974W        W58510  10.282  26.471   1.880
98975W        W58511   6.244  14.630   4.121
98976W        W58512  31.626  40.396   3.283
98977W        W58513  13.792  28.040   1.232
98978W        W58514  21.032  21.658  13.886
98979W        W58515   7.355  28.531   1.329
98980W        W58516  21.676  42.512  11.426
98981W        W58517  27.986  26.578   0.354
98982W        W58518  24.071  14.657   0.893
98983W        W58519  18.136   2.752   1.694
98984W        W58520  23.163  17.199   2.184
98985W        W58521   2.954  18.159   1.293
98986W        W58522   1.435  38.486  11.048
98987W        W58523  41.450  29.480  14.007
98988W        W58524  44.876  23.542  11.406
98989W        W58525  13.740  10.656  13.829
98990W        W58526  39.547  27.467  10.492
98991W        W58527   0.326  24.631   4.608
98992W        W58528  33.100  31.529  13.461
98993W        W58529  25.687  13.804  12.883
98994W        W58530   7.410  36.561  12.067
98995W        W58531   5.885  26.514  11.993
98996W        W58532  22.148  38.429   0.338
98997W        W58533  13.669   7.730  12.404
98998W        W58534  42.497  24.115   3.737
98999W        W58535  32.474  16.800  12.041
99000W        W58536  43.890  37.508   2.291
99001W        W58537  22.179   3.398   2.272
99002W        W58538  27.580  22.647  14.396
99003W        W58539   1.907   4.807  12.948
99004W        W58540  15.633  19.180  14.935
99005W        W58541  14.693  28.580   1.407
99006W        W58542   4.222  14.144   2.863
99007W        W58543  31.049  31.593   3.173
99008W        W58544  10.297  34.047  13.495
99009W        W58545   2.412   6.189   3.150
99010W        W58546  39.527  39.339  11.119
99011W        W58547  44.432  39.542   0.853
99012W        W58548  14.222  18.633   3.230
99013W        W58549   4.393  25.551   3.870
99014W        W58550  23.187  40.514   1.913
99015W        W58551  33.082  30.009  14.830
99016W        W58552  19.190  41.023   2.200
99017W        W58553  36.003  24.574   2.796
99018W        W58554  20.192  11.798  13.931
99019W        W58555  40.472  33.589   4.778
99020W        W58556  36.550   2.803  10.552
99021W        W58557  24.064   0.943   3.169
99022W        W58558  27.030   6.223  10.530
99023W        W58559  22.085   7.213  11.011
99024W        W58560  10.297  18.254  12.472
99025W        W58561  15.288   0.929   4.616
99026W        W58562   3.259  23.186  12.347
99027W        W58563  44.435  11.334  11.427
99028W        W58564  31.151  21.142   0.252
99029W        W58565  17.622   2.863   3.830
99030W        W58566  16.080  29.969  12.081
99031W        W58567  34.007   0.282   4.289
99032W        W58568  31.500  43.992  13.064
99033W        W58569  19.575  27.548   4.668
99034W        W58570   3.443  30.472  10.028
99035W        W58571  40.907  39.976   3.304
99036W        W58572   7.266  15.219   2.337
99037W        W58573   5.835   5.213  13.387
99038W        W58574  40.962  10.280   4.772
99039W        W58575  35.947  16.659  13.847
99040W        W58576   0.357   8.772  14.839
99041W        W58577  43.867  27.464   2.391
99042W        W58578  42.966  27.578   1.276
99043W        W58579  16.605  12.808  11.534
99044W        W58580   8.886  16.661   2.354
99045W        W58581  22.599  14.096   2.725
99046W        W58582  20.639  13.772   2.261
99047W        W58583  16.789  20.082  12.894
99048W        W58584  12.348   3.745  13.851
99049W        W58585  18.166  13.329  11.064
99050W        W58586  33.387  18.142  10.622
99051W        W58587  16.611  26.162   0.947
99052W        W58588  12.251  30.544   4.244
99053W        W58589   1.768  22.709  14.898
99054W        W58590   4.911  40.547  12.559
99055W        W58591  36.394  22.181  14.803
99056W        W58592  10.872  12.163  11.938
99057W        W58593  42.365  34.073  11.587
99058W        W58594  44.915   6.900  10.895
99059W        W58595   0.412   2.415  11.087
99060W        W58596  35.425   5.929  11.433
99061W        W58597  38.849  15.732  14.474
99062W        W58598   9.750  33.065  14.503
99063W        W58599  34.015  18.661   0.865
99064W        W58600  33.121  26.692  12.967
99065W        W58601  44.848  20.590  12.436
99066W        W58602  28.989  16.185  14.386
99067W        W58603  29.988  16.675   3.172
99068W        W58604  43.969  35.460  10.469
99069W        W58605  30.079  13.766  11.428
99070W        W58606   9.351  31.436  12.575
99071W        W58607  16.313   2.941   0.431
99072W        W58608  34.078  24.160   0.473
99073W        W58609   5.701  22.122  13.971
99074W        W58610   7.208  25.176  13.544
99075W        W58611  15.210  25.673  13.895
99076W        W58612  18.132  36.402   0.414
99077W        W58613  34.918  20.582   4.781
99078W        W58614  31.129  13.829   3.292
99079W        W58615  21.704  22.614  13.397
99080W        W58616   0.428  36.563  12.468
99081W        W58617  30.989  12.196  11.587
99082W        W58618   1.416  42.521  13.792
99083W        W58619  30.497  18.601  10.522
99084W        W58620   0.872  19.044   4.659
99085W        W58621   1.826  42.390  12.853
99086W        W58622   3.244  42.005   0.394
99087W        W58623  31.530  18.130   4.836
99088W        W58624  40.800   8.365   2.222
99089W        W58625  22.036   3.292  13.321
99090W        W58626  25.087  31.907   3.805
99091W        W58627  22.627  24.986   1.765
99092W        W58628  25.038   9.395  13.442
99093W        W58629  12.191  18.263  14.812
99094W        W58630  20.548  26.627   1.218
99095W        W58631   9.380  19.269   0.877
99096W        W58632  11.804  43.809   4.150
99097W        W58633  23.037  35.490  14.380
99098W        W58634  25.623   7.754  10.147
99099W        W58635   9.794   7.288  12.946
99100W        W58636  40.420  38.049   1.802
99101W        W58637  21.253  38.473   4.295
99102W        W58638  36.970   5.722  14.888
99103W        W58639  26.527  33.402   1.446
99104W        W58640  34.972  36.400   3.657
99105W        W58641  38.431  29.114   1.421
99106W        W58642  26.521  25.995  14.824
99107W        W58643  39.544  11.694   1.293
99108W        W58644  28.555  35.088   1.378
99109W        W58645  40.933   2.296   4.656
99110W        W58646   9.256  14.251   0.729
99111W        W58647  26.196  21.245   2.711
99112W        W58648  15.660  23.165   3.278
99113W        W58649  19.568  35.902   3.249
99114W        W58650   4.293  36.877   3.820
99115W        W58651  21.125   4.335   2.887
99116W        W58652   5.327  12.838  10.989
99117W        W58653  13.732   8.248  10.160
99118W        W58654  24.195  25.014  10.546
99119W        W58655  22.160   3.444  14.423
99120W        W58656  10.729   1.245   0.249
99121W        W58657  30.047  22.602  14.870
99122W        W58658  34.384  40.396  13.010
99123W        W58659  14.697  39.958  11.463
99124W        W58660   5.764  28.598   1.277
99125W        W58661   5.835  16.108   2.224
99126W        W58662  43.879  44.388   2.370
99127W        W58663  16.677  22.530  12.529
99128W        W58664  40.417  37.856  12.376
99129W        W58665   3.710  13.292  12.983
99130W        W58666  10.853  18.286  11.431
99131W        W58667  22.025  17.582  13.058
99132W        W58668  43.455  12.684   0.428
99133W        W58669   8.267  22.695  10.590
99134W        W58670  22.075  30.990   2.808
99135W        W58671  35.026  26.548  14.425
99136W        W58672  43.994  28.672   1.724
99137W        W58673  17.669   9.775  13.034
99138W        W58674   6.325  14.707  10.524
99139W        W58675  19.630  13.823  12.484
99140W        W58676   7.186  31.933  13.928
99141W        W58677  22.224  16.746  11.093
99142W        W58678  18.693  17.229  12.409
99143W        W58679  25.140  40.411   4.318
99144W        W58680  24.653  12.779   4.638
99145W        W58681  35.494  39.969   3.772
99146W        W58682  21.053  17.249  12.367
99147W        W58683   4.415  29.476  13.442
99148W        W58684  10.634  25.544   2.191
99149W        W58685  22.621  18.587  12.046
99150W        W58686   4.358  43.311   4.168
99151W        W58687   3.901  29.932  11.057
99152W        W58688  12.628  27.644  13.899
99153W        W58689  31.960  15.119   1.246
99154W        W58690  18.741  13.231   2.388
99155W        W58691   1.347  20.208   1.316
99156W        W58692  24.667   7.897   1.811
99157W        W58693  28.475  43.477  11.866
99158W        W58694  14.718  30.929   1.929
99159W        W58695  20.216  43.911   1.254
99160W        W58696  11.753   2.386   0.954
99161W        W58697   1.265  27.574  11.856
99162W        W58698  25.557  34.438   0.256
99163W        W58699  24.575  17.629   0.398
99164W        W58700   0.350  37.566   1.790
99165W        W58701   5.760  37.488   4.200
99166W        W58702   8.830  34.531   3.665
99167W        W58703   8.703  11.191  13.393
99168W        W58704   9.857  16.089   0.782
99169W        W58705  33.439  13.677   0.880
99170W        W58706  36.983   3.387   0.400
99171W        W58707  20.641  28.169   4.187
99172W        W58708  28.650   2.429  14.787
99173W        W58709  36.096  31.137  10.573
99174W        W58710  43.282  31.557   0.411
99175W        W58711  41.433  36.359   0.339
99176W        W58712  22.025  21.617   4.821
99177W        W58713  22.663  27.563  13.351
99178W        W58714  29.107   6.696   1.214
99179W        W58715  39.393  15.790  12.466
99180W        W58716  39.552  42.977  14.890
99181W        W58717  35.600  41.363   4.278
99182W        W58718  35.069   2.769   0.279
99183W        W58719  21.719  37.921   1.443
99184W        W58720  31.990  44.759   0.248
99185W        W58721  14.697   4.385  14.467
99186W        W58722  22.653  37.579   0.829
99187W        W58723  16.307  40.355  10.590
99188W        W58724  37.862   9.285   3.287
99189W        W58725  34.079  40.965   1.868
99190W        W58726   0.368  28.950  11.407
99191W        W58727  28.650  21.520  10.629
99192W        W58728  33.064  33.053  13.950
99193W        W58729  21.149  21.075   9.464
99194W        W58730  22.119   2.721  11.463
99195W        W58731   6.885   7.282  13.921
99196W        W58732  34.898  35.050  13.498
99197W        W58733  25.962  10.377  11.441
99198W        W58734  41.427  44.000   3.210
99199W        W58735  29.509  21.549   1.794
99200W        W58736  19.060  21.091   2.278
99201W        W58737  17.664  18.651   4.166
99202W        W58738  27.659   9.261   1.697
99203W        W58739  18.095  40.455   3.846
99204W        W58740  32.050  27.097   3.198
99205W        W58741  17.207  39.551   3.245
99206W        W58742  15.598  40.425   5.111
99207W        W58743  29.553  12.247   0.357
99208W        W58744  28.648  20.133   3.658
99209W        W58745   5.913  43.786   0.401
99210W        W58746  14.593  23.507   0.471
99211W        W58747  18.664  23.730   2.902
99212W        W58748   0.755   9.310  10.967
99213W        W58749  15.282  20.552  14.394
99214W        W58750  30.468   7.217   2.751
99215W        W58751  27.610  13.710   2.680
99216W        W58752  31.125  16.661  13.851
99217W        W58753  11.161  15.146   2.678
99218W        W58754   6.847  21.018   3.719
99219W        W58755  34.542  39.819  12.039
99220W        W58756  44.786  24.583   2.899
99221W        W58757  13.817  22.168   2.745
99222W        W58758   3.740  40.463   0.366
99223W        W58759  19.114  33.962   3.639
99224W        W58760  23.146   2.876  13.438
99225W        W58761  38.918  14.319   1.834
99226W        W58762  36.012  37.560  11.530
99227W        W58763  37.390  21.521   1.273
99228W        W58764  39.815  22.028   1.450
99229W        W58765  12.833   9.229   0.760
99230W        W58766   1.764  28.506   9.942
99231W        W58767   8.755  20.213   2.780
99232W        W58768  24.512  13.675   4.117
99233W        W58769  24.136   1.882   9.951
99234W        W58770   2.394  29.445  11.410
99235W        W58771   6.381  16.643  11.525
99236W        W58772  39.451  44.465  13.478
99237W        W58773  10.753  36.929  13.419
99238W        W58774  40.913  24.146  12.825
99239W        W58775  43.779   9.372  10.896
99240W        W58776  42.978  36.384  11.413
99241W        W58777  41.405   3.754   1.760
99242W        W58778  21.127  17.602  14.468
99243W        W58779  36.067  44.941   0.838
99244W        W58780  34.892  43.459   3.866
99245W        W58781  41.824  15.791  12.575
99246W        W58782   8.826  16.313  13.873
99247W        W58783  33.609  17.727   0.729
99248W        W58784  22.207  32.062  11.432
99249W        W58785  13.116  25.495   4.731
99250W        W58786   9.673  41.951   3.377
99251W        W58787  23.226  17.597   0.936
99252W        W58788  41.356  19.068   3.304
99253W        W58789  41.915  37.464  14.858
99254W        W58790   0.777  38.836  11.022
99255W        W58791  37.386   0.316   5.216
99256W        W58792   7.370  16.731  14.432
99257W        W58793  30.147  36.001   3.706
99258W        W58794  11.802  11.639  13.466
99259W        W58795  34.988  33.128   4.728
99260W        W58796  44.851  41.945   0.471
99261W        W58797   9.799  17.786  13.873
99262W        W58798  40.304   0.950  10.147
99263W        W58799  41.347   9.301  13.907
99264W        W58800   5.259  11.219   1.775
99265W        W58801  14.819  32.905   4.244
99266W        W58802  29.986  18.732   1.910
99267W        W58803  27.019  17.588   5.125
99268W        W58804  30.647  11.635  14.894
99269W        W58805  24.188   0.774   1.778
99270W        W58806  30.126  24.562  14.359
99271W        W58807  44.341  44.907  12.080
99272W        W58808   5.386  26.528  11.372
99273W        W58809  25.505  12.810  13.894
99274W        W58810  15.737  21.624  14.325
99275W        W58811  33.423  14.708   4.603
99276W        W58812  22.041  16.072  14.287
99277W        W58813  14.763  27.046   4.739
99278W        W58814  35.587  21.034   3.714
99279W        W58815   4.748  23.604  10.058
99280W        W58816  41.416  27.471  14.488
99281W        W58817  38.027  36.865   4.115
99282W        W58818  11.731   7.383  11.009
99283W        W58819   2.322   5.333  12.348
99284W        W58820  11.712  14.102   9.977
99285W        W58821   9.672  26.141   1.895
99286W        W58822  39.984   1.756   1.257
99287W        W58823   0.403   2.404   2.882
99288W        W58824  21.533  32.448   4.224
99289W        W58825  24.063   1.290   2.735
99290W        W58826  31.492  38.904  11.893
99291W        W58827  42.311  15.598  12.862
99292W        W58828  38.924  38.978   4.161
99293W        W58829  34.971   9.714   0.738
99294W        W58830   1.444   7.816   2.320
99295W        W58831  41.392  11.724  13.477
99296W        W58832  26.613  15.614  14.820
99297W        W58833  12.270  13.151   1.385
99298W        W58834  39.525  37.951   1.781
99299W        W58835  37.921  24.164   3.365
99300W        W58836   2.843  14.217   1.733
99301W        W58837   8.801   3.287   0.261
99302W        W58838  12.340  11.338  14.394
99303W        W58839  37.974  22.703  13.865
99304W        W58840   5.934  20.658  12.986
99305W        W58841  22.014  36.362  13.792
99306W        W58842   8.390  16.749  14.500
99307W        W58843   0.918   0.883  10.900
99308W        W58844   1.380   2.802   1.284
99309W        W58845  44.382  36.506   1.887
99310W        W58846   3.456  34.051   4.808
99311W        W58847   8.787   6.759   0.324
99312W        W58848  26.529  36.065  13.530
99313W        W58849  17.102  25.119  12.462
99314W        W58850  35.968  44.456   0.464
99315W        W58851  34.062  27.126   0.943
99316W        W58852  12.842  36.040  12.345
99317W        W58853   0.988  35.999   1.862
99318W        W58854  25.484   6.761  14.293
99319W        W58855  36.941  44.988  11.871
99320W        W58856   2.381  30.043  14.961
99321W        W58857  33.911  11.222   4.660
99322W        W58858  36.903  34.046   4.726
99323W        W58859  36.024  26.180   3.762
99324W        W58860  23.531  37.444  12.889
99325W        W58861  36.059  19.666   4.599
99326W        W58862  19.165  44.759  14.332
99327W        W58863   1.839  11.332   2.389
99328W        W58864  28.970  26.569   4.207
99329W        W58865  43.946  44.878   3.339
99330W        W58866  41.510  37.387   2.754
99331W        W58867  26.205  32.429  11.005
99332W        W58868  41.315  14.312  11.417
99333W        W58869  21.560  34.495   4.190
99334W        W58870  27.116  33.877   3.677
99335W        W58871  12.796  16.645   4.272
99336W        W58872   7.218  23.705   0.791
99337W        W58873  18.566  37.064  14.851
99338W        W58874   9.861  33.949  13.044
99339W        W58875  35.489  21.684   3.846
99340W        W58876  19.661  42.517  14.809
99341W        W58877  10.327  22.132   1.342
99342W        W58878   9.188  26.457  11.857
99343W        W58879  20.575   1.839   1.870
99344W        W58880  26.064   9.697   0.481
99345W        W58881  38.832  41.946  12.001
99346W        W58882  29.996   4.378   3.198
99347W        W58883  42.917  16.089   2.201
99348W        W58884   2.250  15.818  13.806
99349W        W58885  31.039  29.979   3.173
99350W        W58886  18.088  43.995  13.407
99351W        W58887  21.031  42.405   3.778
99352W        W58888  34.581  30.593   1.285
99353W        W58889  35.602   1.908   0.847
99354W        W58890  37.988  39.868   3.787
99355W        W58891  33.018  11.163   1.708
99356W        W58892  27.110   4.370   2.237
99357W        W58893  37.479  13.617  13.389
99358W        W58894  30.058   5.713   2.749
99359W        W58895  11.267  13.199   2.845
99360W        W58896  40.009   0.956  13.463
99361W        W58897  33.962  42.324   0.809
99362W        W58898  15.317  38.454  10.942
99363W        W58899  16.175  29.016  14.868
99364W        W58900  35.585  12.351   2.200
99365W        W58901  20.223  27.469  14.282
99366W        W58902  24.131   9.832   4.299
99367W        W58903  13.666  38.499  14.850
99368W        W58904  33.480  29.925  13.437
99369W        W58905  38.362  27.547  11.526
99370W        W58906  21.590   3.311   2.828
99371W        W58907  30.585  22.110   4.624
99372W        W58908  22.616  10.859   3.295
99373W        W58909  17.295   9.351  13.984
99374W        W58910   2.310  22.583   0.259
99375W        W58911  39.520  25.653  12.869
99376W        W58912  15.283  31.104   3.201
99377W        W58913  22.667   1.440   0.882
99378W        W58914  34.882  40.328   1.221
99379W        W58915   1.811  41.509   2.266
99380W        W58916  23.704  33.528   4.326
99381W        W58917  27.064  27.184  14.349
99382W        W58918  10.197   7.891   0.813
99383W        W58919  44.988  14.102   5.316
99384W        W58920   7.789  22.675  10.460
99385W        W58921  33.927  32.455   1.362
99386W        W58922   9.814  33.018   0.370
99387W        W58923   0.365  37.875  12.365
99388W        W58924  27.949  29.476  14.453
99389W        W58925  40.863  35.078   0.448
99390W        W58926   9.333  34.874   3.190
99391W        W58927  42.330  21.040   1.302
99392W        W58928   5.864   8.855  14.901
99393W        W58929  34.913  36.004  10.065
99394W        W58930  14.636   7.378   5.769
99395W        W58931  42.507  35.526   1.832
99396W        W58932  27.510   2.817  13.412
99397W        W58933  22.229  34.996   4.261
99398W        W58934  10.740  40.314  10.949
99399W        W58935  16.679  40.425   4.786
99400W        W58936  12.689  19.064  10.459
99401W        W58937   0.476  28.059   1.697
99402W        W58938  39.875  10.160   4.212
99403W        W58939   8.233   6.764   2.234
99404W        W58940  32.104   3.376   0.865
99405W        W58941   2.430  42.969   1.871
99406W        W58942  30.095  21.537   1.293
99407W        W58943  13.119  37.559  13.968
99408W        W58944   2.756  28.452  14.315
99409W        W58945  32.533   4.794   4.322
99410W        W58946  32.034  27.656  11.527
99411W        W58947  41.910  29.564   4.274
99412W        W58948  34.879  39.418   2.841
99413W        W58949  39.915  14.759  10.434
99414W        W58950  24.055  20.586   1.216
99415W        W58951  27.096  26.065   0.256
99416W        W58952  16.073  10.716   3.719
99417W        W58953   5.200  21.179   2.407
99418W        W58954  19.167   8.687  14.434
99419W        W58955   0.333  41.511  13.441
99420W        W58956  14.769  27.144  12.414
99421W        W58957   1.402  39.888  12.007
99422W        W58958  11.711  10.311  12.843
99423W        W58959  13.291  23.052   1.386
99424W        W58960  23.515  16.079   0.966
99425W        W58961  11.688  25.062   3.168
99426W        W58962  33.491  12.266  13.794
99427W        W58963  29.602  13.620   0.263
99428W        W58964   6.356  38.520   3.346
99429W        W58965  37.080  44.369  14.391
99430W        W58966  30.017  20.756   3.841
99431W        W58967   5.347  27.172  14.821
99432W        W58968   2.443  36.967  11.529
99433W        W58969  21.123  38.906  11.919
99434W        W58970  42.483   3.258   4.300
99435W        W58971  43.464  40.319  10.486
99436W        W58972  42.891  28.172   3.669
99437W        W58973   8.688  25.004  12.080
99438W        W58974  37.430  39.513  11.499
99439W        W58975  42.472  33.014  11.526
99440W        W58976  16.593  16.200   0.431
99441W        W58977   6.346   0.750   0.860
99442W        W58978  16.126  37.932   0.390
99443W        W58979  18.786  35.583   1.780
99444W        W58980  20.033  14.254   4.165
99445W        W58981  34.918  26.605   3.753
99446W        W58982  31.443  10.763  10.994
99447W        W58983  39.540  33.934   4.826
99448W        W58984  11.692  14.807   0.389
99449W        W58985  43.857  24.609  13.338
99450W        W58986  25.193  44.929   2.683
99451W        W58987   5.385  22.170  12.573
99452W        W58988  16.672  14.835  12.893
99453W        W58989  23.570  35.021  14.769
99454W        W58990  44.453  14.646  12.915
99455W        W58991  14.334  30.976  12.082
99456W        W58992  21.628  19.218   3.157
99457W        W58993   7.806   5.259   4.218
99458W        W58994  27.504  37.963  11.549
99459W        W58995   3.338  22.114  11.918
99460W        W58996   7.725  39.840   0.260
99461W        W58997  39.532  39.864   3.817
99462W        W58998   3.228  42.970  14.359
99463W        W58999  32.130  21.028   0.418
99464W        W59000  24.674   4.898  13.521
99465W        W59001   9.645  31.435  10.566
99466W        W59002  18.714  28.464   1.214
99467W        W59003  18.585  32.414  14.344
99468W        W59004  22.558  37.550   4.701
99469W        W59005  39.858  35.998   3.329
99470W        W59006  41.499   0.883   1.923
99471W        W59007  28.584  19.760   1.712
99472W        W59008  14.270  17.153   0.448
99473W        W59009  11.669  37.473  10.940
99474W        W59010   2.233  27.586   0.777
99475W        W59011  21.085  28.108   0.392
99476W        W59012  14.720  42.282  11.861
99477W        W59013  27.962   8.223   4.625
99478W        W59014   2.881  40.452  10.562
99479W        W59015  14.801  30.624  13.036
99480W        W59016  32.910  22.121  11.035
99481W        W59017   2.854  20.063  10.577
99482W        W59018  33.898   6.312  11.052
99483W        W59019   7.873  10.171  12.087
99484W        W59020  42.347  30.536   4.224
99485W        W59021  29.602  37.914  10.484
99486W        W59022  25.644  15.116   4.161
99487W        W59023  14.250   2.874   4.698
99488W        W59024  26.586  20.189  11.113
99489W        W59025  31.510  43.416  11.496
99490W        W59026  27.086   9.231   0.928
99491W        W59027  29.657  35.090  14.820
99492W        W59028  19.078  17.182  10.895
99493W        W59029   8.768  31.520  10.577
99494W        W59030  20.111  27.601   4.688
99495W        W59031  19.192  43.281   1.849
99496W        W59032  44.259   9.671   5.106
99497W        W59033   0.295  37.536   2.255
99498W        W59034   6.803  11.209   3.793
99499W        W59035   7.769  19.093   0.829
99500W        W59036   3.752   5.746  11.996
99501W        W59037  16.696   9.244   1.366
99502W        W59038   8.841   4.913  14.936
99503W        W59039  39.396  15.264  11.857
99504W        W59040  13.123  34.013  14.022
99505W        W59041  21.222   1.330  10.889
99506W        W59042  12.186  16.313  10.949
99507W        W59043  36.557  38.513  14.950
99508W        W59044  26.175  42.290   4.345
99509W        W59045  11.840  39.974  10.997
99510W        W59046  32.474  30.561  12.897
99511W        W59047  40.979   1.280  14.293
99512W        W59048   5.866  37.547   2.305
99513W        W59049  16.266  44.463  13.322
99514W        W59050  27.148  33.963   4.139
99515W        W59051  18.054  11.804  13.505
99516W        W59052  24.000  34.394   3.792
99517W        W59053  22.034  16.722  11.593
99518W        W59054  12.853  16.220  12.890
99519W        W59055   7.315  22.154  14.882
99520W        W59056  35.984  21.579  11.562
99521W        W59057  17.177  25.143  13.037
99522W        W59058  24.020  44.281  12.909
99523W        W59059   5.839  44.958   4.339
99524W        W59060  44.459  23.009  14.010
99525W        W59061   3.452  43.381  13.042
99526W        W59062  17.253  16.631   0.299
99527W        W59063  27.671  28.445  14.958
99528W        W59064  18.083  21.104   3.155
99529W        W59065  25.968   1.735   1.341
99530W        W59066  20.597  39.839   2.878
99531W        W59067  31.419  22.736  12.898
99532W        W59068  30.099   6.746   0.471
99533W        W59069  17.606  20.668   2.349
99534W        W59070  15.662  24.528   1.714
99535W        W59071  20.592  34.510  12.496
99536W        W59072  39.327   5.266   2.662
99537W        W59073  21.617  14.255   0.812
99538W        W59074  43.916  20.128   2.679
99539W        W59075  28.092  29.150  13.326
99540W        W59076  44.972  26.563  11.880
99541W        W59077  21.179   8.720   2.793
99542W        W59078   8.280  24.559  11.437
99543W        W59079   7.401  10.641   3.223
99544W        W59080  19.607  12.613  12.021
99545W        W59081  31.007  32.889  14.349
99546W        W59082  36.566  20.753  11.948
99547W        W59083   7.844  23.064   0.965
99548W        W59084  44.326  22.737  10.972
99549W        W59085  15.611   3.855   2.363
99550W        W59086  37.903   9.156  13.469
99551W        W59087   5.882  30.634   2.903
99552W        W59088  35.565   7.748  13.058
99553W        W59089  31.024  39.019   2.291
99554W        W59090  10.337   4.383  12.511
99555W        W59091   7.832   7.402   3.284
99556W        W59092   0.367   6.919   1.413
99557W        W59093  32.498  10.262  11.483
99558W        W59094  15.173   3.347  14.347
99559W        W59095  22.682  25.600   3.259
99560W        W59096   0.920  40.821  11.876
99561W        W59097  19.620  17.648  11.984
99562W        W59098  14.176  20.124  10.981
99563W        W59099  27.949  42.921   0.913
99564W        W59100  42.889  39.826   2.327
99565W        W59101  34.440  34.503   1.807
99566W        W59102   5.363  32.121  12.959
99567W        W59103  31.465  43.900   4.243
99568W        W59104  16.165  20.132   0.942
99569W        W59105  20.227  34.906   2.758
99570W        W59106  31.593  35.024   4.801
99571W        W59107  34.903   6.199   1.792
99572W        W59108  15.271  43.005   3.761
99573W        W59109  28.113  38.483   1.706
99574W        W59110  40.469   4.378  13.386
99575W        W59111  44.836  27.642   0.745
99576W        W59112  42.405  14.601   1.721
99577W        W59113  10.239  16.687  12.519
99578W        W59114   9.852   6.193   3.704
99579W        W59115  29.650  38.075   3.746
99580W        W59116   5.921  13.810   2.670
99581W        W59117   3.836  37.529  14.454
99582W        W59118  40.893  29.644   1.881
99583W        W59119  13.726  17.174  14.313
99584W        W59120  39.399  28.098   0.388
99585W        W59121  12.699  16.181   0.850
99586W        W59122  21.646  27.186   2.882
99587W        W59123  22.713   6.271  14.967
99588W        W59124  26.154   0.308  12.958
99589W        W59125  20.171  38.933  13.356
99590W        W59126  20.634  11.623  12.360
99591W        W59127  36.581  42.007   1.894
99592W        W59128  23.498  31.634  11.540
99593W        W59129  33.412   9.299   3.699
99594W        W59130  20.673  30.916   3.668
99595W        W59131  37.938  26.646  11.453
99596W        W59132  41.338   8.267  13.378
99597W        W59133  15.205  21.074  13.432
99598W        W59134  38.561  12.292   0.804
99599W        W59135  30.519  26.513  13.836
99600W        W59136  35.480   7.879   1.785
99601W        W59137  23.168  36.418   0.829
99602W        W59138  15.165  26.083   4.325
99603W        W59139   7.680   7.262   0.476
99604W        W59140  36.585  12.346  11.505
99605W        W59141  24.005  38.945  13.003
99606W        W59142  41.799  34.421   4.690
99607W        W59143  31.047  41.488  10.063
99608W        W59144  31.115  11.357  12.519
99609W        W59145  30.133  39.901  10.891
99610W        W59146  44.834  35.006  13.498
99611W        W59147  16.590  30.080  14.880
99612W        W59148   1.918  28.662  14.297
99613W        W59149  35.369  11.249  14.477
99614W        W59150   9.795   8.393  11.610
99615W        W59151  36.031   3.841   3.210
99616W        W59152  24.099  43.506  14.856
99617W        W59153  16.318  11.677  10.489
99618W        W59154  20.085  34.972  10.444
99619W        W59155  43.806  28.501  13.861
99620W        W59156  26.684  40.956   3.711
99621W        W59157  20.579  24.714  14.964
99622W        W59158  18.180  31.068   2.331
99623W        W59159  38.412  21.146   2.775
99624W        W59160  33.445  10.746   1.378
99625W        W59161   6.777  26.970   5.755
99626W        W59162  12.333  36.399   4.770
99627W        W59163  17.787  10.182   2.855
99628W        W59164  16.156  40.953  14.009
99629W        W59165  13.175  33.989  11.402
99630W        W59166  14.258  15.708   3.188
99631W        W59167  32.483  21.741  13.322
99632W        W59168   6.409  12.253   3.687
99633W        W59169  33.913  22.062  10.436
99634W        W59170  20.230  18.097   3.797
99635W        W59171  30.922  33.496   4.225
99636W        W59172  42.879  36.023   3.688
99637W        W59173   9.304  34.875   0.468
99638W        W59174  14.204  29.430   2.287
99639W        W59175   4.729  20.205   2.817
99640W        W59176  15.091  20.141  13.408
99641W        W59177  36.026  23.714  12.913
99642W        W59178  37.568   7.717   1.416
99643W        W59179  31.603  43.879  12.425
99644W        W59180  21.674  14.266   0.325
99645W        W59181  24.671  15.295  12.400
99646W        W59182  18.176  38.996   2.248
99647W        W59183  41.528   1.731   4.176
99648W        W59184  31.420  13.290  13.350
99649W        W59185  14.233  43.839   1.697
99650W        W59186  35.422  27.549  11.026
99651W        W59187  35.540  29.942  11.126
99652W        W59188  21.178   4.919   1.377
99653W        W59189  14.804  27.681  12.431
99654W        W59190  12.756   5.246   0.793
99655W        W59191  10.685  14.751  14.487
99656W        W59192   7.246  24.120   2.708
99657W        W59193  17.192  11.844  13.388
99658W        W59194   2.428  16.114   0.263
99659W        W59195  25.141  29.161  10.936
99660W        W59196  44.486  17.232  14.386
99661W        W59197  19.234  15.290  11.017
99662W        W59198   6.850  15.083   1.761
99663W        W59199  13.699   4.384   3.385
99664W        W59200  15.647   9.220  11.115
99665W        W59201  44.903  29.574  14.003
99666W        W59202  25.068  38.463  11.461
99667W        W59203  11.332   1.858  12.003
99668W        W59204  18.705  22.658  11.933
99669W        W59205  34.387  37.047  13.984
99670W        W59206  10.692  43.289  12.846
99671W        W59207   1.402   6.237   3.178
99672W        W59208  41.947  42.394  12.463
99673W        W59209  28.132  43.945   2.381
99674W        W59210   2.309   1.308   3.156
99675W        W59211   9.783  38.833  14.849
99676W        W59212  19.735  39.893   3.666
99677W        W59213  10.785  38.359   3.659
99678W        W59214   5.399  28.985   1.422
99679W        W59215  32.023  25.690  12.981
99680W        W59216  17.203  37.915  10.466
99681W        W59217   9.393  12.718  14.887
99682W        W59218  16.647  21.254   3.356
99683W        W59219  39.884  27.535   0.397
99684W        W59220  29.494  36.084  10.997
99685W        W59221   2.813  12.140  14.806
99686W        W59222  28.536  11.314  12.507
99687W        W59223   5.299   8.186   3.193
99688W        W59224   1.811  18.783   0.851
99689W        W59225   3.914  26.658  12.474
99690W        W59226  20.701  12.719  12.968
99691W        W59227  27.113   9.299  10.615
99692W        W59228  34.538  13.622  12.511
99693W        W59229   4.889   3.931  10.491
99694W        W59230  13.645  30.911  11.930
99695W        W59231  29.050   2.843  10.888
99696W        W59232   8.214  24.676   3.811
99697W        W59233  16.671  33.448   1.419
99698W        W59234  14.327  34.478  13.393
99699W        W59235   5.321  31.647  11.987
99700W        W59236  37.470  21.573  14.828
99701W        W59237  19.045  41.812  12.851
99702W        W59238   6.900  12.796  14.943
99703W        W59239  21.047  12.199   2.332
99704W        W59240  25.978  19.204   9.999
99705W        W59241  16.126   4.324  12.864
99706W        W59242  44.811   0.439  12.395
99707W        W59243  36.587   3.293  14.413
99708W        W59244  16.724  37.458  13.928
99709W        W59245   6.787  11.699   1.720
99710W        W59246   3.258  26.556   9.946
99711W        W59247   4.778  23.647  10.949
99712W        W59248  24.078  20.223   4.202
99713W        W59249   3.454  30.428  14.513
99714W        W59250  11.654  41.515  11.034
99715W        W59251  20.104  14.682  14.914
99716W        W59252  37.068  44.863   4.753
99717W        W59253  28.443  22.135  11.937
99718W        W59254  15.799  37.562   3.172
99719W        W59255  33.447  38.367  14.860
99720W        W59256  14.192   4.361   4.331
99721W        W59257  43.849   0.395  13.914
99722W        W59258  34.089  27.082  14.471
99723W        W59259  12.172  30.974  14.840
99724W        W59260  22.072  42.505  12.084
99725W        W59261  41.859  39.377   3.377
99726W        W59262  11.801  27.534   5.294
99727W        W59263   9.208  23.137  13.814
99728W        W59264  33.579  14.201  14.439
99729W        W59265  36.522   0.474   0.770
99730W        W59266  27.545  34.115  14.494
99731W        W59267  34.465  31.462   4.329
99732W        W59268  31.462  21.726  12.454
99733W        W59269  13.838  20.757  12.025
99734W        W59270  25.513  30.956  14.882
99735W        W59271  14.817  14.229   5.292
99736W        W59272  10.632  39.834  14.413
99737W        W59273  27.689  33.921  12.873
99738W        W59274  19.758  29.103   4.680
99739W        W59275  37.399  41.890   5.280
99740W        W59276  35.917  16.709  12.021
99741W        W59277  43.469   8.241  14.355
99742W        W59278  31.444   8.196  11.040
99743W        W59279   2.838  36.866   3.385
99744W        W59280  17.258   0.402  13.501
99745W        W59281  20.189   7.209   0.343
99746W        W59282   0.983  38.410  11.394
99747W        W59283  29.129  33.513  10.420
99748W        W59284   6.354   3.776   4.150
99749W        W59285  26.144  31.568   3.646
99750W        W59286  16.712  21.568   2.215
99751W        W59287  16.318  26.017  14.866
99752W        W59288  35.376  10.380   4.265
99753W        W59289  19.205  44.899   3.775
99754W        W59290  23.151  13.630   1.240
99755W        W59291  22.679  17.164   0.758
99756W        W59292  18.731  15.622   0.363
99757W        W59293  41.909   5.860  11.020
99758W        W59294   4.911  32.573   0.477
99759W        W59295  31.469  24.497   5.757
99760W        W59296  18.740  30.537  12.492
99761W        W59297   1.750  42.020  12.380
99762W        W59298   2.830   6.797   0.736
99763W        W59299  36.843  17.208  11.555
99764W        W59300  15.804  40.384   0.931
99765W        W59301   4.300   6.921  12.084
99766W        W59302  41.423  15.205   0.832
99767W        W59303  37.064   0.842  10.574
99768W        W59304  23.657  17.774  10.544
99769W        W59305   7.672  22.023  12.998
99770W        W59306   0.885  40.395  14.026
99771W        W59307   8.367   1.845  11.491
99772W        W59308  39.045   4.790   4.693
99773W        W59309   1.937  39.499   0.357
99774W        W59310  17.703   0.745   0.961
99775W        W59311  15.735  26.128   1.705
99776W        W59312  34.005  24.701   4.130
99777W        W59313  10.176  13.351   1.805
99778W        W59314  34.550  29.058   0.261
99779W        W59315  24.193  15.607  10.422
99780W        W59316  29.016  11.830   0.918
99781W        W59317  10.184   8.250   4.183
99782W        W59318  30.628  40.971   0.450
99783W        W59319  17.722   0.345   3.263
99784W        W59320  12.355  32.131  10.959
99785W        W59321   5.427  28.520  12.890
99786W        W59322  42.915   7.899  10.427
99787W        W59323  11.272   4.365   3.758
99788W        W59324  32.141   4.830   0.928
99789W        W59325  34.610  30.999  12.557
99790W        W59326  22.048   7.376   0.348
99791W        W59327   7.667   1.759   0.727
99792W        W59328   7.858  19.130  14.986
99793W        W59329  42.458  36.879   0.778
99794W        W59330  18.107  11.777  11.520
99795W        W59331   8.213  43.905  11.104
99796W        W59332  35.398   5.811   0.770
99797W        W59333  34.102  30.422  11.390
99798W        W59334  11.172  24.010  11.594
99799W        W59335  21.243  25.016   0.770
99800W        W59336  30.571   1.779  13.815
99801W        W59337  36.952   9.200  12.836
99802W        W59338  20.572   0.389  11.539
99803W        W59339  33.125  33.912   2.354
99804W        W59340  37.563  10.803  12.950
99805W        W59341   2.899   9.208   1.264
99806W        W59342   8.752  15.233   4.703
99807W        W59343  27.140  12.635   0.358
99808W        W59344  10.141  31.908   3.290
99809W        W59345  15.197  21.696   4.253
99810W        W59346  14.734   3.270  10.118
99811W        W59347  11.793  30.428  14.287
99812W        W59348   9.302  19.767  14.508
99813W        W59349  34.520   2.239  14.461
99814W        W59350  35.902   6.396   4.336
99815W        W59351  29.512  16.676  13.350
99816W        W59352  28.521  29.063  12.903
99817W        W59353  25.203  26.041  13.392
99818W        W59354   6.874  23.114  11.968
99819W        W59355  39.921  20.105   1.333
99820W        W59356  19.267   7.906   0.953
99821W        W59357  28.487  29.104   4.722
99822W        W59358  23.102  24.990  12.938
99823W        W59359  29.602  28.012  12.569
99824W        W59360   7.283  40.333  11.605
99825W        W59361  28.939   6.750  10.550
99826W        W59362  26.960   8.749   3.317
99827W        W59363  18.276  12.745  10.993
99828W        W59364  20.755  29.639  12.395
99829W        W59365   1.256  31.452   2.286
99830W        W59366  32.972   9.862  10.579
99831W        W59367   8.358  18.215   4.695
99832W        W59368  14.739   4.854   1.284
99833W        W59369  11.259  18.711  14.002
99834W        W59370  21.747  26.574   3.824
99835W        W59371  44.443  44.970   2.719
99836W        W59372  38.382   3.414  14.335
99837W        W59373   9.684  43.420  10.643
99838W        W59374  10.633  42.477  11.068
99839W        W59375  10.669  13.225   1.444
99840W        W59376  32.092  37.396   3.175
99841W        W59377  12.335  19.149  14.315
99842W        W59378  23.520  42.992   9.956
99843W        W59379   8.754  41.878   2.413
99844W        W59380  41.791  23.561   2.241
99845W        W59381  10.237  21.704  13.829
99846W        W59382  22.198  25.598   1.790
99847W        W59383   5.761  11.266   2.204
99848W        W59384  30.101  29.998   4.653
99849W        W59385  17.631  13.244   1.354
99850W        W59386  36.555  14.627   1.710
99851W        W59387  37.082  23.211  14.316
99852W        W59388   0.359   7.884   0.903
99853W        W59389   5.287  17.204  14.914
99854W        W59390  10.851  38.064  10.599
99855W        W59391  23.611  38.047   2.404
99856W        W59392   8.319  14.315   3.161
99857W        W59393  33.566   0.943  10.955
99858W        W59394  12.847  10.752  11.053
99859W        W59395  40.984  42.492  11.038
99860W        W59396   4.296  42.980  12.031
99861W        W59397  20.564  12.185   0.458
99862W        W59398  39.433  19.667  14.946
99863W        W59399  29.458  13.347   5.320
99864W        W59400  19.738   5.923  13.862
99865W        W59401  10.373  18.659   1.427
99866W        W59402  30.961  24.673   1.850
99867W        W59403  38.388  15.721  13.845
99868W        W59404  30.465  37.972   2.835
99869W        W59405  13.623   0.933   0.804
99870W        W59406  35.457  11.805  13.004
99871W        W59407  15.201  21.258  13.031
99872W        W59408  23.529   1.877  12.884
99873W        W59409  26.025   0.759   1.298
99874W        W59410  11.779  13.116  10.466
99875W        W59411  27.122  19.279   2.217
99876W        W59412  24.571  12.351  12.916
99877W        W59413  14.149  35.055   3.234
99878W        W59414  43.832  36.425  13.021
99879W        W59415  24.975  23.605   4.782
99880W        W59416  36.920  29.445  12.382
99881W        W59417  27.557   2.342   0.393
99882W        W59418  23.647  24.547  14.466
99883W        W59419   9.223  16.634   2.707
99884W        W59420   5.232   5.929   0.935
99885W        W59421  17.739   2.767  12.067
99886W        W59422  41.477  12.216  13.961
99887W        W59423  21.026  17.757  13.045
99888W        W59424  39.819  37.581  11.962
99889W        W59425  41.977  13.273   1.266
99890W        W59426   3.823  21.037  13.411
99891W        W59427  22.164  41.819  11.898
99892W        W59428  16.680  26.187   4.671
99893W        W59429  36.538  22.546  14.770
99894W        W59430  37.484   2.834   4.241
99895W        W59431  43.885  17.607  13.332
99896W        W59432   5.376  16.740   2.799
99897W        W59433  38.010  33.097  14.922
99898W        W59434  27.095   6.767   4.279
99899W        W59435  31.495  39.908  13.988
99900W        W59436  31.060  38.568   1.731
99901W        W59437  29.525  44.285  10.915
99902W        W59438   0.752  27.546  11.610
99903W        W59439  31.918  35.936   1.330
99904W        W59440  37.449   8.866  11.905
99905W        W59441  44.425   5.816  14.961
99906W        W59442   6.847  16.749   2.320
99907W        W59443  34.585  16.757  14.486
99908W        W59444  33.914  11.652   1.789
99909W        W59445  34.095  37.039  11.001
99910W        W59446  37.052  11.794   2.762
99911W        W59447  43.968  15.717  13.317
99912W        W59448  40.337  32.006  13.791
99913W        W59449  37.502  17.730   1.699
99914W        W59450  30.582  22.137  12.832
99915W        W59451  26.984  15.152   4.122
99916W        W59452  17.666  44.789   4.658
99917W        W59453  34.117   7.291  10.492
99918W        W59454  38.329  26.982   3.680
99919W        W59455   3.800  23.053   2.732
99920W        W59456  16.694  40.354   0.433
99921W        W59457   0.843  19.047   1.739
99922W        W59458  18.282  24.983  14.766
99923W        W59459   0.899  27.445  11.876
99924W        W59460  23.984  17.292  12.911
99925W        W59461  23.008   7.214  11.090
99926W        W59462   6.282  10.724  11.034
99927W        W59463  21.075  37.483  11.421
99928W        W59464  42.394   8.828   1.908
99929W        W59465  12.746   7.766  14.001
99930W        W59466  13.219  43.829  11.044
99931W        W59467  21.110  16.289   0.811
99932W        W59468   5.797  39.445  12.526
99933W        W59469  44.332  18.749  12.372
99934W        W59470   1.299  29.497  14.505
99935W        W59471   7.274   3.322  11.511
99936W        W59472   0.895  17.163  12.878
99937W        W59473  18.239   6.366  13.334
99938W        W59474   9.652   7.835   0.786
99939W        W59475  35.073  34.930  11.466
99940W        W59476  38.052   6.322   1.403
99941W        W59477  33.104  24.722   4.754
99942W        W59478  39.914  10.840   0.478
99943W        W59479  32.028  10.253  14.438
99944W        W59480  44.334  42.397   4.772
99945W        W59481  27.469  36.082   4.283
99946W        W59482   7.416  30.013   1.267
99947W        W59483   2.855  27.950  13.528
99948W        W59484   6.763  32.599  14.442
99949W        W59485   4.442  23.730   4.169
99950W        W59486  32.897  16.259   0.799
99951W        W59487  41.931  44.874   3.777
99952W        W59488  39.910  44.505   1.715
99953W        W59489  34.425  27.597   2.378
99954W        W59490   3.714   1.327  12.996
99955W        W59491   2.357  11.347  10.413
99956W        W59492  21.668  32.001  13.867
99957W        W59493   7.726  24.609   1.347
99958W        W59494  15.230  10.746  14.432
99959W        W59495   5.205  31.648  11.024
99960W        W59496   5.759  24.670  14.011
99961W        W59497  35.020  39.884   2.203
99962W        W59498  15.797   6.839   4.697
99963W        W59499  37.062  16.252  11.544
99964W        W59500  43.474   3.293  11.520
99965W        W59501  17.096  37.059   3.187
99966W        W59502  11.652   8.679  11.600
99967W        W59503  24.598  11.741  12.884
99968W        W59504  21.644  17.666   2.288
99969W        W59505  19.621  38.546  13.983
99970W        W59506  27.484  12.277   0.259
99971W        W59507  41.495  27.598   2.797
99972W        W59508  37.969   9.386  13.057
99973W        W59509  21.527   2.864   3.816
99974W        W59510  24.704  18.270   2.862
99975W        W59511  38.830  27.144   0.798
99976W        W59512  31.486  32.097  13.919
99977W        W59513   4.713  22.724  12.965
99978W        W59514  13.638   3.397  14.764
99979W        W59515  32.120  31.540  13.063
99980W        W59516   2.943  14.290  13.023
99981W        W59517  32.977  40.363  14.958
99982W        W59518   3.391  18.715   5.124
99983W        W59519  37.835  31.625   2.738
99984W        W59520  22.200  31.462   2.381
99985W        W59521  38.860  18.085  13.835
99986W        W59522   7.294  19.750   2.224
99987W        W59523   7.754  11.711  14.307
99988W        W59524  32.081  41.862   3.371
99989W        W59525  33.600  15.685  12.000
99990W        W59526  17.217  14.143   4.765
99991W        W59527   4.746   6.182  12.866
99992W        W59528  35.596  35.876   0.449
99993W        W59529   1.873   7.700   2.847
99994W        W59530  36.558  42.847  10.028
99995W        W59531  15.734  33.911   2.838
99996W        W59532  17.680  44.438   3.217
99997W        W59533  13.767  27.018   3.834
99998W        W59534  30.064  18.725  10.525
99999W        W59535   3.450  33.445  10.997
    0W        W59536  14.810  21.245   4.675
    1W        W59537   8.661  27.180   0.803
    2W        W59538  34.931  17.793   1.241
    3W        W59539  34.985  26.128   5.780
    4W        W59540  40.344  35.603  12.070
    5W        W59541  11.732  36.876  10.061
    6W        W59542  37.537  44.834   1.748
    7W        W59543  22.701  44.934  14.437
    8W        W59544  42.435  13.817  11.084
    9W        W59545  21.676  41.303   3.347
   10W        W59546  36.438  14.669  14.905
   11W        W59547  37.529  27.644  10.626
   12W        W59548  15.324  23.145   2.830
   13W        W59549  43.904  26.651   4.739
   14W        W59550  40.003  28.177  13.504
   15W        W59551  29.128   7.708   2.314
   16W        W59552  24.988  10.378   3.379
   17W        W59553  36.461  22.684   3.203
   18W        W59554  43.421  30.551   1.726
   19W        W59555  32.546  24.186   0.461
   20W        W59556  15.741  25.991  10.973
   21W        W59557   1.906   4.321   4.685
   22W        W59558   3.297   3.461  12.421
   23W        W59559  18.712   4.876  12.873
   24W        W59560  22.653  31.097  13.546
   25W        W59561   2.260  18.698   1.798
   26W        W59562  37.482   2.358   1.324
   27W        W59563  35.505  42.402  10.926
   28W        W59564  24.164  17.212  11.558
   29W        W59565  40.847  31.131  14.820
   30W        W59566  11.352   3.781  14.784
   31W        W59567  28.003  11.317  11.991
   32W        W59568  27.184  43.360   1.771
   33W        W59569  38.836  12.206  12.448
   34W        W59570  18.092  41.361   4.326
   35W        W59571  36.526  13.732   3.830
   36W        W59572  27.016  14.663   4.195
   37W        W59573  35.506  32.635   4.165
   38W        W59574   5.201  14.602  13.000
   39W        W59575   7.196  15.149  12.030
   40W        W59576   1.365  38.554  14.484
   41W        W59577  38.822  13.217   2.227
   42W        W59578  13.623  23.101  13.916
   43W        W59579  27.555  41.850  14.491
   44W        W59580  34.939  13.835  13.998
   45W        W59581  32.076  25.576   1.865
   46W        W59582  10.291  25.083  10.638
   47W        W59583  42.015  25.506   2.819
   48W        W59584   6.285  40.402  11.423
   49W        W59585  44.422  16.782  13.407
   50W        W59586  44.451   0.359  11.429
   51W        W59587  22.179   6.373  14.291
   52W        W59588  17.245  35.484  11.896
   53W        W59589   9.306  24.008  10.944
   54W        W59590   6.835   5.382  13.848
   55W        W59591   5.849  36.005   0.935
   56W        W59592  17.075  32.937   1.863
   57W        W59593  22.586  27.058   1.696
   58W        W59594  13.624  11.165   0.920
   59W        W59595  29.118  15.323   0.263
   60W        W59596  41.933   1.325   4.746
   61W        W59597  13.143  34.968  10.931
   62W        W59598  12.769  15.232  12.546
   63W        W59599  21.638  11.194   0.791
   64W        W59600   0.247  18.077   0.742
   65W        W59601  39.846  38.043  11.412
   66W        W59602  18.064  39.544  13.930
   67W        W59603  24.648  41.322  13.972
   68W        W59604  39.480   8.827   1.326
   69W        W59605  37.004  43.910  14.355
   70W        W59606  28.999   4.714   2.788
   71W        W59607   1.280  37.907  11.379
   72W        W59608  25.528   7.870   2.349
   73W        W59609   9.693  15.126   0.762
   74W        W59610  32.497  35.998   4.168
   75W        W59611  36.855  42.977   4.197
   76W        W59612  16.227  25.582  13.368
   77W        W59613  25.202   0.413  13.040
   78W        W59614  42.299  33.984   1.271
   79W        W59615  28.668  36.352   2.716
   80W        W59616  22.704   4.420  14.019
   81W        W59617  26.199  21.566   4.700
   82W        W59618  11.334  27.505  11.411
   83W        W59619  34.528  37.853  14.961
   84W        W59620   9.749  15.261   4.638
   85W        W59621  28.997  37.393  14.827
   86W        W59622  27.510   8.162  11.485
   87W        W59623   5.342  25.073   0.814
   88W        W59624  35.451  39.412  14.831
   89W        W59625  23.545   3.435  11.391
   90W        W59626   1.257  17.068  13.353
   91W        W59627  11.739  43.434  14.360
   92W        W59628  25.020  19.285   0.759
   93W        W59629  38.996  20.537   4.661
   94W        W59630  31.006  18.642   1.354
   95W        W59631  38.924  29.983  11.058
   96W        W59632  11.742  11.825   3.235
   97W        W59633  34.427  14.220  10.935
   98W        W59634   8.664   9.687  12.854
   99W        W59635  12.312   0.868  12.425
  100W        W59636  21.112  42.009  10.556
  101W        W59637  24.704   7.391  14.449
  102W        W59638  30.125  31.048   1.414
  103W        W59639   3.398  42.004   1.304
  104W        W59640  16.704  28.175  11.081
  105W        W59641  25.670  36.582   2.186
  106W        W59642  38.855  31.507   3.731
  107W        W59643   3.944   1.958   4.757
  108W        W59644  42.283  34.866  13.448
  109W        W59645  15.153  11.300  12.867
  110W        W59646  43.274  22.083  13.005
  111W        W59647  25.574   8.207  11.044
  112W        W59648  34.485  40.951   4.838
  113W        W59649   5.376  41.397  13.904
  114W        W59650   2.433  32.111  11.038
  115W        W59651  44.984   4.218   3.206
  116W        W59652  28.961  43.775   2.691
  117W        W59653  23.110   1.429   1.933
  118W        W59654  22.094   8.365   1.760
  119W        W59655  28.037  28.474   4.186
  120W        W59656  25.682   0.742   9.980
  121W        W59657  40.409   8.207  11.457
  122W        W59658   7.366  26.016  10.569
  123W        W59659  35.393  33.955   2.395
  124W        W59660  23.131  39.332   2.327
  125W        W59661  28.171  13.775  12.462
  126W        W59662  34.115  32.576   4.689
  127W        W59663  34.523  13.319  12.389
  128W        W59664  33.604  36.917   2.325
  129W        W59665  34.093  27.462   0.346
  130W        W59666  21.153  28.503  14.858
  131W        W59667  38.968  43.894  14.308
  132W        W59668  30.477   7.382  12.995
  133W        W59669  25.178   9.827  10.964
  134W        W59670  40.033  11.647  10.111
  135W        W59671   1.860   0.404  13.446
  136W        W59672  33.933   3.243  11.381
  137W        W59673  35.977  24.616  10.122
  138W        W59674  33.880  23.074   1.237
  139W        W59675  34.042  28.596   1.348
  140W        W59676  25.017  24.672   1.730
  141W        W59677   7.411  16.574   4.178
  142W        W59678  31.412   2.898   0.368
  143W        W59679  16.733  36.353  12.943
  144W        W59680  10.347  21.719   2.770
  145W        W59681  11.820  25.474  11.016
  146W        W59682   7.210  18.617  11.896
  147W        W59683   9.211  15.320  12.429
  148W        W59684  34.474  40.379  13.442
  149W        W59685  24.557  20.069   4.171
  150W        W59686  34.094  32.080   3.325
  151W        W59687  44.759  26.961   0.483
  152W        W59688  26.647  27.141  13.930
  153W        W59689  14.337  29.918   3.735
  154W        W59690   4.371  17.109  13.888
  155W        W59691   5.816  23.161   1.716
  156W        W59692  31.988   7.711   4.690
  157W        W59693   5.246  31.491   0.414
  158W        W59694  31.046  27.967   2.376
  159W        W59695   3.275  35.568  10.891
  160W        W59696  22.680   9.832   4.300
  161W        W59697  25.051   6.689  11.462
  162W        W59698  35.449  16.627  12.371
  163W        W59699  29.507  36.420   2.279
  164W        W59700  41.820  41.822   3.681
  165W        W59701   2.447  43.797  11.937
  166W        W59702  33.565   8.388  13.846
  167W        W59703  21.199  25.139   3.832
  168W        W59704  10.652  10.694  10.640
  169W        W59705   8.833  41.398  10.481
  170W        W59706  28.024   4.728  13.499
  171W        W59707  29.084   4.337  14.817
  172W        W59708  36.548  17.129   0.787
  173W        W59709   4.817  36.855  10.587
  174W        W59710   0.829   8.183  13.350
  175W        W59711  16.086   7.344  12.065
  176W        W59712   0.924  21.661   4.316
  177W        W59713   5.295  39.949   4.816
  178W        W59714   4.226  28.538   2.252
  179W        W59715  16.572  44.882  14.374
  180W        W59716  12.258  17.072  11.909
  181W        W59717  22.555   0.342   0.459
  182W        W59718  20.133  41.428   4.121
  183W        W59719  15.195  13.770   1.741
  184W        W59720  43.977  39.920   1.301
  185W        W59721  10.353   8.355   9.959
  186W        W59722  44.277  18.199   2.211
  187W        W59723  19.113  37.977   4.122
  188W        W59724  23.512  33.385  13.027
  189W        W59725   2.877  28.466   4.598
  190W        W59726  39.528   9.299   3.654
  191W        W59727  38.461  27.975  13.376
  192W        W59728  40.549  21.628  12.834
  193W        W59729  35.087  28.563  14.355
  194W        W59730  21.651   4.885  13.529
  195W        W59731  40.393  26.145   0.852
  196W        W59732   1.393  27.044   0.965
  197W        W59733  43.852  29.968   2.234
  198W        W59734  44.504  33.032   0.320
  199W        W59735   2.330  30.495   3.821
  200W        W59736   4.902  43.338   1.741
  201W        W59737  39.396  14.293   0.294
  202W        W59738  30.068  25.166  10.574
  203W        W59739  39.018  32.622  14.956
  204W        W59740  16.119  41.483   3.655
  205W        W59741  24.183  15.696   1.290
  206W        W59742  29.151  20.106   4.601
  207W        W59743  35.491   1.397  13.887
  208W        W59744  29.534  20.735  10.969
  209W        W59745  13.128   8.196  14.831
  210W        W59746   1.870  18.178   2.823
  211W        W59747  35.081  18.072   2.289
  212W        W59748  12.220  32.626  11.060
  213W        W59749  19.283  23.663   4.654
  214W        W59750  25.524  22.028   4.614
  215W        W59751   1.467   4.919  10.915
  216W        W59752  13.770  44.347  11.571
  217W        W59753  31.514  27.063   4.333
  218W        W59754  41.394  38.532   1.781
  219W        W59755  20.638  37.845  11.103
  220W        W59756   8.363  13.735  12.979
  221W        W59757  17.110  10.328  13.462
  222W        W59758  11.274  34.038   1.795
  223W        W59759  11.349   7.353  12.354
  224W        W59760   9.243   8.234   4.837
  225W        W59761   1.269  13.127   3.767
  226W        W59762   7.750  14.152  13.795
  227W        W59763   6.400  13.756   3.338
  228W        W59764  37.467   2.434   3.765
  229W        W59765  32.607  30.424   1.283
  230W        W59766   9.389  30.592  11.563
  231W        W59767  26.114   5.716  13.873
  232W        W59768   0.965  22.189   3.240
  233W        W59769  34.513  14.730  11.532
  234W        W59770   7.815   3.273  10.985
  235W        W59771  22.634  22.743  10.458
  236W        W59772  27.035  44.804   4.147
  237W        W59773   2.804  20.615  14.809
  238W        W59774   7.694  39.917   2.358
  239W        W59775  12.712  27.018  13.826
  240W        W59776  37.966  43.813  13.485
  241W        W59777  12.317  12.638  14.344
  242W        W59778  27.529  17.753   1.393
  243W        W59779   1.316  26.512   9.979
  244W        W59780   4.842  27.608   4.647
  245W        W59781  24.486  21.252  10.581
  246W        W59782  34.914  10.338   1.908
  247W        W59783  25.584  42.847  12.971
  248W        W59784  11.815  39.388   4.649
  249W        W59785  10.833  39.422   2.740
  250W        W59786   2.414  15.157   1.248
  251W        W59787  26.107   5.818  13.449
  252W        W59788  36.479  22.194   0.481
  253W        W59789  26.027  35.401  13.389
  254W        W59790  19.143  38.481  13.323
  255W        W59791  20.621  11.213  11.047
  256W        W59792  27.522  11.292   0.842
  257W        W59793  39.936  33.521  14.441
  258W        W59794  17.614  23.027  14.925
  259W        W59795  10.768  37.487   4.685
  260W        W59796   9.374  29.512  14.478
  261W        W59797  15.736  16.087   3.269
  262W        W59798   3.250  18.602   1.829
  263W        W59799   7.847  14.325  13.419
  264W        W59800  11.828  21.627  14.800
  265W        W59801  15.783  35.967   4.689
  266W        W59802  24.715  14.664  10.585
  267W        W59803  28.508  16.101   1.350
  268W        W59804   7.730  24.136  12.400
  269W        W59805  37.359  13.664  10.466
  270W        W59806  37.924  23.090   4.649
  271W        W59807  38.927  36.866   4.273
  272W        W59808   8.219  16.657   1.452
  273W        W59809  36.355  37.998   2.297
  274W        W59810  38.484  43.298  10.581
  275W        W59811  15.137  40.844   2.900
  276W        W59812   4.903   6.831   0.864
  277W        W59813  32.396  25.124   1.358
  278W        W59814  23.003  34.999  11.565
  279W        W59815   1.881   3.414   2.740
  280W        W59816  36.488  36.510   1.746
  281W        W59817  43.906  19.585  13.058
  282W        W59818  39.547  44.008   3.302
  283W        W59819   8.200  41.507   1.246
  284W        W59820  22.739  34.109  14.850
  285W        W59821  15.257  35.419  10.610
  286W        W59822  27.583  29.546   0.888
  287W        W59823  40.541  27.086   4.193
  288W        W59824   2.865  41.979  13.366
  289W        W59825  32.912  20.087  13.309
  290W        W59826  11.834  13.266  12.390
  291W        W59827  23.142  29.971  13.931
  292W        W59828  33.057  11.361   0.269
  293W        W59829  30.919  32.927  13.349
  294W        W59830  20.208  15.215  13.807
  295W        W59831  12.182  20.625   4.236
  296W        W59832  32.627  30.629  13.891
  297W        W59833  21.720  18.572   0.889
  298W        W59834  32.552   8.718  10.491
  299W        W59835  21.653  24.695  12.001
  300W        W59836   4.364   5.243   4.175
  301W        W59837  31.039  29.501   2.371
  302W        W59838   9.352  13.751   0.749
  303W        W59839  38.381  20.732   2.356
  304W        W59840  19.569   0.288  13.056
  305W        W59841  21.091  35.500  12.076
  306W        W59842  33.996  38.935   2.314
  307W        W59843   4.944  32.453   4.113
  308W        W59844  42.324  27.124   2.894
  309W        W59845  26.659  32.988  10.958
  310W        W59846  23.072  27.450   4.139
  311W        W59847  42.888  33.105  12.994
  312W        W59848  21.257  26.021   4.331
  313W        W59849  35.055   1.768  13.828
  314W        W59850   8.742  37.880   4.636
  315W        W59851  35.433  19.647   3.705
  316W        W59852  23.598   9.697   3.377
  317W        W59853  19.103  44.329   4.794
  318W        W59854  14.208   5.850   2.668
  319W        W59855  29.031  39.949   3.236
  320W        W59856  19.535  40.044  10.611
  321W        W59857  42.937  30.562   1.915
  322W        W59858  26.493  37.003   0.412
  323W        W59859  13.702  30.506   3.812
  324W        W59860   4.830  12.646  11.469
  325W        W59861  34.872  10.653   2.347
  326W        W59862   3.773  42.027  13.055
  327W        W59863  35.070   5.408  14.502
  328W        W59864  23.202  11.148  12.548
  329W        W59865  23.694  30.021  11.938
  330W        W59866  17.701  37.465  11.590
  331W        W59867  26.175  32.112   2.209
  332W        W59868   6.415  21.584   1.728
  333W        W59869  28.445  16.117  13.898
  334W        W59870  12.228   3.787   9.477
  335W        W59871   1.436  25.135  12.426
  336W        W59872  26.072  27.468  10.891
  337W        W59873  34.880  26.160   1.348
  338W        W59874  17.756  15.791   1.694
  339W        W59875   1.298  32.104   0.821
  340W        W59876  32.484   6.846   4.117
  341W        W59877  24.590  17.223  10.040
  342W        W59878   3.277  23.632   3.345
  343W        W59879  43.888  40.878   3.229
  344W        W59880  41.484  26.182  10.976
  345W        W59881  29.065  18.241  13.996
  346W        W59882  14.128   0.862  11.597
  347W        W59883  42.510   4.410  13.025
  348W        W59884  29.556   5.802  14.301
  349W        W59885  13.793   0.979  10.600
  350W        W59886  26.955  20.741   4.219
  351W        W59887  29.558   8.371   0.364
  352W        W59888  12.760  31.041  12.982
  353W        W59889  20.609   1.272  11.900
  354W        W59890  35.912  11.232   2.864
  355W        W59891  41.819  16.259  10.542
  356W        W59892  36.436   8.371   4.719
  357W        W59893  12.851  14.182  14.828
  358W        W59894   7.289  23.992   1.932
  359W        W59895  33.130   4.707  12.414
  360W        W59896  42.325   7.870  14.878
  361W        W59897  27.512  14.169  14.900
  362W        W59898  15.619  18.265  11.612
  363W        W59899  24.516  34.454  13.959
  364W        W59900  41.996  35.589   4.655
  365W        W59901  29.946  10.799  12.018
  366W        W59902   1.406  29.076   1.243
  367W        W59903  12.247   1.364  14.782
  368W        W59904  17.781  25.536   4.239
  369W        W59905  36.918  31.002  10.551
  370W        W59906  15.601  16.799  12.019
  371W        W59907   7.847  26.070   0.888
  372W        W59908  18.724   6.369   2.672
  373W        W59909  28.540   4.260   4.228
  374W        W59910  19.724   2.281   2.272
  375W        W59911  17.796   6.414   1.733
  376W        W59912  34.980   4.299  14.492
  377W        W59913  17.562  38.940   1.415
  378W        W59914  32.570  30.084   4.836
  379W        W59915  22.522   7.723  12.349
  380W        W59916  21.115  31.432  13.427
  381W        W59917  30.656  12.649  12.004
  382W        W59918   6.722  39.319  12.996
  383W        W59919  21.017  19.068   5.659
  384W        W59920  19.758  43.008  13.329
  385W        W59921   2.291  39.922   3.849
  386W        W59922   5.280  24.533  11.950
  387W        W59923   8.202  41.849  13.387
  388W        W59924  38.895   7.230  12.968
  389W        W59925   5.228  33.129  11.504
  390W        W59926  38.375  40.965   2.372
  391W        W59927  30.980  37.040   3.330
  392W        W59928  17.655  40.827   3.205
  393W        W59929  32.058   7.782  12.045
  394W        W59930  30.093  30.051   2.798
  395W        W59931  43.991  36.494  14.001
  396W        W59932  37.886  23.528  14.282
  397W        W59933  15.761  40.316  12.932
  398W        W59934  40.996  37.055  11.593
  399W        W59935  10.323  29.576  14.402
  400W        W59936  30.086  30.942   2.185
  401W        W59937  10.787  36.029  14.280
  402W        W59938   4.820  25.633   2.736
  403W        W59939  40.480  18.591  12.528
  404W        W59940  25.016  22.046   0.301
  405W        W59941  25.983  43.871   2.790
  406W        W59942  25.057   4.384  11.439
  407W        W59943  25.520   1.810  14.795
  408W        W59944   4.735  43.770  10.028
  409W        W59945  14.120   0.464  10.476
  410W        W59946  13.754  12.847   4.655
  411W        W59947  38.040  34.441   2.847
  412W        W59948  44.937  22.624   4.216
  413W        W59949  29.432  28.053  13.833
  414W        W59950  34.524   7.771  13.335
  415W        W59951  15.668  38.551  12.945
  416W        W59952   6.362  18.189  13.973
  417W        W59953  42.822   0.832   1.767
  418W        W59954  39.454   9.280  13.900
  419W        W59955  21.757  12.180   2.336
  420W        W59956  40.436  28.966   0.956
  421W        W59957   4.413  41.528   3.218
  422W        W59958  27.075   8.664  12.983
  423W        W59959  37.373  21.712  10.620
  424W        W59960  32.573  31.419   3.349
  425W        W59961  20.658   3.953   1.798
  426W        W59962  40.822  15.668  11.965
  427W        W59963   8.678  33.930   0.248
  428W        W59964   9.883   1.427   3.186
  429W        W59965  44.418  15.628  11.532
  430W        W59966   4.748  30.450  10.612
  431W        W59967  40.956  20.073   0.264
  432W        W59968  15.654  11.334  12.079
  433W        W59969  43.326  19.116  14.468
  434W        W59970  23.490  32.411  12.443
  435W        W59971  12.259  28.139  12.909
  436W        W59972  34.397   0.286   2.875
  437W        W59973  19.216  41.962  11.967
  438W        W59974  28.596  11.842  11.924
  439W        W59975  38.919  41.973   3.756
  440W        W59976  19.697   0.288  10.451
  441W        W59977   2.454  20.092   2.737
  442W        W59978  23.573   5.263   2.778
  443W        W59979   1.355  43.382  12.835
  444W        W59980  35.374  43.418  11.392
  445W        W59981  20.613  36.582   4.657
  446W        W59982  34.895  25.050  14.904
  447W        W59983  42.404   1.268  14.865
  448W        W59984   0.445  34.895  11.877
  449W        W59985  24.016  13.122  14.016
  450W        W59986  41.526  33.950   0.942
  451W        W59987  22.685  18.088   0.777
  452W        W59988  31.406  14.628  11.461
  453W        W59989  23.128  20.262  13.929
  454W        W59990  25.984  20.111   2.698
  455W        W59991  19.624  17.120   0.372
  456W        W59992   3.742  27.032  13.864
  457W        W59993  13.316  16.578   2.249
  458W        W59994  23.021  17.261   1.345
  459W        W59995  22.728  18.707  10.079
  460W        W59996  10.869  34.573   1.241
  461W        W59997   3.866  34.103  14.758
  462W        W59998  13.681  25.629  13.816
  463W        W59999  13.615  12.812   1.314
  464W        W60000   4.900  40.944   3.688
  465W        W60001  15.267  11.819  11.534
  466W        W60002   3.232   3.827  12.387
  467W        W60003   7.709  22.716  11.968
  468W        W60004  42.519  10.864   0.458
  469W        W60005   4.376  41.859  11.891
  470W        W60006  25.468  27.498  12.055
  471W        W60007  23.093   4.207   0.408
  472W        W60008  27.488  23.215   2.767
  473W        W60009  24.007  16.800   1.900
  474W        W60010   2.914  33.496  12.466
  475W        W60011   0.815  24.216  14.448
  476W        W60012  33.415   4.934  13.885
  477W        W60013   9.649  28.653   1.314
  478W        W60014   2.872  29.938  10.605
  479W        W60015  13.261  37.363   1.290
  480W        W60016  37.550  12.767  13.387
  481W        W60017  41.005  21.624   1.858
  482W        W60018  21.544  40.903   0.412
  483W        W60019  15.240  10.313   1.829
  484W        W60020  40.856  37.580   3.825
  485W        W60021  21.185  13.131   0.914
  486W        W60022  21.023  22.183  13.941
  487W        W60023   6.332  43.941   1.392
  488W        W60024  19.643  23.989   5.164
  489W        W60025  36.419  44.967   4.838
  490W        W60026  25.079  37.438  11.513
  491W        W60027  25.088  17.110  10.026
  492W        W60028  12.691  28.022  10.585
  493W        W60029  11.628   2.414   3.853
  494W        W60030  20.720  27.470  14.999
  495W        W60031  34.926   5.333   3.681
  496W        W60032  25.105  24.059   3.857
  497W        W60033  36.030  31.147  14.800
  498W        W60034  26.492  17.592  14.852
  499W        W60035  29.004   3.831   4.338
  500W        W60036   0.855  25.629   0.935
  501W        W60037  26.651  16.121   4.317
  502W        W60038  25.087  24.548   0.881
  503W        W60039  33.123  11.741  12.548
  504W        W60040  11.232  28.182  13.323
  505W        W60041  31.926  40.933   3.180
  506W        W60042  30.983  38.054  12.980
  507W        W60043  25.478   4.933   5.717
  508W        W60044  29.032  43.309  11.389
  509W        W60045  19.643  18.566  14.768
  510W        W60046  27.032  31.476   1.884
  511W        W60047   7.670  38.475  10.472
  512W        W60048  14.791   6.396  11.492
  513W        W60049  18.194   4.888   2.786
  514W        W60050   6.329   9.262  10.937
  515W        W60051  25.525   2.942   0.816
  516W        W60052  23.547  15.227  12.537
  517W        W60053  17.575   8.276   4.829
  518W        W60054  28.985  29.030  12.041
  519W        W60055   8.709  35.461  10.534
  520W        W60056  35.881  16.139  11.527
  521W        W60057   3.895  37.522   9.976
  522W        W60058   8.346  32.898   4.680
  523W        W60059  36.932  14.204  12.899
  524W        W60060   4.855  16.613  14.361
  525W        W60061  43.779  22.509  13.309
  526W        W60062  23.132  28.131   4.814
  527W        W60063  27.006  14.664  12.938
  528W        W60064  12.145  14.247  12.348
  529W        W60065  32.115  27.966  14.899
  530W        W60066   9.738  10.236  12.958
  531W        W60067  20.252   1.295  10.508
  532W        W60068   1.926  18.621   1.849
  533W        W60069  27.660  26.176  12.959
  534W        W60070   5.900  42.918   2.306
  535W        W60071  29.449  11.243  10.496
  536W        W60072  11.847  33.501   2.692
  537W        W60073   9.673  25.975   3.634
  538W        W60074  15.277  15.762  10.075
  539W        W60075  23.641  36.496   9.593
  540W        W60076  33.447  37.389   4.681
  541W        W60077  39.371  24.708  13.017
  542W        W60078   0.776  18.243  11.899
  543W        W60079   8.327  29.482   0.936
  544W        W60080  44.462  11.131   1.911
  545W        W60081  36.020  41.462   4.230
  546W        W60082  41.794  12.808   0.758
  547W        W60083   9.782  25.631   9.932
  548W        W60084   0.926  16.098  14.841
  549W        W60085  40.485  11.170  10.901
  550W        W60086  31.082   7.795   2.817
  551W        W60087  16.131   8.723  14.848
  552W        W60088  18.128  12.259  10.927
  553W        W60089   5.878  35.047   0.244
  554W        W60090  42.438  34.970  11.906
  555W        W60091  22.214  24.989  13.009
  556W        W60092   4.933  20.063  12.374
  557W        W60093  44.981  22.231   4.307
  558W        W60094  20.046  29.105   2.783
  559W        W60095   3.342   4.431  13.054
  560W        W60096  37.385  17.217   3.349
  561W        W60097  30.569   3.954  11.511
  562W        W60098  14.259   6.874  10.578
  563W        W60099  37.964  20.200  13.345
  564W        W60100  24.127  27.456  12.847
  565W        W60101   7.278  23.217  13.483
  566W        W60102  24.621  32.414  10.415
  567W        W60103  41.828  38.040   3.660
  568W        W60104  31.541   8.359  14.020
  569W        W60105  12.645  35.095  10.495
  570W        W60106  11.327  22.723  11.995
  571W        W60107  19.143  17.307  12.027
  572W        W60108  18.096  22.026  12.833
  573W        W60109  35.567   5.779  10.929
  574W        W60110  21.679  19.536   3.158
  575W        W60111  14.833   5.249   2.785
  576W        W60112  16.187  12.804  13.470
  577W        W60113  25.547  26.121   3.709
  578W        W60114  37.357  33.488   1.753
  579W        W60115  14.201   2.253   4.117
  580W        W60116   5.780   5.710   0.781
  581W        W60117  40.946  20.613  13.332
  582W        W60118  15.147   7.217  11.008
  583W        W60119   8.887  34.474  10.454
  584W        W60120  13.138  22.212  11.394
  585W        W60121  18.757  28.115   5.192
  586W        W60122  43.939   8.798  12.966
  587W        W60123   7.353  34.120   1.851
  588W        W60124  36.399   5.274   4.766
  589W        W60125  32.392  33.512   0.849
  590W        W60126  21.652  30.148   1.444
  591W        W60127  18.591   2.470  10.522
  592W        W60128   6.727  44.342   0.955
  593W        W60129  35.569  38.492  12.568
  594W        W60130   8.275  23.575  13.447
  595W        W60131  21.028  39.330   3.329
  596W        W60132  36.421  33.066  11.935
  597W        W60133   6.874  26.597  13.865
  598W        W60134  43.388  19.730   0.345
  599W        W60135  33.489  16.220  10.421
  600W        W60136  24.069   2.305   2.756
  601W        W60137   4.708  26.478   5.188
  602W        W60138   2.359  12.739   0.897
  603W        W60139   7.354  18.275   4.672
  604W        W60140  40.022  15.167  12.571
  605W        W60141  14.835   1.851  13.961
  606W        W60142  27.156  17.597  12.423
  607W        W60143  29.463  27.682  12.920
  608W        W60144  28.492  30.608   4.148
  609W        W60145  44.411  19.255   3.714
  610W        W60146   5.251  44.963  14.934
  611W        W60147   9.792  14.698   2.190
  612W        W60148  36.845  38.029  12.370
  613W        W60149  20.585   6.187   1.911
  614W        W60150  10.642  20.572   3.267
  615W        W60151   4.438  26.158  13.808
  616W        W60152  43.789   5.339   0.956
  617W        W60153   0.857  37.031  12.453
  618W        W60154   4.218  26.049  12.924
  619W        W60155  42.020  10.224   3.745
  620W        W60156   0.419  16.661  13.459
  621W        W60157   7.751  22.012   1.330
  622W        W60158  19.100  31.527  11.028
  623W        W60159  30.962  11.264   2.233
  624W        W60160  30.512  35.000   2.896
  625W        W60161   7.357  25.969   1.250
  626W        W60162  12.307  19.224  12.468
  627W        W60163  41.421   9.233   1.377
  628W        W60164  29.625  12.130   2.809
  629W        W60165  18.088  11.308  12.061
  630W        W60166  34.394  40.908  10.495
  631W        W60167   1.418  24.638  11.861
  632W        W60168  43.428  41.856  11.003
  633W        W60169  41.491  20.275  10.905
  634W        W60170  36.006  11.329  14.847
  635W        W60171  36.364  36.095   4.734
  636W        W60172  23.128  10.238  10.426
  637W        W60173   9.339  22.066  13.453
  638W        W60174   9.276  24.086  12.462
  639W        W60175  13.341  13.742  12.562
  640W        W60176  15.208  41.959   1.826
  641W        W60177  16.737  35.101   2.739
  642W        W60178  33.518  19.096  14.464
  643W        W60179  31.478  29.606  13.454
  644W        W60180  36.584  15.660   3.355
  645W        W60181  34.528  35.936  14.886
  646W        W60182   9.161  43.293  14.886
  647W        W60183  25.113  26.487   1.343
  648W        W60184  40.020  43.973  14.468
  649W        W60185  20.576  30.523  12.025
  650W        W60186  12.729   8.874  12.385
  651W        W60187  29.655   8.655   3.738
  652W        W60188   3.902  23.685  13.912
  653W        W60189   1.347  39.421  13.525
  654W        W60190  29.123  18.219   4.325
  655W        W60191  17.614  41.888  10.539
  656W        W60192   7.871  42.032  11.583
  657W        W60193  11.633  20.171  12.030
  658W        W60194   7.297  36.536   1.696
  659W        W60195   6.878  36.069  10.516
  660W        W60196  12.752   7.406   2.357
  661W        W60197  21.687   3.774   0.439
  662W        W60198   1.835  14.677  14.816
  663W        W60199  25.090  15.684  10.565
  664W        W60200  42.494  29.166  14.890
  665W        W60201   6.725  18.263  11.372
  666W        W60202   3.874  32.554  11.509
  667W        W60203  13.615  31.022  11.422
  668W        W60204  29.579  32.139  10.912
  669W        W60205  22.646  36.542  13.993
  670W        W60206  38.556  20.076   3.372
  671W        W60207  41.865  21.226  13.949
  672W        W60208  12.138  11.647   2.251
  673W        W60209  43.355  27.496   4.152
  674W        W60210  27.092  27.568   0.283
  675W        W60211  25.552   0.410  12.843
  676W        W60212   3.285  29.495   0.459
  677W        W60213  43.967  23.619   4.699
  678W        W60214  34.096  34.483   0.767
  679W        W60215  12.660  25.479  11.111
  680W        W60216   8.191  32.947   2.406
  681W        W60217   6.252  19.106   0.293
  682W        W60218  27.086  13.637  12.493
  683W        W60219  15.671  15.252   2.235
  684W        W60220   2.958  21.223  13.414
  685W        W60221  34.115  25.566  11.953
  686W        W60222  34.382  34.952  11.073
  687W        W60223   1.447  13.114  12.375
  688W        W60224  30.063  24.597   9.961
  689W        W60225  11.761   3.265   3.265
  690W        W60226  25.162  44.414   4.245
  691W        W60227  39.943  28.600   1.925
  692W        W60228  31.965  32.935  12.090
  693W        W60229  18.741  37.407   9.946
  694W        W60230  22.548  40.929   3.843
  695W        W60231  11.285  44.918   1.867
  696W        W60232  27.480  20.259  14.938
  697W        W60233  14.308  18.225  11.590
  698W        W60234  32.517  25.993   1.840
  699W        W60235   5.775  32.073   5.276
  700W        W60236  18.267   1.322   0.834
  701W        W60237  10.194  18.201  10.055
  702W        W60238   5.722  34.511  12.883
  703W        W60239   7.376  23.643  14.885
  704W        W60240  27.620   4.894  14.317
  705W        W60241  20.270   8.355  14.846
  706W        W60242  13.728   9.233  13.960
  707W        W60243  20.744   5.344  11.384
  708W        W60244   6.904   4.701   3.785
  709W        W60245   0.981   2.469  13.844
  710W        W60246  23.719   8.844  11.958
  711W        W60247  37.978  39.029  14.348
  712W        W60248   7.241  44.005   1.278
  713W        W60249  32.430  11.267   2.316
  714W        W60250  10.741   9.330   2.766
  715W        W60251  13.752   0.348  12.577
  716W        W60252  14.677  30.918   2.229
  717W        W60253  35.056  16.787   3.226
  718W        W60254  30.619   4.346   1.317
  719W        W60255  28.003  36.573   0.836
  720W        W60256   5.242  28.181  12.443
  721W        W60257  24.092   0.747   3.738
  722W        W60258   5.902  35.483   0.435
  723W        W60259  40.509   1.357  14.786
  724W        W60260  35.020   2.833   1.819
  725W        W60261  41.873  35.382  10.503
  726W        W60262  34.048  24.682   1.310
  727W        W60263  27.990  40.379   4.273
  728W        W60264   5.804  38.555  14.444
  729W        W60265   2.889   6.336  13.020
  730W        W60266  42.428  24.562   3.789
  731W        W60267  41.313   3.359  13.011
  732W        W60268  14.205  39.058  14.855
  733W        W60269  25.625  15.315   0.849
  734W        W60270  14.319   8.366  10.989
  735W        W60271  27.078   5.763   3.361
  736W        W60272   5.291   9.819  11.925
  737W        W60273  24.709  11.203  11.003
  738W        W60274  41.306   2.363  14.826
  739W        W60275  34.981   0.370  12.084
  740W        W60276  26.005  39.496   4.628
  741W        W60277  11.253  29.974   0.344
  742W        W60278  27.464  35.381   4.189
  743W        W60279  15.085  15.155  14.961
  744W        W60280   5.724  33.959  12.979
  745W        W60281  41.887  18.290  12.829
  746W        W60282   6.399   5.888   2.225
  747W        W60283  37.994  29.000  14.375
  748W        W60284  32.511  22.690   0.963
  749W        W60285  32.976  29.082  13.529
  750W        W60286   9.357  20.271   1.321
  751W        W60287  40.423  36.526   4.673
  752W        W60288  12.746  26.117  12.954
  753W        W60289  19.250  13.132  12.895
  754W        W60290  32.980  41.974   3.207
  755W        W60291  22.739   0.398  11.496
  756W        W60292  37.393  10.347  14.335
  757W        W60293  31.431   7.850   4.229
  758W        W60294   9.208  42.790  12.826
  759W        W60295  19.559  35.941   1.418
  760W        W60296  27.655   0.323  14.985
  761W        W60297  38.559   6.352   0.401
  762W        W60298  22.091  35.991   1.340
  763W        W60299  41.995   1.957   2.200
  764W        W60300  21.739  40.997  10.995
  765W        W60301  12.679  38.348   1.381
  766W        W60302  40.049  36.377  10.961
  767W        W60303  20.221   0.821  14.415
  768W        W60304  11.274  17.641   3.702
  769W        W60305  27.621  14.752   0.958
  770W        W60306  39.349  28.606   1.327
  771W        W60307  11.131  35.463   4.666
  772W        W60308  22.215  26.976  12.388
  773W        W60309  25.147  43.962   4.263
  774W        W60310   4.320   6.820   3.159
  775W        W60311   5.719  29.990   0.406
  776W        W60312  31.570  33.571   2.372
  777W        W60313   4.420  11.818   1.736
  778W        W60314  19.717  37.347  12.493
  779W        W60315  15.658  39.324   1.837
  780W        W60316   9.330   6.750  11.867
  781W        W60317  41.522  31.643  11.059
  782W        W60318  19.707   6.766   1.809
  783W        W60319  38.834  44.435   1.357
  784W        W60320  10.703  29.927  10.620
  785W        W60321  26.657  23.543   1.730
  786W        W60322  43.909  40.971  12.537
  787W        W60323  18.232  38.411  14.490
  788W        W60324  21.703  41.955   1.711
  789W        W60325  44.779  13.340   0.448
  790W        W60326  37.502  11.230  11.935
  791W        W60327  18.580  17.738  10.990
  792W        W60328  34.521   8.405   3.630
  793W        W60329  43.403  38.571   1.382
  794W        W60330   0.954  39.528   0.915
  795W        W60331  44.261   9.374  14.488
  796W        W60332  39.840  18.576   4.766
  797W        W60333  43.352  36.506   4.281
  798W        W60334  42.360   3.280   1.310
  799W        W60335  41.815  17.662   0.860
  800W        W60336   7.819  37.577  12.965
  801W        W60337  34.085  27.452  14.820
  802W        W60338  33.123  15.723  11.549
  803W        W60339   8.732  44.313   4.230
  804W        W60340  28.654  15.188  14.456
  805W        W60341  21.649  20.031   1.756
  806W        W60342  14.288  16.735  12.860
  807W        W60343  30.115  11.626   4.825
  808W        W60344  32.021  23.650  13.463
  809W        W60345  22.022  13.253  14.903
  810W        W60346  14.749  27.522  13.353
  811W        W60347   0.341  16.591  11.405
  812W        W60348   0.381  15.266  10.890
  813W        W60349  10.736   9.797   1.875
  814W        W60350   8.264  40.318   1.871
  815W        W60351  26.521  20.739   2.253
  816W        W60352   4.883  39.462   4.300
  817W        W60353  10.377  39.468   2.205
  818W        W60354  43.271  28.677  12.572
  819W        W60355   5.345   1.958  13.984
  820W        W60356   3.256  37.980  11.128
  821W        W60357   4.408  32.057  13.837
  822W        W60358  41.381  38.855  10.072
  823W        W60359  25.524  34.878  12.941
  824W        W60360  21.562  22.646   3.269
  825W        W60361  18.701  26.036   3.854
  826W        W60362  10.261   4.723   2.688
  827W        W60363   3.324  14.644   3.783
  828W        W60364  20.562  44.500   1.402
  829W        W60365  30.564   1.931   2.191
  830W        W60366   8.227  35.000   1.408
  831W        W60367  26.040  18.681  11.603
  832W        W60368  22.582   8.245   4.211
  833W        W60369  15.754  40.434  14.980
  834W        W60370  22.556  28.476  14.859
  835W        W60371  28.500   7.820  13.032
  836W        W60372  17.665  10.229  12.445
  837W        W60373  11.188  35.109   2.792
  838W        W60374  14.665  18.121   1.867
  839W        W60375  28.983  33.933  10.947
  840W        W60376  33.440  43.308   3.751
  841W        W60377  14.699  20.188   4.133
  842W        W60378  27.452  10.216  14.394
  843W        W60379  37.526  19.589  12.899
  844W        W60380  43.807   2.310  11.491
  845W        W60381  12.632  35.011   4.235
  846W        W60382   3.826  44.391   4.823
  847W        W60383  12.195  39.978  13.916
  848W        W60384  14.123  30.143  14.350
  849W        W60385  20.126  17.116  10.437
  850W        W60386  17.230  39.452   1.933
  851W        W60387  11.799  24.139  10.608
  852W        W60388  23.203  32.134   1.323
  853W        W60389  20.251  38.437  10.111
  854W        W60390  16.297   6.235  10.898
  855W        W60391  12.292  21.643  14.938
  856W        W60392   2.848   0.947  14.959
  857W        W60393  30.492   3.443   4.682
  858W        W60394  30.939  28.073  12.013
  859W        W60395  16.280  44.789  10.483
  860W        W60396  40.483  44.484  10.522
  861W        W60397  14.182  42.786  14.466
  862W        W60398  34.004  16.105   1.382
  863W        W60399  11.351  28.497  13.798
  864W        W60400   4.344   1.322   1.406
  865W        W60401  18.197   6.853   4.316
  866W        W60402  35.925  25.556   3.655
  867W        W60403   6.860  41.418  12.388
  868W        W60404  27.589  27.994   0.475
  869W        W60405  41.024  15.728  12.379
  870W        W60406  14.115  14.729   1.423
  871W        W60407  23.672  26.103  12.485
  872W        W60408  37.919   8.815  13.058
  873W        W60409   1.886   8.691  14.772
  874W        W60410  18.195  35.400   1.315
  875W        W60411   5.328  42.478  12.061
  876W        W60412  24.069  13.616   1.275
  877W        W60413  22.041   1.827   2.742
  878W        W60414  37.014  36.098  12.832
  879W        W60415  41.916   0.302   2.305
  880W        W60416  27.977  31.601   1.446
  881W        W60417  15.250   5.402  13.041
  882W        W60418  43.326  13.344  12.000
  883W        W60419  16.810  28.570  13.317
  884W        W60420  23.989  20.084  11.439
  885W        W60421  19.689  25.038   0.739
  886W        W60422   0.786  38.862  12.347
  887W        W60423   0.268   4.717  14.416
  888W        W60424  42.328   1.411  12.347
  889W        W60425   5.336  24.151   2.271
  890W        W60426  10.281  39.928  10.589
  891W        W60427  20.752  14.222   3.219
  892W        W60428  31.456  14.717  12.865
  893W        W60429  33.507  40.330  11.384
  894W        W60430   0.939   2.942   2.884
  895W        W60431  13.164  24.069   0.262
  896W        W60432  35.867  24.534   5.676
  897W        W60433  39.836   7.665   3.789
  898W        W60434  29.968  20.237  12.972
  899W        W60435  12.750   4.425   2.889
  900W        W60436  16.128   3.419   4.718
  901W        W60437  14.800  32.516  12.566
  902W        W60438  22.549  45.000  11.914
  903W        W60439  39.066  39.875   1.882
  904W        W60440  29.974  43.447  12.869
  905W        W60441  26.473   0.752  10.556
  906W        W60442   3.823  43.280  10.509
  907W        W60443  31.128  21.136   4.226
  908W        W60444  33.396   1.903  14.366
  909W        W60445  25.098  26.150  12.358
  910W        W60446   9.821  34.919  10.583
  911W        W60447  36.501   4.739   3.165
  912W        W60448  34.976  29.003  13.793
  913W        W60449   4.726  31.016  13.455
  914W        W60450   3.880  25.181   0.285
  915W        W60451  37.893   2.941   5.247
  916W        W60452  27.074  39.823  13.313
  917W        W60453  16.226  28.094   3.384
  918W        W60454   6.910  20.083   4.129
  919W        W60455  35.935   9.295   0.874
  920W        W60456  31.976  17.778   4.199
  921W        W60457   0.303   5.274   3.204
  922W        W60458  12.681  43.516   3.241
  923W        W60459  28.453  26.987  13.950
  924W        W60460  27.604  40.538  14.898
  925W        W60461  28.938   2.306   0.758
  926W        W60462  43.822  21.530   2.834
  927W        W60463   2.357   3.837  12.942
  928W        W60464  15.738  40.327  11.583
  929W        W60465  41.324  30.559   4.635
  930W        W60466  21.183  24.603  12.509
  931W        W60467  41.885  10.376  12.402
  932W        W60468  18.630  43.397  13.981
  933W        W60469  35.873  15.179   0.917
  934W        W60470  26.044  41.957  13.831
  935W        W60471  18.237  12.307  12.376
  936W        W60472  19.630  30.533  10.468
  937W        W60473  26.671  26.969   2.242
  938W        W60474   5.272  10.352   3.226
  939W        W60475  16.201  40.801   3.238
  940W        W60476  23.583  11.853   1.335
  941W        W60477  15.277  32.628  10.478
  942W        W60478  24.087  18.285  12.872
  943W        W60479  27.593   4.233   1.310
  944W        W60480   0.771  30.578   1.380
  945W        W60481   3.245   7.346  14.822
  946W        W60482   8.861  19.697  10.910
  947W        W60483  42.954  39.445  14.276
  948W        W60484   2.836   1.406   0.886
  949W        W60485  35.894   7.394  13.413
  950W        W60486   8.340  41.386   3.682
  951W        W60487   6.885  17.590  14.463
  952W        W60488  21.698  41.894   3.674
  953W        W60489  43.841  32.917   2.671
  954W        W60490  19.713   1.360   3.298
  955W        W60491  13.810  38.922   3.715
  956W        W60492   8.697  13.716   2.810
  957W        W60493  43.900  35.528  12.416
  958W        W60494  13.782  42.989   4.815
  959W        W60495  33.905   0.915   4.241
  960W        W60496  17.072  33.034   2.335
  961W        W60497  18.723   9.766   3.708
  962W        W60498   6.905  10.850   0.411
  963W        W60499   3.930  19.576  12.852
  964W        W60500   3.937   0.256   0.322
  965W        W60501  37.370   1.304   0.359
  966W        W60502   5.252   7.805  14.290
  967W        W60503  43.982  13.844   2.235
  968W        W60504   0.745  27.106  14.993
  969W        W60505  38.450  28.659   0.763
  970W        W60506  34.033   5.730  14.925
  971W        W60507  12.728   5.211  14.921
  972W        W60508  31.466  22.708   1.404
  973W        W60509  27.618  32.436   2.238
  974W        W60510  29.548  18.593  13.342
  975W        W60511  30.566  13.609  12.977
  976W        W60512   7.270  40.349   2.851
  977W        W60513   4.843  22.733   4.162
  978W        W60514  11.230   8.373   1.253
  979W        W60515  11.309  27.155  13.529
  980W        W60516  14.601  13.341  13.929
  981W        W60517   8.287   0.799   0.935
  982W        W60518  20.751   4.701  12.968
  983W        W60519  18.203  27.672  10.994
  984W        W60520   3.851  15.778  11.468
  985W        W60521  41.318  42.878   2.718
  986W        W60522   7.835   1.927   4.667
  987W        W60523   6.758  31.516   4.784
  988W        W60524  12.154   7.728   1.779
  989W        W60525  28.936  40.941   1.356
  990W        W60526  39.319  22.540  13.001
  991W        W60527  14.781  19.145  11.604
  992W        W60528  42.454  26.104  13.827
  993W        W60529  33.601  24.586  10.926
  994W        W60530  10.287  33.921  13.006
  995W        W60531  43.462  40.307  13.389
  996W        W60532   0.961  27.579   2.720
  997W        W60533  24.984  10.377  14.313
  998W        W60534  42.936  35.564   1.825
  999W        W60535   8.883  13.264  14.950
 1000W        W60536  13.693  21.591  14.834
 1001W        W60537  13.291  21.734  10.477
 1002W        W60538   7.243  27.525  13.933
 1003W        W60539  30.943   1.394  13.351
 1004W        W60540  14.773   7.353   9.660
 1005W        W60541  25.049  22.610  11.061
 1006W        W60542  16.144  33.015   4.784
 1007W        W60543  23.575   9.185   4.236
 1008W        W60544   8.824  10.698   4.809
 1009W        W60545   1.850  12.199  14.510
 1010W        W60546  35.481  44.272  11.457
 1011W        W60547  38.349  40.869   3.844
 1012W        W60548   0.487  39.493   1.403
 1013W        W60549   2.941  25.025  12.496
 1014W        W60550  42.936  41.873  13.548
 1015W        W60551  39.444   3.812  12.521
 1016W        W60552  31.139  40.459  11.446
 1017W        W60553  38.014   5.400   0.764
 1018W        W60554  43.944  19.165  10.938
 1019W        W60555  14.214  17.761  13.412
 1020W        W60556   7.905  44.307  11.128
 1021W        W60557  20.717  31.520   4.295
 1022W        W60558  27.108  13.787  13.467
 1023W        W60559  29.052  29.637  13.953
 1024W        W60560  16.765  26.465   4.120
 1025W        W60561  10.138  44.921   1.835
 1026W        W60562  17.202  11.195  11.383
 1027W        W60563   0.913   5.883  12.577
 1028W        W60564  35.484  21.526   3.145
 1029W        W60565   2.343  13.253  11.088
 1030W        W60566  37.913  27.581  14.952
 1031W        W60567  31.642  23.009  13.309
 1032W        W60568   9.732   1.904   1.769
 1033W        W60569  15.782  14.203   4.262
 1034W        W60570   8.816  31.086  10.087
 1035W        W60571  10.811   5.346   0.768
 1036W        W60572  26.607  12.304   2.722
 1037W        W60573  17.570   0.363  14.016
 1038W        W60574  20.083  29.990   3.682
 1039W        W60575  41.881   2.762   1.437
 1040W        W60576  33.919  11.806   4.609
 1041W        W60577  10.669   4.298  11.560
 1042W        W60578   9.750  20.198   2.881
 1043W        W60579  23.508  38.343   3.670
 1044W        W60580  36.377  30.496   2.851
 1045W        W60581  12.612   0.256  12.349
 1046W        W60582  44.362  24.157  12.543
 1047W        W60583  14.113  29.028  12.044
 1048W        W60584  12.835  17.708  14.839
 1049W        W60585   3.280  28.994  11.406
 1050W        W60586   3.391  28.939  12.042
 1051W        W60587  39.388  28.929   4.289
 1052W        W60588  21.522   2.942   1.856
 1053W        W60589   8.835  40.477   4.353
 1054W        W60590  16.109   7.358   1.243
 1055W        W60591  19.632  34.011   4.136
 1056W        W60592   6.417  19.544  12.501
 1057W        W60593  24.626  22.579  11.428
 1058W        W60594   2.384  11.752   1.855
 1059W        W60595  14.694  38.963  12.541
 1060W        W60596  10.322  23.534   0.842
 1061W        W60597  28.660  27.519   0.861
 1062W        W60598  38.375  27.043  12.447
 1063W        W60599  27.579   3.406  14.505
 1064W        W60600  13.257  36.478  12.069
 1065W        W60601  40.495  16.254  12.831
 1066W        W60602  38.445   2.732   4.316
 1067W        W60603  12.268  37.982   1.816
 1068W        W60604  11.215  44.314   2.251
 1069W        W60605  24.552  17.730  14.515
 1070W        W60606   0.351  13.257  14.996
 1071W        W60607   8.708  14.162   2.365
 1072W        W60608  19.072  11.263   0.906
 1073W        W60609   6.216  30.515   1.448
 1074W        W60610  10.158  38.333  14.822
 1075W        W60611  19.565  43.485   2.873
 1076W        W60612  42.484  14.227   2.750
 1077W        W60613  40.426  17.273  12.829
 1078W        W60614  24.999   2.326   4.803
 1079W        W60615  26.597  35.960   0.826
 1080W        W60616  15.760  28.972  11.898
 1081W        W60617  39.936  11.827  11.964
 1082W        W60618  26.549  23.028   0.306
 1083W        W60619  36.061  38.380   4.166
 1084W        W60620  13.622  43.923   0.356
 1085W        W60621   3.387  25.203   2.692
 1086W        W60622   6.822  15.207  14.317
 1087W        W60623   6.334   1.813  13.993
 1088W        W60624  39.848  26.093   3.312
 1089W        W60625  31.111  23.093   1.803
 1090W        W60626  43.918  22.550   3.733
 1091W        W60627  22.088  25.987   3.830
 1092W        W60628  28.105  19.582   4.721
 1093W        W60629  12.644  36.458   4.696
 1094W        W60630  39.314  38.414   1.418
 1095W        W60631  13.762  28.674   0.924
 1096W        W60632  42.472  27.512   4.226
 1097W        W60633  40.419  44.877  10.482
 1098W        W60634  18.568   4.209   1.401
 1099W        W60635  14.308   2.241  12.473
 1100W        W60636   4.416  25.558   2.743
 1101W        W60637   1.464  35.499   4.199
 1102W        W60638   3.747  13.603  10.573
 1103W        W60639  11.712  35.601   4.794
 1104W        W60640  42.980  29.568   1.812
 1105W        W60641   6.752  23.612   3.709
 1106W        W60642  20.759   7.878   1.270
 1107W        W60643  36.859  17.770  10.945
 1108W        W60644   9.200  32.474   2.763
 1109W        W60645  31.127  21.211   1.346
 1110W        W60646  42.495   8.782  12.091
 1111W        W60647  43.325   0.482   2.710
 1112W        W60648   9.174  35.983   4.154
 1113W        W60649   5.354  21.137  14.367
 1114W        W60650  13.144  34.044  10.973
 1115W        W60651  20.138   3.860   1.725
 1116W        W60652  26.150   9.753   1.709
 1117W        W60653   1.309  26.070   1.772
 1118W        W60654  36.508  19.762  11.088
 1119W        W60655  44.480  24.637  14.362
 1120W        W60656  11.725  31.520  10.020
 1121W        W60657   7.255   7.894   2.840
 1122W        W60658   0.969  31.951   3.301
 1123W        W60659  26.995  22.199   4.690
 1124W        W60660  30.937  35.982  14.902
 1125W        W60661  26.093  25.491  14.370
 1126W        W60662  37.353  28.610   3.312
 1127W        W60663  18.718  35.438   0.938
 1128W        W60664  40.442  14.748  13.364
 1129W        W60665  28.493  31.976  11.537
 1130W        W60666   2.295  35.506  11.938
 1131W        W60667  44.353  36.431   2.825
 1132W        W60668   6.268   7.770  11.590
 1133W        W60669  26.097  44.497   0.430
 1134W        W60670  14.213  26.632   9.969
 1135W        W60671  33.980  28.495   0.887
 1136W        W60672   4.286  31.107  13.405
 1137W        W60673  17.595  19.078  13.874
 1138W        W60674   1.285  18.091   2.273
 1139W        W60675  40.353  33.058   0.265
 1140W        W60676  29.926  23.131  12.398
 1141W        W60677  15.683  11.669   5.229
 1142W        W60678   8.159  22.124   1.252
 1143W        W60679  40.952  26.038  11.405
 1144W        W60680   4.291  43.312   2.359
 1145W        W60681   3.424  16.775  13.062
 1146W        W60682   4.234   8.897  12.388
 1147W        W60683  13.631  25.591   4.807
 1148W        W60684  17.561   8.255  14.899
 1149W        W60685  39.410  13.207  12.447
 1150W        W60686  15.582  42.373  10.424
 1151W        W60687  41.333  30.566  13.436
 1152W        W60688  24.582   1.302   4.127
 1153W        W60689   5.380  17.700  11.892
 1154W        W60690  43.433   7.250   0.769
 1155W        W60691  24.600  36.022   1.694
 1156W        W60692  23.239  44.787   2.212
 1157W        W60693   2.382   3.791  14.992
 1158W        W60694  34.118   6.922   3.257
 1159W        W60695  38.423  40.815  11.109
 1160W        W60696  37.495   7.275   4.236
 1161W        W60697  19.071  36.403   0.888
 1162W        W60698   4.291   0.282  11.469
 1163W        W60699  26.472  19.157   1.863
 1164W        W60700   4.431  29.666  14.873
 1165W        W60701   6.239  15.252  14.462
 1166W        W60702  22.197  25.082   0.939
 1167W        W60703   3.724  37.480   0.887
 1168W        W60704  30.560   1.478  14.979
 1169W        W60705   1.912  14.107  14.884
 1170W        W60706  26.080  32.058  10.411
 1171W        W60707  42.321  40.978   4.280
 1172W        W60708  36.908  26.548  13.502
 1173W        W60709   1.925  18.180  12.345
 1174W        W60710  18.202  19.558  14.320
 1175W        W60711  23.717  20.109   2.326
 1176W        W60712  26.613   7.900   1.310
 1177W        W60713  41.463  44.301   3.190
 1178W        W60714  42.507  33.126   4.715
 1179W        W60715  32.092  15.592  13.449
 1180W        W60716  42.514   1.348  13.042
 1181W        W60717  28.095  29.618  13.497
 1182W        W60718  30.512  31.048   0.868
 1183W        W60719  37.978  32.491   2.279
 1184W        W60720  15.138  21.176  11.605
 1185W        W60721  32.412  23.204   3.193
 1186W        W60722  26.566  41.996   0.756
 1187W        W60723  28.025  28.935   3.167
 1188W        W60724  22.227  34.398  11.564
 1189W        W60725  44.969  39.338   2.237
 1190W        W60726  20.159  35.357  11.937
 1191W        W60727  30.098   3.870  13.490
 1192W        W60728  15.226   7.715   1.709
 1193W        W60729  36.938  12.321   1.896
 1194W        W60730  31.410  35.054   0.803
 1195W        W60731  18.763   1.901  13.317
 1196W        W60732  22.092   8.737   2.313
 1197W        W60733  23.697   9.380   0.412
 1198W        W60734  38.026  39.930  10.976
 1199W        W60735  36.881  19.189  12.971
 1200W        W60736  36.545  12.708  10.016
 1201W        W60737  27.007  36.095   0.449
 1202W        W60738  32.125  22.666  12.961
 1203W        W60739  38.980  10.874   0.383
 1204W        W60740  28.162   8.840  12.036
 1205W        W60741  10.780  36.528   4.781
 1206W        W60742  18.291  35.500  13.914
 1207W        W60743  34.938  20.606  14.514
 1208W        W60744   1.483  36.563  10.939
 1209W        W60745   7.395  19.569   4.340
 1210W        W60746  11.693   8.749   5.584
 1211W        W60747  18.071  37.085   0.764
 1212W        W60748  19.709  15.716   5.304
 1213W        W60749  10.799  41.353   3.735
 1214W        W60750  39.946  16.283  11.872
 1215W        W60751  32.907  12.657   0.848
 1216W        W60752   9.203  18.104   0.269
 1217W        W60753  23.651  17.121  12.497
 1218W        W60754  30.578  29.553   1.893
 1219W        W60755  42.930   2.927  12.396
 1220W        W60756  11.748  19.559  10.909
 1221W        W60757  39.382  43.780   3.832
 1222W        W60758  20.596  26.007   2.719
 1223W        W60759  28.645  23.208   0.917
 1224W        W60760  31.644  20.173   2.267
 1225W        W60761  44.481  33.887  14.786
 1226W        W60762   9.826  44.905   4.314
 1227W        W60763   1.795   1.878   4.290
 1228W        W60764  21.148  13.186   1.710
 1229W        W60765  23.078  14.591  11.428
 1230W        W60766  13.211  42.926  14.354
 1231W        W60767  14.311  20.762  10.910
 1232W        W60768  18.751  16.742  10.087
 1233W        W60769  39.832   9.774   0.902
 1234W        W60770  13.607  41.492   3.849
 1235W        W60771  24.167  23.557  13.804
 1236W        W60772  43.369  36.937   2.406
 1237W        W60773  31.912   7.303  13.353
 1238W        W60774  25.645  28.070   0.783
 1239W        W60775  38.556   6.199  11.945
 1240W        W60776  27.531  33.509  12.386
 1241W        W60777  43.505   8.223  10.632
 1242W        W60778   4.891  39.392  13.974
 1243W        W60779  24.035  19.686   2.412
 1244W        W60780   4.884   6.693   4.228
 1245W        W60781  44.796  23.667  14.427
 1246W        W60782   7.730   4.738   4.201
 1247W        W60783  13.742  11.221   4.260
 1248W        W60784   2.265  22.018  14.828
 1249W        W60785  34.998   8.226  13.064
 1250W        W60786  42.797  11.195   0.915
 1251W        W60787   5.365  43.793  14.961
 1252W        W60788  33.874  31.402   3.743
 1253W        W60789  41.987  30.145  13.990
 1254W        W60790  20.665   7.214  14.820
 1255W        W60791  29.172  13.243  14.996
 1256W        W60792   5.810  32.919  13.948
 1257W        W60793  31.105  16.202   2.861
 1258W        W60794   0.782  38.382   1.320
 1259W        W60795   9.735  32.448   4.294
 1260W        W60796  39.842  18.097   0.851
 1261W        W60797  24.540  32.091  14.025
 1262W        W60798  22.055  44.782  14.026
 1263W        W60799  10.811  39.040  10.450
 1264W        W60800  19.635  30.909  10.900
 1265W        W60801  21.213  36.352   0.891
 1266W        W60802  29.472   8.821   0.316
 1267W        W60803  13.274  27.192  13.000
 1268W        W60804  33.901  42.829   2.407
 1269W        W60805  12.334  26.089  10.926
 1270W        W60806   2.843  13.114  11.930
 1271W        W60807  35.031  11.841  13.887
 1272W        W60808  37.986  39.433  13.844
 1273W        W60809  31.401  28.113   3.250
 1274W        W60810  41.482  21.250  10.436
 1275W        W60811  32.907  28.472  11.440
 1276W        W60812  20.256  15.273  10.890
 1277W        W60813  31.093   5.205  12.094
 1278W        W60814  37.874  15.205  14.768
 1279W        W60815   0.798   6.881  10.897
 1280W        W60816  14.209  13.735   1.262
 1281W        W60817  33.992   8.285   4.774
 1282W        W60818  20.769   9.840  11.567
 1283W        W60819   5.848  26.614   4.233
 1284W        W60820  13.254  17.251   4.124
 1285W        W60821  35.900  42.401  11.001
 1286W        W60822   6.920  22.215  10.889
 1287W        W60823  29.094   0.938   4.799
 1288W        W60824  43.394  10.175  13.940
 1289W        W60825  27.032  42.845   4.643
 1290W        W60826  15.785  36.960   0.437
 1291W        W60827  40.809  12.351  13.824
 1292W        W60828  15.755  19.198   1.773
 1293W        W60829  40.409  33.011  11.910
 1294W        W60830  34.587  33.595  13.394
 1295W        W60831  19.281  31.986   3.838
 1296W        W60832  27.042  36.866   4.745
 1297W        W60833   6.875  40.028  11.938
 1298W        W60834  28.579  10.793  12.416
 1299W        W60835  25.052  18.123  12.580
 1300W        W60836  24.571  13.112   0.329
 1301W        W60837  12.160  36.528  14.891
 1302W        W60838  32.576   3.786  13.441
 1303W        W60839  40.399   3.908  10.531
 1304W        W60840   8.882  38.969  10.915
 1305W        W60841  17.680  24.526   3.295
 1306W        W60842  39.492  15.223  13.857
 1307W        W60843  12.708   4.941  11.551
 1308W        W60844   8.872  43.313  11.967
 1309W        W60845   2.819   2.383  12.004
 1310W        W60846  29.091   1.894  10.932
 1311W        W60847  44.897  17.611   1.346
 1312W        W60848  13.107  34.436  10.094
 1313W        W60849  26.011   2.349   1.258
 1314W        W60850  32.633  42.979  12.851
 1315W        W60851  31.564  41.981  11.584
 1316W        W60852  14.695  41.794  11.082
 1317W        W60853  17.600  22.010   1.362
 1318W        W60854  33.419  12.828   0.836
 1319W        W60855  16.599   6.351  11.464
 1320W        W60856  24.604  37.855   0.899
 1321W        W60857   2.285  29.609  14.295
 1322W        W60858  11.731   6.329  11.064
 1323W        W60859   2.399  25.144  14.993
 1324W        W60860  43.814  22.502   1.804
 1325W        W60861   6.253   2.266   3.692
 1326W        W60862   6.200  36.361  13.012
 1327W        W60863  29.984  40.379   0.944
 1328W        W60864  43.834  43.349   2.716
 1329W        W60865  22.247  32.460  14.300
 1330W        W60866  21.247  18.070   0.863
 1331W        W60867  44.415   3.842   1.225
 1332W        W60868  20.261   7.890   4.729
 1333W        W60869  40.377  11.740   2.800
 1334W        W60870  43.391  10.758   0.787
 1335W        W60871  16.788   1.299   1.414
 1336W        W60872  36.383  12.236   2.329
 1337W        W60873  24.057  31.517  11.059
 1338W        W60874   5.729   2.289  13.531
 1339W        W60875  25.646  13.744   3.202
 1340W        W60876  18.549  20.165   1.929
 1341W        W60877   0.274  21.127  11.007
 1342W        W60878  43.992  12.316   1.877
 1343W        W60879  20.142  14.783   4.821
 1344W        W60880   6.696   3.924   1.445
 1345W        W60881  13.350   6.252   3.293
 1346W        W60882  21.662  34.880   0.914
 1347W        W60883  36.473  28.490  14.497
 1348W        W60884  11.170  35.445  13.311
 1349W        W60885   3.414  42.397  10.417
 1350W        W60886  31.024  25.475   2.857
 1351W        W60887  33.983  27.603   4.168
 1352W        W60888   6.219  20.250   0.372
 1353W        W60889  34.067  18.765  14.838
 1354W        W60890  15.165  40.526   3.781
 1355W        W60891  10.764  13.736  10.987
 1356W        W60892   7.691   9.756   3.374
 1357W        W60893   8.166  19.098  13.991
 1358W        W60894  34.056   5.200   1.706
 1359W        W60895   6.892  26.141  10.034
 1360W        W60896  16.595  11.229   4.188
 1361W        W60897  27.482  33.129   1.772
 1362W        W60898  44.429  44.867  10.985
 1363W        W60899  40.304  19.727   4.125
 1364W        W60900  17.139  18.588  14.917
 1365W        W60901  41.293  26.564   1.829
 1366W        W60902  33.586   9.758   2.800
 1367W        W60903  20.274  31.056  10.938
 1368W        W60904  37.356  17.575   2.265
 1369W        W60905  40.362  37.084  12.845
 1370W        W60906  21.032  32.101   4.618
 1371W        W60907   5.782   1.362  11.929
 1372W        W60908  26.079  27.546   4.249
 1373W        W60909  21.241  16.591   1.295
 1374W        W60910  44.496  19.582  10.475
 1375W        W60911  23.507  15.136   0.474
 1376W        W60912  10.648  16.168   3.667
 1377W        W60913  40.054  40.460   1.251
 1378W        W60914  39.403  39.008   0.267
 1379W        W60915   7.900   1.298  13.904
 1380W        W60916  40.903  32.047  12.006
 1381W        W60917  33.034  34.891  10.924
 1382W        W60918  33.504  13.673   1.240
 1383W        W60919  41.804  12.151  10.068
 1384W        W60920  25.020  25.677   1.828
 1385W        W60921  16.264  33.465   3.639
 1386W        W60922  21.714  12.661  12.485
 1387W        W60923   8.266  35.038   2.789
 1388W        W60924   6.327  26.191   0.463
 1389W        W60925  14.671  24.639   0.439
 1390W        W60926  34.957  14.627   2.703
 1391W        W60927  13.818  17.305  14.780
 1392W        W60928  17.793  28.578   4.209
 1393W        W60929  44.265   3.236  11.514
 1394W        W60930  39.406  34.893   0.874
 1395W        W60931  18.715  26.048  13.497
 1396W        W60932   4.755  28.643   4.622
 1397W        W60933  15.614   7.834   4.254
 1398W        W60934  41.811  33.616   3.177
 1399W        W60935  19.708  14.711   3.344
 1400W        W60936  24.550   2.786  11.040
 1401W        W60937   1.463  27.177   3.264
 1402W        W60938  27.054   8.848   2.273
 1403W        W60939  17.258  29.634   1.405
 1404W        W60940  40.956   8.294   3.256
 1405W        W60941  27.545   5.392  11.094
 1406W        W60942  44.755  43.897  14.766
 1407W        W60943   2.287  32.628  13.061
 1408W        W60944  26.652   0.819   3.867
 1409W        W60945  17.654   1.281  13.833
 1410W        W60946  38.881  14.625  12.095
 1411W        W60947  23.652  24.624   4.299
 1412W        W60948   6.386  26.555  13.894
 1413W        W60949  39.997   2.933   2.320
 1414W        W60950  30.530  30.530  12.868
 1415W        W60951   3.353  12.241   1.790
 1416W        W60952   6.306   1.852   0.458
 1417W        W60953  24.016  36.520   1.925
 1418W        W60954  32.627  37.069   2.903
 1419W        W60955  42.479  37.563  10.029
 1420W        W60956  38.508  12.322   2.273
 1421W        W60957  24.168  31.000  11.454
 1422W        W60958  25.712  11.842   4.817
 1423W        W60959   8.392  32.527   3.286
 1424W        W60960  25.104  44.474   0.776
 1425W        W60961  13.268  16.641  11.402
 1426W        W60962  14.624  38.384   2.730
 1427W        W60963  30.424  35.956   3.666
 1428W        W60964  18.714  13.238   1.269
 1429W        W60965   7.329  38.865  13.458
 1430W        W60966  18.671   1.871   4.615
 1431W        W60967  10.172  40.402   5.083
 1432W        W60968  44.427  34.950  11.962
 1433W        W60969  43.337  34.909  11.423
 1434W        W60970  37.468  24.977  11.581
 1435W        W60971  18.190  39.887   0.482
 1436W        W60972  44.978  30.034  11.517
 1437W        W60973  43.315  21.227  10.462
 1438W        W60974  37.572   6.864   1.299
 1439W        W60975  31.569  30.976  14.425
 1440W        W60976  37.064  32.442   2.871
 1441W        W60977  13.337  39.946  14.378
 1442W        W60978  32.085  18.768  14.383
 1443W        W60979  20.071  20.221   3.765
 1444W        W60980   7.297  11.753   4.660
 1445W        W60981  21.576   6.329  11.502
 1446W        W60982  21.051  19.655   0.878
 1447W        W60983   1.366  24.160   3.654
 1448W        W60984   1.450   8.753   3.739
 1449W        W60985   0.356  42.842  12.866
 1450W        W60986  21.634  39.366   1.861
 1451W        W60987  18.711  10.158  13.894
 1452W        W60988  39.811  15.749   3.281
 1453W        W60989  44.281  26.208  10.412
 1454W        W60990   2.785  17.576   2.698
 1455W        W60991  15.660  13.607   1.803
 1456W        W60992  31.429  36.865  10.985
 1457W        W60993   0.915  22.011  10.431
 1458W        W60994   0.447   0.783   3.826
 1459W        W60995   0.406  39.964   1.332
 1460W        W60996   8.701  36.060  10.985
 1461W        W60997  21.539   5.912   3.691
 1462W        W60998  33.028  22.240   2.879
 1463W        W60999  32.565   7.326   3.262
 1464W        W61000  33.402  44.433  14.397
 1465W        W61001  13.274   8.364   4.269
 1466W        W61002   4.724  38.924   0.909
 1467W        W61003  40.490  16.761  11.607
 1468W        W61004   1.261  41.530   2.685
 1469W        W61005   9.689   3.280   3.691
 1470W        W61006  25.586  35.053  14.768
 1471W        W61007  33.512   0.298   1.259
 1472W        W61008  29.030   3.761   2.829
 1473W        W61009  20.198  15.313   4.789
 1474W        W61010  23.175  12.330   3.786
 1475W        W61011   3.793  32.142   1.882
 1476W        W61012  14.181  11.784  13.534
 1477W        W61013  19.128  37.051  12.488
 1478W        W61014   2.731   8.845  14.918
 1479W        W61015  25.705  27.117   2.413
 1480W        W61016   9.207  29.042   4.835
 1481W        W61017  19.162   1.251   3.727
 1482W        W61018  40.495  20.082  14.028
 1483W        W61019  34.106   5.797   4.321
 1484W        W61020   8.776  21.662   3.164
 1485W        W61021  34.930  37.940  11.874
 1486W        W61022  34.941  41.809   0.389
 1487W        W61023   3.839  44.393   0.268
 1488W        W61024  29.104  44.820  11.914
 1489W        W61025  18.168  33.469   0.789
 1490W        W61026  18.624  25.087   5.302
 1491W        W61027  28.597  36.412   0.876
 1492W        W61028   6.243  15.240   4.114
 1493W        W61029  16.765  36.967  12.444
 1494W        W61030  27.475  22.152   2.295
 1495W        W61031   9.358  42.332  14.344
 1496W        W61032  30.582  16.209   4.671
 1497W        W61033  22.098   1.380   1.886
 1498W        W61034  24.701  15.618  11.464
 1499W        W61035  27.010   3.311  14.893
 1500W        W61036  23.662  22.044   3.339
 1501W        W61037   5.260   5.797   1.246
 1502W        W61038  18.726  34.083   3.649
 1503W        W61039   0.296  33.122   1.221
 1504W        W61040   0.763  42.903   2.814
 1505W        W61041  10.190  37.944   0.751
 1506W        W61042  14.654  17.276  10.012
 1507W        W61043  37.416   9.783  12.498
 1508W        W61044   9.779   0.960  13.368
 1509W        W61045  42.498  31.552   1.795
 1510W        W61046  16.802  27.582   1.716
 1511W        W61047  22.093  42.885   4.716
 1512W        W61048  11.291  12.227  13.976
 1513W        W61049  11.288  12.185   1.290
 1514W        W61050  32.129  20.055  13.889
 1515W        W61051  35.106  33.590   1.445
 1516W        W61052   4.426  44.006  11.117
 1517W        W61053  28.090  27.104   0.783
 1518W        W61054  21.671  42.025  10.628
 1519W        W61055  18.722  16.598   3.770
 1520W        W61056  38.926  34.486  10.588
 1521W        W61057  25.519   4.371  13.462
 1522W        W61058  21.629  31.007   2.748
 1523W        W61059  21.058  24.537  13.030
 1524W        W61060   8.701  40.374   1.855
 1525W        W61061   2.742  11.826   3.333
 1526W        W61062  24.060  26.203  11.914
 1527W        W61063   5.374  24.513   2.795
 1528W        W61064  23.129   5.851   2.206
 1529W        W61065  41.989  36.887  11.415
 1530W        W61066   7.174  37.565   4.652
 1531W        W61067   9.288   1.970   0.401
 1532W        W61068  22.249  37.434  13.882
 1533W        W61069  12.274  33.523   4.717
 1534W        W61070  26.077  10.368   3.320
 1535W        W61071  38.487   2.751  14.282
 1536W        W61072  41.523  33.092   4.808
 1537W        W61073  25.081  11.304   4.213
 1538W        W61074  10.182  41.296   4.159
 1539W        W61075  41.508  42.344  14.330
 1540W        W61076  19.729  25.004  14.453
 1541W        W61077  27.091   2.380  11.491
 1542W        W61078   8.760  17.305  14.966
 1543W        W61079  43.942  29.167   1.407
 1544W        W61080  19.663   0.870   3.187
 1545W        W61081  11.863  18.184   1.355
 1546W        W61082  19.698  24.053   3.170
 1547W        W61083  15.740  16.633   3.255
 1548W        W61084   6.314  21.655   3.815
 1549W        W61085  10.770   5.763   0.400
 1550W        W61086  43.014  40.388   1.706
 1551W        W61087  23.671   8.345  14.484
 1552W        W61088  26.568  15.719  10.563
 1553W        W61089  36.032   7.377   4.252
 1554W        W61090  12.188   3.224   5.103
 1555W        W61091  28.977  11.330  13.991
 1556W        W61092  40.358   7.747   5.107
 1557W        W61093  31.565  38.946  13.503
 1558W        W61094   1.752  18.755   1.225
 1559W        W61095   6.762  22.011  14.927
 1560W        W61096  33.918  17.636  13.026
 1561W        W61097  39.968  13.216   0.385
 1562W        W61098  11.650   5.815   4.709
 1563W        W61099  36.864  17.109   4.774
 1564W        W61100  34.404   9.869  12.523
 1565W        W61101   4.938  15.631   3.685
 1566W        W61102  14.787  27.509  13.928
 1567W        W61103  12.198  29.634   3.160
 1568W        W61104  11.309  10.712  12.524
 1569W        W61105  10.303  20.152  14.945
 1570W        W61106   8.722  31.477  11.492
 1571W        W61107  19.578  37.970  13.453
 1572W        W61108  10.700  25.049   0.909
 1573W        W61109  36.909  44.832   0.466
 1574W        W61110   9.782  35.381  12.974
 1575W        W61111  19.063  11.318   0.398
 1576W        W61112  42.854  31.940  11.876
 1577W        W61113  23.192  44.358  12.520
 1578W        W61114  34.399  29.083   4.658
 1579W        W61115  11.806  40.003   1.703
 1580W        W61116  44.756  22.577   1.723
 1581W        W61117  18.142   8.302   1.878
 1582W        W61118  20.107   4.279  12.426
 1583W        W61119  13.665  34.507   4.729
 1584W        W61120   4.397  17.085  11.571
 1585W        W61121  42.505   6.698   2.184
 1586W        W61122   8.334  18.599   0.943
 1587W        W61123   8.360  27.969   4.334
 1588W        W61124   6.848   3.414  13.493
 1589W        W61125  16.673  17.637   4.786
 1590W        W61126  33.085   7.853  12.499
 1591W        W61127  12.731  13.785   1.719
 1592W        W61128  11.187  41.377   1.403
 1593W        W61129  10.813   0.896  14.276
 1594W        W61130   6.920   3.327   3.342
 1595W        W61131  30.103   1.245  11.529
 1596W        W61132  13.601  44.781   1.254
 1597W        W61133  27.984  24.163  10.890
 1598W        W61134  29.069  35.978  11.610
 1599W        W61135  44.994  34.591  11.891
 1600W        W61136  26.118  29.520   0.244
 1601W        W61137  35.856   5.318  10.479
 1602W        W61138  40.964   6.694  14.007
 1603W        W61139  18.114  19.735   0.835
 1604W        W61140  10.230   5.695   3.790
 1605W        W61141   9.741  37.511  11.557
 1606W        W61142  14.799  16.586   0.813
 1607W        W61143  29.433  24.591  10.476
 1608W        W61144   4.916  34.977  11.128
 1609W        W61145  23.986  21.255  12.836
 1610W        W61146  14.673  13.215  12.015
 1611W        W61147  44.796  27.950  14.895
 1612W        W61148  25.049  20.654  10.573
 1613W        W61149  34.460  14.325  14.849
 1614W        W61150  42.523   3.843   1.301
 1615W        W61151  35.855   3.918  11.419
 1616W        W61152  32.967  22.729  14.281
 1617W        W61153  17.096   8.335  13.503
 1618W        W61154  39.490  25.501  14.823
 1619W        W61155   6.849  14.236   3.343
 1620W        W61156  42.946  29.174   4.758
 1621W        W61157  36.971  22.733   1.451
 1622W        W61158  18.093  23.148   3.194
 1623W        W61159  34.399  35.588  11.000
 1624W        W61160  32.434   8.186   1.263
 1625W        W61161  18.204  27.614  11.999
 1626W        W61162  41.914  34.902  12.481
 1627W        W61163  23.717  40.843  13.548
 1628W        W61164  11.322  28.554   1.816
 1629W        W61165  17.182  18.118   9.661
 1630W        W61166   1.820  32.922  12.384
 1631W        W61167  43.852  25.658   9.996
 1632W        W61168  39.897  11.786   0.300
 1633W        W61169  26.178  38.853   3.190
 1634W        W61170  12.357  29.558   9.944
 1635W        W61171  16.795  23.229  14.378
 1636W        W61172  18.556   2.884   3.241
 1637W        W61173   1.891  30.518   2.832
 1638W        W61174  39.922  38.442   0.813
 1639W        W61175  20.693  28.980   1.336
 1640W        W61176  15.115  28.972  11.532
 1641W        W61177  37.400   1.932   1.437
 1642W        W61178  22.653  29.571   3.797
 1643W        W61179  11.361  26.169   4.132
 1644W        W61180   9.200  24.090   4.634
 1645W        W61181  15.589  13.646   0.947
 1646W        W61182  26.615  26.970   2.743
 1647W        W61183  15.084  36.432  14.954
 1648W        W61184  34.478   2.801   4.326
 1649W        W61185  15.724  31.490   2.232
 1650W        W61186  39.413  39.029   0.825
 1651W        W61187  15.660  34.894   5.292
 1652W        W61188  43.857  11.143  14.832
 1653W        W61189  43.457  41.538  13.872
 1654W        W61190  39.388  40.807   3.196
 1655W        W61191  13.714  34.864   1.286
 1656W        W61192  17.185  44.931  10.638
 1657W        W61193  13.278  39.808   4.789
 1658W        W61194  21.058   7.380   0.783
 1659W        W61195  14.828  32.920  13.812
 1660W        W61196  40.019  15.599   2.872
 1661W        W61197  41.838   1.817   4.276
 1662W        W61198  37.341   2.308  10.948
 1663W        W61199  32.414  36.592   4.813
 1664W        W61200  26.601   0.925   4.143
 1665W        W61201  28.646  43.818  11.876
 1666W        W61202  27.121  35.039  12.396
 1667W        W61203  32.006   7.377   4.251
 1668W        W61204  19.181  39.541  10.439
 1669W        W61205  32.531  18.239   3.187
 1670W        W61206  36.389   9.322  11.933
 1671W        W61207  31.407  23.545  11.420
 1672W        W61208   6.915  36.517  11.873
 1673W        W61209  28.146  16.228   0.854
 1674W        W61210  34.597   7.355   3.657
 1675W        W61211  37.914  15.776  12.406
 1676W        W61212  30.533  21.542  11.496
 1677W        W61213  25.004   0.365   2.783
 1678W        W61214  30.951  36.560   0.256
 1679W        W61215  43.487   6.814  14.797
 1680W        W61216  16.567  37.923   3.636
 1681W        W61217   6.757   5.311  12.921
 1682W        W61218  42.354   5.223   3.683
 1683W        W61219  18.582  29.008   2.897
 1684W        W61220   8.379  19.163   4.641
 1685W        W61221  23.206   8.775  12.897
 1686W        W61222   8.819  29.035   1.916
 1687W        W61223  28.547  33.620   2.773
 1688W        W61224  44.912  33.916  14.783
 1689W        W61225  20.536  34.413   3.718
 1690W        W61226  22.105  30.123   1.872
 1691W        W61227  19.222  39.013   2.355
 1692W        W61228  43.379  37.920   2.721
 1693W        W61229  39.843  38.819  10.503
 1694W        W61230  37.470  35.050  11.596
 1695W        W61231  25.655   1.334  12.526
 1696W        W61232  21.625  28.601   2.891
 1697W        W61233  24.511  10.876  10.471
 1698W        W61234  27.998  36.562   0.459
 1699W        W61235  43.394  22.031   2.869
 1700W        W61236  43.506  10.810   4.153
 1701W        W61237  12.673  40.499   2.724
 1702W        W61238  22.743  34.906   4.194
 1703W        W61239  33.116  37.534  12.475
 1704W        W61240   9.303  17.609  14.477
 1705W        W61241  35.084   4.773  11.544
 1706W        W61242  42.362   5.911  10.502
 1707W        W61243  15.236  22.526  12.545
 1708W        W61244  37.370   8.184   2.272
 1709W        W61245  20.558  42.781  13.516
 1710W        W61246  19.601  37.893   2.713
 1711W        W61247  38.865  16.282  12.961
 1712W        W61248   4.373  22.064   1.708
 1713W        W61249  12.135   1.869   2.234
 1714W        W61250  30.508  40.483   2.364
 1715W        W61251  17.079   4.256   1.869
 1716W        W61252  34.977   2.322   1.763
 1717W        W61253  12.804  32.433   2.718
 1718W        W61254  36.547  23.051   3.639
 1719W        W61255  24.679   6.825  13.513
 1720W        W61256  34.063  13.718   2.822
 1721W        W61257  26.481  34.996  11.448
 1722W        W61258  15.580  25.491   0.804
 1723W        W61259  37.963   2.394  13.826
 1724W        W61260  21.553  24.023   2.357
 1725W        W61261   6.733   4.815  13.428
 1726W        W61262  44.807  30.961  12.064
 1727W        W61263  29.931  41.963  11.078
 1728W        W61264   8.771  11.152  13.930
 1729W        W61265  39.518  37.999   2.214
 1730W        W61266  35.955  10.660   3.678
 1731W        W61267  24.639  33.593  13.963
 1732W        W61268  18.729  15.143   1.866
 1733W        W61269   0.328  30.035  11.597
 1734W        W61270   0.493  11.635  14.992
 1735W        W61271  36.956   2.243   0.745
 1736W        W61272  14.637  43.276   3.769
 1737W        W61273   4.232  10.349  11.010
 1738W        W61274  35.944   7.753   0.301
 1739W        W61275   6.261  25.020   4.704
 1740W        W61276  15.200  23.025  11.468
 1741W        W61277  22.097  28.106  14.846
 1742W        W61278  11.674  23.237   2.677
 1743W        W61279   3.403  32.935  10.953
 1744W        W61280  28.017  26.959  10.510
 1745W        W61281  40.959  18.174  12.074
 1746W        W61282  10.651  39.503   3.833
 1747W        W61283   7.893   4.921  13.992
 1748W        W61284  27.190   5.254  10.964
 1749W        W61285  37.975  41.444  14.979
 1750W        W61286  28.586  18.713  12.405
 1751W        W61287  15.739  39.519  14.821
 1752W        W61288   8.769  19.172   3.166
 1753W        W61289  11.814  16.241  13.421
 1754W        W61290  32.023  30.052   0.411
 1755W        W61291  11.362  21.736   3.732
 1756W        W61292  26.559   2.814  12.961
 1757W        W61293  31.584  24.624   2.276
 1758W        W61294  44.312  39.321   4.126
 1759W        W61295  14.248  20.100  13.842
 1760W        W61296  14.789  28.069   2.214
 1761W        W61297  17.608  33.496   0.474
 1762W        W61298   4.868  42.343   4.628
 1763W        W61299  41.002  23.552  10.890
 1764W        W61300  43.382  25.605  10.428
 1765W        W61301  37.029   6.885   4.738
 1766W        W61302  36.384  22.569  12.488
 1767W        W61303  15.104  11.641   1.387
 1768W        W61304  18.706  29.166   0.930
 1769W        W61305   8.867   2.927   3.318
 1770W        W61306   4.944  15.701   5.134
 1771W        W61307  33.554  31.926   2.291
 1772W        W61308  21.756  28.174  13.060
 1773W        W61309  32.553  40.958   4.721
 1774W        W61310  27.526  33.510  13.484
 1775W        W61311  13.688   7.679   3.764
 1776W        W61312  26.684  25.508  11.995
 1777W        W61313  33.572  37.561   3.311
 1778W        W61314  12.334  34.423  13.032
 1779W        W61315  25.508  44.924   4.817
 1780W        W61316  36.542   9.784   2.863
 1781W        W61317  22.249  18.174  14.764
 1782W        W61318  26.642   5.871  10.029
 1783W        W61319  32.594  44.480   1.261
 1784W        W61320  42.895  31.978   4.159
 1785W        W61321  36.574   5.866   4.182
 1786W        W61322  30.131   2.415  12.501
 1787W        W61323  27.162  18.164  14.487
 1788W        W61324  11.658  27.461  12.887
 1789W        W61325  43.865  20.074  13.993
 1790W        W61326  18.732   9.175   0.259
 1791W        W61327  38.382  25.184  10.587
 1792W        W61328  30.594  41.348   1.343
 1793W        W61329  37.561   8.167  10.630
 1794W        W61330  27.600  38.433   1.918
 1795W        W61331  10.383  39.859   1.826
 1796W        W61332  41.947  19.578   5.124
 1797W        W61333   3.428  44.900  12.526
 1798W        W61334  12.180  29.160   0.457
 1799W        W61335  10.787  29.068  14.310
 1800W        W61336  15.708   3.910  14.289
 1801W        W61337  41.445  12.188   2.300
 1802W        W61338  33.567  38.426  14.449
 1803W        W61339  19.072   8.232  11.498
 1804W        W61340   4.704  39.835  11.504
 1805W        W61341   5.207  30.502   0.794
 1806W        W61342  34.999  36.916  14.859
 1807W        W61343   1.828  11.364  11.574
 1808W        W61344  16.299   3.244  12.851
 1809W        W61345  44.890  13.616   2.690
 1810W        W61346   3.220  24.126   1.867
 1811W        W61347   9.773  29.956  13.463
 1812W        W61348  35.538  42.522  12.416
 1813W        W61349  24.977  42.860  14.505
 1814W        W61350   8.799  32.475   1.806
 1815W        W61351  42.513  41.303   1.228
 1816W        W61352   1.383  18.220   0.275
 1817W        W61353   0.860   9.765   3.752
 1818W        W61354  33.449   0.330   4.681
 1819W        W61355  44.466  39.314   5.114
 1820W        W61356  43.951   5.242  10.449
 1821W        W61357  10.876   4.261   1.792
 1822W        W61358   0.278  11.864  12.084
 1823W        W61359  39.375  36.572  11.553
 1824W        W61360  42.873  39.006   3.860
 1825W        W61361  37.414  36.434   4.123
 1826W        W61362  41.019  17.717   4.648
 1827W        W61363  31.915  13.622  12.519
 1828W        W61364  22.043  21.256   2.894
 1829W        W61365   1.770   7.239  10.537
 1830W        W61366  22.546  19.262   0.250
 1831W        W61367  17.705   1.263   3.385
 1832W        W61368  41.979   8.751   0.417
 1833W        W61369   9.323  19.043  13.881
 1834W        W61370   5.398  29.077   3.782
 1835W        W61371  33.874  24.145  14.297
 1836W        W61372   5.811  14.187  14.488
 1837W        W61373  20.638  31.606  11.597
 1838W        W61374  28.932  33.904  10.620
 1839W        W61375   2.257  30.047   1.392
 1840W        W61376  16.089  31.908  11.464
 1841W        W61377  15.673  40.324  10.971
 1842W        W61378  33.028  31.529   0.264
 1843W        W61379  26.964  12.688   1.737
 1844W        W61380  40.362  40.877   4.294
 1845W        W61381  23.028  39.822  10.564
 1846W        W61382  30.531  16.234   1.364
 1847W        W61383  20.226  31.925   3.299
 1848W        W61384  29.122  11.248   3.299
 1849W        W61385  41.514   6.334   1.831
 1850W        W61386   3.950  38.069   2.302
 1851W        W61387  26.523   5.899   3.763
 1852W        W61388  44.997   2.815   1.364
 1853W        W61389  23.663  34.370   5.709
 1854W        W61390  34.977   6.920  10.568
 1855W        W61391  44.769   0.781   3.805
 1856W        W61392   0.494   8.182   2.727
 1857W        W61393   6.360   4.420   2.242
 1858W        W61394   5.874  14.824   2.230
 1859W        W61395  14.214  14.641  14.277
 1860W        W61396  22.240  24.070   2.318
 1861W        W61397  32.927  43.364  10.444
 1862W        W61398   6.868  13.231   0.256
 1863W        W61399  30.658  21.139   4.257
 1864W        W61400  23.602  29.604  12.560
 1865W        W61401  19.097  20.540  13.918
 1866W        W61402  34.988  37.459   0.331
 1867W        W61403   0.775  25.204  13.934
 1868W        W61404   3.340  39.868  10.481
 1869W        W61405   7.853  32.517  13.425
 1870W        W61406  34.894   9.355   3.339
 1871W        W61407  32.027  42.825   1.416
 1872W        W61408  10.238  30.433   5.121
 1873W        W61409  16.248  14.777  12.847
 1874W        W61410   1.857  21.029   0.950
 1875W        W61411  31.992  34.983  14.509
 1876W        W61412   1.354   2.376   3.785
 1877W        W61413  31.639  16.238  13.853
 1878W        W61414  14.823  30.135  13.864
 1879W        W61415  12.352   7.187   3.250
 1880W        W61416  28.502  43.001  13.791
 1881W        W61417  16.113  15.217  14.977
 1882W        W61418   8.214  30.081   1.911
 1883W        W61419   5.344  41.030   3.325
 1884W        W61420   0.874   1.380  14.762
 1885W        W61421   4.294  10.215  14.931
 1886W        W61422  33.571  11.239   3.209
 1887W        W61423   5.871  18.105  13.927
 1888W        W61424  33.888  41.893   3.726
 1889W        W61425   1.893  13.293  13.928
 1890W        W61426   2.848  16.137  12.505
 1891W        W61427   7.674  31.140  11.026
 1892W        W61428  23.604  26.515  14.817
 1893W        W61429  23.557   9.686  11.970
 1894W        W61430  14.131  36.038   1.846
 1895W        W61431  39.363   9.217   4.305
 1896W        W61432  36.890  31.637  14.341
 1897W        W61433   2.839  19.568  12.463
 1898W        W61434  29.509  11.675  12.012
 1899W        W61435  40.944  36.992   1.247
 1900W        W61436  23.614  32.990   2.691
 1901W        W61437  25.662  23.704  14.908
 1902W        W61438  10.293   3.759  13.877
 1903W        W61439  14.627  43.908  14.403
 1904W        W61440   5.775  42.956   1.697
 1905W        W61441   2.439   0.800   4.161
 1906W        W61442  12.183  21.519   1.835
 1907W        W61443  40.893  34.926  13.315
 1908W        W61444  10.797  10.288   3.828
 1909W        W61445   6.410  11.724  11.442
 1910W        W61446  39.938  20.215   2.362
 1911W        W61447  40.800  42.474  12.093
 1912W        W61448   0.964  24.219   3.722
 1913W        W61449  41.819  11.305  10.433
 1914W        W61450   2.910  21.212   3.670
 1915W        W61451   1.886  24.034  13.383
 1916W        W61452  28.619   5.259   1.867
 1917W        W61453  24.120  27.491   1.887
 1918W        W61454  13.718  22.621   2.280
 1919W        W61455  42.387  22.745  13.322
 1920W        W61456  22.654  42.850   3.703
 1921W        W61457  20.680  32.523   1.354
 1922W        W61458  36.413  43.877   4.164
 1923W        W61459  21.195   4.208  10.614
 1924W        W61460  19.765  38.481  13.528
 1925W        W61461  25.557   6.353  10.609
 1926W        W61462  26.985  22.616  14.786
 1927W        W61463  36.529  14.165  14.777
 1928W        W61464  33.602  20.133  10.479
 1929W        W61465  22.014  38.527   4.214
 1930W        W61466  25.703  39.410  12.363
 1931W        W61467   2.438  24.025   2.401
 1932W        W61468  16.648  42.326   4.748
 1933W        W61469   6.395   7.886  13.484
 1934W        W61470  30.476  14.215   3.287
 1935W        W61471  30.433  13.296   1.320
 1936W        W61472  11.849  33.392   3.805
 1937W        W61473  25.709  23.681   3.174
 1938W        W61474  25.587  44.818  12.974
 1939W        W61475  26.978  14.165  12.487
 1940W        W61476  10.697  18.211  12.828
 1941W        W61477  38.524  35.537   2.263
 1942W        W61478  37.358  44.827   0.843
 1943W        W61479  18.728  40.489  13.967
 1944W        W61480   6.862  23.624  11.050
 1945W        W61481  44.464  23.623   2.351
 1946W        W61482  27.099  37.984   2.275
 1947W        W61483  21.745   7.854  11.510
 1948W        W61484  25.990  21.045  14.810
 1949W        W61485  31.626  15.796  10.569
 1950W        W61486  38.428  37.031   3.821
 1951W        W61487   4.315  18.117  12.016
 1952W        W61488  17.728  18.113  14.023
 1953W        W61489   4.439  17.605   2.275
 1954W        W61490  17.159  32.969  12.030
 1955W        W61491  15.795   3.787  11.481
 1956W        W61492  12.243   1.949  12.542
 1957W        W61493  16.121  29.063   0.887
 1958W        W61494  39.336  22.198  14.814
 1959W        W61495  35.985  37.859  14.928
 1960W        W61496  30.915  10.296   4.350
 1961W        W61497  27.980   8.837   4.792
 1962W        W61498  15.243  28.181  12.421
 1963W        W61499  41.926  13.627  11.494
 1964W        W61500   8.669  13.129   5.171
 1965W        W61501  13.234  40.513  13.419
 1966W        W61502  26.627  39.349  11.063
 1967W        W61503  19.126  37.382  14.357
 1968W        W61504  37.502  37.347   0.339
 1969W        W61505  42.005  43.449  12.087
 1970W        W61506  41.934  32.047  14.924
 1971W        W61507  16.072  12.259   1.720
 1972W        W61508  14.693  40.487  11.495
 1973W        W61509  15.601  11.794   4.798
 1974W        W61510   8.686  43.305   4.826
 1975W        W61511  37.341  38.015  11.446
 1976W        W61512  30.085  37.899   0.943
 1977W        W61513   4.334  44.959  14.776
 1978W        W61514  23.677  12.316  10.572
 1979W        W61515  39.434   9.829   1.898
 1980W        W61516  38.957   6.917   1.282
 1981W        W61517  18.294  31.112   0.794
 1982W        W61518  42.883  44.853   2.281
 1983W        W61519  31.066   0.316   2.797
 1984W        W61520   2.277  33.117  11.522
 1985W        W61521  37.980  25.209   2.817
 1986W        W61522   8.838  43.844   1.719
 1987W        W61523  39.357  41.455  13.901
 1988W        W61524  27.082  27.629  14.904
 1989W        W61525  43.321   7.183  12.493
 1990W        W61526   4.285  11.666  13.489
 1991W        W61527  17.768  20.557  11.423
 1992W        W61528   2.951  16.567  14.939
 1993W        W61529  30.634   4.760  12.882
 1994W        W61530   8.166  33.381  10.630
 1995W        W61531  35.979   0.414   0.395
 1996W        W61532  11.165  23.218  10.466
 1997W        W61533  32.093  10.376  13.455
 1998W        W61534  21.749  31.416   3.317
 1999W        W61535  17.577  26.073   2.219
 2000W        W61536  28.497   2.287   0.920
 2001W        W61537  23.664  20.627  14.012
 2002W        W61538  19.742   4.335  13.014
 2003W        W61539  19.573   0.966   3.859
 2004W        W61540   3.782  33.438  12.406
 2005W        W61541  36.945  22.729   3.159
 2006W        W61542  33.513  31.498  11.910
 2007W        W61543  29.587  32.605   1.313
 2008W        W61544  36.450  27.071  13.059
 2009W        W61545  32.395  33.957  11.531
 2010W        W61546   0.463   7.415  13.030
 2011W        W61547   8.209   2.793  11.110
 2012W        W61548  19.663  18.239   9.551
 2013W        W61549   7.835  34.540   4.597
 2014W        W61550  32.106  24.555   2.201
 2015W        W61551  23.712  10.699   1.820
 2016W        W61552  32.920  31.046   4.206
 2017W        W61553   1.806  18.764  11.951
 2018W        W61554  24.535  23.074  12.484
 2019W        W61555  37.985  28.532  11.373
 2020W        W61556  12.329  20.700   0.878
 2021W        W61557  20.738   9.299   1.899
 2022W        W61558  25.032  18.186  14.927
 2023W        W61559  20.751  35.863  14.008
 2024W        W61560  39.833  14.221  10.564
 2025W        W61561  19.040  27.604   1.819
 2026W        W61562  12.857  20.122  14.300
 2027W        W61563  27.591  44.779   3.238
 2028W        W61564  33.087   8.163   2.199
 2029W        W61565  30.922  19.675   4.789
 2030W        W61566  13.680  40.446   3.174
 2031W        W61567  30.630  37.468  10.409
 2032W        W61568  42.479   1.975   0.435
 2033W        W61569  12.642   9.190  13.548
 2034W        W61570  17.163  37.044  14.920
 2035W        W61571  18.559  44.763   0.860
 2036W        W61572  40.940  30.012  13.454
 2037W        W61573  43.842   5.367  12.992
 2038W        W61574  22.577   5.707   0.812
 2039W        W61575  27.571   0.899   4.606
 2040W        W61576  30.020  32.958   0.343
 2041W        W61577   1.282  28.434  11.866
 2042W        W61578  14.728   0.895  14.955
 2043W        W61579  24.002  18.188   0.952
 2044W        W61580  39.830  11.735   2.349
 2045W        W61581  30.624  11.301   3.697
 2046W        W61582  28.948  38.352  12.408
 2047W        W61583  29.041  40.000  11.996
 2048W        W61584  31.145  13.644   2.797
 2049W        W61585  38.490  12.151  12.473
 2050W        W61586  32.626  26.976   2.231
 2051W        W61587  24.131   9.158  12.926
 2052W        W61588  14.622  30.085  14.988
 2053W        W61589  33.044  10.299  13.490
 2054W        W61590  25.578  42.285   3.274
 2055W        W61591  36.085  11.133  11.388
 2056W        W61592  18.605  38.031   0.303
 2057W        W61593  19.191  18.190   2.883
 2058W        W61594   7.716  41.497   3.159
 2059W        W61595  17.085  27.600  13.852
 2060W        W61596  35.586  38.390   3.781
 2061W        W61597   7.314  39.325  11.418
 2062W        W61598  10.356  37.925  13.534
 2063W        W61599   3.279  28.611  14.022
 2064W        W61600  17.125  13.835  14.983
 2065W        W61601  17.663   6.427   4.650
 2066W        W61602  22.136   7.252   1.379
 2067W        W61603  14.649  14.593   3.265
 2068W        W61604  24.012  38.345  12.346
 2069W        W61605  16.777  39.945  10.429
 2070W        W61606  19.592  39.367   1.259
 2071W        W61607  41.931   5.437  12.401
 2072W        W61608  24.135  28.450  10.556
 2073W        W61609  17.298  33.033  13.362
 2074W        W61610   7.828  31.443  11.053
 2075W        W61611  11.740   5.752  10.599
 2076W        W61612  30.150  20.217   4.247
 2077W        W61613  25.089  32.521   0.820
 2078W        W61614  33.559   9.835  11.451
 2079W        W61615  16.156  10.297   3.185
 2080W        W61616  34.615  38.971   4.154
 2081W        W61617  18.070  32.930  14.922
 2082W        W61618  19.197   5.232   3.294
 2083W        W61619  30.542  30.149  11.043
 2084W        W61620  19.164  25.116  10.645
 2085W        W61621  38.051  39.974   2.664
 2086W        W61622   4.380   5.767  13.331
 2087W        W61623  34.386  28.087   4.807
 2088W        W61624  25.113  28.087  12.404
 2089W        W61625  40.032  32.627   0.727
 2090W        W61626  43.392  28.481   3.296
 2091W        W61627  33.513  35.923  11.552
 2092W        W61628   6.779  44.290  12.890
 2093W        W61629   0.958  43.005  10.135
 2094W        W61630   1.883  13.350   3.287
 2095W        W61631  35.462  22.071  13.863
 2096W        W61632   1.914  29.640   2.417
 2097W        W61633   4.944  10.144  10.436
 2098W        W61634  38.563   1.909   3.250
 2099W        W61635  21.204  42.920  12.525
 2100W        W61636  34.390  19.574  14.303
 2101W        W61637   7.741  40.916  11.090
 2102W        W61638  41.839   4.732   0.842
 2103W        W61639  33.960  11.162  14.885
 2104W        W61640  28.676  43.433   4.330
 2105W        W61641  43.807  29.939  10.603
 2106W        W61642  11.649  32.424  13.466
 2107W        W61643  15.147  24.207  11.471
 2108W        W61644  25.168  43.410  13.809
 2109W        W61645  36.544  16.756   1.233
 2110W        W61646  40.901  35.078  12.070
 2111W        W61647   5.393   0.808  11.473
 2112W        W61648  12.715   4.924   3.167
 2113W        W61649  14.103   4.800  10.985
 2114W        W61650  32.057  38.927  12.395
 2115W        W61651  35.431  15.700   1.450
 2116W        W61652  13.777  42.471  10.454
 2117W        W61653  35.541  39.416  13.459
 2118W        W61654  38.567   5.417  10.984
 2119W        W61655  29.925  15.658   1.444
 2120W        W61656  44.265   8.266  12.447
 2121W        W61657  16.190   4.222  11.558
 2122W        W61658  35.963  30.567  12.041
 2123W        W61659  41.437  17.210   4.349
 2124W        W61660  30.562  28.503  11.385
 2125W        W61661   2.770  13.733  14.902
 2126W        W61662   5.711  36.872  12.530
 2127W        W61663  15.195  17.593   4.709
 2128W        W61664   8.399  12.795   4.257
 2129W        W61665  37.077  31.986  13.838
 2130W        W61666   3.318   1.455   2.677
 2131W        W61667  17.300  32.436   3.382
 2132W        W61668  42.373  22.701  14.782
 2133W        W61669  32.517  30.121   2.805
 2134W        W61670  12.196   8.678   4.815
 2135W        W61671  38.569  31.551   3.163
 2136W        W61672   0.384  12.642  14.439
 2137W        W61673   4.390  18.609   2.723
 2138W        W61674   4.898  25.213  11.115
 2139W        W61675  43.307   5.882  13.412
 2140W        W61676   4.893  13.280  10.942
 2141W        W61677  20.078   4.858  11.112
 2142W        W61678   0.258  24.162  12.933
 2143W        W61679  36.482  40.038   1.356
 2144W        W61680   2.819  39.523  12.048
 2145W        W61681  28.479   7.216  13.862
 2146W        W61682  31.996  27.528  12.013
 2147W        W61683  21.164  12.319   0.783
 2148W        W61684  27.621  28.102   3.699
 2149W        W61685   5.853   9.742  11.043
 2150W        W61686  10.821  11.824  11.983
 2151W        W61687   5.345   8.746   4.248
 2152W        W61688  33.888  11.344  12.081
 2153W        W61689  29.538  35.487  13.998
 2154W        W61690  44.384   4.438  10.554
 2155W        W61691  11.256  29.149  11.980
 2156W        W61692  44.263  39.523   3.180
 2157W        W61693   4.767  23.625   2.207
 2158W        W61694  23.199  38.470  10.477
 2159W        W61695  13.256  23.012  12.076
 2160W        W61696  25.627   4.824   9.999
 2161W        W61697   1.817  11.210   4.809
 2162W        W61698  32.519   5.836  11.111
 2163W        W61699   4.925   2.412  13.016
 2164W        W61700  33.009  25.140  13.816
 2165W        W61701  33.953  35.046  13.511
 2166W        W61702   9.795  21.718   3.781
 2167W        W61703   3.398  44.424  14.295
 2168W        W61704  21.644  17.588   3.345
 2169W        W61705  13.229  20.105  14.914
 2170W        W61706  18.108  30.657  12.898
 2171W        W61707   5.335  22.698  13.858
 2172W        W61708  11.343  41.939  12.078
 2173W        W61709  29.546  19.277  10.938
 2174W        W61710  30.533  20.682  10.562
 2175W        W61711  25.061  29.515  14.512
 2176W        W61712   6.788  20.256   0.907
 2177W        W61713   9.214  34.894   2.258
 2178W        W61714  38.443  33.055   0.857
 2179W        W61715  20.571  12.801   0.280
 2180W        W61716  15.804  34.405   2.901
 2181W        W61717  14.329  25.157  14.887
 2182W        W61718  12.339  41.527   2.178
 2183W        W61719  28.098   4.859   2.403
 2184W        W61720  37.863  37.053   0.347
 2185W        W61721   1.870   4.933  10.934
 2186W        W61722  36.544  23.727   4.772
 2187W        W61723  43.516   5.303   0.922
 2188W        W61724  28.170  41.333   3.314
 2189W        W61725   9.375  23.548   4.692
 2190W        W61726  15.235  36.951  12.476
 2191W        W61727  19.657  30.599  11.500
 2192W        W61728  12.263  22.501   0.865
 2193W        W61729  33.008  25.967  14.314
 2194W        W61730  31.627  25.070   1.793
 2195W        W61731   0.481  23.667   0.958
 2196W        W61732  31.920  18.738  10.438
 2197W        W61733  37.369  31.115   0.743
 2198W        W61734  32.911  39.547   1.912
 2199W        W61735   5.833  35.578  12.464
 2200W        W61736  20.115  24.608  11.098
 2201W        W61737  28.671  22.611  10.588
 2202W        W61738  13.636  35.987   1.916
 2203W        W61739   8.674  29.519   4.627
 2204W        W61740   6.833  27.087  12.547
 2205W        W61741  18.766  35.891   0.247
 2206W        W61742  38.035  41.335  13.869
 2207W        W61743  32.437   2.461  12.864
 2208W        W61744   3.443   5.762   0.436
 2209W        W61745  38.473  31.957   2.224
 2210W        W61746  34.002  23.646  14.949
 2211W        W61747  10.721  39.395   3.179
 2212W        W61748   6.749  17.781  13.364
 2213W        W61749   2.443  41.506  11.024
 2214W        W61750  34.107  23.720   2.221
 2215W        W61751  41.509  37.397  13.950
 2216W        W61752   9.343  44.787  10.596
 2217W        W61753  12.739   6.908   2.775
 2218W        W61754  23.028  31.058   1.240
 2219W        W61755  40.455   1.373   0.254
 2220W        W61756  28.055  32.471  13.357
 2221W        W61757  21.527  31.518   4.641
 2222W        W61758   6.720  43.472  13.437
 2223W        W61759   1.755  33.448   3.366
 2224W        W61760   2.804   3.456   4.646
 2225W        W61761  15.773  21.662   3.196
 2226W        W61762  37.926  34.369   1.796
 2227W        W61763  23.525  37.464   5.733
 2228W        W61764  31.010  13.289  14.795
 2229W        W61765  31.141  21.602  12.913
 2230W        W61766  13.651  39.853  12.035
 2231W        W61767  37.926  36.516  13.462
 2232W        W61768  30.504  12.839  11.554
 2233W        W61769  11.742   6.219   5.292
 2234W        W61770  32.554  15.685  14.967
 2235W        W61771  13.812  39.815   0.309
 2236W        W61772   3.269  10.231   0.762
 2237W        W61773  26.503  30.521   1.263
 2238W        W61774  12.790  17.084   4.665
 2239W        W61775   7.357  22.132  13.898
 2240W        W61776  24.676   3.710  10.140
 2241W        W61777  12.260   4.391   3.723
 2242W        W61778  16.686  36.362   0.864
 2243W        W61779  43.347  31.935   4.661
 2244W        W61780  19.724   9.152  11.454
 2245W        W61781  33.041   7.296   3.168
 2246W        W61782  24.060  16.079  10.103
 2247W        W61783  12.741  43.897   3.316
 2248W        W61784  39.045  40.842   4.815
 2249W        W61785  43.005   8.309   1.428
 2250W        W61786  44.936   7.859   2.240
 2251W        W61787  30.440   2.320   1.284
 2252W        W61788  34.407   2.307  12.963
 2253W        W61789  37.477  12.226  11.372
 2254W        W61790  28.486  41.952   4.711
 2255W        W61791  17.068  29.919   3.325
 2256W        W61792  15.614  15.321  13.449
 2257W        W61793  13.198  39.050  11.088
 2258W        W61794   3.934  39.035  10.443
 2259W        W61795  37.507  15.824   3.822
 2260W        W61796   7.739   2.392   0.395
 2261W        W61797  16.681  13.144   0.841
 2262W        W61798  22.063  42.804   1.272
 2263W        W61799  18.630  41.990   2.361
 2264W        W61800  26.082  31.452  14.973
 2265W        W61801  42.842  16.205  14.852
 2266W        W61802  36.074  34.074  14.466
 2267W        W61803  18.240  42.474   1.819
 2268W        W61804  15.784  19.594   2.671
 2269W        W61805   0.268  35.990   4.209
 2270W        W61806   0.962  34.487   4.646
 2271W        W61807  39.040  13.717  14.387
 2272W        W61808  30.968  43.828   2.212
 2273W        W61809  21.163  12.309   0.400
 2274W        W61810   7.176  31.555  11.395
 2275W        W61811   6.730  20.152  13.395
 2276W        W61812   2.418  19.713  11.122
 2277W        W61813   6.222  19.630   2.242
 2278W        W61814  35.513  18.057  12.341
 2279W        W61815  33.047  12.334  12.345
 2280W        W61816  29.481   7.219  11.106
 2281W        W61817  24.036  17.090   2.806
 2282W        W61818  17.660  39.810  10.939
 2283W        W61819  11.304  34.544   1.371
 2284W        W61820  44.885  41.475  13.893
 2285W        W61821  21.513  40.349   2.735
 2286W        W61822  40.017  39.918   0.882
 2287W        W61823  32.591   2.426  12.515
 2288W        W61824  18.770  40.445   4.189
 2289W        W61825   0.798   8.717  10.036
 2290W        W61826  20.214  34.901  14.335
 2291W        W61827  10.340  14.699  12.011
 2292W        W61828  41.346  37.460   3.209
 2293W        W61829  33.475   4.211  11.089
 2294W        W61830  29.508  29.569  13.895
 2295W        W61831  43.839  24.210  12.927
 2296W        W61832  26.964  21.754   3.326
 2297W        W61833  36.853   4.795   4.148
 2298W        W61834  17.268  31.546  11.499
 2299W        W61835  36.908  43.930   1.413
 2300W        W61836  37.483   4.268   2.755
 2301W        W61837  42.411  16.604  11.469
 2302W        W61838  36.897  27.024  13.026
 2303W        W61839  38.924  10.167  10.081
 2304W        W61840  11.645   9.836  13.416
 2305W        W61841  25.519  37.428  12.899
 2306W        W61842  34.435  24.722   1.334
 2307W        W61843  17.797  29.029   0.293
 2308W        W61844  22.742  32.560   0.332
 2309W        W61845   4.385  37.026   0.874
 2310W        W61846  16.177   1.297  12.368
 2311W        W61847  34.407   1.285   4.143
 2312W        W61848  32.027  15.614   1.250
 2313W        W61849   3.800  24.980   2.704
 2314W        W61850  29.992  13.229   1.250
 2315W        W61851  22.126  26.142  13.324
 2316W        W61852  21.142  40.549  12.423
 2317W        W61853  30.136  21.041  13.819
 2318W        W61854  43.509  20.719   3.690
 2319W        W61855  39.540   4.243   3.743
 2320W        W61856  30.499   1.766  11.445
 2321W        W61857  26.190  20.222   1.365
 2322W        W61858  22.582  33.431   2.286
 2323W        W61859  40.547  43.969   4.707
 2324W        W61860   8.879   0.925   4.289
 2325W        W61861  14.333  28.096  11.904
 2326W        W61862  21.718  32.609  13.373
 2327W        W61863  32.484  25.964  10.050
 2328W        W61864  35.412  36.532   1.241
 2329W        W61865  20.542   7.854  13.482
 2330W        W61866  35.426  28.647   2.838
 2331W        W61867  43.439   1.449  11.855
 2332W        W61868  15.257  11.364  13.393
 2333W        W61869   7.687  13.844  11.993
 2334W        W61870  18.066  32.899   4.728
 2335W        W61871  35.897  15.297   4.723
 2336W        W61872  19.593  14.820   1.840
 2337W        W61873  35.975  10.771  13.539
 2338W        W61874  11.225  40.481   4.690
 2339W        W61875  16.676   3.849  10.473
 2340W        W61876  30.990  42.362  13.422
 2341W        W61877  20.057   0.977   1.303
 2342W        W61878  31.139   7.325  12.860
 2343W        W61879  16.751  16.570  13.829
 2344W        W61880  43.941  31.094  13.911
 2345W        W61881  29.426  16.687   0.466
 2346W        W61882  21.713  30.452  11.031
 2347W        W61883   6.829   0.248   2.338
 2348W        W61884   5.281  26.981   4.135
 2349W        W61885  42.808  27.179   2.357
 2350W        W61886  36.522   1.837   2.707
 2351W        W61887  23.671   4.921   3.189
 2352W        W61888  41.373  25.503   5.103
 2353W        W61889  36.939  28.589  10.469
 2354W        W61890  38.839  17.797   2.343
 2355W        W61891   0.932  30.518   3.818
 2356W        W61892  37.362   0.374   1.715
 2357W        W61893  11.238  30.002  14.440
 2358W        W61894  32.036  25.031   4.833
 2359W        W61895  37.981   7.890   2.848
 2360W        W61896  32.556  19.627   2.411
 2361W        W61897  44.439  33.445  10.905
 2362W        W61898  18.271  34.598  10.415
 2363W        W61899  26.056  26.051  13.847
 2364W        W61900  43.460  23.590  13.375
 2365W        W61901  22.109  35.425  14.786
 2366W        W61902  32.496  30.598  10.904
 2367W        W61903  36.037   7.380   1.214
 2368W        W61904  11.846  14.224   4.116
 2369W        W61905   7.242   0.449  13.327
 2370W        W61906  30.980   9.800   4.337
 2371W        W61907  13.713  20.746   3.154
 2372W        W61908  21.199  42.412   0.479
 2373W        W61909   5.303  31.133   2.372
 2374W        W61910  27.955   8.800  11.400
 2375W        W61911   8.238  39.552  14.426
 2376W        W61912  25.562   9.870  13.909
 2377W        W61913  30.048  43.508   0.435
 2378W        W61914  31.142  38.461  13.356
 2379W        W61915  14.744  34.875  14.381
 2380W        W61916  10.694  22.609  10.056
 2381W        W61917   5.229  33.387   2.675
 2382W        W61918  32.618  33.510   9.969
 2383W        W61919  35.400  25.071   4.823
 2384W        W61920  38.929  37.575   0.728
 2385W        W61921   4.940   0.317  13.495
 2386W        W61922  41.803  21.530  10.449
 2387W        W61923  35.048  14.291  11.861
 2388W        W61924  38.376  18.723   0.903
 2389W        W61925  22.631  14.302   1.214
 2390W        W61926   6.698  31.909  14.832
 2391W        W61927  31.577  19.727  11.005
 2392W        W61928   7.755  38.404   1.313
 2393W        W61929   8.275  14.753  10.918
 2394W        W61930  11.849   1.331  12.937
 2395W        W61931  29.990   8.249  11.558
 2396W        W61932  42.327  35.059   4.760
 2397W        W61933  32.958  15.748   0.923
 2398W        W61934  42.483  28.646  12.061
 2399W        W61935  37.934  29.604  12.371
 2400W        W61936   3.221   2.329   0.807
 2401W        W61937  17.078  15.707   5.242
 2402W        W61938  10.329   5.904   3.260
 2403W        W61939  10.318  18.280   0.888
 2404W        W61940  33.079   8.345  11.984
 2405W        W61941  25.114   2.921  12.430
 2406W        W61942   1.483  15.230  10.037
 2407W        W61943   5.705  37.441  14.761
 2408W        W61944  27.564   3.419   1.815
 2409W        W61945   3.375  40.972   1.387
 2410W        W61946  26.032  22.070   5.595
 2411W        W61947  33.045  36.966   3.307
 2412W        W61948  11.214  25.664  14.378
 2413W        W61949   0.357  23.678  12.867
 2414W        W61950   2.725  40.546   1.701
 2415W        W61951  20.742  33.122  10.472
 2416W        W61952  23.019  21.089   0.872
 2417W        W61953  38.533  20.106   2.260
 2418W        W61954  38.331   8.305   4.690
 2419W        W61955  33.923  29.506   2.315
 2420W        W61956   2.777  39.426   2.257
 2421W        W61957  32.460   3.737   0.835
 2422W        W61958  44.911  41.495   1.223
 2423W        W61959  31.127  40.372  13.496
 2424W        W61960  44.359  14.215   4.767
 2425W        W61961   7.844  31.546  13.030
 2426W        W61962   1.249   0.775   2.345
 2427W        W61963  39.817  12.674  13.917
 2428W        W61964  25.185   1.886   4.764
 2429W        W61965  26.558  33.544   3.179
 2430W        W61966   9.281  16.168   0.942
 2431W        W61967  20.256  34.464  14.773
 2432W        W61968   3.400  43.785  12.854
 2433W        W61969  27.487  29.098  14.432
 2434W        W61970  30.516  30.149  12.362
 2435W        W61971  17.670  15.238  13.503
 2436W        W61972   4.884  43.927   1.288
 2437W        W61973  23.073  21.195   1.887
 2438W        W61974  22.620   0.257   2.215
 2439W        W61975  16.626   5.767   0.445
 2440W        W61976  16.095   6.397   0.389
 2441W        W61977  27.480  10.786   1.236
 2442W        W61978   8.354  41.492   4.719
 2443W        W61979  37.540  34.114  14.870
 2444W        W61980  31.076  42.469   3.381
 2445W        W61981  24.117   1.347  11.065
 2446W        W61982  20.069  26.655   5.265
 2447W        W61983   1.898  18.222  14.829
 2448W        W61984  30.500  40.873  12.065
 2449W        W61985  37.355  22.732  13.495
 2450W        W61986  18.564   1.280   1.912
 2451W        W61987  28.506   9.857   4.644
 2452W        W61988  38.917   7.712   2.330
 2453W        W61989  29.946  24.650  12.406
 2454W        W61990  21.195   9.341  12.090
 2455W        W61991  28.504  36.526   1.930
 2456W        W61992  12.211   4.365   4.237
 2457W        W61993  19.652   3.913  10.154
 2458W        W61994  31.460  24.137   0.379
 2459W        W61995  41.326  30.630  14.327
 2460W        W61996  25.543  22.179   1.773
 2461W        W61997  41.864  23.216   4.703
 2462W        W61998  21.137  41.860   4.304
 2463W        W61999  39.471  27.170   1.378
 2464W        W62000  39.836   8.316  10.459
 2465W        W62001  35.529   7.414  11.903
 2466W        W62002  26.528   9.766  10.952
 2467W        W62003  35.106  17.749   0.813
 2468W        W62004  30.132  40.484   4.622
 2469W        W62005  29.652  22.137   3.719
 2470W        W62006  38.373  14.686   3.257
 2471W        W62007  38.853  20.745   4.143
 2472W        W62008  37.403  43.857   4.144
 2473W        W62009  12.647   2.770   0.768
 2474W        W62010   3.942  36.908  13.799
 2475W        W62011  42.500  23.701   3.157
 2476W        W62012  43.365   5.413   1.839
 2477W        W62013   1.421   0.340  14.917
 2478W        W62014   5.773  12.226  14.936
 2479W        W62015   1.470   4.291  11.446
 2480W        W62016   3.742  36.992   3.159
 2481W        W62017  24.509  10.846   0.409
 2482W        W62018   4.797  39.932  10.593
 2483W        W62019  19.159  38.001   2.868
 2484W        W62020  38.893  34.508   1.362
 2485W        W62021  38.505   5.238   3.330
 2486W        W62022  38.968  31.624   2.674
 2487W        W62023  19.660  17.135  12.414
 2488W        W62024  35.604  12.182   1.812
 2489W        W62025  19.634  42.985   0.797
 2490W        W62026  12.792   5.803  13.030
 2491W        W62027   9.158  10.193  12.493
 2492W        W62028  37.878  26.586  10.439
 2493W        W62029  42.912   5.713  14.458
 2494W        W62030   2.295  13.300   4.269
 2495W        W62031  29.535  10.236  12.432
 2496W        W62032  36.364  18.194  14.001
 2497W        W62033  16.750  29.617   1.787
 2498W        W62034  10.152   6.294  11.398
 2499W        W62035  20.129   1.324   1.857
 2500W        W62036  11.173  11.327   4.739
 2501W        W62037  44.445   5.264  12.886
 2502W        W62038  43.286  32.915  11.582
 2503W        W62039  43.767   5.927   2.252
 2504W        W62040  35.591  13.291   1.783
 2505W        W62041   1.733  25.693  14.821
 2506W        W62042  17.076   4.766   2.748
 2507W        W62043  18.052  34.008  10.590
 2508W        W62044  10.288   2.936   1.848
 2509W        W62045  31.413  12.314  12.450
 2510W        W62046  33.032  29.108  13.867
 2511W        W62047  28.604  31.938   4.219
 2512W        W62048  24.523  17.299   4.660
 2513W        W62049  14.105  12.797  14.954
 2514W        W62050  25.176  16.733   0.906
 2515W        W62051   5.379  38.000   1.724
 2516W        W62052  16.744  12.171   3.329
 2517W        W62053  41.901  37.880  13.981
 2518W        W62054  40.010  14.293   3.163
 2519W        W62055  35.982   2.285   0.264
 2520W        W62056  37.850  20.036   4.737
 2521W        W62057  30.053  33.114   2.259
 2522W        W62058  32.984  27.034   3.261
 2523W        W62059  16.289  39.843   1.870
 2524W        W62060   7.213  35.951  10.482
 2525W        W62061  32.469  23.198  12.488
 2526W        W62062  25.473  39.891   0.935
 2527W        W62063  40.309  13.765   3.747
 2528W        W62064   6.883   3.298  14.852
 2529W        W62065   3.888  42.928   0.782
 2530W        W62066  41.515   9.657  14.468
 2531W        W62067  31.415  33.464  10.619
 2532W        W62068  18.089   6.278  11.975
 2533W        W62069   7.413  12.666  13.922
 2534W        W62070  18.637  38.057  14.469
 2535W        W62071  44.284   4.784   5.250
 2536W        W62072   4.723  13.344  13.354
 2537W        W62073  22.693  34.880   0.840
 2538W        W62074  21.179  13.725   3.303
 2539W        W62075  28.593  28.595   3.859
 2540W        W62076  35.559  35.965  12.029
 2541W        W62077   8.265  39.541   2.310
 2542W        W62078  35.106  25.666   0.256
 2543W        W62079  42.525  30.006   4.708
 2544W        W62080  23.019  24.203  12.846
 2545W        W62081   7.718  26.185   1.895
 2546W        W62082  34.935  19.234  14.007
 2547W        W62083  34.473   0.306   0.479
 2548W        W62084   3.715   0.417   1.413
 2549W        W62085  21.112  25.516  11.969
 2550W        W62086  29.018  15.629  14.478
 2551W        W62087  24.175  13.804   1.934
 2552W        W62088  27.508  23.713  14.345
 2553W        W62089   1.326  40.029  11.066
 2554W        W62090   1.830  19.057  12.568
 2555W        W62091  31.627  18.681  14.966
 2556W        W62092  10.189  41.798  13.016
 2557W        W62093  29.022   1.459   3.672
 2558W        W62094  25.052  11.650  12.477
 2559W        W62095  21.511  14.128  13.824
 2560W        W62096  41.043   6.236  11.545
 2561W        W62097   1.837   5.204   0.424
 2562W        W62098   3.270  13.727  11.029
 2563W        W62099  24.667   0.813  13.466
 2564W        W62100  32.089  13.274   2.738
 2565W        W62101  35.381  14.340   1.809
 2566W        W62102  33.948  39.932  14.923
 2567W        W62103  36.025  25.175  12.830
 2568W        W62104  29.595  41.527   1.370
 2569W        W62105  37.344   1.888   9.945
 2570W        W62106  44.356   4.705  13.036
 2571W        W62107  42.890  32.546  14.014
 2572W        W62108   5.869  41.942   1.716
 2573W        W62109  35.445  25.657  13.355
 2574W        W62110  22.076   4.925  13.497
 2575W        W62111  14.276  21.642   4.762
 2576W        W62112  38.518   8.671   3.314
 2577W        W62113  35.050  22.742   1.393
 2578W        W62114  13.296  37.983   2.245
 2579W        W62115  41.345  11.701  10.416
 2580W        W62116  24.529  11.177  12.984
 2581W        W62117  29.995  37.994  10.904
 2582W        W62118  38.886  27.516   2.683
 2583W        W62119  28.089  11.257  14.892
 2584W        W62120  26.476  31.995   4.703
 2585W        W62121  43.308  15.296  10.551
 2586W        W62122  11.745  39.043  11.931
 2587W        W62123   9.335   0.405   2.706
 2588W        W62124  28.979   8.841   3.181
 2589W        W62125  41.932  16.242  11.376
 2590W        W62126  38.411   6.247   0.939
 2591W        W62127  24.582  35.869  12.474
 2592W        W62128  21.195  25.562   0.946
 2593W        W62129   3.882   9.253  11.379
 2594W        W62130  23.224  26.486  13.037
 2595W        W62131   3.748  39.820  11.548
 2596W        W62132   5.788   7.742  12.910
 2597W        W62133  23.210  26.577  14.513
 2598W        W62134   2.345  34.118  13.943
 2599W        W62135   5.862  38.353  11.902
 2600W        W62136  25.654  18.724  13.922
 2601W        W62137   4.804  41.794  11.890
 2602W        W62138  21.099  15.328   2.753
 2603W        W62139  17.178   8.326  14.313
 2604W        W62140  34.564  28.602   1.253
 2605W        W62141  13.241  28.455   4.772
 2606W        W62142  33.464   3.410  11.955
 2607W        W62143  27.671  34.943  14.300
 2608W        W62144  18.219  31.922   3.192
 2609W        W62145  27.997   1.738  13.523
 2610W        W62146  13.242   8.770   4.325
 2611W        W62147  38.358   5.287  14.453
 2612W        W62148  33.501  24.690   0.809
 2613W        W62149  43.809   6.704  14.955
 2614W        W62150   2.746  29.046  13.952
 2615W        W62151  22.561  40.890  14.016
 2616W        W62152  36.558  22.660  14.361
 2617W        W62153  31.019  19.153   0.790
 2618W        W62154  26.177   8.367  13.918
 2619W        W62155  23.041   6.796  12.552
 2620W        W62156  16.305   0.273  10.617
 2621W        W62157   5.268  31.556  11.388
 2622W        W62158   4.767  20.708   2.307
 2623W        W62159   8.700  29.472  13.052
 2624W        W62160   4.790  27.195  14.987
 2625W        W62161  15.618   3.368  13.987
 2626W        W62162  29.102  30.559  10.611
 2627W        W62163  38.392   0.416   5.276
 2628W        W62164  40.481  24.167   1.772
 2629W        W62165  33.554  16.291  12.483
 2630W        W62166  22.678  36.429   2.764
 2631W        W62167  38.034  26.146  14.006
 2632W        W62168  18.133  42.778   1.443
 2633W        W62169  22.234  14.638  14.024
 2634W        W62170  30.529  18.768   4.310
 2635W        W62171   1.805  20.734  12.000
 2636W        W62172  44.911   8.806  10.921
 2637W        W62173  34.911  17.111   0.476
 2638W        W62174  13.740  37.052   3.794
 2639W        W62175  27.991  38.540   3.778
 2640W        W62176  19.270  15.812   3.188
 2641W        W62177  33.572  44.429  11.541
 2642W        W62178  19.716  34.436  13.442
 2643W        W62179  12.644  18.246   2.192
 2644W        W62180  37.939  44.364   1.825
 2645W        W62181  41.385  40.332  12.885
 2646W        W62182   7.884  18.571   2.341
 2647W        W62183   2.930  11.739   2.261
 2648W        W62184  15.119  28.116   2.273
 2649W        W62185  33.579  29.072   2.812
 2650W        W62186  27.184  43.808   4.207
 2651W        W62187  41.803  23.191  10.567
 2652W        W62188  35.562  42.321   4.775
 2653W        W62189  21.594   6.210  12.925
 2654W        W62190  10.682  38.497  14.784
 2655W        W62191  10.357  13.295  12.380
 2656W        W62192  17.262  19.616  12.579
 2657W        W62193  21.638  43.396  14.825
 2658W        W62194  23.050  30.498  12.016
 2659W        W62195  39.061  14.769  12.413
 2660W        W62196  23.058  22.091  14.459
 2661W        W62197  37.535   4.250  14.511
 2662W        W62198  21.107  19.556   3.253
 2663W        W62199  11.751  32.556  14.898
 2664W        W62200  26.602  29.998  14.393
 2665W        W62201  16.755  21.239   4.686
 2666W        W62202  44.830  28.083   1.886
 2667W        W62203  15.196  42.490  13.524
 2668W        W62204  34.899  23.060  13.842
 2669W        W62205  31.631  13.298  10.942
 2670W        W62206  33.917  14.813   1.331
 2671W        W62207  43.895  19.722   1.445
 2672W        W62208   6.677  37.958   2.247
 2673W        W62209   1.333  36.866  13.908
 2674W        W62210  33.978   3.269   1.406
 2675W        W62211   5.292  20.103   1.845
 2676W        W62212  12.717  10.665   3.223
 2677W        W62213  39.927  14.663   3.818
 2678W        W62214  15.164  37.960   2.298
 2679W        W62215  21.574   5.884  10.107
 2680W        W62216  22.747  44.275   0.937
 2681W        W62217   2.333  41.337  11.523
 2682W        W62218  12.303  39.530  12.457
 2683W        W62219   3.358  15.723  10.494
 2684W        W62220  33.399  12.196  14.311
 2685W        W62221  26.992  30.478   0.445
 2686W        W62222  31.938  25.489   0.966
 2687W        W62223  42.902   0.855  11.054
 2688W        W62224  33.421  16.186   4.776
 2689W        W62225  43.834  14.711  12.955
 2690W        W62226  28.151  21.647  13.366
 2691W        W62227  18.573  33.396  10.010
 2692W        W62228  41.808  15.235   3.343
 2693W        W62229  33.934   3.334   4.170
 2694W        W62230   1.285  38.842   1.369
 2695W        W62231  24.093   0.887   4.195
 2696W        W62232  22.120   1.327   4.143
 2697W        W62233  11.359  40.997   2.229
 2698W        W62234   1.348  18.638   3.160
 2699W        W62235  34.578  32.980  11.084
 2700W        W62236  30.429  15.620  14.847
 2701W        W62237  13.604  15.788   3.798
 2702W        W62238   2.736  37.044  13.497
 2703W        W62239  32.052  40.018   4.791
 2704W        W62240  24.013  24.581  13.465
 2705W        W62241  30.006  11.731   2.718
 2706W        W62242  11.165  29.579   1.935
 2707W        W62243  42.796  44.859   4.265
 2708W        W62244  33.915   6.884   0.883
 2709W        W62245  28.010  23.091  13.906
 2710W        W62246  42.800   8.804   2.862
 2711W        W62247  27.553  35.546   2.861
 2712W        W62248  21.635  41.301   4.681
 2713W        W62249  22.160  25.647  11.481
 2714W        W62250  15.746   4.914  12.418
 2715W        W62251  41.893  11.690   2.319
 2716W        W62252   3.400  38.476   0.422
 2717W        W62253  19.657  25.041  13.864
 2718W        W62254  17.190   1.339  12.869
 2719W        W62255   6.225  20.206   2.195
 2720W        W62256  19.059  23.122   4.836
 2721W        W62257   5.324   9.283  11.095
 2722W        W62258  18.104  31.555  10.911
 2723W        W62259  40.427  18.738   4.830
 2724W        W62260  25.016   4.775  11.972
 2725W        W62261  21.595  22.517   3.679
 2726W        W62262  33.932  12.814  13.381
 2727W        W62263  30.151  12.360   2.343
 2728W        W62264  10.715  41.347  11.968
 2729W        W62265  10.700  39.836  12.019
 2730W        W62266   5.242  31.452   1.296
 2731W        W62267   2.334   4.272   0.784
 2732W        W62268  41.423  38.524  13.004
 2733W        W62269  32.896  28.590   2.727
 2734W        W62270  22.640  27.475  11.431
 2735W        W62271  41.309  15.588  14.919
 2736W        W62272  27.666  25.057   2.842
 2737W        W62273  16.802  42.925   0.852
 2738W        W62274  33.026   2.778   1.916
 2739W        W62275  38.502  10.823   4.133
 2740W        W62276  33.089  24.523   5.134
 2741W        W62277  17.673  44.266   0.441
 2742W        W62278  32.428  27.073   0.950
 2743W        W62279  10.254   4.388  11.967
 2744W        W62280  19.108  25.982  11.008
 2745W        W62281   7.740  28.143   0.302
 2746W        W62282  19.666  40.387  13.973
 2747W        W62283   0.979  16.163   0.403
 2748W        W62284   4.406  29.142   1.212
 2749W        W62285  37.890  38.397   1.735
 2750W        W62286  32.534  43.390  13.968
 2751W        W62287  32.965  19.095  14.934
 2752W        W62288  36.080  39.047   1.401
 2753W        W62289  44.804   3.711   0.254
 2754W        W62290  29.008  22.065   2.785
 2755W        W62291   5.776  31.923  11.966
 2756W        W62292  40.428  27.195   1.411
 2757W        W62293  25.502  37.986   3.719
 2758W        W62294  26.006  10.355   0.874
 2759W        W62295   3.753  41.896  13.991
 2760W        W62296  26.206  27.088  13.873
 2761W        W62297  24.213  21.623  13.921
 2762W        W62298  23.029  17.097   3.280
 2763W        W62299  40.321  39.886   0.834
 2764W        W62300  18.567  42.853  10.992
 2765W        W62301  41.418  10.695  14.810
 2766W        W62302  24.622  41.424   1.428
 2767W        W62303  10.313  19.077   1.865
 2768W        W62304  38.386  42.321  14.292
 2769W        W62305  28.584  10.767   3.218
 2770W        W62306  36.505  38.899  11.928
 2771W        W62307  41.486  22.107   0.397
 2772W        W62308  22.543   8.751   9.946
 2773W        W62309  28.955  37.041  12.032
 2774W        W62310  32.507   3.326  14.826
 2775W        W62311   4.881   3.920   1.317
 2776W        W62312  33.455   6.321   3.675
 2777W        W62313  32.409  15.135  10.919
 2778W        W62314  42.973   4.411  13.326
 2779W        W62315   9.827  40.521  14.329
 2780W        W62316  14.192  32.030   3.258
 2781W        W62317   5.717   8.188  10.472
 2782W        W62318   7.871  38.911  10.465
 2783W        W62319  20.101  40.494  12.473
 2784W        W62320   1.957   3.732   1.237
 2785W        W62321  34.473   0.855  14.908
 2786W        W62322  21.097   3.414   2.347
 2787W        W62323  30.145  43.005   4.650
 2788W        W62324  42.302  30.977  12.449
 2789W        W62325  42.315  17.109  12.892
 2790W        W62326   0.312  13.210   0.930
 2791W        W62327  25.982  11.651  12.454
 2792W        W62328  18.671  24.717  12.499
 2793W        W62329  29.923  14.709   0.372
 2794W        W62330  13.144  15.580   4.665
 2795W        W62331  10.707  38.912   2.714
 2796W        W62332  17.264  39.419   4.317
 2797W        W62333   4.315  42.442   3.850
 2798W        W62334  40.492  13.297  13.373
 2799W        W62335  24.689  31.541  13.045
 2800W        W62336   5.928  30.091  11.512
 2801W        W62337  27.941  40.046   1.812
 2802W        W62338  35.443  14.250   2.289
 2803W        W62339  42.924  27.128   0.315
 2804W        W62340  29.042  36.911   2.856
 2805W        W62341  34.874   5.902  12.073
 2806W        W62342   4.824  27.013  11.032
 2807W        W62343   9.832  36.868  13.025
 2808W        W62344  29.560  25.704  14.864
 2809W        W62345  21.237  22.161   0.857
 2810W        W62346  10.250  40.452  12.994
 2811W        W62347  27.116  16.092  12.343
 2812W        W62348  43.773   7.249  11.000
 2813W        W62349  26.537  24.192   2.290
 2814W        W62350  43.333  44.265  12.541
 2815W        W62351   1.796   6.314  13.333
 2816W        W62352  43.798  15.170  14.430
 2817W        W62353  37.573   3.398  10.550
 2818W        W62354  36.930   8.861   0.389
 2819W        W62355  10.143   6.248  13.015
 2820W        W62356   6.867  27.503  12.374
 2821W        W62357  29.592  22.532  12.830
 2822W        W62358  32.423  11.858   1.269
 2823W        W62359   5.329  29.024  14.491
 2824W        W62360  22.735  27.992   1.244
 2825W        W62361  41.952   6.699   1.310
 2826W        W62362  39.973  14.272  14.292
 2827W        W62363  32.131  11.865  12.393
 2828W        W62364  10.186  18.770   3.670
 2829W        W62365  30.983  30.584   2.750
 2830W        W62366   0.478  12.759  11.100
 2831W        W62367  33.073  26.671  14.769
 2832W        W62368  14.191  37.862   1.806
 2833W        W62369  41.027  12.777  11.858
 2834W        W62370  31.990   4.794   2.894
 2835W        W62371  15.175  26.106  11.457
 2836W        W62372  20.187  27.606   3.198
 2837W        W62373  21.111   3.229  14.293
 2838W        W62374  10.706  39.408  14.453
 2839W        W62375   6.803  34.028   0.455
 2840W        W62376   4.293   7.287  10.435
 2841W        W62377  13.840  21.070   2.871
 2842W        W62378  12.334  44.494  12.484
 2843W        W62379  36.980   6.719   4.156
 2844W        W62380  41.394  32.060  10.892
 2845W        W62381   4.766  24.485   1.233
 2846W        W62382  10.803  10.381   2.755
 2847W        W62383  17.141  12.848  12.919
 2848W        W62384   1.866  14.179  11.587
 2849W        W62385  26.617   1.948   4.139
 2850W        W62386   1.851   2.466   5.302
 2851W        W62387  10.716  28.463   0.251
 2852W        W62388  40.315  30.446  12.395
 2853W        W62389  35.901  13.126   1.423
 2854W        W62390  10.384  43.318   3.820
 2855W        W62391  16.775  36.068   0.864
 2856W        W62392  32.910  25.669  12.936
 2857W        W62393  37.855   3.372   4.225
 2858W        W62394  34.938  14.670   3.352
 2859W        W62395  10.342  11.661  14.422
 2860W        W62396  16.578   4.757   2.865
 2861W        W62397   4.311  36.462  11.610
 2862W        W62398  17.232  31.492   4.700
 2863W        W62399  42.363  33.601   4.738
 2864W        W62400  37.835  30.970  14.778
 2865W        W62401  39.059  42.824  11.927
 2866W        W62402   3.400   5.702  14.806
 2867W        W62403  25.093  44.491  10.580
 2868W        W62404  34.390  27.178   4.162
 2869W        W62405  38.383   0.456  13.937
 2870W        W62406   1.815   0.796   3.668
 2871W        W62407   2.946  43.820  13.866
 2872W        W62408  43.922  24.541   4.605
 2873W        W62409  19.664  32.045   4.175
 2874W        W62410  25.588  33.496  12.868
 2875W        W62411  27.640  19.652   1.755
 2876W        W62412  22.206  43.459  14.849
 2877W        W62413   5.313   9.211   4.616
 2878W        W62414  42.832   0.483  10.998
 2879W        W62415  14.099  28.976  13.364
 2880W        W62416  42.846  11.308   0.370
 2881W        W62417  15.137  14.225  10.474
 2882W        W62418  39.355  10.842  12.490
 2883W        W62419  31.974  24.200  10.503
 2884W        W62420  16.810  24.546  11.453
 2885W        W62421  17.272  21.091  14.484
 2886W        W62422  34.492  37.872   3.816
 2887W        W62423   4.289   3.434   3.214
 2888W        W62424  30.931   5.723  13.522
 2889W        W62425  12.359   9.875  13.546
 2890W        W62426   4.840  42.969  13.988
 2891W        W62427  23.192   9.189  11.439
 2892W        W62428  17.788  15.265   1.448
 2893W        W62429   7.319  11.776  14.296
 2894W        W62430  39.375   1.958  11.909
 2895W        W62431  26.974   0.449   4.825
 2896W        W62432  22.200  29.444  14.420
 2897W        W62433  26.108  20.759  12.382
 2898W        W62434  27.479   1.461  13.392
 2899W        W62435   9.157  13.648  14.500
 2900W        W62436  36.907  15.263  13.472
 2901W        W62437   5.921  42.779   4.262
 2902W        W62438  29.544   0.369  12.462
 2903W        W62439   7.673   3.934  11.530
 2904W        W62440  14.330  25.020   3.824
 2905W        W62441  28.448  23.507  12.002
 2906W        W62442  21.174   6.224   4.161
 2907W        W62443  28.985  30.546  14.400
 2908W        W62444  24.023  42.514  14.909
 2909W        W62445   1.279  26.014   2.836
 2910W        W62446  34.453  24.145  10.929
 2911W        W62447  14.792  43.421  12.432
 2912W        W62448  39.997  29.057  10.461
 2913W        W62449  27.593  40.030   4.733
 2914W        W62450  17.248  31.409  14.370
 2915W        W62451  30.445   1.350  12.395
 2916W        W62452  34.592  26.557  11.978
 2917W        W62453  40.442  17.252   3.374
 2918W        W62454  22.209  24.644   3.858
 2919W        W62455  18.621  25.997   4.625
 2920W        W62456  27.012  24.658  14.445
 2921W        W62457  35.360   7.264   1.330
 2922W        W62458  16.574  39.050  13.889
 2923W        W62459   2.734   4.339  12.900
 2924W        W62460  15.153  14.684  12.446
 2925W        W62461  19.766   9.314  14.327
 2926W        W62462  27.099  19.100   0.944
 2927W        W62463  22.060   0.940   0.351
 2928W        W62464  16.625  12.810   3.211
 2929W        W62465  41.336  17.241   1.876
 2930W        W62466  15.763   9.184  10.416
 2931W        W62467  32.015  34.873   3.170
 2932W        W62468   6.352   6.811  14.954
 2933W        W62469   6.202  15.148  13.959
 2934W        W62470  43.854  35.001   0.413
 2935W        W62471  38.426   6.787   3.234
 2936W        W62472   8.361  16.698   1.923
 2937W        W62473  29.069  24.633  14.974
 2938W        W62474  42.411  29.083  12.546
 2939W        W62475  16.127  35.438   2.801
 2940W        W62476   8.823  25.073   4.826
 2941W        W62477  39.063   7.244   2.779
 2942W        W62478  29.969   3.731   2.256
 2943W        W62479  38.556   0.933   1.438
 2944W        W62480  21.083  43.849   4.338
 2945W        W62481   5.870   4.393  11.111
 2946W        W62482  15.167  30.965   4.638
 2947W        W62483  24.015  20.548  10.959
 2948W        W62484  11.192   3.296   0.277
 2949W        W62485   8.789  23.647  11.604
 2950W        W62486   4.718  13.672  13.422
 2951W        W62487  17.123  40.447  11.418
 2952W        W62488  18.670  39.502  14.473
 2953W        W62489  19.166  25.605  11.499
 2954W        W62490  33.909   1.481  10.026
 2955W        W62491  12.796  33.056  12.062
 2956W        W62492  26.129  32.439  11.485
 2957W        W62493  41.369  15.592   0.294
 2958W        W62494   7.291  22.662  12.869
 2959W        W62495  36.059   2.908   0.854
 2960W        W62496   0.828  18.091  10.461
 2961W        W62497  19.597  35.923   4.140
 2962W        W62498  31.037  19.114   2.396
 2963W        W62499  27.556  43.362   1.345
 2964W        W62500   7.316  20.136  13.791
 2965W        W62501  17.293   8.666  11.075
 2966W        W62502  32.085   3.886   4.132
 2967W        W62503   8.729   6.358  11.437
 2968W        W62504  12.243  28.482   3.790
 2969W        W62505   8.789  18.715   1.354
 2970W        W62506  13.109  43.476  13.964
 2971W        W62507  21.134   6.767   2.814
 2972W        W62508  35.023   3.450   4.170
 2973W        W62509  18.068   9.732  12.567
 2974W        W62510  29.010   1.471   4.212
 2975W        W62511  27.670  25.037  13.544
 2976W        W62512  31.621   5.786  14.887
 2977W        W62513  43.493  39.369  12.083
 2978W        W62514  28.665  16.077  11.893
 2979W        W62515   7.692  26.664  14.966
 2980W        W62516  41.826  23.224   1.443
 2981W        W62517  19.171  29.029  12.899
 2982W        W62518   9.699  36.507   2.242
 2983W        W62519  29.169  33.948  13.796
 2984W        W62520  23.214  17.197  13.964
 2985W        W62521   0.835  42.788  11.488
 2986W        W62522   0.961  43.834  14.376
 2987W        W62523  40.535  18.102  11.967
 2988W        W62524  27.502   8.880   0.836
 2989W        W62525   2.239  23.226  12.055
 2990W        W62526   2.243  44.321   1.783
 2991W        W62527  30.951   9.365  11.377
 2992W        W62528  29.540  27.028  13.798
 2993W        W62529   0.348  18.229   3.379
 2994W        W62530   2.882   4.226   1.708
 2995W        W62531  18.750  16.766  14.864
 2996W        W62532  29.945   1.241  12.339
 2997W        W62533   3.231  31.469   0.454
 2998W        W62534  35.460  32.117   0.776
 2999W        W62535   2.438  25.091  14.021
 3000W        W62536   2.431  42.309   3.324
 3001W        W62537   6.726  17.213   0.431
 3002W        W62538  29.113   7.176   1.845
 3003W        W62539   5.888  10.843  11.873
 3004W        W62540  25.066  34.474   4.148
 3005W        W62541  19.247  16.185  13.339
 3006W        W62542  37.450  38.463  14.895
 3007W        W62543  10.655  34.050   1.237
 3008W        W62544  33.504  10.805  12.938
 3009W        W62545  23.136  18.052   2.281
 3010W        W62546  38.885  27.652  11.856
 3011W        W62547  17.232  10.149  10.474
 3012W        W62548  18.562  14.673   2.673
 3013W        W62549  17.282  33.068   3.738
 3014W        W62550  22.713  17.750   5.235
 3015W        W62551  16.300   5.290   0.851
 3016W        W62552   9.889   3.448   2.361
 3017W        W62553  31.966  24.659  12.473
 3018W        W62554   6.264  18.236  12.893
 3019W        W62555   4.787  24.630   3.343
 3020W        W62556   0.868  32.530  10.441
 3021W        W62557  28.019  31.513  10.621
 3022W        W62558  27.578   8.826  14.276
 3023W        W62559  34.464  34.428   4.788
 3024W        W62560  43.480  16.232   0.734
 3025W        W62561   7.190  14.212   0.348
 3026W        W62562  19.129  39.020   1.256
 3027W        W62563  30.418  23.204  13.838
 3028W        W62564  17.586  37.025  11.587
 3029W        W62565  15.800  38.497   0.862
 3030W        W62566  32.602  10.359  10.890
 3031W        W62567  33.924  20.710   0.254
 3032W        W62568  44.269  10.363   1.798
 3033W        W62569  27.548  21.579  11.434
 3034W        W62570   8.237  29.150   2.302
 3035W        W62571  33.954   2.418  10.537
 3036W        W62572  27.142  10.299   2.200
 3037W        W62573  35.511  18.680   3.843
 3038W        W62574   1.952  18.104   0.324
 3039W        W62575  25.159  21.667   0.753
 3040W        W62576  39.544  22.171   3.345
 3041W        W62577  40.942  32.589  14.500
 3042W        W62578  37.999  44.839   2.896
 3043W        W62579   3.891  33.593  10.126
 3044W        W62580   7.828  27.456  14.500
 3045W        W62581  17.142   9.341  13.513
 3046W        W62582   5.717  23.633   2.217
 3047W        W62583  34.430  25.118  10.480
 3048W        W62584  22.677   2.728   5.757
 3049W        W62585   5.914  35.575  14.824
 3050W        W62586   3.916  15.269   2.194
 3051W        W62587  18.080  33.410   0.307
 3052W        W62588  29.564  32.898   0.940
 3053W        W62589  22.161  16.605  13.336
 3054W        W62590  30.466  26.202   1.359
 3055W        W62591  16.582  38.012  12.413
 3056W        W62592  19.092  20.189  11.500
 3057W        W62593   5.389  15.688   1.263
 3058W        W62594  39.386  42.008   2.334
 3059W        W62595  14.193  26.970  14.333
 3060W        W62596   8.753  44.869   2.903
 3061W        W62597   1.940  28.676  13.029
 3062W        W62598  33.006   6.199  12.416
 3063W        W62599  41.036  13.725  12.386
 3064W        W62600  27.662  21.595   5.151
 3065W        W62601  14.713  39.857   4.754
 3066W        W62602  19.562  25.595   2.754
 3067W        W62603   0.352   4.330  13.944
 3068W        W62604  14.232  30.414   1.805
 3069W        W62605   2.406  20.247   0.375
 3070W        W62606  17.581   7.749   0.791
 3071W        W62607  27.956   4.218   0.967
 3072W        W62608  10.819   3.308  11.085
 3073W        W62609  35.868   2.819  14.483
 3074W        W62610   4.862   4.279   0.428
 3075W        W62611  25.612  40.868  13.478
 3076W        W62612  29.066  25.620  10.449
 3077W        W62613  19.277   6.427  13.411
 3078W        W62614  22.122   9.148   4.229
 3079W        W62615  25.701  38.359  13.534
 3080W        W62616  44.331  44.846  11.476
 3081W        W62617  20.060  13.700   1.226
 3082W        W62618  37.564  18.051   0.457
 3083W        W62619  28.648   2.753  12.567
 3084W        W62620  16.754   5.719   2.185
 3085W        W62621  40.923   1.811   0.812
 3086W        W62622  38.493  16.621  10.544
 3087W        W62623   7.807  41.871  10.578
 3088W        W62624   0.394  22.658   3.745
 3089W        W62625  11.682  33.496   9.933
 3090W        W62626  11.136  40.417   2.861
 3091W        W62627  16.105  34.415  11.983
 3092W        W62628  10.305  42.940   0.834
 3093W        W62629  42.448  24.057  11.461
 3094W        W62630  35.052   2.773  12.862
 3095W        W62631  24.701  36.968  10.002
 3096W        W62632  23.123  35.425   1.407
 3097W        W62633  24.524  27.542  14.955
 3098W        W62634   0.953  36.494  14.908
 3099W        W62635  38.962  10.791   0.778
 3100W        W62636  24.045   4.835  13.017
 3101W        W62637  43.864  35.022  11.881
 3102W        W62638  42.910  41.488  11.957
 3103W        W62639  16.090   8.775   5.267
 3104W        W62640  26.583  21.659   1.798
 3105W        W62641  26.172   4.792   3.648
 3106W        W62642  11.684  13.171   1.769
 3107W        W62643  23.563  38.415   3.216
 3108W        W62644  41.502  27.050   0.901
 3109W        W62645   6.193  10.353   0.354
 3110W        W62646  20.179  42.860  11.004
 3111W        W62647  39.921  42.517  12.497
 3112W        W62648  33.519  22.214  12.409
 3113W        W62649  26.137  44.922   4.249
 3114W        W62650  26.024   0.921  12.902
 3115W        W62651  12.628  12.710  11.041
 3116W        W62652   5.908  25.975  11.068
 3117W        W62653  23.500  28.162  12.835
 3118W        W62654  14.126  32.528   0.337
 3119W        W62655  40.466   5.282   1.751
 3120W        W62656  33.091  11.161   0.950
 3121W        W62657  12.664   9.303   3.316
 3122W        W62658   2.765  32.445  14.828
 3123W        W62659  31.474  16.677  12.847
 3124W        W62660  12.144  26.992  11.554
 3125W        W62661  39.555  36.999  11.938
 3126W        W62662  42.427  17.258   2.232
 3127W        W62663  35.469  16.250  12.537
 3128W        W62664  44.478  15.812  14.847
 3129W        W62665   4.737  17.226   1.891
 3130W        W62666   5.346  42.464  13.036
 3131W        W62667  29.052   5.744  11.024
 3132W        W62668  36.447   3.727  12.578
 3133W        W62669  14.220  15.176   4.759
 3134W        W62670  19.566  16.662  12.452
 3135W        W62671  19.698   7.788  14.292
 3136W        W62672  40.829  27.471   3.375
 3137W        W62673  11.643  22.095   3.839
 3138W        W62674  13.226  43.968   1.272
 3139W        W62675  37.898  24.494   3.727
 3140W        W62676  15.796  44.499   0.834
 3141W        W62677  39.030   9.800   4.270
 3142W        W62678  11.267  43.001  13.013
 3143W        W62679  22.603  20.545   1.418
 3144W        W62680  35.994   4.704   3.277
 3145W        W62681  13.319  37.869  14.868
 3146W        W62682  40.440  43.866   3.643
 3147W        W62683   9.811  18.136   1.416
 3148W        W62684  21.575  18.709  14.991
 3149W        W62685  38.387  38.835  12.970
 3150W        W62686  18.105  25.129  12.862
 3151W        W62687  32.491  22.654  14.775
 3152W        W62688   8.689  42.358  13.452
 3153W        W62689  40.493   7.220   4.804
 3154W        W62690   0.372  33.414  11.044
 3155W        W62691   5.699   5.371   0.881
 3156W        W62692  12.146  38.837   0.291
 3157W        W62693  37.395  12.842   3.665
 3158W        W62694  21.106  38.992   1.273
 3159W        W62695  19.575  36.881  10.545
 3160W        W62696  12.749   5.839   3.166
 3161W        W62697   2.893  36.506   4.609
 3162W        W62698  16.587   9.250  11.071
 3163W        W62699  28.614  12.343  12.458
 3164W        W62700  41.852   1.778  12.860
 3165W        W62701  29.461  16.737   2.676
 3166W        W62702  41.384   4.224  14.948
 3167W        W62703  22.068  33.107  12.575
 3168W        W62704  10.334  33.039   4.761
 3169W        W62705  42.517  41.405   0.366
 3170W        W62706  23.652  15.094  11.485
 3171W        W62707  38.442   6.795   3.731
 3172W        W62708  16.173  27.192   0.295
 3173W        W62709  28.615  42.958  11.979
 3174W        W62710   8.266  33.974  12.919
 3175W        W62711  11.823  16.708   1.720
 3176W        W62712  14.155  41.984  11.079
 3177W        W62713  40.333  16.215   0.278
 3178W        W62714  14.833  18.175  12.825
 3179W        W62715   6.386  13.751  14.944
 3180W        W62716  39.008  18.091   3.824
 3181W        W62717  40.351   6.398  11.871
 3182W        W62718  23.984   5.225  12.391
 3183W        W62719  19.071  26.984  12.864
 3184W        W62720   2.778  15.615  14.478
 3185W        W62721  37.884  26.649  12.580
 3186W        W62722  24.101  23.237   3.265
 3187W        W62723  29.113  35.393   4.235
 3188W        W62724   6.224  23.601   1.334
 3189W        W62725  27.677   6.850   3.246
 3190W        W62726  14.684   9.216   3.270
 3191W        W62727  43.978  23.162  10.534
 3192W        W62728   3.902  43.779  11.387
 3193W        W62729  13.614   2.234   3.866
 3194W        W62730  41.535  41.395  13.940
 3195W        W62731  21.250  10.808   4.303
 3196W        W62732  32.105  16.647   2.312
 3197W        W62733  43.826  10.317   1.795
 3198W        W62734  35.002  38.479   3.253
 3199W        W62735  22.032  13.616   0.918
 3200W        W62736  29.105  28.110   0.361
 3201W        W62737   1.742  30.489   3.171
 3202W        W62738  23.725  24.066  13.055
 3203W        W62739   6.389  40.946  12.976
 3204W        W62740  40.893  17.239  11.503
 3205W        W62741   5.793  29.645  11.006
 3206W        W62742   2.911  42.790   5.258
 3207W        W62743   4.731  17.128   4.325
 3208W        W62744  21.092  35.398   4.308
 3209W        W62745  16.600   9.727   3.155
 3210W        W62746  29.952  31.919  14.284
 3211W        W62747  33.958   0.956   1.909
 3212W        W62748  25.015  13.336  10.507
 3213W        W62749  44.941   5.427   0.280
 3214W        W62750   8.856   4.764   0.477
 3215W        W62751  19.539  23.179   3.645
 3216W        W62752  33.580  24.160  14.791
 3217W        W62753   9.688  30.489   1.705
 3218W        W62754  24.211  36.509   0.823
 3219W        W62755   1.328   6.755   4.612
 3220W        W62756   1.792  20.615  10.420
 3221W        W62757   8.802   2.833  14.026
 3222W        W62758  39.367   6.719  13.882
 3223W        W62759  16.215  27.598  10.972
 3224W        W62760  40.824  37.444   4.117
 3225W        W62761   2.377  34.587  12.572
 3226W        W62762  30.913   9.228  12.949
 3227W        W62763  27.964   1.833   0.410
 3228W        W62764  43.473  15.098  10.937
 3229W        W62765  44.783  14.305   0.268
 3230W        W62766  34.466  10.874   1.309
 3231W        W62767  36.910   5.385  14.801
 3232W        W62768  21.203  35.001   4.285
 3233W        W62769   8.381  28.511  11.440
 3234W        W62770  18.619   7.700   3.700
 3235W        W62771  25.609  44.931  13.918
 3236W        W62772  19.559  29.603  10.894
 3237W        W62773  42.337  10.716  14.985
 3238W        W62774   2.436  25.469  13.336
 3239W        W62775  26.191  20.193  14.975
 3240W        W62776   8.191  38.007   1.803
 3241W        W62777  29.968  23.131   1.219
 3242W        W62778  30.627   4.875   1.763
 3243W        W62779   2.242  35.989   0.336
 3244W        W62780  30.436  20.140  10.914
 3245W        W62781  13.647  11.844  13.858
 3246W        W62782  18.279  17.783  10.432
 3247W        W62783  22.098  15.690  11.004
 3248W        W62784   5.366   9.276  11.901
 3249W        W62785  17.288  12.775   2.327
 3250W        W62786   7.193   7.752  11.494
 3251W        W62787  29.484   6.780  13.878
 3252W        W62788  36.901  18.564   1.750
 3253W        W62789  33.529   4.785   1.739
 3254W        W62790  18.602   6.775   2.187
 3255W        W62791  38.482   6.385  13.485
 3256W        W62792  43.349  37.374   2.767
 3257W        W62793  18.062  43.865   3.218
 3258W        W62794   3.784  36.533  12.342
 3259W        W62795  31.611  10.800  12.358
 3260W        W62796  28.124  13.107  10.639
 3261W        W62797  14.791  27.461  11.420
 3262W        W62798  28.447  30.501   2.738
 3263W        W62799  31.136   5.291  11.496
 3264W        W62800  13.168   3.343   9.998
 3265W        W62801  27.496  37.990   3.804
 3266W        W62802  29.484  41.396   4.638
 3267W        W62803  12.268  18.177   2.185
 3268W        W62804  32.104  33.893   1.312
 3269W        W62805  12.243  10.376   3.187
 3270W        W62806   1.400  23.003  14.379
 3271W        W62807   4.871  42.382   1.736
 3272W        W62808  27.475  32.481   1.214
 3273W        W62809  40.515  14.211  13.806
 3274W        W62810   3.874  10.203   2.756
 3275W        W62811  44.891   3.920   4.836
 3276W        W62812  15.155  39.963   1.876
 3277W        W62813  39.019  40.509   4.706
 3278W        W62814  36.467  38.519   1.838
 3279W        W62815  14.297   3.223  14.451
 3280W        W62816  27.953  21.654   4.762
 3281W        W62817   8.214  18.710  14.400
 3282W        W62818  43.407  39.829   0.738
 3283W        W62819  24.123   5.867   5.651
 3284W        W62820  35.483  32.084  12.964
 3285W        W62821  40.865  26.602   1.805
 3286W        W62822  15.749  16.213   0.339
 3287W        W62823  25.687  30.092   3.194
 3288W        W62824   9.233  13.113   4.173
 3289W        W62825  17.139  27.131   4.833
 3290W        W62826  24.199  25.000   4.246
 3291W        W62827  15.759  42.494   3.670
 3292W        W62828  24.592   7.772  10.537
 3293W        W62829  22.179  21.580   3.365
 3294W        W62830  13.333  12.764   2.718
 3295W        W62831  28.158  13.283   1.365
 3296W        W62832  38.058  30.490  13.459
 3297W        W62833  42.464  14.228   3.795
 3298W        W62834  36.543  17.703  11.995
 3299W        W62835  31.596  33.606  14.912
 3300W        W62836  17.607  36.871   3.152
 3301W        W62837  16.620  38.917   4.258
 3302W        W62838   2.326  12.831   0.476
 3303W        W62839  17.581  26.185   1.781
 3304W        W62840  31.642  43.305   1.421
 3305W        W62841  39.872  16.133   3.848
 3306W        W62842  21.632  19.177   2.233
 3307W        W62843   0.460  12.127   0.887
 3308W        W62844  43.824  37.870   0.278
 3309W        W62845   2.959   4.294  11.469
 3310W        W62846  23.724  17.584  10.153
 3311W        W62847  22.164  44.505  13.392
 3312W        W62848  39.851  19.266   0.821
 3313W        W62849  21.105  22.611  14.998
 3314W        W62850  22.631   8.691   0.887
 3315W        W62851  27.615   3.722   1.763
 3316W        W62852  26.559  28.584   0.746
 3317W        W62853  28.965  30.990  11.468
 3318W        W62854  25.043   6.359   0.245
 3319W        W62855  26.052  15.161  11.595
 3320W        W62856  14.810   8.384   5.775
 3321W        W62857  38.990  25.696  10.959
 3322W        W62858  37.005  33.620   0.840
 3323W        W62859  23.003  15.238  12.483
 3324W        W62860   1.818  33.427  10.564
 3325W        W62861  12.727  33.928   1.336
 3326W        W62862  34.034  36.516   3.650
 3327W        W62863  42.833  20.202   0.335
 3328W        W62864  39.825  39.023   0.482
 3329W        W62865  36.360  18.278   2.250
 3330W        W62866  11.196  41.429  11.511
 3331W        W62867  14.818   9.170  14.872
 3332W        W62868  14.780  39.462  10.582
 3333W        W62869  27.071  23.071   2.774
 3334W        W62870  13.739  15.294  11.115
 3335W        W62871  10.288   7.397  12.525
 3336W        W62872  33.456   5.260  12.936
 3337W        W62873  11.741   3.950   4.318
 3338W        W62874  36.423  16.637   4.184
 3339W        W62875  39.924   2.252   0.342
 3340W        W62876  12.824  30.152  11.397
 3341W        W62877  29.126  33.615  11.872
 3342W        W62878  24.641   7.790  11.554
 3343W        W62879  17.571  17.147   2.761
 3344W        W62880   1.760  27.501  11.458
 3345W        W62881  27.583  39.963   0.944
 3346W        W62882  13.766  24.674   3.273
 3347W        W62883  34.897  23.170  12.982
 3348W        W62884  23.606  30.035   3.645
 3349W        W62885  32.534  43.430   1.340
 3350W        W62886  24.557  30.982   0.851
 3351W        W62887  24.175  27.031  11.519
 3352W        W62888  28.511  34.966  12.873
 3353W        W62889  19.082  13.193   1.727
 3354W        W62890  15.769   1.324  12.506
 3355W        W62891  29.014  45.000   1.798
 3356W        W62892  18.590  22.134  13.045
 3357W        W62893  24.151  41.319   2.673
 3358W        W62894  34.419  15.115  11.119
 3359W        W62895   0.478  34.865   0.951
 3360W        W62896  24.026  38.345   3.638
 3361W        W62897  24.523   9.730   0.291
 3362W        W62898  35.971  43.011   4.664
 3363W        W62899   1.476  22.083   2.295
 3364W        W62900  28.655  36.501  11.391
 3365W        W62901  34.436  26.978   0.885
 3366W        W62902  17.674  14.276  14.856
 3367W        W62903   4.306   5.390  12.425
 3368W        W62904  26.681  34.436  12.048
 3369W        W62905   5.361   9.258  10.422
 3370W        W62906  42.917  26.535   2.279
 3371W        W62907  31.569  40.931  11.565
 3372W        W62908  41.833  42.779  14.471
 3373W        W62909  37.025   5.913  14.281
 3374W        W62910  25.041  14.114  10.574
 3375W        W62911  24.564  26.626  12.909
 3376W        W62912  11.168  40.471   3.340
 3377W        W62913  23.006  24.172   3.380
 3378W        W62914  30.532   5.788  10.125
 3379W        W62915  33.435  31.129  12.958
 3380W        W62916  23.656  10.189   3.276
 3381W        W62917   3.225  33.614  12.372
 3382W        W62918  41.458  31.411   0.909
 3383W        W62919  26.524  25.546   5.186
 3384W        W62920   5.384  19.676   0.870
 3385W        W62921  31.573  35.883   1.328
 3386W        W62922  17.643  42.328   2.286
 3387W        W62923  33.540  13.747   3.383
 3388W        W62924  11.371  11.362   0.274
 3389W        W62925   8.708  19.129  12.961
 3390W        W62926  24.574  28.155  14.946
 3391W        W62927  20.566  11.686   0.247
 3392W        W62928   7.769  29.959   2.834
 3393W        W62929  41.345  15.125  14.431
 3394W        W62930   6.884  32.587  12.031
 3395W        W62931  24.180   1.891   3.246
 3396W        W62932   7.830  12.763  11.586
 3397W        W62933   8.296  35.416  12.066
 3398W        W62934  43.014  17.594  12.896
 3399W        W62935  11.762  33.891  14.400
 3400W        W62936  21.179  36.031  14.334
 3401W        W62937  24.584  27.643  14.484
 3402W        W62938   8.166   0.967  11.481
 3403W        W62939   2.290  38.849   1.733
 3404W        W62940  16.712  39.925  12.477
 3405W        W62941  13.679   2.778   4.641
 3406W        W62942  28.003  10.638  12.474
 3407W        W62943  27.073  15.275   3.847
 3408W        W62944   0.855  43.005   3.803
 3409W        W62945  16.293   2.816   1.733
 3410W        W62946  16.262  35.905  12.087
 3411W        W62947  20.612  34.550   0.364
 3412W        W62948  18.578  20.104   3.369
 3413W        W62949   7.346   3.274  13.023
 3414W        W62950  30.080  36.515   0.931
 3415W        W62951  21.248  10.792   1.229
 3416W        W62952   0.852  36.063   3.199
 3417W        W62953  44.463  14.640   4.773
 3418W        W62954   1.739  19.709   1.241
 3419W        W62955  17.194  43.806  12.464
 3420W        W62956   9.705  18.691   2.733
 3421W        W62957  12.736  26.068   2.740
 3422W        W62958  23.190  44.785  12.442
 3423W        W62959  13.647  44.368   3.379
 3424W        W62960   9.258  10.761   3.643
 3425W        W62961  41.994  10.846  13.364
 3426W        W62962  31.975  21.753  11.892
 3427W        W62963   2.888   8.793  10.644
 3428W        W62964   9.747  22.553   2.345
 3429W        W62965   3.743  14.282   2.806
 3430W        W62966  32.486  30.957   0.268
 3431W        W62967  33.044  24.032   1.695
 3432W        W62968  21.710  23.585  13.411
 3433W        W62969  20.523   5.277   5.183
 3434W        W62970   5.248  17.221   3.642
 3435W        W62971   7.174  28.608  11.427
 3436W        W62972  24.582   8.746  14.965
 3437W        W62973  22.055  12.343  11.905
 3438W        W62974  44.394  13.814   5.652
 3439W        W62975  27.465  22.250  11.449
 3440W        W62976  25.591   7.387   2.409
 3441W        W62977   0.382  30.524  10.567
 3442W        W62978  19.733  15.273   4.339
 3443W        W62979   6.276  19.600  14.763
 3444W        W62980  11.850  18.215  11.500
 3445W        W62981  15.129  44.404  13.355
 3446W        W62982  27.675   6.910  12.501
 3447W        W62983  13.646  12.763  10.962
 3448W        W62984  41.975   5.813  13.965
 3449W        W62985   0.771  38.900   4.245
 3450W        W62986  20.710  42.366   4.331
 3451W        W62987  19.569  35.397   1.781
 3452W        W62988  42.292   5.237   2.326
 3453W        W62989  18.717  22.240  11.402
 3454W        W62990  36.518  23.075  12.365
 3455W        W62991   7.909  31.129   2.716
 3456W        W62992   9.305  27.577  13.348
 3457W        W62993   1.362  19.121   4.351
 3458W        W62994  28.017  21.655   3.674
 3459W        W62995  24.080  35.574   2.302
 3460W        W62996  15.268  22.232  14.918
 3461W        W62997  17.114  16.741   5.642
 3462W        W62998  39.432  16.721  12.357
 3463W        W62999  28.633  27.622   2.664
 3464W        W63000   5.747  13.244  11.989
 3465W        W63001  32.531  32.971   2.812
 3466W        W63002  23.646  28.932   0.467
 3467W        W63003  19.192  22.076  14.848
 3468W        W63004  43.010  17.082   4.301
 3469W        W63005   0.938   4.236  10.505
 3470W        W63006  16.593   3.870   3.264
 3471W        W63007  18.193  11.759   3.647
 3472W        W63008   9.826  10.795  13.957
 3473W        W63009  12.347  31.493   1.792
 3474W        W63010  37.559  16.086  12.848
 3475W        W63011  33.932  25.151   2.878
 3476W        W63012  15.819  29.945   1.215
 3477W        W63013   8.309  19.065   2.378
 3478W        W63014  39.004  41.467  10.479
 3479W        W63015  10.291  22.679  14.997
 3480W        W63016  15.598   6.697   4.338
 3481W        W63017  25.575   1.305  13.408
 3482W        W63018  13.278  31.106  14.990
 3483W        W63019  37.942  37.506   0.445
 3484W        W63020  44.892  10.370  10.572
 3485W        W63021  22.109  11.165   1.875
 3486W        W63022   4.283  10.817   3.668
 3487W        W63023  18.252  33.952   1.891
 3488W        W63024  29.937   4.360  14.996
 3489W        W63025   6.233  37.955  12.477
 3490W        W63026   6.369  30.611  13.850
 3491W        W63027  33.120  30.431   0.263
 3492W        W63028  11.685  12.653  10.149
 3493W        W63029  21.627  13.241   1.698
 3494W        W63030  33.940   7.702  13.845
 3495W        W63031   4.214  40.892  11.440
 3496W        W63032  36.965  29.488   2.695
 3497W        W63033   6.831  14.198  11.898
 3498W        W63034  25.632   6.354  12.890
 3499W        W63035  27.674  36.412  14.301
 3500W        W63036   3.358  24.042  12.982
 3501W        W63037  38.447  12.736   0.776
 3502W        W63038  21.236  36.842   1.710
 3503W        W63039  31.078  13.346   2.359
 3504W        W63040   9.350  33.599  11.033
 3505W        W63041  39.814  26.524   0.895
 3506W        W63042   8.725  20.715   4.657
 3507W        W63043  24.994  10.676  10.971
 3508W        W63044  31.485  29.619   3.847
 3509W        W63045  40.930  26.632   0.475
 3510W        W63046  19.172  20.040  13.364
 3511W        W63047  43.823   7.239  11.386
 3512W        W63048   5.711  20.606   4.276
 3513W        W63049   5.196   7.368  11.463
 3514W        W63050  35.100  12.267   4.816
 3515W        W63051   6.348   8.189  11.373
 3516W        W63052  22.055  34.538  10.457
 3517W        W63053  11.702  36.069  11.021
 3518W        W63054   8.329  24.523  14.439
 3519W        W63055  23.078   7.394  12.512
 3520W        W63056   9.697  17.689   1.710
 3521W        W63057  37.369  42.986  10.408
 3522W        W63058  18.655  11.786   4.636
 3523W        W63059  22.144  16.733  12.946
 3524W        W63060  29.981   7.860   3.828
 3525W        W63061  44.451  12.661   3.210
 3526W        W63062  17.737  29.478  10.933
 3527W        W63063  33.455  32.537  12.872
 3528W        W63064  32.988   6.683   3.220
 3529W        W63065  36.001  42.989   5.120
 3530W        W63066   4.714  37.948  13.000
 3531W        W63067  25.134  18.171   1.825
 3532W        W63068  41.933  41.841   0.940
 3533W        W63069  41.917   5.817  14.997
 3534W        W63070  32.134  27.943  10.424
 3535W        W63071  36.902  43.019   0.835
 3536W        W63072  30.036  12.205  11.114
 3537W        W63073   5.709  30.658  12.061
 3538W        W63074  19.269   6.899   0.726
 3539W        W63075  38.363  20.536  14.418
 3540W        W63076   6.716  18.206   1.302
 3541W        W63077  12.724   1.433   0.294
 3542W        W63078  32.044  19.274  14.384
 3543W        W63079  12.201  12.701   2.374
 3544W        W63080   0.283  41.896  10.596
 3545W        W63081  16.687  44.416   2.240
 3546W        W63082  42.285   8.875  10.893
 3547W        W63083   0.389   0.818  14.008
 3548W        W63084  32.517   7.311  13.399
 3549W        W63085  31.414  31.428  10.983
 3550W        W63086  11.260  14.770  10.926
 3551W        W63087   5.353  19.213   3.232
 3552W        W63088   8.812   9.749   1.304
 3553W        W63089  34.375  19.060   4.308
 3554W        W63090  11.854  26.100   4.201
 3555W        W63091  38.456  16.679   2.880
 3556W        W63092   0.277  15.303   3.226
 3557W        W63093  39.425  21.511  12.026
 3558W        W63094  18.732   3.287  11.507
 3559W        W63095  29.140   5.374  13.986
 3560W        W63096  29.535  34.499  13.447
 3561W        W63097   1.782   0.417  12.965
 3562W        W63098   0.860  23.509  13.003
 3563W        W63099  24.142  24.081   2.280
 3564W        W63100  43.885  38.349  13.547
 3565W        W63101  34.112  44.431  10.622
 3566W        W63102  42.969  17.625   1.838
 3567W        W63103  22.026   4.311   2.723
 3568W        W63104  20.144  28.158   0.371
 3569W        W63105  37.042  24.989   2.315
 3570W        W63106  36.883  18.153   2.886
 3571W        W63107  26.600   8.869  14.500
 3572W        W63108  43.913  27.543  13.038
 3573W        W63109  27.476  36.396  12.974
 3574W        W63110  26.517  33.014  14.998
 3575W        W63111  12.262  28.571  12.448
 3576W        W63112  41.354   0.752  14.449
 3577W        W63113  37.507  29.483  12.503
 3578W        W63114  13.189   6.227   4.163
 3579W        W63115  33.957  44.987  11.024
 3580W        W63116  43.921  31.501  13.052
 3581W        W63117  13.777  14.651   4.327
 3582W        W63118  38.980  40.377   0.275
 3583W        W63119   8.230  17.286  14.813
 3584W        W63120  28.577  13.814   4.172
 3585W        W63121   3.880  28.065   3.818
 3586W        W63122  16.572   9.648   0.820
 3587W        W63123  20.699  38.820  10.905
 3588W        W63124  13.827  26.061  12.968
 3589W        W63125  43.994  42.364   3.703
 3590W        W63126  11.330  36.423  11.073
 3591W        W63127   1.278  39.066  14.772
 3592W        W63128   6.252  33.412   1.900
 3593W        W63129  40.432  41.349   0.445
 3594W        W63130  20.079  44.477  13.036
 3595W        W63131  35.561  27.483  10.474
 3596W        W63132  33.579  31.061  11.881
 3597W        W63133  16.199  41.025   4.745
 3598W        W63134  34.115  14.283   0.815
 3599W        W63135  10.303   5.209   0.347
 3600W        W63136  26.966  40.448  13.878
 3601W        W63137  24.099  36.414   2.280
 3602W        W63138  26.472  20.666   3.343
 3603W        W63139  28.019   3.829  12.996
 3604W        W63140  24.154   8.334   1.912
 3605W        W63141   6.360  21.040  10.049
 3606W        W63142   1.741  19.608   4.115
 3607W        W63143  24.647  32.043  12.884
 3608W        W63144  10.744  31.029   3.311
 3609W        W63145  28.937  42.348   2.856
 3610W        W63146  35.600  24.042  11.583
 3611W        W63147  35.866  27.668  10.464
 3612W        W63148   5.702   8.664  11.934
 3613W        W63149  26.541  43.324  14.404
 3614W        W63150   5.786  38.992  14.323
 3615W        W63151   2.415  16.574  13.968
 3616W        W63152  28.534   4.709   0.376
 3617W        W63153   7.872  18.548  12.073
 3618W        W63154  41.836  16.783  14.396
 3619W        W63155  17.133  30.988   1.699
 3620W        W63156  23.009  12.127  11.475
 3621W        W63157  12.693  12.837  11.612
 3622W        W63158  12.187  28.434  13.952
 3623W        W63159   2.751  42.879   2.306
 3624W        W63160  26.526   8.662  13.966
 3625W        W63161  31.915   9.869   4.309
 3626W        W63162  35.008  25.141  10.525
 3627W        W63163  41.301  24.128   4.223
 3628W        W63164  39.961  24.156  14.511
 3629W        W63165  26.551   3.893  14.385
 3630W        W63166   8.774  12.343  10.918
 3631W        W63167   8.292   6.391   9.657
 3632W        W63168  10.230  29.013  11.484
 3633W        W63169   7.174  35.861  14.025
 3634W        W63170  12.351  14.662   3.723
 3635W        W63171  22.064  10.687  12.913
 3636W        W63172   4.234  13.604   4.283
 3637W        W63173  20.604   9.321   2.404
 3638W        W63174  41.508  32.076  11.611
 3639W        W63175  18.054  34.874  10.490
 3640W        W63176   4.943  42.781  12.091
 3641W        W63177  44.397  43.768   4.704
 3642W        W63178  28.092   1.336  13.454
 3643W        W63179   9.795  22.547  14.392
 3644W        W63180  43.447  30.074   4.194
 3645W        W63181  37.352  21.543   0.264
 3646W        W63182  22.506  12.284   1.812
 3647W        W63183  15.822  29.962  12.849
 3648W        W63184  36.870  44.260  13.358
 3649W        W63185  25.155  17.280   4.813
 3650W        W63186  40.436  19.129  14.971
 3651W        W63187   2.394  34.866  11.069
 3652W        W63188  37.401   3.317  10.079
 3653W        W63189  12.182  17.212   4.718
 3654W        W63190  33.991  20.585  14.337
 3655W        W63191  39.928   4.239  14.759
 3656W        W63192  11.748  40.935   0.863
 3657W        W63193  25.484  32.547   2.178
 3658W        W63194   9.160  28.451   1.860
 3659W        W63195  19.243  43.002   1.848
 3660W        W63196  21.640  20.574   4.180
 3661W        W63197   1.294  30.434  13.888
 3662W        W63198  31.991  16.748   3.328
 3663W        W63199  12.692  41.321   0.816
 3664W        W63200  41.507  43.303   1.354
 3665W        W63201  20.052  36.555   2.669
 3666W        W63202  28.075  39.004   3.174
 3667W        W63203  28.958  32.531   2.861
 3668W        W63204  18.774  32.995   1.767
 3669W        W63205  26.621  19.552  10.144
 3670W        W63206  16.755  29.451   0.938
 3671W        W63207   8.390  41.953   4.693
 3672W        W63208   7.207  24.598   2.843
 3673W        W63209  31.484  14.177  12.396
 3674W        W63210   3.743   3.274   2.312
 3675W        W63211  40.932   8.863  13.872
 3676W        W63212  24.622  10.333   2.208
 3677W        W63213  20.600  10.356   4.244
 3678W        W63214  12.818  34.607   3.795
 3679W        W63215  36.431  34.412   1.223
 3680W        W63216   9.725  10.168   3.379
 3681W        W63217  24.673  20.677  13.872
 3682W        W63218  22.109  17.779  10.530
 3683W        W63219  38.886   2.414  12.001
 3684W        W63220  15.738  24.512   4.836
 3685W        W63221  10.240  23.593  12.357
 3686W        W63222   9.334   9.742  10.472
 3687W        W63223  16.721  13.275   2.313
 3688W        W63224  37.012  13.298   1.875
 3689W        W63225  17.196  37.848   2.789
 3690W        W63226   4.294  35.940  10.935
 3691W        W63227  30.532  37.513   3.830
 3692W        W63228  20.105  16.304   0.248
 3693W        W63229  43.475  13.112  14.977
 3694W        W63230  21.166   1.924   0.832
 3695W        W63231  34.944  19.671   4.148
 3696W        W63232  21.054   6.380  11.386
 3697W        W63233  24.582  21.745  14.376
 3698W        W63234  44.912  21.211   2.360
 3699W        W63235  14.627  27.511   1.311
 3700W        W63236  31.597  34.382  10.915
 3701W        W63237  14.216  21.021   4.186
 3702W        W63238  19.576  32.046   0.381
 3703W        W63239  40.492  33.092   3.668
 3704W        W63240  37.997  41.368   4.768
 3705W        W63241  21.586  34.562  13.470
 3706W        W63242  21.705   1.976  11.903
 3707W        W63243   0.461  20.751   0.318
 3708W        W63244  29.154  20.089  13.407
 3709W        W63245  36.556  37.500   9.975
 3710W        W63246  15.629  41.809   2.770
 3711W        W63247   2.742  14.099  11.575
 3712W        W63248  12.349  40.992  14.860
 3713W        W63249  24.565  21.207  12.949
 3714W        W63250  22.215  27.093  11.915
 3715W        W63251  28.604   7.717   0.310
 3716W        W63252  13.194  23.653   3.693
 3717W        W63253  19.283  21.538   3.810
 3718W        W63254  23.649  34.540   4.258
 3719W        W63255  17.650  38.952  14.277
 3720W        W63256  43.886  41.797  14.879
 3721W        W63257  16.727  23.723   4.305
 3722W        W63258  23.207   6.865   1.853
 3723W        W63259  22.678  10.686  12.454
 3724W        W63260  28.988  11.235  13.466
 3725W        W63261   1.398  13.197   1.344
 3726W        W63262  29.056  29.090   2.817
 3727W        W63263   4.848  39.361  13.412
 3728W        W63264   2.903   8.265  13.993
 3729W        W63265  44.920  15.818  12.342
 3730W        W63266   0.963  42.924   0.819
 3731W        W63267  11.703  27.615   4.201
 3732W        W63268  15.110  32.422   1.816
 3733W        W63269  13.616   1.450  13.443
 3734W        W63270  20.652  42.845   3.820
 3735W        W63271  35.560  20.042  14.377
 3736W        W63272  12.784   9.260  14.863
 3737W        W63273   9.832   6.726   2.727
 3738W        W63274   5.393  37.897  12.836
 3739W        W63275  43.782  12.122  12.367
 3740W        W63276  38.451   4.743   4.322
 3741W        W63277  20.557  19.078   5.694
 3742W        W63278  23.012  23.071  10.972
 3743W        W63279  32.041  40.374   0.894
 3744W        W63280  27.607  33.062   0.289
 3745W        W63281  41.833  32.392  11.051
 3746W        W63282  11.319   4.438  10.411
 3747W        W63283   1.898  26.974   2.789
 3748W        W63284   3.455  39.351  12.917
 3749W        W63285  40.044  28.128   1.788
 3750W        W63286  32.891  24.501  13.857
 3751W        W63287  40.959  35.370  11.993
 3752W        W63288   5.713  38.419   1.325
 3753W        W63289  23.645  13.318  13.339
 3754W        W63290   9.156  44.490   3.376
 3755W        W63291  13.682  38.973  13.033
 3756W        W63292  10.824   1.785   1.285
 3757W        W63293   1.303  36.883   0.771
 3758W        W63294  44.356   3.444   0.360
 3759W        W63295  37.483  17.569   3.236
 3760W        W63296  21.574  29.475   1.237
 3761W        W63297  41.484  34.528  14.787
 3762W        W63298  33.130  21.210   1.773
 3763W        W63299  36.036  30.960  12.860
 3764W        W63300  37.428  35.098   2.314
 3765W        W63301  38.549  40.818   4.675
 3766W        W63302   8.779   4.840   3.721
 3767W        W63303  16.663  17.180   4.205
 3768W        W63304   4.797  10.781   3.851
 3769W        W63305  15.766  23.133  13.393
 3770W        W63306  28.443  33.474   1.924
 3771W        W63307  29.574   9.718   1.310
 3772W        W63308  14.116   1.953   0.746
 3773W        W63309  18.259   4.288   1.820
 3774W        W63310  27.499  43.942  12.943
 3775W        W63311  12.160  31.624   2.345
 3776W        W63312  39.559   3.718  11.498
 3777W        W63313  24.612  20.262  11.428
 3778W        W63314  30.016  34.048  13.486
 3779W        W63315  33.036   9.709   3.270
 3780W        W63316  24.673   9.332  12.580
 3781W        W63317   3.444   2.377  13.903
 3782W        W63318  25.709  18.628  10.585
 3783W        W63319  30.583  24.642   0.406
 3784W        W63320  14.161   5.768   0.285
 3785W        W63321  36.970  35.465  14.897
 3786W        W63322  35.561  20.737   0.840
 3787W        W63323  23.564  42.844   4.613
 3788W        W63324  24.180  44.920   2.844
 3789W        W63325  40.825  29.957  10.902
 3790W        W63326   6.372  27.019   2.762
 3791W        W63327  34.872  28.148  14.937
 3792W        W63328  21.725   3.891  13.958
 3793W        W63329  28.130  18.258   5.162
 3794W        W63330  39.463  37.444   4.154
 3795W        W63331  26.113   5.701   3.263
 3796W        W63332  22.038  18.612  11.120
 3797W        W63333  26.966  35.513   3.368
 3798W        W63334  27.615  25.617   0.821
 3799W        W63335  35.515  14.164   1.406
 3800W        W63336  25.657  11.368   4.803
 3801W        W63337  41.529  17.189   0.805
 3802W        W63338  19.778  12.676  10.890
 3803W        W63339  12.633  43.017   3.665
 3804W        W63340  10.326  31.044   9.965
 3805W        W63341  22.697   1.966  12.916
 3806W        W63342  19.701   6.837   2.763
 3807W        W63343  40.919  38.846  11.416
 3808W        W63344  24.504  31.560   1.318
 3809W        W63345  35.071  36.960   0.471
 3810W        W63346  26.632  28.091  11.573
 3811W        W63347   9.176  22.217  10.030
 3812W        W63348  10.267  25.044   4.167
 3813W        W63349  37.384  26.668   2.732
 3814W        W63350  18.548   1.297  11.377
 3815W        W63351  11.308  13.679  11.984
 3816W        W63352  14.593  19.707  13.395
 3817W        W63353  10.239  28.103   1.898
 3818W        W63354  27.170  42.509  10.932
 3819W        W63355  32.001  36.561  10.999
 3820W        W63356  12.200  17.736  11.022
 3821W        W63357  25.146  21.676   1.789
 3822W        W63358  25.164  30.466  14.328
 3823W        W63359  43.388  13.793   0.273
 3824W        W63360  23.565  21.655  11.011
 3825W        W63361  43.768  43.903  14.334
 3826W        W63362  16.697  40.832  14.435
 3827W        W63363   2.784  20.635   1.933
 3828W        W63364  30.434   5.916  12.346
 3829W        W63365  25.162  22.996  13.341
 3830W        W63366  14.233  41.818   4.133
 3831W        W63367  32.452  41.426   5.148
 3832W        W63368  21.546  30.957  10.573
 3833W        W63369  41.475  13.177   2.178
 3834W        W63370  42.935  44.913   3.736
 3835W        W63371  19.540  15.190   0.889
 3836W        W63372  19.547  28.533  10.429
 3837W        W63373   0.344   8.394  14.514
 3838W        W63374  35.976   0.335   9.641
 3839W        W63375  13.170  22.202   4.303
 3840W        W63376  39.847   9.183   2.195
 3841W        W63377   7.383  12.342   4.176
 3842W        W63378  31.624  15.700   1.439
 3843W        W63379  19.723   5.198   4.712
 3844W        W63380  23.024  17.204   5.142
 3845W        W63381  43.384  24.575   1.906
 3846W        W63382  35.907   4.425  14.779
 3847W        W63383   1.827  39.051   0.387
 3848W        W63384  27.558  41.508   0.323
 3849W        W63385  21.673   2.264  10.616
 3850W        W63386  15.676  15.250  14.313
 3851W        W63387  11.862  37.900   0.762
 3852W        W63388  30.520  29.540   0.259
 3853W        W63389  33.025  20.698   1.898
 3854W        W63390  17.748   9.345  14.924
 3855W        W63391   0.760  18.763  13.872
 3856W        W63392   1.962  12.153  14.861
 3857W        W63393   3.283  24.573   1.878
 3858W        W63394  24.509  17.076  12.388
 3859W        W63395  32.053   0.262   1.293
 3860W        W63396  44.433  20.241  14.372
 3861W        W63397  40.816  27.161   1.733
 3862W        W63398  18.099   6.846  12.056
 3863W        W63399  12.221  42.955   2.194
 3864W        W63400  29.632  16.256  13.867
 3865W        W63401   4.410  30.986   0.800
 3866W        W63402  20.600  13.608   4.282
 3867W        W63403  13.198  17.713   2.289
 3868W        W63404  43.480  32.631   2.817
 3869W        W63405  23.599  31.056  14.764
 3870W        W63406  24.093  29.138  11.118
 3871W        W63407  20.183  22.232   3.694
 3872W        W63408  19.714  19.269   1.446
 3873W        W63409   1.437   5.438  14.417
 3874W        W63410  25.561  38.882   2.724
 3875W        W63411  42.430   3.307   0.376
 3876W        W63412   6.829  20.062  10.972
 3877W        W63413  36.539  44.364  14.831
 3878W        W63414  41.951  13.622  14.508
 3879W        W63415  40.955  24.188   4.231
 3880W        W63416  11.346  24.184   4.650
 3881W        W63417  38.877   8.875   0.821
 3882W        W63418  12.705  30.031  14.884
 3883W        W63419  25.010  32.131  12.020
 3884W        W63420   7.887   2.464   2.374
 3885W        W63421  44.884  39.860   4.724
 3886W        W63422  11.821  34.414  13.343
 3887W        W63423  41.435  38.074   0.313
 3888W        W63424  17.108   5.379   0.864
 3889W        W63425  23.614  14.739   4.753
 3890W        W63426  38.897  18.687  10.141
 3891W        W63427   7.376   2.419  12.504
 3892W        W63428  39.524  21.630  12.355
 3893W        W63429   8.718  25.669  12.505
 3894W        W63430  39.951   3.231  11.584
 3895W        W63431  28.619  19.224  13.411
 3896W        W63432  44.856  32.045   0.832
 3897W        W63433  37.987  12.611  12.063
 3898W        W63434  43.941  40.027   4.286
 3899W        W63435   4.312  18.700   1.241
 3900W        W63436  37.883  42.950   2.192
 3901W        W63437  16.567   7.317  14.406
 3902W        W63438  40.380  22.229   2.707
 3903W        W63439  19.256  36.077  11.863
 3904W        W63440  35.942  44.981  13.052
 3905W        W63441  17.187  26.567   0.902
 3906W        W63442  13.827   4.271  11.104
 3907W        W63443  41.366  13.192  14.397
 3908W        W63444  22.133  37.871   1.709
 3909W        W63445   4.753  25.135   1.376
 3910W        W63446   3.814   9.351  14.860
 3911W        W63447   6.818  13.258  14.023
 3912W        W63448   7.707  20.575  12.449
 3913W        W63449   1.865   4.939  11.998
 3914W        W63450  30.642  16.722  10.432
 3915W        W63451  26.549  32.091   2.370
 3916W        W63452  33.532   8.831  10.638
 3917W        W63453  26.968  23.689   0.815
 3918W        W63454  13.275   5.248   0.350
 3919W        W63455  31.559  33.407  11.382
 3920W        W63456  29.514  43.514  13.829
 3921W        W63457  15.653   0.810   5.130
 3922W        W63458  10.184  12.730  10.030
 3923W        W63459  22.181  28.931  14.894
 3924W        W63460   0.257  13.713  14.283
 3925W        W63461  40.396   5.708  10.434
 3926W        W63462   2.734  35.872  13.423
 3927W        W63463   9.367   0.977   1.377
 3928W        W63464   2.344  18.698  13.468
 3929W        W63465  11.334   8.243   9.975
 3930W        W63466   9.773  26.174   2.707
 3931W        W63467  17.087  14.217  14.769
 3932W        W63468   5.829  13.621  12.061
 3933W        W63469  30.134  32.402   3.216
 3934W        W63470  31.599  10.868  13.899
 3935W        W63471   9.235  31.583  14.806
 3936W        W63472  30.012  11.171  13.353
 3937W        W63473   2.770  41.797  12.826
 3938W        W63474  31.092  16.741   3.349
 3939W        W63475  17.296  25.636   3.242
 3940W        W63476  25.504  37.073  12.893
 3941W        W63477  14.256  28.177   0.298
 3942W        W63478  28.091   1.368   1.308
 3943W        W63479  15.095  13.111  13.450
 3944W        W63480  20.756  33.949   4.161
 3945W        W63481   8.272  39.515   3.280
 3946W        W63482  11.342  41.021  11.550
 3947W        W63483  23.210  12.151   4.118
 3948W        W63484  40.991   4.340  12.859
 3949W        W63485  39.520  41.317   0.456
 3950W        W63486   0.438   7.360   2.837
 3951W        W63487   0.767  29.513  13.060
 3952W        W63488  27.170   8.350  11.970
 3953W        W63489   3.268  26.676  14.815
 3954W        W63490  42.924  20.681  13.062
 3955W        W63491  13.633  21.251   0.325
 3956W        W63492  11.696  20.252   3.338
 3957W        W63493   4.245  13.828  14.884
 3958W        W63494   0.977  24.531  11.438
 3959W        W63495   7.244   1.973  12.062
 3960W        W63496  34.970   4.392  13.454
 3961W        W63497   0.976  13.141   4.671
 3962W        W63498  20.200  33.535   0.405
 3963W        W63499   2.880  27.520   3.725
 3964W        W63500  25.506  35.506   0.955
 3965W        W63501  15.773  33.115  12.402
 3966W        W63502  10.724  35.974   2.408
 3967W        W63503  11.369  24.543  13.543
 3968W        W63504  33.446  40.914  13.350
 3969W        W63505  36.515  36.417  13.345
 3970W        W63506  25.024  20.064   9.989
 3971W        W63507  40.490  20.063   4.736
 3972W        W63508  25.584  19.705  11.936
 3973W        W63509  27.605  25.210  14.943
 3974W        W63510  40.901   2.884   1.797
 3975W        W63511  18.077  19.670   1.764
 3976W        W63512  30.456   9.644   3.200
 3977W        W63513  35.059  12.792  12.538
 3978W        W63514  28.174  24.552  11.377
 3979W        W63515  36.455  25.144   3.774
 3980W        W63516  14.773  44.755   0.284
 3981W        W63517  43.477  10.755   1.780
 3982W        W63518   5.735  15.134   2.819
 3983W        W63519  42.014  17.595   2.699
 3984W        W63520  31.404   3.442   4.645
 3985W        W63521  42.441  28.018   2.819
 3986W        W63522  40.495  34.527   1.908
 3987W        W63523  41.037  12.149   2.679
 3988W        W63524  21.587  18.768  13.511
 3989W        W63525  16.240   3.738   2.324
 3990W        W63526  21.712  43.968   2.303
 3991W        W63527   2.431  30.520  11.988
 3992W        W63528   1.273  23.718  14.026
 3993W        W63529   7.292  15.225   0.758
 3994W        W63530  38.465  19.283   4.771
 3995W        W63531  26.554   7.295  12.950
 3996W        W63532  35.515  28.566  13.033
 3997W        W63533  27.123  11.215  14.917
 3998W        W63534  26.681  37.560  11.571
 3999W        W63535  41.370  22.680   2.815
 4000W        W63536  15.616  29.125   0.353
 4001W        W63537  10.308  36.581  12.916
 4002W        W63538  42.485   8.848   2.285
 4003W        W63539  15.166  41.328  14.468
 4004W        W63540   1.411   6.766  14.941
 4005W        W63541  27.942  10.759  11.987
 4006W        W63542  16.721  42.314   4.204
 4007W        W63543   8.243  15.759  10.437
 4008W        W63544   5.880  10.772  14.003
 4009W        W63545  14.805  34.457  11.373
 4010W        W63546   2.468  41.926  14.397
 4011W        W63547  35.053   9.338  11.893
 4012W        W63548  41.353   2.731  11.874
 4013W        W63549  18.704  19.570  13.923
 4014W        W63550  30.422   4.758   0.897
 4015W        W63551  25.994  10.709  11.447
 4016W        W63552  39.419   2.782   1.709
 4017W        W63553  33.475  30.641   3.678
 4018W        W63554  13.160   9.290   2.680
 4019W        W63555   3.230  41.816  12.917
 4020W        W63556  17.213  27.105   0.437
 4021W        W63557  42.338  32.584   4.249
 4022W        W63558  43.392   7.372   2.307
 4023W        W63559   8.394  18.170  10.589
 4024W        W63560  27.988  29.550   2.323
 4025W        W63561  34.011   4.299   1.731
 4026W        W63562  38.375  16.671  12.989
 4027W        W63563  11.785   8.360  11.432
 4028W        W63564  27.692  36.486  10.441
 4029W        W63565  42.962  31.529   1.232
 4030W        W63566  35.373  44.464  12.931
 4031W        W63567  19.139  36.430  10.439
 4032W        W63568  10.201   0.413   3.643
 4033W        W63569  23.171  28.035   3.228
 4034W        W63570  23.594   6.874  10.497
 4035W        W63571  15.711  36.530  10.506
 4036W        W63572   9.651  22.108   1.384
 4037W        W63573   5.309  13.812   3.175
 4038W        W63574  28.016  15.651  10.417
 4039W        W63575  44.845  21.590   2.348
 4040W        W63576   9.357  18.590   1.433
 4041W        W63577  10.159   4.242   2.285
 4042W        W63578  27.017  14.773  14.511
 4043W        W63579  19.220  26.583   1.310
 4044W        W63580   9.664  36.951   4.129
 4045W        W63581  21.736  17.262  10.107
 4046W        W63582  35.026  27.154   0.739
 4047W        W63583   5.273  22.528   2.413
 4048W        W63584  35.593   2.331  10.624
 4049W        W63585  36.535  17.716   0.914
 4050W        W63586   1.405  25.984  14.804
 4051W        W63587  33.471   1.293   1.242
 4052W        W63588   2.436   7.340   0.756
 4053W        W63589  39.992  34.881   1.763
 4054W        W63590   5.852  40.939  10.627
 4055W        W63591   8.761  37.339   0.265
 4056W        W63592  19.574   0.294   1.707
 4057W        W63593  14.336   9.168   3.183
 4058W        W63594  22.701   2.344   1.441
 4059W        W63595   0.909  19.688   2.355
 4060W        W63596   8.310  23.221  14.391
 4061W        W63597  29.502  44.283  10.133
 4062W        W63598  40.417  22.122  13.976
 4063W        W63599  20.204  37.415  10.099
 4064W        W63600  40.525  20.138   0.944
 4065W        W63601  14.283  30.109  11.985
 4066W        W63602  39.334  39.987   0.247
 4067W        W63603  27.037   7.330  13.818
 4068W        W63604  16.582  42.831  14.508
 4069W        W63605  20.640  28.522   3.387
 4070W        W63606  28.049  29.938   0.949
 4071W        W63607  19.684   5.419  10.507
 4072W        W63608  40.471  36.918  12.360
 4073W        W63609  40.941   2.903   1.236
 4074W        W63610  35.882  21.184  11.530
 4075W        W63611  31.525   9.814  12.073
 4076W        W63612  26.569  35.575   4.326
 4077W        W63613  21.226  31.910  10.931
 4078W        W63614  16.259  13.816   2.254
 4079W        W63615  28.138  31.497  14.307
 4080W        W63616  26.475  20.053   1.327
 4081W        W63617  21.736  37.992  14.904
 4082W        W63618   0.367  40.495   1.734
 4083W        W63619  41.038   0.474   4.277
 4084W        W63620  25.498  27.548   0.354
 4085W        W63621   4.724  42.784  14.987
 4086W        W63622   5.736  26.159  11.942
 4087W        W63623  23.167  25.713   1.818
 4088W        W63624  15.772  15.604   3.357
 4089W        W63625   1.394  19.652   1.836
 4090W        W63626  15.295   6.875   0.783
 4091W        W63627   9.267  16.219  11.489
 4092W        W63628  13.149  21.643  10.933
 4093W        W63629  23.201  35.480  11.444
 4094W        W63630   5.797  20.077  10.893
 4095W        W63631  15.083  34.384  13.481
 4096W        W63632   6.897   9.690  10.966
 4097W        W63633   2.732  19.062  14.781
 4098W        W63634  21.677  42.473   3.385
 4099W        W63635  38.398  14.600  13.532
 4100W        W63636  39.380  20.138  12.419
 4101W        W63637  20.739  21.592   3.175
 4102W        W63638  20.113  40.856  10.627
 4103W        W63639  33.476  12.343  12.405
 4104W        W63640   6.909  33.516  10.567
 4105W        W63641  20.680  22.658   0.762
 4106W        W63642  39.503  40.813   4.312
 4107W        W63643  25.117   5.786   2.360
 4108W        W63644  15.288  30.443  12.462
 4109W        W63645  39.493  37.545  11.079
 4110W        W63646  19.158  16.156   3.162
 4111W        W63647  11.701  43.370   0.828
 4112W        W63648  35.954   8.803  12.090
 4113W        W63649  43.805  13.710  12.538
 4114W        W63650  14.618  29.970  12.344
 4115W        W63651  21.216  14.779  10.563
 4116W        W63652   0.863  39.538   3.315
 4117W        W63653  25.980  21.157  10.017
 4118W        W63654  28.022  23.996   1.851
 4119W        W63655  39.823  34.039   0.338
 4120W        W63656   6.795  39.828   0.267
 4121W        W63657  26.533  37.394  11.949
 4122W        W63658   8.731  11.816  14.417
 4123W        W63659  19.577  33.467  14.853
 4124W        W63660  31.947  26.571  14.861
 4125W        W63661  30.610  37.501   0.893
 4126W        W63662  39.443  35.470   0.855
 4127W        W63663  10.217  10.239  14.406
 4128W        W63664   4.415   0.378   2.703
 4129W        W63665  29.563  37.890  13.907
 4130W        W63666  17.598  44.378   4.328
 4131W        W63667  25.142  23.116  14.962
 4132W        W63668   4.881  41.485  14.368
 4133W        W63669  31.404  28.162  11.878
 4134W        W63670  10.816  21.545   2.203
 4135W        W63671  40.352  28.662  11.427
 4136W        W63672  16.298   7.266   2.801
 4137W        W63673  34.089   5.887   2.741
 4138W        W63674  25.061  21.259   4.148
 4139W        W63675   6.427  34.085   2.258
 4140W        W63676  16.664  18.070   2.869
 4141W        W63677  39.843   5.761   0.385
 4142W        W63678   1.380   7.182  11.437
 4143W        W63679  33.562  27.161   3.224
 4144W        W63680   7.902  22.213   2.362
 4145W        W63681   0.485  42.482   0.263
 4146W        W63682  25.021  29.440  12.887
 4147W        W63683  22.511   9.246   2.854
 4148W        W63684  40.441  37.920  11.959
 4149W        W63685  42.346  20.037  10.578
 4150W        W63686  35.570  10.326  11.128
 4151W        W63687  25.042  10.305  11.872
 4152W        W63688  28.664  29.117   1.902
 4153W        W63689  38.000  36.957  11.489
 4154W        W63690  41.896  43.765  12.916
 4155W        W63691  43.928  10.813  13.830
 4156W        W63692  17.678  32.502   1.245
 4157W        W63693  40.914   8.397  13.317
 4158W        W63694  41.877  30.462   5.293
 4159W        W63695  20.595  42.512  10.531
 4160W        W63696  33.531  41.332   2.794
 4161W        W63697  24.225   1.941  14.030
 4162W        W63698  31.532   3.272  13.948
 4163W        W63699  39.416  14.328  11.930
 4164W        W63700  36.553  33.563  10.124
 4165W        W63701  12.316  18.580  10.905
 4166W        W63702  18.078  12.189   2.869
 4167W        W63703  37.417   9.201  11.935
 4168W        W63704   5.327  39.977   0.950
 4169W        W63705  13.822  19.242  11.980
 4170W        W63706  15.109  10.163  10.051
 4171W        W63707  35.092  36.478  12.398
 4172W        W63708   1.279  19.711   2.197
 4173W        W63709  33.409  15.709  10.462
 4174W        W63710  18.693  41.854  11.419
 4175W        W63711   2.853  11.280   5.680
 4176W        W63712  44.360  27.564  13.494
 4177W        W63713  42.912  29.505  14.456
 4178W        W63714  12.613  29.573  12.492
 4179W        W63715  43.334  31.993   2.280
 4180W        W63716  44.922  20.203  11.950
 4181W        W63717  29.558   5.867  11.077
 4182W        W63718  16.162  11.154  11.029
 4183W        W63719  38.513  10.287   0.968
 4184W        W63720  21.616   8.728   2.305
 4185W        W63721   1.906   2.362   3.696
 4186W        W63722  12.760  41.360  14.328
 4187W        W63723   5.737  36.919  14.275
 4188W        W63724   2.233   9.187  12.013
 4189W        W63725  33.623  34.402  10.052
 4190W        W63726  18.714  31.424  11.949
 4191W        W63727  17.731  31.416  11.996
 4192W        W63728   5.428  12.724  12.552
 4193W        W63729  13.249  21.177  10.084
 4194W        W63730  42.024  42.954  10.084
 4195W        W63731  18.784  27.997  13.894
 4196W        W63732  35.366  31.966   2.227
 4197W        W63733  33.440  33.895   4.257
 4198W        W63734   7.237   2.405   0.385
 4199W        W63735  31.417   2.349  11.593
 4200W        W63736  21.738   2.858  13.370
 4201W        W63737  40.884   3.461   1.861
 4202W        W63738  32.948  21.645   0.819
 4203W        W63739  41.959   7.685   2.407
 4204W        W63740  32.486  19.161  11.540
 4205W        W63741  18.096  13.761   2.811
 4206W        W63742   5.250  19.708  13.804
 4207W        W63743  25.525   5.709   2.899
 4208W        W63744  15.789   9.873   2.388
 4209W        W63745  24.569  43.780  13.800
 4210W        W63746  22.114  25.594   1.443
 4211W        W63747   9.375   1.415   4.786
 4212W        W63748  37.856   3.951   2.336
 4213W        W63749  16.740  26.951  13.312
 4214W        W63750  12.143  41.387  12.053
 4215W        W63751  24.504  33.502   4.158
 4216W        W63752   8.312  37.022   3.315
 4217W        W63753  29.469  28.554   0.742
 4218W        W63754  34.535  43.344  11.910
 4219W        W63755   9.664  34.381   4.664
 4220W        W63756  10.254  28.513   5.155
 4221W        W63757  24.646  37.854   0.395
 4222W        W63758   4.328  39.365  13.499
 4223W        W63759  23.709  43.464   4.773
 4224W        W63760  11.249  11.166   2.298
 4225W        W63761   1.304   3.942   3.262
 4226W        W63762  11.820   8.817   2.866
 4227W        W63763  39.383  25.692   0.466
 4228W        W63764  32.989  31.972   2.799
 4229W        W63765  44.271  35.425   1.792
 4230W        W63766   3.941   5.726   4.192
 4231W        W63767  29.658   6.270   4.244
 4232W        W63768  42.480   1.255  13.884
 4233W        W63769  23.714  20.071  13.521
 4234W        W63770  19.750  24.522  13.321
 4235W        W63771   6.782  14.197  10.424
 4236W        W63772   6.872  25.168   0.390
 4237W        W63773   0.325  13.308   0.353
 4238W        W63774  34.959   1.263   0.428
 4239W        W63775  43.293  21.607  12.843
 4240W        W63776  31.106  22.189  10.640
 4241W        W63777  31.437  21.190  10.473
 4242W        W63778  16.609   9.297  10.450
 4243W        W63779   8.690   5.908   3.710
 4244W        W63780   3.876  34.458   2.734
 4245W        W63781  15.590  24.536   0.452
 4246W        W63782  28.143  44.480  12.978
 4247W        W63783  20.528  16.318  12.988
 4248W        W63784  41.510  31.074  12.530
 4249W        W63785  14.296  37.541  11.424
 4250W        W63786  14.139  26.502  13.811
 4251W        W63787  18.182  24.512  14.330
 4252W        W63788   8.165  34.001   0.388
 4253W        W63789   7.195  44.382  11.473
 4254W        W63790  38.552  37.484  10.557
 4255W        W63791   0.385  42.477  12.466
 4256W        W63792  38.841  22.246   3.161
 4257W        W63793  17.125  13.713   3.383
 4258W        W63794  16.590  15.141   1.318
 4259W        W63795  37.972  22.083  13.383
 4260W        W63796  28.549  24.109  12.461
 4261W        W63797  44.481  43.922  10.454
 4262W        W63798  25.142  20.737  11.584
 4263W        W63799   6.873  34.499   4.765
 4264W        W63800  20.586   4.777   5.135
 4265W        W63801   5.879  14.804  10.622
 4266W        W63802   7.675  38.879   2.741
 4267W        W63803  37.929  37.564   9.968
 4268W        W63804  11.760  43.391  12.867
 4269W        W63805   5.691  36.899  10.995
 4270W        W63806  29.967  28.572  11.541
 4271W        W63807   5.291  28.648   0.289
 4272W        W63808  41.362  23.985   2.783
 4273W        W63809  37.026  33.099  14.516
 4274W        W63810  12.239   4.777   5.287
 4275W        W63811   6.776  25.590   2.346
 4276W        W63812  39.442  22.598   2.213
 4277W        W63813  28.117   5.257  14.880
 4278W        W63814  21.549  13.214  14.433
 4279W        W63815  11.281  11.719  12.933
 4280W        W63816  34.906   4.328   3.719
 4281W        W63817  15.136  38.351   3.264
 4282W        W63818  13.174  17.674  10.432
 4283W        W63819  32.488   0.884   1.845
 4284W        W63820  43.436  19.769  12.975
 4285W        W63821  27.131  34.922   0.733
 4286W        W63822   6.394  26.667  12.579
 4287W        W63823  31.552   8.318   4.217
 4288W        W63824  38.452  13.844  13.817
 4289W        W63825  29.597   6.196   2.395
 4290W        W63826  37.838  24.013   1.724
 4291W        W63827  10.222  30.571  11.604
 4292W        W63828  37.383  40.322  11.576
 4293W        W63829   4.268  43.978  11.468
 4294W        W63830  27.589  35.014  11.019
 4295W        W63831   6.843  20.605   3.870
 4296W        W63832  22.592  21.736  13.481
 4297W        W63833   0.983  37.438  10.051
 4298W        W63834  39.015  11.268   2.871
 4299W        W63835  22.604  44.311  14.491
 4300W        W63836  12.852  37.948  14.299
 4301W        W63837  28.543  34.424  11.046
 4302W        W63838   9.258  25.547   1.258
 4303W        W63839  40.947  44.833  13.014
 4304W        W63840  31.490   4.889  14.997
 4305W        W63841  38.426  36.507  11.517
 4306W        W63842  40.428  22.203  11.872
 4307W        W63843  23.210  39.973   4.259
 4308W        W63844  30.025  37.033  12.076
 4309W        W63845  28.966  20.738  11.557
 4310W        W63846  40.007   4.933  13.013
 4311W        W63847  18.723   5.713  14.788
 4312W        W63848  25.532  25.055  14.281
 4313W        W63849   1.915  24.085  13.821
 4314W        W63850  28.155   6.890   3.241
 4315W        W63851  18.230  23.510  14.864
 4316W        W63852  32.626  30.432   4.135
 4317W        W63853   2.886  26.567   2.241
 4318W        W63854   1.767  10.250   1.879
 4319W        W63855  20.676   7.290   2.397
 4320W        W63856   8.711  12.685  10.104
 4321W        W63857  18.183  42.999   0.302
 4322W        W63858  37.491  29.638  14.002
 4323W        W63859  12.713  36.545  12.501
 4324W        W63860   9.798  25.205   2.848
 4325W        W63861  11.833  31.526   2.838
 4326W        W63862   9.260  14.592   0.383
 4327W        W63863  15.268  44.301   3.762
 4328W        W63864  13.835   4.258   0.397
 4329W        W63865  28.150  25.482   1.790
 4330W        W63866  22.115  44.880  12.038
 4331W        W63867  35.466  35.419  14.904
 4332W        W63868  34.935  38.460  13.839
 4333W        W63869   8.891   6.907  14.401
 4334W        W63870  35.058  41.523   9.942
 4335W        W63871   0.776  29.593   2.696
 4336W        W63872  28.014  20.756  14.353
 4337W        W63873  20.735  28.945   0.269
 4338W        W63874  13.287  39.371  11.522
 4339W        W63875   8.691   4.698  11.442
 4340W        W63876  24.985   3.316  12.482
 4341W        W63877  26.472  44.499  10.995
 4342W        W63878   8.254  34.040   3.331
 4343W        W63879   2.225  38.844  14.844
 4344W        W63880  44.870  34.932  11.390
 4345W        W63881  35.884   1.309   3.199
 4346W        W63882   2.246  25.021  12.925
 4347W        W63883  33.101   6.323   3.338
 4348W        W63884  20.235  10.153  13.425
 4349W        W63885  20.625  29.169   2.759
 4350W        W63886  28.071   7.306   1.382
 4351W        W63887  37.833   8.838   0.759
 4352W        W63888  36.014  29.967   2.804
 4353W        W63889  11.623  42.995   1.257
 4354W        W63890  17.281   7.708   1.297
 4355W        W63891  43.306  32.981  14.509
 4356W        W63892   6.319  32.488  11.386
 4357W        W63893  34.944  15.794   0.928
 4358W        W63894   8.281  30.565  14.378
 4359W        W63895  15.164  14.608   0.264
 4360W        W63896  25.583  41.318  11.924
 4361W        W63897   6.748  17.149   1.327
 4362W        W63898  41.806  37.930  13.004
 4363W        W63899  14.763   2.877  10.416
 4364W        W63900  30.083   3.728  12.414
 4365W        W63901  39.059  27.972   0.854
 4366W        W63902  26.146   7.807  11.065
 4367W        W63903   0.872   8.281   2.371
 4368W        W63904   4.900  14.721  12.060
 4369W        W63905  13.158  34.082   0.811
 4370W        W63906  41.990   4.942  10.548
 4371W        W63907  33.447   9.156  13.886
 4372W        W63908  26.533  39.871  12.009
 4373W        W63909  39.984  10.307   2.348
 4374W        W63910  20.089  20.232   0.728
 4375W        W63911  44.419  20.182  12.084
 4376W        W63912  27.082  26.088  12.361
 4377W        W63913  21.058  15.273   0.772
 4378W        W63914  39.025  35.065  13.482
 4379W        W63915  27.658  35.471  11.010
 4380W        W63916  44.008  41.955  11.023
 4381W        W63917   4.734  23.109  12.376
 4382W        W63918   3.416  11.664   1.865
 4383W        W63919  16.809  12.158   3.864
 4384W        W63920  36.842   8.872   3.801
 4385W        W63921   4.910  31.521   0.921
 4386W        W63922  23.134  34.038  12.935
 4387W        W63923  33.392  32.961  13.924
 4388W        W63924  28.115  25.521   2.719
 4389W        W63925  15.683  10.332  10.540
 4390W        W63926   8.730  37.462   2.401
 4391W        W63927  19.252  33.460   2.886
 4392W        W63928  31.449  10.309  14.984
 4393W        W63929   1.417  34.436   2.845
 4394W        W63930  18.722  18.154   3.199
 4395W        W63931  26.131   4.907  13.913
 4396W        W63932  28.085  43.304   4.794
 4397W        W63933  11.260  35.110  11.483
 4398W        W63934  20.040  16.663   4.732
 4399W        W63935   6.784   5.367   2.726
 4400W        W63936  21.711  22.210  11.441
 4401W        W63937  17.686  26.510  10.406
 4402W        W63938  44.269  19.250  11.515
 4403W        W63939  17.616  36.369   4.318
 4404W        W63940  39.530  40.528  11.069
 4405W        W63941   8.288  23.703  10.067
 4406W        W63942  40.511  43.923  12.531
 4407W        W63943  25.193  39.539  11.417
 4408W        W63944   6.314  22.048  12.524
 4409W        W63945  28.097  22.633   0.285
 4410W        W63946   1.372  35.419   3.805
 4411W        W63947  17.632  44.439   1.303
 4412W        W63948   9.841   6.320   0.845
 4413W        W63949  31.984  16.589   4.649
 4414W        W63950  36.496   5.328  14.501
 4415W        W63951  39.025  40.921  10.506
 4416W        W63952  31.576  39.554  12.517
 4417W        W63953  15.656   9.756  13.874
 4418W        W63954  12.782   8.200   1.850
 4419W        W63955  26.694  40.540   4.247
 4420W        W63956  37.981  24.225  10.923
 4421W        W63957   9.887  19.263   4.822
 4422W        W63958  13.327  40.442   0.744
 4423W        W63959   7.698  42.959  10.611
 4424W        W63960  24.185  32.432   3.811
 4425W        W63961  24.152  21.615   4.337
 4426W        W63962   7.895  34.390  11.522
 4427W        W63963   6.888  43.282   3.288
 4428W        W63964  10.869  39.402   4.133
 4429W        W63965  23.999  30.119   3.850
 4430W        W63966  25.203  40.402  13.017
 4431W        W63967  44.417   9.249   2.403
 4432W        W63968  20.159  35.878  14.885
 4433W        W63969  23.993  27.674  14.967
 4434W        W63970  22.071  31.094  11.513
 4435W        W63971  39.337  43.313  10.603
 4436W        W63972  30.162  29.072   0.398
 4437W        W63973   5.773  28.029   3.176
 4438W        W63974  10.267  12.352  14.297
 4439W        W63975  29.495  37.513   1.920
 4440W        W63976   7.859  17.650   3.357
 4441W        W63977  10.649  22.054  10.907
 4442W        W63978  10.726  41.451   5.219
 4443W        W63979  11.277  14.258   4.766
 4444W        W63980  44.925   5.928   3.793
 4445W        W63981  14.749  27.617  11.938
 4446W        W63982  35.865  29.600  11.913
 4447W        W63983  11.250  36.462  10.404
 4448W        W63984  19.715  43.388   3.698
 4449W        W63985  35.385   7.727  13.849
 4450W        W63986  31.598  23.182   3.222
 4451W        W63987  35.959  38.987   3.283
 4452W        W63988  30.553  38.990  14.787
 4453W        W63989  21.237  38.511   2.889
 4454W        W63990   0.328  37.402  13.309
 4455W        W63991   1.268   0.829   4.739
 4456W        W63992   1.771  10.215  10.544
 4457W        W63993  14.619   7.246   0.343
 4458W        W63994   9.815   3.906   3.347
 4459W        W63995  41.336  24.113   0.865
 4460W        W63996  11.203  16.702  12.502
 4461W        W63997  33.410  32.998  10.437
 4462W        W63998  27.488  36.893   2.801
 4463W        W63999  26.496  31.526   0.897
 4464W        W64000  25.540   5.903  11.117
 4465W        W64001  10.811  21.164   4.155
 4466W        W64002  35.460   8.852   2.221
 4467W        W64003  10.847  30.554  13.902
 4468W        W64004  20.536  32.612  11.032
 4469W        W64005  18.201  22.740  12.484
 4470W        W64006  27.011  26.623   3.782
 4471W        W64007  34.510  35.578   1.434
 4472W        W64008  11.621   0.980  10.060
 4473W        W64009  32.514  44.961   2.688
 4474W        W64010  16.774  15.704  12.568
 4475W        W64011  24.688   2.859   1.238
 4476W        W64012  10.183  17.676  13.056
 4477W        W64013  35.946  16.292  10.473
 4478W        W64014   8.771  35.979   4.649
 4479W        W64015  29.083  26.190   0.880
 4480W        W64016   5.203  21.052   4.272
 4481W        W64017  16.214  16.703   4.821
 4482W        W64018  37.552   6.737   3.746
 4483W        W64019  21.201   8.319  14.811
 4484W        W64020  19.663   3.274  10.601
 4485W        W64021  10.740  31.102  13.824
 4486W        W64022  11.312  44.797   2.769
 4487W        W64023  17.296  34.482   3.838
 4488W        W64024  22.737  23.731   4.171
 4489W        W64025  35.465  17.761  13.326
 4490W        W64026  19.590  34.374   1.336
 4491W        W64027   0.957  30.063   3.751
 4492W        W64028  24.636  12.139   3.671
 4493W        W64029  27.149  28.544  10.453
 4494W        W64030  33.038  20.045  11.928
 4495W        W64031   4.827   0.874   2.368
 4496W        W64032  18.569  36.962   1.301
 4497W        W64033   8.349  43.803   4.227
 4498W        W64034  22.123  25.214   4.653
 4499W        W64035  15.092  23.101  13.436
 4500W        W64036  11.320   0.872   1.708
 4501W        W64037  44.405  22.560  10.024
 4502W        W64038  10.758   0.361  14.345
 4503W        W64039  10.714  17.632  11.082
 4504W        W64040  22.607  27.092  12.424
 4505W        W64041  44.363  25.638   2.288
 4506W        W64042  38.868  12.749   4.694
 4507W        W64043  42.526  44.782  11.522
 4508W        W64044  28.083  19.699  13.854
 4509W        W64045  27.119  31.474  10.433
 4510W        W64046  27.010   1.743   0.386
 4511W        W64047  39.476   9.884   4.668
 4512W        W64048  21.158   6.350  10.921
 4513W        W64049  24.623  18.286   1.340
 4514W        W64050   1.881  36.064   2.354
 4515W        W64051  16.781   6.235  10.524
 4516W        W64052  11.245  12.120  14.303
 4517W        W64053  34.508  27.990  11.898
 4518W        W64054  44.456  22.652   5.160
 4519W        W64055  38.514  38.880  13.452
 4520W        W64056   0.765  25.154  13.048
 4521W        W64057  37.394  18.697  10.953
 4522W        W64058  26.564  28.551   2.797
 4523W        W64059  21.055  37.868  10.990
 4524W        W64060  21.059  28.119   5.204
 4525W        W64061  23.617  40.420   0.831
 4526W        W64062  12.661  23.623   1.773
 4527W        W64063  28.025  12.618   2.753
 4528W        W64064  16.801   6.270   4.766
 4529W        W64065  24.595  14.710  11.582
 4530W        W64066  37.838  16.773   4.603
 4531W        W64067  27.635  40.908   1.442
 4532W        W64068  13.695  11.285  13.922
 4533W        W64069  27.683   8.350   2.311
 4534W        W64070   6.410  24.186   0.333
 4535W        W64071  16.601   0.387  14.380
 4536W        W64072  11.729  18.073   4.611
 4537W        W64073  10.730  39.945  13.432
 4538W        W64074  25.968   5.312   0.792
 4539W        W64075  26.158   9.882   4.210
 4540W        W64076  22.185  30.944   1.322
 4541W        W64077  38.569  16.159   1.312
 4542W        W64078  10.845  31.078  10.015
 4543W        W64079  30.461  19.717   3.288
 4544W        W64080   1.435   7.384   3.317
 4545W        W64081   7.358   6.767   4.305
 4546W        W64082  35.478   4.213   3.659
 4547W        W64083  37.413  18.215  10.458
 4548W        W64084  31.513  19.252   3.222
 4549W        W64085  14.807  27.572   0.784
 4550W        W64086   1.758  15.797  14.337
 4551W        W64087  43.371  35.564   0.404
 4552W        W64088  16.700  12.652   1.738
 4553W        W64089  17.085  20.271  14.776
 4554W        W64090   4.321   7.817  13.499
 4555W        W64091  12.137  30.468   3.852
 4556W        W64092  16.796  22.740   1.233
 4557W        W64093  11.132  36.926   3.373
 4558W        W64094  16.796  36.035  12.943
 4559W        W64095  37.386  21.686   3.716
 4560W        W64096  28.643  24.110   4.349
 4561W        W64097  30.000   3.344  14.828
 4562W        W64098  32.544  36.022  13.040
 4563W        W64099  24.013   6.200   3.229
 4564W        W64100   6.772  44.308  10.422
 4565W        W64101  41.292  39.499   3.275
 4566W        W64102  19.654  36.431  12.063
 4567W        W64103  35.546  42.497   0.409
 4568W        W64104  42.469  20.553   3.187
 4569W        W64105   9.775  44.324   1.338
 4570W        W64106  10.866  11.176  12.567
 4571W        W64107  17.662  17.283  14.341
 4572W        W64108  31.501  40.013   4.243
 4573W        W64109  13.108  19.694  10.553
 4574W        W64110   9.668   8.221   4.634
 4575W        W64111  19.125  29.067  14.831
 4576W        W64112   6.883   4.945  13.998
 4577W        W64113   6.272  19.563  12.843
 4578W        W64114  14.696  20.674   0.884
 4579W        W64115   0.376  43.338  10.474
 4580W        W64116  11.172  16.313  12.091
 4581W        W64117  36.889   8.353  13.999
 4582W        W64118  35.956  11.816   1.422
 4583W        W64119   6.378  39.331  13.321
 4584W        W64120  23.523  14.681   2.206
 4585W        W64121  19.548  26.579  13.898
 4586W        W64122  32.038  44.862  10.613
 4587W        W64123   8.235   7.670  11.094
 4588W        W64124   6.255  35.560  10.941
 4589W        W64125  34.944  35.873  11.388
 4590W        W64126   9.366  36.900  12.517
 4591W        W64127  27.050  24.079  14.484
 4592W        W64128  33.904  24.155  13.509
 4593W        W64129  42.399  10.282  12.015
 4594W        W64130  24.976  11.652   3.781
 4595W        W64131   0.766  20.744   4.214
 4596W        W64132  43.883  32.980  12.854
 4597W        W64133   5.372   2.938  13.858
 4598W        W64134  42.366   1.468  13.485
 4599W        W64135  44.850  25.055  13.372
 4600W        W64136  41.481  32.091  14.894
 4601W        W64137  10.731   0.482   2.240
 4602W        W64138  32.407  26.013  12.539
 4603W        W64139  30.657  37.339   2.766
 4604W        W64140   5.903  39.939   3.162
 4605W        W64141  37.397  27.985  11.897
 4606W        W64142  42.987   1.380  12.416
 4607W        W64143  23.519  27.998   2.721
 4608W        W64144  17.724  38.530   4.332
 4609W        W64145  28.605  23.728   4.765
 4610W        W64146  17.085  16.701   3.286
 4611W        W64147  30.457  24.073   4.189
 4612W        W64148  23.525   0.896   3.218
 4613W        W64149  24.505   9.830   0.784
 4614W        W64150  42.321  27.621   2.302
 4615W        W64151  42.013  34.010   4.260
 4616W        W64152  19.272  27.189   4.815
 4617W        W64153  30.538  31.906   4.327
 4618W        W64154   5.931  17.646   1.698
 4619W        W64155  32.985   8.406   0.851
 4620W        W64156  12.717  28.623   3.635
 4621W        W64157  42.429   4.926  13.418
 4622W        W64158  22.502  14.250  13.061
 4623W        W64159  21.134  11.656   2.689
 4624W        W64160  44.263  40.398  14.778
 4625W        W64161   6.817  36.980   1.742
 4626W        W64162  37.558  25.491  10.959
 4627W        W64163  20.614   6.748   4.243
 4628W        W64164  40.931  24.071  10.514
 4629W        W64165  38.403  44.927  12.978
 4630W        W64166  23.134  34.015   9.966
 4631W        W64167   1.937  26.556   0.964
 4632W        W64168   2.956  39.064  12.885
 4633W        W64169  28.022  36.477  14.032
 4634W        W64170  25.560   0.814   1.760
 4635W        W64171  41.437  35.030   2.270
 4636W        W64172   3.757  43.867  12.928
 4637W        W64173  24.524  24.126  14.958
 4638W        W64174   0.909  32.510  13.822
 4639W        W64175  35.601  43.371  10.904
 4640W        W64176  39.918  22.191   0.961
 4641W        W64177  40.349  43.818  13.877
 4642W        W64178   8.340   2.335  12.402
 4643W        W64179  10.351  19.717   0.465
 4644W        W64180  41.871  29.441  11.997
 4645W        W64181  22.670  31.440   3.850
 4646W        W64182  29.065  18.285   3.753
 4647W        W64183   3.439  24.986  14.977
 4648W        W64184  27.678   9.283  11.125
 4649W        W64185  27.174  42.999  11.121
 4650W        W64186  37.014  15.796   0.960
 4651W        W64187  15.677  28.984  13.930
 4652W        W64188   2.735  36.853   0.740
 4653W        W64189  40.515  31.975  11.478
 4654W        W64190  19.164   8.784  10.986
 4655W        W64191  40.517  32.441   2.813
 4656W        W64192   6.380  13.641  12.475
 4657W        W64193  30.437   1.761   3.260
 4658W        W64194  23.522  38.940   3.669
 4659W        W64195  35.394  19.095  14.881
 4660W        W64196  33.130  28.591  14.789
 4661W        W64197   3.303  32.469   1.864
 4662W        W64198  42.031  40.927  12.396
 4663W        W64199  16.188  16.643  13.881
 4664W        W64200   2.754  21.071  14.828
 4665W        W64201  34.458   6.809   2.297
 4666W        W64202  30.576  11.645   4.317
 4667W        W64203  17.262  12.737  13.485
 4668W        W64204  25.994  32.028   1.743
 4669W        W64205  32.522  15.818   0.760
 4670W        W64206  35.991  20.129   2.722
 4671W        W64207  28.667  28.942  13.914
 4672W        W64208  42.971  26.540   3.334
 4673W        W64209   3.818   2.470   3.302
 4674W        W64210  44.321  39.521   1.242
 4675W        W64211  35.855  35.518  14.967
 4676W        W64212  28.960   7.669   3.809
 4677W        W64213  23.027  13.205   2.768
 4678W        W64214   9.686  20.116  11.586
 4679W        W64215  11.840  11.783  12.034
 4680W        W64216   4.726  35.464  14.284
 4681W        W64217   8.185  10.670  11.538
 4682W        W64218  14.738   6.303   5.237
 4683W        W64219  18.721  20.042  12.018
 4684W        W64220  27.542  15.226   4.295
 4685W        W64221  14.207  23.135   3.320
 4686W        W64222  44.396   3.303   0.947
 4687W        W64223   6.263  12.283  10.436
 4688W        W64224   4.795  28.479  14.309
 4689W        W64225  26.586   2.395  12.577
 4690W        W64226  31.496  20.202   0.329
 4691W        W64227  27.558  29.561  11.468
 4692W        W64228  40.039  31.541  12.882
 4693W        W64229   7.338  26.682   5.755
 4694W        W64230   9.865  29.538  12.501
 4695W        W64231  23.000   0.349   0.285
 4696W        W64232  34.102  19.634   4.766
 4697W        W64233  40.433  17.065  14.487
 4698W        W64234  15.173  34.088  11.093
 4699W        W64235  35.539   6.421   1.333
 4700W        W64236  21.549  13.760  14.439
 4701W        W64237  25.031  14.176   3.375
 4702W        W64238  30.074  40.462   2.201
 4703W        W64239  33.966  25.158  13.963
 4704W        W64240  12.693  28.015   4.179
 4705W        W64241  26.670  26.667  14.852
 4706W        W64242  44.921  26.657   2.724
 4707W        W64243  16.806  42.318   1.858
 4708W        W64244  36.503  29.012  13.040
 4709W        W64245   4.256  22.633   3.300
 4710W        W64246   6.721  41.331   1.406
 4711W        W64247  30.945   1.259  14.791
 4712W        W64248   0.925   4.845   3.647
 4713W        W64249  42.979   9.686   4.205
 4714W        W64250  29.543  40.524  11.934
 4715W        W64251  41.302  24.007  11.005
 4716W        W64252  34.553  42.327   0.424
 4717W        W64253  20.256   3.311  13.337
 4718W        W64254  34.370   4.907   0.245
 4719W        W64255  28.112  43.848   1.898
 4720W        W64256   0.431   1.744   4.234
 4721W        W64257  16.147  22.188   1.718
 4722W        W64258   1.771  30.134   2.699
 4723W        W64259  15.109  35.992  13.965
 4724W        W64260  38.345  14.696  14.889
 4725W        W64261  17.075  31.079  14.413
 4726W        W64262  27.532  38.501  12.543
 4727W        W64263  32.120   7.357   1.376
 4728W        W64264  28.165  17.606   5.706
 4729W        W64265  13.720  20.120   4.338
 4730W        W64266  38.492  34.604  11.559
 4731W        W64267  16.689  12.125  12.479
 4732W        W64268  34.998  26.474   5.602
 4733W        W64269  44.972   3.947   2.730
 4734W        W64270  27.619  38.924  12.906
 4735W        W64271  29.997  37.012  12.348
 4736W        W64272  32.016   9.828   3.692
 4737W        W64273  29.475  21.042  13.797
 4738W        W64274  36.060   2.252  14.797
 4739W        W64275  36.932  21.589  14.775
 4740W        W64276  38.847   4.331  13.811
 4741W        W64277  25.679  39.364  10.483
 4742W        W64278  28.971   4.222  10.451
 4743W        W64279  42.999   5.896  14.926
 4744W        W64280  16.302  36.928  11.866
 4745W        W64281  19.257   4.701   0.822
 4746W        W64282  32.411   6.388   1.446
 4747W        W64283  37.581   0.849   0.470
 4748W        W64284  22.550   1.460  12.081
 4749W        W64285   8.342  25.642   3.656
 4750W        W64286  19.762  29.506   2.705
 4751W        W64287  23.522   8.185   0.948
 4752W        W64288  16.666   5.700  12.518
 4753W        W64289  29.635   2.799   0.955
 4754W        W64290  31.537  33.619   3.229
 4755W        W64291  20.269   0.815   1.800
 4756W        W64292   5.378   3.340   0.288
 4757W        W64293  15.705  19.197   4.695
 4758W        W64294  19.094  38.889   4.228
 4759W        W64295  23.724  29.427  13.890
 4760W        W64296  23.155  26.650   9.944
 4761W        W64297  35.486  33.559   2.899
 4762W        W64298  14.182  10.678   4.210
 4763W        W64299  29.042  20.264   0.823
 4764W        W64300  21.194  17.121   2.711
 4765W        W64301  32.432  43.941   2.762
 4766W        W64302  32.098   2.371  11.879
 4767W        W64303  12.841   2.812  12.840
 4768W        W64304  17.688  32.413  11.038
 4769W        W64305  43.842  26.976   3.657
 4770W        W64306   9.645  28.165  12.012
 4771W        W64307  26.472  16.771   3.818
 4772W        W64308  29.919  23.179  11.492
 4773W        W64309   4.818  26.513   0.400
 4774W        W64310  40.546  41.483   2.250
 4775W        W64311  25.700   8.734  14.998
 4776W        W64312   0.830   8.184  14.440
 4777W        W64313  18.682  17.123  14.969
 4778W        W64314  30.584  27.682  13.397
 4779W        W64315  31.954  44.969  11.088
 4780W        W64316  12.753  24.104   2.208
 4781W        W64317  41.956  17.216  14.294
 4782W        W64318  23.043  30.658   2.413
 4783W        W64319  37.979  34.506   3.377
 4784W        W64320  44.952   8.275  14.794
 4785W        W64321  35.435   4.204  11.965
 4786W        W64322  10.806  21.088   0.255
 4787W        W64323  18.278   1.311  13.988
 4788W        W64324  38.065  40.961  14.016
 4789W        W64325  24.670  19.258   1.894
 4790W        W64326  40.821   9.272  12.516
 4791W        W64327  16.133  12.628   1.448
 4792W        W64328  33.026  14.146  13.505
 4793W        W64329  44.456  33.555   2.746
 4794W        W64330  14.262  23.660  10.592
 4795W        W64331  25.169  28.049   0.370
 4796W        W64332  36.478  38.988  10.636
 4797W        W64333  16.293  42.784   0.284
 4798W        W64334  31.478  13.712  10.409
 4799W        W64335  10.851  33.067   4.709
 4800W        W64336  28.981   2.934   2.387
 4801W        W64337   2.935  20.076   1.265
 4802W        W64338  40.383   6.305  13.380
 4803W        W64339  20.129  17.160  12.461
 4804W        W64340  14.324   6.849  14.413
 4805W        W64341  35.928   3.799   0.784
 4806W        W64342  41.295  15.135  14.761
 4807W        W64343  24.522  21.261  12.357
 4808W        W64344  20.547  10.140  10.986
 4809W        W64345  36.535  27.971   3.795
 4810W        W64346   1.478   0.933   1.385
 4811W        W64347  37.912  42.850  10.642
 4812W        W64348  24.132  37.381   1.810
 4813W        W64349   3.414  26.515  12.549
 4814W        W64350   8.230   2.747  12.507
 4815W        W64351  30.580  43.371   4.706
 4816W        W64352  20.690  34.921  14.288
 4817W        W64353  25.615  27.017   4.634
 4818W        W64354   9.725  12.362  12.396
 4819W        W64355  36.482  30.069  11.090
 4820W        W64356  25.042  15.765   1.333
 4821W        W64357   4.884  15.749   1.360
 4822W        W64358  31.926  22.242  10.580
 4823W        W64359  21.241   0.481  10.518
 4824W        W64360  41.938  44.290   3.752
 4825W        W64361   1.240  43.007   2.303
 4826W        W64362  37.393  10.181  12.068
 4827W        W64363  38.038  22.659  12.435
 4828W        W64364  32.960  33.963   3.736
 4829W        W64365  11.241  33.129   3.196
 4830W        W64366  24.701  22.507   2.355
 4831W        W64367   5.883  31.004  12.561
 4832W        W64368  34.384  27.094   0.279
 4833W        W64369  28.035  25.069   5.206
 4834W        W64370  35.887  34.941  14.450
 4835W        W64371  11.263  37.581  12.022
 4836W        W64372  11.638  19.217   2.890
 4837W        W64373   6.315  28.952   1.884
 4838W        W64374  24.560  44.440  10.970
 4839W        W64375  40.938  34.412  13.878
 4840W        W64376  18.633  14.655  12.414
 4841W        W64377  34.936  41.445  10.976
 4842W        W64378  27.075  35.601   9.577
 4843W        W64379  33.964  14.187  14.958
 4844W        W64380   5.371  12.231   3.852
 4845W        W64381   5.248  34.041   1.234
 4846W        W64382  22.108  18.207   3.665
 4847W        W64383  38.571  44.358   2.185
 4848W        W64384  33.443  32.617  14.472
 4849W        W64385  34.508  10.692   2.327
 4850W        W64386  41.840  26.532   1.352
 4851W        W64387  14.834  33.018  10.518
 4852W        W64388  21.606   1.975  11.404
 4853W        W64389  37.512   2.871  13.457
 4854W        W64390  37.968  33.458  13.019
 4855W        W64391  34.515  33.445  12.346
 4856W        W64392   1.865  18.108  12.086
 4857W        W64393  16.733  42.319   0.835
 4858W        W64394  37.979  18.280   4.333
 4859W        W64395  29.927  43.782  13.396
 4860W        W64396  41.884  41.915   2.763
 4861W        W64397  38.546   7.745   2.826
 4862W        W64398   3.391  44.390   4.171
 4863W        W64399   5.741  42.305   0.295
 4864W        W64400  16.695  25.581  14.332
 4865W        W64401  32.893  36.983   2.220
 4866W        W64402  22.669   2.783  13.415
 4867W        W64403  36.862   2.749  10.092
 4868W        W64404  38.930  12.204   1.298
 4869W        W64405  42.493   4.944   0.818
 4870W        W64406  42.858  11.825  12.902
 4871W        W64407  28.573  33.938  11.880
 4872W        W64408  32.530  12.179   2.684
 4873W        W64409  34.493  16.137   3.370
 4874W        W64410  19.714  14.649  14.314
 4875W        W64411   8.848  37.526   3.314
 4876W        W64412  43.367  43.766  11.481
 4877W        W64413  12.317  20.142   3.339
 4878W        W64414  12.628  14.653   2.757
 4879W        W64415  44.828  18.286   3.313
 4880W        W64416   4.856  33.035  12.894
 4881W        W64417  35.917  20.255   4.145
 4882W        W64418  42.839  16.606  12.838
 4883W        W64419   1.343  21.086   3.261
 4884W        W64420  35.105  12.671   0.389
 4885W        W64421  37.911  15.216  11.556
 4886W        W64422  24.165  36.351  10.552
 4887W        W64423  11.298  13.616  10.518
 4888W        W64424  43.878  15.195  10.887
 4889W        W64425  16.151  38.906  11.564
 4890W        W64426  33.068  25.114  14.382
 4891W        W64427  21.206   2.375  13.816
 4892W        W64428  29.987  20.131   2.684
 4893W        W64429  14.686  23.712   3.332
 4894W        W64430  40.947  15.186   1.266
 4895W        W64431  15.686   0.915   4.203
 4896W        W64432  29.625   1.963   1.838
 4897W        W64433  30.530  32.603   0.393
 4898W        W64434  16.310  27.452  13.500
 4899W        W64435  39.396  40.834   0.386
 4900W        W64436  27.479  35.004  10.600
 4901W        W64437  19.200  33.073   3.694
 4902W        W64438  22.739   6.788   3.339
 4903W        W64439   6.877  43.299   1.761
 4904W        W64440  31.123   3.349  14.834
 4905W        W64441  29.534  32.531  12.075
 4906W        W64442  25.155  12.617  12.084
 4907W        W64443  18.552  33.052   4.736
 4908W        W64444   2.908  35.948  10.497
 4909W        W64445  42.815  17.305  10.471
 4910W        W64446  43.976   9.648  10.640
 4911W        W64447   4.748  24.102   2.244
 4912W        W64448  14.772  21.640   2.795
 4913W        W64449   8.755  20.677  13.330
 4914W        W64450  26.098  31.569   3.242
 4915W        W64451  27.644  27.475  14.436
 4916W        W64452  29.123  31.115  12.881
 4917W        W64453  39.984  29.978  11.604
 4918W        W64454  32.137  33.962  12.002
 4919W        W64455  30.558  19.640  13.899
 4920W        W64456  35.600   8.231  11.054
 4921W        W64457  28.668   8.858  13.933
 4922W        W64458  17.066  16.716  13.502
 4923W        W64459  23.118  20.105   4.815
 4924W        W64460  38.835  44.829  14.905
 4925W        W64461  18.214  28.074  12.515
 4926W        W64462  21.605  17.708  13.031
 4927W        W64463  23.177  28.000  11.571
 4928W        W64464  23.509  20.572  14.922
 4929W        W64465  17.273   1.271  14.328
 4930W        W64466  41.455  14.623  11.555
 4931W        W64467  40.927  41.834  11.905
 4932W        W64468  14.610  39.018  14.922
 4933W        W64469  32.632  28.966  14.025
 4934W        W64470  41.847  22.537   0.834
 4935W        W64471  20.073  39.378  14.419
 4936W        W64472   1.292  30.131   3.186
 4937W        W64473  33.019  16.656  12.082
 4938W        W64474  33.567  24.039   0.894
 4939W        W64475  31.928  41.373   3.641
 4940W        W64476  19.227   8.868   3.286
 4941W        W64477  34.607  24.025   4.762
 4942W        W64478  42.823  42.804   1.431
 4943W        W64479  11.853  37.447  11.520
 4944W        W64480   2.448  22.617   0.958
 4945W        W64481   7.303  30.127   4.804
 4946W        W64482  37.524  11.240  10.152
 4947W        W64483   6.276  41.985   2.393
 4948W        W64484   2.944   5.821   0.958
 4949W        W64485  10.351  43.813  14.839
 4950W        W64486  33.106  29.048   3.870
 4951W        W64487  31.551  22.720   1.731
 4952W        W64488  29.585  32.093  10.436
 4953W        W64489  10.808  43.918   3.333
 4954W        W64490  28.565  28.530   4.814
 4955W        W64491   0.813  37.053   0.358
 4956W        W64492  32.040  24.011   0.782
 4957W        W64493  31.131  12.339   1.299
 4958W        W64494  17.738  23.129   0.728
 4959W        W64495  42.022  25.139   1.331
 4960W        W64496  27.655   1.827   3.849
 4961W        W64497  14.741   4.277  14.838
 4962W        W64498  38.073   8.341  11.052
 4963W        W64499   9.160  32.437  14.342
 4964W        W64500  17.612  35.466  14.340
 4965W        W64501  35.497  24.582   2.334
 4966W        W64502  40.451  36.004  10.048
 4967W        W64503  10.690  27.484   1.819
 4968W        W64504  34.448  43.837   1.762
 4969W        W64505  17.695   2.736  11.423
 4970W        W64506  17.238  24.689   0.927
 4971W        W64507  17.721  16.595   4.193
 4972W        W64508  38.981  29.651  14.828
 4973W        W64509  22.522  11.202  14.807
 4974W        W64510  29.531  20.252   2.350
 4975W        W64511   2.800   5.377   0.811
 4976W        W64512  15.584  27.113  11.856
 4977W        W64513  35.557   4.701  14.866
 4978W        W64514  13.704  23.135  14.328
 4979W        W64515  28.453  32.411  13.386
 4980W        W64516  32.538  33.123  14.925
 4981W        W64517  14.264  13.805  14.470
 4982W        W64518  35.039  36.570   2.354
 4983W        W64519  27.625  35.077  11.996
 4984W        W64520  22.591  33.123   2.828
 4985W        W64521  30.016  22.235  14.307
 4986W        W64522  17.063  36.420   4.343
 4987W        W64523  13.817  32.531  13.982
 4988W        W64524  23.169  33.021  11.035
 4989W        W64525  22.743   6.422  12.029
 4990W        W64526  21.135   8.365  12.863
 4991W        W64527  32.993  42.842  10.499
 4992W        W64528  15.771  17.103  10.585
 4993W        W64529   9.152  42.015   4.805
 4994W        W64530  29.119  24.654   0.901
 4995W        W64531   1.400  23.027  11.947
 4996W        W64532  31.449  40.827   3.266
 4997W        W64533   4.396   9.188  12.351
 4998W        W64534  35.418  26.995   5.705
 4999W        W64535  22.717  40.870   3.377
 5000W        W64536  10.832  29.642   5.266
 5001W        W64537  25.702   5.415   3.678
 5002W        W64538   9.873   7.276   0.384
 5003W        W64539  29.052  42.299   3.703
 5004W        W64540  40.389   9.848   3.315
 5005W        W64541  27.013   1.247  11.397
 5006W        W64542   6.182   1.946  10.003
 5007W        W64543  29.130   9.811  13.915
 5008W        W64544   3.240  29.634   1.847
 5009W        W64545  43.954  19.764  14.878
 5010W        W64546  40.047  40.889  12.907
 5011W        W64547  44.954  30.010  10.507
 5012W        W64548   1.947  42.327  11.539
 5013W        W64549  19.256  36.358   3.195
 5014W        W64550   9.844  29.465   1.857
 5015W        W64551  29.111  21.025  13.362
 5016W        W64552   3.425  43.449   0.467
 5017W        W64553  23.663  41.336   2.824
 5018W        W64554   6.912  28.060  14.000
 5019W        W64555   1.802  37.912  11.089
 5020W        W64556  39.523  35.868  11.090
 5021W        W64557  20.741  23.202   1.787
 5022W        W64558  36.850   0.840  11.014
 5023W        W64559  17.571  24.113   2.305
 5024W        W64560   9.647  21.261  14.814
 5025W        W64561   8.683  21.536  12.909
 5026W        W64562  32.587  19.693  11.961
 5027W        W64563   2.948  30.466   4.816
 5028W        W64564  15.222   3.869  12.076
 5029W        W64565  21.141  30.987  13.819
 5030W        W64566  16.622   5.431  10.490
 5031W        W64567  26.467  11.310  13.491
 5032W        W64568   0.888   3.780  12.967
 5033W        W64569  29.078   5.407   4.311
 5034W        W64570  44.924  43.333  14.478
 5035W        W64571  14.197   5.845  10.525
 5036W        W64572  43.006  31.638   3.673
 5037W        W64573   9.814  26.489   2.301
 5038W        W64574  23.211  42.781  14.975
 5039W        W64575  43.914  13.655  14.403
 5040W        W64576   5.306   1.737  12.466
 5041W        W64577  25.022  38.407   3.713
 5042W        W64578  24.200   7.337   1.230
 5043W        W64579  36.492  43.990   5.306
 5044W        W64580  26.552  24.043   3.233
 5045W        W64581  42.805  21.540   4.293
 5046W        W64582  30.596  42.433  14.861
 5047W        W64583  10.667  44.769   4.662
 5048W        W64584  41.488   6.291  13.334
 5049W        W64585  44.293  26.670  12.978
 5050W        W64586   9.733  12.279   3.268
 5051W        W64587  10.802  15.657   3.207
 5052W        W64588  44.485  32.402  12.040
 5053W        W64589  17.197   4.271   4.729
 5054W        W64590  19.776  35.365   9.942
 5055W        W64591  30.115  10.685   2.669
 5056W        W64592  14.208   3.393  13.510
 5057W        W64593   6.756  10.160  11.482
 5058W        W64594  10.731  36.372  13.894
 5059W        W64595  24.551  30.541  10.633
 5060W        W64596  13.731   2.916   3.755
 5061W        W64597  39.388  22.660  14.861
 5062W        W64598  25.576  10.815   4.213
 5063W        W64599   1.347   9.696   4.764
 5064W        W64600  39.553  13.116   4.123
 5065W        W64601  44.312  18.631   1.825
 5066W        W64602  23.527   7.736  10.615
 5067W        W64603  10.827  15.668   4.328
 5068W        W64604   9.811  42.489   0.431
 5069W        W64605   8.732   5.784   4.744
 5070W        W64606  19.177  43.835  12.006
 5071W        W64607   7.836  38.496  11.111
 5072W        W64608   0.470   6.867   0.893
 5073W        W64609  24.162  26.061   2.371
 5074W        W64610  36.871  24.186  11.593
 5075W        W64611  44.850  34.101   2.855
 5076W        W64612  32.432  23.102   5.147
 5077W        W64613  40.917  11.171   0.734
 5078W        W64614  41.321  39.329  10.552
 5079W        W64615   4.764  44.934   0.913
 5080W        W64616   4.808  31.906   3.337
 5081W        W64617  41.791  17.174   3.640
 5082W        W64618   7.328  26.493  11.904
 5083W        W64619  23.580  36.047  13.537
 5084W        W64620   2.845  16.270  10.919
 5085W        W64621  26.002  41.979  10.954
 5086W        W64622  39.376  10.845  10.643
 5087W        W64623   9.184   4.846   0.885
 5088W        W64624  28.665   5.337  12.006
 5089W        W64625  10.175  22.506   4.636
 5090W        W64626  43.949   4.801   2.745
 5091W        W64627  23.056  44.813   0.311
 5092W        W64628  33.537  27.470  12.506
 5093W        W64629  30.515  14.749   3.335
 5094W        W64630  13.273  31.595  11.473
 5095W        W64631  26.558  34.090   3.756
 5096W        W64632  42.350  35.512  12.934
 5097W        W64633  35.401  39.982  10.466
 5098W        W64634  32.961  14.227   4.283
 5099W        W64635  43.400  43.855   2.770
 5100W        W64636  43.021  11.757   3.308
 5101W        W64637  34.547  12.698   1.417
 5102W        W64638  27.485  30.155   1.325
 5103W        W64639  28.587  22.582   3.315
 5104W        W64640  35.884  43.426  12.022
 5105W        W64641  19.072  39.454   2.335
 5106W        W64642  13.244  38.439  13.850
 5107W        W64643  12.252  43.389   0.296
 5108W        W64644   5.907  10.711   0.921
 5109W        W64645  20.184  15.285   3.711
 5110W        W64646  40.958  17.187  10.618
 5111W        W64647  42.009  25.560  13.383
 5112W        W64648  39.060  34.483  14.327
 5113W        W64649  31.114  15.160  11.393
 5114W        W64650  34.505  36.582  12.051
 5115W        W64651   7.882   1.907  10.906
 5116W        W64652   8.660  34.554  12.041
 5117W        W64653  28.630  36.456  13.310
 5118W        W64654  26.622  38.540  12.999
 5119W        W64655  26.639  31.416  11.375
 5120W        W64656  40.982  34.528   2.898
 5121W        W64657   9.320   5.904   0.480
 5122W        W64658  16.729  13.266   2.685
 5123W        W64659  37.008  16.218  10.999
 5124W        W64660   0.886  43.809   3.641
 5125W        W64661  25.598  22.141  11.488
 5126W        W64662   7.405  25.655  12.379
 5127W        W64663  34.431  41.339   1.851
 5128W        W64664  34.451  24.493  10.593
 5129W        W64665  21.658  12.611  14.858
 5130W        W64666  24.987  12.679   1.911
 5131W        W64667  43.496  28.951   0.822
 5132W        W64668  25.609  12.761   5.179
 5133W        W64669  20.043  16.259   3.857
 5134W        W64670  28.103  31.074  14.318
 5135W        W64671  14.617   7.860  13.055
 5136W        W64672   3.410  40.357  11.393
 5137W        W64673  30.539  33.960   4.693
 5138W        W64674  29.646   5.357  13.484
 5139W        W64675   2.304  33.617   0.474
 5140W        W64676  11.369  37.536  11.439
 5141W        W64677  26.066  35.467  11.939
 5142W        W64678  36.967   6.736  10.470
 5143W        W64679  10.340  30.548  13.506
 5144W        W64680   3.790  42.290   3.694
 5145W        W64681   2.247  38.835   1.417
 5146W        W64682  41.459   3.932   2.274
 5147W        W64683  13.727  42.830   0.414
 5148W        W64684  16.808   5.824  14.296
 5149W        W64685  18.597   5.277  10.463
 5150W        W64686  17.798  30.922  12.051
 5151W        W64687  36.418  34.109  12.048
 5152W        W64688  26.550   6.215  11.555
 5153W        W64689  40.515   4.756  12.823
 5154W        W64690  18.691  12.735   9.930
 5155W        W64691  27.524  23.159   4.760
 5156W        W64692  38.044  19.768   0.742
 5157W        W64693  30.139   5.337   3.709
 5158W        W64694  24.579  38.057  10.897
 5159W        W64695  29.922  37.498  10.528
 5160W        W64696   6.807  37.039   0.451
 5161W        W64697   1.348  31.092   1.905
 5162W        W64698  27.651  14.645  11.911
 5163W        W64699  17.796  19.663   3.652
 5164W        W64700  21.192  21.099  14.808
 5165W        W64701  19.195  26.604  11.947
 5166W        W64702  32.622  18.587   4.817
 5167W        W64703  43.346  37.913  11.106
 5168W        W64704   4.751  16.606   9.993
 5169W        W64705   5.216  19.608   4.159
 5170W        W64706   8.393   5.926  14.845
 5171W        W64707   4.887  44.950  14.943
 5172W        W64708  14.785  18.557   0.291
 5173W        W64709  29.921  10.747   1.701
 5174W        W64710  24.198  39.929  10.538
 5175W        W64711  12.271   6.190   2.190
 5176W        W64712   4.745  25.512   2.409
 5177W        W64713  38.560  42.844   1.781
 5178W        W64714  24.566  22.054   1.770
 5179W        W64715  17.587  34.401  14.411
 5180W        W64716   3.344  40.922  13.885
 5181W        W64717  40.456  29.163   3.775
 5182W        W64718  36.591  17.735   4.326
 5183W        W64719  11.208   7.695  12.886
 5184W        W64720  43.968  11.649  12.966
 5185W        W64721   6.852  31.456  11.004
 5186W        W64722  41.799   2.339  13.532
 5187W        W64723   7.864  13.270   0.785
 5188W        W64724   7.245  26.579  14.991
 5189W        W64725  13.340  38.480  13.325
 5190W        W64726  28.605  39.338  14.935
 5191W        W64727  41.516  24.715  13.040
 5192W        W64728   0.853  16.249  11.547
 5193W        W64729  39.022  31.907   2.685
 5194W        W64730  29.639  27.576  14.867
 5195W        W64731  37.577  39.516  11.075
 5196W        W64732  31.984  15.114  11.542
 5197W        W64733  44.407  14.231  13.473
 5198W        W64734  41.803   0.308  14.314
 5199W        W64735  10.253  36.098  14.510
 5200W        W64736  14.320  18.278   3.799
 5201W        W64737   1.756  12.154   4.816
 5202W        W64738   9.212  33.108  12.045
 5203W        W64739   9.313  31.462  12.985
 5204W        W64740  42.430  26.033  14.438
 5205W        W64741  18.206   6.417   3.633
 5206W        W64742  10.748  29.088  12.483
 5207W        W64743  31.052  10.306   5.273
 5208W        W64744  25.013  26.102   4.621
 5209W        W64745  41.298  14.310  14.944
 5210W        W64746  28.603  21.242  12.545
 5211W        W64747  22.129  16.761   3.652
 5212W        W64748  14.250  34.095   0.367
 5213W        W64749  35.363  25.533   3.310
 5214W        W64750   9.656   7.294   9.604
 5215W        W64751  12.613  35.056  13.830
 5216W        W64752  39.342  15.194   3.641
 5217W        W64753  19.670  41.418  12.857
 5218W        W64754  32.986  12.180  14.863
 5219W        W64755  28.671  32.943   1.846
 5220W        W64756   2.430  39.863   4.236
 5221W        W64757  43.015  40.944  13.899
 5222W        W64758  31.980  31.130   0.440
 5223W        W64759   7.230  29.973  12.084
 5224W        W64760  43.461  15.595   1.734
 5225W        W64761  34.420  22.076  14.443
 5226W        W64762  13.303  38.956  14.476
 5227W        W64763  41.298  21.630   0.418
 5228W        W64764   2.721  39.501   4.193
 5229W        W64765  25.980  36.407   0.252
 5230W        W64766  14.264  18.154   1.261
 5231W        W64767  27.069  13.229   1.927
 5232W        W64768  25.691  28.464   4.707
 5233W        W64769  44.988  36.020  14.954
 5234W        W64770  26.170  41.487  10.622
 5235W        W64771   5.290   7.411  12.503
 5236W        W64772  33.082  29.150  12.922
 5237W        W64773   1.442  20.547   1.370
 5238W        W64774   4.708  13.330   4.296
 5239W        W64775  19.709   0.304   4.145
 5240W        W64776  40.370  27.087   4.618
 5241W        W64777  42.365  34.442   0.243
 5242W        W64778  19.733  39.378  12.987
 5243W        W64779  11.798  40.324   4.142
 5244W        W64780  39.023  13.351   0.909
 5245W        W64781  20.592  34.060  14.012
 5246W        W64782  42.406  10.211  11.594
 5247W        W64783  34.425  41.491  12.945
 5248W        W64784   0.854  14.331  13.904
 5249W        W64785  37.072  27.193  12.463
 5250W        W64786   5.765  37.965  11.968
 5251W        W64787  32.625  29.106  12.468
 5252W        W64788  12.651  39.354  13.846
 5253W        W64789  15.805   5.730   3.366
 5254W        W64790   2.325   8.244  14.931
 5255W        W64791  41.315  21.131   3.195
 5256W        W64792  44.383   2.742  11.891
 5257W        W64793  40.508   5.273   3.825
 5258W        W64794  40.876  14.239   1.416
 5259W        W64795   3.908  30.935   2.844
 5260W        W64796  39.995  26.534  12.406
 5261W        W64797  31.078  36.019  13.510
 5262W        W64798  42.846   2.787  14.493
 5263W        W64799   8.752  14.310   1.777
 5264W        W64800  33.468  27.627  12.925
 5265W        W64801  29.142  40.391   1.296
 5266W        W64802  44.369  30.587  14.915
 5267W        W64803  28.630  30.042   2.688
 5268W        W64804  42.862  32.917  12.391
 5269W        W64805   3.916  37.882  13.957
 5270W        W64806   2.420  14.683   1.355
 5271W        W64807  40.874  22.066  14.759
 5272W        W64808  42.792   5.258   1.341
 5273W        W64809   9.330  27.675   3.319
 5274W        W64810  16.106  31.618   4.644
 5275W        W64811  21.680  37.892   2.276
 5276W        W64812  20.572   9.829   1.766
 5277W        W64813   0.302  34.388   4.338
 5278W        W64814   5.418   4.785  13.974
 5279W        W64815  29.020  35.893   4.637
 5280W        W64816  20.569  41.305   4.246
 5281W        W64817  28.484   9.768   1.414
 5282W        W64818   3.298  19.245  14.937
 5283W        W64819  34.402   4.404   2.809
 5284W        W64820  23.690  23.585   0.463
 5285W        W64821   3.912  27.513   0.441
 5286W        W64822  33.404  15.682  10.967
 5287W        W64823  15.727  17.153   1.257
 5288W        W64824  34.543   8.660   0.748
 5289W        W64825  44.378  12.135   2.858
 5290W        W64826  22.565   4.319  13.521
 5291W        W64827  21.716  39.375  13.474
 5292W        W64828   1.859  28.649   2.309
 5293W        W64829  30.056   1.331   3.310
 5294W        W64830   2.939  29.081   5.575
 5295W        W64831  34.395  41.408   2.708
 5296W        W64832  27.034  29.135  11.392
 5297W        W64833   2.462   2.431  13.035
 5298W        W64834  24.124  28.126   3.735
 5299W        W64835  14.783  41.512   0.297
 5300W        W64836   4.265  33.437  11.096
 5301W        W64837  33.938  35.014  12.578
 5302W        W64838  44.972  43.000   4.808
 5303W        W64839  40.018   1.827  13.001
 5304W        W64840  43.765  32.456   2.292
 5305W        W64841   7.390  10.289  11.413
 5306W        W64842   6.853  14.744  11.434
 5307W        W64843  43.970   4.214  11.029
 5308W        W64844  29.463  43.913  11.587
 5309W        W64845  14.133   3.282   3.651
 5310W        W64846  40.352  16.646   2.776
 5311W        W64847   7.666  33.956  13.540
 5312W        W64848  12.781  42.473  12.006
 5313W        W64849  21.574   8.245   3.155
 5314W        W64850  18.547  17.665   0.857
 5315W        W64851   8.682  24.611  13.017
 5316W        W64852  33.048  22.542   4.260
 5317W        W64853  37.869  22.601   1.308
 5318W        W64854  44.801  32.085  13.958
 5319W        W64855   0.449  29.622   4.200
 5320W        W64856   2.448  13.336  14.512
 5321W        W64857  28.667  17.561   2.854
 5322W        W64858  43.468  43.330   3.198
 5323W        W64859  14.733  19.632  11.381
 5324W        W64860  28.640  44.843   0.297
 5325W        W64861  14.680  19.202  10.083
 5326W        W64862  17.258  40.321   2.201
 5327W        W64863  10.745   0.777  12.537
 5328W        W64864  15.759  32.101  14.801
 5329W        W64865  29.613  28.435  13.032
 5330W        W64866  22.643  31.605   1.415
 5331W        W64867  38.960   2.912   4.691
 5332W        W64868  13.175  23.207   1.927
 5333W        W64869  29.034   9.373  10.645
 5334W        W64870  22.516   0.905   0.463
 5335W        W64871  33.396  39.035   4.262
 5336W        W64872  32.982  12.720   3.238
 5337W        W64873   4.706  36.909  12.342
 5338W        W64874   1.927  25.684  12.066
 5339W        W64875  27.603   1.955   2.767
 5340W        W64876  41.340  32.991  13.868
 5341W        W64877  27.189  31.544  11.467
 5342W        W64878  17.269  38.949   4.600
 5343W        W64879  10.875  34.932  10.618
 5344W        W64880  36.846  39.046  11.579
 5345W        W64881   2.242  29.155  11.492
 5346W        W64882  16.789  29.442   4.237
 5347W        W64883  36.872  21.122   3.800
 5348W        W64884  31.566  10.189   3.756
 5349W        W64885  23.596  40.826   4.817
 5350W        W64886  15.192   3.418  13.429
 5351W        W64887  14.318   9.239   0.902
 5352W        W64888  32.113  40.983   1.898
 5353W        W64889   0.275  26.010   2.320
 5354W        W64890  40.898  10.367  13.449
 5355W        W64891  39.066  23.502  12.415
 5356W        W64892  13.132  24.606  13.968
 5357W        W64893  19.246  26.609  10.094
 5358W        W64894  31.544  13.769   4.705
 5359W        W64895  44.357  29.490   3.753
 5360W        W64896  41.915  32.106   9.973
 5361W        W64897  10.213  43.907  13.537
 5362W        W64898  16.261  32.104  10.028
 5363W        W64899  24.684  26.475   3.352
 5364W        W64900  23.227  11.786  13.804
 5365W        W64901  37.359  34.508   1.800
 5366W        W64902   0.808  42.779   1.416
 5367W        W64903  10.821  31.992  13.334
 5368W        W64904  27.101  14.237   2.350
 5369W        W64905  26.540   3.718   2.769
 5370W        W64906  36.863   1.950  13.020
 5371W        W64907  14.237  32.919   1.919
 5372W        W64908  26.658  26.591  13.440
 5373W        W64909  13.255  40.515   5.087
 5374W        W64910  43.882  19.134  11.590
 5375W        W64911  29.513   5.711   1.395
 5376W        W64912  34.983  37.862   0.391
 5377W        W64913  19.570   2.930   2.362
 5378W        W64914  22.100  20.089  12.014
 5379W        W64915   0.857  16.780  12.413
 5380W        W64916  27.547  13.266  12.835
 5381W        W64917  26.127  16.079  14.821
 5382W        W64918   4.223  13.660  13.448
 5383W        W64919  18.273  14.772  12.847
 5384W        W64920  21.243  30.911   4.307
 5385W        W64921   8.779  41.888   3.219
 5386W        W64922  32.620  32.519  11.535
 5387W        W64923  24.633  15.634  14.934
 5388W        W64924  27.049  33.421  13.337
 5389W        W64925  19.254   5.239  12.070
 5390W        W64926   1.269  42.520   3.186
 5391W        W64927   6.859  10.651  14.483
 5392W        W64928   9.191  35.881   3.217
 5393W        W64929  36.957  37.909   3.294
 5394W        W64930  20.584  28.452  11.960
 5395W        W64931  17.697  32.582   0.918
 5396W        W64932   0.478  19.229  13.345
 5397W        W64933  35.400   3.384  13.324
 5398W        W64934  37.441  12.354   0.478
 5399W        W64935   2.832  32.027   9.975
 5400W        W64936  27.059   3.714  14.808
 5401W        W64937   0.877  42.323   1.726
 5402W        W64938  14.734   7.912   4.121
 5403W        W64939  15.629  11.855  10.948
 5404W        W64940   8.179  12.613   1.697
 5405W        W64941  38.423  27.631  11.029
 5406W        W64942   0.755  36.863  11.425
 5407W        W64943   4.205   6.842   2.778
 5408W        W64944  42.517  28.505   3.770
 5409W        W64945  13.149  13.305   3.759
 5410W        W64946  37.404  36.486  13.038
 5411W        W64947  19.067  37.963   1.809
 5412W        W64948  33.403  19.090  11.072
 5413W        W64949  36.406  44.275  12.435
 5414W        W64950  15.196  41.409   4.736
 5415W        W64951  15.743   2.368  13.491
 5416W        W64952  13.184  17.272   1.785
 5417W        W64953  25.484  30.552   2.886
 5418W        W64954  32.081  26.492  11.877
 5419W        W64955  20.256  27.051   2.244
 5420W        W64956  39.950   3.711  12.995
 5421W        W64957  28.165  39.524  13.402
 5422W        W64958   3.318  35.037   1.214
 5423W        W64959  37.524  30.563   1.699
 5424W        W64960  27.132  24.053  11.593
 5425W        W64961  13.716   9.649   4.187
 5426W        W64962   7.721  13.198  14.442
 5427W        W64963   0.455  40.315  14.303
 5428W        W64964  37.424  43.473  14.476
 5429W        W64965   1.279  26.676   1.767
 5430W        W64966  34.407  39.812  10.968
 5431W        W64967  31.977  13.712   3.168
 5432W        W64968  40.503  33.617   1.775
 5433W        W64969  20.136  33.397  11.013
 5434W        W64970   3.809  40.447   2.692
 5435W        W64971   0.251   2.309   1.862
 5436W        W64972  22.646  39.402   0.446
 5437W        W64973  32.571  21.114  11.079
 5438W        W64974  31.959  26.626   2.239
 5439W        W64975  42.869  23.656   1.399
 5440W        W64976   8.737  27.962   2.387
 5441W        W64977  18.601  36.975  11.958
 5442W        W64978  44.861  36.557  12.873
 5443W        W64979  42.310  16.311  11.915
 5444W        W64980  17.627  26.057  10.544
 5445W        W64981  39.463  20.268   4.290
 5446W        W64982  39.534   1.766  13.916
 5447W        W64983  25.011  41.796   0.968
 5448W        W64984  30.651  41.788   2.794
 5449W        W64985  24.702  15.603   0.390
 5450W        W64986  25.971  37.934   2.253
 5451W        W64987  34.559  32.449  14.019
 5452W        W64988   9.374  36.873   4.662
 5453W        W64989   0.804  20.654  13.459
 5454W        W64990  41.837  27.561   2.358
 5455W        W64991  31.951  35.494  12.537
 5456W        W64992  24.170   6.914   5.170
 5457W        W64993  26.642  29.579  11.057
 5458W        W64994  23.588  30.630  12.824
 5459W        W64995   7.182  27.683   2.368
 5460W        W64996  23.736  10.265  14.401
 5461W        W64997  19.099   1.896  12.983
 5462W        W64998   4.725  43.352   2.238
 5463W        W64999   2.275  13.645   1.293
 5464W        W65000  41.529  17.074   1.244
 5465W        W65001  28.111  43.393  13.001
 5466W        W65002  34.074   8.262   1.267
 5467W        W65003   3.777  18.054  13.890
 5468W        W65004  11.344  32.137   2.751
 5469W        W65005  24.145  27.096   1.255
 5470W        W65006  20.524  14.589   0.458
 5471W        W65007   2.393  12.627   1.227
 5472W        W65008  38.386   4.321  11.919
 5473W        W65009  35.588  33.507  14.840
 5474W        W65010   1.736   1.428  13.836
 5475W        W65011   3.363  26.657   4.678
 5476W        W65012  31.901  32.419   0.314
 5477W        W65013  39.504  16.223  14.397
 5478W        W65014  12.841  42.428  11.512
 5479W        W65015   8.227  36.931   1.908
 5480W        W65016  37.481  16.707   3.820
 5481W        W65017   1.476   9.785   2.881
 5482W        W65018  25.964  29.462  14.772
 5483W        W65019  12.663  38.935   4.187
 5484W        W65020  13.831  35.980   2.855
 5485W        W65021   5.282  44.264  11.046
 5486W        W65022  23.106   0.827  13.348
 5487W        W65023  36.396  38.052  13.988
 5488W        W65024  31.148   2.396  12.472
 5489W        W65025  25.520  16.138  11.410
 5490W        W65026   3.267  43.489  13.930
 5491W        W65027  18.641   6.730   1.896
 5492W        W65028  16.719  38.918   3.860
 5493W        W65029   1.815  40.412   4.828
 5494W        W65030   2.434  21.105  10.975
 5495W        W65031  24.994   0.453  10.641
 5496W        W65032  22.129  20.161   4.605
 5497W        W65033  14.166  27.484   4.692
 5498W        W65034  20.205  17.774   2.193
 5499W        W65035  13.843  42.333   0.902
 5500W        W65036  15.687   7.286  12.067
 5501W        W65037  36.960  19.711  12.436
 5502W        W65038   1.276  36.976   3.814
 5503W        W65039   7.360  32.071  10.940
 5504W        W65040   8.689  28.493   0.838
 5505W        W65041   6.798   8.706   1.230
 5506W        W65042  10.383   8.694  13.886
 5507W        W65043  12.712  41.899   3.165
 5508W        W65044  18.132  39.518  12.564
 5509W        W65045  35.033  25.151   1.369
 5510W        W65046  42.347   2.850  12.937
 5511W        W65047  13.326  32.955  11.862
 5512W        W65048  43.936  17.186   2.365
 5513W        W65049   9.270  12.170  14.967
 5514W        W65050   5.799   9.810   0.727
 5515W        W65051  37.359  25.472   0.952
 5516W        W65052  34.382  22.706   2.711
 5517W        W65053   6.275   2.956   0.907
 5518W        W65054  18.752  30.438  14.016
 5519W        W65055  18.122   5.889   1.785
 5520W        W65056   2.341  15.652  11.557
 5521W        W65057  29.972  43.942  11.600
 5522W        W65058   5.799  20.638  10.407
 5523W        W65059  19.566  35.507   4.251
 5524W        W65060  35.405  41.931   0.882
 5525W        W65061   3.354  36.912   1.215
 5526W        W65062  15.113   7.812  13.427
 5527W        W65063  15.135   1.357  14.467
 5528W        W65064   1.370  13.301   4.825
 5529W        W65065  13.121  37.006   2.836
 5530W        W65066  36.887  30.482   0.813
 5531W        W65067   4.929  27.691   2.220
 5532W        W65068  40.028  14.277  12.344
 5533W        W65069  15.791  26.649  12.375
 5534W        W65070  14.619  37.418  11.431
 5535W        W65071  31.626  19.280  12.884
 5536W        W65072  19.273  30.046   2.300
 5537W        W65073  18.209  27.063  14.798
 5538W        W65074   0.949  32.081   0.288
 5539W        W65075  41.338   0.856  14.972
 5540W        W65076  44.866  26.515  12.531
 5541W        W65077  39.033  20.044  13.511
 5542W        W65078  30.022  21.238  14.345
 5543W        W65079  35.413  25.513   2.410
 5544W        W65080   0.356   2.881   2.198
 5545W        W65081   1.333  28.650  10.449
 5546W        W65082  14.783  23.138   9.603
 5547W        W65083  44.774  28.104  12.420
 5548W        W65084  20.110   6.883  10.601
 5549W        W65085  24.143  25.504   2.779
 5550W        W65086   2.871  24.722   3.654
 5551W        W65087  22.703  16.311   2.196
 5552W        W65088  28.166  12.332   3.233
 5553W        W65089   5.257  35.990   2.413
 5554W        W65090  18.220  18.061  12.952
 5555W        W65091  16.103  16.639   1.747
 5556W        W65092  16.754  39.839  14.776
 5557W        W65093   0.935  29.060   3.675
 5558W        W65094  39.366  34.510  12.078
 5559W        W65095   5.883   1.790   4.738
 5560W        W65096  14.715  33.902   3.246
 5561W        W65097  24.978  31.953  11.032
 5562W        W65098  17.740  26.668   0.844
 5563W        W65099  28.650  22.531   0.744
 5564W        W65100  39.352  40.464  13.817
 5565W        W65101  23.701  37.948  13.519
 5566W        W65102   8.301   7.303  13.487
 5567W        W65103  39.384  43.390  13.838
 5568W        W65104  18.055  26.567  11.124
 5569W        W65105   8.666  19.576   3.731
 5570W        W65106  24.618  37.577  13.448
 5571W        W65107  38.050  38.420   0.384
 5572W        W65108  41.453   9.746  11.477
 5573W        W65109   2.927  11.129   3.683
 5574W        W65110  34.371  10.273   3.183
 5575W        W65111   9.683  32.909   4.211
 5576W        W65112  38.343  39.974  12.989
 5577W        W65113  16.303  26.585   4.154
 5578W        W65114   0.989   0.938   4.148
 5579W        W65115  29.047  26.594   0.728
 5580W        W65116  13.799  32.056   2.850
 5581W        W65117  44.468  33.512   4.139
 5582W        W65118  28.983  15.231   2.842
 5583W        W65119   5.736   8.199   2.833
 5584W        W65120  16.273   2.820  13.935
 5585W        W65121   1.807  15.183   3.359
 5586W        W65122  23.616  25.647  12.021
 5587W        W65123  31.899  12.654  13.983
 5588W        W65124   7.828  36.920   4.678
 5589W        W65125  12.182  29.486  14.424
 5590W        W65126  17.166   5.771  12.552
 5591W        W65127   4.295  19.751  12.933
 5592W        W65128  36.044   8.250  14.392
 5593W        W65129  20.542   5.284  13.509
 5594W        W65130  16.583  28.520   4.707
 5595W        W65131   7.757  28.041  11.601
 5596W        W65132  24.091  29.143   2.248
 5597W        W65133   4.726   7.183  14.850
 5598W        W65134  29.630   4.764  14.453
 5599W        W65135  16.738  32.595   1.707
 5600W        W65136  18.183  39.439   3.721
 5601W        W65137  35.879  29.645   4.352
 5602W        W65138   9.267  33.569  12.925
 5603W        W65139  29.127  21.257  12.533
 5604W        W65140  30.641  36.974  10.906
 5605W        W65141  13.678  14.260  14.814
 5606W        W65142   9.749  25.707   1.735
 5607W        W65143  25.083  42.021   5.233
 5608W        W65144   2.415  22.217   5.192
 5609W        W65145  35.417   2.402   2.681
 5610W        W65146  30.147  24.042   0.349
 5611W        W65147  33.626   1.325  10.925
 5612W        W65148  40.340   8.230  13.502
 5613W        W65149  15.692  22.742   5.228
 5614W        W65150  27.517  11.647   4.734
 5615W        W65151  44.354  20.534   4.329
 5616W        W65152  25.107   8.763   4.173
 5617W        W65153  33.470  17.165  11.431
 5618W        W65154  25.489  43.827  11.972
 5619W        W65155  13.684  37.009   4.690
 5620W        W65156  36.381  28.519  12.828
 5621W        W65157  13.208  11.653   2.893
 5622W        W65158  37.448   8.395  11.901
 5623W        W65159  28.984   2.792  11.545
 5624W        W65160   6.693  36.925   1.380
 5625W        W65161  35.929  42.350  11.587
 5626W        W65162  26.552   3.890   3.869
 5627W        W65163  25.020  25.559  14.831
 5628W        W65164  12.241  23.714  11.397
 5629W        W65165  36.514   6.338   1.316
 5630W        W65166  12.751  39.463   2.791
 5631W        W65167  16.216   6.731  10.449
 5632W        W65168  32.416  26.996  14.328
 5633W        W65169  20.264  40.532   0.417
 5634W        W65170  35.096   3.730   2.287
 5635W        W65171  12.132  32.894   1.922
 5636W        W65172   0.334  28.929  12.500
 5637W        W65173  32.992  23.593  12.570
 5638W        W65174  10.249  28.046  12.005
 5639W        W65175  20.161  18.254   4.239
 5640W        W65176  44.468  14.102  14.495
 5641W        W65177  44.898  27.612  14.874
 5642W        W65178  37.922  16.610   2.183
 5643W        W65179   1.899  23.238  13.386
 5644W        W65180  12.169  26.485  14.876
 5645W        W65181  12.354   8.772  12.952
 5646W        W65182  20.724  10.644   3.198
 5647W        W65183  11.224  43.464  11.501
 5648W        W65184  28.012  24.993   1.723
 5649W        W65185  39.837  34.606  12.439
 5650W        W65186  43.502   2.279   2.737
 5651W        W65187   7.887  11.320  12.421
 5652W        W65188  28.444  10.696   2.278
 5653W        W65189  11.625   9.681   4.352
 5654W        W65190  25.026  32.398  14.802
 5655W        W65191  12.733   6.314   5.620
 5656W        W65192  40.422   4.236  12.048
 5657W        W65193   4.769  11.795  12.464
 5658W        W65194  37.385   8.305  12.553
 5659W        W65195  14.303  18.564   3.672
 5660W        W65196  34.026   2.940   5.790
 5661W        W65197   3.930   7.390  13.960
 5662W        W65198  25.115  38.434  13.867
 5663W        W65199  39.420  18.624  11.999
 5664W        W65200  29.440   6.334  12.846
 5665W        W65201  36.098  25.135  11.030
 5666W        W65202  25.577   2.275  12.926
 5667W        W65203   9.710  14.668   2.777
 5668W        W65204   5.413  28.115  10.935
 5669W        W65205  37.941   4.713  10.579
 5670W        W65206  23.497  13.714   0.735
 5671W        W65207  12.150   7.733  10.578
 5672W        W65208  35.915   7.179  11.400
 5673W        W65209   8.318  27.953   1.396
 5674W        W65210  42.327  32.585   2.292
 5675W        W65211  18.784   3.358  13.038
 5676W        W65212  38.055  24.180  14.361
 5677W        W65213  20.589  44.282  12.395
 5678W        W65214  16.601  12.821   0.938
 5679W        W65215  25.671  10.377  12.471
 5680W        W65216   0.301   4.435   4.649
 5681W        W65217  35.436  10.325   0.464
 5682W        W65218  11.267  15.311   0.869
 5683W        W65219   8.715  12.225   2.878
 5684W        W65220   4.791  23.688   0.398
 5685W        W65221  27.470  44.309   0.302
 5686W        W65222  41.861  18.742  12.006
 5687W        W65223  15.691   0.976   3.679
 5688W        W65224  38.017  17.672  11.612
 5689W        W65225  29.583  21.064   1.335
 5690W        W65226  19.553  29.596  10.565
 5691W        W65227  11.764  20.581   2.395
 5692W        W65228  21.079  41.379  13.934
 5693W        W65229  37.992  22.023  11.426
 5694W        W65230  11.219   0.468  14.354
 5695W        W65231  41.857  41.890   1.244
 5696W        W65232   3.857  29.630   4.261
 5697W        W65233  19.662  37.382   5.119
 5698W        W65234  20.646  13.222   0.818
 5699W        W65235  14.764   0.458  12.017
 5700W        W65236   0.439  41.397   2.871
 5701W        W65237  15.780  24.159  10.487
 5702W        W65238  17.645  23.577  11.553
 5703W        W65239  34.096  33.496   4.116
 5704W        W65240   2.861   8.265  13.364
 5705W        W65241  30.060  20.226  14.800
 5706W        W65242  28.479  16.245   3.212
 5707W        W65243  17.734   8.748  12.373
 5708W        W65244  37.457  40.522   2.663
 5709W        W65245  24.534  26.508  14.332
 5710W        W65246  26.695  10.221  11.097
 5711W        W65247  38.447  11.186   4.245
 5712W        W65248  41.913  27.497  11.056
 5713W        W65249  32.142  26.697   9.522
 5714W        W65250  28.437  33.101  12.996
 5715W        W65251  15.141  32.138  10.435
 5716W        W65252  28.028   7.227   0.434
 5717W        W65253  38.071  29.573   1.838
 5718W        W65254  44.416   9.739  14.759
 5719W        W65255  39.460  16.627   2.333
 5720W        W65256  29.595  18.200   4.645
 5721W        W65257  39.527   4.760   0.887
 5722W        W65258   0.840  10.793   1.801
 5723W        W65259  21.200  19.209   2.807
 5724W        W65260  31.896  15.210   1.717
 5725W        W65261  29.949  38.070  13.827
 5726W        W65262  12.148  13.701  14.955
 5727W        W65263  15.676  19.169   2.875
 5728W        W65264  11.853  37.012  11.036
 5729W        W65265  18.651   6.700  13.868
 5730W        W65266  41.009  27.604  14.899
 5731W        W65267  24.576  32.130   0.299
 5732W        W65268  19.236  32.432  12.479
 5733W        W65269  22.119  30.544  12.907
 5734W        W65270  16.751   0.399   2.195
 5735W        W65271  15.102  27.631   1.879
 5736W        W65272   0.252  44.898   2.253
 5737W        W65273   5.799  22.515  13.366
 5738W        W65274  10.800   4.937  14.489
 5739W        W65275  30.599   1.760   1.341
 5740W        W65276  27.156  21.596   4.605
 5741W        W65277  20.156  23.181   1.725
 5742W        W65278  13.625   0.273  13.505
 5743W        W65279   5.200  27.058  10.484
 5744W        W65280  18.564   5.422  14.380
 5745W        W65281  38.533  30.163  10.452
 5746W        W65282  44.779  39.968  11.578
 5747W        W65283   7.325   0.764  13.886
 5748W        W65284  11.665  35.882   3.673
 5749W        W65285  34.904  28.448  11.561
 5750W        W65286  28.933  30.923   0.478
 5751W        W65287   7.874   0.254   3.730
 5752W        W65288   8.772  17.218   2.388
 5753W        W65289   5.743  26.118   4.614
 5754W        W65290  13.711  24.574  11.562
 5755W        W65291  16.764  26.132   2.814
 5756W        W65292   9.376  40.450  13.003
 5757W        W65293  34.561  11.344   0.756
 5758W        W65294  41.866   7.355  14.863
 5759W        W65295  39.496  11.320  14.905
 5760W        W65296  23.128  25.025  10.973
 5761W        W65297  37.919  24.675  14.363
 5762W        W65298  33.597   4.920  14.850
 5763W        W65299   4.783  26.649   0.812
 5764W        W65300  33.984  27.616  13.903
 5765W        W65301  24.625  44.358  11.506
 5766W        W65302  12.838  43.381  14.974
 5767W        W65303  40.546  28.492   2.797
 5768W        W65304  13.345  43.351   1.220
 5769W        W65305  11.291  33.044  12.939
 5770W        W65306  30.492  42.463  13.888
 5771W        W65307  14.182   3.237   0.898
 5772W        W65308  42.953  15.142   4.341
 5773W        W65309  35.536  12.135   2.899
 5774W        W65310  18.720  26.585  12.485
 5775W        W65311  32.511   0.324   3.217
 5776W        W65312   9.824  42.491  12.914
 5777W        W65313  35.056   1.427   0.940
 5778W        W65314  28.681  11.837  14.320
 5779W        W65315  23.145   0.380  10.556
 5780W        W65316   5.336  30.001   3.684
 5781W        W65317  25.996  38.956  12.079
 5782W        W65318  22.736  32.079  11.109
 5783W        W65319  39.560   7.734   0.427
 5784W        W65320  28.032  25.692   4.640
 5785W        W65321  39.334   3.315  11.129
 5786W        W65322  44.982  12.836  12.554
 5787W        W65323  40.996   0.848   0.832
 5788W        W65324   4.806   8.227  11.519
 5789W        W65325   4.342   3.335   0.856
 5790W        W65326   7.176   6.877  13.511
 5791W        W65327  31.629  23.645   3.853
 5792W        W65328  42.865  32.526   3.337
 5793W        W65329  32.597  25.625   0.892
 5794W        W65330  22.129  23.557  14.320
 5795W        W65331  20.219   8.294   4.132
 5796W        W65332  40.918  43.447  10.949
 5797W        W65333  30.631  20.527   3.347
 5798W        W65334  39.967  31.647   4.601
 5799W        W65335   4.354  17.723   0.318
 5800W        W65336  10.676   8.716  10.623
 5801W        W65337  42.497  19.690  14.306
 5802W        W65338  25.542  28.084  14.316
 5803W        W65339  35.937  30.584  14.892
 5804W        W65340  32.922  36.869  11.465
 5805W        W65341  34.395  30.997   4.336
 5806W        W65342  12.639   7.811  11.977
 5807W        W65343  22.149  43.906   3.182
 5808W        W65344   0.929   0.897  14.905
 5809W        W65345  31.496  35.360   1.406
 5810W        W65346   3.926  29.615   0.793
 5811W        W65347  40.542  11.866  14.934
 5812W        W65348  31.493  43.997   4.642
 5813W        W65349  27.690  42.501   3.274
 5814W        W65350  10.231  18.558   4.329
 5815W        W65351  31.903   3.951   3.722
 5816W        W65352  18.158  44.399   1.711
 5817W        W65353  31.038   5.808  12.080
 5818W        W65354  24.106  33.603  13.361
 5819W        W65355  41.024  11.359   1.816
 5820W        W65356  18.649  21.721  14.318
 5821W        W65357  19.730   2.737  12.948
 5822W        W65358   2.891  24.700  13.984
 5823W        W65359  30.986  43.012   5.287
 5824W        W65360  12.187  37.444   0.858
 5825W        W65361   0.914   4.782  12.961
 5826W        W65362  18.122  19.221   4.345
 5827W        W65363  37.422  15.147   1.700
 5828W        W65364  40.988  36.865  14.494
 5829W        W65365  36.918  33.464   0.329
 5830W        W65366  44.910  13.782  12.399
 5831W        W65367  16.654  28.001   3.387
 5832W        W65368  38.852  29.956  14.503
 5833W        W65369  42.469  43.826   2.187
 5834W        W65370  39.383   1.931   3.820
 5835W        W65371  10.201  39.887  13.913
 5836W        W65372   3.395  38.972  13.319
 5837W        W65373  39.503  15.693  11.571
 5838W        W65374  13.623  15.142   1.319
 5839W        W65375  20.211  42.473  11.041
 5840W        W65376  29.079  13.139   1.341
 5841W        W65377  39.892  13.738  13.980
 5842W        W65378  19.677  25.970   1.389
 5843W        W65379  24.488  31.493   0.362
 5844W        W65380  37.033  31.974  11.127
 5845W        W65381  27.483  20.058   3.378
 5846W        W65382  43.347  28.081   3.813
 5847W        W65383  34.409  17.711   1.332
 5848W        W65384  30.953  18.280   4.815
 5849W        W65385  35.921  15.721   3.261
 5850W        W65386  17.100  10.778   3.216
 5851W        W65387  22.561  39.327   3.835
 5852W        W65388  21.135   7.330   5.227
 5853W        W65389   2.309  35.878  10.114
 5854W        W65390  37.412   3.228   3.669
 5855W        W65391  35.853  28.949  10.626
 5856W        W65392   4.218  20.058  11.387
 5857W        W65393  40.361  28.506   3.207
 5858W        W65394   6.373  38.972   3.203
 5859W        W65395   3.891  39.474   2.806
 5860W        W65396  27.535  14.639  12.472
 5861W        W65397  35.588  44.895  14.984
 5862W        W65398  37.899  41.889  11.083
 5863W        W65399  31.005  21.083  14.777
 5864W        W65400   0.874  31.496  12.517
 5865W        W65401  14.753  43.957  13.869
 5866W        W65402  15.739  19.176  13.353
 5867W        W65403  44.920  25.079  13.856
 5868W        W65404  11.703  23.578  10.510
 5869W        W65405  23.733  32.067  13.903
 5870W        W65406   7.368  38.002   1.429
 5871W        W65407  31.598  20.643   2.884
 5872W        W65408  12.836  14.216   4.646
 5873W        W65409  17.082   6.288  11.078
 5874W        W65410  15.624  30.431  10.902
 5875W        W65411  31.964  28.499   0.750
 5876W        W65412  42.880  24.554  12.926
 5877W        W65413  32.009  42.998   4.692
 5878W        W65414  30.620  44.342  14.944
 5879W        W65415  32.943   4.426   4.148
 5880W        W65416  41.461  16.743   3.698
 5881W        W65417  30.600  27.942  12.835
 5882W        W65418  43.439  33.494  11.980
 5883W        W65419  37.969  14.762   4.331
 5884W        W65420  18.765  20.750   1.336
 5885W        W65421  39.823   2.374   1.750
 5886W        W65422  37.066  19.140   1.436
 5887W        W65423  28.636  19.543   0.451
 5888W        W65424  39.037   2.795   3.258
 5889W        W65425  42.375  25.470   0.285
 5890W        W65426  34.013   2.728   2.260
 5891W        W65427  29.537  19.086  12.456
 5892W        W65428   2.790  35.597  14.821
 5893W        W65429   8.672  14.219  14.389
 5894W        W65430   0.975  34.582   3.195
 5895W        W65431  25.709   8.760   0.432
 5896W        W65432  30.526  23.510  11.010
 5897W        W65433  35.548  16.638  14.501
 5898W        W65434   2.849  27.478  13.502
 5899W        W65435  25.059  11.704  12.966
 5900W        W65436  32.475  22.640   3.865
 5901W        W65437   4.301  13.168   2.240
 5902W        W65438   2.908  11.232   2.242
 5903W        W65439  18.114  43.367   2.866
 5904W        W65440  12.247  21.666  12.907
 5905W        W65441   4.276  12.751  14.902
 5906W        W65442  43.501  28.114   2.702
 5907W        W65443   8.232  31.616   0.372
 5908W        W65444   3.334  24.578   2.799
 5909W        W65445   8.200   6.767   5.267
 5910W        W65446  30.464  29.670  13.816
 5911W        W65447  18.054  42.509  12.497
 5912W        W65448   3.390  17.076  14.003
 5913W        W65449  28.054  10.283   5.169
 5914W        W65450  11.171  37.575  12.553
 5915W        W65451  38.884  43.381  13.948
 5916W        W65452  37.492  14.140   4.183
 5917W        W65453   3.218   7.355   1.878
 5918W        W65454  35.437  26.962   3.225
 5919W        W65455  26.505  31.136   1.404
 5920W        W65456  34.542  23.731  10.606
 5921W        W65457   4.895  25.071  10.494
 5922W        W65458  33.979  43.950   2.812
 5923W        W65459  34.883   7.769   0.277
 5924W        W65460   4.406  41.883  10.472
 5925W        W65461  43.860  34.592   1.393
 5926W        W65462  39.879  20.743   0.425
 5927W        W65463  41.316  16.806   2.252
 5928W        W65464  34.984  25.644  13.357
 5929W        W65465  19.761  18.630   1.846
 5930W        W65466  20.040   3.273   0.387
 5931W        W65467  28.939  19.266   1.889
 5932W        W65468   2.924   4.356  12.457
 5933W        W65469  40.540  39.552   3.862
 5934W        W65470   6.356  22.609  10.159
 5935W        W65471  34.407  27.655  10.626
 5936W        W65472   6.258   8.301  13.513
 5937W        W65473  30.044  42.438   1.252
 5938W        W65474   6.850  10.646   2.229
 5939W        W65475   2.261  19.771   5.212
 5940W        W65476   5.924  12.647   2.801
 5941W        W65477  33.038  20.734   4.188
 5942W        W65478  33.978  40.047  14.366
 5943W        W65479  36.500  37.948   0.815
 5944W        W65480  34.573  39.431   1.248
 5945W        W65481   8.238  44.440   2.872
 5946W        W65482  16.115  26.168  12.080
 5947W        W65483  24.600   1.955   2.251
 5948W        W65484   8.361   8.685  10.952
 5949W        W65485   8.290  43.838  12.038
 5950W        W65486   9.334   5.690  12.000
 5951W        W65487  43.850  25.022   5.130
 5952W        W65488   4.709  39.951   2.206
 5953W        W65489  40.474   7.329  10.458
 5954W        W65490  17.103   5.282  14.777
 5955W        W65491  33.521  38.383   9.919
 5956W        W65492  32.060   5.388   0.322
 5957W        W65493  36.371  30.527  13.419
 5958W        W65494  42.439   2.960  14.461
 5959W        W65495   7.267  30.098  12.522
 5960W        W65496   0.841   6.727  13.500
 5961W        W65497  24.593  17.235  11.533
 5962W        W65498  18.744  44.958  14.430
 5963W        W65499  37.552  11.281  11.595
 5964W        W65500  32.103  22.152   2.895
 5965W        W65501   5.365  29.991  12.057
 5966W        W65502   4.400  15.233   0.941
 5967W        W65503  39.430   4.910   5.161
 5968W        W65504   4.432  26.653  11.038
 5969W        W65505  34.381  22.203   1.253
 5970W        W65506  37.010  13.744  14.787
 5971W        W65507  31.417  13.752  11.473
 5972W        W65508   8.399  15.596  13.462
 5973W        W65509   3.233  12.147   2.401
 5974W        W65510  37.833  32.075  14.286
 5975W        W65511  36.455  21.643  11.104
 5976W        W65512   4.362  39.031  11.004
 5977W        W65513  33.042  40.849   4.346
 5978W        W65514   8.763  28.669   2.737
 5979W        W65515  12.633  42.508   4.301
 5980W        W65516   1.826  28.074  11.599
 5981W        W65517  15.302   2.424   1.366
 5982W        W65518  37.579   2.893   0.849
 5983W        W65519  27.639  12.733  13.794
 5984W        W65520  21.672  22.055  14.305
 5985W        W65521  26.676  29.104  11.093
 5986W        W65522  30.542  16.615  14.961
 5987W        W65523   9.783  38.833  14.444
 5988W        W65524  41.511   5.734  13.832
 5989W        W65525  21.236  26.028   3.381
 5990W        W65526  33.465  42.993  13.813
 5991W        W65527  28.937  17.674  11.604
 5992W        W65528  22.578  18.059   3.634
 5993W        W65529  41.353  36.846  14.277
 5994W        W65530  38.464  11.762   0.939
 5995W        W65531  40.896   1.423  12.502
 5996W        W65532  31.570  33.606   0.964
 5997W        W65533  15.684  24.547   4.330
 5998W        W65534  28.118  41.334   0.733
 5999W        W65535   4.304  30.429  12.356
 6000W        W65536  17.747  39.416   1.842
 6001W        W65537  23.645   5.924   0.924
 6002W        W65538  37.444   5.881   1.752
 6003W        W65539  29.580   7.254  11.494
 6004W        W65540  32.423  32.578  11.960
 6005W        W65541  23.083  12.118   3.294
 6006W        W65542   1.355   5.777  11.395
 6007W        W65543  29.545   2.742   1.723
 6008W        W65544  27.009  30.072  12.998
 6009W        W65545  29.960   2.383   0.446
 6010W        W65546   4.752  25.165  10.066
 6011W        W65547   6.343  19.074   2.893
 6012W        W65548  40.331  13.323   4.306
 6013W        W65549   2.954  22.062   1.220
 6014W        W65550  32.137  15.773  14.383
 6015W        W65551  24.060  19.557  14.309
 6016W        W65552  40.427  42.366  10.541
 6017W        W65553  44.372   0.837   1.308
 6018W        W65554  21.132  21.736   0.317
 6019W        W65555  36.888  43.479   3.752
 6020W        W65556   2.334  10.345   9.568
 6021W        W65557  40.915   9.811   3.189
 6022W        W65558   0.385  36.926  12.823
 6023W        W65559  37.492  43.375  11.941
 6024W        W65560  25.628  29.491   2.217
 6025W        W65561  37.963  20.625   1.769
 6026W        W65562  24.655   0.404  13.449
 6027W        W65563  13.755  28.003   2.780
 6028W        W65564  26.006   1.964  12.348
 6029W        W65565  29.544  40.446   3.246
 6030W        W65566   1.844  40.997   2.365
 6031W        W65567   5.828  28.495  14.480
 6032W        W65568   9.217  39.002  12.540
 6033W        W65569  29.519  29.954   0.401
 6034W        W65570  27.061   5.717   1.732
 6035W        W65571   4.796  19.220   2.811
 6036W        W65572   3.846  38.567  10.520
 6037W        W65573  18.671   4.788   1.757
 6038W        W65574   9.654   5.210  10.910
 6039W        W65575  18.072  39.912  10.484
 6040W        W65576  37.968  32.483   0.395
 6041W        W65577  11.295  22.126  11.984
 6042W        W65578   5.777   2.397   4.125
 6043W        W65579  21.720   1.319   3.264
 6044W        W65580   4.224  26.150   2.244
 6045W        W65581   6.857  19.165   0.796
 6046W        W65582  10.251  12.703   3.679
 6047W        W65583  12.847  15.759  14.422
 6048W        W65584  28.550  13.746   4.661
 6049W        W65585  25.677  31.477   4.320
 6050W        W65586  17.782  30.081  13.988
 6051W        W65587  28.615  21.536   1.375
 6052W        W65588  42.025  24.669   4.168
 6053W        W65589  41.822  34.022   2.218
 6054W        W65590  21.244  23.231   1.427
 6055W        W65591  15.697  28.110   5.094
 6056W        W65592   2.753  37.982  13.456
 6057W        W65593  17.714   4.929   0.948
 6058W        W65594  35.959  18.247   3.805
 6059W        W65595  34.951  10.381  14.390
 6060W        W65596  37.037  14.652  10.449
 6061W        W65597   1.756  20.186  14.967
 6062W        W65598   1.242  22.597   4.610
 6063W        W65599  32.912  38.822   2.817
 6064W        W65600  19.146  11.640  14.316
 6065W        W65601  15.822  11.755  13.530
 6066W        W65602   7.352  11.359  14.451
 6067W        W65603  28.141  44.433   3.647
 6068W        W65604  19.098  11.667   0.914
 6069W        W65605   4.285   4.437  13.061
 6070W        W65606   0.256   6.365   3.699
 6071W        W65607  19.627  26.141  14.404
 6072W        W65608   1.443   3.901   4.128
 6073W        W65609  15.782  35.468   1.863
 6074W        W65610   1.259  27.445  11.542
 6075W        W65611   7.899  22.742  10.017
 6076W        W65612  29.592  43.294   3.833
 6077W        W65613  12.743  19.157   3.347
 6078W        W65614   3.808  11.627  11.878
 6079W        W65615  44.818  10.199   2.850
 6080W        W65616  32.964  22.112   0.844
 6081W        W65617   0.957  44.339   2.324
 6082W        W65618  27.999  33.398   0.932
 6083W        W65619  22.733   0.367  14.974
 6084W        W65620  17.138  34.907  13.429
 6085W        W65621   8.255  37.417   3.275
 6086W        W65622  40.954  40.372  11.948
 6087W        W65623  32.893  37.494  11.050
 6088W        W65624  33.580  26.597   2.406
 6089W        W65625  20.040  12.650   2.247
 6090W        W65626  44.974   3.344  10.921
 6091W        W65627  42.434  30.147   3.355
 6092W        W65628  13.241  16.626  14.305
 6093W        W65629  24.059   1.462  11.892
 6094W        W65630  43.781  12.120   3.295
 6095W        W65631   1.307  38.989  11.088
 6096W        W65632   5.850   3.305   2.188
 6097W        W65633  44.761  25.081   5.188
 6098W        W65634  11.801  32.062   3.669
 6099W        W65635   6.781  23.570  14.403
 6100W        W65636  25.094  11.864  13.335
 6101W        W65637  31.443  35.399  13.422
 6102W        W65638  39.050  19.076   2.228
 6103W        W65639   1.354   6.753  13.316
 6104W        W65640  16.724  29.603   3.376
 6105W        W65641  28.177  27.559  12.511
 6106W        W65642  23.004  10.771   4.717
 6107W        W65643  28.439   3.767   4.771
 6108W        W65644  12.700  30.596  13.452
 6109W        W65645  28.443   3.809  13.991
 6110W        W65646  21.514  22.243   9.593
 6111W        W65647  11.828  41.043   1.892
 6112W        W65648  13.227  10.225   2.757
 6113W        W65649   3.389  25.981   3.314
 6114W        W65650  41.441  43.824  13.922
 6115W        W65651  15.621  11.235   3.841
 6116W        W65652  44.424  38.992   3.358
 6117W        W65653  22.024  16.292   3.313
 6118W        W65654   5.702  33.431   2.254
 6119W        W65655   8.166   4.793   4.620
 6120W        W65656  14.127  44.426  14.277
 6121W        W65657  40.477   8.297  10.575
 6122W        W65658  13.735  11.285   1.713
 6123W        W65659  26.647  22.505   2.877
 6124W        W65660  27.032   4.718  13.476
 6125W        W65661   3.815  40.483  12.933
 6126W        W65662  30.130  37.538  12.550
 6127W        W65663  14.674  19.544  12.494
 6128W        W65664  23.182  41.827  13.502
 6129W        W65665  31.081  12.334   2.673
 6130W        W65666  35.045  30.485   2.266
 6131W        W65667  24.708  27.557   3.832
 6132W        W65668   1.278   5.428   0.922
 6133W        W65669   3.321  13.272  13.035
 6134W        W65670  21.679  21.132  12.036
 6135W        W65671  23.999  27.587  12.568
 6136W        W65672  21.729  37.840  11.868
 6137W        W65673   6.255  21.689  12.886
 6138W        W65674  33.045  35.986  12.467
 6139W        W65675  26.119   1.863   3.150
 6140W        W65676  13.658  29.153  13.309
 6141W        W65677   5.274   4.258  11.575
 6142W        W65678  31.959  42.882  10.890
 6143W        W65679  43.512  20.219   2.331
 6144W        W65680  23.603  25.979   3.847
 6145W        W65681  32.556  31.030   0.728
 6146W        W65682  34.462  36.019   0.464
 6147W        W65683  14.338  22.151   3.221
 6148W        W65684  35.964  35.371  10.457
 6149W        W65685  19.158   9.672  10.489
 6150W        W65686  40.529  37.389   4.162
 6151W        W65687  42.489   7.802   0.801
 6152W        W65688  23.214  32.049  11.901
 6153W        W65689  38.457  37.934  13.791
 6154W        W65690  32.957   4.808  12.933
 6155W        W65691  32.081  34.534   4.679
 6156W        W65692  20.573  18.186  12.464
 6157W        W65693  41.533   9.784  13.962
 6158W        W65694   0.376  22.706  11.967
 6159W        W65695  38.015  34.956   4.729
 6160W        W65696  22.053   6.733   3.277
 6161W        W65697  20.126  20.045  13.420
 6162W        W65698  11.346  40.895  11.998
 6163W        W65699  14.242  34.884  11.031
 6164W        W65700  37.386  11.349  10.438
 6165W        W65701  35.954  34.873   4.720
 6166W        W65702  29.053  10.858  12.439
 6167W        W65703  32.021   3.221   9.969
 6168W        W65704  40.406   5.211  10.890
 6169W        W65705  24.044   3.797   0.961
 6170W        W65706   2.962  23.086  14.032
 6171W        W65707   1.340  25.972  14.390
 6172W        W65708  25.983  12.811   4.338
 6173W        W65709  29.091  29.656  12.945
 6174W        W65710  34.880  31.089   3.226
 6175W        W65711   3.426  30.448  12.853
 6176W        W65712  35.053  10.334  12.037
 6177W        W65713   8.295   6.833  14.013
 6178W        W65714  26.031   9.777   3.711
 6179W        W65715  11.259  22.149   3.814
 6180W        W65716  10.339  23.655  14.396
 6181W        W65717  35.397  13.175   4.752
 6182W        W65718  39.969  17.600  14.785
 6183W        W65719  26.510  27.172   4.751
 6184W        W65720  36.589   4.389   3.171
 6185W        W65721  42.357  27.973  13.019
 6186W        W65722   1.366  27.567  10.459
 6187W        W65723  27.961  21.100   9.999
 6188W        W65724  35.442  31.972  11.963
 6189W        W65725  23.214  18.081   9.436
 6190W        W65726  24.535  35.093   1.237
 6191W        W65727  19.673  12.219  12.444
 6192W        W65728  30.608   5.312   4.775
 6193W        W65729  15.765  43.882   1.715
 6194W        W65730   3.795  42.422  11.519
 6195W        W65731  40.996  35.886   1.372
 6196W        W65732  31.968  39.056   2.339
 6197W        W65733   0.948  27.546  13.449
 6198W        W65734   0.927  41.320   1.436
 6199W        W65735   5.741  20.553   2.237
 6200W        W65736  20.164  38.997   4.670
 6201W        W65737  29.628   5.774   2.837
 6202W        W65738   0.383   4.346   3.665
 6203W        W65739  39.421  43.004   3.791
 6204W        W65740  13.733   4.377  13.359
 6205W        W65741   7.762   1.946  14.495
 6206W        W65742  16.254  19.146   1.733
 6207W        W65743  32.931  35.434  11.866
 6208W        W65744  26.623  29.473  11.392
 6209W        W65745  36.556  33.099   3.271
 6210W        W65746  23.720  13.266   3.165
 6211W        W65747  11.364  17.104  13.061
 6212W        W65748  31.907  41.799  11.874
 6213W        W65749   6.219  36.874   1.719
 6214W        W65750  32.904  19.628   1.436
 6215W        W65751  29.150  10.717   0.353
 6216W        W65752   8.167  15.582  13.886
 6217W        W65753  16.629  17.620  14.782
 6218W        W65754  12.283   6.296  14.412
 6219W        W65755   4.265  17.119   0.877
 6220W        W65756  39.499  42.323   3.314
 6221W        W65757  24.710  16.079  12.950
 6222W        W65758   9.192  37.995   4.602
 6223W        W65759  29.099  22.621   0.417
 6224W        W65760   0.459  29.167  10.892
 6225W        W65761  19.120  11.321  11.030
 6226W        W65762  38.885   6.880  10.890
 6227W        W65763   4.393   6.312  12.878
 6228W        W65764  16.733  20.687   3.146
 6229W        W65765  32.111   5.694  14.455
 6230W        W65766   6.862  37.370   4.660
 6231W        W65767  24.510  44.321  12.392
 6232W        W65768  42.514  14.770  11.049
 6233W        W65769  22.018  33.988  10.066
 6234W        W65770  13.651  29.466   3.360
 6235W        W65771   7.729  25.634  10.095
 6236W        W65772  22.156  25.524  11.013
 6237W        W65773  29.424  38.951  14.965
 6238W        W65774  43.828  34.961   0.920
 6239W        W65775  13.693  22.024   1.825
 6240W        W65776  43.280  26.119  12.048
 6241W        W65777  24.665  38.861   0.727
 6242W        W65778  34.108   4.266  11.484
 6243W        W65779  16.136  24.519  13.495
 6244W        W65780  41.990  17.286  13.872
 6245W        W65781  44.481  43.436   1.930
 6246W        W65782  22.149  40.832   1.399
 6247W        W65783   0.875  16.141   3.691
 6248W        W65784  43.958  23.580   0.249
 6249W        W65785  44.370   9.206  13.462
 6250W        W65786   7.304   0.908  14.341
 6251W        W65787  21.719   6.697  10.520
 6252W        W65788  26.148  31.904   4.679
 6253W        W65789  37.083  11.852  11.423
 6254W        W65790  39.024   1.394  14.319
 6255W        W65791  22.061  24.488   4.230
 6256W        W65792   4.256  12.199   0.336
 6257W        W65793   0.753  24.220   4.280
 6258W        W65794  13.659  27.569  13.308
 6259W        W65795  33.442   0.414  10.895
 6260W        W65796  37.925  20.184  14.899
 6261W        W65797   0.865  34.513  13.056
 6262W        W65798  40.485  17.196  11.118
 6263W        W65799  18.289  13.331  10.470
 6264W        W65800  37.420   6.792   2.819
 6265W        W65801  17.616  43.459   0.359
 6266W        W65802  19.254  26.518   3.160
 6267W        W65803   9.158   8.856  13.043
 6268W        W65804   1.947   8.261   3.233
 6269W        W65805  34.875   7.352   0.369
 6270W        W65806  38.453   6.376  14.497
 6271W        W65807  39.957   4.938  12.488
 6272W        W65808  29.017  10.370   1.931
 6273W        W65809  39.987  37.069   0.302
 6274W        W65810  15.806   6.705  14.889
 6275W        W65811  22.680  19.688  14.310
 6276W        W65812  31.574  28.670   4.775
 6277W        W65813  22.567  23.128   1.734
 6278W        W65814   6.687  18.785   4.193
 6279W        W65815  36.953   7.345  14.023
 6280W        W65816  31.439  15.699   1.726
 6281W        W65817  41.824  38.537  14.485
 6282W        W65818  15.714   0.861   2.365
 6283W        W65819  26.961  32.592  13.034
 6284W        W65820  39.393  44.324   1.212
 6285W        W65821  34.902  22.067  14.832
 6286W        W65822  17.111  28.952   4.341
 6287W        W65823  14.204  19.686   2.740
 6288W        W65824  10.174  19.561   1.284
 6289W        W65825  26.122  40.847   1.331
 6290W        W65826  14.811  40.482   5.114
 6291W        W65827  22.566  26.677   3.251
 6292W        W65828   6.386  10.334   1.213
 6293W        W65829   1.954   2.363   2.386
 6294W        W65830  43.289  19.247   1.318
 6295W        W65831   9.841   1.340  11.876
 6296W        W65832   4.440  12.273  12.963
 6297W        W65833   6.751  41.513  14.333
 6298W        W65834  31.478  35.486   4.339
 6299W        W65835  17.603  24.491  14.784
 6300W        W65836  44.337  28.656  14.780
 6301W        W65837  20.640  10.369  11.922
 6302W        W65838   5.225  31.087   1.402
 6303W        W65839  28.004  19.733   2.824
 6304W        W65840  16.793  18.241   2.413
 6305W        W65841   2.237  44.367  12.567
 6306W        W65842  23.690  29.973  14.426
 6307W        W65843  18.120   9.304  11.985
 6308W        W65844  44.806  25.494  14.306
 6309W        W65845   0.816   0.474   1.735
 6310W        W65846  11.818  20.590  13.315
 6311W        W65847  14.110  26.527   3.176
 6312W        W65848  35.954  15.629   0.420
 6313W        W65849  25.132  15.793   3.868
 6314W        W65850  41.523   3.414   2.334
 6315W        W65851  36.353  34.005   3.787
 6316W        W65852  22.577  13.787   0.951
 6317W        W65853  36.402  14.658  11.431
 6318W        W65854  19.181  22.159   4.777
 6319W        W65855   4.265  29.083   0.348
 6320W        W65856  21.724   4.254  10.562
 6321W        W65857  26.064  35.050  12.823
 6322W        W65858  36.935  15.689   4.225
 6323W        W65859  25.641  43.419   3.721
 6324W        W65860  33.889  14.256   3.270
 6325W        W65861  40.526   0.447   4.638
 6326W        W65862  39.535  39.396  14.875
 6327W        W65863  41.359  43.389  11.475
 6328W        W65864  28.165   6.682  12.437
 6329W        W65865  29.507  33.388   1.765
 6330W        W65866  43.846  26.995   4.785
 6331W        W65867  11.144  23.658  14.279
 6332W        W65868   2.729  18.170  12.942
 6333W        W65869  11.268   7.256   0.751
 6334W        W65870  20.547  24.531   4.207
 6335W        W65871  16.113   5.824  12.059
 6336W        W65872   0.364  33.119   2.200
 6337W        W65873  33.108  13.151   3.190
 6338W        W65874  43.847  22.735  14.828
 6339W        W65875  14.245  14.180  10.469
 6340W        W65876  36.468  28.679  11.440
 6341W        W65877   1.257  14.793   1.789
 6342W        W65878  33.004  43.899   1.868
 6343W        W65879  27.095   8.316   0.394
 6344W        W65880  10.354  32.407   3.755
 6345W        W65881  10.867  28.159  11.960
 6346W        W65882  30.496  12.727   3.696
 6347W        W65883  41.317  25.648   3.299
 6348W        W65884  38.481   6.853   2.186
 6349W        W65885  40.030  43.966   0.874
 6350W        W65886  25.526  10.734   3.632
 6351W        W65887  29.632  31.002  10.496
 6352W        W65888  14.803  29.503  11.566
 6353W        W65889  18.251  16.091   0.934
 6354W        W65890  30.911  25.004  12.350
 6355W        W65891   7.230  28.054   2.765
 6356W        W65892   1.919  34.107  11.527
 6357W        W65893  30.545  32.131  13.997
 6358W        W65894  36.066  38.350   0.329
 6359W        W65895   4.206   3.276  11.417
 6360W        W65896  34.456  17.209   1.853
 6361W        W65897   7.274   7.869   2.330
 6362W        W65898  19.255   9.719   0.448
 6363W        W65899  36.860  15.632   1.858
 6364W        W65900  31.529   0.808  10.491
 6365W        W65901  31.491  17.171  12.374
 6366W        W65902  15.607  41.358   0.774
 6367W        W65903  26.022   8.272  12.889
 6368W        W65904  11.709  12.822  14.368
 6369W        W65905   2.361   9.216  11.596
 6370W        W65906   5.854  18.097  14.454
 6371W        W65907  16.282  44.845  10.912
 6372W        W65908  21.148   6.217  13.048
 6373W        W65909   1.256  24.579   1.232
 6374W        W65910  31.056  36.842   2.740
 6375W        W65911  22.594  38.517  12.824
 6376W        W65912   7.700  26.045   2.668
 6377W        W65913  35.465  22.625   1.891
 6378W        W65914  39.314  10.663  14.464
 6379W        W65915   7.282  38.065  12.879
 6380W        W65916  42.480   8.232  12.906
 6381W        W65917  25.539  39.532   0.281
 6382W        W65918  11.327  31.494   2.730
 6383W        W65919  39.890  13.125   2.417
 6384W        W65920   8.187  10.326  13.866
 6385W        W65921  25.163   1.294   2.708
 6386W        W65922  31.420  17.149   2.687
 6387W        W65923   1.886   3.277  14.787
 6388W        W65924  43.305   1.863  11.880
 6389W        W65925  16.172  13.797   4.643
 6390W        W65926   9.275   2.880  11.952
 6391W        W65927  30.658  33.094   1.927
 6392W        W65928   8.161  20.156  13.371
 6393W        W65929  33.591  28.058   0.779
 6394W        W65930  34.885  40.042  12.829
 6395W        W65931  43.810  13.199   2.824
 6396W        W65932   6.776  14.297   5.214
 6397W        W65933  13.781  22.516   4.155
 6398W        W65934  28.166  24.506  14.911
 6399W        W65935  26.597   9.842  12.977
 6400W        W65936  39.518  24.502   4.734
 6401W        W65937  32.992   1.316   2.399
 6402W        W65938  22.122   2.901   2.751
 6403W        W65939  22.632   3.800  13.925
 6404W        W65940  36.517  11.154   4.163
 6405W        W65941  34.059  11.275  13.454
 6406W        W65942  21.702   5.357  14.908
 6407W        W65943   4.934  42.463   0.856
 6408W        W65944  41.864  18.770  10.525
 6409W        W65945   9.837  36.911   1.741
 6410W        W65946  37.076  37.989  13.950
 6411W        W65947  37.863   3.821  11.960
 6412W        W65948  30.595  35.085   4.670
 6413W        W65949   8.810  23.076  12.984
 6414W        W65950  32.902  27.629   4.125
 6415W        W65951  44.767  38.324   0.867
 6416W        W65952   0.794  28.081   1.811
 6417W        W65953  26.490  11.791  12.437
 6418W        W65954   6.365  42.829   2.732
 6419W        W65955   7.894  35.079  13.336
 6420W        W65956  12.722  41.453   1.743
 6421W        W65957  24.219  27.564   2.757
 6422W        W65958   4.866  14.241   3.295
 6423W        W65959  31.973  34.118   2.668
 6424W        W65960  32.565   0.267  13.519
 6425W        W65961  44.959  17.683   3.835
 6426W        W65962  15.284  43.912  10.585
 6427W        W65963  22.575   6.884  12.523
 6428W        W65964  38.440   1.373  11.872
 6429W        W65965   2.734  36.393  13.502
 6430W        W65966  10.202  25.589  12.840
 6431W        W65967  21.249   0.754  11.597
 6432W        W65968  13.259   1.846   0.871
 6433W        W65969  17.723  33.450   4.650
 6434W        W65970  38.491   8.878   4.698
 6435W        W65971  39.034   0.341   1.412
 6436W        W65972  15.257  38.383  13.539
 6437W        W65973   4.927  43.434   3.320
 6438W        W65974  37.951  26.961  13.049
 6439W        W65975  31.975  34.992  11.980
 6440W        W65976   7.387  42.786  11.588
 6441W        W65977  34.972  23.570  11.571
 6442W        W65978  42.022  37.833   4.665
 6443W        W65979   9.653  32.494  13.918
 6444W        W65980  40.450  40.798  10.492
 6445W        W65981   3.450  23.684  11.537
 6446W        W65982  24.480  43.982  14.896
 6447W        W65983  15.819  11.336   1.860
 6448W        W65984   4.931  21.732   4.711
 6449W        W65985  26.668  18.643  14.279
 6450W        W65986  40.987  10.854   0.450
 6451W        W65987  37.837  34.044   2.709
 6452W        W65988  28.479  36.025   2.303
 6453W        W65989  29.004  22.589   0.860
 6454W        W65990  28.508  26.532  13.337
 6455W        W65991  39.948  32.558  10.455
 6456W        W65992  14.616  23.632   4.635
 6457W        W65993  10.173  22.704   2.318
 6458W        W65994  18.088  26.051  12.431
 6459W        W65995  42.336  16.108  14.841
 6460W        W65996  37.003  22.540   3.785
 6461W        W65997   7.197  40.906   3.234
 6462W        W65998   4.423   6.217   1.728
 6463W        W65999  44.499  27.172  13.462
 6464W        W66000  35.580  35.999   3.161
 6465W        W66001  36.930  32.440  13.510
 6466W        W66002   8.700  41.830   5.225
 6467W        W66003  24.712  24.659   4.255
 6468W        W66004  29.065  16.207  13.507
 6469W        W66005  26.093  26.202  13.521
 6470W        W66006  38.503   0.770   3.240
 6471W        W66007  34.865  23.691  11.052
 6472W        W66008   8.769   4.767  10.951
 6473W        W66009   9.799   7.769   5.317
 6474W        W66010   7.743  31.499   3.659
 6475W        W66011  28.501  14.096   0.459
 6476W        W66012  25.540  25.689   2.664
 6477W        W66013   8.862   7.299  12.487
 6478W        W66014  36.582  19.568   9.963
 6479W        W66015  15.698   1.299   1.907
 6480W        W66016   7.859  32.432  12.889
 6481W        W66017  43.454  31.002   4.822
 6482W        W66018  16.146  10.747   1.374
 6483W        W66019  37.419  25.150   2.885
 6484W        W66020  37.982  30.982   1.305
 6485W        W66021  12.680  29.969   3.310
 6486W        W66022  38.032  21.603  10.574
 6487W        W66023  22.509  35.491   0.333
 6488W        W66024  40.368  14.791   1.805
 6489W        W66025   9.884  38.385  12.860
 6490W        W66026  12.802   9.394  14.306
 6491W        W66027  35.571  12.130   3.249
 6492W        W66028  10.215  22.198  12.513
 6493W        W66029  14.753   5.689   2.203
 6494W        W66030  33.995  33.516  14.906
 6495W        W66031  27.181   1.330   3.787
 6496W        W66032  13.728  15.771   2.384
 6497W        W66033  35.392   1.917   3.159
 6498W        W66034  44.379  26.599   0.311
 6499W        W66035  23.136   4.272   3.251
 6500W        W66036  44.773  20.150  13.369
 6501W        W66037  39.972  22.551  11.569
 6502W        W66038  43.906  25.216   4.625
 6503W        W66039  35.057   6.698  13.539
 6504W        W66040  32.503  39.886  12.914
 6505W        W66041  24.095  31.647  12.415
 6506W        W66042  13.323  14.236   4.612
 6507W        W66043  39.512  43.475  11.542
 6508W        W66044  15.206  11.823   2.313
 6509W        W66045   2.279  15.720  13.430
 6510W        W66046  17.151  33.592   4.213
 6511W        W66047  15.743  32.572  13.379
 6512W        W66048  40.456  29.093   1.851
 6513W        W66049   8.328  10.316  11.929
 6514W        W66050   4.865  25.976  14.327
 6515W        W66051  10.279  32.986   3.176
 6516W        W66052   1.332  15.665   5.273
 6517W        W66053  28.657  38.380   3.780
 6518W        W66054  27.544   8.221   4.796
 6519W        W66055  39.948   2.322  13.039
 6520W        W66056   7.725   4.226  14.857
 6521W        W66057  36.507  27.169  10.977
 6522W        W66058  35.038   4.349  10.444
 6523W        W66059  14.139  32.983  11.896
 6524W        W66060  14.093  36.087   9.986
 6525W        W66061   4.240   9.720   0.261
 6526W        W66062  32.076   8.722  13.424
 6527W        W66063  23.110  10.663  10.957
 6528W        W66064  19.647  19.247  13.980
 6529W        W66065   6.910  32.101   0.853
 6530W        W66066  10.732  22.550  12.490
 6531W        W66067  40.800  27.125  14.441
 6532W        W66068   5.816  14.632   2.780
 6533W        W66069  34.077   9.662  13.413
 6534W        W66070  25.973  44.313  14.507
 6535W        W66071  26.534  41.361   1.349
 6536W        W66072   4.361   5.908   4.201
 6537W        W66073  17.645  14.832  14.288
 6538W        W66074  12.295  11.674  10.480
 6539W        W66075  23.689  14.795  10.589
 6540W        W66076  42.816  34.596  13.934
 6541W        W66077  40.423   0.891  11.611
 6542W        W66078  27.019  37.341   2.882
 6543W        W66079  33.503  38.005   1.315
 6544W        W66080  18.160  43.983  11.394
 6545W        W66081   6.195  34.615   4.337
 6546W        W66082  19.614  16.162  11.021
 6547W        W66083  28.613  26.979  10.096
 6548W        W66084  18.288  31.967  11.006
 6549W        W66085  41.006  28.032  13.983
 6550W        W66086  13.193   9.323   3.735
 6551W        W66087  21.589   9.857   1.931
 6552W        W66088  18.121  17.168   3.384
 6553W        W66089   8.718   6.701   4.751
 6554W        W66090   2.902  38.470  11.509
 6555W        W66091  18.235   2.962  12.355
 6556W        W66092   1.783  39.048  10.923
 6557W        W66093   5.839  32.131   2.356
 6558W        W66094   1.796  31.575  13.465
 6559W        W66095  39.870  23.605   3.858
 6560W        W66096  36.889  36.989   0.746
 6561W        W66097   4.928  18.066  13.393
 6562W        W66098   5.881   7.674   2.410
 6563W        W66099  30.111  36.927  13.053
 6564W        W66100  15.686  28.958  13.498
 6565W        W66101  33.513  31.054  14.314
 6566W        W66102  34.379  34.088   0.946
 6567W        W66103   8.853  14.697   2.219
 6568W        W66104   2.907  23.509  12.073
 6569W        W66105  28.051  25.067   4.175
 6570W        W66106  34.936  39.017   5.160
 6571W        W66107  23.512  30.015  14.895
 6572W        W66108   2.781  37.400  10.953
 6573W        W66109  37.076  21.583   2.695
 6574W        W66110  10.866  25.130   0.257
 6575W        W66111  32.909  32.403   4.692
 6576W        W66112  11.319   3.310  12.458
 6577W        W66113  43.350  18.093  10.455
 6578W        W66114  34.091  30.469  11.896
 6579W        W66115  11.290  13.729   0.457
 6580W        W66116  37.988  17.770   3.206
 6581W        W66117   9.745   2.263  14.316
 6582W        W66118  42.327  38.005   3.653
 6583W        W66119  28.672   0.918  12.898
 6584W        W66120  28.048  30.063   9.920
 6585W        W66121  29.437  31.596  10.408
 6586W        W66122  15.188  19.591  12.055
 6587W        W66123  33.610  43.390   1.874
 6588W        W66124  40.855  22.165   0.357
 6589W        W66125  22.029  10.695   1.319
 6590W        W66126  21.727  28.133  11.063
 6591W        W66127   2.356  11.656  13.996
 6592W        W66128  20.709  44.000   1.796
 6593W        W66129  18.225  18.741   3.789
 6594W        W66130   9.260  27.148   3.176
 6595W        W66131  27.136  12.129  12.518
 6596W        W66132   3.441  17.178   1.242
 6597W        W66133  16.272  11.737   0.933
 6598W        W66134  38.895  35.506   4.288
 6599W        W66135  17.197   3.311  13.393
 6600W        W66136  10.797   3.937  10.404
 6601W        W66137  27.008   2.924   3.171
 6602W        W66138  10.172  22.095  11.937
 6603W        W66139  34.882  21.072   5.179
 6604W        W66140  16.226   5.424   3.824
 6605W        W66141  30.056  13.829  14.409
 6606W        W66142   4.914  10.335   0.858
 6607W        W66143  24.564   5.899  14.021
 6608W        W66144  16.262  24.981  13.390
 6609W        W66145  39.541  18.706  11.388
 6610W        W66146  21.525  24.058   0.796
 6611W        W66147  32.066  29.621   0.303
 6612W        W66148  20.057   0.419  13.804
 6613W        W66149  33.095  10.162  14.786
 6614W        W66150  36.433  21.140   3.289
 6615W        W66151  10.352  18.608   5.242
 6616W        W66152   3.761  36.986   4.664
 6617W        W66153  19.222  10.797   2.185
 6618W        W66154  37.448   7.194  14.905
 6619W        W66155   4.926   1.349   4.183
 6620W        W66156  41.511  38.041   1.847
 6621W        W66157  35.944  23.108   3.803
 6622W        W66158  25.479  19.656   5.613
 6623W        W66159  26.501  40.522  10.617
 6624W        W66160  20.590  17.662  11.596
 6625W        W66161  33.558  12.276   4.806
 6626W        W66162  23.171  26.191  14.947
 6627W        W66163  13.164  15.101  14.359
 6628W        W66164  32.430  19.181  12.500
 6629W        W66165   7.230  31.896  14.328
 6630W        W66166  28.178  12.683  14.505
 6631W        W66167  28.435   8.765   3.306
 6632W        W66168  39.058  22.016  14.911
 6633W        W66169   5.303  24.697  10.453
 6634W        W66170   2.870  30.980  13.009
 6635W        W66171   9.382  22.146   2.356
 6636W        W66172   8.760  25.193   5.720
 6637W        W66173  14.688  11.734  14.886
 6638W        W66174  21.067  37.034  12.073
 6639W        W66175  26.954  39.995  13.936
 6640W        W66176  37.979  23.534   2.197
 6641W        W66177   7.289  44.394   1.783
 6642W        W66178  12.297  17.283   2.697
 6643W        W66179  12.842  38.035   5.241
 6644W        W66180  26.479  33.994   0.897
 6645W        W66181  17.077  19.049   3.347
 6646W        W66182   4.377  26.576   3.733
 6647W        W66183  12.633  36.539   3.690
 6648W        W66184  43.895  26.607   2.770
 6649W        W66185   2.904  31.602   2.377
 6650W        W66186  22.695  14.315  11.434
 6651W        W66187  29.049  17.736  12.040
 6652W        W66188  14.263   6.890   3.649
 6653W        W66189  15.327  41.989  13.357
 6654W        W66190  10.633  16.699   4.221
 6655W        W66191  15.691  24.665   3.668
 6656W        W66192  41.024  20.679  10.960
 6657W        W66193  22.017  11.208  14.308
 6658W        W66194  41.425  11.670  12.999
 6659W        W66195  11.199  25.202  12.874
 6660W        W66196  21.189   9.791   4.314
 6661W        W66197   1.342  23.134  10.993
 6662W        W66198  43.949  14.217  13.024
 6663W        W66199  24.200  40.321   2.732
 6664W        W66200  38.030  20.585  14.803
 6665W        W66201  26.979   7.217   3.367
 6666W        W66202   0.269  26.113   1.249
 6667W        W66203  19.775  11.837   4.773
 6668W        W66204  10.264  32.130  12.555
 6669W        W66205  25.507   1.770  13.866
 6670W        W66206  23.226  30.658   4.176
 6671W        W66207   1.352  31.562  11.067
 6672W        W66208  21.675  27.502  11.087
 6673W        W66209  35.864  17.142  13.021
 6674W        W66210  22.113  19.702   1.395
 6675W        W66211  41.417  15.624  12.852
 6676W        W66212  40.435  29.980   1.237
 6677W        W66213   1.351   1.419  11.482
 6678W        W66214  16.308   0.759   4.645
 6679W        W66215   5.340  36.060   1.354
 6680W        W66216  22.233  10.234   1.719
 6681W        W66217   4.358  40.329   1.903
 6682W        W66218   2.288   7.893  14.449
 6683W        W66219  20.173  15.131   1.231
 6684W        W66220  27.538  28.086   2.355
 6685W        W66221   7.231  30.149  13.853
 6686W        W66222  30.155  38.343  14.452
 6687W        W66223  17.708  40.509  10.458
 6688W        W66224  44.946  24.051   1.217
 6689W        W66225  44.968  12.252  14.901
 6690W        W66226  17.661   3.791   3.275
 6691W        W66227  23.020  44.418  10.959
 6692W        W66228   4.433  26.607   1.304
 6693W        W66229   5.689   6.338  14.915
 6694W        W66230  25.616  16.615   4.208
 6695W        W66231   1.788  12.774   3.730
 6696W        W66232  17.782  30.989   2.386
 6697W        W66233   9.702  26.493  11.980
 6698W        W66234  19.280  18.073   3.243
 6699W        W66235  22.651  23.665  11.936
 6700W        W66236  20.210  30.913  11.467
 6701W        W66237  42.520  44.409   4.303
 6702W        W66238  28.572   9.167  11.903
 6703W        W66239  30.912  15.166   4.320
 6704W        W66240   3.273  41.516  11.009
 6705W        W66241  19.778  17.073   4.116
 6706W        W66242   9.885  33.426   0.803
 6707W        W66243  10.805  32.105   3.690
 6708W        W66244  10.304  14.192   0.303
 6709W        W66245  25.642  44.413  14.299
 6710W        W66246  44.770  32.048  10.615
 6711W        W66247  25.478  33.520   1.699
 6712W        W66248   1.294  27.530  12.902
 6713W        W66249  31.095   7.672   1.885
 6714W        W66250  40.018  30.019  11.106
 6715W        W66251   2.363   3.786  10.900
 6716W        W66252  30.020  43.279   2.250
 6717W        W66253  10.645  28.057   1.406
 6718W        W66254  22.187  21.231   1.323
 6719W        W66255  30.126  30.513   2.387
 6720W        W66256   1.868  20.239  12.952
 6721W        W66257  26.672  15.090   2.836
 6722W        W66258  36.993  28.973   1.761
 6723W        W66259   0.765  41.537  13.992
 6724W        W66260  22.599  39.554  12.520
 6725W        W66261   8.835  26.101  13.857
 6726W        W66262  39.925   1.274  10.901
 6727W        W66263  20.580  18.282   4.289
 6728W        W66264  16.607  14.644  13.938
 6729W        W66265  40.530  22.527  10.561
 6730W        W66266  18.651  41.334   1.801
 6731W        W66267  28.459  28.967   1.322
 6732W        W66268  33.601  33.124  12.916
 6733W        W66269  34.093  23.601   0.411
 6734W        W66270  43.273   4.848  12.376
 6735W        W66271  11.175   3.776   4.801
 6736W        W66272  32.085  27.597  10.460
 6737W        W66273   7.766   6.828   2.817
 6738W        W66274   1.963  36.543   4.649
 6739W        W66275  25.537   3.918  14.950
 6740W        W66276  43.480  33.538  13.953
 6741W        W66277  27.987  30.155  10.928
 6742W        W66278  35.499  25.973   5.780
 6743W        W66279  22.629  40.040   1.710
 6744W        W66280  26.594  33.963  14.020
 6745W        W66281  12.741   7.706   1.858
 6746W        W66282  15.602  41.348   3.745
 6747W        W66283  10.318  43.506   2.783
 6748W        W66284  31.463  14.662   4.703
 6749W        W66285   0.401   8.795  12.572
 6750W        W66286  42.989   7.181   4.143
 6751W        W66287   7.336  10.356  11.980
 6752W        W66288   0.386  10.190   2.839
 6753W        W66289  19.094  26.969  11.994
 6754W        W66290  33.096  38.337   4.298
 6755W        W66291  40.807  40.970   4.284
 6756W        W66292  16.587  36.432   4.252
 6757W        W66293  36.423  44.773   1.727
 6758W        W66294   0.456  20.216   3.730
 6759W        W66295  41.438  26.170  11.600
 6760W        W66296  27.974  15.138  10.484
 6761W        W66297  10.210  16.209  13.014
 6762W        W66298   4.297  26.991  11.469
 6763W        W66299  25.973  24.642  14.773
 6764W        W66300  33.036  23.162  10.547
 6765W        W66301  44.286   5.286   0.443
 6766W        W66302   4.432  32.413   0.244
 6767W        W66303  20.188  26.070  13.017
 6768W        W66304  16.164   1.817   1.211
 6769W        W66305  18.590  10.306  13.436
 6770W        W66306   2.425  17.174  14.421
 6771W        W66307  33.024  34.106   0.847
 6772W        W66308  44.779  32.142   4.246
 6773W        W66309  15.662  12.188  11.041
 6774W        W66310  38.003   5.427  11.004
 6775W        W66311   3.809  18.232  10.985
 6776W        W66312  33.516  28.675  12.854
 6777W        W66313  17.097  41.441   2.799
 6778W        W66314  25.638   7.318   9.933
 6779W        W66315  37.466  43.418   2.327
 6780W        W66316  31.116  28.459  13.838
 6781W        W66317  35.396  21.693   4.117
 6782W        W66318  12.673  12.123  10.909
 6783W        W66319  33.930  31.510  13.539
 6784W        W66320  32.066  10.261   2.185
 6785W        W66321  14.305  33.107  13.851
 6786W        W66322  33.930   3.757  11.407
 6787W        W66323   3.272  14.332   3.293
 6788W        W66324  20.710   7.189   1.707
 6789W        W66325  10.679  15.100  13.405
 6790W        W66326  30.910  26.965   1.359
 6791W        W66327  35.047   2.873   2.384
 6792W        W66328  42.025   2.966   2.367
 6793W        W66329  13.701  38.343   0.894
 6794W        W66330  13.240  44.325  13.488
 6795W        W66331  33.022   5.341  12.917
 6796W        W66332  23.026   6.783  11.965
 6797W        W66333  28.525   1.842  12.569
 6798W        W66334  33.579  12.849   3.288
 6799W        W66335  30.079  43.376   1.427
 6800W        W66336   4.323   6.312   0.286
 6801W        W66337  12.197  42.512  12.827
 6802W        W66338  31.512   7.201   4.149
 6803W        W66339  17.739  17.676  13.019
 6804W        W66340  33.113   4.396   2.818
 6805W        W66341  22.675  42.808   2.778
 6806W        W66342  34.978  20.173  12.363
 6807W        W66343  33.438  18.173  13.912
 6808W        W66344  44.929   6.225  12.896
 6809W        W66345  21.113  10.788   4.834
 6810W        W66346  43.812  16.587   2.800
 6811W        W66347  20.715  19.184   4.252
 6812W        W66348  15.236  41.994  11.915
 6813W        W66349  20.175  20.765   3.249
 6814W        W66350  31.481   5.847  13.391
 6815W        W66351  44.455   3.408  14.429
 6816W        W66352  30.017  18.724  13.502
 6817W        W66353  44.414  24.177   1.318
 6818W        W66354  30.075   9.657  10.545
 6819W        W66355  13.663  38.466  13.827
 6820W        W66356  33.546  19.047  11.599
 6821W        W66357  28.067  15.310   4.683
 6822W        W66358  42.462  19.777   2.758
 6823W        W66359  25.649   6.341  13.897
 6824W        W66360  44.930  21.067  14.973
 6825W        W66361  18.058  15.770   1.789
 6826W        W66362  35.069   0.330  14.422
 6827W        W66363  19.573  16.789   2.675
 6828W        W66364  11.335  30.985   3.291
 6829W        W66365  41.944   9.226  11.408
 6830W        W66366   5.253  21.717   2.779
 6831W        W66367  25.973  10.865  12.828
 6832W        W66368  28.515  25.668   2.775
 6833W        W66369  41.533  33.402  14.440
 6834W        W66370  26.050  16.256  14.461
 6835W        W66371  20.651  21.072   3.646
 6836W        W66372  34.038  21.224  10.968
 6837W        W66373  42.886  15.225   0.900
 6838W        W66374  37.848   7.265   3.673
 6839W        W66375  10.800  30.640   5.764
 6840W        W66376  15.608  26.495   0.780
 6841W        W66377   1.906   1.791  10.434
 6842W        W66378  33.982  15.192  12.052
 6843W        W66379  34.525  36.484  13.982
 6844W        W66380  19.720   7.293  10.554
 6845W        W66381  36.930  18.098  11.122
 6846W        W66382  13.702  10.878   3.181
 6847W        W66383   0.380  42.281  14.465
 6848W        W66384   3.745  12.713   4.799
 6849W        W66385  28.088   9.816  12.459
 6850W        W66386  23.237  20.146   4.114
 6851W        W66387  44.295  41.415   2.200
 6852W        W66388   5.721  22.018   0.843
 6853W        W66389   3.373  30.957  12.999
 6854W        W66390   2.325  19.285  14.365
 6855W        W66391  17.561   8.894  13.043
 6856W        W66392   8.294  12.313  10.961
 6857W        W66393  44.991  18.663  14.845
 6858W        W66394  26.997  19.557   2.198
 6859W        W66395  42.312  18.222  14.416
 6860W        W66396  24.591  29.598   3.707
 6861W        W66397  19.134  27.003   4.293
 6862W        W66398  39.315  41.419  14.296
 6863W        W66399  18.629   2.447   3.151
 6864W        W66400  30.497   0.478  13.387
 6865W        W66401  34.508  11.686   0.265
 6866W        W66402   1.751  22.050   3.680
 6867W        W66403  37.341  16.801  11.463
 6868W        W66404   6.866  43.458  13.003
 6869W        W66405   5.241  25.535  11.874
 6870W        W66406   1.766  23.163   1.409
 6871W        W66407  42.985  21.619   2.718
 6872W        W66408   2.276   0.304   2.338
 6873W        W66409  35.420  24.077  10.596
 6874W        W66410  33.429  33.550  12.020
 6875W        W66411  33.093   7.235   0.865
 6876W        W66412  20.270   6.331   2.795
 6877W        W66413   5.829  32.004   1.443
 6878W        W66414  38.410  20.057   4.337
 6879W        W66415  43.949  15.700   2.248
 6880W        W66416  10.291  25.160   4.794
 6881W        W66417  23.076  35.978   0.840
 6882W        W66418   0.478  17.688   1.263
 6883W        W66419  39.970   0.865   4.134
 6884W        W66420  13.840  19.672  11.927
 6885W        W66421  29.585  37.468  10.451
 6886W        W66422  25.043   8.243   4.683
 6887W        W66423  10.843  40.494   2.769
 6888W        W66424  10.262   5.387  11.499
 6889W        W66425   0.791  34.383   1.860
 6890W        W66426  11.864   8.710   4.647
 6891W        W66427  20.190  28.985   1.266
 6892W        W66428  11.780  35.513   3.831
 6893W        W66429  43.833  28.445  10.979
 6894W        W66430   3.951  44.897  14.453
 6895W        W66431  25.545   9.291   1.389
 6896W        W66432   1.878   9.248   2.783
 6897W        W66433  15.185  40.846   4.244
 6898W        W66434   0.894  16.235   3.261
 6899W        W66435  13.819  13.331  12.477
 6900W        W66436   2.364  18.285   0.878
 6901W        W66437  33.610  17.153   2.727
 6902W        W66438  28.677   3.894  14.334
 6903W        W66439  30.494  32.526  13.513
 6904W        W66440  41.021  23.122  10.428
 6905W        W66441   4.746  36.544   4.116
 6906W        W66442  40.429  23.517  13.343
 6907W        W66443  23.538  18.293  14.355
 6908W        W66444  42.481  16.583   3.676
 6909W        W66445  11.268  20.717   0.887
 6910W        W66446  16.076  11.807  12.450
 6911W        W66447   5.349  32.008   2.891
 6912W        W66448   0.916  38.965   4.735
 6913W        W66449   5.861  30.046   1.886
 6914W        W66450  30.148  29.113  12.935
 6915W        W66451  30.526  36.558  14.854
 6916W        W66452  36.419  18.620   1.413
 6917W        W66453  26.673  23.143  11.123
 6918W        W66454   9.299  40.453  10.560
 6919W        W66455  10.349  20.627  11.430
 6920W        W66456   9.363  33.571  10.006
 6921W        W66457  33.405  16.606  13.821
 6922W        W66458  14.325  40.498  12.909
 6923W        W66459  11.834  43.963   2.286
 6924W        W66460  22.508  31.467  10.478
 6925W        W66461  13.335  27.121   2.365
 6926W        W66462  44.464  43.425  13.425
 6927W        W66463  44.279  38.858   5.151
 6928W        W66464  27.568  43.500  12.831
 6929W        W66465  29.523  18.209  14.026
 6930W        W66466  30.022  17.622  14.826
 6931W        W66467  40.950  37.025   3.817
 6932W        W66468  17.706  22.697  10.534
 6933W        W66469  33.040  44.403  10.611
 6934W        W66470  23.535  15.126   2.229
 6935W        W66471   3.717  23.112   3.256
 6936W        W66472  21.515  16.167   4.209
 6937W        W66473  15.684  15.173   0.963
 6938W        W66474  40.886  33.456   1.322
 6939W        W66475  36.975  33.910   1.389
 6940W        W66476  15.147  16.807   4.821
 6941W        W66477  18.650  15.683   2.345
 6942W        W66478  43.900  13.343   2.364
 6943W        W66479  38.512  11.865  12.042
 6944W        W66480   5.922  19.148   1.292
 6945W        W66481  24.663  41.806   0.426
 6946W        W66482  37.915  36.978  10.407
 6947W        W66483  27.633  30.957  11.597
 6948W        W66484   7.197  16.619  10.963
 6949W        W66485  37.027  17.669  12.828
 6950W        W66486  26.197  32.021   3.769
 6951W        W66487  24.717  20.196   4.718
 6952W        W66488  28.123  39.011   3.848
 6953W        W66489  29.591  26.675  13.966
 6954W        W66490  38.895  35.370   0.366
 6955W        W66491  27.643   1.348   3.851
 6956W        W66492  17.779   4.327  14.003
 6957W        W66493   5.281  20.545  11.578
 6958W        W66494  33.502  14.310   3.838
 6959W        W66495  36.572  12.775   0.350
 6960W        W66496  10.844  25.508  11.944
 6961W        W66497   0.814  44.839  13.828
 6962W        W66498   3.918  24.019  12.070
 6963W        W66499  16.090  20.135   0.301
 6964W        W66500  30.515  10.336  13.390
 6965W        W66501   3.832  23.721   0.963
 6966W        W66502  30.972  41.379   4.265
 6967W        W66503  33.385  19.761  11.563
 6968W        W66504  20.251  31.087   3.168
 6969W        W66505   9.821  43.849  14.493
 6970W        W66506  29.166  32.429   4.651
 6971W        W66507  31.615  29.596   0.874
 6972W        W66508  31.534   4.301   4.690
 6973W        W66509   1.430  28.574  14.405
 6974W        W66510  13.348  27.596  12.343
 6975W        W66511  23.087  11.690  10.466
 6976W        W66512  44.839   5.792   4.279
 6977W        W66513  44.365  27.132  10.593
 6978W        W66514  42.314  14.259  13.946
 6979W        W66515  30.558  43.458   1.219
 6980W        W66516  35.964  35.064   1.736
 6981W        W66517  11.707   7.311   3.350
 6982W        W66518  17.580  20.060  13.479
 6983W        W66519  30.065  20.526   4.353
 6984W        W66520  15.794  35.483  11.066
 6985W        W66521  13.159  20.081  12.344
 6986W        W66522  18.755  39.329   1.398
 6987W        W66523  13.291  42.341   0.817
 6988W        W66524  15.675   4.419  11.503
 6989W        W66525  19.565  42.997   2.761
 6990W        W66526  16.610  20.599  13.417
 6991W        W66527  23.654  14.788  11.443
 6992W        W66528  24.150  25.678   0.865
 6993W        W66529   4.838  17.087  14.795
 6994W        W66530  41.336  35.993  10.408
 6995W        W66531  33.559   3.242   0.803
 6996W        W66532  20.659   5.329  14.853
 6997W        W66533   2.916  39.942   1.290
 6998W        W66534  39.934   4.876   2.750
 6999W        W66535  15.611   7.387  10.140
 7000W        W66536  30.553   3.884   1.743
 7001W        W66537  10.643  31.962  12.893
 7002W        W66538  31.105   4.825  10.049
 7003W        W66539  29.086   5.387  14.907
 7004W        W66540   7.240  20.688  11.916
 7005W        W66541  22.685  30.027  11.514
 7006W        W66542  12.210  34.938   3.356
 7007W        W66543  23.080   9.785  11.931
 7008W        W66544   9.773  38.865   4.160
 7009W        W66545  19.231  23.066   2.345
 7010W        W66546  43.973   1.355  10.569
 7011W        W66547  38.462  12.227   1.327
 7012W        W66548  16.233  28.069   1.821
 7013W        W66549   9.375  27.672  13.044
 7014W        W66550  38.486   7.242  10.500
 7015W        W66551   9.726  12.220   2.310
 7016W        W66552  13.788  13.191  11.115
 7017W        W66553  40.883   1.332   3.161
 7018W        W66554  21.203  30.990   1.406
 7019W        W66555  21.650  28.564   4.646
 7020W        W66556  26.136  17.262  13.389
 7021W        W66557   9.281   0.313  11.438
 7022W        W66558  36.516   3.344   1.879
 7023W        W66559  15.749  12.668  12.861
 7024W        W66560  19.163  28.060  13.495
 7025W        W66561  33.096  42.885   4.820
 7026W        W66562  10.139   7.770   1.246
 7027W        W66563  40.544  34.914   3.332
 7028W        W66564  35.898  28.942  12.461
 7029W        W66565  17.174   2.919  14.845
 7030W        W66566  24.725  31.576  11.438
 7031W        W66567   9.381   7.378   0.480
 7032W        W66568  28.984  36.412  12.525
 7033W        W66569  33.903  12.211   2.836
 7034W        W66570  27.941  10.341   3.638
 7035W        W66571  16.190  42.482  12.969
 7036W        W66572   0.282   8.834   4.132
 7037W        W66573   3.936  20.632  11.073
 7038W        W66574  12.708  35.030   2.302
 7039W        W66575  40.317  37.088   3.260
 7040W        W66576  42.782  44.926  13.920
 7041W        W66577  42.835  33.434  10.050
 7042W        W66578  20.053   0.255  14.958
 7043W        W66579   2.356  42.927  14.968
 7044W        W66580   0.800  35.083   2.359
 7045W        W66581  31.907  24.010  11.599
 7046W        W66582  26.086  18.639   1.869
 7047W        W66583  19.143   5.395  12.530
 7048W        W66584   6.267  23.059   2.840
 7049W        W66585  17.585   7.824  13.855
 7050W        W66586  26.617   9.336   2.388
 7051W        W66587  13.637   9.859  11.085
 7052W        W66588  17.224  28.128   0.844
 7053W        W66589  11.696  29.137  11.920
 7054W        W66590  25.021  15.734   1.902
 7055W        W66591   8.705  30.025  13.833
 7056W        W66592  39.906   2.362  11.021
 7057W        W66593  40.354  33.397   3.774
 7058W        W66594  28.000  27.457  11.089
 7059W        W66595  28.956  22.045   4.778
 7060W        W66596  29.018  22.076   1.855
 7061W        W66597  10.164  43.277  11.403
 7062W        W66598  21.187  35.040  10.051
 7063W        W66599  33.996  38.444   4.730
 7064W        W66600   6.708  28.527   3.282
 7065W        W66601   4.780  39.828  14.335
 7066W        W66602   4.861   5.848  14.402
 7067W        W66603  14.797   4.709   3.841
 7068W        W66604  32.025   4.870  12.578
 7069W        W66605   0.920  10.206   4.351
 7070W        W66606  38.431  34.075   2.284
 7071W        W66607  40.331  42.785  12.838
 7072W        W66608  39.054  28.442  12.510
 7073W        W66609   9.164  25.484  13.837
 7074W        W66610  35.070  26.150  10.483
 7075W        W66611  20.560  30.479   4.336
 7076W        W66612   9.684   8.366   0.914
 7077W        W66613   1.326  31.402  12.037
 7078W        W66614  32.996   5.807  14.281
 7079W        W66615  20.619   8.277  12.020
 7080W        W66616  11.748  17.612  14.912
 7081W        W66617  38.351  36.886  14.425
 7082W        W66618   6.842  18.283  11.858
 7083W        W66619  41.840  11.213   1.906
 7084W        W66620  23.494   5.865  11.587
 7085W        W66621  37.920  38.952  11.564
 7086W        W66622  42.417  29.546  12.079
 7087W        W66623  14.677   6.398   2.751
 7088W        W66624  27.485  44.281  10.915
 7089W        W66625  23.517  43.880   4.807
 7090W        W66626  11.745  27.679   1.406
 7091W        W66627  35.423  36.902  10.438
 7092W        W66628  28.597  26.585   2.823
 7093W        W66629  40.946  41.877   4.651
 7094W        W66630  36.883  11.661   4.124
 7095W        W66631  15.658  14.657  13.797
 7096W        W66632  44.396  43.271  10.496
 7097W        W66633  24.212  40.047   1.871
 7098W        W66634  31.620  26.040  11.982
 7099W        W66635  21.158  29.457   5.304
 7100W        W66636  22.564  27.115  13.493
 7101W        W66637  44.981  40.429   4.347
 7102W        W66638  14.769   2.960   1.764
 7103W        W66639   2.314  35.455  14.852
 7104W        W66640  12.776  39.902  13.514
 7105W        W66641  21.598  41.900   0.411
 7106W        W66642  22.210  25.985   1.694
 7107W        W66643   9.186  17.201   1.229
 7108W        W66644   4.342  20.552  12.445
 7109W        W66645  18.771  12.804  14.934
 7110W        W66646  19.769  37.475   1.445
 7111W        W66647  14.328  28.121   3.176
 7112W        W66648  17.708  19.170  14.298
 7113W        W66649  42.463  37.962  14.354
 7114W        W66650  22.687  12.829  10.582
 7115W        W66651  10.735  22.997  10.897
 7116W        W66652  30.909  41.887   3.311
 7117W        W66653  33.551   6.274   4.714
 7118W        W66654  37.923   4.819  12.869
 7119W        W66655  34.385  17.600  13.791
 7120W        W66656  29.656  35.988   4.180
 7121W        W66657  32.892  44.434   2.839
 7122W        W66658  36.464  19.144   4.787
 7123W        W66659   7.209   3.916  12.842
 7124W        W66660  29.572  29.168  11.028
 7125W        W66661  39.498  27.687   4.709
 7126W        W66662  16.228  14.337  14.291
 7127W        W66663  30.627  31.539  14.997
 7128W        W66664  42.930   5.348  12.347
 7129W        W66665  40.335  35.364   1.754
 7130W        W66666   5.713  30.517   1.838
 7131W        W66667  13.656  43.516  14.025
 7132W        W66668  14.159  38.820   3.254
 7133W        W66669   9.330  36.917   0.852
 7134W        W66670  28.095  38.067   2.741
 7135W        W66671   5.404  15.295  10.630
 7136W        W66672  29.604  30.919   0.857
 7137W        W66673   9.347  27.105   4.257
 7138W        W66674  13.224  29.159   4.736
 7139W        W66675   5.210  39.334   4.290
 7140W        W66676   3.950  26.465   4.606
 7141W        W66677  28.648  31.002  10.892
 7142W        W66678  35.453  26.460  12.551
 7143W        W66679  17.801  16.616  14.502
 7144W        W66680  27.482  27.531  12.082
 7145W        W66681   1.297   8.336  11.462
 7146W        W66682   3.296  14.735  13.375
 7147W        W66683  24.097  22.652  14.815
 7148W        W66684   4.771   0.751  14.784
 7149W        W66685  35.595  43.984   2.696
 7150W        W66686  33.562  14.752  10.440
 7151W        W66687  10.804  14.173  14.323
 7152W        W66688  18.574  41.033   4.177
 7153W        W66689  16.154  36.585   1.729
 7154W        W66690  17.175  16.243   0.446
 7155W        W66691   3.832  35.402  12.931
 7156W        W66692   3.843   6.309   3.250
 7157W        W66693  15.278   9.271   2.329
 7158W        W66694  10.815  14.219   3.278
 7159W        W66695  27.950   0.419   3.850
 7160W        W66696  15.600  44.812  10.566
 7161W        W66697  28.083  18.114   1.694
 7162W        W66698   9.382  16.105   3.358
 7163W        W66699  26.980  24.010  14.000
 7164W        W66700  12.675  35.524   2.391
 7165W        W66701  41.969  20.167   3.323
 7166W        W66702  25.972  30.056  11.945
 7167W        W66703  12.137  19.122  11.951
 7168W        W66704  25.696   0.466  11.069
 7169W        W66705  11.692  38.832   3.198
 7170W        W66706  44.342  33.528   0.963
 7171W        W66707   8.284  23.239   0.276
 7172W        W66708  44.295  31.998  12.865
 7173W        W66709  20.594  29.462  11.958
 7174W        W66710  16.809  41.305  13.443
 7175W        W66711  40.822  29.137   1.705
 7176W        W66712  12.147  18.097   4.666
 7177W        W66713  25.988  41.986   0.808
 7178W        W66714  29.166  23.570  11.020
 7179W        W66715  22.074  10.154  12.401
 7180W        W66716  19.085  40.476   0.863
 7181W        W66717   9.221   5.794   3.166
 7182W        W66718  24.503  16.085  10.144
 7183W        W66719  33.950  33.620  14.403
 7184W        W66720   1.962   2.261  13.798
 7185W        W66721  36.999  24.484  11.462
 7186W        W66722  32.010   8.741   1.324
 7187W        W66723  41.337  40.917   0.267
 7188W        W66724  30.054   0.410  10.942
 7189W        W66725  26.978  24.106   3.683
 7190W        W66726  25.674   4.289  14.374
 7191W        W66727  39.328  42.952   2.809
 7192W        W66728  12.243  17.749   0.459
 7193W        W66729  35.380  11.745  12.419
 7194W        W66730   1.290   0.787   3.643
 7195W        W66731   8.382  34.881  14.447
 7196W        W66732  29.140  40.305  10.438
 7197W        W66733  36.098  39.034   4.222
 7198W        W66734  28.175  17.122  11.010
 7199W        W66735  11.768  38.982  13.056
 7200W        W66736  35.015  27.004   4.772
 7201W        W66737  21.161  19.715  14.436
 7202W        W66738   2.441  17.780  12.562
 7203W        W66739  33.956  39.499  13.383
 7204W        W66740  12.706  19.720   4.759
 7205W        W66741  13.764   2.795  12.930
 7206W        W66742  13.146   0.434   1.748
 7207W        W66743   5.416   3.855   3.359
 7208W        W66744  24.669   9.323  14.933
 7209W        W66745  39.514   4.362  11.935
 7210W        W66746  36.965  23.103   4.202
 7211W        W66747   5.288  41.836   0.948
 7212W        W66748  17.210  18.743   2.804
 7213W        W66749   3.904   3.429   3.838
 7214W        W66750   9.218  42.386  14.831
 7215W        W66751  33.119  17.146  13.004
 7216W        W66752  20.044  19.138  14.995
 7217W        W66753  32.590  31.635   1.413
 7218W        W66754  19.142   4.769   1.742
 7219W        W66755  32.097  17.667  13.346
 7220W        W66756  29.139  27.477   4.234
 7221W        W66757   0.475  43.880   1.273
 7222W        W66758  34.922  16.684  12.083
 7223W        W66759  16.092  43.935   0.319
 7224W        W66760  22.642  38.478   1.375
 7225W        W66761  31.467  26.598  13.322
 7226W        W66762   6.913  23.062  14.395
 7227W        W66763  28.099  40.528   1.934
 7228W        W66764  23.508  30.112   2.187
 7229W        W66765   7.724  40.438  12.036
 7230W        W66766  11.163  31.097   3.773
 7231W        W66767  15.283   0.297   3.633
 7232W        W66768  16.640  42.440   0.367
 7233W        W66769  20.556  39.978   1.323
 7234W        W66770  35.515   6.783   4.598
 7235W        W66771   2.286  38.009   0.805
 7236W        W66772  20.727  25.671   3.821
 7237W        W66773  21.243   4.322  13.922
 7238W        W66774  18.135   9.811   1.371
 7239W        W66775   0.857  40.389  11.386
 7240W        W66776  39.435  11.362  13.974
 7241W        W66777  30.601  44.926   1.421
 7242W        W66778  27.983  16.694  14.014
 7243W        W66779  33.028  10.331   3.335
 7244W        W66780  11.810  24.019  13.459
 7245W        W66781  44.988  44.753   1.848
 7246W        W66782   5.223  42.328   3.838
 7247W        W66783  13.219  40.030  12.545
 7248W        W66784  21.048  13.733  11.887
 7249W        W66785   4.372  21.625   1.295
 7250W        W66786  34.510   8.758   1.850
 7251W        W66787  41.984  14.272  12.873
 7252W        W66788   6.359  30.561   0.736
 7253W        W66789   2.939  19.764   0.850
 7254W        W66790  21.660   5.888   1.243
 7255W        W66791  31.611  43.958  14.344
 7256W        W66792   2.741  38.934  10.900
 7257W        W66793  11.831  26.017   1.726
 7258W        W66794  41.947  30.119  12.456
 7259W        W66795  22.217  22.562   0.820
 7260W        W66796  40.506  14.696  10.412
 7261W        W66797   8.836   7.377  14.947
 7262W        W66798  20.734  27.007  12.040
 7263W        W66799  16.164  12.273   2.686
 7264W        W66800  12.734  19.718   3.770
 7265W        W66801  43.884  41.907   1.428
 7266W        W66802  18.065  35.856  12.039
 7267W        W66803  12.613  18.559   2.710
 7268W        W66804   1.344   2.907   2.690
 7269W        W66805   7.671  21.685   0.790
 7270W        W66806  11.849  12.203   4.251
 7271W        W66807  38.823   4.307  13.461
 7272W        W66808  30.109  40.926  13.360
 7273W        W66809   8.795  33.983   3.840
 7274W        W66810  32.133  24.710  11.951
 7275W        W66811  40.802  34.456  10.453
 7276W        W66812   2.875   7.839   3.727
 7277W        W66813  18.597  21.224   1.862
 7278W        W66814   7.238  30.011  10.528
 7279W        W66815  31.915  30.598   4.716
 7280W        W66816  16.803  26.117   4.163
 7281W        W66817  35.465  30.577   2.741
 7282W        W66818  11.238  39.509  13.053
 7283W        W66819  31.051  21.619  14.421
 7284W        W66820  28.597  20.217   2.290
 7285W        W66821  15.711  35.068   0.438
 7286W        W66822  38.849   1.319   3.844
 7287W        W66823  41.976   9.676   4.304
 7288W        W66824   7.785   5.810   3.730
 7289W        W66825  30.571   7.787  11.973
 7290W        W66826  33.417   2.312   4.154
 7291W        W66827  16.179  44.366   4.658
 7292W        W66828  25.623   5.813  13.834
 7293W        W66829  39.949  10.657  10.991
 7294W        W66830  32.066   0.801   0.963
 7295W        W66831   5.780  15.741  10.417
 7296W        W66832  42.006   9.810  11.436
 7297W        W66833   9.821   2.261  12.433
 7298W        W66834  10.181  24.186   3.222
 7299W        W66835  27.549  32.413   4.263
 7300W        W66836  26.064  24.179   4.599
 7301W        W66837   2.265  23.512  14.894
 7302W        W66838  29.481  34.086  12.360
 7303W        W66839  38.845  35.865   2.780
 7304W        W66840  16.299  36.576  14.995
 7305W        W66841  27.022  44.909  12.028
 7306W        W66842  35.544  25.559   1.918
 7307W        W66843  33.564  42.413   1.311
 7308W        W66844   8.744  29.014  14.340
 7309W        W66845  10.248   6.424   4.680
 7310W        W66846  25.508  21.629   0.895
 7311W        W66847  30.934  40.524  11.947
 7312W        W66848  25.105  12.649   2.827
 7313W        W66849  10.747  38.051   3.859
 7314W        W66850  37.845  17.275   3.658
 7315W        W66851  30.572   5.900  10.462
 7316W        W66852  25.467  42.995  14.858
 7317W        W66853   6.283  30.931  13.900
 7318W        W66854  21.604  20.635  14.483
 7319W        W66855  18.769  21.653  12.580
 7320W        W66856  21.545  36.902  12.092
 7321W        W66857  38.442   4.358  13.869
 7322W        W66858  37.344  14.258  14.499
 7323W        W66859  16.682  29.458  12.895
 7324W        W66860   9.259  23.078   2.692
 7325W        W66861  39.321   0.938  13.053
 7326W        W66862  17.678  14.774  13.956
 7327W        W66863  20.730  41.824  12.964
 7328W        W66864  42.343  39.506   0.333
 7329W        W66865  17.687  10.702   4.678
 7330W        W66866  24.550  16.664   2.343
 7331W        W66867  34.012   6.820  12.050
 7332W        W66868  23.732  36.370   2.409
 7333W        W66869  44.488   3.433   9.989
 7334W        W66870  19.138  29.601  11.434
 7335W        W66871  33.909  31.411   2.766
 7336W        W66872  15.781  18.285  11.906
 7337W        W66873  42.921   5.846  12.095
 7338W        W66874  22.077  21.514  11.409
 7339W        W66875   2.871  32.402  10.483
 7340W        W66876  21.166  28.110  11.107
 7341W        W66877  24.119  26.540   2.727
 7342W        W66878  13.693  38.558   2.390
 7343W        W66879  40.526  33.618   2.249
 7344W        W66880  34.929  25.102   2.781
 7345W        W66881   0.339   4.742   3.267
 7346W        W66882  26.175  38.477  13.793
 7347W        W66883  18.144  20.116  14.304
 7348W        W66884  29.614  10.188  11.073
 7349W        W66885  39.889  43.892   0.448
 7350W        W66886  42.292  12.685   0.878
 7351W        W66887  36.098  30.109   3.245
 7352W        W66888   6.318  17.744  14.505
 7353W        W66889  36.071  29.114  12.023
 7354W        W66890  30.423  38.449   4.174
 7355W        W66891  36.900  19.672   1.315
 7356W        W66892  36.355  24.701  10.110
 7357W        W66893   5.783  31.960   1.819
 7358W        W66894  19.077  25.607   1.413
 7359W        W66895  31.985  37.363   4.186
 7360W        W66896  36.559  12.236   4.353
 7361W        W66897   9.720  33.067  12.829
 7362W        W66898   6.851  11.263   0.931
 7363W        W66899   5.900  24.703  14.343
 7364W        W66900   2.346  11.318  13.837
 7365W        W66901  19.257  25.058   3.705
 7366W        W66902  27.473  34.935   1.795
 7367W        W66903  10.208  40.467   1.416
 7368W        W66904   6.685  11.697   2.797
 7369W        W66905  24.531  23.065   0.871
 7370W        W66906   6.855   0.301  11.598
 7371W        W66907  35.991  38.515  14.882
 7372W        W66908   4.390  29.479  12.906
 7373W        W66909  13.207  32.998  14.831
 7374W        W66910   5.439  30.629   3.153
 7375W        W66911  23.618  10.789  14.963
 7376W        W66912  34.493  16.722  13.796
 7377W        W66913  38.425   4.774  12.014
 7378W        W66914  30.139  18.578  13.946
 7379W        W66915  29.999  39.459   1.711
 7380W        W66916  38.498  41.899  11.876
 7381W        W66917  23.669  16.127  11.951
 7382W        W66918  19.180   5.858  14.359
 7383W        W66919   9.296  31.507   4.154
 7384W        W66920  36.381  15.315  11.859
 7385W        W66921  14.784  43.938  13.519
 7386W        W66922   8.847  23.684  12.029
 7387W        W66923  43.863  27.970   1.780
 7388W        W66924   8.274  17.577   3.664
 7389W        W66925  29.100  12.740   1.322
 7390W        W66926  26.116  28.604  13.528
 7391W        W66927  29.662  42.432   3.381
 7392W        W66928  35.010  30.602  12.857
 7393W        W66929  31.430  39.394  10.409
 7394W        W66930  33.983   2.866  12.975
 7395W        W66931  16.645   2.918   0.890
 7396W        W66932  18.564  41.985  14.021
 7397W        W66933   6.237  38.960   0.335
 7398W        W66934  21.602  32.079   0.855
 7399W        W66935  15.659  41.802  10.542
 7400W        W66936  33.977  13.307  11.061
 7401W        W66937  37.884  18.104  12.072
 7402W        W66938   8.873  29.993   4.747
 7403W        W66939  43.383  38.824   4.216
 7404W        W66940  31.474   9.876   1.422
 7405W        W66941  12.729  44.503   4.685
 7406W        W66942   3.233   6.226  11.856
 7407W        W66943  16.087   0.431  12.960
 7408W        W66944  39.912   6.738   4.722
 7409W        W66945  27.572  40.490   2.416
 7410W        W66946  18.215  41.394  10.437
 7411W        W66947  10.363  31.961   1.822
 7412W        W66948  17.292  29.657  12.392
 7413W        W66949  24.488   3.344   3.345
 7414W        W66950  14.335  10.229   3.340
 7415W        W66951   7.762   4.891  10.008
 7416W        W66952  12.715  35.524   0.917
 7417W        W66953   7.675  19.098   2.704
 7418W        W66954  21.667   9.782  12.520
 7419W        W66955  12.833  23.527   1.358
 7420W        W66956  32.952   0.908   0.766
 7421W        W66957   9.884   1.818   4.207
 7422W        W66958  42.995  40.879  11.987
 7423W        W66959  37.960  25.480  12.827
 7424W        W66960   2.286   0.755   2.745
 7425W        W66961   6.211  23.734   1.737
 7426W        W66962   1.900  15.114  11.084
 7427W        W66963  24.049  44.770  11.967
 7428W        W66964  21.577  29.478   2.395
 7429W        W66965  12.703   3.214   3.688
 7430W        W66966  31.560  35.478   0.876
 7431W        W66967   3.277  13.748  12.519
 7432W        W66968  36.466   2.258  13.930
 7433W        W66969  18.220  11.351  10.915
 7434W        W66970  38.921  17.644  12.365
 7435W        W66971   2.368  28.617   2.763
 7436W        W66972   8.349   4.823  12.455
 7437W        W66973   8.834  16.602  14.327
 7438W        W66974  26.693  41.392   9.932
 7439W        W66975  38.387  20.542  13.801
 7440W        W66976  24.527  11.299  13.960
 7441W        W66977  36.038  18.093  14.927
 7442W        W66978  22.022  10.308   2.267
 7443W        W66979  37.045   3.853  12.013
 7444W        W66980  42.883  23.052   2.828
 7445W        W66981   2.422  40.316   4.354
 7446W        W66982  19.667   9.675   1.740
 7447W        W66983  21.524  13.336  13.369
 7448W        W66984   1.868  20.643   1.881
 7449W        W66985   0.263  13.264   1.776
 7450W        W66986  17.131   4.709   2.317
 7451W        W66987  12.215  11.364  11.978
 7452W        W66988  35.519  21.534  11.385
 7453W        W66989  40.509   9.686   1.287
 7454W        W66990  24.051  42.914   0.830
 7455W        W66991  32.958  24.070  14.302
 7456W        W66992  10.157   8.745   2.807
 7457W        W66993  12.256  41.351   1.431
 7458W        W66994  41.905  24.527  11.880
 7459W        W66995  44.765  32.564  11.495
 7460W        W66996  14.332   5.804   4.649
 7461W        W66997   8.361  38.925   2.741
 7462W        W66998   6.223  43.843  12.375
 7463W        W66999  20.200   6.308   2.248
 7464W        W67000  10.645   2.917   0.372
 7465W        W67001   3.379  10.347  12.497
 7466W        W67002  41.392  14.813   2.277
 7467W        W67003  34.098  17.226   4.277
 7468W        W67004  31.984  34.864   3.639
 7469W        W67005  24.623  39.451   3.202
 7470W        W67006  43.803   1.924   0.252
 7471W        W67007  23.492  26.655  11.040
 7472W        W67008  33.093  39.993  11.113
 7473W        W67009  31.971  32.020  11.989
 7474W        W67010  17.078  29.951  12.566
 7475W        W67011  27.482  33.393  13.935
 7476W        W67012   5.245  11.624   4.602
 7477W        W67013  37.025   6.318   0.771
 7478W        W67014  44.965   6.919   3.755
 7479W        W67015   4.887  26.190  13.023
 7480W        W67016  28.088  28.170  10.499
 7481W        W67017   0.455  10.245  11.899
 7482W        W67018  39.549   7.172  11.104
 7483W        W67019  27.515  26.574  12.387
 7484W        W67020  11.855   2.393   2.342
 7485W        W67021  39.455  31.551  14.921
 7486W        W67022  18.641  43.849   3.632
 7487W        W67023  27.975   4.866   1.310
 7488W        W67024   8.710   0.861  11.912
 7489W        W67025   8.312   6.202   9.997
 7490W        W67026  23.638   8.280  10.593
 7491W        W67027   0.283  36.980  12.058
 7492W        W67028  17.186  42.893  13.464
 7493W        W67029  31.965   7.890  10.949
 7494W        W67030  42.893  32.487  10.488
 7495W        W67031  35.962  19.071   2.337
 7496W        W67032  22.707  12.242   0.260
 7497W        W67033  20.656  16.762   3.769
 7498W        W67034  38.072  21.091   0.956
 7499W        W67035  28.965  18.663   3.848
 7500W        W67036  26.600  35.939  10.462
 7501W        W67037  30.610   9.770  11.994
 7502W        W67038  32.450   0.452   2.693
 7503W        W67039  16.264  25.155  10.923
 7504W        W67040  13.638  20.037   4.615
 7505W        W67041  29.515  42.342   2.259
 7506W        W67042  33.105  37.419  14.380
 7507W        W67043   8.391  36.094  11.029
 7508W        W67044   6.267   8.736   2.754
 7509W        W67045  23.527  31.593   3.832
 7510W        W67046  10.696  40.913  14.339
 7511W        W67047  40.384  31.933   0.753
 7512W        W67048  17.660  38.028  12.845
 7513W        W67049  26.096  12.707  14.406
 7514W        W67050  35.864  43.958  11.917
 7515W        W67051  10.735   2.864  13.392
 7516W        W67052  24.008  34.068   0.405
 7517W        W67053  20.223  42.027   4.602
 7518W        W67054  16.716  41.906   2.417
 7519W        W67055   3.352  13.131   0.359
 7520W        W67056  10.195   3.858  10.896
 7521W        W67057  20.544  29.000  12.533
 7522W        W67058   7.363   2.411  14.306
 7523W        W67059   6.747  40.988   0.728
 7524W        W67060  35.442   2.396   1.338
 7525W        W67061  20.184   6.906   3.370
 7526W        W67062  30.432  23.497   3.738
 7527W        W67063  17.680  27.599  14.842
 7528W        W67064   5.843  11.773  13.846
 7529W        W67065  18.765   7.276   1.435
 7530W        W67066  34.497  35.449   1.920
 7531W        W67067  39.062  15.153  13.374
 7532W        W67068  26.466  34.002   1.396
 7533W        W67069  10.329  10.666   2.296
 7534W        W67070   4.730   1.884  14.291
 7535W        W67071  42.379  41.930   0.277
 7536W        W67072   3.897   7.177  12.402
 7537W        W67073  42.824  27.042  10.949
 7538W        W67074  24.036   0.489  11.533
 7539W        W67075  32.083  12.744   0.892
 7540W        W67076  11.727   2.402  13.982
 7541W        W67077  24.685   8.171  13.839
 7542W        W67078  19.246  18.211  12.990
 7543W        W67079   3.943  21.673   2.330
 7544W        W67080  25.142  23.181  14.448
 7545W        W67081   4.420  39.469   1.275
 7546W        W67082  39.431   5.413   0.927
 7547W        W67083  14.158   9.363  11.911
 7548W        W67084  43.876   5.853   1.893
 7549W        W67085  14.735  34.102  14.824
 7550W        W67086  22.161  40.917  13.035
 7551W        W67087  12.833  14.778  11.462
 7552W        W67088  43.514  23.210   2.736
 7553W        W67089  29.470  30.044  14.497
 7554W        W67090   4.278  19.551  13.918
 7555W        W67091  17.752  20.221   2.763
 7556W        W67092  40.358  42.483  12.517
 7557W        W67093  41.036  13.295  12.013
 7558W        W67094   9.252  19.204   4.269
 7559W        W67095  25.547   8.299   0.362
 7560W        W67096  17.281  17.743  14.377
 7561W        W67097   1.321  10.701   4.695
 7562W        W67098  23.653  39.553   1.286
 7563W        W67099  34.592   8.884   4.176
 7564W        W67100  11.283  16.191  11.083
 7565W        W67101  11.862  26.150   2.730
 7566W        W67102   3.371   0.766  12.997
 7567W        W67103  36.964  16.720  11.947
 7568W        W67104  15.801  13.135   4.291
 7569W        W67105  38.052  30.441   3.829
 7570W        W67106  42.306  43.988   4.663
 7571W        W67107  36.984  15.134   1.851
 7572W        W67108  18.751  38.840   4.834
 7573W        W67109   8.324  34.009  10.543
 7574W        W67110   7.844  15.693   1.424
 7575W        W67111  33.979   3.321  10.964
 7576W        W67112  42.502  26.991   4.809
 7577W        W67113  24.542   7.873  13.378
 7578W        W67114   3.243  34.038  12.422
 7579W        W67115  41.346  16.722  12.366
 7580W        W67116   7.798  38.337  12.048
 7581W        W67117   8.771  33.060  11.377
 7582W        W67118  16.188  14.737   0.944
 7583W        W67119   3.768  44.998  13.431
 7584W        W67120  30.621   2.445  14.921
 7585W        W67121  43.465  19.594   3.770
 7586W        W67122  43.020  38.038   0.778
 7587W        W67123   5.424  11.629  13.822
 7588W        W67124  12.307  38.077  13.024
 7589W        W67125  35.379  13.806  12.508
 7590W        W67126  22.177  34.456  14.996
 7591W        W67127  24.495   3.902   4.167
 7592W        W67128  32.534  42.291   2.256
 7593W        W67129  42.830  25.096  12.977
 7594W        W67130  42.347  18.132  13.446
 7595W        W67131   9.814   7.207   3.306
 7596W        W67132   0.302  38.928   0.827
 7597W        W67133  10.216   9.258   2.356
 7598W        W67134  13.742  19.282   1.425
 7599W        W67135  37.915  35.872  11.865
 7600W        W67136  24.999   5.916   2.888
 7601W        W67137  19.706   4.764   2.196
 7602W        W67138  13.674  40.994   1.737
 7603W        W67139  28.960  33.441   0.908
 7604W        W67140  31.914  28.584   1.834
 7605W        W67141  32.100   1.842   2.306
 7606W        W67142   7.816  11.684  11.455
 7607W        W67143  22.515   4.217  12.874
 7608W        W67144  19.546  32.452  11.924
 7609W        W67145  41.405  14.722   0.344
 7610W        W67146  26.962   2.935   9.599
 7611W        W67147  15.657  22.050   4.298
 7612W        W67148  37.931  39.326   3.647
 7613W        W67149   3.414   2.336   3.156
 7614W        W67150  24.617  10.841   4.332
 7615W        W67151  34.966  14.095  10.560
 7616W        W67152  10.216  23.722   4.694
 7617W        W67153  40.322   3.729  13.354
 7618W        W67154  28.104   0.869   3.341
 7619W        W67155  32.030   4.895  10.484
 7620W        W67156  14.751  36.050   1.722
 7621W        W67157  25.017  19.598  13.455
 7622W        W67158  43.798  28.972  11.399
 7623W        W67159  14.694  28.469   4.692
 7624W        W67160  43.289  18.142  11.588
 7625W        W67161  36.051  44.864  13.358
 7626W        W67162  13.162   2.358  14.281
 7627W        W67163   9.291  42.345  10.439
 7628W        W67164  43.475  30.047  13.962
 7629W        W67165   2.228  26.645   2.715
 7630W        W67166  24.106  27.009   4.116
 7631W        W67167  25.678  35.009   4.265
 7632W        W67168  38.017   0.491  14.988
 7633W        W67169  19.106   5.433  11.045
 7634W        W67170  24.012  12.151   4.825
 7635W        W67171  32.037  26.142  10.971
 7636W        W67172  10.219  43.810  11.041
 7637W        W67173  37.464   7.687  11.959
 7638W        W67174  22.215  40.509   0.286
 7639W        W67175  22.147  11.706   2.764
 7640W        W67176   6.231  23.014   2.365
 7641W        W67177  25.053   7.709  12.879
 7642W        W67178   4.411   9.644  10.605
 7643W        W67179  31.520  16.813   4.758
 7644W        W67180   1.355  37.547   4.299
 7645W        W67181  16.678  43.943  12.456
 7646W        W67182  19.715  22.213   0.437
 7647W        W67183  31.589  18.603  13.427
 7648W        W67184  28.040  14.718  13.000
 7649W        W67185  12.207  25.695  13.914
 7650W        W67186  14.702   4.412   0.378
 7651W        W67187  30.997   0.358  12.032
 7652W        W67188   7.852  13.235   1.412
 7653W        W67189  36.081  39.819  10.905
 7654W        W67190  43.899   0.387  12.954
 7655W        W67191  29.144  43.504  12.895
 7656W        W67192  16.617  19.658  13.534
 7657W        W67193   6.696  19.684  11.099
 7658W        W67194  14.230  27.949  13.791
 7659W        W67195  38.352  28.531   1.294
 7660W        W67196  38.505  16.315   4.241
 7661W        W67197  29.636  30.636  12.917
 7662W        W67198   6.847  24.604   0.853
 7663W        W67199   9.167  14.669  12.942
 7664W        W67200  16.778  40.872   3.748
 7665W        W67201   2.902  28.486  11.865
 7666W        W67202  12.290  29.590  14.915
 7667W        W67203  14.212  27.151   1.338
 7668W        W67204  32.050   4.702  14.812
 7669W        W67205   7.363  24.110  14.408
 7670W        W67206  24.485  41.806   2.764
 7671W        W67207   8.302   9.836   0.901
 7672W        W67208  16.773  14.108   0.304
 7673W        W67209  24.081   3.290   0.877
 7674W        W67210  10.727  35.531  12.834
 7675W        W67211   2.360  24.105   3.709
 7676W        W67212  30.018  22.702  12.868
 7677W        W67213  40.012   9.258  13.830
 7678W        W67214  38.965  35.944   3.172
 7679W        W67215   1.826  21.114  12.984
 7680W        W67216  42.444  27.548   3.175
 7681W        W67217  18.785  39.980  12.537
 7682W        W67218  44.835   9.157   2.275
 7683W        W67219  36.400  13.759   1.723
 7684W        W67220  17.078  16.310  11.492
 7685W        W67221   3.232  42.405   1.276
 7686W        W67222  21.172  29.077   3.252
 7687W        W67223  29.005  28.100   1.417
 7688W        W67224  41.892  37.908  14.818
 7689W        W67225  21.033  21.161   1.226
 7690W        W67226   2.877   1.466  14.935
 7691W        W67227  38.994  35.031  12.475
 7692W        W67228   2.395  28.493   3.630
 7693W        W67229   8.820  28.140   4.652
 7694W        W67230  18.588   0.488   1.756
 7695W        W67231  23.518  33.062   3.146
 7696W        W67232  44.270  20.097  13.023
 7697W        W67233  26.987  11.802   4.741
 7698W        W67234  21.081  30.076   4.830
 7699W        W67235   4.428  12.721   0.860
 7700W        W67236  18.757   1.300   2.348
 7701W        W67237   1.938  10.702   4.688
 7702W        W67238   6.330  40.401  12.439
 7703W        W67239  21.071  22.191  13.002
 7704W        W67240  28.494  15.107  10.957
 7705W        W67241  18.647  18.546  13.051
 7706W        W67242  32.419   4.778  13.874
 7707W        W67243  20.705   4.350   9.677
 7708W        W67244  37.941  29.020  13.509
 7709W        W67245  16.683  21.067  14.990
 7710W        W67246   3.710  39.986  13.810
 7711W        W67247  30.926   5.838  14.867
 7712W        W67248   9.219   4.425  11.870
 7713W        W67249   6.847  17.070  11.857
 7714W        W67250   3.389  10.824   2.839
 7715W        W67251  16.675  38.334   3.859
 7716W        W67252   0.816  12.752   0.377
 7717W        W67253  18.653  11.633   1.368
 7718W        W67254  14.774  28.115   0.895
 7719W        W67255  21.069  17.169   0.826
 7720W        W67256  33.496  30.649   0.339
 7721W        W67257  23.648  15.709   4.615
 7722W        W67258  14.291  33.901  11.591
 7723W        W67259   8.308  25.673  13.975
 7724W        W67260   3.889   8.673   2.386
 7725W        W67261  24.580   8.334  13.471
 7726W        W67262  33.507  41.453  11.892
 7727W        W67263   0.494  30.501   0.329
 7728W        W67264  27.143  44.786  10.644
 7729W        W67265  32.965   9.351  11.490
 7730W        W67266  17.745   6.220  12.483
 7731W        W67267   4.744   5.427  14.408
 7732W        W67268   0.342  36.498   2.358
 7733W        W67269  23.215  34.605   0.950
 7734W        W67270   9.329  21.571   0.296
 7735W        W67271  23.717  35.934   3.653
 7736W        W67272  28.544  14.820  13.385
 7737W        W67273   8.723  25.110  14.859
 7738W        W67274  25.577  17.115   3.709
 7739W        W67275  11.668  40.034  10.588
 7740W        W67276  34.420  29.966  11.083
 7741W        W67277  21.200  16.270  11.467
 7742W        W67278  35.959   4.395  13.878
 7743W        W67279  15.765  26.686  14.024
 7744W        W67280  35.916  26.566  12.010
 7745W        W67281  19.060  19.063   5.729
 7746W        W67282   0.807   6.823  14.012
 7747W        W67283   9.213  29.139  11.105
 7748W        W67284  23.604  38.914  13.997
 7749W        W67285   9.394  24.183  14.877
 7750W        W67286   7.844   6.920   4.702
 7751W        W67287  43.344  31.023   1.879
 7752W        W67288  23.514  39.814  14.349
 7753W        W67289   4.226  23.517   0.316
 7754W        W67290  36.945  38.394  14.361
 7755W        W67291  29.583  36.489   0.956
 7756W        W67292   2.886  41.890   2.231
 7757W        W67293   5.429  31.419  14.792
 7758W        W67294  36.407  35.555   0.926
 7759W        W67295  37.540  23.592   0.859
 7760W        W67296  28.025  28.472  12.527
 7761W        W67297  14.642  30.923   0.759
 7762W        W67298   9.360  33.069  12.501
 7763W        W67299  20.246  21.212   2.753
 7764W        W67300   8.372  36.016   0.349
 7765W        W67301  11.695  23.182  10.971
 7766W        W67302  42.958  43.351   1.384
 7767W        W67303  17.156  20.270  11.945
 7768W        W67304  24.990   4.856  12.580
 7769W        W67305  27.686   2.293   4.834
 7770W        W67306   0.817  22.615  11.886
 7771W        W67307  37.528  36.398  11.531
 7772W        W67308  13.742  12.643  11.529
 7773W        W67309  27.044  33.491  14.342
 7774W        W67310  27.657  23.999  14.444
 7775W        W67311   4.410  17.747  14.872
 7776W        W67312   4.258   8.717   5.284
 7777W        W67313  21.569  17.094   9.671
 7778W        W67314  21.050   4.364  13.334
 7779W        W67315   6.405  12.691  10.586
 7780W        W67316  14.707  11.347  11.915
 7781W        W67317  26.496   3.388  13.929
 7782W        W67318  16.591  18.783  10.574
 7783W        W67319  17.289  38.946   3.198
 7784W        W67320  13.787  38.857   0.469
 7785W        W67321  27.077  32.982   2.393
 7786W        W67322  31.059  44.358   1.775
 7787W        W67323  26.491  12.726  14.338
 7788W        W67324  33.894   0.898   2.740
 7789W        W67325   6.247  40.797   3.331
 7790W        W67326  44.830   6.287  11.518
 7791W        W67327   5.804  27.054   0.322
 7792W        W67328  42.848  16.641   4.802
 7793W        W67329  38.463  12.797   3.727
 7794W        W67330   3.404  41.295   0.249
 7795W        W67331  42.322  10.227   3.250
 7796W        W67332  28.013   4.839  11.593
 7797W        W67333  10.829  23.561  10.545
 7798W        W67334  31.468  10.243  12.400
 7799W        W67335  37.918  35.938   2.678
 7800W        W67336  29.530   2.821  14.342
 7801W        W67337  21.057  38.904   5.216
 7802W        W67338  41.788  12.240  14.867
 7803W        W67339  43.784  13.759  10.498
 7804W        W67340  31.427  10.259  11.981
 7805W        W67341  18.224  16.802  13.828
 7806W        W67342  25.168  28.629   4.744
 7807W        W67343  43.959  27.963  12.093
 7808W        W67344  33.432   2.759   0.886
 7809W        W67345   3.877  30.580   0.293
 7810W        W67346   9.156  17.752  12.442
 7811W        W67347   3.372  22.184   4.659
 7812W        W67348  19.119  42.827   3.636
 7813W        W67349  34.526  19.636  13.827
 7814W        W67350  23.239  29.992   4.208
 7815W        W67351  40.535  33.608  11.884
 7816W        W67352   0.750  21.021   2.790
 7817W        W67353  28.030   8.666  10.909
 7818W        W67354  26.674  25.495  13.030
 7819W        W67355  36.863  26.526   0.943
 7820W        W67356  35.000  36.991  11.613
 7821W        W67357  14.651   0.924   1.837
 7822W        W67358  13.670   4.726  13.445
 7823W        W67359  23.166  20.639  12.041
 7824W        W67360   5.900  29.425  14.796
 7825W        W67361   1.798  16.806  14.500
 7826W        W67362   7.700  43.371   4.660
 7827W        W67363  32.531   7.374  14.024
 7828W        W67364  29.659  34.590  12.972
 7829W        W67365   1.892   4.428   1.919
 7830W        W67366  13.136  36.558   3.378
 7831W        W67367  31.923   5.881   1.442
 7832W        W67368  28.439  44.818   1.839
 7833W        W67369  36.090  23.515   2.225
 7834W        W67370  42.329   1.954   4.743
 7835W        W67371  16.275   5.785  14.957
 7836W        W67372   4.239   7.702  10.470
 7837W        W67373  11.653  15.178  13.801
 7838W        W67374  42.987   5.801  12.501
 7839W        W67375  33.113   6.258  13.943
 7840W        W67376  19.587  21.639   3.301
 7841W        W67377  32.603  20.253  11.003
 7842W        W67378  42.895  39.059   3.334
 7843W        W67379   9.749  25.177   5.313
 7844W        W67380  32.588  18.253  13.867
 7845W        W67381  29.937  25.018  13.869
 7846W        W67382  35.856  38.010   4.821
 7847W        W67383  24.693  24.012  10.467
 7848W        W67384  27.571  13.600  10.913
 7849W        W67385  37.038  39.514   2.757
 7850W        W67386  31.480  44.938  11.514
 7851W        W67387  15.735  33.577   5.256
 7852W        W67388  25.026  37.007   0.862
 7853W        W67389   8.207  27.989  12.879
 7854W        W67390  26.992  43.944  12.944
 7855W        W67391  27.652  29.965   2.416
 7856W        W67392  29.051  24.043  12.915
 7857W        W67393  13.715   4.262  11.971
 7858W        W67394  20.669   3.761  14.373
 7859W        W67395  19.676  19.753  12.511
 7860W        W67396   5.933  31.591   2.206
 7861W        W67397  36.490  25.107   5.210
 7862W        W67398  18.266  14.757   1.364
 7863W        W67399  37.431  40.303  11.925
 7864W        W67400  12.281  15.127  11.944
 7865W        W67401  44.414   0.369   4.753
 7866W        W67402  14.628  40.343   1.735
 7867W        W67403  19.777  40.829  10.966
 7868W        W67404   2.469  29.550  12.918
 7869W        W67405  44.265  24.516   1.294
 7870W        W67406  15.724  36.048  10.556
 7871W        W67407  28.606  27.976  13.970
 7872W        W67408  42.775  43.283   4.314
 7873W        W67409  37.847   3.783  10.417
 7874W        W67410  42.333  28.589  10.999
 7875W        W67411   2.927  28.185  10.069
 7876W        W67412  19.079  44.264   3.809
 7877W        W67413   3.375  30.625   3.754
 7878W        W67414  19.268  30.530  10.499
 7879W        W67415   0.386  42.308   2.717
 7880W        W67416  40.896  29.016  12.549
 7881W        W67417  41.031  17.771   3.649
 7882W        W67418  25.991   5.836   2.277
 7883W        W67419  34.046  32.944   0.937
 7884W        W67420   5.421  42.890  12.559
 7885W        W67421  24.688  33.560  14.481
 7886W        W67422  32.595  38.845   2.375
 7887W        W67423  24.997  15.642   2.829
 7888W        W67424  21.619  18.147   2.890
 7889W        W67425  16.101  10.307  11.903
 7890W        W67426  21.644  20.745   3.222
 7891W        W67427  26.954  40.388  14.307
 7892W        W67428  27.059  29.036  12.968
 7893W        W67429  39.499   3.270  13.519
 7894W        W67430   7.392  34.958   1.883
 7895W        W67431  37.983  18.230  12.482
 7896W        W67432  33.011  23.724   1.298
 7897W        W67433  38.939  20.142   2.242
 7898W        W67434  31.435  41.308   4.701
 7899W        W67435  27.130  30.474  12.574
 7900W        W67436  17.601  32.995  10.556
 7901W        W67437  10.382  13.620  13.857
 7902W        W67438   7.690  26.570  13.965
 7903W        W67439   2.905  28.673   1.433
 7904W        W67440  41.427  18.151   2.706
 7905W        W67441   5.874   8.680   3.149
 7906W        W67442  16.767  29.615   0.366
 7907W        W67443  10.742  39.844   2.741
 7908W        W67444  11.347  17.255  10.566
 7909W        W67445  27.504  17.672  12.397
 7910W        W67446  36.988  24.498  13.340
 7911W        W67447  30.076  15.150   0.762
 7912W        W67448  42.892  18.704  14.880
 7913W        W67449  28.172  29.456  10.626
 7914W        W67450  44.829  30.088   1.696
 7915W        W67451  20.675   5.415  12.006
 7916W        W67452  36.456  12.694   2.341
 7917W        W67453  40.338  30.950   4.719
 7918W        W67454  36.400   9.192  14.800
 7919W        W67455   5.317  31.063   2.843
 7920W        W67456   5.428  40.443  10.439
 7921W        W67457  39.863  11.699   0.845
 7922W        W67458  23.200  43.512  14.904
 7923W        W67459  29.052  29.654   0.387
 7924W        W67460  44.954  19.541  14.382
 7925W        W67461  23.681  13.813   2.899
 7926W        W67462  11.676   2.738   3.797
 7927W        W67463  38.939  37.857   4.176
 7928W        W67464   5.257  16.691   4.742
 7929W        W67465  25.577  17.624   0.785
 7930W        W67466  21.674  21.152  12.892
 7931W        W67467  15.693  34.557  10.944
 7932W        W67468  26.684   5.356  14.461
 7933W        W67469  31.416  30.452  12.849
 7934W        W67470  18.724  13.322  11.426
 7935W        W67471  34.916  43.462   3.235
 7936W        W67472  11.837   6.717  11.879
 7937W        W67473  22.734  39.315  11.110
 7938W        W67474   4.929  10.734  10.488
 7939W        W67475   4.796  29.468  11.589
 7940W        W67476   1.820  23.608   2.327
 7941W        W67477  22.736  16.199   4.214
 7942W        W67478  36.377  41.523  11.912
 7943W        W67479  17.089  34.117   3.718
 7944W        W67480  38.947   5.882   4.353
 7945W        W67481  17.744  41.423  12.496
 7946W        W67482  30.074  39.040  12.506
 7947W        W67483  22.732   4.210   0.928
 7948W        W67484  41.332  37.044  11.104
 7949W        W67485  30.031  43.807   0.924
 7950W        W67486  27.616  38.410   2.796
 7951W        W67487  15.172  23.615   3.164
 7952W        W67488   5.202  14.327   2.679
 7953W        W67489   5.225  15.757  13.386
 7954W        W67490   2.331   8.664   3.851
 7955W        W67491  40.040  24.700  10.410
 7956W        W67492  37.359  41.038  10.614
 7957W        W67493  21.116  39.866   0.794
 7958W        W67494  32.613  21.092   2.297
 7959W        W67495   0.379  18.061  14.799
 7960W        W67496  25.038  14.819  14.836
 7961W        W67497  26.970  44.282  11.515
 7962W        W67498  22.115  32.481   0.911
 7963W        W67499  40.459  33.484  11.426
 7964W        W67500  44.975  15.277  11.053
 7965W        W67501  19.753  12.215   2.217
 7966W        W67502  26.648  19.206   2.397
 7967W        W67503  24.666   7.323   0.945
 7968W        W67504  32.406   4.346  11.479
 7969W        W67505  27.156  22.083   1.822
 7970W        W67506  39.490  30.422  11.577
 7971W        W67507   1.414  18.679  12.024
 7972W        W67508  42.319  21.562  13.968
 7973W        W67509  34.373  24.632   0.316
 7974W        W67510  44.782  16.198  10.594
 7975W        W67511   9.167  23.696   3.662
 7976W        W67512  29.452  26.041   1.300
 7977W        W67513  31.544  40.850  13.919
 7978W        W67514  12.745   4.858   1.781
 7979W        W67515   9.883   0.415  14.981
 7980W        W67516   0.410  28.512  12.057
 7981W        W67517  41.958  40.807  14.010
 7982W        W67518  28.025  14.695   2.801
 7983W        W67519  24.551  32.086   4.818
 7984W        W67520  40.001  17.665  11.574
 7985W        W67521   5.332  28.447   2.201
 7986W        W67522  25.492  27.190  13.053
 7987W        W67523  31.971  33.977  12.867
 7988W        W67524  39.837  35.079   2.774
 7989W        W67525  10.268   9.833  14.894
 7990W        W67526  16.721   8.371   1.701
 7991W        W67527  23.508   0.431   1.409
 7992W        W67528  26.190   6.251   3.688
 7993W        W67529  16.283  37.476  12.958
 7994W        W67530  28.998  16.620  13.010
 7995W        W67531   9.702  39.380   1.795
 7996W        W67532  18.600  32.530  12.908
 7997W        W67533  35.106  25.672   0.953
 7998W        W67534  17.730  23.535   1.337
 7999W        W67535  10.282  23.211  13.910
 8000W        W67536  21.040  21.684   3.341
 8001W        W67537  41.982  42.314  10.573
 8002W        W67538   6.786  28.008  11.455
 8003W        W67539  27.473  40.472  12.941
 8004W        W67540  42.341  25.645   1.885
 8005W        W67541  24.047  28.084   4.214
 8006W        W67542  44.294  22.555  14.823
 8007W        W67543  12.357  39.847   1.842
 8008W        W67544  43.796  24.230   2.831
 8009W        W67545  31.561  19.707  14.019
 8010W        W67546   4.313  18.271   1.412
 8011W        W67547  28.084  13.305   2.400
 8012W        W67548  40.343  38.467   4.599
 8013W        W67549  36.873  36.019  10.469
 8014W        W67550  11.809  28.530  10.468
 8015W        W67551  38.028  42.407   3.866
 8016W        W67552  21.054  40.834  13.466
 8017W        W67553  12.613   4.356   4.344
 8018W        W67554  28.950   6.807   1.727
 8019W        W67555  36.433  13.194   4.747
 8020W        W67556   8.812  23.068  14.984
 8021W        W67557  31.068  40.439   0.417
 8022W        W67558   9.342   5.908   0.853
 8023W        W67559  26.169   8.374   5.249
 8024W        W67560  44.993  11.180   0.462
 8025W        W67561  38.935  38.040   3.333
 8026W        W67562  44.953   3.419   0.929
 8027W        W67563  25.026  41.890  14.989
 8028W        W67564  39.974  16.078  10.615
 8029W        W67565   5.248  31.648   1.762
 8030W        W67566  16.576  13.187   3.844
 8031W        W67567  28.089  14.679   0.461
 8032W        W67568   5.354   3.269   3.780
 8033W        W67569  40.864  10.358   0.421
 8034W        W67570  36.887   3.254   5.195
 8035W        W67571  26.109  17.560   1.275
 8036W        W67572  41.374  39.347  13.450
 8037W        W67573  33.004  16.265   4.680
 8038W        W67574  38.967  37.033   2.180
 8039W        W67575  21.058  25.493  13.831
 8040W        W67576  11.351  42.470  12.880
 8041W        W67577  37.063  29.006   4.668
 8042W        W67578   4.837  29.172  12.987
 8043W        W67579  33.892   0.484  11.396
 8044W        W67580  32.974  42.836   2.279
 8045W        W67581   6.192  26.526  14.903
 8046W        W67582  13.217  15.285   2.678
 8047W        W67583  18.246  24.596   2.766
 8048W        W67584  16.162  39.948  13.434
 8049W        W67585  10.713   3.271   4.793
 8050W        W67586  33.122  13.828   2.184
 8051W        W67587   7.353  35.052  11.412
 8052W        W67588  31.051  24.996   0.955
 8053W        W67589  20.119  35.578   0.807
 8054W        W67590   9.153  31.077  14.884
 8055W        W67591  21.241   7.371   1.823
 8056W        W67592  12.198  25.158  13.891
 8057W        W67593  30.137  25.492  14.295
 8058W        W67594  39.384  44.984  14.010
 8059W        W67595  25.469  41.522   2.190
 8060W        W67596  26.162   6.721   2.682
 8061W        W67597  10.870  10.255  13.969
 8062W        W67598  42.294  23.692  12.880
 8063W        W67599  14.239  11.227  10.640
 8064W        W67600  10.726   4.373   1.295
 8065W        W67601  33.908  33.993  12.961
 8066W        W67602   7.355   6.746  12.995
 8067W        W67603  41.393  43.823  12.438
 8068W        W67604  28.469  11.329   1.725
 8069W        W67605   3.928  32.503  14.887
 8070W        W67606  42.402  31.418   3.174
 8071W        W67607  19.183  22.642  14.449
 8072W        W67608  37.850   3.276  10.617
 8073W        W67609  37.508   5.194   1.264
 8074W        W67610  18.553   0.804   2.858
 8075W        W67611   1.423  16.717  10.999
 8076W        W67612   9.721   7.735  11.855
 8077W        W67613  26.115   3.712   3.645
 8078W        W67614   6.352  25.682  12.580
 8079W        W67615  27.543  25.992  10.442
 8080W        W67616  40.499  10.633   1.865
 8081W        W67617  33.534  14.685  14.436
 8082W        W67618   0.802  18.198   1.875
 8083W        W67619  30.046  23.212  13.435
 8084W        W67620   8.172  12.357  14.931
 8085W        W67621  13.787   7.229   1.425
 8086W        W67622  44.325  17.248   1.291
 8087W        W67623  34.513   5.688  11.492
 8088W        W67624   3.936  41.970   2.335
 8089W        W67625   2.229  32.023   1.270
 8090W        W67626   9.173  21.667  14.965
 8091W        W67627  23.614   1.964  14.452
 8092W        W67628   7.260  41.399   0.398
 8093W        W67629  29.081  21.160  11.938
 8094W        W67630   1.871   0.290   3.176
 8095W        W67631  17.088   4.317   3.734
 8096W        W67632   1.915   6.842   2.377
 8097W        W67633   6.722  22.563  11.121
 8098W        W67634  29.584  39.983  10.994
 8099W        W67635  13.618  22.578   1.397
 8100W        W67636  12.640  35.415  10.414
 8101W        W67637  29.975  27.969   0.284
 8102W        W67638  19.231   0.323   2.877
 8103W        W67639  17.081   8.402  11.411
 8104W        W67640   0.455  20.100  11.446
 8105W        W67641  24.610  32.443  13.061
 8106W        W67642  23.200  34.005  12.381
 8107W        W67643  24.990  40.462   2.890
 8108W        W67644  11.784   1.954   2.269
 8109W        W67645  12.246  24.551   2.722
 8110W        W67646  13.826  21.521   0.869
 8111W        W67647  17.132  44.822   1.222
 8112W        W67648  18.149  23.108   1.935
 8113W        W67649  25.029  44.983  14.405
 8114W        W67650  12.348  37.472   4.706
 8115W        W67651  11.770  32.453   1.268
 8116W        W67652  28.167  31.542   2.814
 8117W        W67653  20.696  12.244   1.792
 8118W        W67654  27.661  30.987  11.061
 8119W        W67655  28.947  44.485  12.063
 8120W        W67656  22.059   6.755  10.946
 8121W        W67657  20.525  38.953  12.469
 8122W        W67658  15.600  28.594   0.801
 8123W        W67659   4.221  12.712   4.155
 8124W        W67660  43.455  21.244  11.996
 8125W        W67661  16.639  14.613   3.292
 8126W        W67662   4.450  25.580   0.456
 8127W        W67663  20.675  25.633   2.739
 8128W        W67664  17.618  36.886   0.902
 8129W        W67665  35.888  20.058   1.752
 8130W        W67666  44.807  26.463   3.855
 8131W        W67667  41.961   2.435   2.285
 8132W        W67668  16.126  40.394  14.003
 8133W        W67669  19.162   2.911   2.201
 8134W        W67670  43.367  21.743   3.216
 8135W        W67671  43.785   2.385   0.275
 8136W        W67672  14.269  29.142   4.316
 8137W        W67673  30.584   8.377  12.542
 8138W        W67674  40.487  42.823  14.868
 8139W        W67675   3.282  10.696  14.810
 8140W        W67676  27.463  34.975   3.855
 8141W        W67677  31.475  29.640  14.473
 8142W        W67678   7.208   9.650  11.981
 8143W        W67679  10.864  17.241  11.969
 8144W        W67680   0.472  29.003   4.125
 8145W        W67681   5.218  40.952   3.751
 8146W        W67682   5.363  33.585   2.221
 8147W        W67683   8.310  20.250   0.736
 8148W        W67684  21.655  42.405  10.955
 8149W        W67685  11.625  38.539   1.376
 8150W        W67686  32.059  40.903  12.934
 8151W        W67687  14.148   2.353  13.481
 8152W        W67688  42.517   0.830  13.496
 8153W        W67689  29.462   7.302   0.897
 8154W        W67690  13.328   7.826  13.018
 8155W        W67691  13.825  19.142   3.736
 8156W        W67692  38.931  20.680  10.571
 8157W        W67693   3.250  40.501  12.570
 8158W        W67694  10.723   5.349   2.364
 8159W        W67695  18.663  13.284   1.833
 8160W        W67696  16.298  23.609  11.098
 8161W        W67697  32.483  11.700   0.309
 8162W        W67698  23.620  15.681  11.553
 8163W        W67699  38.834  19.271   3.324
 8164W        W67700  38.551  22.708   1.349
 8165W        W67701  25.551  22.673  13.986
 8166W        W67702  31.571  35.395  10.603
 8167W        W67703  24.183  33.073  11.591
 8168W        W67704  13.133   8.743   1.391
 8169W        W67705  15.693   6.319   5.120
 8170W        W67706  41.803  35.388   4.205
 8171W        W67707  36.992  10.364  12.359
 8172W        W67708   0.844   3.875   1.410
 8173W        W67709   2.457   2.781  12.905
 8174W        W67710  32.428   6.830  14.976
 8175W        W67711  28.637  20.727  12.421
 8176W        W67712  34.531  10.381  11.553
 8177W        W67713  13.760  18.184  13.793
 8178W        W67714  13.135  35.374  12.394
 8179W        W67715  25.186   7.360  13.931
 8180W        W67716   3.779  44.914   4.216
 8181W        W67717   2.371   8.708  12.483
 8182W        W67718   2.916  32.527   4.726
 8183W        W67719   5.798  19.759  10.555
 8184W        W67720  32.898  18.177   4.284
 8185W        W67721   4.367   9.206   2.761
 8186W        W67722  25.143  26.543   4.316
 8187W        W67723  43.441  35.941   3.213
 8188W        W67724  39.853  12.656   4.262
 8189W        W67725   8.301   5.778   3.272
 8190W        W67726  22.543   7.707  11.889
 8191W        W67727  36.859   4.934  11.391
 8192W        W67728  22.020  15.674   1.891
 8193W        W67729  15.292  24.592   4.706
 8194W        W67730  13.774  15.741   0.258
 8195W        W67731  23.139  31.002  11.086
 8196W        W67732  41.944  15.222  14.388
 8197W        W67733  13.244  18.055  10.579
 8198W        W67734  33.548  24.065  12.551
 8199W        W67735  22.121   0.836  14.367
 8200W        W67736  18.185   4.913  10.891
 8201W        W67737  31.009  12.640   0.395
 8202W        W67738  32.955  27.098  14.840
 8203W        W67739  34.910  34.492  13.966
 8204W        W67740   5.374  41.899   3.818
 8205W        W67741  26.512  36.580   3.714
 8206W        W67742  14.302  13.296  14.366
 8207W        W67743  26.535  29.662   0.853
 8208W        W67744  27.462  26.020  13.879
 8209W        W67745   2.428  16.640   2.322
 8210W        W67746  26.016  17.604   1.794
 8211W        W67747  12.648  44.467  13.312
 8212W        W67748  14.306  33.955  12.921
 8213W        W67749  11.191  14.151  12.383
 8214W        W67750   1.931  44.849  13.538
 8215W        W67751   2.405  15.786   2.848
 8216W        W67752   9.197  35.429   4.264
 8217W        W67753  15.122  37.976  10.960
 8218W        W67754  32.601  41.027  14.770
 8219W        W67755  11.238  10.693   3.286
 8220W        W67756   8.846   0.878   5.223
 8221W        W67757  20.526  10.173   3.303
 8222W        W67758  34.564   1.833  14.425
 8223W        W67759  32.410  37.996  10.964
 8224W        W67760   3.883  14.101  12.417
 8225W        W67761  28.442  37.037   0.479
 8226W        W67762  41.034  44.485   3.755
 8227W        W67763  18.216  34.114  13.431
 8228W        W67764  23.499  25.065   0.345
 8229W        W67765   6.770  33.974   2.751
 8230W        W67766  17.100  32.909   1.336
 8231W        W67767  39.396  35.991   1.886
 8232W        W67768   4.285  36.462   4.349
 8233W        W67769  29.613  40.890   4.807
 8234W        W67770   6.236  44.973  10.899
 8235W        W67771  19.097  12.658   1.219
 8236W        W67772  19.635  41.428   0.924
 8237W        W67773  21.119  24.699  13.864
 8238W        W67774  41.487  24.710   4.192
 8239W        W67775   5.322  40.373  13.412
 8240W        W67776   0.895  28.950  11.949
 8241W        W67777  35.411  44.420   3.280
 8242W        W67778  17.225  22.034  11.463
 8243W        W67779  13.681  13.263  12.959
 8244W        W67780   9.783  41.817  10.501
 8245W        W67781   5.318  38.432   2.838
 8246W        W67782   9.884   0.334  11.462
 8247W        W67783  44.434  23.094   2.771
 8248W        W67784  20.612  13.343  13.945
 8249W        W67785  30.525  37.338  12.078
 8250W        W67786  31.068   2.389  13.331
 8251W        W67787   2.253  21.257  12.004
 8252W        W67788  23.994   7.259   0.888
 8253W        W67789  26.688   2.936  10.627
 8254W        W67790   7.241  40.497   2.309
 8255W        W67791   3.394  31.005  11.908
 8256W        W67792   2.353  12.317  10.583
 8257W        W67793  17.705  39.456  14.508
 8258W        W67794   0.361   4.339   0.389
 8259W        W67795   9.288  18.545   2.321
 8260W        W67796   9.293  32.465   1.372
 8261W        W67797  40.017   4.705   3.170
 8262W        W67798  32.016  27.052   1.790
 8263W        W67799  21.657  38.886  12.417
 8264W        W67800   8.246  39.902  14.313
 8265W        W67801  17.722  39.980   4.241
 8266W        W67802   1.915   8.727   2.765
 8267W        W67803  13.328  42.441   1.396
 8268W        W67804  17.300  32.427  11.554
 8269W        W67805   8.702  30.056  14.901
 8270W        W67806  33.425  38.029   4.726
 8271W        W67807  22.009  33.926  11.386
 8272W        W67808  22.566  38.395  14.333
 8273W        W67809   4.207  15.193  14.805
 8274W        W67810  44.853   4.392   2.227
 8275W        W67811  43.895  28.990   3.159
 8276W        W67812  27.993  17.139  14.946
 8277W        W67813  43.292  38.458  10.582
 8278W        W67814  35.858   4.857  11.064
 8279W        W67815  11.231  25.626   5.208
 8280W        W67816  28.043  35.093  13.060
 8281W        W67817  43.417   9.851  11.910
 8282W        W67818  13.224  20.725  13.999
 8283W        W67819  10.190   1.821  13.836
 8284W        W67820  23.112  15.265   3.680
 8285W        W67821  14.811  26.199   3.241
 8286W        W67822   6.253   3.357   1.399
 8287W        W67823   5.408   0.902   0.777
 8288W        W67824  25.035  15.206  14.492
 8289W        W67825  19.195   7.305   1.335
 8290W        W67826  33.574   0.302   4.188
 8291W        W67827   5.423  25.037  13.396
 8292W        W67828  30.485  33.952   4.263
 8293W        W67829  20.685  39.971   4.307
 8294W        W67830  22.219  18.093   0.927
 8295W        W67831  17.177  39.321  10.946
 8296W        W67832   2.280  35.428  13.467
 8297W        W67833  11.357  39.008   4.737
 8298W        W67834   9.157  35.516   1.353
 8299W        W67835  41.954  36.984  14.949
 8300W        W67836  30.952  42.973   3.307
 8301W        W67837   2.835  38.326   0.343
 8302W        W67838   8.730   7.716  12.464
 8303W        W67839   2.299  39.376  10.956
 8304W        W67840  29.543  39.558   2.787
 8305W        W67841  27.099  32.547   3.373
 8306W        W67842  10.656  29.670   0.964
 8307W        W67843  42.014   9.795   2.350
 8308W        W67844  15.673  23.188   0.482
 8309W        W67845  11.800  24.507   1.726
 8310W        W67846   8.835  28.969  13.840
 8311W        W67847  26.476   4.739   0.286
 8312W        W67848  40.940  13.252   2.208
 8313W        W67849  39.451  43.775   4.788
 8314W        W67850  14.140   2.908  14.379
 8315W        W67851  34.423   4.250  12.929
 8316W        W67852   5.433  18.572  10.620
 8317W        W67853   4.385   0.766  10.951
 8318W        W67854  44.396  14.180  12.497
 8319W        W67855  41.350  41.374  11.441
 8320W        W67856  43.850  19.275  14.337
 8321W        W67857  34.388  23.068   2.872
 8322W        W67858   4.724   1.341   2.354
 8323W        W67859  36.962  40.820   3.213
 8324W        W67860  42.881  24.506   3.146
 8325W        W67861  39.540  20.190  11.526
 8326W        W67862  39.443  31.123  14.952
 8327W        W67863  27.970  44.308  12.525
 8328W        W67864  23.536   5.778   4.729
 8329W        W67865   9.343  20.659  13.910
 8330W        W67866  44.263  23.593  12.387
 8331W        W67867  17.124  18.725  12.474
 8332W        W67868  15.309   5.327   2.787
 8333W        W67869  28.075  21.242   1.386
 8334W        W67870  16.270  25.628   1.229
 8335W        W67871  33.123  19.544  14.354
 8336W        W67872  26.577  42.444  10.502
 8337W        W67873   4.713  13.119   3.700
 8338W        W67874  39.503  12.231   2.702
 8339W        W67875  33.911  39.461   4.193
 8340W        W67876   8.744  36.070  13.803
 8341W        W67877  33.934  34.110   3.284
 8342W        W67878  17.556  14.112   1.366
 8343W        W67879  12.617  36.950  13.347
 8344W        W67880  34.112   8.755   3.843
 8345W        W67881   4.237  24.710  11.451
 8346W        W67882  38.397  24.081   4.662
 8347W        W67883  10.212  25.565   2.227
 8348W        W67884  42.288   4.317   3.226
 8349W        W67885  31.907  41.361   2.380
 8350W        W67886  24.651   9.778  13.996
 8351W        W67887  27.549  36.444   4.185
 8352W        W67888  20.197  33.874  11.945
 8353W        W67889  21.642  23.523   1.711
 8354W        W67890  24.170  29.105  12.085
 8355W        W67891  34.010  37.019   1.359
 8356W        W67892  41.014  10.377  12.539
 8357W        W67893  25.160  40.948   2.769
 8358W        W67894  40.351  23.528   4.706
 8359W        W67895  17.118  43.426  13.333
 8360W        W67896   1.857  16.602   2.734
 8361W        W67897  24.523  26.984  13.834
 8362W        W67898  19.672  44.504   3.352
 8363W        W67899  41.489  19.725   0.343
 8364W        W67900  18.082   5.758  13.831
 8365W        W67901  34.927  17.094  10.895
 8366W        W67902  16.227   9.687   3.630
 8367W        W67903  33.564  14.590   1.263
 8368W        W67904  12.179  37.965  11.380
 8369W        W67905  34.396  33.939   2.382
 8370W        W67906  15.755  10.234  14.991
 8371W        W67907  14.808  34.586  12.450
 8372W        W67908   2.439  26.994   5.729
 8373W        W67909  44.832  22.193   4.611
 8374W        W67910  34.951   5.930  14.949
 8375W        W67911  20.676   1.937   0.901
 8376W        W67912  29.103  14.763  14.295
 8377W        W67913  26.632  35.408   0.945
 8378W        W67914  44.388  33.046   9.935
 8379W        W67915  25.685  41.339  11.040
 8380W        W67916  14.591  18.682   1.259
 8381W        W67917  10.173  30.047   0.884
 8382W        W67918  20.206  27.136  13.418
 8383W        W67919  37.337  11.801  10.524
 8384W        W67920   8.746  38.440   3.797
 8385W        W67921  23.127   9.282   3.740
 8386W        W67922  35.979  39.856   3.635
 8387W        W67923  44.884  35.923   4.196
 8388W        W67924   3.766  17.588   3.200
 8389W        W67925  42.281   7.231   4.618
 8390W        W67926  39.500  36.397   1.859
 8391W        W67927  40.537  38.855  10.589
 8392W        W67928  32.572  24.080  13.048
 8393W        W67929  28.504   9.815   1.818
 8394W        W67930   4.712  22.746  11.420
 8395W        W67931  22.512   6.258  10.625
 8396W        W67932  35.935  13.829  11.415
 8397W        W67933  19.275  10.845   1.308
 8398W        W67934  39.858  21.136   0.728
 8399W        W67935   4.857  41.538   3.792
 8400W        W67936  42.472  42.845   4.157
 8401W        W67937  36.978  29.520   1.703
 8402W        W67938  43.493   6.715   2.757
 8403W        W67939  25.610  20.625  14.825
 8404W        W67940  35.906  35.897   1.765
 8405W        W67941  28.451  33.012   4.269
 8406W        W67942   1.468  19.053  14.424
 8407W        W67943   4.421   8.201   4.302
 8408W        W67944  28.183  32.918   4.652
 8409W        W67945  39.032  15.289   2.837
 8410W        W67946  26.600  11.320   1.813
 8411W        W67947  16.662   6.287   1.772
 8412W        W67948  36.063   1.760   5.208
 8413W        W67949  13.691  28.081   1.901
 8414W        W67950  31.005  11.246  14.285
 8415W        W67951  19.062  38.383  10.462
 8416W        W67952  39.559  31.152   3.378
 8417W        W67953   1.786  41.973   2.858
 8418W        W67954  15.823  10.145  13.377
 8419W        W67955  10.375   9.196   1.773
 8420W        W67956  40.502  44.758   4.244
 8421W        W67957  29.098  23.724   3.262
 8422W        W67958  31.554  12.629   0.936
 8423W        W67959  38.392  38.956  14.994
 8424W        W67960   8.230  44.347  14.953
 8425W        W67961  32.116   2.329   3.819
 8426W        W67962  14.240   4.867  11.869
 8427W        W67963  11.145  28.470   0.831
 8428W        W67964  35.906   6.677   4.669
 8429W        W67965  20.650  26.547  11.929
 8430W        W67966  20.067   1.772  14.867
 8431W        W67967  40.498  17.591  14.801
 8432W        W67968  30.468  40.887   2.761
 8433W        W67969  16.162   5.349   1.931
 8434W        W67970   2.402   4.255  13.830
 8435W        W67971  37.847  26.957   0.962
 8436W        W67972   8.370  21.125   4.607
 8437W        W67973  16.721   9.655  13.051
 8438W        W67974   3.829  37.051   0.738
 8439W        W67975  23.010   9.355   3.161
 8440W        W67976   1.777  14.322  13.426
 8441W        W67977  40.817   6.834   1.836
 8442W        W67978  40.861  15.119  11.597
 8443W        W67979  24.697  43.305   1.932
 8444W        W67980   2.893  24.194   3.840
 8445W        W67981   7.399  37.361   0.905
 8446W        W67982  24.631  11.629   0.441
 8447W        W67983  21.020  11.328  12.017
 8448W        W67984  14.233  26.681   1.934
 8449W        W67985  24.048  27.653   0.383
 8450W        W67986   1.454  34.933  13.032
 8451W        W67987  10.806  35.032  12.046
 8452W        W67988  27.687  17.211  11.990
 8453W        W67989  32.502  21.552  11.077
 8454W        W67990  32.961  41.940   2.324
 8455W        W67991  39.016  26.093   3.845
 8456W        W67992  28.975   7.361  12.435
 8457W        W67993  39.455  26.550  10.411
 8458W        W67994   3.292  18.635  12.874
 8459W        W67995  21.549  35.471   2.189
 8460W        W67996   7.783  10.692   3.635
 8461W        W67997  23.160   7.362   3.839
 8462W        W67998  13.748   1.975  14.472
 8463W        W67999  21.754   5.409   5.588
 8464W        W68000  12.646  14.689   2.230
 8465W        W68001  18.566  22.655  11.486
 8466W        W68002  28.453   6.721   1.852
 8467W        W68003  12.251  43.976   1.738
 8468W        W68004  37.480  28.511  10.545
 8469W        W68005   3.461  44.847  13.410
 8470W        W68006  37.454  31.402   1.248
 8471W        W68007  37.430  23.231  12.426
 8472W        W68008  43.396   6.226  11.870
 8473W        W68009  36.439   7.317  11.507
 8474W        W68010  32.406   7.327   1.329
 8475W        W68011  27.187  34.376   0.464
 8476W        W68012  19.659  44.960   0.773
 8477W        W68013  16.616   8.332   0.338
 8478W        W68014  43.387   2.737  10.546
 8479W        W68015   0.935   0.857   2.332
 8480W        W68016  40.894  10.872  13.010
 8481W        W68017  22.505  28.475  10.962
 8482W        W68018  40.894   2.314  10.447
 8483W        W68019   9.312  44.410   1.338
 8484W        W68020  34.420  36.574   1.247
 8485W        W68021   5.928  10.861  12.888
 8486W        W68022   7.321  43.392  12.490
 8487W        W68023  31.045  19.123  13.509
 8488W        W68024   2.913  25.060   3.274
 8489W        W68025   6.299  23.984  12.026
 8490W        W68026  24.578  34.029  13.364
 8491W        W68027  24.641  26.018   0.278
 8492W        W68028  43.982   5.247   1.274
 8493W        W68029  10.751  30.610   3.772
 8494W        W68030  34.509   3.889   2.716
 8495W        W68031  18.278  27.119  14.477
 8496W        W68032  39.545  35.007  11.106
 8497W        W68033  20.608  10.730  14.902
 8498W        W68034  40.017   2.722   3.793
 8499W        W68035   2.384  14.151   4.168
 8500W        W68036   6.800  10.744   4.659
 8501W        W68037  23.720  27.116   1.746
 8502W        W68038  31.134  30.537   0.869
 8503W        W68039   9.664  28.076  12.372
 8504W        W68040  11.222  23.025  10.982
 8505W        W68041  41.970  11.768   2.852
 8506W        W68042  33.991  30.508  13.923
 8507W        W68043  26.564  43.409   3.803
 8508W        W68044  26.201  14.612   1.437
 8509W        W68045   2.747  10.193  12.088
 8510W        W68046  40.963   2.759   5.621
 8511W        W68047  22.597  29.031  10.148
 8512W        W68048  38.908  31.529  13.962
 8513W        W68049  33.491  32.561   4.640
 8514W        W68050  26.997  15.254  10.628
 8515W        W68051   4.334  44.306   3.269
 8516W        W68052   0.848   4.699   3.287
 8517W        W68053  17.275   2.928  13.399
 8518W        W68054  34.099  15.689  11.871
 8519W        W68055   5.777  35.579   1.437
 8520W        W68056   4.333  19.536  10.525
 8521W        W68057  35.036  37.048  11.934
 8522W        W68058  21.069  10.187   3.774
 8523W        W68059  23.077  38.041   0.948
 8524W        W68060   2.295  29.092  13.058
 8525W        W68061   6.269  27.000  12.841
 8526W        W68062  13.718   4.355  11.590
 8527W        W68063   9.811  44.302  13.531
 8528W        W68064   6.397  16.141  12.462
 8529W        W68065  42.315   8.355  11.003
 8530W        W68066  25.699   6.880   3.695
 8531W        W68067  19.747  44.902  11.458
 8532W        W68068  36.060  24.988   5.210
 8533W        W68069  19.608  19.191   3.270
 8534W        W68070  33.981  15.759   0.377
 8535W        W68071  20.612  32.992  14.925
 8536W        W68072  32.541  16.635   3.722
 8537W        W68073  10.742  30.608  10.614
 8538W        W68074  29.511  31.448   1.728
 8539W        W68075   1.466  32.924   3.365
 8540W        W68076  40.882  18.207  13.522
 8541W        W68077   0.421  41.391  12.860
 8542W        W68078  36.907  12.132   4.259
 8543W        W68079   3.799  32.481   1.898
 8544W        W68080   3.352  27.662   1.229
 8545W        W68081   1.308  22.050   3.773
 8546W        W68082  42.802   4.258  14.911
 8547W        W68083  42.996  31.110  11.593
 8548W        W68084  32.442  26.483   5.109
 8549W        W68085  43.840   2.230   1.738
 8550W        W68086   3.763  25.550   3.364
 8551W        W68087  16.747  20.148   0.301
 8552W        W68088  25.035   2.786   1.295
 8553W        W68089  34.490  33.033  12.517
 8554W        W68090  10.216  24.617  14.772
 8555W        W68091  39.967  21.104   1.897
 8556W        W68092  32.609  43.962   4.786
 8557W        W68093  33.079   8.682  11.390
 8558W        W68094  24.223  36.855   0.444
 8559W        W68095  34.085   8.732   2.370
 8560W        W68096  16.208   0.913  10.489
 8561W        W68097   0.746   7.872   2.759
 8562W        W68098  25.065   0.801  13.321
 8563W        W68099  31.481  39.056  14.286
 8564W        W68100  23.992  40.486   2.296
 8565W        W68101  16.098  40.929  12.027
 8566W        W68102   5.749  36.973  11.510
 8567W        W68103   4.371  25.621   2.254
 8568W        W68104  44.768  10.712   0.862
 8569W        W68105  34.559  15.276  11.860
 8570W        W68106  42.450   4.208   4.121
 8571W        W68107  18.553  44.973   1.933
 8572W        W68108  37.857  16.175  14.877
 8573W        W68109  34.459  29.990   1.289
 8574W        W68110   6.707  30.517   0.402
 8575W        W68111  15.779  33.038   2.381
 8576W        W68112  36.973  36.572   4.651
 8577W        W68113   7.835  27.627   4.303
 8578W        W68114  26.090   1.812  12.044
 8579W        W68115  13.657   0.298  13.815
 8580W        W68116  33.435  42.434   2.772
 8581W        W68117  40.862  42.779  14.478
 8582W        W68118  25.127  33.618   0.353
 8583W        W68119  31.034  26.092  13.972
 8584W        W68120  21.523  34.076   3.272
 8585W        W68121  24.615  16.779   1.434
 8586W        W68122   9.830   5.274   3.632
 8587W        W68123  44.471  27.986  13.528
 8588W        W68124   5.329  29.669   2.286
 8589W        W68125   2.961  44.893  14.506
 8590W        W68126  28.120  23.096  14.973
 8591W        W68127  33.515  18.760   3.735
 8592W        W68128  42.811  22.539  11.965
 8593W        W68129  30.506  24.212  12.434
 8594W        W68130  16.628  26.983   0.839
 8595W        W68131   2.239   3.774   1.224
 8596W        W68132  29.587   1.856   4.236
 8597W        W68133  36.496  34.592   2.838
 8598W        W68134  34.881  15.588   5.120
 8599W        W68135  34.018  31.552  10.983
 8600W        W68136   1.419  36.499   1.734
 8601W        W68137  21.528  16.722   3.867
 8602W        W68138  15.586   2.815   1.409
 8603W        W68139  23.023  39.849  12.038
 8604W        W68140  35.014  44.357  11.004
 8605W        W68141  10.830  35.543  14.471
 8606W        W68142  32.482   2.749  10.549
 8607W        W68143   4.764  38.416  13.366
 8608W        W68144  27.454  21.589  13.490
 8609W        W68145  18.702   2.418   0.263
 8610W        W68146  20.047  11.694  11.500
 8611W        W68147  25.628  19.075   2.329
 8612W        W68148  20.228  11.291  14.966
 8613W        W68149  10.724  16.666   0.300
 8614W        W68150  16.299   0.407   3.685
 8615W        W68151  26.973   5.915   5.203
 8616W        W68152  38.825  13.331  11.422
 8617W        W68153  10.750  39.867  11.563
 8618W        W68154  22.664  29.039   3.352
 8619W        W68155  13.816  21.215   4.129
 8620W        W68156   7.290  17.252  13.315
 8621W        W68157   4.769  16.114  13.870
 8622W        W68158  17.062  44.267  10.575
 8623W        W68159   2.833   6.726  11.469
 8624W        W68160  24.554  16.804   3.290
 8625W        W68161   9.372  38.484   3.744
 8626W        W68162   4.901  36.976   5.208
 8627W        W68163   4.298   4.319   2.889
 8628W        W68164  20.707  38.352   3.341
 8629W        W68165  27.633  30.564   3.648
 8630W        W68166   0.760   3.358  13.059
 8631W        W68167  43.813  14.169   5.575
 8632W        W68168  42.023  38.973   2.317
 8633W        W68169  28.443  24.544  10.980
 8634W        W68170  15.268  21.690  13.353
 8635W        W68171  18.642  18.751   0.960
 8636W        W68172   8.729  29.433  10.455
 8637W        W68173  39.362  40.911   2.878
 8638W        W68174  24.162  27.992   0.457
 8639W        W68175   4.872  37.834  14.415
 8640W        W68176   7.698  19.690   1.451
 8641W        W68177  11.183  26.004   0.297
 8642W        W68178  28.463  23.645   1.424
 8643W        W68179   6.242   0.920  10.622
 8644W        W68180  22.503  15.227   4.302
 8645W        W68181  17.299   3.349  14.891
 8646W        W68182   1.272   8.403   0.310
 8647W        W68183  42.007  37.866   1.431
 8648W        W68184  19.247  39.047  10.932
 8649W        W68185  22.692  12.821   0.383
 8650W        W68186  33.920  40.835   0.477
 8651W        W68187   1.923  42.977   4.744
 8652W        W68188  19.242   6.407  12.561
 8653W        W68189  26.696   0.901  11.939
 8654W        W68190  18.191  28.077  11.114
 8655W        W68191  40.435  40.022   2.752
 8656W        W68192   7.692  37.951   0.756
 8657W        W68193  22.690  44.969  11.470
 8658W        W68194  11.775  30.044  10.639
 8659W        W68195  22.068  15.316   1.252
 8660W        W68196  27.992   6.889  10.105
 8661W        W68197   4.937   5.333   0.766
 8662W        W68198  41.998  29.081  12.879
 8663W        W68199   8.335  14.637   2.209
 8664W        W68200  15.577  16.812  11.114
 8665W        W68201  29.121  39.500   0.837
 8666W        W68202  23.149  31.577  12.469
 8667W        W68203  13.671  26.008  11.087
 8668W        W68204   7.323  15.617  12.428
 8669W        W68205  23.089  35.382  12.447
 8670W        W68206  43.775  21.151  13.018
 8671W        W68207   9.217   8.859   4.161
 8672W        W68208   4.886  20.594   0.769
 8673W        W68209  33.536  21.045  14.004
 8674W        W68210  21.620   4.335   1.894
 8675W        W68211  34.510  15.619  12.452
 8676W        W68212   7.683  44.944   1.221
 8677W        W68213  18.288  38.501  10.431
 8678W        W68214   1.763  23.643  12.382
 8679W        W68215  18.791  38.516   4.727
 8680W        W68216  27.626  13.763  14.029
 8681W        W68217   3.866  23.040  11.600
 8682W        W68218  15.242  11.234   2.323
 8683W        W68219  40.477  25.594  13.987
 8684W        W68220  35.459  34.487  13.340
 8685W        W68221   8.762  15.734  10.476
 8686W        W68222  43.804  26.170  11.068
 8687W        W68223  39.408  31.574  13.518
 8688W        W68224  31.065  37.034  11.486
 8689W        W68225  14.284   5.438  12.560
 8690W        W68226  40.807  18.249   1.726
 8691W        W68227  31.931  30.418  12.026
 8692W        W68228  10.367  37.454  12.390
 8693W        W68229   4.723   9.803  14.009
 8694W        W68230  26.487  16.247  13.996
 8695W        W68231  44.849  32.462  14.304
 8696W        W68232  36.989  27.514   0.778
 8697W        W68233  24.624  13.680   2.802
 8698W        W68234  27.670  27.535   3.838
 8699W        W68235  38.901  17.719  13.054
 8700W        W68236  13.648  21.124   3.226
 8701W        W68237  24.974  19.151  14.385
 8702W        W68238  16.702   5.358   2.720
 8703W        W68239   2.246  13.685  10.924
 8704W        W68240   7.346  29.516   2.837
 8705W        W68241  13.788  28.600   3.752
 8706W        W68242   9.264   6.392   0.964
 8707W        W68243  10.308  35.054  13.802
 8708W        W68244  31.896  42.477   4.166
 8709W        W68245  12.819  43.013   3.266
 8710W        W68246  14.624   5.352  11.092
 8711W        W68247  40.825  38.496   1.861
 8712W        W68248  33.575  34.984  13.884
 8713W        W68249  35.979   0.484   3.284
 8714W        W68250  30.641  23.201  14.844
 8715W        W68251  36.975  15.710   1.355
 8716W        W68252  36.521   8.329  14.922
 8717W        W68253  27.185  31.520  12.496
 8718W        W68254   0.461  21.179   3.827
 8719W        W68255  34.528   2.322   2.195
 8720W        W68256  24.481  25.563   3.290
 8721W        W68257   5.276   3.237   4.113
 8722W        W68258   2.953  22.734   3.174
 8723W        W68259  39.823  28.017  11.946
 8724W        W68260  14.708  12.161   0.928
 8725W        W68261  17.175  15.217   2.671
 8726W        W68262  11.761  23.228   1.256
 8727W        W68263   3.915  29.459  11.082
 8728W        W68264  36.425  26.124  10.541
 8729W        W68265   8.682  31.479   4.256
 8730W        W68266  40.492  40.406   4.719
 8731W        W68267   4.238  22.626   4.730
 8732W        W68268  17.605  41.835  11.577
 8733W        W68269   5.266  34.080  11.580
 8734W        W68270  21.113  42.937  11.903
 8735W        W68271  44.784  35.924   3.683
 8736W        W68272  25.555  32.558   4.184
 8737W        W68273  40.413  12.701   1.284
 8738W        W68274  44.404   4.390   2.413
 8739W        W68275   7.254  13.682  14.816
 8740W        W68276  17.729  17.641  13.345
 8741W        W68277   8.323  10.220   2.187
 8742W        W68278   7.356  31.092  10.974
 8743W        W68279  15.140  17.234   2.325
 8744W        W68280  35.393   0.263   0.390
 8745W        W68281   1.892  10.719   1.409
 8746W        W68282   8.175  42.377   4.247
 8747W        W68283  10.232  42.425   3.693
 8748W        W68284  12.693  22.072   3.665
 8749W        W68285   5.219   9.742   4.599
 8750W        W68286  38.921  42.872   3.826
 8751W        W68287  14.621  33.535   3.819
 8752W        W68288   9.156  27.625   4.287
 8753W        W68289   4.397  36.569  12.489
 8754W        W68290  44.817   7.383  10.503
 8755W        W68291   0.312  15.811  14.310
 8756W        W68292  22.057  17.687   3.845
 8757W        W68293  40.840  16.135  14.887
 8758W        W68294  35.480   4.881  12.547
 8759W        W68295  34.391   6.405  11.043
 8760W        W68296  25.686   2.430  13.461
 8761W        W68297  10.170  12.162  14.773
 8762W        W68298  14.609  21.736   1.899
 8763W        W68299   7.678  33.533   1.764
 8764W        W68300   3.945  35.933   0.743
 8765W        W68301  39.965  25.571  10.548
 8766W        W68302  31.033  26.478  12.869
 8767W        W68303   8.376   3.223   3.148
 8768W        W68304   3.410   4.727  10.911
 8769W        W68305   5.722   0.442   4.741
 8770W        W68306   2.470  10.699  13.377
 8771W        W68307   7.341  19.243   1.803
 8772W        W68308  43.365  35.076   1.405
 8773W        W68309  29.076   6.314  12.420
 8774W        W68310  44.001  11.182   2.828
 8775W        W68311  30.117  11.265  11.577
 8776W        W68312  28.139   3.296   5.315
 8777W        W68313  41.527  16.233  11.903
 8778W        W68314   5.250  21.607   1.847
 8779W        W68315  36.934   0.334  10.059
 8780W        W68316  29.517  31.151   2.398
 8781W        W68317  41.803  20.717  14.799
 8782W        W68318   9.799   7.808   5.718
 8783W        W68319  10.178   4.278   3.668
 8784W        W68320   9.227   1.908   1.349
 8785W        W68321  43.334  43.828  11.871
 8786W        W68322  22.031  34.432   3.329
 8787W        W68323  20.657  28.590  14.414
 8788W        W68324  33.055   3.737   3.321
 8789W        W68325  37.975  22.600  13.310
 8790W        W68326   2.433  41.032  11.956
 8791W        W68327   4.869   6.883  13.024
 8792W        W68328   4.447  20.041   0.836
 8793W        W68329  16.632  37.923  14.353
 8794W        W68330  43.814  41.979   3.797
 8795W        W68331  17.590  21.560   0.859
 8796W        W68332   0.971   5.329   0.844
 8797W        W68333   8.747  44.477  11.087
 8798W        W68334  15.083  20.152  10.923
 8799W        W68335  33.492  33.946   0.430
 8800W        W68336  26.974  13.259  11.568
 8801W        W68337  15.220  33.561   2.193
 8802W        W68338  24.052  36.071   2.817
 8803W        W68339  16.699   0.828   4.805
 8804W        W68340  27.449  21.540  10.105
 8805W        W68341  23.682  26.202  13.493
 8806W        W68342   3.319  18.701  11.567
 8807W        W68343   4.210  42.414   1.721
 8808W        W68344  21.134   8.790   3.316
 8809W        W68345  35.420  37.513   0.784
 8810W        W68346   3.251  42.352   2.315
 8811W        W68347   6.368  43.278  12.061
 8812W        W68348  27.094  15.123  11.008
 8813W        W68349  29.107  14.114  12.035
 8814W        W68350  19.577  28.518  13.399
 8815W        W68351  20.226  29.977  13.536
 8816W        W68352   4.269  44.286  12.887
 8817W        W68353  31.953   7.257  14.441
 8818W        W68354  21.620  27.512   4.234
 8819W        W68355  23.222   8.695  12.029
 8820W        W68356  33.067  10.246   0.282
 8821W        W68357  26.649  29.502   5.154
 8822W        W68358  32.617  20.761  12.549
 8823W        W68359  23.577  15.328  13.411
 8824W        W68360   7.312  39.377   3.693
 8825W        W68361  28.626  12.153   2.850
 8826W        W68362  25.551   6.189   1.243
 8827W        W68363   1.935   9.207   4.319
 8828W        W68364  40.388  30.063   2.404
 8829W        W68365  16.121  15.593  10.533
 8830W        W68366  24.497  25.210  11.876
 8831W        W68367   4.827  38.009   2.715
 8832W        W68368  17.147  23.118   3.733
 8833W        W68369  31.929  31.102   5.242
 8834W        W68370  20.537  36.895   2.412
 8835W        W68371   2.726  28.930  14.454
 8836W        W68372  43.480   8.765   2.715
 8837W        W68373  24.536  21.033   1.421
 8838W        W68374  15.134  35.492  14.497
 8839W        W68375  26.690  23.652   4.145
 8840W        W68376  28.042  10.251  14.876
 8841W        W68377  26.150   4.734  14.324
 8842W        W68378   5.717  39.898   3.682
 8843W        W68379  41.834  31.586  12.384
 8844W        W68380  16.273  34.615   3.803
 8845W        W68381  23.178  26.493   0.803
 8846W        W68382   4.870  34.910  12.045
 8847W        W68383  23.143   8.762   4.234
 8848W        W68384  27.477   3.378  11.950
 8849W        W68385  14.803  40.447   4.599
 8850W        W68386   6.690  25.522   3.205
 8851W        W68387  24.170  11.372   0.966
 8852W        W68388   8.337   0.759  10.465
 8853W        W68389  29.481  29.032  10.104
 8854W        W68390  43.926  21.746  12.065
 8855W        W68391  11.199  34.090  12.339
 8856W        W68392  29.515  40.810   3.701
 8857W        W68393  44.274  36.909   0.250
 8858W        W68394  17.085  15.199   1.352
 8859W        W68395   5.815   3.376  12.472
 8860W        W68396  13.340  30.038   2.820
 8861W        W68397   3.840  16.077  11.891
 8862W        W68398  42.989  19.619   0.369
 8863W        W68399   5.431  38.925   2.795
 8864W        W68400  22.208  36.377  13.387
 8865W        W68401  15.099  41.417   1.434
 8866W        W68402  31.597  14.220   1.380
 8867W        W68403  11.800  43.853  13.361
 8868W        W68404  19.092  24.671  14.510
 8869W        W68405  44.378  41.907   4.350
 8870W        W68406  20.743  33.025   2.344
 8871W        W68407  27.960  44.760  10.983
 8872W        W68408  24.718  25.017  14.500
 8873W        W68409  21.703  19.174   1.368
 8874W        W68410   1.779  10.178   1.414
 8875W        W68411  24.484  14.312   2.832
 8876W        W68412  23.122  25.036   3.335
 8877W        W68413  19.762   3.292  12.446
 8878W        W68414  21.742   4.438   2.718
 8879W        W68415  21.662   0.341  14.397
 8880W        W68416  37.930  34.388   4.300
 8881W        W68417  37.892  16.121   3.643
 8882W        W68418  13.320  37.508   3.293
 8883W        W68419  39.059  38.388  14.765
 8884W        W68420  14.676  19.743  14.455
 8885W        W68421  43.773  28.081   1.234
 8886W        W68422  43.016  27.502   4.229
 8887W        W68423   0.436   4.790   2.793
 8888W        W68424  22.586  27.590   1.824
 8889W        W68425  21.129  39.343   1.793
 8890W        W68426   5.752  27.656   0.834
 8891W        W68427   8.788  15.778  11.050
 8892W        W68428  25.693  39.321   2.722
 8893W        W68429   6.862  30.526   2.272
 8894W        W68430  41.942  27.503   3.295
 8895W        W68431  36.866  22.584  12.872
 8896W        W68432  25.611  15.274   1.698
 8897W        W68433   0.348  20.632   3.208
 8898W        W68434  44.321  41.838   1.212
 8899W        W68435   6.913   9.830   1.920
 8900W        W68436  27.083  33.527  12.020
 8901W        W68437  33.439  40.333   2.229
 8902W        W68438  18.661  20.733  10.468
 8903W        W68439  26.470   2.816   2.338
 8904W        W68440  35.094  10.321   4.725
 8905W        W68441  15.763  25.525  10.626
 8906W        W68442  22.090   1.899   9.947
 8907W        W68443  36.347  22.145   3.344
 8908W        W68444  38.415   8.259   2.330
 8909W        W68445  38.847  18.196  12.964
 8910W        W68446  30.512   3.806  14.337
 8911W        W68447  36.897  12.273  13.827
 8912W        W68448   3.293  11.345   2.221
 8913W        W68449  33.558  41.452   2.337
 8914W        W68450  34.602   9.358  12.887
 8915W        W68451  38.372  10.754  10.444
 8916W        W68452  42.419  16.301   4.275
 8917W        W68453  20.095   7.699   0.327
 8918W        W68454  14.589  16.122  11.019
 8919W        W68455  27.651  19.704  10.521
 8920W        W68456   9.662  15.117  11.872
 8921W        W68457  12.119  11.784  13.814
 8922W        W68458   8.672  18.757  11.391
 8923W        W68459  18.731  15.095  10.948
 8924W        W68460   5.792  19.107   0.371
 8925W        W68461  20.626  23.026  11.915
 8926W        W68462  28.459  25.967   3.343
 8927W        W68463  39.843   0.361  14.304
 8928W        W68464  35.096  26.698   2.228
 8929W        W68465   7.181  39.846   0.810
 8930W        W68466  26.065  18.053  14.777
 8931W        W68467  17.085   7.210   0.416
 8932W        W68468  14.267  31.622  13.828
 8933W        W68469   6.390   2.849  13.881
 8934W        W68470  12.815  43.020   1.261
 8935W        W68471   2.332   8.317  12.970
 8936W        W68472  37.857   7.827   0.844
 8937W        W68473   4.419  14.597   2.670
 8938W        W68474   5.338  13.826  13.962
 8939W        W68475   2.461  27.505  11.429
 8940W        W68476   2.752  18.097  10.637
 8941W        W68477  34.104  11.756  11.524
 8942W        W68478   3.723  22.209  13.507
 8943W        W68479  41.459  24.033  14.454
 8944W        W68480  40.541  35.581   3.146
 8945W        W68481  10.360  11.735   4.295
 8946W        W68482  15.111  35.382   1.211
 8947W        W68483  33.398  33.129  12.359
 8948W        W68484  19.210  22.034  14.343
 8949W        W68485  18.294  17.762  13.884
 8950W        W68486  37.395  20.725  13.331
 8951W        W68487  21.250  43.861   0.256
 8952W        W68488  36.843  30.474  11.500
 8953W        W68489  11.338  26.116  13.797
 8954W        W68490  11.312  39.980  13.452
 8955W        W68491  35.966  17.105   4.821
 8956W        W68492  35.392   4.919   2.250
 8957W        W68493  33.974   4.738   3.697
 8958W        W68494  33.600  32.076  12.067
 8959W        W68495  33.875  44.957  13.350
 8960W        W68496  40.845  13.735  14.326
 8961W        W68497  10.827  16.707  10.930
 8962W        W68498  29.425   6.299   2.764
 8963W        W68499  11.178  16.646  13.358
 8964W        W68500   5.388  19.239  13.424
 8965W        W68501  29.981  13.334  11.407
 8966W        W68502  35.030  25.972  14.498
 8967W        W68503  17.292  39.517   2.331
 8968W        W68504  23.495  44.277  13.906
 8969W        W68505  36.473  27.460   4.170
 8970W        W68506   4.770  17.081  13.948
 8971W        W68507  38.871  22.587   9.987
 8972W        W68508  39.393   6.822   0.784
 8973W        W68509  28.647  17.160  14.937
 8974W        W68510  32.481  27.489  13.937
 8975W        W68511  40.477   7.183   3.293
 8976W        W68512  31.447  29.441  10.530
 8977W        W68513   5.234   8.873   0.466
 8978W        W68514  44.261  14.150   0.730
 8979W        W68515   5.910   9.363   1.264
 8980W        W68516  32.419   6.325  12.076
 8981W        W68517  11.836  15.685  10.960
 8982W        W68518  10.869   9.275   0.880
 8983W        W68519   2.293  20.186  11.031
 8984W        W68520   2.228  12.181   0.753
 8985W        W68521   2.365  29.999   2.868
 8986W        W68522  28.507   6.803   0.937
 8987W        W68523  31.438  38.551  11.919
 8988W        W68524  24.708  32.530  14.947
 8989W        W68525  44.778  17.100  11.529
 8990W        W68526  35.391  38.948   3.354
 8991W        W68527  22.192  18.227  10.563
 8992W        W68528  29.618  34.071  10.550
 8993W        W68529  19.285  44.916  10.582
 8994W        W68530  15.720   8.352   0.807
 8995W        W68531  23.649  32.100   0.799
 8996W        W68532   4.429  42.911   1.927
 8997W        W68533  12.849  22.115  11.908
 8998W        W68534  13.159  13.219  11.449
 8999W        W68535  32.986   4.929  14.477
 9000W        W68536   8.167   7.722  13.877
 9001W        W68537  29.666  20.757  14.355
 9002W        W68538   7.713   5.930   2.367
 9003W        W68539  21.225   2.941  14.473
 9004W        W68540  40.541   3.951  11.544
 9005W        W68541  43.016  36.488   0.343
 9006W        W68542  16.191  33.005  13.538
 9007W        W68543  18.268   5.287  12.915
 9008W        W68544  30.596  22.007   4.206
 9009W        W68545  17.706  12.724   4.626
 9010W        W68546  41.919  27.011   4.330
 9011W        W68547  32.112  31.991  13.323
 9012W        W68548  27.176  43.938   3.176
 9013W        W68549   8.248  11.189   2.304
 9014W        W68550  40.481  43.497   1.907
 9015W        W68551   4.818   3.388  13.517
 9016W        W68552  17.620  42.489   0.850
 9017W        W68553   6.858  34.989  13.483
 9018W        W68554  18.090  18.767   1.300
 9019W        W68555  19.716  27.117  11.112
 9020W        W68556   4.836   9.194  10.591
 9021W        W68557  11.348  40.325   0.271
 9022W        W68558  23.706  32.994  11.993
 9023W        W68559  31.493  14.796   3.298
 9024W        W68560  42.787   4.291   1.429
 9025W        W68561  36.535  22.679   3.851
 9026W        W68562  25.067  33.063  14.388
 9027W        W68563  42.313   3.715  14.513
 9028W        W68564  41.967  25.538   0.900
 9029W        W68565  16.259   0.494  12.434
 9030W        W68566  18.772   6.393   0.908
 9031W        W68567  16.630   0.950   3.259
 9032W        W68568  43.377  23.641   5.156
 9033W        W68569  24.146  29.144   4.133
 9034W        W68570   8.791   7.719   3.351
 9035W        W68571  30.907  42.377  11.599
 9036W        W68572  38.990  15.594   2.797
 9037W        W68573  30.958  42.371   3.694
 9038W        W68574   6.709  43.817   4.816
 9039W        W68575   1.447  30.585   0.920
 9040W        W68576  34.985  18.197  10.070
 9041W        W68577  14.740  32.452   1.696
 9042W        W68578  35.437  30.975   2.902
 9043W        W68579   0.477  23.240  11.041
 9044W        W68580   5.318  44.355   1.717
 9045W        W68581  29.166   4.352   2.400
 9046W        W68582  26.666  35.567   2.351
 9047W        W68583  21.726   1.780   3.256
 9048W        W68584  35.081  28.584  10.415
 9049W        W68585  37.351  22.587   4.680
 9050W        W68586  34.416  19.062   1.392
 9051W        W68587  19.266  30.936   2.711
 9052W        W68588  43.422  36.880  12.019
 9053W        W68589  30.634   1.839  10.512
 9054W        W68590  26.009  13.262   4.668
 9055W        W68591  30.509  23.223   0.895
 9056W        W68592  25.527   8.165   3.673
 9057W        W68593  34.391  36.507   3.189
 9058W        W68594  15.808  42.800  10.643
 9059W        W68595  13.629  22.041   1.318
 9060W        W68596  26.993  41.824   1.735
 9061W        W68597  19.071  25.696  13.979
 9062W        W68598  43.355  37.848  13.035
 9063W        W68599  27.143  22.154  13.886
 9064W        W68600  15.800  36.436   0.433
 9065W        W68601  14.200  21.697   3.222
 9066W        W68602  22.556  32.583   3.825
 9067W        W68603   1.763  41.806   1.317
 9068W        W68604  24.655  25.214   1.399
 9069W        W68605  12.148  20.525   1.720
 9070W        W68606  29.431  39.394  13.895
 9071W        W68607  25.573   5.426  13.853
 9072W        W68608  26.147  44.970   2.815
 9073W        W68609  42.876  42.319  10.982
 9074W        W68610   3.379  32.082  14.310
 9075W        W68611  19.075  19.163   1.352
 9076W        W68612  35.550  39.833   2.243
 9077W        W68613  23.049   9.209  14.395
 9078W        W68614  32.108  17.701  14.953
 9079W        W68615   5.239   2.850  11.574
 9080W        W68616  36.911   8.871   2.362
 9081W        W68617  31.511  18.703   4.175
 9082W        W68618   7.761   5.876   0.821
 9083W        W68619  26.005  35.993  10.510
 9084W        W68620  15.134  37.359  11.465
 9085W        W68621  16.144  22.007  13.457
 9086W        W68622  27.957  19.778   3.814
 9087W        W68623   4.331  11.141   0.927
 9088W        W68624  28.158  38.010   3.744
 9089W        W68625   7.747  34.112   0.867
 9090W        W68626  25.606   1.734   1.918
 9091W        W68627  20.617  25.021   0.956
 9092W        W68628  23.139  40.833  12.917
 9093W        W68629  21.243  38.983   4.630
 9094W        W68630  23.515  38.334   2.342
 9095W        W68631  21.234   5.277   9.630
 9096W        W68632   6.769  30.143   2.213
 9097W        W68633  30.430  43.961  12.382
 9098W        W68634   6.789   4.828   4.726
 9099W        W68635  36.019  10.824   3.357
 9100W        W68636  10.257  23.046  10.637
 9101W        W68637  34.107   1.424  12.479
 9102W        W68638  38.333  44.960  12.373
 9103W        W68639  10.156  32.957  13.448
 9104W        W68640  20.582  26.071   1.349
 9105W        W68641  14.179  21.534  10.099
 9106W        W68642  32.925  29.615  10.621
 9107W        W68643  30.463   2.774   0.832
 9108W        W68644  12.286   4.356  11.576
 9109W        W68645  33.480   1.933   1.282
 9110W        W68646  42.784  14.332   3.350
 9111W        W68647   9.644  37.364   4.825
 9112W        W68648  33.973  43.483  11.602
 9113W        W68649  34.442  15.255   3.258
 9114W        W68650   1.426  19.205   1.362
 9115W        W68651   4.937   1.347  10.517
 9116W        W68652   7.893  28.071  11.978
 9117W        W68653   6.219  42.951   2.376
 9118W        W68654  15.302  17.147   1.301
 9119W        W68655  33.426   0.421  13.381
 9120W        W68656  40.870  31.478  13.316
 9121W        W68657  39.846  15.293  13.962
 9122W        W68658   7.859   9.661  12.347
 9123W        W68659  24.039  32.995   9.995
 9124W        W68660  42.315   4.390  10.639
 9125W        W68661  23.563  18.099  12.580
 9126W        W68662  36.959  19.054   2.262
 9127W        W68663  38.512  37.525  14.378
 9128W        W68664  17.170  14.835   4.321
 9129W        W68665  10.276  40.931   2.205
 9130W        W68666  20.688  28.464  12.858
 9131W        W68667  22.076   4.384   3.366
 9132W        W68668  24.592  39.483   9.961
 9133W        W68669  21.678   0.937  14.303
 9134W        W68670  42.481   0.771   4.635
 9135W        W68671   0.326  12.719  13.985
 9136W        W68672   6.887  42.821   0.415
 9137W        W68673   6.808   6.702  11.457
 9138W        W68674   2.325  14.788  12.484
 9139W        W68675  43.019  28.442   3.790
 9140W        W68676  38.013   0.293   0.282
 9141W        W68677  15.186  38.345  11.541
 9142W        W68678  26.477   4.264  13.477
 9143W        W68679  34.998  33.423   4.666
 9144W        W68680   2.956  20.701  11.868
 9145W        W68681  28.014  39.377   2.255
 9146W        W68682   0.304  10.152  13.810
 9147W        W68683  30.164  10.668   4.175
 9148W        W68684  32.492  12.119   2.405
 9149W        W68685  29.973  19.741   2.324
 9150W        W68686   3.222  23.679   0.274
 9151W        W68687  36.408   9.224  10.621
 9152W        W68688  40.305  27.172   3.672
 9153W        W68689  31.537  16.666  13.526
 9154W        W68690  40.843  30.473   4.796
 9155W        W68691   6.870  28.649  11.985
 9156W        W68692  41.042   8.371   0.873
 9157W        W68693  37.457  37.913  13.846
 9158W        W68694  25.485  15.127   9.995
 9159W        W68695  15.187   3.351  10.968
 9160W        W68696   0.960  31.049   1.857
 9161W        W68697  29.605   0.306   1.707
 9162W        W68698  32.425   6.274   1.905
 9163W        W68699   4.336  39.837  13.542
 9164W        W68700  35.894  20.597  10.969
 9165W        W68701  41.454  22.086   1.287
 9166W        W68702   5.700  45.000  11.995
 9167W        W68703  26.121   4.759  12.409
 9168W        W68704  35.038  14.218  13.799
 9169W        W68705   5.848  38.915  11.601
 9170W        W68706  24.502   9.381   2.286
 9171W        W68707  40.821  20.609  14.287
 9172W        W68708  42.466  40.531  11.993
 9173W        W68709  28.639  37.885   1.311
 9174W        W68710   5.736  14.173  13.044
 9175W        W68711  21.259  37.948  14.387
 9176W        W68712  29.976   6.321  13.834
 9177W        W68713  11.842   1.935  13.015
 9178W        W68714  40.535   8.842  12.976
 9179W        W68715  31.022   9.732  10.907
 9180W        W68716  37.882  40.977  14.389
 9181W        W68717   8.731  21.611  13.843
 9182W        W68718  43.442  12.666  13.542
 9183W        W68719  24.533  39.333  12.900
 9184W        W68720  37.049  14.132   4.804
 9185W        W68721  35.104  43.995  10.130
 9186W        W68722  21.091  39.533  14.922
 9187W        W68723  16.197  38.568   1.289
 9188W        W68724   6.259  40.810   3.777
 9189W        W68725   5.865  25.052  11.128
 9190W        W68726  25.081  19.639  11.028
 9191W        W68727  19.574  32.517   1.818
 9192W        W68728  13.842   8.874   1.268
 9193W        W68729  16.728  34.868  13.999
 9194W        W68730  44.392   2.901  11.438
 9195W        W68731  15.621  44.344   3.229
 9196W        W68732  28.567  43.430   3.696
 9197W        W68733  42.397   1.255   2.877
 9198W        W68734  10.244  12.203  12.079
 9199W        W68735  24.544  29.139  13.315
 9200W        W68736  26.081  36.523   3.688
 9201W        W68737   0.936  37.510  10.925
 9202W        W68738  33.579  28.964   0.797
 9203W        W68739  16.768  21.205  13.037
 9204W        W68740  22.046  39.875   1.725
 9205W        W68741   3.358  30.164  10.546
 9206W        W68742  38.884  21.211   5.127
 9207W        W68743  12.270   0.475  13.422
 9208W        W68744  16.759  43.462   4.807
 9209W        W68745  34.527   1.755  12.525
 9210W        W68746  17.648  38.566  11.954
 9211W        W68747  15.670   2.889   1.818
 9212W        W68748   4.866  15.613  11.906
 9213W        W68749  40.926  20.074   1.783
 9214W        W68750  37.944  12.644  12.564
 9215W        W68751  22.550   1.296  14.289
 9216W        W68752  32.052  26.971  14.015
 9217W        W68753  28.157   3.902   1.887
 9218W        W68754  14.757  28.071  10.153
 9219W        W68755  21.233  43.839   4.796
 9220W        W68756  35.567  35.518   4.114
 9221W        W68757  32.970  11.148   3.726
 9222W        W68758  34.087  36.369  12.479
 9223W        W68759  32.525  13.823   4.812
 9224W        W68760  27.941   0.785  12.019
 9225W        W68761  15.135  20.204   0.369
 9226W        W68762  33.404  14.315  11.096
 9227W        W68763  20.745  23.509  10.426
 9228W        W68764  22.057  12.338   3.153
 9229W        W68765  25.109  16.247  12.835
 9230W        W68766  24.207  21.236  12.364
 9231W        W68767  41.975   4.777   1.365
 9232W        W68768  33.892  25.496  13.912
 9233W        W68769  16.235  27.119  14.792
 9234W        W68770   9.223  37.366   3.376
 9235W        W68771  29.525  43.018   3.771
 9236W        W68772  11.368   6.743  13.980
 9237W        W68773  26.519  32.016  12.095
 9238W        W68774  26.074  34.405  11.876
 9239W        W68775  28.076  16.191  14.786
 9240W        W68776  23.715  41.350   4.163
 9241W        W68777  16.575  26.951   1.732
 9242W        W68778   5.841   8.701  14.431
 9243W        W68779  16.582  40.932   1.700
 9244W        W68780  26.538  38.387   0.730
 9245W        W68781  20.701  35.514   2.361
 9246W        W68782   1.427  19.216   0.398
 9247W        W68783  44.769  21.735  10.611
 9248W        W68784   7.344   9.853   3.251
 9249W        W68785  26.520  43.980   3.732
 9250W        W68786  42.003  31.089  12.046
 9251W        W68787  38.937  39.949  13.539
 9252W        W68788  14.198   5.790  11.507
 9253W        W68789   8.751  31.628   0.446
 9254W        W68790  33.907  34.531   4.685
 9255W        W68791  44.322   0.375  13.044
 9256W        W68792  32.094  17.135  10.988
 9257W        W68793  11.352   8.399   0.460
 9258W        W68794  15.819  18.246  14.852
 9259W        W68795  33.468   2.252   4.767
 9260W        W68796  25.006   8.666  12.386
 9261W        W68797  42.783  11.735   0.863
 9262W        W68798   0.850  30.482   0.319
 9263W        W68799   0.831   7.173   0.359
 9264W        W68800  30.629  44.333  14.411
 9265W        W68801  44.833  11.863  13.021
 9266W        W68802   6.759  28.079  14.398
 9267W        W68803  15.183  13.260   1.823
 9268W        W68804  37.347  38.883  10.419
 9269W        W68805  24.575  29.445   0.784
 9270W        W68806  42.361  11.728   3.707
 9271W        W68807  10.292  11.153  13.530
 9272W        W68808  14.140   2.740  10.978
 9273W        W68809  37.426  19.135   4.204
 9274W        W68810  20.214  37.864  12.426
 9275W        W68811  27.081  34.032  14.939
 9276W        W68812  39.977  19.250   1.778
 9277W        W68813  43.321  16.221   3.358
 9278W        W68814  34.537  37.385   2.306
 9279W        W68815  30.010   8.685  13.985
 9280W        W68816   5.419  28.156   3.726
 9281W        W68817  15.132  16.122   3.313
 9282W        W68818  24.023  15.134  12.888
 9283W        W68819  25.114  15.091   0.389
 9284W        W68820   6.192  17.771   1.807
 9285W        W68821  13.179   1.412  13.539
 9286W        W68822   7.804   3.438  12.054
 9287W        W68823   0.346  20.688  12.428
 9288W        W68824  23.015   1.831  11.374
 9289W        W68825  19.638  44.770   4.751
 9290W        W68826  43.384  35.373   2.273
 9291W        W68827  40.978   6.239   2.308
 9292W        W68828  31.097   5.338   1.369
 9293W        W68829  33.448   0.772   2.863
 9294W        W68830  40.384  27.617  12.055
 9295W        W68831   3.807  43.964   1.931
 9296W        W68832   1.399  38.493   0.855
 9297W        W68833  24.026  23.601   3.834
 9298W        W68834  27.086  43.989  11.492
 9299W        W68835  13.292  27.668   4.336
 9300W        W68836  12.628  24.087   1.259
 9301W        W68837  18.060  20.269   4.190
 9302W        W68838  35.948  13.256  13.523
 9303W        W68839  13.230  43.927  10.637
 9304W        W68840  25.069  14.267   1.324
 9305W        W68841  17.222  13.742  10.624
 9306W        W68842   6.209   8.674   0.906
 9307W        W68843  28.584  39.411   1.806
 9308W        W68844  39.938   7.377   0.351
 9309W        W68845   8.872  36.853  11.094
 9310W        W68846  14.320  43.939   2.698
 9311W        W68847  12.706  28.985   3.842
 9312W        W68848  17.800  15.137  12.060
 9313W        W68849  24.096  30.156   0.868
 9314W        W68850   0.482  19.122   0.755
 9315W        W68851  15.605  29.644  13.847
 9316W        W68852  43.314  19.222   4.699
 9317W        W68853  40.385  15.710  12.033
 9318W        W68854   6.277  18.168   1.706
 9319W        W68855  12.177  11.216   1.794
 9320W        W68856  19.776  32.497   3.287
 9321W        W68857  35.906   1.324   1.300
 9322W        W68858  39.901  18.136  10.428
 9323W        W68859  33.413  11.868  11.997
 9324W        W68860  31.565  13.721  12.347
 9325W        W68861  44.944  14.658   2.871
 9326W        W68862  43.336  18.246   3.736
 9327W        W68863  20.647  30.012  12.410
 9328W        W68864  36.519  22.182   4.177
 9329W        W68865  12.850   9.194  11.568
 9330W        W68866  40.347  29.004   9.951
 9331W        W68867  40.539  21.683  13.883
 9332W        W68868  31.495  40.825   1.892
 9333W        W68869  23.571   3.436  14.286
 9334W        W68870   1.859  15.293   4.283
 9335W        W68871  39.947  36.466  10.611
 9336W        W68872  14.258  25.649  11.439
 9337W        W68873  40.518  27.983   4.665
 9338W        W68874   4.864   6.686  12.367
 9339W        W68875  28.557  24.035   0.858
 9340W        W68876  26.593  11.652   4.136
 9341W        W68877   3.851  44.399  10.517
 9342W        W68878   1.241  33.577  13.887
 9343W        W68879  44.400  16.603   4.277
 9344W        W68880  14.309  11.838  11.393
 9345W        W68881  34.910  22.006   0.400
 9346W        W68882  31.406   2.831   3.749
 9347W        W68883  10.300  37.564   5.147
 9348W        W68884  23.557   3.279  13.001
 9349W        W68885  26.976  42.423  12.500
 9350W        W68886  26.159  16.312   0.804
 9351W        W68887  10.286  17.694   3.633
 9352W        W68888   7.742  19.769  13.891
 9353W        W68889  21.117   7.185   1.272
 9354W        W68890  26.646   0.754  14.803
 9355W        W68891  30.124  29.137   0.815
 9356W        W68892  38.923  30.548  12.088
 9357W        W68893  19.156   7.771  14.758
 9358W        W68894  38.493  13.144  13.894
 9359W        W68895  26.994   4.309   1.742
 9360W        W68896   7.784  22.737   5.220
 9361W        W68897  42.783  40.892   0.949
 9362W        W68898   4.882  37.962   2.316
 9363W        W68899   5.209   5.266   4.838
 9364W        W68900  25.635  26.991   4.136
 9365W        W68901  25.674  20.596  12.428
 9366W        W68902  23.583  16.632  11.502
 9367W        W68903  24.152  37.857   5.151
 9368W        W68904  12.247   2.468   3.718
 9369W        W68905  10.165   1.880  14.309
 9370W        W68906  22.248  11.810  10.592
 9371W        W68907   9.784  37.993  11.876
 9372W        W68908   7.210  16.577   1.373
 9373W        W68909  24.003  22.671  11.379
 9374W        W68910  12.689  37.461   4.131
 9375W        W68911   0.270   5.272  14.818
 9376W        W68912  37.047  37.051  12.046
 9377W        W68913  10.845  11.279  11.456
 9378W        W68914  31.443  17.064   2.403
 9379W        W68915  11.707  14.237   3.630
 9380W        W68916  17.702  18.673  11.403
 9381W        W68917  37.487  10.757   0.261
 9382W        W68918  13.788  16.711  11.869
 9383W        W68919  33.468  18.214  11.517
 9384W        W68920  40.399  16.222  11.928
 9385W        W68921  22.164   3.289  10.906
 9386W        W68922   2.374   7.865   0.773
 9387W        W68923   4.775  17.689  11.382
 9388W        W68924  17.117  41.440   1.374
 9389W        W68925  42.348  32.478   1.753
 9390W        W68926  37.852  12.639  13.868
 9391W        W68927  13.269   3.259  14.788
 9392W        W68928   5.219  29.152  12.083
 9393W        W68929  21.592  40.048   4.668
 9394W        W68930  23.590  36.358   0.353
 9395W        W68931  31.462  23.678  13.356
 9396W        W68932  43.425  19.739  13.385
 9397W        W68933   0.896  10.319  11.412
 9398W        W68934  32.625  18.661   3.653
 9399W        W68935  36.097  36.074   0.283
 9400W        W68936  18.252  17.266  13.404
 9401W        W68937  41.371  21.689  12.985
 9402W        W68938  16.730  28.546  10.423
 9403W        W68939  10.248  43.334  13.502
 9404W        W68940  42.912  35.541  10.622
 9405W        W68941  27.196   6.399  13.329
 9406W        W68942  42.447  37.348   0.352
 9407W        W68943  30.924  25.084   1.916
 9408W        W68944  26.510  10.849  10.483
 9409W        W68945   3.917   9.652   3.808
 9410W        W68946  35.985  10.277   0.934
 9411W        W68947  28.070   3.888   4.799
 9412W        W68948  21.126  43.270  14.384
 9413W        W68949  28.491  21.724   4.255
 9414W        W68950  39.531  17.102  13.455
 9415W        W68951   1.459  35.859   0.763
 9416W        W68952   8.250  29.615   2.745
 9417W        W68953  37.918  31.598  10.918
 9418W        W68954  36.054  36.576   2.359
 9419W        W68955  25.557  20.639   4.747
 9420W        W68956  41.514  29.996   0.296
 9421W        W68957  16.756  29.158   1.733
 9422W        W68958  44.833  41.849  10.921
 9423W        W68959   8.296  39.020  11.446
 9424W        W68960  31.922  33.434   5.245
 9425W        W68961   6.354   9.164   4.830
 9426W        W68962   7.329  11.709   3.660
 9427W        W68963  27.461   1.918   4.313
 9428W        W68964  32.514  12.200   0.456
 9429W        W68965  14.714  24.164  12.069
 9430W        W68966  15.196  19.691  13.887
 9431W        W68967   2.375   8.700  13.545
 9432W        W68968   5.245  31.147  13.307
 9433W        W68969   5.808  39.938  12.371
 9434W        W68970  23.730  20.243  14.906
 9435W        W68971  24.072   7.867  11.585
 9436W        W68972  18.741  26.060  10.457
 9437W        W68973  34.883  23.673   3.691
 9438W        W68974   5.323  26.028   4.187
 9439W        W68975  34.101  20.144   0.739
 9440W        W68976  11.140  37.012  10.610
 9441W        W68977  21.243  10.144   2.883
 9442W        W68978  17.184   5.932   1.295
 9443W        W68979   2.886  15.225   4.608
 9444W        W68980  43.956  25.109  10.580
 9445W        W68981  13.309  21.676  12.001
 9446W        W68982   1.801  28.560   3.784
 9447W        W68983  24.641  12.813   2.807
 9448W        W68984   5.229  41.505  11.453
 9449W        W68985  25.563  10.838   2.889
 9450W        W68986   9.153   9.394   3.671
 9451W        W68987  17.176  35.564   3.159
 9452W        W68988  32.974  15.739   3.319
 9453W        W68989   4.234  18.270   1.815
 9454W        W68990  26.999  11.343   2.408
 9455W        W68991   3.435  35.422   1.805
 9456W        W68992  34.896  44.323   2.756
 9457W        W68993  29.629  23.695  13.836
 9458W        W68994  24.573   8.256  14.880
 9459W        W68995  32.589  32.080   3.201
 9460W        W68996  30.586   3.221  10.463
 9461W        W68997   3.841   3.399   1.766
 9462W        W68998  22.662  17.268   4.228
 9463W        W68999  42.821  22.096  14.477
 9464W        W69000  18.784  24.521   1.880
 9465W        W69001  44.762  35.588  11.947
 9466W        W69002  41.003  41.876   1.290
 9467W        W69003  20.627  27.522  14.357
 9468W        W69004  34.534  33.464  11.375
 9469W        W69005  26.157  24.625   2.373
 9470W        W69006  44.455  13.670  11.492
 9471W        W69007   8.819   0.333   4.247
 9472W        W69008   3.450  20.522  11.455
 9473W        W69009   4.426   5.211   4.697
 9474W        W69010  24.527  42.924  11.566
 9475W        W69011  39.875   0.290  11.492
 9476W        W69012   2.370   0.860   2.231
 9477W        W69013  30.032  23.101   4.793
 9478W        W69014  41.398   6.201  10.478
 9479W        W69015  15.135  22.674  13.534
 9480W        W69016  16.617  15.161   3.720
 9481W        W69017  29.506  21.084   3.260
 9482W        W69018  38.948  28.186   4.181
 9483W        W69019   4.220  37.013  10.493
 9484W        W69020  33.124  42.991   0.764
 9485W        W69021  35.407  30.530  11.876
 9486W        W69022  31.458  31.491   4.249
 9487W        W69023   2.259  42.980  13.820
 9488W        W69024  18.570   6.693  10.925
 9489W        W69025  31.477   1.325  13.511
 9490W        W69026  20.651  25.088   2.727
 9491W        W69027   9.262  20.532  13.477
 9492W        W69028  36.901  12.834  12.068
 9493W        W69029   6.298   9.295  13.523
 9494W        W69030   0.817  30.964  12.479
 9495W        W69031  31.638   4.826   3.300
 9496W        W69032  23.721  43.360  10.971
 9497W        W69033  38.820  28.550  13.988
 9498W        W69034   9.700  17.736   0.372
 9499W        W69035  28.154  28.989  12.024
 9500W        W69036   1.937  22.605  11.063
 9501W        W69037  20.613   2.850   9.996
 9502W        W69038   2.235  44.428  14.405
 9503W        W69039   9.783  40.804   4.805
 9504W        W69040  34.535  12.170  11.981
 9505W        W69041  26.699  14.592  11.463
 9506W        W69042  33.076  23.026   0.935
 9507W        W69043  39.042  26.964  11.466
 9508W        W69044  19.229  37.367  12.023
 9509W        W69045  23.004  29.531   3.679
 9510W        W69046  13.259   8.236   0.293
 9511W        W69047  17.589  21.088  14.830
 9512W        W69048  37.932  30.587   1.724
 9513W        W69049  23.086   2.258   0.779
 9514W        W69050  10.183  30.568  11.888
 9515W        W69051   7.793  34.465  14.496
 9516W        W69052  12.779  39.480  14.766
 9517W        W69053  28.573  30.014   4.746
 9518W        W69054  43.455  40.326  10.999
 9519W        W69055  19.634  39.005  13.843
 9520W        W69056  44.302  21.238   3.789
 9521W        W69057  44.813  39.044  11.588
 9522W        W69058   1.784  22.119   4.320
 9523W        W69059  11.829  31.630  12.444
 9524W        W69060   9.799  21.039   1.217
 9525W        W69061  14.652   6.209   0.335
 9526W        W69062  25.972  33.112   2.891
 9527W        W69063   6.896  21.541  14.358
 9528W        W69064   6.332  23.546   5.250
 9529W        W69065  25.554  17.272  12.026
 9530W        W69066  18.193  21.624   2.835
 9531W        W69067  43.351  27.606  10.410
 9532W        W69068   8.809  13.757  13.884
 9533W        W69069   4.892  21.690  12.429
 9534W        W69070  33.945  28.005  13.982
 9535W        W69071  43.917  41.807  14.399
 9536W        W69072  27.657  41.480  13.952
 9537W        W69073  32.452   5.717   3.317
 9538W        W69074  13.156  15.772   3.331
 9539W        W69075   9.361  41.949  11.534
 9540W        W69076  27.571  32.085   1.701
 9541W        W69077   6.326  16.259  13.415
 9542W        W69078  23.634  20.629   1.249
 9543W        W69079   1.956   5.286  11.516
 9544W        W69080  26.588  29.637  14.891
 9545W        W69081  28.963  33.996   1.308
 9546W        W69082  21.240  11.354   2.860
 9547W        W69083  13.284  42.377  12.023
 9548W        W69084  10.153  31.131   4.646
 9549W        W69085  43.873   5.723   3.631
 9550W        W69086  32.434  44.923  11.490
 9551W        W69087  19.176  21.675   4.192
 9552W        W69088  39.860  24.117   4.252
 9553W        W69089  29.101   1.912  12.886
 9554W        W69090  12.303  30.635   1.246
 9555W        W69091  15.747  12.812  10.590
 9556W        W69092   3.820  40.960  10.595
 9557W        W69093  26.665  10.318  13.546
 9558W        W69094  10.775  27.471  13.016
 9559W        W69095  16.291  44.460   3.822
 9560W        W69096  41.038   5.865   1.435
 9561W        W69097   7.830  19.557   5.279
 9562W        W69098   4.217  20.090  14.304
 9563W        W69099  35.109  22.050  10.447
 9564W        W69100   5.883  10.379   4.733
 9565W        W69101  25.660   5.842   1.742
 9566W        W69102  42.876   3.762   1.840
 9567W        W69103  40.448   1.407  11.452
 9568W        W69104  34.506  13.785  13.870
 9569W        W69105  18.061   7.208  10.616
 9570W        W69106   1.797  43.900  12.426
 9571W        W69107  27.197   1.736  12.412
 9572W        W69108  31.005  43.357  10.416
 9573W        W69109  10.253  15.824   0.760
 9574W        W69110  23.014  37.942   3.805
 9575W        W69111  42.517  21.052  11.534
 9576W        W69112  31.089  10.707   4.262
 9577W        W69113  35.040  39.847   4.178
 9578W        W69114  12.352   2.803  12.388
 9579W        W69115  20.624  23.185  12.454
 9580W        W69116   6.889   9.731  12.405
 9581W        W69117  24.011   8.855   2.260
 9582W        W69118  24.109   3.921  14.433
 9583W        W69119  22.533  16.284   1.719
 9584W        W69120  11.148  28.647  14.443
 9585W        W69121  37.897  17.089   4.132
 9586W        W69122   4.444  28.617  11.576
 9587W        W69123  11.682  21.156   0.462
 9588W        W69124  24.163  17.650   1.791
 9589W        W69125   7.673  20.160   0.256
 9590W        W69126   2.829  23.119  13.004
 9591W        W69127  38.896   0.418   3.189
 9592W        W69128  15.611  30.053   2.311
 9593W        W69129  24.537  12.290   4.828
 9594W        W69130  14.610  28.579   2.185
 9595W        W69131  41.955  40.850   2.781
 9596W        W69132  17.733  17.184  11.375
 9597W        W69133  38.976  38.013   3.716
 9598W        W69134  16.158   0.872  14.826
 9599W        W69135  15.698  19.682   3.679
 9600W        W69136   5.863  21.566   1.352
 9601W        W69137   2.880   3.309  14.795
 9602W        W69138  35.964  34.558   2.717
 9603W        W69139  40.310   5.424  12.544
 9604W        W69140  12.846   8.760  12.061
 9605W        W69141  14.690  10.279  13.819
 9606W        W69142  37.068  13.624   1.704
 9607W        W69143  28.536  12.724  11.880
 9608W        W69144   1.297  44.760   1.371
 9609W        W69145   9.752  15.687  11.573
 9610W        W69146  33.076  43.407  12.550
 9611W        W69147   8.686   1.351   3.794
 9612W        W69148  25.707  22.161  14.356
 9613W        W69149  13.818   1.393  10.451
 9614W        W69150  20.744  36.985   3.215
 9615W        W69151  26.206  26.051   0.729
 9616W        W69152  10.218  15.666  11.529
 9617W        W69153   2.291  35.057  13.457
 9618W        W69154  44.984  26.493  10.581
 9619W        W69155  42.837  19.719   0.776
 9620W        W69156  32.575  28.981   0.916
 9621W        W69157  12.278   2.779  12.894
 9622W        W69158  21.161  10.748  12.982
 9623W        W69159   3.221  38.837   4.794
 9624W        W69160  34.584   2.878  11.371
 9625W        W69161  19.640  18.676   5.107
 9626W        W69162  39.812  19.186  10.955
 9627W        W69163  19.282  19.710   1.783
 9628W        W69164   2.419   4.876   1.306
 9629W        W69165  39.991  25.605   3.273
 9630W        W69166   9.889  27.114   1.211
 9631W        W69167   0.351   8.372   3.841
 9632W        W69168  37.444  14.334   9.961
 9633W        W69169  15.155  31.084  11.078
 9634W        W69170   4.752   1.411  12.840
 9635W        W69171   2.405   1.462  11.544
 9636W        W69172  17.075  11.330  14.852
 9637W        W69173  32.962  30.921  14.876
 9638W        W69174   8.757  12.644  13.429
 9639W        W69175  11.647  36.582  14.006
 9640W        W69176  14.651  11.136   2.815
 9641W        W69177  25.638  28.478  10.508
 9642W        W69178  38.883   5.224   0.244
 9643W        W69179  25.017  41.938  12.553
 9644W        W69180  40.366  24.554   4.337
 9645W        W69181  39.420  11.328  10.951
 9646W        W69182   5.399  42.918  10.495
 9647W        W69183   7.747  25.002   0.324
 9648W        W69184  23.140  14.695   2.890
 9649W        W69185  33.530   3.922   0.735
 9650W        W69186  11.263  22.530  13.416
 9651W        W69187   4.410  30.980   0.250
 9652W        W69188  17.679  25.647  14.439
 9653W        W69189  28.951  41.476   4.619
 9654W        W69190  16.084  42.511  12.006
 9655W        W69191  28.447  34.111   1.443
 9656W        W69192  29.539   9.866   2.695
 9657W        W69193  29.594  36.975   4.226
 9658W        W69194  27.114   2.912  12.517
 9659W        W69195  25.019  37.535   4.678
 9660W        W69196  34.472  38.853   1.310
 9661W        W69197  24.217  24.174   3.741
 9662W        W69198  24.168  34.490  13.994
 9663W        W69199  18.065  22.565  14.943
 9664W        W69200  23.729  20.703  13.378
 9665W        W69201   1.922  19.624   0.956
 9666W        W69202  29.117  44.282  13.826
 9667W        W69203  30.079   1.746  14.799
 9668W        W69204  13.190  37.544   0.438
 9669W        W69205   1.878  41.893  10.525
 9670W        W69206  28.988  23.115   4.614
 9671W        W69207  32.601  19.051   2.856
 9672W        W69208  14.144  25.543  13.487
 9673W        W69209  36.861  32.983  11.422
 9674W        W69210  25.521  41.411   4.605
 9675W        W69211   6.353  34.584   5.120
 9676W        W69212  12.733  31.593  14.849
 9677W        W69213   5.726  13.664  14.989
 9678W        W69214  35.506  35.914  12.470
 9679W        W69215  32.063  31.077   3.339
 9680W        W69216   5.274   3.928  10.537
 9681W        W69217  43.816  35.102   2.769
 9682W        W69218  22.180  20.266   3.854
 9683W        W69219   4.753  21.214   0.866
 9684W        W69220  43.310  32.085   3.679
 9685W        W69221  12.254  11.770  11.959
 9686W        W69222  22.166  37.507   4.260
 9687W        W69223   3.298   9.346  12.972
 9688W        W69224   2.736  14.757   9.500
 9689W        W69225   5.740  28.622  10.545
 9690W        W69226  35.416  16.603   4.801
 9691W        W69227  42.891  36.913   3.847
 9692W        W69228  38.517  31.123   3.836
 9693W        W69229   2.939   6.785   2.864
 9694W        W69230  44.306  10.723  10.556
 9695W        W69231  40.335   6.257   3.303
 9696W        W69232  17.660  12.853   2.801
 9697W        W69233  16.136  36.899   4.312
 9698W        W69234  36.868  25.677   0.256
 9699W        W69235  34.608   0.873   0.890
 9700W        W69236  21.158  22.696  12.350
 9701W        W69237   1.428   6.316   1.766
 9702W        W69238   9.198   3.743  13.458
 9703W        W69239  18.689  39.959   3.152
 9704W        W69240  12.322   8.761   4.317
 9705W        W69241  15.747  20.543  11.434
 9706W        W69242  27.479  18.671  13.456
 9707W        W69243   1.393  11.205  13.419
 9708W        W69244   1.862  29.058   4.796
 9709W        W69245  28.136  26.693  10.071
 9710W        W69246  18.168  26.534  10.532
 9711W        W69247  38.328  10.789   1.932
 9712W        W69248   0.874   5.832  10.116
 9713W        W69249  37.428  19.617   0.300
 9714W        W69250   6.343   3.847  12.451
 9715W        W69251  26.591  28.065   0.281
 9716W        W69252  39.388   3.418  14.292
 9717W        W69253   9.194  38.372   4.715
 9718W        W69254   9.344  32.122   1.281
 9719W        W69255  42.001  13.616   3.824
 9720W        W69256  12.350  26.062  14.455
 9721W        W69257  41.038  27.081   2.272
 9722W        W69258  15.780  25.145  13.318
 9723W        W69259  37.561  19.047   2.216
 9724W        W69260  19.734  25.687  14.800
 9725W        W69261  15.083   5.319  13.532
 9726W        W69262   5.828  27.563   3.269
 9727W        W69263  35.427  33.404  12.843
 9728W        W69264  37.569  26.673  11.483
 9729W        W69265   1.856  24.001   2.280
 9730W        W69266   0.477  18.596  12.976
 9731W        W69267   1.426  29.578  13.347
 9732W        W69268  17.726  22.738   2.255
 9733W        W69269   4.885  15.180   4.248
 9734W        W69270  15.199   5.784   2.361
 9735W        W69271  27.188  35.028  14.845
 9736W        W69272  25.623  23.639  13.349
 9737W        W69273  21.648  43.497  13.318
 9738W        W69274   5.386  36.942   0.759
 9739W        W69275  36.549  25.701  11.525
 9740W        W69276  20.586  37.367  12.389
 9741W        W69277   3.225  35.402  14.907
 9742W        W69278  15.199  25.112  11.005
 9743W        W69279  35.478  44.967  13.427
 9744W        W69280  12.681  26.959  12.495
 9745W        W69281  16.767  28.139   2.706
 9746W        W69282  39.014   8.343  11.960
 9747W        W69283   4.243  12.317  11.967
 9748W        W69284  21.018  33.031   1.900
 9749W        W69285  44.374  43.506   0.277
 9750W        W69286   3.441  18.093   3.354
 9751W        W69287  36.586  13.836  10.945
 9752W        W69288  10.238  38.897   1.834
 9753W        W69289  44.350  27.576   4.141
 9754W        W69290  35.574  29.637  13.328
 9755W        W69291  11.867  22.594  14.786
 9756W        W69292  21.750  27.493   1.399
 9757W        W69293  28.545  37.889  12.367
 9758W        W69294   3.283  43.849  10.986
 9759W        W69295  38.539  21.106   4.239
 9760W        W69296  37.029   5.429   3.149
 9761W        W69297  20.565  14.600   4.634
 9762W        W69298  12.339  36.859   2.419
 9763W        W69299   5.871  36.563  12.848
 9764W        W69300  27.124  39.826  14.796
 9765W        W69301  21.648  16.257   3.636
 9766W        W69302   6.380  11.712   5.310
 9767W        W69303  32.490  26.999   1.245
 9768W        W69304  32.035  21.058  14.770
 9769W        W69305   4.800  15.757  13.974
 9770W        W69306  22.535  32.952  13.934
 9771W        W69307  23.629   1.456  11.502
 9772W        W69308  29.630  22.657   2.412
 9773W        W69309   0.418  27.532  11.542
 9774W        W69310  43.384   9.218   3.163
 9775W        W69311  33.467  18.666   1.446
 9776W        W69312   2.283  21.717   1.222
 9777W        W69313  41.393  36.991  10.473
 9778W        W69314  34.594  14.317   3.149
 9779W        W69315   7.891  11.368  10.117
 9780W        W69316   1.883  31.030  13.330
 9781W        W69317  33.414   3.312  10.448
 9782W        W69318  32.464  14.125   5.313
 9783W        W69319  35.075  10.854  11.409
 9784W        W69320  28.572  32.032   4.694
 9785W        W69321  29.586   7.667  14.305
 9786W        W69322  15.789  13.159  12.833
 9787W        W69323  40.871   0.942  10.098
 9788W        W69324  32.420   6.412   2.213
 9789W        W69325  22.677  13.648   4.263
 9790W        W69326   9.804   0.313   2.816
 9791W        W69327  19.243  44.823  14.800
 9792W        W69328  24.635  30.947  10.946
 9793W        W69329  33.503  34.865  12.569
 9794W        W69330   0.744  29.996  10.583
 9795W        W69331  40.970  20.144  12.342
 9796W        W69332  36.584  27.618  13.973
 9797W        W69333  13.304  10.642   2.314
 9798W        W69334   8.677  24.673   1.411
 9799W        W69335  35.937  23.522  11.430
 9800W        W69336  38.034  21.604  11.515
 9801W        W69337   1.739  28.945   3.328
 9802W        W69338  27.091  42.507  13.918
 9803W        W69339  15.695   7.214   3.838
 9804W        W69340  30.598  43.904  14.444
 9805W        W69341  22.163   0.469  12.445
 9806W        W69342  21.746   0.949  11.476
 9807W        W69343  43.906  15.668   2.767
 9808W        W69344   5.320  24.194   3.294
 9809W        W69345  37.974   1.967   1.309
 9810W        W69346  19.187  25.135  12.353
 9811W        W69347  42.504  38.986  13.895
 9812W        W69348  19.545  31.428  11.605
 9813W        W69349  43.328  23.224   1.246
 9814W        W69350  11.166  18.150   2.343
 9815W        W69351   0.475  43.923  11.057
 9816W        W69352  20.701   0.453   0.814
 9817W        W69353  26.656  24.078  12.977
 9818W        W69354  25.185   5.912  13.411
 9819W        W69355  44.813  16.080   5.111
 9820W        W69356   4.448  44.415   0.452
 9821W        W69357  17.063   2.850   1.842
 9822W        W69358   2.954  32.566  13.498
 9823W        W69359  18.170  42.830  14.964
 9824W        W69360  30.921  13.122  12.933
 9825W        W69361  16.673  14.209  11.859
 9826W        W69362  43.948   4.881   2.221
 9827W        W69363  41.536  12.127   0.764
 9828W        W69364  26.128  24.979   3.360
 9829W        W69365  19.253  15.157   2.361
 9830W        W69366   9.276  21.666   2.199
 9831W        W69367  26.126   8.855   3.180
 9832W        W69368  15.746  15.770  12.414
 9833W        W69369  42.785  33.936   0.861
 9834W        W69370   6.809  23.543   3.220
 9835W        W69371   4.328  40.376  13.345
 9836W        W69372   7.706  31.420  14.936
 9837W        W69373  11.794   4.328  13.475
 9838W        W69374  13.155  13.173   4.326
 9839W        W69375  37.936  16.134   2.397
 9840W        W69376   7.311   7.872  14.796
 9841W        W69377  16.227  31.414   2.702
 9842W        W69378  33.935  42.910   3.748
 9843W        W69379  44.501   7.227  14.766
 9844W        W69380  23.140   9.676   2.203
 9845W        W69381  32.432  28.953  14.499
 9846W        W69382  41.329  15.634  14.499
 9847W        W69383  28.153  20.645  12.081
 9848W        W69384  43.008  14.260  11.057
 9849W        W69385   4.328   0.979  11.501
 9850W        W69386  33.394  25.098   2.327
 9851W        W69387  29.462  23.679  13.474
 9852W        W69388  25.685   3.325  12.509
 9853W        W69389  34.377  25.501  14.515
 9854W        W69390   8.654  44.462   3.196
 9855W        W69391  27.110  27.583  10.421
 9856W        W69392  35.365  39.822   0.381
 9857W        W69393  17.649  43.442   1.830
 9858W        W69394   3.261  24.532  11.882
 9859W        W69395  43.779  17.140   0.872
 9860W        W69396   1.386  36.885   1.298
 9861W        W69397   8.834  34.531   2.735
 9862W        W69398  27.555  43.949  10.985
 9863W        W69399  35.372  33.009   3.330
 9864W        W69400  23.528   9.847   1.398
 9865W        W69401   6.292  36.849  10.576
 9866W        W69402  26.959  19.077  13.447
 9867W        W69403  33.556   6.710  10.613
 9868W        W69404  42.011  28.495  11.895
 9869W        W69405  14.241  16.293   3.742
 9870W        W69406  31.902  29.058  12.945
 9871W        W69407  10.712  33.910  10.500
 9872W        W69408  33.453  37.854  11.587
 9873W        W69409  10.339  18.236   2.290
 9874W        W69410  29.146   8.231   2.735
 9875W        W69411  43.870   0.969   3.649
 9876W        W69412  14.595  32.394   4.163
 9877W        W69413  34.870  21.578   3.701
 9878W        W69414  40.533  43.500   4.149
 9879W        W69415  34.410  32.475  11.907
 9880W        W69416   4.331  41.008   2.838
 9881W        W69417  17.676   5.292   0.773
 9882W        W69418  37.957  24.095   0.281
 9883W        W69419  18.144   7.897   4.738
 9884W        W69420  38.393  29.488  13.880
 9885W        W69421  27.994  28.070   4.303
 9886W        W69422  40.321   6.781  12.880
 9887W        W69423  13.188  28.524   3.665
 9888W        W69424   7.253  20.217   3.871
 9889W        W69425  13.114   6.379  10.021
 9890W        W69426  34.548  17.117  14.765
 9891W        W69427  27.549   3.882  11.398
 9892W        W69428  11.312   0.279   3.301
 9893W        W69429  12.174  19.149  12.976
 9894W        W69430  41.392  42.963   3.790
 9895W        W69431  25.989   0.771   2.277
 9896W        W69432  30.120  26.993  14.884
 9897W        W69433   8.839   2.910  12.503
 9898W        W69434  37.373  23.008  11.612
 9899W        W69435   1.328  17.705  13.027
 9900W        W69436   1.263  10.231  13.501
 9901W        W69437   4.933   8.897  12.486
 9902W        W69438  20.685  16.615   3.352
 9903W        W69439  38.871   4.289   1.930
 9904W        W69440  34.453  31.138  12.844
 9905W        W69441  44.792  15.291   2.671
 9906W        W69442  33.542   5.905   4.609
 9907W        W69443   6.801   5.913   1.370
 9908W        W69444  28.607  29.621   3.747
 9909W        W69445  44.291   7.241   3.783
 9910W        W69446  32.478  11.176  14.780
 9911W        W69447  44.374  28.540   4.240
 9912W        W69448  31.029  37.949   3.740
 9913W        W69449  37.569  15.270   4.266
 9914W        W69450  16.656  33.980   0.318
 9915W        W69451   1.452  32.455   3.243
 9916W        W69452  34.405   0.949   1.786
 9917W        W69453  28.455  27.989   2.407
 9918W        W69454  32.583  44.284   2.827
 9919W        W69455  31.048   5.335  12.901
 9920W        W69456  39.405   3.885  14.764
 9921W        W69457  24.716  40.877  11.891
 9922W        W69458   4.447  28.662  13.378
 9923W        W69459   9.836  15.723  12.452
 9924W        W69460  42.957  39.328   3.788
 9925W        W69461   4.226  39.557  12.418
 9926W        W69462  31.542  12.725  14.427
 9927W        W69463   1.856  40.861   0.733
 9928W        W69464  35.585  12.225  11.396
 9929W        W69465   7.770  30.031  10.964
 9930W        W69466  35.054  44.970  11.113
 9931W        W69467  25.538  43.906  11.512
 9932W        W69468  34.542  42.983   3.736
 9933W        W69469  30.553   9.856   1.293
 9934W        W69470   5.203  11.622  14.415
 9935W        W69471   5.252   3.821   2.882
 9936W        W69472   5.259  36.584  12.086
 9937W        W69473   6.293  36.569   3.240
 9938W        W69474  19.643  39.429  13.434
 9939W        W69475  29.530   4.834  12.531
 9940W        W69476  27.178   1.787  13.541
 9941W        W69477  34.571  21.127   3.339
 9942W        W69478   8.327  11.648  14.450
 9943W        W69479  41.878  22.700   2.211
 9944W        W69480  41.402   9.690   1.327
 9945W        W69481  30.440  17.653   1.919
 9946W        W69482  32.603  29.486  14.788
 9947W        W69483  36.521  35.926  10.612
 9948W        W69484  43.820   4.790  13.395
 9949W        W69485   6.273  33.412  10.892
 9950W        W69486  24.605   2.361  12.343
 9951W        W69487  23.027  17.067  14.391
 9952W        W69488   4.788   6.384   1.290
 9953W        W69489  26.625   2.824   4.185
 9954W        W69490  20.238  32.579  10.906
 9955W        W69491  25.109   2.317  10.619
 9956W        W69492  23.690   7.667   0.308
 9957W        W69493  35.517  34.032   2.766
 9958W        W69494  30.539  34.887  13.429
 9959W        W69495  21.627   0.440   2.708
 9960W        W69496  27.507  17.618  10.011
 9961W        W69497  32.006  18.188  10.901
 9962W        W69498  43.499  23.175   4.308
 9963W        W69499   2.871  18.563   4.258
 9964W        W69500  15.273  20.156   1.296
 9965W        W69501  40.826   0.815  14.423
 9966W        W69502   5.857  32.016  11.057
 9967W        W69503  30.416  12.156   0.734
 9968W        W69504   6.770  32.925   4.124
 9969W        W69505  11.321  39.397  10.488
 9970W        W69506  22.245   6.861   4.302
 9971W        W69507  14.695  37.473   2.367
 9972W        W69508  31.084  28.168   2.787
 9973W        W69509  36.894  19.285  13.412
 9974W        W69510  38.350  27.068   1.759
 9975W        W69511  18.689  17.090  13.429
 9976W        W69512  41.823  16.661  12.436
 9977W        W69513  43.982  16.796   1.403
 9978W        W69514  11.751  25.477   1.821
 9979W        W69515  39.879  26.130  11.027
 9980W        W69516  40.917  11.683  13.864
 9981W        W69517  24.039  36.941   1.744
 9982W        W69518  25.017   1.413  13.825
 9983W        W69519  27.121   3.262  12.886
 9984W        W69520  44.281   1.757  10.157
 9985W        W69521  29.425  31.629   2.791
 9986W        W69522  39.466  42.792  12.882
 9987W        W69523  29.617   9.869   4.697
 9988W        W69524   6.776   5.346   3.278
 9989W        W69525   7.185  32.406  13.059
 9990W        W69526   7.249   6.249   4.616
 9991W        W69527   1.382  24.176  11.913
 9992W        W69528  24.650  36.079   0.478
 9993W        W69529  39.431  12.722  12.037
 9994W        W69530  23.650  30.016  10.576
 9995W        W69531  31.597   6.276   4.753
 9996W        W69532  40.472  18.228  14.484
 9997W        W69533  28.492  30.562  11.951
 9998W        W69534  31.416  12.718  14.761
 9999W        W69535   7.381  23.099   4.329
10000W        W69536  26.116   4.411  13.011
10001W        W69537  27.524  44.391   3.342
10002W        W69538  20.666   2.401  11.577
10003W        W69539  34.463  25.029   4.304
10004W        W69540  18.087  36.578  14.314
10005W        W69541  15.641  24.128  14.493
10006W        W69542  16.701   0.260   3.633
10007W        W69543  13.199  38.571  12.488
10008W        W69544   5.889  14.287   1.438
10009W        W69545  14.809  39.529  10.945
10010W        W69546  20.140  20.730   1.753
10011W        W69547   6.790  30.582   3.801
10012W        W69548  38.858   7.744   1.394
10013W        W69549  29.439  25.525   0.928
10014W        W69550  17.246  22.018   1.380
10015W        W69551   9.371   9.883  13.486
10016W        W69552  16.086  13.814  13.342
10017W        W69553  28.647  32.414  11.451
10018W        W69554  40.497  21.246  14.929
10019W        W69555   1.778   2.275  14.375
10020W        W69556  33.430   0.250   3.836
10021W        W69557   2.312  40.040   3.176
10022W        W69558  11.363  27.567   1.223
10023W        W69559  24.122  22.156   4.273
10024W        W69560   4.722  16.173   3.226
10025W        W69561   4.890  14.305  13.357
10026W        W69562  17.791  29.506   0.864
10027W        W69563  33.050  37.067   0.359
10028W        W69564  37.856   8.319  13.516
10029W        W69565   8.658  33.588  14.453
10030W        W69566  25.037  27.550  11.610
10031W        W69567  43.917   2.469   3.286
10032W        W69568   1.259   4.395   2.886
10033W        W69569  44.356   6.190  12.026
10034W        W69570  38.978  21.175  14.434
10035W        W69571  39.378  32.059   1.210
10036W        W69572  20.260   9.774   1.840
10037W        W69573  31.618  28.026   0.928
10038W        W69574  14.802  38.024   4.209
10039W        W69575  19.165  33.422  10.506
10040W        W69576   7.330  41.424   2.256
10041W        W69577  32.990   7.198  14.343
10042W        W69578  38.412  21.662   4.774
10043W        W69579   4.930  10.155   3.199
10044W        W69580  27.681  44.884  14.801
10045W        W69581   6.791  15.249  10.548
10046W        W69582  34.005  27.491  11.113
10047W        W69583  22.616   3.920   2.236
10048W        W69584  30.049  42.802   1.255
10049W        W69585  32.115  33.126  10.597
10050W        W69586  33.878  13.603  11.377
10051W        W69587  27.126  12.678   1.258
10052W        W69588  17.255  24.126  10.618
10053W        W69589   6.744   5.198  13.451
10054W        W69590  12.327  20.586   0.456
10055W        W69591  22.583  16.094   0.859
10056W        W69592  44.766   1.251  14.966
10057W        W69593  42.290   1.429   0.249
10058W        W69594  27.152  24.611  11.995
10059W        W69595  16.284  26.698  11.007
10060W        W69596  30.958   3.324  10.985
10061W        W69597   8.242  29.096   0.897
10062W        W69598  27.549   9.268   4.239
10063W        W69599  28.590  41.791   2.262
10064W        W69600  15.644   6.230  11.473
10065W        W69601  13.654  31.487  14.360
10066W        W69602  15.710  32.042   1.707
10067W        W69603  26.678  17.695  12.849
10068W        W69604   6.914  28.144   2.408
10069W        W69605  17.748  22.669  14.024
10070W        W69606  18.759   9.326  14.965
10071W        W69607  10.284   4.872  11.104
10072W        W69608   8.786  22.020   1.299
10073W        W69609  26.517  34.459  13.417
10074W        W69610  38.974  35.960   4.711
10075W        W69611  10.212  31.476   1.774
10076W        W69612   4.737  11.160  14.776
10077W        W69613  40.974  14.656   0.786
10078W        W69614   2.723   1.812   3.226
10079W        W69615  36.512   0.945   0.262
10080W        W69616  20.686  27.680  10.917
10081W        W69617   0.338  40.429   3.630
10082W        W69618  21.186   7.248  10.624
10083W        W69619  35.444  34.881  11.124
10084W        W69620  30.157   6.288   4.124
10085W        W69621  44.374   4.423   1.309
10086W        W69622  32.960   0.881   2.344
10087W        W69623  14.329   8.813   1.245
10088W        W69624  26.498   5.696  12.046
10089W        W69625  32.472  27.660  13.323
10090W        W69626  20.644   8.362   1.452
10091W        W69627  43.941   1.881  14.771
10092W        W69628   3.917  14.211   3.354
10093W        W69629  33.061  16.632  13.962
10094W        W69630  33.480  44.446   4.247
10095W        W69631  35.430  14.113   2.685
10096W        W69632  28.503  28.544   3.221
10097W        W69633  18.262  44.283  12.402
10098W        W69634  37.515  23.528   0.293
10099W        W69635  26.993  41.322  12.870
10100W        W69636  26.006   9.885  13.383
10101W        W69637   8.694  23.989  12.509
10102W        W69638  36.907  26.191  14.760
10103W        W69639   8.654  22.627  14.970
10104W        W69640  29.518  31.087   1.825
10105W        W69641  21.705   9.682  11.537
10106W        W69642  34.580  14.676   3.259
10107W        W69643  13.316  44.393  10.975
10108W        W69644  19.686  33.490   1.816
10109W        W69645  18.113  38.967   3.757
10110W        W69646  44.889  38.451  12.922
10111W        W69647  33.991  42.301   3.195
10112W        W69648  30.981  31.070  10.633
10113W        W69649  10.160  23.630  10.515
10114W        W69650  30.582  31.495  14.475
10115W        W69651   9.173  34.863   4.351
10116W        W69652   4.379  35.986   1.817
10117W        W69653   2.779   7.327   3.198
10118W        W69654  20.172  29.115  13.318
10119W        W69655  40.412   1.456   3.248
10120W        W69656  33.945  38.903   9.982
10121W        W69657  20.251  30.564   2.670
10122W        W69658  32.413   0.744   3.774
10123W        W69659  32.427  30.164   2.338
10124W        W69660   1.462  37.896  14.799
10125W        W69661  44.784  31.124   1.935
10126W        W69662  35.916  28.081  14.943
10127W        W69663  34.104  32.930   0.412
10128W        W69664   1.889  34.429  12.436
10129W        W69665  42.447   0.463  10.413
10130W        W69666   4.746   1.317   1.914
10131W        W69667  25.469  10.869   1.395
10132W        W69668  42.443  38.938  12.881
10133W        W69669  27.691  22.088   1.277
10134W        W69670  19.636  34.563   3.713
10135W        W69671  41.345  14.796  11.947
10136W        W69672  13.332  19.658  12.872
10137W        W69673   9.645  17.747  12.901
10138W        W69674  24.545   7.665  11.998
10139W        W69675  37.510  19.207  12.452
10140W        W69676  19.136  20.075  13.894
10141W        W69677  32.551  22.642   2.725
10142W        W69678  16.104  32.420   2.341
10143W        W69679  40.470  11.344   3.669
10144W        W69680  10.146   8.668  12.963
10145W        W69681  37.455  18.258  14.967
10146W        W69682  19.261   1.767   0.944
10147W        W69683  30.159   6.392   1.324
10148W        W69684  20.528   6.408   4.678
10149W        W69685  29.638  33.018  11.401
10150W        W69686   7.342  36.881   1.820
10151W        W69687  31.978   9.849   1.710
10152W        W69688  21.146  13.610   2.859
10153W        W69689  43.323   4.733  11.531
10154W        W69690  24.612   9.317   2.788
10155W        W69691  11.808   4.304   3.291
10156W        W69692  31.529   7.383  12.089
10157W        W69693   6.823   8.312  11.581
10158W        W69694  31.438  23.580   2.789
10159W        W69695  23.050  40.009   2.716
10160W        W69696  23.133  13.295  11.901
10161W        W69697  39.469  33.103  13.795
10162W        W69698  21.580  12.661  11.997
10163W        W69699   4.735  24.629   2.696
10164W        W69700  28.451  18.588   1.329
10165W        W69701  23.674  35.389   2.816
10166W        W69702  20.229   2.400   1.440
10167W        W69703  43.854  19.535   0.780
10168W        W69704  26.951  35.523   3.746
10169W        W69705  30.461   8.681  14.888
10170W        W69706  23.072  20.717   2.241
10171W        W69707  29.652  43.429   0.348
10172W        W69708  26.128  23.513  13.455
10173W        W69709  11.144  29.528  14.794
10174W        W69710  28.999   2.803   4.128
10175W        W69711  35.967  18.737   0.778
10176W        W69712  25.185   6.235   4.677
10177W        W69713  16.270  14.335  13.057
10178W        W69714  22.555  12.345  14.477
10179W        W69715   0.375   2.260  12.373
10180W        W69716  32.889  28.182  12.033
10181W        W69717  38.428  44.780  13.421
10182W        W69718  21.053  42.858   2.229
10183W        W69719  43.992   2.872   2.745
10184W        W69720  16.170  15.126  10.406
10185W        W69721  32.447  39.853   0.792
10186W        W69722  17.156  19.740  12.001
10187W        W69723  44.773   8.881  12.543
10188W        W69724  42.869  35.520  11.519
10189W        W69725  19.136  42.836   3.345
10190W        W69726  41.361  19.756   0.819
10191W        W69727  21.655  36.429   1.745
10192W        W69728  21.169  22.672  12.900
10193W        W69729  38.857   3.847   2.864
10194W        W69730  26.988  12.727   3.173
10195W        W69731  39.951  11.367  13.525
10196W        W69732   1.313  34.428   0.462
10197W        W69733  17.636  10.223   0.348
10198W        W69734  29.101   7.403   1.295
10199W        W69735   7.693   4.742   3.337
10200W        W69736  33.990  37.336   2.720
10201W        W69737   2.386  33.123   2.277
10202W        W69738  23.574  27.026  11.570
10203W        W69739  28.029  34.085  12.554
10204W        W69740  40.029   8.190   2.715
10205W        W69741   0.253  42.502  11.549
10206W        W69742  28.059  43.916   4.226
10207W        W69743  44.796   4.400  13.000
10208W        W69744  33.499  20.040  10.992
10209W        W69745  29.927  13.234  10.921
10210W        W69746  12.614  27.450  12.498
10211W        W69747  28.966  30.554   3.651
10212W        W69748   8.268  42.862  14.928
10213W        W69749  43.945  17.221  14.465
10214W        W69750  27.010  36.498   2.734
10215W        W69751   3.899  26.029   2.676
10216W        W69752  38.396  43.510   0.283
10217W        W69753   4.721  41.303   0.925
10218W        W69754  15.639  10.330  14.335
10219W        W69755  42.966  10.242   1.224
10220W        W69756  40.451  26.698   1.295
10221W        W69757  21.163   5.836   0.420
10222W        W69758  20.685  35.501  13.807
10223W        W69759  35.043  44.396  12.863
10224W        W69760   1.305  43.397  10.519
10225W        W69761  32.090  36.445   2.836
10226W        W69762  27.162  26.457  13.391
10227W        W69763  14.260  31.442  14.360
10228W        W69764   7.912   4.240   2.297
10229W        W69765  31.990  32.467  13.862
10230W        W69766  36.034  43.843  10.956
10231W        W69767  21.138  14.166   2.742
10232W        W69768  11.211   8.681   0.875
10233W        W69769   3.814  17.198  14.823
10234W        W69770  25.162   6.235  11.038
10235W        W69771   3.816   6.806  13.049
10236W        W69772  14.296  12.846  12.390
10237W        W69773   5.305   6.852  10.989
10238W        W69774  34.969  43.297   2.412
10239W        W69775  43.401  28.064   9.926
10240W        W69776  23.578  39.939   1.767
10241W        W69777  41.980  14.101  11.464
10242W        W69778   3.865   7.364  13.326
10243W        W69779  24.516  32.003  12.085
10244W        W69780   5.400  36.563  13.391
10245W        W69781  26.032  25.201   0.358
10246W        W69782  32.478   1.480   4.668
10247W        W69783  18.579  37.920  11.544
10248W        W69784  36.909  27.638  10.923
10249W        W69785  38.952  43.766   3.862
10250W        W69786  35.413   7.412   2.680
10251W        W69787  32.013  38.465   4.142
10252W        W69788   1.868  43.930   3.639
10253W        W69789  32.898  31.086  12.391
10254W        W69790  11.764  32.583  10.116
10255W        W69791  43.862  21.090   3.278
10256W        W69792   6.893   9.849  14.434
10257W        W69793   5.744  40.944   2.804
10258W        W69794  22.142   2.419   9.664
10259W        W69795  34.609  26.023   9.466
10260W        W69796   0.450  38.020   0.323
10261W        W69797  33.953  23.241  14.971
10262W        W69798   8.245  27.018  14.909
10263W        W69799  38.931  14.095   1.334
10264W        W69800  32.023  25.485  12.507
10265W        W69801   7.875   4.243   4.207
10266W        W69802  21.568  35.909  13.899
10267W        W69803  26.563  27.039   0.393
10268W        W69804  11.196  33.991   2.221
10269W        W69805  32.139   0.301   1.842
10270W        W69806  25.024   5.879  14.375
10271W        W69807  11.198   6.298   4.233
10272W        W69808  14.113  20.666  13.924
10273W        W69809  43.959   7.230   2.360
10274W        W69810  21.531  15.300   0.347
10275W        W69811   8.786   7.226  10.088
10276W        W69812  23.639   8.381  13.064
10277W        W69813  26.514   7.686  11.411
10278W        W69814  33.434  21.707  11.897
10279W        W69815   4.258   1.905  14.443
10280W        W69816  15.811   0.913  13.502
10281W        W69817  19.622  10.716  14.804
10282W        W69818  11.690  17.279  11.448
10283W        W69819  18.682  44.000   2.781
10284W        W69820  28.179   4.823   3.854
10285W        W69821  28.666  27.159  10.947
10286W        W69822   1.237  39.318  13.988
10287W        W69823   5.355   2.836  12.065
10288W        W69824  40.996   9.297  13.906
10289W        W69825  13.174  41.366  14.986
10290W        W69826  36.372  28.110  11.018
10291W        W69827   2.252  33.589  12.370
10292W        W69828  24.040  20.554  13.517
10293W        W69829   5.799  34.440  10.566
10294W        W69830  28.656  24.179   1.425
10295W        W69831  18.761  21.745   0.348
10296W        W69832  32.940  22.582  10.472
10297W        W69833  32.885  24.630   1.723
10298W        W69834   6.188  22.013  13.828
10299W        W69835  33.460  41.293   3.184
10300W        W69836  36.976  36.576  10.988
10301W        W69837  26.687  20.746  14.439
10302W        W69838   1.314  11.337   4.117
10303W        W69839  32.544  32.987  13.912
10304W        W69840  20.674  11.641   3.655
10305W        W69841  30.974  23.537   4.722
10306W        W69842  35.980  38.826  14.817
10307W        W69843  17.563  12.169  13.317
10308W        W69844   5.226   1.908   4.217
10309W        W69845  19.063  30.939  13.877
10310W        W69846  17.174  20.642  13.897
10311W        W69847   7.234  16.109  13.036
10312W        W69848  36.457  31.520  13.509
10313W        W69849  41.798  18.275  10.007
10314W        W69850  23.554  42.423  12.388
10315W        W69851  39.007  40.323   3.281
10316W        W69852  41.945   3.906   3.713
10317W        W69853   7.268  15.672  13.451
10318W        W69854   8.321  19.576   1.737
10319W        W69855   0.353  10.304  14.874
10320W        W69856  22.092   9.669   3.257
10321W        W69857   6.206  21.604  10.415
10322W        W69858  30.419   1.970   3.693
10323W        W69859  11.743  44.902   3.235
10324W        W69860  13.223  23.660  12.432
10325W        W69861  24.226  35.069   2.389
10326W        W69862  34.970  31.560   0.803
10327W        W69863  44.396  43.276   0.759
10328W        W69864  27.994   3.449  10.620
10329W        W69865  10.299  12.222  12.878
10330W        W69866  19.554  25.664   3.224
10331W        W69867   9.261  30.918   4.150
10332W        W69868  35.860  31.630  12.466
10333W        W69869  35.987   9.721   3.298
10334W        W69870  16.708  13.644  14.504
10335W        W69871  41.011  38.856  12.013
10336W        W69872   8.865   2.720  10.528
10337W        W69873  14.814  24.683  11.950
10338W        W69874  26.579   4.716  14.432
10339W        W69875   4.208  23.062  11.084
10340W        W69876  16.751  12.778  14.766
10341W        W69877  39.321   8.847  10.958
10342W        W69878  30.927  35.389   1.393
10343W        W69879  17.758  21.066  10.517
10344W        W69880  38.058  34.961  14.398
10345W        W69881  23.115   7.669  11.533
10346W        W69882  43.942   3.250  14.412
10347W        W69883  41.992  23.657   1.441
10348W        W69884  35.949  21.753  13.891
10349W        W69885   3.755  32.040   0.291
10350W        W69886  41.864  44.923  12.863
10351W        W69887  21.020  29.589   3.169
10352W        W69888  16.150  36.583   0.796
10353W        W69889   5.400   6.745   1.282
10354W        W69890  42.454   8.722   0.417
10355W        W69891  13.843  26.191  13.944
10356W        W69892  26.613  13.631   1.827
10357W        W69893   4.743  19.118   4.257
10358W        W69894  23.570  21.574  12.463
10359W        W69895   6.321  12.231  13.343
10360W        W69896  16.211  29.161  10.566
10361W        W69897   5.760   9.805  10.600
10362W        W69898  12.182  11.134  10.923
10363W        W69899  41.921  20.062  14.829
10364W        W69900  41.031  17.789   2.194
10365W        W69901  21.521  12.745   2.836
10366W        W69902  11.328   0.871  13.958
10367W        W69903  11.671  11.632  10.586
10368W        W69904  40.993   1.832   5.314
10369W        W69905   2.947  38.962   4.295
10370W        W69906  21.092  36.424   9.984
10371W        W69907   4.321  42.382   2.252
10372W        W69908  23.240  25.554   3.176
10373W        W69909  33.117  19.657   0.732
10374W        W69910  41.434   8.398   2.878
10375W        W69911  20.745  37.551   2.263
10376W        W69912  19.137  23.038   9.527
10377W        W69913   9.327  18.071  13.466
10378W        W69914  21.617   8.176   4.355
10379W        W69915  43.941  40.801   4.139
10380W        W69916  11.843  17.207   3.739
10381W        W69917  32.028   1.923   1.879
10382W        W69918  28.572  17.214   9.648
10383W        W69919  13.794   3.216   1.711
10384W        W69920  36.552  11.307   2.757
10385W        W69921  43.967   9.790   4.352
10386W        W69922  33.041  10.163  12.002
10387W        W69923  22.687  29.024  13.449
10388W        W69924  34.412  36.419   0.945
10389W        W69925  27.526   8.305  11.092
10390W        W69926  35.428  16.674   2.815
10391W        W69927  30.600  30.554  14.908
10392W        W69928   8.291  37.013  10.601
10393W        W69929  21.215   7.290   2.226
10394W        W69930  38.894  22.058  13.893
10395W        W69931   1.443   9.795   3.331
10396W        W69932  19.100   5.270   2.675
10397W        W69933  43.294   3.847  13.361
10398W        W69934  23.099  32.443   4.822
10399W        W69935   2.930  40.972   3.236
10400W        W69936  44.328   5.753   2.720
10401W        W69937  22.624   7.779   2.274
10402W        W69938  11.824  27.511  13.903
10403W        W69939   2.419  34.880  12.547
10404W        W69940  25.582  11.220  11.443
10405W        W69941  39.486   9.254  14.314
10406W        W69942  26.550  18.562   1.889
10407W        W69943  13.239  26.525  12.339
10408W        W69944  34.528  11.775  11.897
10409W        W69945  35.001  29.663   1.362
10410W        W69946  10.719  29.493  10.941
10411W        W69947   4.395  31.437  10.978
10412W        W69948  23.179   5.396  11.089
10413W        W69949  42.957  31.413  14.989
10414W        W69950  42.841  25.496  12.028
10415W        W69951   1.779  31.043   1.893
10416W        W69952   5.921   6.746   4.741
10417W        W69953  16.142  38.989  10.079
10418W        W69954  17.169  40.333  10.581
10419W        W69955  37.390  40.035  13.843
10420W        W69956  37.465   0.467  11.035
10421W        W69957   0.278  35.512  14.361
10422W        W69958  43.786   6.270   0.889
10423W        W69959   7.862   2.232  13.796
10424W        W69960  19.109  43.919   3.747
10425W        W69961   3.840  35.894  12.433
10426W        W69962  26.976  15.216   1.269
10427W        W69963  41.454  40.977   4.816
10428W        W69964  43.901  28.141  13.370
10429W        W69965  18.589  29.552  12.053
10430W        W69966  25.182   9.364  13.861
10431W        W69967  33.597  10.295  10.480
10432W        W69968  39.954  10.160   3.692
10433W        W69969   4.877  35.530  10.634
10434W        W69970   8.853  32.964  12.437
10435W        W69971  37.069  26.581   4.183
10436W        W69972  43.382  24.085   4.621
10437W        W69973   7.312  29.114   3.748
10438W        W69974  16.600  36.977   4.751
10439W        W69975   6.400  36.089   1.262
10440W        W69976   2.937  32.035   0.909
10441W        W69977   6.685  11.132  14.004
10442W        W69978  42.875  39.508  11.002
10443W        W69979  32.589  24.557  14.512
10444W        W69980   8.727  12.249   4.222
10445W        W69981  21.147  15.732  13.389
10446W        W69982  26.046  30.950   3.719
10447W        W69983  28.952  18.625  14.898
10448W        W69984   7.346  13.155   2.866
10449W        W69985  17.775  33.874  14.769
10450W        W69986  20.052  16.627   2.823
10451W        W69987  34.991   0.249   3.286
10452W        W69988  18.769  41.358  11.917
10453W        W69989  29.123  38.469   0.275
10454W        W69990  13.199  44.887   1.789
10455W        W69991  26.198   0.269  13.992
10456W        W69992  31.075   2.961   0.881
10457W        W69993   0.438  12.183  12.944
10458W        W69994  28.987  43.377   0.823
10459W        W69995  20.254  39.361  10.513
10460W        W69996  38.551  22.670   1.841
10461W        W69997  30.982  26.508   3.253
10462W        W69998  29.131  18.661  11.023
10463W        W69999  12.116  39.950  10.982
10464W        W70000   5.860  33.977  14.444
10465W        W70001  24.133  44.307   2.892
10466W        W70002  15.729  27.536   0.814
10467W        W70003  24.112  43.292   2.289
10468W        W70004  44.319   3.449   1.433
10469W        W70005  18.207  31.997   4.707
10470W        W70006  10.728  24.171   1.258
10471W        W70007  44.279  39.392  12.453
10472W        W70008   5.363  18.552   2.843
10473W        W70009  43.516   0.941   1.274
10474W        W70010  29.646   0.754   2.359
10475W        W70011  36.348  40.903   3.674
10476W        W70012  23.116  20.656   1.322
10477W        W70013  29.082  11.840   4.176
10478W        W70014   4.282  15.656   1.385
10479W        W70015  23.148  33.412   4.301
10480W        W70016   7.818   1.259   1.913
10481W        W70017  42.384  15.119   0.765
10482W        W70018  35.078  15.765  10.545
10483W        W70019  33.939  22.546   0.368
10484W        W70020  28.477  17.098  11.069
10485W        W70021  26.119  28.931  14.822
10486W        W70022  33.386  13.302  12.565
10487W        W70023  37.072  22.542   4.148
10488W        W70024  14.293  18.768  10.946
10489W        W70025  12.643  41.004   3.238
10490W        W70026  15.781  12.804   2.279
10491W        W70027  13.269  14.152   3.697
10492W        W70028  43.986  31.552  14.994
10493W        W70029  41.512  13.269   3.234
10494W        W70030  40.807  36.939   2.720
10495W        W70031  33.121  14.337  14.414
10496W        W70032  35.949   2.369   9.956
10497W        W70033  10.279  32.058   1.395
10498W        W70034   9.785  37.899  14.856
10499W        W70035  36.368  25.679   3.209
10500W        W70036  25.119  38.824   3.788
10501W        W70037  27.183   9.749   4.811
10502W        W70038  16.121  35.498   1.741
10503W        W70039  28.529  24.992   1.725
10504W        W70040  38.896  13.771   2.293
10505W        W70041  37.460  40.904   4.635
10506W        W70042  41.341  16.100  14.445
10507W        W70043  39.026  28.502  11.889
10508W        W70044  35.042   3.416  13.034
10509W        W70045  11.227  31.115   1.445
10510W        W70046  19.195  11.848  11.882
10511W        W70047  12.123  35.987  12.851
10512W        W70048   0.956  16.750  14.975
10513W        W70049  32.917  33.481  10.905
10514W        W70050  18.702  28.048   3.720
10515W        W70051  23.177  17.234  11.884
10516W        W70052  37.543   5.925  11.916
10517W        W70053  35.042   8.839  11.461
10518W        W70054  14.769  38.833   1.387
10519W        W70055  37.035   3.232  13.324
10520W        W70056  29.513  14.123   0.472
10521W        W70057   6.239  29.113  14.285
10522W        W70058   4.894   2.232  14.980
10523W        W70059  11.358  38.328  11.874
10524W        W70060  43.859  20.763  12.084
10525W        W70061  34.018   0.315   2.396
10526W        W70062  36.466  44.767   0.813
10527W        W70063  31.461  30.611  10.443
10528W        W70064   2.441  41.381  11.952
10529W        W70065  41.321  26.596   4.338
10530W        W70066   4.761   8.829  14.894
10531W        W70067  38.554  10.142   2.377
10532W        W70068  40.940   3.907  10.569
10533W        W70069  33.543  43.830   0.749
10534W        W70070  11.129  44.312   3.782
10535W        W70071  39.375  15.129  11.488
10536W        W70072  36.455  35.520  14.442
10537W        W70073  14.161  19.123   4.181
10538W        W70074  29.044  11.187   0.310
10539W        W70075  32.493  41.528  12.576
10540W        W70076  12.646  11.673  14.775
10541W        W70077   8.829  44.269  13.798
10542W        W70078  39.929  19.753   2.203
10543W        W70079   6.285  35.063   0.273
10544W        W70080  19.077  11.341  14.490
10545W        W70081  32.049  19.145  12.953
10546W        W70082  36.946   3.346   4.688
10547W        W70083  14.185  20.553   3.216
10548W        W70084   6.691  41.531   0.930
10549W        W70085  32.486  22.673  12.884
10550W        W70086  18.165  27.090  11.562
10551W        W70087  29.047  26.688   1.214
10552W        W70088  11.229  43.380  10.446
10553W        W70089  34.489  22.186   4.231
10554W        W70090  44.326  35.471  11.494
10555W        W70091  25.671  39.936  11.112
10556W        W70092  30.992  29.587  11.475
10557W        W70093  24.100  34.086   3.714
10558W        W70094  40.374  13.762  14.992
10559W        W70095  16.151  17.641  14.991
10560W        W70096  25.099  41.430  11.565
10561W        W70097  37.408  14.197   4.712
10562W        W70098   6.679  35.038   3.343
10563W        W70099  15.123  18.645  14.786
10564W        W70100  32.003  39.847  11.530
10565W        W70101  23.036  13.624   3.333
10566W        W70102  19.064  28.528  11.025
10567W        W70103  39.443  30.018  10.984
10568W        W70104  42.815  37.489  14.952
10569W        W70105  26.626  13.784   5.110
10570W        W70106   6.843   3.771  13.923
10571W        W70107  14.133   8.405  13.348
10572W        W70108   0.450   6.335   3.283
10573W        W70109  10.789   0.378   4.710
10574W        W70110  44.983  36.982  13.418
10575W        W70111  28.092  15.612  13.864
10576W        W70112  33.974   8.728  11.488
10577W        W70113   2.817  15.635   4.597
10578W        W70114   7.788  19.230  12.480
10579W        W70115  35.437  12.684   0.767
10580W        W70116   6.360  27.024   5.673
10581W        W70117  30.097  36.908  11.101
10582W        W70118   9.757  43.330   2.304
10583W        W70119   9.715   6.401  13.033
10584W        W70120  37.979  37.497  10.608
10585W        W70121   1.919  39.490   3.792
10586W        W70122  19.191  25.624   2.397
10587W        W70123  30.926   4.854   1.744
10588W        W70124  21.135  20.653   1.235
10589W        W70125  19.185  43.017   0.763
10590W        W70126  21.062   8.395   4.342
10591W        W70127  10.661  18.166  10.915
10592W        W70128   9.728  36.376  11.550
10593W        W70129  39.415  12.796  14.386
10594W        W70130  17.628  40.813   4.777
10595W        W70131   9.729   6.336  13.507
10596W        W70132   0.843   1.891   1.745
10597W        W70133  32.023   0.376  12.501
10598W        W70134   3.899  34.923   0.960
10599W        W70135  31.500  36.025  14.949
10600W        W70136  39.997  27.121   2.410
10601W        W70137  36.979  35.565   2.668
10602W        W70138  20.076  14.784  10.606
10603W        W70139   2.906  27.539  12.380
10604W        W70140  11.332  10.659  12.869
10605W        W70141  22.202   9.709   0.793
10606W        W70142   6.846   8.857  12.462
10607W        W70143  22.011  39.998  14.384
10608W        W70144   8.204   1.820  14.455
10609W        W70145  36.871  20.588  12.972
10610W        W70146  24.186  10.185  11.497
10611W        W70147  16.676  33.397   0.817
10612W        W70148  15.133  19.690  11.078
10613W        W70149   6.359  21.234  11.487
10614W        W70150   6.237  42.945   3.338
10615W        W70151  25.709  21.618  11.407
10616W        W70152  41.894  14.747   2.400
10617W        W70153  28.491  40.932  14.979
10618W        W70154  13.246  23.995   1.321
10619W        W70155   4.875  44.990   2.185
10620W        W70156   0.452   0.797  12.867
10621W        W70157  19.170  13.226  11.110
10622W        W70158  27.463  26.188   3.837
10623W        W70159  42.894  25.523  13.432
10624W        W70160  38.906  18.081   2.800
10625W        W70161  41.331  24.711  12.064
10626W        W70162  43.449  42.312   3.305
10627W        W70163  43.959   4.445  11.566
10628W        W70164  30.429   2.803   4.672
10629W        W70165  35.943   6.365   0.921
10630W        W70166  13.731   4.354  13.917
10631W        W70167  16.642  43.898  13.322
10632W        W70168  43.495  31.016  12.963
10633W        W70169   3.382   4.714   3.244
10634W        W70170  15.779  20.676   1.756
10635W        W70171   4.288  18.063   2.307
10636W        W70172  38.334  42.399  12.407
10637W        W70173  40.385   9.720  10.583
10638W        W70174  30.914  25.511  14.994
10639W        W70175  43.914  23.218  13.397
10640W        W70176  18.058  24.593   0.410
10641W        W70177   3.833  14.602   0.384
10642W        W70178   7.305   1.352   1.712
10643W        W70179  37.406  17.706  13.906
10644W        W70180   3.881  32.454   4.188
10645W        W70181  24.227  30.967  14.449
10646W        W70182  12.350  10.831   1.831
10647W        W70183  25.592  30.080   0.268
10648W        W70184  20.082   8.360   0.295
10649W        W70185   3.262  32.403  11.448
10650W        W70186  33.008  21.056   3.263
10651W        W70187   6.863   2.923  13.942
10652W        W70188  26.646  38.969  10.970
10653W        W70189   4.312  41.427   0.294
10654W        W70190   8.671  31.926   4.604
10655W        W70191   3.233   1.455  11.601
10656W        W70192  18.055  33.948  11.551
10657W        W70193   2.907  24.517   9.484
10658W        W70194  41.958   2.742   3.707
10659W        W70195   6.697   3.798  13.411
10660W        W70196  23.516  14.735   0.850
10661W        W70197  22.050  19.070   4.282
10662W        W70198  26.600  24.106   3.639
10663W        W70199   1.271  17.788   3.659
10664W        W70200  28.576  34.004  11.549
10665W        W70201  27.534  21.208   0.844
10666W        W70202   0.475  21.745  12.986
10667W        W70203  39.870   2.953   0.823
10668W        W70204   6.890  35.900  12.539
10669W        W70205   5.380  33.566  13.380
10670W        W70206   5.889  29.602  14.002
10671W        W70207  28.108  35.939  10.013
10672W        W70208  19.774  29.137  12.555
10673W        W70209  29.559  20.604   4.611
10674W        W70210  28.018   4.374   3.658
10675W        W70211   8.285   5.900  13.491
10676W        W70212  16.096  44.357  11.986
10677W        W70213  18.069   9.654   4.689
10678W        W70214  20.695   3.312   2.337
10679W        W70215  37.393  25.053  10.525
10680W        W70216  28.549  11.171  12.954
10681W        W70217   4.282  33.586   1.843
10682W        W70218  33.006  10.709   4.271
10683W        W70219  26.143  22.177   0.841
10684W        W70220   4.444  17.298   4.213
10685W        W70221  32.624   5.786  11.560
10686W        W70222  24.072  34.382  12.343
10687W        W70223  12.832  26.689  11.040
10688W        W70224  16.305   3.879   3.747
10689W        W70225  22.528  27.096  10.601
10690W        W70226   4.267   7.410  13.014
10691W        W70227  16.715  34.058   4.273
10692W        W70228  32.458  25.071  11.510
10693W        W70229  24.488   7.837   2.893
10694W        W70230  23.999  31.445   1.770
10695W        W70231  19.678  22.654   4.354
10696W        W70232  13.227   5.782   4.327
10697W        W70233  33.527  26.966  13.909
10698W        W70234  34.077  20.742   3.339
10699W        W70235  42.391   9.198  11.990
10700W        W70236  28.677  31.495  13.542
10701W        W70237  21.152  15.286  11.861
10702W        W70238  11.261  33.986  12.884
10703W        W70239  24.022  41.426  12.553
10704W        W70240  13.808   5.748  10.539
10705W        W70241  37.482   7.359   0.451
10706W        W70242   7.742  34.607   4.238
10707W        W70243   9.155   3.749   4.226
10708W        W70244   4.346   7.813  10.903
10709W        W70245  13.299  15.200  11.927
10710W        W70246  35.024  19.057   3.380
10711W        W70247  24.143  39.848  12.010
10712W        W70248  16.701  32.525   3.245
10713W        W70249  37.361  26.102  13.425
10714W        W70250  28.130  43.361   3.200
10715W        W70251  33.578  39.527   0.757
10716W        W70252  10.853  15.195  10.990
10717W        W70253   8.400  23.111   4.239
10718W        W70254  14.745   0.837   1.350
10719W        W70255  27.042   6.807  11.876
10720W        W70256  20.522   6.397   4.339
10721W        W70257  28.989  13.678   4.324
10722W        W70258  42.835  34.589  12.406
10723W        W70259  14.733   2.263  13.529
10724W        W70260  32.592   0.481  14.890
10725W        W70261  28.501  13.339   3.838
10726W        W70262  44.993   4.310  13.355
10727W        W70263  17.752  23.529  10.614
10728W        W70264  23.653  21.159   0.337
10729W        W70265  20.266  21.187   4.296
10730W        W70266  44.935  14.802  10.625
10731W        W70267   3.733   5.795  13.916
10732W        W70268  30.099   8.322  14.512
10733W        W70269  25.699  19.571  13.050
10734W        W70270   4.938  12.804  14.511
10735W        W70271   9.668  15.152  11.602
10736W        W70272  20.537  24.161  10.627
10737W        W70273  38.453  20.085  14.023
10738W        W70274   4.308  32.041  13.433
10739W        W70275  25.088  30.584   1.450
10740W        W70276  12.326  31.930   2.216
10741W        W70277   2.777  31.964   2.810
10742W        W70278  29.444   6.405  11.014
10743W        W70279  26.596  32.464   1.386
10744W        W70280  11.178  39.899   3.336
10745W        W70281  26.656  35.854   3.631
10746W        W70282  42.925   4.786   2.894
10747W        W70283  26.099  20.114   2.417
10748W        W70284   2.801  37.510   4.238
10749W        W70285  18.259  12.243  12.002
10750W        W70286  39.829  35.005   4.729
10751W        W70287  26.653  41.403  13.375
10752W        W70288   8.752  35.535   0.923
10753W        W70289  16.580  13.791  12.829
10754W        W70290   5.412  10.766  13.858
10755W        W70291  22.613  44.755   1.296
10756W        W70292  43.786  35.419  14.298
10757W        W70293  12.206   3.275   1.848
10758W        W70294   5.282  39.411  11.499
10759W        W70295  22.709  31.046  10.595
10760W        W70296   1.909  23.495   0.334
10761W        W70297  20.028   1.460   3.831
10762W        W70298  32.582  32.431   0.952
10763W        W70299  18.163  44.463   4.805
10764W        W70300   6.680  33.981   3.148
10765W        W70301  41.860  36.346   3.739
10766W        W70302  41.021  30.640   0.311
10767W        W70303  15.805  26.088   3.785
10768W        W70304  33.545  15.667  14.470
10769W        W70305  34.938  40.922  13.414
10770W        W70306  27.169  44.367   3.755
10771W        W70307  17.295  38.456   0.891
10772W        W70308   6.296  42.783   0.414
10773W        W70309  18.208   2.793   0.338
10774W        W70310  22.745  22.080   0.732
10775W        W70311  24.081  31.018   1.447
10776W        W70312   6.851  24.201   1.316
10777W        W70313  44.771   1.288  12.064
10778W        W70314  38.976   7.845   4.192
10779W        W70315   5.716  35.517   3.635
10780W        W70316   7.731   2.321  12.559
10781W        W70317  15.173  31.523  11.957
10782W        W70318   1.293   4.763   2.356
10783W        W70319  40.856   3.336   4.772
10784W        W70320  15.134  26.570   2.811
10785W        W70321  27.609  23.198   3.792
10786W        W70322  30.009   2.750   2.895
10787W        W70323  44.332   5.819   2.368
10788W        W70324   2.238  18.272   3.861
10789W        W70325  26.570  12.299  11.920
10790W        W70326   4.789  33.488  10.559
10791W        W70327  31.911   5.404  11.919
10792W        W70328   2.382  13.633  10.505
10793W        W70329  34.911  38.336   1.837
10794W        W70330  27.614   4.754  13.885
10795W        W70331  39.922   8.367   4.607
10796W        W70332   3.885  34.402  10.641
10797W        W70333  24.550  44.893   3.643
10798W        W70334  29.599  26.498   4.701
10799W        W70335  10.675  19.079   2.864
10800W        W70336  11.814  27.994  11.903
10801W        W70337  15.247   3.741   4.124
10802W        W70338  29.467  36.348   1.782
10803W        W70339  16.657  22.545   2.264
10804W        W70340  35.880  28.453  13.907
10805W        W70341  44.407   0.467   3.222
10806W        W70342  44.951  41.006  12.005
10807W        W70343  30.930  16.751  12.519
10808W        W70344  26.195  38.558  11.505
10809W        W70345   5.390  30.946  13.947
10810W        W70346  30.413  35.519   3.672
10811W        W70347  30.919  34.377   0.851
10812W        W70348   4.265  44.328  11.414
10813W        W70349   0.340  13.836   4.288
10814W        W70350  41.462   4.810  11.037
10815W        W70351  16.585   4.274   4.614
10816W        W70352  31.988  22.219   2.410
10817W        W70353  16.809   6.366  11.049
10818W        W70354  20.225   1.413  14.773
10819W        W70355  14.651  15.115  14.882
10820W        W70356  44.979  26.693  11.404
10821W        W70357  20.077  40.916   1.771
10822W        W70358  41.322  12.170   3.734
10823W        W70359  22.152  36.586  14.482
10824W        W70360  14.628  32.505  12.057
10825W        W70361  17.104  17.770   2.403
10826W        W70362  44.764  10.705   4.644
10827W        W70363  14.261   1.293   0.957
10828W        W70364  36.892  33.067  14.844
10829W        W70365  18.210  31.410   2.717
10830W        W70366  35.476  24.975  12.861
10831W        W70367  39.911  28.518  14.333
10832W        W70368  17.576  26.043  12.884
10833W        W70369   6.800  44.310   1.915
10834W        W70370   0.261  34.038   3.786
10835W        W70371  15.626  36.495  14.960
10836W        W70372  13.176   1.756  13.971
10837W        W70373  42.915   9.344   1.250
10838W        W70374  35.044  10.189  11.105
10839W        W70375  42.028  27.056   1.779
10840W        W70376  30.956  14.706  14.482
10841W        W70377  39.481  32.624  13.331
10842W        W70378   4.265  39.360   1.905
10843W        W70379  19.583  37.528   4.154
10844W        W70380  39.850  34.039  12.855
10845W        W70381  16.085  32.540   1.796
10846W        W70382  14.315  16.699   1.828
10847W        W70383   1.278   0.469  10.933
10848W        W70384  42.414  22.058  13.509
10849W        W70385  39.553  17.739  13.941
10850W        W70386  39.333  43.379   1.703
10851W        W70387  28.504  35.870   0.758
10852W        W70388  22.595  25.483  13.468
10853W        W70389  18.290  18.741  12.434
10854W        W70390  16.272  38.556   2.844
10855W        W70391  20.718  11.309   0.416
10856W        W70392  22.651  28.549   0.786
10857W        W70393  23.562  17.103   1.312
10858W        W70394  36.885  27.110   4.288
10859W        W70395   5.323  38.870   1.318
10860W        W70396  33.976  10.683  11.119
10861W        W70397  37.527  19.630   1.257
10862W        W70398  44.885  33.551  13.461
10863W        W70399  43.323  37.860   3.692
10864W        W70400   6.235  18.235   0.429
10865W        W70401  32.006   2.335  14.769
10866W        W70402   7.885  17.268   0.256
10867W        W70403  38.367  13.180   1.747
10868W        W70404  44.916  12.613   2.723
10869W        W70405  26.549  42.958   3.315
10870W        W70406  17.077  29.637  10.017
10871W        W70407  39.362  32.447  13.849
10872W        W70408  32.916   1.472  14.967
10873W        W70409  20.529  35.892   2.705
10874W        W70410  37.015  29.012   2.784
10875W        W70411  37.040   2.815  13.381
10876W        W70412  13.350  23.490  11.926
10877W        W70413  42.836  33.024   1.369
10878W        W70414  23.550  18.050   1.844
10879W        W70415  33.498   8.335   0.787
10880W        W70416   3.227   9.683  14.855
10881W        W70417   2.926  27.099   5.202
10882W        W70418  18.237  28.986   3.795
10883W        W70419  30.055   0.952   3.341
10884W        W70420  38.486  27.962   2.271
10885W        W70421  27.153  19.606   5.144
10886W        W70422   5.827  32.053  13.375
10887W        W70423   1.766  32.967  10.450
10888W        W70424  42.984   5.812   2.709
10889W        W70425  15.729  36.002   0.907
10890W        W70426  23.624  25.569   2.868
10891W        W70427  33.578   3.451  12.952
10892W        W70428  36.093   9.842  14.908
10893W        W70429  29.095   0.970   4.354
10894W        W70430  35.913   2.295  13.940
10895W        W70431  22.705  33.055   9.939
10896W        W70432  23.518   4.890  11.068
10897W        W70433  42.288  25.010  13.047
10898W        W70434  23.604   5.391  10.092
10899W        W70435  24.123  21.197  13.324
10900W        W70436  19.635  43.967  12.921
10901W        W70437  37.526  27.180  12.846
10902W        W70438   1.400   5.866   0.950
10903W        W70439  40.841  38.416  11.997
10904W        W70440  15.283  17.743  10.144
10905W        W70441   5.405   2.901  13.419
10906W        W70442  40.392  11.145  10.056
10907W        W70443   0.349  34.979  14.414
10908W        W70444   6.392  32.027  12.349
10909W        W70445  40.833  20.031   3.764
10910W        W70446  37.561  19.204   0.357
10911W        W70447   7.181  12.675  12.565
10912W        W70448  16.796  21.676   4.237
10913W        W70449  15.151  11.624  10.496
10914W        W70450  44.365  18.220  11.497
10915W        W70451  33.031  17.271   0.243
10916W        W70452  28.156  29.063   3.772
10917W        W70453   8.811   8.278   3.744
10918W        W70454   1.332  10.180   3.844
10919W        W70455   3.321  24.109  13.467
10920W        W70456  31.020  23.636   0.323
10921W        W70457  32.553   5.776  12.578
10922W        W70458  16.143  31.985  14.354
10923W        W70459   5.365  18.081  11.967
10924W        W70460  27.650  28.088  14.760
10925W        W70461  13.746  18.759  14.454
10926W        W70462  41.803   1.413   1.321
10927W        W70463  40.528   4.835   0.768
10928W        W70464  28.454  29.070   4.325
10929W        W70465  10.846  39.859   4.641
10930W        W70466   4.902  27.164   4.227
10931W        W70467  24.190  10.367  11.942
10932W        W70468  33.079  23.170  14.295
10933W        W70469  41.454  12.223   4.689
10934W        W70470  42.970  20.113   5.086
10935W        W70471   2.769   7.735  11.579
10936W        W70472  18.701  25.686  14.514
10937W        W70473   2.459  19.211  12.490
10938W        W70474   4.827  36.379   1.761
10939W        W70475   7.206  43.830  14.356
10940W        W70476  35.964  33.911   4.766
10941W        W70477  30.946  36.032   1.935
10942W        W70478  41.497  29.157   0.732
10943W        W70479  35.529  31.147  12.533
10944W        W70480  34.614  22.557   1.394
10945W        W70481  34.436   4.845  13.944
10946W        W70482  26.582  15.169   4.697
10947W        W70483  36.450  26.597   3.865
10948W        W70484  33.584  30.447  14.794
10949W        W70485   6.427  27.043  11.079
10950W        W70486  13.679   5.721  11.515
10951W        W70487   6.210  32.071   0.823
10952W        W70488  25.181  29.513  12.406
10953W        W70489  43.275  37.506  10.993
10954W        W70490  30.996  36.049   3.700
10955W        W70491  27.185   7.318   1.695
10956W        W70492  16.307  36.060  12.447
10957W        W70493  14.117  43.418   0.349
10958W        W70494  23.115  39.540   2.681
10959W        W70495  22.722  42.379   0.885
10960W        W70496  15.737  29.149  11.072
10961W        W70497  21.719  12.640   4.295
10962W        W70498  36.561  37.396   4.759
10963W        W70499  11.340  34.869   4.665
10964W        W70500  10.846   5.379  11.013
10965W        W70501  12.672  43.829  10.547
10966W        W70502  15.772  26.626   0.250
10967W        W70503   6.846  44.780   3.266
10968W        W70504   1.470  36.926   4.158
10969W        W70505  15.622  36.855   1.303
10970W        W70506  24.674  27.119  12.043
10971W        W70507  11.311  18.711   0.756
10972W        W70508  40.932  38.439  12.831
10973W        W70509   6.816   6.720   3.212
10974W        W70510  12.820  22.076   1.846
10975W        W70511  36.019  43.981   4.240
10976W        W70512  28.472  17.594   5.129
10977W        W70513  42.448  10.714  10.914
10978W        W70514   7.376  20.549   0.383
10979W        W70515   4.317   5.695  12.517
10980W        W70516   1.394   6.742   2.721
10981W        W70517  19.730  11.139  11.548
10982W        W70518  41.432   3.423  11.469
10983W        W70519  37.044   6.309  10.581
10984W        W70520   5.246  35.421   2.407
10985W        W70521  24.724   5.919  14.793
10986W        W70522  36.020  41.019  14.940
10987W        W70523   2.927  30.095   2.213
10988W        W70524   1.962  17.787  10.909
10989W        W70525  25.147  14.163  12.034
10990W        W70526  25.618  11.245  13.374
10991W        W70527  14.098  41.829  13.005
10992W        W70528   4.335   2.942  14.918
10993W        W70529  37.850   8.892   1.384
10994W        W70530   8.185   4.768  13.958
10995W        W70531  38.405  32.961   4.218
10996W        W70532  29.455  37.544   2.897
10997W        W70533  12.619  10.196   4.302
10998W        W70534  26.996   8.398   1.885
10999W        W70535   0.909   6.831  14.309
11000W        W70536  10.209  38.966   1.440
11001W        W70537  23.133   8.203   0.261
11002W        W70538  27.196  29.510  12.549
11003W        W70539  34.447  24.116   3.306
11004W        W70540  33.558   0.248  11.939
11005W        W70541   6.419  43.271   1.400
11006W        W70542  10.354  35.526  13.311
11007W        W70543  37.420   3.233   5.248
11008W        W70544  43.271  33.992  12.962
11009W        W70545  13.680  19.239  11.055
11010W        W70546  38.516  15.646   1.289
11011W        W70547  35.497   3.826   2.272
11012W        W70548  44.804  36.078  12.934
11013W        W70549  19.200   5.839   2.780
11014W        W70550  16.658   8.233   3.755
11015W        W70551  21.610  27.197  10.479
11016W        W70552  23.599  16.234  14.020
11017W        W70553  22.221   2.721  14.432
11018W        W70554  10.693  28.583   1.704
11019W        W70555   5.198  30.096   4.735
11020W        W70556  29.929  40.420  12.942
11021W        W70557   9.801  14.761  11.008
11022W        W70558  40.319  25.014  11.125
11023W        W70559  43.875  33.414   1.835
11024W        W70560   7.682   7.241   0.909
11025W        W70561  33.967  17.233  13.059
11026W        W70562  37.946  24.995   3.834
11027W        W70563  44.852   8.201   0.392
11028W        W70564  27.646   8.888  12.403
11029W        W70565   7.763  20.181   1.770
11030W        W70566  37.365  35.000  14.897
11031W        W70567   8.324  36.852  13.392
11032W        W70568  14.135  14.711  14.842
11033W        W70569  12.725  18.283  12.380
11034W        W70570  15.671   6.880   3.146
11035W        W70571  30.032  37.932   3.337
11036W        W70572  41.458  28.136   1.729
11037W        W70573  16.093   9.855  10.419
11038W        W70574  28.092  42.004   4.269
11039W        W70575  43.501  17.740  13.423
11040W        W70576  39.318  17.099   3.280
11041W        W70577   3.336  20.734   3.867
11042W        W70578  40.999  32.092   3.825
11043W        W70579  20.241  21.576   2.402
11044W        W70580  37.418  11.752  11.884
11045W        W70581  23.719  42.882  11.924
11046W        W70582  13.785  40.303   3.827
11047W        W70583  36.095  43.321   0.767
11048W        W70584   5.923  38.992   1.276
11049W        W70585  17.146  20.146  13.366
11050W        W70586  42.985  31.502  11.536
11051W        W70587  31.458   3.791  13.945
11052W        W70588  24.713  32.036  11.560
11053W        W70589   9.824   1.421   2.252
11054W        W70590  37.412  33.967   3.821
11055W        W70591  43.466  42.505   1.385
11056W        W70592  43.394  44.920   1.717
11057W        W70593  13.678  33.923  10.979
11058W        W70594  31.549  37.970   4.144
11059W        W70595   5.882   3.246   0.304
11060W        W70596  10.161  30.648  14.788
11061W        W70597  23.628  34.584   1.900
11062W        W70598  44.483  28.458   0.862
11063W        W70599  29.430  39.884  14.936
11064W        W70600  18.248  42.860   3.867
11065W        W70601  15.173   0.286  12.003
11066W        W70602  12.698  15.727   4.655
11067W        W70603   5.719  42.808   0.881
11068W        W70604  20.223   3.715  12.376
11069W        W70605  23.573  12.686  14.828
11070W        W70606  40.360  44.978  12.449
11071W        W70607  42.788  35.394   0.935
11072W        W70608   2.239   7.374   0.323
11073W        W70609   5.910  37.530   1.764
11074W        W70610  40.973  36.417  11.924
11075W        W70611  20.071  42.428  13.376
11076W        W70612  12.630  13.613  12.993
11077W        W70613  12.755  43.889   0.301
11078W        W70614  25.670  16.573  12.413
11079W        W70615   7.252   0.847   2.261
11080W        W70616  34.948   5.255   4.744
11081W        W70617  16.813  23.240  12.563
11082W        W70618  34.481   9.313   0.264
11083W        W70619  12.857  22.590   1.927
11084W        W70620  20.106  28.534   4.235
11085W        W70621  14.723  23.103  14.388
11086W        W70622  41.342  22.127   2.703
11087W        W70623  10.346  39.549  11.909
11088W        W70624  25.999  27.121  13.389
11089W        W70625   6.887  41.798  11.402
11090W        W70626  19.148  17.100   2.373
11091W        W70627  40.491  16.146  14.954
11092W        W70628   5.268  42.829   2.864
11093W        W70629  34.120  29.518   2.889
11094W        W70630  16.140   3.256   3.208
11095W        W70631  14.155  11.202  14.865
11096W        W70632   9.732   3.889   2.857
11097W        W70633  43.816   1.816  11.864
11098W        W70634   7.208   2.965   1.445
11099W        W70635  14.810   4.755  14.002
11100W        W70636   9.764  32.521   2.388
11101W        W70637  30.945  33.038  12.370
11102W        W70638  14.225  16.670  10.604
11103W        W70639  21.181  17.795   4.608
11104W        W70640   9.249  37.572  13.381
11105W        W70641  37.082   5.907   3.801
11106W        W70642  26.051   2.818   4.776
11107W        W70643  16.742  32.564   4.296
11108W        W70644  20.566  11.164   0.807
11109W        W70645  33.436  27.990  12.871
11110W        W70646   6.875  40.402  11.478
11111W        W70647  32.105  20.191  13.468
11112W        W70648   4.876  15.739   4.789
11113W        W70649  40.477  33.490   5.197
11114W        W70650  27.182   2.256   1.771
11115W        W70651  26.105  29.529  11.064
11116W        W70652   9.886  30.596   3.370
11117W        W70653  36.095  34.563   0.348
11118W        W70654   7.191  27.075  14.949
11119W        W70655  34.939  36.957   3.231
11120W        W70656  33.610   5.199   3.859
11121W        W70657  40.345  36.530   2.886
11122W        W70658  31.490  13.151  11.607
11123W        W70659  39.532  14.688  12.892
11124W        W70660   4.867  41.979   1.417
11125W        W70661  37.356   9.230  13.844
11126W        W70662  43.307  29.967   0.250
11127W        W70663  38.437   3.411  10.466
11128W        W70664   7.774  35.468   4.339
11129W        W70665  43.963  32.396  11.504
11130W        W70666   1.310  29.479   3.727
11131W        W70667  17.783  19.608  14.932
11132W        W70668   7.173  31.054   1.750
11133W        W70669  18.775  34.068  10.604
11134W        W70670   8.253  41.867  12.418
11135W        W70671  10.736   1.281   1.783
11136W        W70672  13.662  10.189  11.473
11137W        W70673  20.129  44.851  14.890
11138W        W70674  23.132  34.384   5.757
11139W        W70675  37.057  32.067  14.993
11140W        W70676   6.313  18.140   9.972
11141W        W70677  26.069  20.254   3.342
11142W        W70678  20.060  27.667  11.043
11143W        W70679  39.428  41.493   2.858
11144W        W70680  15.243  36.849  10.640
11145W        W70681  16.114  19.680  13.920
11146W        W70682  40.858  22.042   4.681
11147W        W70683  42.033  14.827  14.332
11148W        W70684   8.202  14.605   0.918
11149W        W70685  18.650   8.287   4.272
11150W        W70686   9.847  30.079  14.004
11151W        W70687   8.265  16.298   0.341
11152W        W70688  20.111  14.809   1.233
11153W        W70689  31.972  33.055  13.947
11154W        W70690   3.225  29.143  11.058
11155W        W70691  40.972  12.669  14.515
11156W        W70692  39.041  22.102  11.031
11157W        W70693  12.820  16.303  12.374
11158W        W70694  36.081  33.109  14.392
11159W        W70695  18.715  19.633   3.347
11160W        W70696   3.793  16.256   4.353
11161W        W70697  29.098  25.973   2.266
11162W        W70698  22.019  19.150   0.785
11163W        W70699   0.912  37.928   4.339
11164W        W70700   9.752  17.576  12.354
11165W        W70701   1.240  37.058   2.376
11166W        W70702  38.353   8.367   1.394
11167W        W70703  39.997  37.973   1.805
11168W        W70704   2.324  28.946   2.741
11169W        W70705  32.584  31.943  12.445
11170W        W70706  44.971  37.920  11.415
11171W        W70707  17.305  42.828  14.854
11172W        W70708  29.529   9.206  12.079
11173W        W70709  33.022  26.149  12.531
11174W        W70710  35.079  41.926   0.901
11175W        W70711  12.212   5.898   1.284
11176W        W70712  13.213  10.824  13.954
11177W        W70713   2.238  30.945   4.331
11178W        W70714  27.961  39.366   0.433
11179W        W70715   9.367  36.023  13.826
11180W        W70716  36.565  37.339   4.188
11181W        W70717  14.748  40.373   0.352
11182W        W70718  29.993  29.595   2.223
11183W        W70719   6.875  38.519   0.352
11184W        W70720  18.745  42.030   0.309
11185W        W70721  17.793   1.965  14.476
11186W        W70722  12.845   6.843  13.994
11187W        W70723  34.418   1.480  11.961
11188W        W70724   1.479  20.699  12.865
11189W        W70725  21.185   3.865  14.828
11190W        W70726  27.097  14.164   0.896
11191W        W70727  42.884   8.714  11.533
11192W        W70728  20.069  34.107  14.792
11193W        W70729  32.137  38.005  13.044
11194W        W70730   5.348   8.205  10.558
11195W        W70731  21.073  43.278  13.893
11196W        W70732   5.263   0.298  14.988
11197W        W70733  32.507  17.774   3.291
11198W        W70734  12.273  20.128   1.283
11199W        W70735   6.421   8.353  11.918
11200W        W70736  27.456  32.972   2.808
11201W        W70737  11.278  30.164   1.870
11202W        W70738  44.006  22.544  10.926
11203W        W70739  38.997  38.993   4.631
11204W        W70740  18.157   9.826  13.980
11205W        W70741   9.719   3.849  11.567
11206W        W70742  32.977   4.774   3.178
11207W        W70743  35.920  25.975  14.324
11208W        W70744   2.776  18.635   3.208
11209W        W70745  22.522  21.254  12.046
11210W        W70746   3.362   0.962  10.961
11211W        W70747  44.390  27.180   4.302
11212W        W70748  26.548  29.174   2.403
11213W        W70749   2.359  24.223   0.945
11214W        W70750  35.035  14.627  12.382
11215W        W70751  32.439  22.087   1.920
11216W        W70752   9.262   4.929   0.481
11217W        W70753  31.497   5.387  10.482
11218W        W70754  26.635  29.508   2.663
11219W        W70755   4.449   3.220   3.678
11220W        W70756  37.357  16.625  12.421
11221W        W70757   5.688  23.074   0.876
11222W        W70758  25.535  38.900  13.917
11223W        W70759  25.191  13.277  11.013
11224W        W70760  13.673  17.681   3.307
11225W        W70761  13.685  24.115   3.714
11226W        W70762   7.758  13.643   3.211
11227W        W70763   7.857  13.223  11.582
11228W        W70764  10.250   6.848  13.504
11229W        W70765  44.443  32.064   5.273
11230W        W70766   4.745  31.596   1.328
11231W        W70767  22.012  37.491   0.788
11232W        W70768  22.743  41.912   2.677
11233W        W70769  34.382  20.117   0.742
11234W        W70770  12.774  15.659  10.514
11235W        W70771  35.107  41.477  13.534
11236W        W70772  42.016  43.469  13.892
11237W        W70773   9.874   6.844  14.809
11238W        W70774   1.862  41.024  10.428
11239W        W70775  26.066  44.753  12.484
11240W        W70776  11.650  31.463   4.708
11241W        W70777   1.397  32.982  12.501
11242W        W70778   8.200  16.668  13.517
11243W        W70779  20.073  33.621   0.766
11244W        W70780  13.319  20.718  13.528
11245W        W70781   6.810  11.185   2.819
11246W        W70782  10.747  20.174  13.499
11247W        W70783  20.682  18.660  12.574
11248W        W70784  10.727  21.172  10.001
11249W        W70785   3.766   6.779   1.910
11250W        W70786  21.220  34.938   0.316
11251W        W70787  25.676  38.003  12.374
11252W        W70788  18.287  41.032  11.549
11253W        W70789  38.025  14.285  10.932
11254W        W70790   0.756  22.744   0.347
11255W        W70791  37.537  18.764  11.383
11256W        W70792  23.075  19.072  11.991
11257W        W70793   1.920   0.335   4.322
11258W        W70794  29.106  17.694  12.837
11259W        W70795  25.205  43.432   3.265
11260W        W70796   6.715  24.498  12.034
11261W        W70797  20.635   8.384   4.293
11262W        W70798   8.270   4.868  11.397
11263W        W70799  14.710   0.954  13.548
11264W        W70800  34.506  26.485   4.809
11265W        W70801  38.841  25.178  11.059
11266W        W70802  11.849  11.645  10.053
11267W        W70803  13.601  14.124   2.893
11268W        W70804  15.601  31.937   3.649
11269W        W70805  10.168   2.883  10.644
11270W        W70806  15.250  24.020  13.964
11271W        W70807   7.342  15.820   0.788
11272W        W70808  33.908  10.288  14.365
11273W        W70809   8.355  10.265   0.383
11274W        W70810   1.246  40.042   3.741
11275W        W70811  38.563  38.921   4.737
11276W        W70812   6.261  12.687  13.886
11277W        W70813  17.664   7.368   3.653
11278W        W70814   3.416   0.885   5.114
11279W        W70815  17.697  15.160   3.350
11280W        W70816  43.966  34.549   0.945
11281W        W70817  10.292  16.752  11.904
11282W        W70818  11.160   2.470   0.810
11283W        W70819  31.547  21.080   0.798
11284W        W70820  18.056  33.495  14.775
11285W        W70821  19.676  43.321   3.307
11286W        W70822   8.216   6.708   4.290
11287W        W70823  19.603  18.576   9.926
11288W        W70824  14.198  11.675  10.527
11289W        W70825   9.385  37.932  14.278
11290W        W70826  12.341  15.255  14.001
11291W        W70827  18.676  41.817   4.167
11292W        W70828   2.765  22.604  11.997
11293W        W70829  37.436   6.413   0.927
11294W        W70830  22.545  42.448   2.777
11295W        W70831  26.517   4.435  11.004
11296W        W70832  26.487  35.966   2.306
11297W        W70833  34.082  38.005  10.943
11298W        W70834  42.798   3.257   1.739
11299W        W70835  44.878  10.264   0.335
11300W        W70836  13.237  32.887   2.354
11301W        W70837  19.604   0.355  14.325
11302W        W70838  34.012  41.862  14.869
11303W        W70839  32.066  22.088   1.859
11304W        W70840  13.645  41.459  12.450
11305W        W70841  43.458  28.128   1.351
11306W        W70842  32.955  23.671   4.231
11307W        W70843  34.923   4.450   4.630
11308W        W70844  43.005  27.647   1.758
11309W        W70845  23.006  41.953   2.829
11310W        W70846  34.422   4.871  11.453
11311W        W70847   3.375  10.336  12.092
11312W        W70848  33.016  23.229   2.739
11313W        W70849   1.291  31.941   5.227
11314W        W70850   3.893  17.629   3.772
11315W        W70851  33.127  17.709   1.855
11316W        W70852  36.446   1.250  12.979
11317W        W70853  18.573   6.912   4.155
11318W        W70854  13.236   0.950   3.742
11319W        W70855  37.877  29.488   2.235
11320W        W70856  21.165  18.294   4.323
11321W        W70857  23.717   0.760  11.896
11322W        W70858   1.835  24.603  10.131
11323W        W70859  16.737  38.820  13.030
11324W        W70860  26.549  25.121   0.416
11325W        W70861  32.960  22.664   1.901
11326W        W70862  34.994  11.165  11.513
11327W        W70863   3.237  40.043   0.333
11328W        W70864  12.286  19.643  11.973
11329W        W70865  33.047   1.283   4.612
11330W        W70866  19.669  42.287  12.368
11331W        W70867  37.844   8.367  10.547
11332W        W70868   1.399  44.325  10.000
11333W        W70869  28.554  36.396  14.777
11334W        W70870   5.325  37.559  11.943
11335W        W70871   8.752  13.241   3.780
11336W        W70872  32.941   1.828   0.316
11337W        W70873   6.878   9.386  11.396
11338W        W70874  41.824  36.844   4.777
11339W        W70875  24.018  39.339  13.318
11340W        W70876   8.324  25.489  14.918
11341W        W70877  22.646   1.449  12.375
11342W        W70878  16.146  13.118  14.941
11343W        W70879  17.080  10.745  10.551
11344W        W70880  26.163   5.779  10.540
11345W        W70881   9.751  40.483   2.265
11346W        W70882  16.709  30.649  13.462
11347W        W70883  20.722  32.390  11.377
11348W        W70884  37.493  25.115   0.809
11349W        W70885  42.418  30.052   1.851
11350W        W70886  14.262  18.059  13.906
11351W        W70887   8.696  20.160  10.606
11352W        W70888  10.678  36.386   2.299
11353W        W70889   7.217  18.277  11.392
11354W        W70890  32.418  41.010  14.386
11355W        W70891  13.666  13.156   2.380
11356W        W70892  14.792  21.573  14.987
11357W        W70893   4.427  36.918   0.369
11358W        W70894  32.407  36.424  12.916
11359W        W70895  31.504  38.442  14.939
11360W        W70896  24.071  25.214  13.341
11361W        W70897  10.266  12.649   4.708
11362W        W70898  21.514  25.971  13.063
11363W        W70899  29.013  26.698   4.625
11364W        W70900  30.623  36.010   1.362
11365W        W70901  26.990  10.772   1.827
11366W        W70902   9.335  34.613  13.438
11367W        W70903  35.592   6.368  12.857
11368W        W70904   2.378  13.215   2.198
11369W        W70905  33.074  20.743  12.971
11370W        W70906  15.114   3.403  14.913
11371W        W70907  13.122  26.003   4.170
11372W        W70908  32.114  39.427  13.399
11373W        W70909   0.298  12.144   1.392
11374W        W70910  42.350  27.544  11.531
11375W        W70911  31.004   5.416   0.902
11376W        W70912   2.268  41.043   4.777
11377W        W70913   8.353  23.608  11.547
11378W        W70914   2.436  14.773   2.732
11379W        W70915  43.809   1.867   1.807
11380W        W70916  33.480  32.049  11.069
11381W        W70917  19.614  28.114   1.251
11382W        W70918  41.788   2.920  13.937
11383W        W70919  39.976  22.169   4.153
11384W        W70920  12.150  20.588  13.413
11385W        W70921  34.073  17.165  14.850
11386W        W70922  19.773   1.920   1.788
11387W        W70923  35.406  23.029   3.274
11388W        W70924  36.998  42.848  14.471
11389W        W70925  23.492   9.219  12.029
11390W        W70926  16.139  42.827  14.868
11391W        W70927  15.084  14.710   3.184
11392W        W70928  40.937  12.254  10.621
11393W        W70929  22.020   6.813   0.886
11394W        W70930   0.856  21.636   1.895
11395W        W70931   8.362   3.772  13.450
11396W        W70932  28.165  28.083  13.019
11397W        W70933  40.386  15.614  13.512
11398W        W70934  15.126  27.659  12.503
11399W        W70935  40.432  17.745  12.401
11400W        W70936  38.343  15.620  12.565
11401W        W70937  10.684   6.428   9.622
11402W        W70938   4.751  30.435   2.245
11403W        W70939  19.615  26.601  13.004
11404W        W70940  20.199  43.771  13.545
11405W        W70941  25.710   5.759   2.276
11406W        W70942  13.689   5.715   0.257
11407W        W70943  32.444  24.151  10.534
11408W        W70944  31.142  33.615   3.320
11409W        W70945  40.392  20.166   3.164
11410W        W70946  44.335  44.328   3.865
11411W        W70947  24.693  16.143  10.899
11412W        W70948  25.579  43.858   0.460
11413W        W70949  14.101  12.268  13.403
11414W        W70950  40.802  44.833   0.381
11415W        W70951  12.743  22.105   2.819
11416W        W70952  11.339  41.922  12.552
11417W        W70953  44.431  44.951   3.693
11418W        W70954   5.767  10.210   4.222
11419W        W70955  23.564   4.208  14.982
11420W        W70956   2.898  40.401   3.262
11421W        W70957  38.480  18.060  14.823
11422W        W70958  37.361  17.182   1.838
11423W        W70959  19.256  25.648  11.072
11424W        W70960   4.741  27.066  14.492
11425W        W70961   6.882   6.184  12.528
11426W        W70962  39.508   5.418  12.349
11427W        W70963  38.009  10.729  10.412
11428W        W70964  26.640   8.370  12.411
11429W        W70965  18.765  39.958  12.004
11430W        W70966  13.330  17.573   4.199
11431W        W70967  14.269  23.687  14.922
11432W        W70968  10.318   6.247  12.043
11433W        W70969  30.055  40.360  13.918
11434W        W70970  25.100  16.752   3.658
11435W        W70971  34.386   8.368  13.535
11436W        W70972   3.830  44.481  11.860
11437W        W70973   9.861   4.215  12.082
11438W        W70974  11.781  24.168  10.972
11439W        W70975  23.614   2.898  11.455
11440W        W70976   7.401  30.074   4.342
11441W        W70977  19.102  17.295   1.753
11442W        W70978  37.431  26.588  11.895
11443W        W70979  20.044  20.200  12.886
11444W        W70980   5.328  44.925  14.425
11445W        W70981  39.384  25.118  13.018
11446W        W70982  18.233   3.833  14.759
11447W        W70983  21.143  18.127   1.236
11448W        W70984  12.702  40.992   0.888
11449W        W70985  15.686  36.053   2.714
11450W        W70986  33.922  39.952  10.941
11451W        W70987  41.921  11.171  12.407
11452W        W70988  28.437  40.873   0.303
11453W        W70989   6.238  12.675  13.525
11454W        W70990  23.691  26.533  12.525
11455W        W70991  29.003  30.659   4.746
11456W        W70992  43.812   1.875  13.878
11457W        W70993  29.102  30.011   2.196
11458W        W70994  23.573   4.755  12.539
11459W        W70995  10.339  23.666   3.690
11460W        W70996  10.756  44.279   0.420
11461W        W70997   1.768  44.851  14.857
11462W        W70998  37.453  26.631  12.984
11463W        W70999  19.682  41.825   3.336
11464W        W71000   3.443  23.164   1.267
11465W        W71001  24.528  40.801  14.504
11466W        W71002  17.108   8.696  10.508
11467W        W71003   3.807  40.850  14.902
11468W        W71004   6.321  30.548  12.358
11469W        W71005   5.739  39.471  10.484
11470W        W71006   2.282  26.487   5.763
11471W        W71007  32.513  36.034  14.788
11472W        W71008  44.781  38.047   0.338
11473W        W71009  19.752  32.523   2.895
11474W        W71010  29.568  15.235  14.467
11475W        W71011  31.535   1.348   3.381
11476W        W71012  22.101   9.866  13.007
11477W        W71013  17.659  25.139   4.633
11478W        W71014  35.884  30.042  11.392
11479W        W71015  29.924  40.390  11.904
11480W        W71016  40.371  37.441   2.379
11481W        W71017  21.755  40.894  12.041
11482W        W71018  32.889  10.768   3.277
11483W        W71019  38.999   8.381   4.659
11484W        W71020  32.634  38.429  12.886
11485W        W71021   2.347  43.429   3.156
11486W        W71022   5.316  31.909  13.308
11487W        W71023  14.753  23.988   3.742
11488W        W71024  31.432  30.457  12.424
11489W        W71025   4.704   7.219   3.285
11490W        W71026  11.664  20.232  11.599
11491W        W71027  14.779  42.358  14.338
11492W        W71028  36.417  35.582  12.551
11493W        W71029   0.304  22.573  11.543
11494W        W71030  37.471   7.333   2.337
11495W        W71031   4.911   9.674  14.819
11496W        W71032  36.880   7.355  13.466
11497W        W71033  35.583  21.226  14.886
11498W        W71034  13.344  27.519   2.769
11499W        W71035  22.656  31.909   1.908
11500W        W71036  22.644  13.180  13.038
11501W        W71037   4.430  35.444  12.372
11502W        W71038  19.286   9.732  12.021
11503W        W71039   0.468  11.258   2.832
11504W        W71040   5.777   4.722  14.292
11505W        W71041   8.192  38.921   4.633
11506W        W71042  21.095  44.469  14.304
11507W        W71043  13.252   9.648  12.930
11508W        W71044   7.682   4.395   3.258
11509W        W71045  39.502  30.476   5.151
11510W        W71046  17.792  24.071   4.796
11511W        W71047  41.493  16.780  12.093
11512W        W71048  43.989  17.287  11.989
11513W        W71049  25.692   5.798   4.163
11514W        W71050  30.971  34.456  11.427
11515W        W71051  41.911  27.604  11.918
11516W        W71052  25.702  22.576  12.954
11517W        W71053  42.885  40.392  10.414
11518W        W71054  19.644  13.753   1.849
11519W        W71055  27.064  32.476   0.350
11520W        W71056  33.091  27.619  14.430
11521W        W71057  29.613  12.155   1.893
11522W        W71058  19.690  17.681  11.490
11523W        W71059  33.972  22.071  11.428
11524W        W71060  27.461   7.817  11.374
11525W        W71061  10.723  24.537   4.255
11526W        W71062  22.209  42.996   4.191
11527W        W71063  20.135   8.676  12.875
11528W        W71064   2.844  16.100  11.602
11529W        W71065  24.973  28.482  14.805
11530W        W71066  28.996  20.202  13.802
11531W        W71067  15.144  29.087  11.024
11532W        W71068  11.666   4.701   1.326
11533W        W71069  36.961  30.087   3.237
11534W        W71070   5.912  11.243   3.863
11535W        W71071  37.388   2.781   5.719
11536W        W71072  17.622  41.354   3.150
11537W        W71073   0.970  41.418  13.506
11538W        W71074  11.290  27.022   1.701
11539W        W71075   5.812   9.215   2.844
11540W        W71076  28.676  33.946   1.851
11541W        W71077  44.765   1.466   3.751
11542W        W71078  33.379   8.833  14.779
11543W        W71079   0.944   8.338   1.274
11544W        W71080  27.546   4.803  14.956
11545W        W71081  37.088  30.518  14.886
11546W        W71082   0.825   7.730   0.911
11547W        W71083  43.303  10.363  11.546
11548W        W71084  24.187   2.312  11.381
11549W        W71085  26.489  29.040  10.462
11550W        W71086  44.400  41.374  12.043
11551W        W71087  27.500  11.771   1.435
11552W        W71088  11.732  21.573  11.582
11553W        W71089  42.995  26.473   4.162
11554W        W71090  17.694  28.041   4.143
11555W        W71091  24.639  37.011   2.178
11556W        W71092  17.736  22.634   4.280
11557W        W71093  29.628   1.281  14.997
11558W        W71094   8.794   6.841  13.829
11559W        W71095  21.716  14.137   3.824
11560W        W71096  36.915   5.907  13.849
11561W        W71097  43.941   4.433  13.930
11562W        W71098  41.821  32.920   0.770
11563W        W71099  24.099  25.172   2.419
11564W        W71100  23.598   5.333   0.411
11565W        W71101  42.798   4.439  11.587
11566W        W71102  36.921  38.853   0.308
11567W        W71103  25.559  33.952  13.850
11568W        W71104   1.776  19.112  12.037
11569W        W71105  19.215  42.510  12.964
11570W        W71106  16.639  41.925   3.659
11571W        W71107  14.126  18.701   5.084
11572W        W71108  21.577   4.364   3.179
11573W        W71109  42.808   0.876  12.543
11574W        W71110  36.890   1.303  11.874
11575W        W71111   2.802  44.441  13.948
11576W        W71112  12.856  26.015  10.974
11577W        W71113  18.262   8.693  10.488
11578W        W71114  15.590  37.578   1.929
11579W        W71115  16.268  37.517   2.282
11580W        W71116  36.368   7.720  10.587
11581W        W71117  31.907   0.266   2.749
11582W        W71118  26.494  36.070  10.935
11583W        W71119  24.188  16.273  11.912
11584W        W71120  29.616  21.738  10.994
11585W        W71121  41.319   7.816   3.865
11586W        W71122  27.690  18.713  14.788
11587W        W71123   2.297  10.849  14.496
11588W        W71124  18.666  31.097   3.164
11589W        W71125  28.025  27.462   1.919
11590W        W71126  27.453   5.845  11.536
11591W        W71127  44.919  42.407  14.773
11592W        W71128   7.793  44.289   1.350
11593W        W71129  43.369   6.217   2.323
11594W        W71130  24.629  36.523  11.034
11595W        W71131  25.191  20.228   3.655
11596W        W71132   1.928  21.077   4.181
11597W        W71133   6.873   6.424   3.291
11598W        W71134   5.281  35.079   1.931
11599W        W71135  34.940  34.385   2.866
11600W        W71136  24.536  21.611  12.066
11601W        W71137  35.880  39.872  14.378
11602W        W71138   4.837  22.572   3.197
11603W        W71139   1.976  27.010  11.375
11604W        W71140  12.353   0.380  10.480
11605W        W71141  31.932  29.508  10.503
11606W        W71142   3.407  39.062   1.342
11607W        W71143   5.692  24.194  12.393
11608W        W71144  27.577  39.914   0.409
11609W        W71145  23.558  10.862   2.320
11610W        W71146  35.429   7.912   4.804
11611W        W71147  40.331   9.393  10.923
11612W        W71148  14.195  10.320   2.785
11613W        W71149  28.495  14.732   3.196
11614W        W71150  22.531  21.134  11.378
11615W        W71151  14.217  20.201  12.960
11616W        W71152   8.238  12.612  13.521
11617W        W71153  37.069  33.416   2.277
11618W        W71154  20.763  12.770   1.699
11619W        W71155  24.510   5.863   3.356
11620W        W71156  15.234  11.744  13.897
11621W        W71157   0.886  36.906  14.378
11622W        W71158  14.609  16.810   0.308
11623W        W71159   3.380  10.375   4.171
11624W        W71160  36.378  29.159   3.687
11625W        W71161  28.013  42.880   3.657
11626W        W71162  42.953  33.031   3.383
11627W        W71163  23.669  12.223  13.328
11628W        W71164  37.510  39.549   1.374
11629W        W71165  35.538  38.374  13.312
11630W        W71166  14.137  11.219   4.164
11631W        W71167  41.294  44.428  11.415
11632W        W71168  31.962   2.273   1.847
11633W        W71169  42.414  32.635   2.675
11634W        W71170  36.430  31.138  14.814
11635W        W71171   8.697  39.387  13.476
11636W        W71172  38.957  24.005   5.262
11637W        W71173  29.102   8.752  11.951
11638W        W71174  36.540  44.831   5.663
11639W        W71175  15.578  17.219  11.108
11640W        W71176   1.803  41.852   0.879
11641W        W71177  15.813  32.561  11.871
11642W        W71178  37.903  44.977   2.334
11643W        W71179  29.082  44.494   4.207
11644W        W71180  43.990  37.541  14.945
11645W        W71181  17.752  15.614  12.947
11646W        W71182  12.203  22.687   4.128
11647W        W71183   7.872  26.641   0.842
11648W        W71184  22.613  44.929  12.355
11649W        W71185  44.881   1.326   0.949
11650W        W71186   7.669   6.775   1.438
11651W        W71187  14.156  16.595  11.880
11652W        W71188  34.469  24.228  10.510
11653W        W71189  26.020  13.812   3.205
11654W        W71190  14.223  13.142   1.221
11655W        W71191  18.133   4.434   4.231
11656W        W71192  27.562  17.615  13.498
11657W        W71193   8.312  39.465   4.301
11658W        W71194  17.245  26.577   2.419
11659W        W71195  24.683   7.291   3.674
11660W        W71196  24.702  20.047  10.435
11661W        W71197  42.901  44.993  10.449
11662W        W71198  40.046   3.403  12.391
11663W        W71199  35.526  41.535   2.338
11664W        W71200  25.631  32.102   3.167
11665W        W71201  39.475  21.231  13.798
11666W        W71202  25.590  10.212   2.297
11667W        W71203  23.516  33.045   5.102
11668W        W71204  25.989  10.174  14.836
11669W        W71205  41.459  12.169   1.787
11670W        W71206   4.927  26.031  11.042
11671W        W71207  16.568  43.876   0.752
11672W        W71208  44.915  41.293  13.376
11673W        W71209  38.865   9.670  13.907
11674W        W71210  38.824  21.101  14.014
11675W        W71211  31.530  20.616   2.334
11676W        W71212  32.066  31.924  12.897
11677W        W71213  36.949  12.149   2.180
11678W        W71214  32.026   7.676   4.175
11679W        W71215  21.249  19.149  13.425
11680W        W71216  20.569   2.731   3.375
11681W        W71217  25.138  34.519  11.551
11682W        W71218  25.080  32.569   1.844
11683W        W71219  11.307  26.476   2.763
11684W        W71220  13.747  28.514   2.254
11685W        W71221  15.593  18.204   1.302
11686W        W71222   0.912  37.431  12.886
11687W        W71223  18.218  17.170  14.797
11688W        W71224   7.415   7.198   4.285
11689W        W71225  37.463  38.445  10.525
11690W        W71226   9.647  18.633   4.810
11691W        W71227   3.330  22.057   0.424
11692W        W71228   3.272  12.182  10.903
11693W        W71229  29.628  40.054  13.548
11694W        W71230  17.117  37.042  13.357
11695W        W71231  43.008  21.143   3.169
11696W        W71232  33.972  25.629   3.860
11697W        W71233  34.934  25.113   0.796
11698W        W71234  22.643   3.933   9.620
11699W        W71235  19.571  40.967   2.325
11700W        W71236   5.206  38.484   2.247
11701W        W71237  34.065  22.658  12.537
11702W        W71238  17.098  13.342  10.540
11703W        W71239   8.776   5.389   1.833
11704W        W71240  13.716  18.579  10.985
11705W        W71241  44.450   9.339  11.872
11706W        W71242  10.694  19.590   2.772
11707W        W71243  38.969  15.317  14.787
11708W        W71244  25.690  38.421   4.281
11709W        W71245  13.632  23.720   2.205
11710W        W71246  27.940   6.367  12.025
11711W        W71247   5.366   7.307  12.863
11712W        W71248   2.322   8.790   1.256
11713W        W71249  12.725   1.845   1.930
11714W        W71250  34.530  15.324   3.781
11715W        W71251   4.896   3.928   3.196
11716W        W71252  21.519  28.455  10.939
11717W        W71253  40.897  15.200  12.952
11718W        W71254  15.245  37.891  11.444
11719W        W71255   6.381  18.164  13.427
11720W        W71256  13.782  36.375  11.408
11721W        W71257  22.698   6.899  14.425
11722W        W71258  12.290  43.306   3.679
11723W        W71259  40.034  12.744  12.969
11724W        W71260  41.430  10.157   3.254
11725W        W71261  37.430  44.415   0.364
11726W        W71262  33.100  32.402   3.254
11727W        W71263  20.163  26.130  11.122
11728W        W71264  14.155   3.835  12.966
11729W        W71265  16.622  44.841   3.186
11730W        W71266   3.797  39.458  10.644
11731W        W71267   7.785  43.281  11.557
11732W        W71268  36.370   7.246  10.475
11733W        W71269  11.706  44.402   0.870
11734W        W71270   3.834  33.127   1.866
11735W        W71271  41.915  41.403   2.680
11736W        W71272  29.001  35.586  11.555
11737W        W71273  38.933   1.846  13.051
11738W        W71274   2.892  37.859  11.522
11739W        W71275   4.909   1.327  11.518
11740W        W71276  21.148  34.449  11.899
11741W        W71277  33.583  11.190   4.215
11742W        W71278   2.789  11.773  13.043
11743W        W71279  42.008   2.408   3.730
11744W        W71280   9.178  32.069  11.119
11745W        W71281   3.710  41.938  11.526
11746W        W71282  21.626  13.334  12.071
11747W        W71283  41.032   9.170   4.729
11748W        W71284  16.721   9.248   1.726
11749W        W71285  25.133  40.338   0.365
11750W        W71286  37.931  13.663  11.079
11751W        W71287  34.996  42.386   1.232
11752W        W71288  30.431  32.127   0.823
11753W        W71289  20.229  39.365  13.364
11754W        W71290  36.021  32.985   2.881
11755W        W71291  26.505  24.069   5.082
11756W        W71292  40.486  43.922   1.388
11757W        W71293  30.607  32.518  10.975
11758W        W71294  31.585  18.715   0.764
11759W        W71295   5.899  13.312   0.394
11760W        W71296  40.833  36.949  11.026
11761W        W71297  26.013  25.035   4.166
11762W        W71298   9.339   2.842   1.862
11763W        W71299  14.155  32.483  11.958
11764W        W71300  25.213   0.449   2.262
11765W        W71301  39.400  38.504   0.374
11766W        W71302   0.478  44.929   4.335
11767W        W71303  11.840  27.489  11.592
11768W        W71304  14.664  11.653   2.221
11769W        W71305  17.640  32.118   3.200
11770W        W71306   4.805  12.661   0.914
11771W        W71307  29.983  15.172   3.790
11772W        W71308   4.430  34.586  13.399
11773W        W71309  22.584   8.165   4.759
11774W        W71310  23.123  23.709  14.915
11775W        W71311  26.068  25.001  10.897
11776W        W71312  39.988  36.373  13.964
11777W        W71313  28.028  18.659  14.759
11778W        W71314   5.370  24.515   0.829
11779W        W71315  21.540  42.326   0.953
11780W        W71316  31.938  18.219  11.960
11781W        W71317  37.885   8.699   2.847
11782W        W71318  38.857   3.324  13.468
11783W        W71319   8.322  24.019   3.352
11784W        W71320  14.307   4.252  10.950
11785W        W71321  14.231  34.079   4.770
11786W        W71322  40.013  16.614  14.927
11787W        W71323  37.867  26.109   3.851
11788W        W71324  12.610  24.657  10.575
11789W        W71325   2.890   7.766   0.382
11790W        W71326  31.968  36.034  13.019
11791W        W71327  17.231   0.400   4.770
11792W        W71328   9.880  17.272   3.766
11793W        W71329   8.250  37.883   0.434
11794W        W71330  11.656  14.303  13.399
11795W        W71331  34.525  16.173   0.289
11796W        W71332  36.846   4.701  12.921
11797W        W71333  36.497  20.717   1.850
11798W        W71334  39.859  38.982   2.354
11799W        W71335  17.240  15.776   0.755
11800W        W71336   4.874  40.947   2.295
11801W        W71337  31.970  38.043  11.973
11802W        W71338  12.284  26.541  10.548
11803W        W71339  20.686   0.361   2.822
11804W        W71340  10.740   2.346   4.145
11805W        W71341  15.166  33.540   4.268
11806W        W71342  16.752  16.116  13.008
11807W        W71343  17.302  23.706  13.517
11808W        W71344  38.025  33.881   0.336
11809W        W71345  43.884  11.130  12.924
11810W        W71346  39.843  24.983  13.513
11811W        W71347  20.079  14.679   1.848
11812W        W71348  11.197  42.306  11.036
11813W        W71349  41.911   9.177  14.967
11814W        W71350  17.776  22.021  13.958
11815W        W71351   6.204   8.866  13.831
11816W        W71352  13.245  24.655   2.897
11817W        W71353  34.925  37.479  13.412
11818W        W71354   6.758  21.024   2.311
11819W        W71355  38.419  40.316  14.920
11820W        W71356   5.293  42.868   4.801
11821W        W71357  29.019  40.021   0.264
11822W        W71358  41.469  14.267  12.407
11823W        W71359  16.692  23.114   1.426
11824W        W71360  38.564  31.637   2.759
11825W        W71361  30.012   1.345   0.370
11826W        W71362   8.357  30.459   3.249
11827W        W71363  18.721  34.112  14.920
11828W        W71364  10.720  17.156  12.843
11829W        W71365  20.259  10.777  13.482
11830W        W71366   7.680  36.985  14.025
11831W        W71367  28.061  35.361  11.012
11832W        W71368  22.058  41.873   2.711
11833W        W71369  29.663  18.646  12.954
11834W        W71370   9.314  30.635   1.801
11835W        W71371  28.104   2.355   0.366
11836W        W71372   6.305  14.128  10.018
11837W        W71373  17.067  13.201   1.437
11838W        W71374  42.435  32.519   0.777
11839W        W71375  13.646  33.989   2.704
11840W        W71376  35.464  20.598   4.646
11841W        W71377  34.971  10.702  11.071
11842W        W71378  41.821  25.057  13.328
11843W        W71379  15.305  25.509   0.421
11844W        W71380   3.720  14.683  13.941
11845W        W71381  42.447  34.868   3.192
11846W        W71382  12.742  21.518   4.211
11847W        W71383  28.602  19.645  10.442
11848W        W71384   8.888   6.393   1.249
11849W        W71385   4.839   1.959   3.275
11850W        W71386  41.941  17.601  13.826
11851W        W71387  39.552  14.818  14.481
11852W        W71388   2.820  42.955  12.933
11853W        W71389  28.041  32.629  14.996
11854W        W71390   4.328  29.592   3.787
11855W        W71391  44.856   1.946  12.982
11856W        W71392  17.131  21.212  12.002
11857W        W71393  25.580   0.855   2.239
11858W        W71394  30.126  31.464  11.567
11859W        W71395  23.615  32.469  10.407
11860W        W71396  12.651   8.354   0.785
11861W        W71397   8.274  12.720   2.327
11862W        W71398  33.125  14.598  11.966
11863W        W71399  31.928   3.334  12.373
11864W        W71400  15.727  24.984   1.248
11865W        W71401  27.592  22.515  13.343
11866W        W71402  20.760   4.208  10.422
11867W        W71403  21.058  16.269  10.617
11868W        W71404   9.165  17.700  10.946
11869W        W71405   8.301  37.851  11.410
11870W        W71406  26.470  44.425   0.439
11871W        W71407  31.587  19.744  12.050
11872W        W71408  13.740  25.602  14.410
11873W        W71409  29.061  15.610   1.223
11874W        W71410   9.213  38.399   2.188
11875W        W71411  34.416  42.296  11.050
11876W        W71412  37.502  27.102   0.852
11877W        W71413  28.054  33.905   1.448
11878W        W71414  41.321  26.627  10.965
11879W        W71415  10.644  14.270   3.681
11880W        W71416  26.025   4.253   4.784
11881W        W71417   4.417  28.610  14.922
11882W        W71418  34.597  44.916  14.484
11883W        W71419  34.906  10.195   0.259
11884W        W71420  22.088  28.931   4.214
11885W        W71421  15.256  22.609   2.337
11886W        W71422  37.509  33.899   0.754
11887W        W71423  40.450  38.981   1.895
11888W        W71424  29.523  33.436  11.419
11889W        W71425   4.256   6.188   2.419
11890W        W71426  23.523  43.433  13.987
11891W        W71427  23.161   8.293  14.436
11892W        W71428   5.400   7.352   2.278
11893W        W71429   6.402  16.136   4.234
11894W        W71430  22.202  21.694  14.384
11895W        W71431  28.083  14.742  12.404
11896W        W71432  34.054  30.556   2.253
11897W        W71433  11.198  33.614  14.983
11898W        W71434  26.132  31.550   4.634
11899W        W71435   1.795  26.584  12.470
11900W        W71436  19.603  39.486   2.362
11901W        W71437  12.190  12.857   0.367
11902W        W71438  20.057  27.096   4.645
11903W        W71439  27.616   0.485   1.282
11904W        W71440  15.708  23.057   2.236
11905W        W71441  19.536  13.660   3.859
11906W        W71442  26.147  19.117   0.759
11907W        W71443  30.574  28.064  13.942
11908W        W71444  26.541  18.628   3.274
11909W        W71445  26.580   1.445   2.876
11910W        W71446   7.389  33.430  12.347
11911W        W71447  18.756  35.470  12.934
11912W        W71448  32.139  42.025  14.914
11913W        W71449  40.964   4.786  13.916
11914W        W71450  35.919  22.593  14.471
11915W        W71451  34.881  16.096  12.000
11916W        W71452  26.183  27.018   0.448
11917W        W71453  36.441   0.985   1.419
11918W        W71454  33.486  33.082   4.208
11919W        W71455  37.391  14.203   3.316
11920W        W71456  39.505  44.330   1.897
11921W        W71457  35.506  23.595   3.200
11922W        W71458  31.617   0.935  11.103
11923W        W71459  23.191  34.065   2.769
11924W        W71460  28.011  26.970  14.314
11925W        W71461  40.972   6.741   1.377
11926W        W71462  34.941   3.420   3.200
11927W        W71463  19.072  23.721  12.885
11928W        W71464  23.004  21.209  11.403
11929W        W71465  34.004   1.834  11.507
11930W        W71466  36.903  35.390   4.277
11931W        W71467   5.367  13.600  12.514
11932W        W71468  21.632  14.633   3.318
11933W        W71469  36.501  34.474  13.950
11934W        W71470  13.809  23.179  11.518
11935W        W71471  37.364   3.860  13.824
11936W        W71472   2.401  42.863   0.368
11937W        W71473   9.249  34.433  11.439
11938W        W71474  29.953  26.687   9.535
11939W        W71475  44.396  22.562   3.270
11940W        W71476  20.124  25.134   9.921
11941W        W71477  40.346  15.798   0.282
11942W        W71478  15.086  22.551  12.980
11943W        W71479  28.945  42.294  10.629
11944W        W71480  24.715  13.201   2.835
11945W        W71481  34.410  44.347  13.009
11946W        W71482  19.197  38.391   1.760
11947W        W71483   5.298  15.678  12.479
11948W        W71484  20.738  20.083  14.031
11949W        W71485   0.453  29.938  14.363
11950W        W71486  27.537  20.646  14.019
11951W        W71487  30.979  44.389   1.409
11952W        W71488  19.723  39.381   4.620
11953W        W71489  30.439   4.942  14.295
11954W        W71490  32.018  36.473   4.724
11955W        W71491  23.017  41.440   0.872
11956W        W71492  12.832  11.187  11.875
11957W        W71493  35.508  40.822  10.585
11958W        W71494  37.381   9.868  10.610
11959W        W71495  24.975  16.594   9.645
11960W        W71496  42.483  18.605   1.857
11961W        W71497  44.823  20.098   0.905
11962W        W71498  42.864  22.640  14.427
11963W        W71499  25.055  12.704   3.655
11964W        W71500   0.423   3.274   4.318
11965W        W71501   3.288   3.356   2.875
11966W        W71502  33.437  16.610  14.863
11967W        W71503  16.147   6.856  13.050
11968W        W71504  15.202   2.746  11.496
11969W        W71505  14.314   2.328   1.300
11970W        W71506  44.001  38.059  14.806
11971W        W71507  23.120   5.257  14.942
11972W        W71508  22.613   5.247  12.946
11973W        W71509  10.241   2.344  12.519
11974W        W71510   1.341  35.096   4.715
11975W        W71511   2.859   4.395  10.470
11976W        W71512  32.911  32.970  11.909
11977W        W71513  11.297   1.965   1.410
11978W        W71514   3.915  22.552  13.531
11979W        W71515  22.037  36.059  12.943
11980W        W71516   0.308  17.197  12.040
11981W        W71517  23.711  41.947  14.323
11982W        W71518  31.031  29.034   3.688
11983W        W71519   2.410   6.400   2.317
11984W        W71520   7.338   4.895   1.320
11985W        W71521   9.233  27.039   0.920
11986W        W71522  33.423  11.864  12.995
11987W        W71523   1.882  20.245   1.730
11988W        W71524   6.378  35.892  10.496
11989W        W71525  22.672  30.550  12.868
11990W        W71526   4.856  34.507   1.365
11991W        W71527  14.696  27.190   3.272
11992W        W71528  40.536   2.877   3.687
11993W        W71529   0.439   7.231   2.319
11994W        W71530  36.998  19.176   1.874
11995W        W71531  42.491  40.314  12.539
11996W        W71532  28.125   2.897  11.456
11997W        W71533  11.648  31.437  11.984
11998W        W71534  17.686   1.332   1.842
11999W        W71535   9.874   3.947  12.048
12000W        W71536   8.810  13.770   0.923
12001W        W71537   5.775   5.924  12.033
12002W        W71538  25.973   6.686   4.137
12003W        W71539  30.601   9.223  11.464
12004W        W71540   4.406  44.481   1.232
12005W        W71541  10.786  18.170  13.845
12006W        W71542  16.206   8.671  10.535
12007W        W71543  15.677  34.090  13.467
12008W        W71544  23.217  10.260   3.853
12009W        W71545  38.390   9.160   3.739
12010W        W71546  15.233  37.064  11.585
12011W        W71547  24.516  16.731   9.526
12012W        W71548  21.237  32.967  12.506
12013W        W71549   3.394  38.951   5.164
12014W        W71550  24.133  18.624   1.885
12015W        W71551  16.116  23.062  13.798
12016W        W71552  26.188   3.943  14.946
12017W        W71553   7.908  11.352  11.860
12018W        W71554  19.046  28.071  12.896
12019W        W71555  41.954  38.968   1.288
12020W        W71556   1.925  14.238   0.902
12021W        W71557  12.758  30.583   3.712
12022W        W71558  12.731  30.038  11.057
12023W        W71559  16.787  19.118   5.797
12024W        W71560  21.067   4.332   5.318
12025W        W71561  17.229  24.088   0.938
12026W        W71562  33.556  18.232   4.809
12027W        W71563   2.793   0.443  12.434
12028W        W71564  32.887  34.598  14.920
12029W        W71565  32.962  23.670   2.311
12030W        W71566  42.855   2.321  10.503
12031W        W71567   3.727  15.621   4.651
12032W        W71568   1.751  31.601  14.875
12033W        W71569  37.990  27.015  14.313
12034W        W71570   6.234  11.278  12.471
12035W        W71571  23.136  32.508  14.839
12036W        W71572  43.975  20.528   2.308
12037W        W71573  35.915  39.502  11.606
12038W        W71574  35.068   3.378   0.297
12039W        W71575  13.153  41.836   4.315
12040W        W71576   8.837   3.276  13.463
12041W        W71577  42.955  29.601   0.888
12042W        W71578  33.448   1.840   4.161
12043W        W71579  11.232  43.846  14.807
12044W        W71580  10.806   9.228  14.435
12045W        W71581  27.589  24.562  14.958
12046W        W71582   5.752  35.363  10.971
12047W        W71583  10.187   5.230  13.890
12048W        W71584   1.374  27.995   3.199
12049W        W71585  37.400  28.963   0.817
12050W        W71586  38.879  11.737  13.403
12051W        W71587  25.147  19.710   2.284
12052W        W71588  33.051  26.592   1.921
12053W        W71589  14.827  27.691   2.848
12054W        W71590   4.285   3.740  14.959
12055W        W71591   0.984  13.719  13.882
12056W        W71592  11.862  18.164   2.798
12057W        W71593  24.061  10.302   3.677
12058W        W71594   7.234  41.819  10.478
12059W        W71595  41.806  14.116  12.578
12060W        W71596  43.414  19.684   4.351
12061W        W71597  16.744  27.117  14.422
12062W        W71598  28.470  38.419   1.837
12063W        W71599  36.493  17.236   2.255
12064W        W71600  34.003  38.397  14.793
12065W        W71601  26.010   4.832   4.263
12066W        W71602  34.932  26.525  11.436
12067W        W71603  23.196   8.733   0.288
12068W        W71604   6.374   1.393  10.440
12069W        W71605   6.211  32.578   2.675
12070W        W71606  36.043  37.410   5.298
12071W        W71607  11.732   2.762   2.731
12072W        W71608  25.188  20.263  14.027
12073W        W71609   6.860   8.273   1.820
12074W        W71610  36.404  30.618   4.172
12075W        W71611  36.438  27.042  10.530
12076W        W71612  40.032   2.396   0.728
12077W        W71613  14.279  11.292   4.699
12078W        W71614  18.179   5.867   3.755
12079W        W71615  40.019   3.441  10.627
12080W        W71616  31.059  10.854   3.785
12081W        W71617  34.088  28.085  14.473
12082W        W71618   7.193  13.786  14.460
12083W        W71619   7.831  33.437  14.502
12084W        W71620   3.826  37.401   2.822
12085W        W71621  21.739  19.167  10.437
12086W        W71622   5.714   5.312   1.362
12087W        W71623  20.251  43.365  14.302
12088W        W71624  31.531  37.917   1.873
12089W        W71625  19.154  23.232  10.545
12090W        W71626   1.293  24.697   4.757
12091W        W71627  38.468  41.433   2.833
12092W        W71628  34.576   0.879  11.479
12093W        W71629  12.360   6.229  13.951
12094W        W71630  20.269  33.131  11.511
12095W        W71631   4.432  29.664  11.997
12096W        W71632   4.812  13.331  14.776
12097W        W71633  33.938  40.340  11.866
12098W        W71634  29.645  12.702  13.401
12099W        W71635   5.369  22.568   0.767
12100W        W71636   0.418  40.802  10.946
12101W        W71637  16.240  33.944  12.353
12102W        W71638  39.524   7.831  12.092
12103W        W71639  14.237  27.986   4.197
12104W        W71640  30.096  22.739  10.618
12105W        W71641   8.221  14.325   4.777
12106W        W71642  25.151  35.511  12.422
12107W        W71643   5.755   6.375  13.031
12108W        W71644  22.651  36.865  14.005
12109W        W71645  25.601  33.521   3.871
12110W        W71646  36.550  27.048  13.922
12111W        W71647  25.512  40.388   4.273
12112W        W71648  37.868   8.290  12.387
12113W        W71649  43.916  21.088   1.360
12114W        W71650   0.878  18.208   0.461
12115W        W71651   7.395   3.237  12.378
12116W        W71652  16.635  15.196  11.013
12117W        W71653  24.569  20.549   4.289
12118W        W71654  29.138  39.558   4.268
12119W        W71655  26.138  19.726  13.495
12120W        W71656  28.562  40.961   3.378
12121W        W71657  28.568  35.918  10.976
12122W        W71658  32.987  40.429  11.432
12123W        W71659  31.405   7.296   4.778
12124W        W71660  34.044  22.633   4.705
12125W        W71661  15.185  30.511   2.194
12126W        W71662  42.801  21.222   0.823
12127W        W71663   1.821  23.194  12.512
12128W        W71664   8.857  30.945  11.508
12129W        W71665  12.772  28.662   2.408
12130W        W71666  34.424   3.222  11.898
12131W        W71667  26.658  30.021   3.166
12132W        W71668  26.679  21.224   2.719
12133W        W71669  33.392  28.620   0.468
12134W        W71670  19.626  27.152   3.165
12135W        W71671  22.587   6.354   1.877
12136W        W71672  19.214  35.428   0.753
12137W        W71673  11.668  37.409  12.094
12138W        W71674  34.480  28.625  11.426
12139W        W71675  29.098  27.532  12.486
12140W        W71676   4.394  26.649  13.969
12141W        W71677  40.509  16.686   1.443
12142W        W71678  18.748  36.464   3.265
12143W        W71679  14.611  18.265   2.294
12144W        W71680  12.780   7.901  14.478
12145W        W71681  28.104  35.573   3.662
12146W        W71682  21.206   3.216  13.882
12147W        W71683   8.753  36.428   0.453
12148W        W71684   6.291  10.848   1.726
12149W        W71685  11.658   6.359  13.343
12150W        W71686  22.541  11.632  10.962
12151W        W71687   6.360   6.418   2.829
12152W        W71688   0.424  42.788   4.614
12153W        W71689  17.141   0.468   0.292
12154W        W71690  36.502   5.750  13.003
12155W        W71691  18.094  32.067  13.026
12156W        W71692  13.611  24.174  14.010
12157W        W71693   3.318  24.168   2.390
12158W        W71694  13.105  36.045  12.386
12159W        W71695  12.342  43.387   3.240
12160W        W71696  16.126  28.469   2.868
12161W        W71697   4.786  14.616  14.326
12162W        W71698  35.005  37.384  11.092
12163W        W71699   8.283  14.241  12.097
12164W        W71700   2.439  25.647  12.552
12165W        W71701  19.575  32.391   2.312
12166W        W71702  42.282  28.593   2.236
12167W        W71703  32.066  39.483  12.074
12168W        W71704  30.100  31.043   0.811
12169W        W71705  26.522  42.460   0.816
12170W        W71706   9.293  41.476   4.190
12171W        W71707  38.335  17.770   2.306
12172W        W71708  35.861  35.011  13.991
12173W        W71709   4.727  30.491   0.471
12174W        W71710   4.424  16.632  11.394
12175W        W71711  26.550  39.864  11.592
12176W        W71712  17.747   7.312   0.411
12177W        W71713  31.897  15.764   4.723
12178W        W71714   9.763  23.038   9.981
12179W        W71715  37.486  11.859   4.635
12180W        W71716  17.119  21.667   3.822
12181W        W71717   4.412  26.691  11.565
12182W        W71718  27.112  11.785  11.870
12183W        W71719  40.852  36.410   0.848
12184W        W71720  35.428   5.212  14.323
12185W        W71721  17.282  14.699   1.715
12186W        W71722  44.927  27.688  12.844
12187W        W71723  17.232  14.221   3.748
12188W        W71724  13.264  33.556   9.949
12189W        W71725   2.748  33.457  12.000
12190W        W71726  27.534  18.570  14.386
12191W        W71727  24.484  27.623  13.798
12192W        W71728  31.947  13.614   1.927
12193W        W71729  26.506   8.831   0.952
12194W        W71730   8.779  34.496   1.398
12195W        W71731  10.202  39.989   2.196
12196W        W71732  21.592  30.969  12.520
12197W        W71733  40.333  40.303   0.860
12198W        W71734  25.210  37.984  14.878
12199W        W71735  42.469  12.282  14.376
12200W        W71736   2.240  31.907  14.859
12201W        W71737  12.676  35.983   0.836
12202W        W71738  27.999  41.301  10.544
12203W        W71739   9.759   9.325   3.804
12204W        W71740  29.087   6.344  13.800
12205W        W71741  25.558  12.210   2.664
12206W        W71742   6.240  29.015  14.848
12207W        W71743  27.013   6.756   3.336
12208W        W71744  23.176   0.947   0.258
12209W        W71745  28.071  11.253  11.571
12210W        W71746  13.298  31.486  10.476
12211W        W71747   5.849  14.238   4.819
12212W        W71748   6.196  39.917   0.731
12213W        W71749  38.999   0.363  13.311
12214W        W71750   3.730  36.060  11.096
12215W        W71751  16.149   7.395  10.447
12216W        W71752  30.119   2.358  13.478
12217W        W71753  23.494  18.140   2.697
12218W        W71754   2.825  19.224   3.289
12219W        W71755   9.647  25.158   0.820
12220W        W71756  31.006  30.520  14.891
12221W        W71757  15.168  40.882  11.953
12222W        W71758   5.875  38.425  14.805
12223W        W71759  21.655   0.827  12.542
12224W        W71760   0.982  28.622  14.301
12225W        W71761  32.100  12.295   3.677
12226W        W71762  27.024  34.373  14.948
12227W        W71763  29.008  34.870   0.860
12228W        W71764  22.679  29.075   2.684
12229W        W71765  33.896  42.406  12.940
12230W        W71766  30.133   0.762  10.591
12231W        W71767  35.100  16.229   4.203
12232W        W71768  44.296   8.170  10.049
12233W        W71769  42.000  31.648   2.784
12234W        W71770  36.474  15.326  13.867
12235W        W71771  18.565  36.503   1.742
12236W        W71772  19.211  33.549   1.694
12237W        W71773  36.872  37.865  12.826
12238W        W71774  13.243  44.914  11.404
12239W        W71775  10.754  14.244  14.972
12240W        W71776  19.551   0.969  14.486
12241W        W71777   9.667  28.105  11.073
12242W        W71778  24.573  25.578  14.453
12243W        W71779  12.678  28.935  12.475
12244W        W71780  23.728  44.384   3.699
12245W        W71781  44.872   8.324  12.436
12246W        W71782  41.366   8.695   0.322
12247W        W71783  13.179  11.637   0.912
12248W        W71784  30.104  15.694  12.861
12249W        W71785  40.986  38.006  12.571
12250W        W71786  16.629   5.228   0.813
12251W        W71787  43.846   0.762   0.819
12252W        W71788   8.270  16.651   0.869
12253W        W71789  41.497  12.840   1.398
12254W        W71790  27.481  17.749   0.807
12255W        W71791  34.974  26.022  13.989
12256W        W71792  37.012  43.294   3.378
12257W        W71793  13.707   5.855  14.940
12258W        W71794  16.260  41.828  13.346
12259W        W71795  41.847  27.585   4.825
12260W        W71796  20.256  20.104  14.981
12261W        W71797  15.583  20.241  12.092
12262W        W71798  21.131   0.312   3.831
12263W        W71799  21.077  34.915  10.476
12264W        W71800   4.706  15.196  10.545
12265W        W71801  19.072   0.864  13.500
12266W        W71802  37.888   2.942   0.933
12267W        W71803  41.032  28.082   4.702
12268W        W71804  21.537  20.088   3.805
12269W        W71805  26.019  33.604  14.760
12270W        W71806  44.814  26.953   0.898
12271W        W71807   4.831  31.117   2.714
12272W        W71808  15.327  12.827   4.654
12273W        W71809  41.827  11.833  14.893
12274W        W71810  26.011   6.770  13.489
12275W        W71811   3.245  36.398  13.457
12276W        W71812  29.086   9.724   0.859
12277W        W71813  44.429  28.661   3.194
12278W        W71814  43.782  23.549  13.002
12279W        W71815   8.878  32.542  12.954
12280W        W71816  30.078  18.649  12.542
12281W        W71817  35.443  26.022   0.851
12282W        W71818  28.088  37.406  11.861
12283W        W71819   6.911  17.612  12.834
12284W        W71820  15.770  14.794   1.337
12285W        W71821   0.944  20.550   0.338
12286W        W71822  30.532  13.338  11.018
12287W        W71823   1.799   9.177  14.829
12288W        W71824  34.916  35.410   4.323
12289W        W71825  22.090  16.253   0.960
12290W        W71826  11.854  29.025   2.791
12291W        W71827  22.621   8.824   4.193
12292W        W71828  28.451  32.461  14.857
12293W        W71829  13.175  12.269   3.152
12294W        W71830  18.182   0.926   1.271
12295W        W71831  25.026  17.729   0.346
12296W        W71832  22.995  35.076   5.702
12297W        W71833  43.852   0.260  10.493
12298W        W71834  40.934  41.814  10.527
12299W        W71835  30.923  16.310   4.349
12300W        W71836   7.718  11.245  12.952
12301W        W71837  31.641   2.408  13.842
12302W        W71838  43.847   6.785   3.846
12303W        W71839   3.454  44.478  14.835
12304W        W71840  40.378  33.896   4.205
12305W        W71841  21.566  21.659  12.894
12306W        W71842  21.734   5.807  10.996
12307W        W71843  27.473  28.576  10.591
12308W        W71844  32.581  19.688   3.743
12309W        W71845  38.841  39.471  13.337
12310W        W71846  42.441  31.966   3.320
12311W        W71847  28.659  36.979   2.259
12312W        W71848  28.027   1.769  10.603
12313W        W71849  21.556  27.547  10.527
12314W        W71850  29.531  12.269  14.938
12315W        W71851  19.263  34.520   3.241
12316W        W71852  34.373  25.517  12.463
12317W        W71853  41.030  15.759   3.286
12318W        W71854  36.003  33.104   3.749
12319W        W71855   7.336  15.638   1.388
12320W        W71856  15.794  39.501   2.662
12321W        W71857  31.901   5.350   1.734
12322W        W71858   9.733  10.842   9.986
12323W        W71859  39.023  25.645   3.662
12324W        W71860  40.307  24.064  13.325
12325W        W71861  27.560  24.679  13.939
12326W        W71862  24.178  22.580  10.897
12327W        W71863   2.948  18.051  14.773
12328W        W71864   7.665  15.666  13.954
12329W        W71865  40.977  19.237  12.528
12330W        W71866  38.840  12.289  12.877
12331W        W71867  14.767  15.214  13.910
12332W        W71868  42.920  15.084   2.708
12333W        W71869   5.404  22.633  10.612
12334W        W71870  13.832  43.478  14.943
12335W        W71871  36.438  13.764  13.450
12336W        W71872  36.938   7.236   2.376
12337W        W71873  16.713   3.772  14.856
12338W        W71874   5.202  10.649   0.795
12339W        W71875  33.922  33.021   2.876
12340W        W71876  28.515  26.478  12.534
12341W        W71877  21.520  19.656  10.893
12342W        W71878  24.213   0.892   2.691
12343W        W71879  24.616   7.907   0.843
12344W        W71880   7.285   9.378  11.373
12345W        W71881  17.725   5.235  10.890
12346W        W71882  10.780  11.324   2.334
12347W        W71883  17.106  39.471   3.681
12348W        W71884  36.444  20.183   3.836
12349W        W71885  30.912   2.963  11.917
12350W        W71886  40.523  40.470  14.947
12351W        W71887  24.127  16.168   1.313
12352W        W71888   8.274  30.601  11.390
12353W        W71889  35.884  31.030   2.393
12354W        W71890  19.549  37.985  12.839
12355W        W71891  35.552  11.214  12.090
12356W        W71892   5.893  39.493   0.360
12357W        W71893  14.630  17.734   4.142
12358W        W71894  12.303   6.854   1.815
12359W        W71895  26.005   2.324  13.419
12360W        W71896  15.789   5.371   1.256
12361W        W71897  17.215  34.548   5.307
12362W        W71898   0.253   7.885   0.397
12363W        W71899  44.383  19.236   0.257
12364W        W71900  13.283  17.582  12.973
12365W        W71901  28.671  40.490  11.472
12366W        W71902  19.243   9.319  14.320
12367W        W71903  39.817  26.640   4.678
12368W        W71904  29.130  12.751  13.370
12369W        W71905  10.709  11.362  12.074
12370W        W71906   8.656  24.592   3.246
12371W        W71907  32.637  41.898  14.374
12372W        W71908  22.222  27.021   1.223
12373W        W71909   3.908   2.731  11.567
12374W        W71910  33.105  37.884   1.292
12375W        W71911  29.070  25.689   3.283
12376W        W71912  35.865   2.374  13.431
12377W        W71913  28.626  10.733  13.843
12378W        W71914   3.906  36.593  11.875
12379W        W71915   7.790  25.158   2.750
12380W        W71916  26.528  21.683   0.817
12381W        W71917  44.373  10.703   9.933
12382W        W71918  14.296  23.065  11.435
12383W        W71919  21.647  21.708  12.057
12384W        W71920  41.934  33.492   2.718
12385W        W71921   6.722  14.102  13.484
12386W        W71922  40.343  37.050   4.728
12387W        W71923  44.484  21.055  10.535
12388W        W71924  44.862  15.275  12.444
12389W        W71925  16.627  36.970  14.998
12390W        W71926  24.067  17.778  13.027
12391W        W71927  24.608  10.144   4.331
12392W        W71928  19.239  42.314   4.170
12393W        W71929  23.605  37.853  11.505
12394W        W71930  15.757  25.009   4.211
12395W        W71931  42.816  32.409  14.323
12396W        W71932   6.907  26.673   3.670
12397W        W71933   6.355  42.835  11.912
12398W        W71934  31.107   3.711  10.560
12399W        W71935  11.268  35.575   2.890
12400W        W71936   4.747  39.858   0.374
12401W        W71937  11.767  12.782  14.888
12402W        W71938  20.723   0.978  14.803
12403W        W71939  32.084  38.462   3.298
12404W        W71940  12.216  25.599  10.968
12405W        W71941  42.004  16.076  11.030
12406W        W71942   8.896  33.475   4.115
12407W        W71943  40.874  14.115  10.973
12408W        W71944  28.119  30.084   4.632
12409W        W71945  21.209  20.113  12.029
12410W        W71946  27.141  10.794  14.283
12411W        W71947  11.334  29.539   0.337
12412W        W71948  41.500  25.703   0.436
12413W        W71949   5.287  19.771   1.219
12414W        W71950   6.341  25.687  14.443
12415W        W71951  37.474  30.076  12.053
12416W        W71952  13.254  13.679  11.980
12417W        W71953  39.545  35.098   3.207
12418W        W71954  10.279  22.535  12.075
12419W        W71955  25.525  33.975   0.311
12420W        W71956   5.837  40.020   2.691
12421W        W71957  44.290   2.381  10.501
12422W        W71958  36.860   3.943   4.617
12423W        W71959  36.083  34.069  12.880
12424W        W71960  10.328  43.994  10.598
12425W        W71961  25.051  26.088   0.929
12426W        W71962  43.770   1.957   1.425
12427W        W71963  41.807  18.241  14.515
12428W        W71964   5.833  13.299  12.974
12429W        W71965  12.659  21.606   2.196
12430W        W71966  39.455  10.800  11.590
12431W        W71967  16.219  34.096   0.399
12432W        W71968  31.114  11.263  10.511
12433W        W71969  27.152   4.744  12.904
12434W        W71970  14.201   7.231   3.332
12435W        W71971   8.264   1.788  12.525
12436W        W71972  13.161   8.801   0.892
12437W        W71973  16.286  43.507   1.256
12438W        W71974  19.569  17.724   0.479
12439W        W71975  21.554  15.637   3.793
12440W        W71976  27.998   6.198  14.987
12441W        W71977  17.188  12.326   1.301
12442W        W71978  40.459  10.238   2.770
12443W        W71979  29.060  20.564  12.451
12444W        W71980   2.897  18.597   2.380
12445W        W71981  15.261  24.526  13.372
12446W        W71982  17.727  31.979  14.005
12447W        W71983   0.872   1.260   2.341
12448W        W71984  39.333  15.279   3.306
12449W        W71985  43.356  43.841   0.249
12450W        W71986   0.857  36.453   3.747
12451W        W71987  36.005  43.365   4.271
12452W        W71988  33.927  21.054   2.220
12453W        W71989  15.306  14.606   0.852
12454W        W71990  30.960  44.497   2.900
12455W        W71991  10.856  10.249   0.787
12456W        W71992   4.284  35.562   4.621
12457W        W71993  32.891  39.547   1.353
12458W        W71994  40.819  29.612   3.344
12459W        W71995  13.645   5.293  13.908
12460W        W71996   4.938  13.331   1.744
12461W        W71997  18.606  10.830  12.436
12462W        W71998   2.236  27.650  14.387
12463W        W71999  39.447  37.495  13.462
12464W        W72000  11.797  43.428   4.701
12465W        W72001  29.494  12.761  11.551
12466W        W72002   2.335   4.811  11.865
12467W        W72003  23.729  25.607   1.285
12468W        W72004  36.031   6.221   3.648
12469W        W72005   5.831  36.409  10.559
12470W        W72006  21.682  14.816  13.463
12471W        W72007  39.486  33.909   4.285
12472W        W72008  13.327  12.201   4.243
12473W        W72009   8.230  16.655  12.826
12474W        W72010   9.728  22.693  13.477
12475W        W72011  13.660  25.041  11.915
12476W        W72012  34.932  39.413  11.469
12477W        W72013   3.869  23.109   0.437
12478W        W72014  33.947  12.179   4.804
12479W        W72015  20.643  44.011  10.544
12480W        W72016  43.289  29.445   1.321
12481W        W72017  25.968  21.238  12.996
12482W        W72018  24.686  11.137  11.520
12483W        W72019  31.985   7.323   0.440
12484W        W72020  25.104  24.018   0.438
12485W        W72021  39.344  43.986  12.826
12486W        W72022  39.334   8.851  13.435
12487W        W72023  23.586  39.406   0.843
12488W        W72024  26.525  35.509  12.510
12489W        W72025  30.099  36.996  11.568
12490W        W72026  20.124  14.702  13.400
12491W        W72027  35.858  20.698   4.248
12492W        W72028  16.119  10.317  14.511
12493W        W72029  23.556   7.332   4.744
12494W        W72030   4.235   0.372  14.970
12495W        W72031   4.295   4.414  11.553
12496W        W72032  36.053  31.424  11.897
12497W        W72033   7.725  39.366   0.469
12498W        W72034  42.834  22.630   2.382
12499W        W72035  40.872  30.644   2.344
12500W        W72036  21.682  22.083   1.382
12501W        W72037   1.454  10.384  12.513
12502W        W72038  22.747  30.637   0.802
12503W        W72039  39.932  13.342  12.445
12504W        W72040  37.025  12.763  14.890
12505W        W72041  36.500  13.794   4.608
12506W        W72042  32.032  35.492   4.657
12507W        W72043  21.040  36.945   4.144
12508W        W72044   8.219  13.173   3.769
12509W        W72045   7.264  12.287  10.908
12510W        W72046  27.577  28.099  12.076
12511W        W72047   0.300  24.578  13.496
12512W        W72048  18.062  10.859  14.363
12513W        W72049  37.950  15.734  11.899
12514W        W72050  44.986  17.084  14.382
12515W        W72051  29.629   0.848   4.766
12516W        W72052  19.555  13.275   2.263
12517W        W72053  23.689  33.554  10.535
12518W        W72054  16.601   2.778  11.559
12519W        W72055  40.037  22.182  14.935
12520W        W72056  30.983  40.918  12.973
12521W        W72057  34.535  29.550   3.783
12522W        W72058  17.755   9.710   2.771
12523W        W72059  24.982  29.019   3.694
12524W        W72060  43.453  42.937  14.950
12525W        W72061  27.951  13.746   3.233
12526W        W72062  43.440  44.365   1.234
12527W        W72063   4.853  24.095  12.987
12528W        W72064  35.467  30.095   1.846
12529W        W72065  33.505  35.525  14.831
12530W        W72066  13.241  33.572   1.713
12531W        W72067   0.379  20.561  14.458
12532W        W72068   9.769  37.850  12.371
12533W        W72069  15.296   9.159  11.488
12534W        W72070   0.961  13.661   4.214
12535W        W72071  33.095  33.950  10.514
12536W        W72072  36.386  34.072  11.563
12537W        W72073  23.704  35.588  11.601
12538W        W72074  43.416  32.908   1.215
12539W        W72075  34.584  43.271   2.758
12540W        W72076  37.851   4.393  10.488
12541W        W72077  33.094   1.278  12.577
12542W        W72078  23.578  10.152   3.657
12543W        W72079  27.026   4.725   1.877
12544W        W72080   2.788   3.444   5.287
12545W        W72081  18.132   2.409   2.269
12546W        W72082  43.020  36.493  12.511
12547W        W72083  37.546   6.223   2.193
12548W        W72084  22.172  28.519   2.671
12549W        W72085   1.781  25.607  12.534
12550W        W72086  17.195   3.370  13.930
12551W        W72087   2.418   6.297   1.933
12552W        W72088   6.210   5.693   0.442
12553W        W72089  35.096  23.609   9.948
12554W        W72090  35.037  28.015  12.081
12555W        W72091  14.245  41.343   3.368
12556W        W72092  37.082  27.480   1.287
12557W        W72093  24.701  13.795   1.253
12558W        W72094  32.471   3.385  12.469
12559W        W72095  24.128  44.970   1.259
12560W        W72096  23.507  44.962  13.418
12561W        W72097  15.796  10.674   3.769
12562W        W72098  29.610   4.300   1.276
12563W        W72099  31.426  32.592  13.328
12564W        W72100  41.954  20.645  14.296
12565W        W72101   1.918  35.513   4.752
12566W        W72102  40.414  18.269  13.934
12567W        W72103  37.060  10.666  10.896
12568W        W72104  21.226  12.127  13.389
12569W        W72105   2.466   8.827  11.455
12570W        W72106  13.274  40.474  14.984
12571W        W72107   6.678  37.579  14.385
12572W        W72108  33.541  23.077   4.309
12573W        W72109  35.498  28.520   0.341
12574W        W72110  39.442   3.764  13.513
12575W        W72111  12.635   5.330   1.281
12576W        W72112  44.884  27.539   3.375
12577W        W72113  15.742  43.865  14.280
12578W        W72114  38.988  28.045  12.005
12579W        W72115  16.660  18.699   9.951
12580W        W72116   9.677   9.804   1.799
12581W        W72117  18.675  27.489  12.044
12582W        W72118   8.369  26.158   0.327
12583W        W72119  31.532  30.467   1.930
12584W        W72120   1.905  23.502   1.288
12585W        W72121   0.799   7.412   3.675
12586W        W72122  29.567  35.033   4.325
12587W        W72123   8.337   0.820  13.859
12588W        W72124   0.249  14.656   1.839
12589W        W72125  35.403  40.390   0.276
12590W        W72126   3.943  14.218   1.255
12591W        W72127  12.716  36.909   2.893
12592W        W72128  12.304  41.892   4.707
12593W        W72129   7.337  41.438   0.943
12594W        W72130  43.875  23.716   1.709
12595W        W72131  12.322  32.535   2.184
12596W        W72132   7.188   4.741  10.419
12597W        W72133   0.941  10.273   3.198
12598W        W72134  39.315  38.928  12.050
12599W        W72135  29.426   2.961   4.238
12600W        W72136  42.433  22.147  12.541
12601W        W72137  37.906   4.728   0.903
12602W        W72138  27.563  31.997  10.446
12603W        W72139  40.871   0.887   3.235
12604W        W72140  42.354  24.599  12.497
12605W        W72141  25.601  30.515  11.074
12606W        W72142  15.177  37.432  12.085
12607W        W72143   7.671  42.301  10.994
12608W        W72144  40.888  20.212  10.591
12609W        W72145  19.039   0.860   1.793
12610W        W72146  12.187   4.772  11.050
12611W        W72147  33.513  34.028  12.931
12612W        W72148   0.338  15.290   0.426
12613W        W72149  17.671  39.919   0.382
12614W        W72150  15.321  37.058   1.757
12615W        W72151  29.920  17.199  14.780
12616W        W72152  12.318   3.896   3.664
12617W        W72153  33.597  25.548   0.276
12618W        W72154  15.166  37.049   2.393
12619W        W72155   5.756  44.965   2.389
12620W        W72156  36.982  15.195  14.490
12621W        W72157  11.190  41.949   2.858
12622W        W72158  32.909  37.882   4.335
12623W        W72159  40.384  13.808  10.598
12624W        W72160  32.080  14.187  13.471
12625W        W72161  15.261   5.195  12.048
12626W        W72162  14.648   6.915   2.350
12627W        W72163  11.676   3.919   4.652
12628W        W72164  24.724   2.919   1.730
12629W        W72165  32.143  27.463   4.684
12630W        W72166  10.197  13.845   3.675
12631W        W72167  34.046   1.263   4.144
12632W        W72168  10.305  23.135  11.451
12633W        W72169   3.768   2.952   3.207
12634W        W72170  44.942  28.496  13.936
12635W        W72171   3.775  28.479  11.000
12636W        W72172   0.841  25.646   2.898
12637W        W72173  21.542   0.480  12.448
12638W        W72174  15.148  41.912   2.892
12639W        W72175  33.048  17.303   0.897
12640W        W72176   8.737  23.497  14.454
12641W        W72177   3.328  37.941  13.451
12642W        W72178  10.162  10.372   3.842
12643W        W72179  36.013   7.844  12.008
12644W        W72180   9.187   2.817  10.917
12645W        W72181  28.622  22.743  13.875
12646W        W72182   1.940  44.820   0.812
12647W        W72183  14.297  30.991   2.759
12648W        W72184  14.834   5.814  14.764
12649W        W72185  19.140  36.489  14.386
12650W        W72186  32.391   6.863   1.863
12651W        W72187  34.418  23.991   3.823
12652W        W72188  39.529  34.987  10.030
12653W        W72189  40.413   4.427  13.821
12654W        W72190  34.120   5.362  11.010
12655W        W72191  11.632   7.379   4.165
12656W        W72192  11.706  33.084  12.946
12657W        W72193   4.741  14.315   2.891
12658W        W72194  12.313  25.567   4.142
12659W        W72195  29.431  15.591   3.863
12660W        W72196  17.305   4.446   3.183
12661W        W72197  36.002   0.481  12.992
12662W        W72198   5.348  39.988  14.990
12663W        W72199  42.913  19.070   1.852
12664W        W72200  15.238  23.715  10.430
12665W        W72201  13.287  20.682   4.698
12666W        W72202  37.948  30.918   4.223
12667W        W72203  17.692  23.164  10.988
12668W        W72204  12.118  36.917   1.704
12669W        W72205   8.854  19.227  12.055
12670W        W72206  43.900   9.348  13.063
12671W        W72207   4.774   3.406  11.957
12672W        W72208  37.911  33.504  14.368
12673W        W72209  26.622   1.920  11.961
12674W        W72210  33.923  24.028  11.992
12675W        W72211  38.332   3.339   2.314
12676W        W72212  40.966   2.779  14.384
12677W        W72213   7.843  38.000  12.561
12678W        W72214  33.920  28.961   1.369
12679W        W72215  12.709  39.533   0.945
12680W        W72216  12.123  35.525   4.663
12681W        W72217  44.272   9.835  10.629
12682W        W72218  41.850  13.237  13.906
12683W        W72219   4.331  44.420   2.205
12684W        W72220  30.619  10.349  10.004
12685W        W72221   3.356  38.028  12.483
12686W        W72222  29.537  11.823  11.529
12687W        W72223  21.065  16.689   3.781
12688W        W72224   5.410  23.166   4.619
12689W        W72225  30.464  30.543   2.731
12690W        W72226  41.919  16.189  13.434
12691W        W72227  36.842  40.305  12.408
12692W        W72228  20.042   1.975  10.131
12693W        W72229  36.867  31.035   3.779
12694W        W72230  34.003  10.846  13.390
12695W        W72231  44.976  31.563   4.268
12696W        W72232  21.634  17.158  13.832
12697W        W72233  41.470  34.863   3.317
12698W        W72234  11.239  38.922   2.386
12699W        W72235  23.591  26.620   4.807
12700W        W72236  42.366   4.814   1.898
12701W        W72237  26.017  39.870  12.339
12702W        W72238   9.250  24.126   3.249
12703W        W72239  36.946  22.018  14.500
12704W        W72240   3.779  18.149  13.523
12705W        W72241   9.690  36.912  12.461
12706W        W72242  29.092  13.698  10.474
12707W        W72243   7.363  17.273   1.891
12708W        W72244  34.464   6.885   2.729
12709W        W72245   4.344  32.586   4.730
12710W        W72246  24.043  37.554  14.462
12711W        W72247  32.522  19.739   1.450
12712W        W72248  34.600   0.931   5.581
12713W        W72249  32.439  15.143  12.923
12714W        W72250  30.624   9.753   0.310
12715W        W72251  43.398  18.233  11.984
12716W        W72252   6.287  35.988   0.351
12717W        W72253  35.938  39.365   3.721
12718W        W72254  20.723  30.431   3.225
12719W        W72255  35.024   6.212  12.982
12720W        W72256  42.302  36.068   3.683
12721W        W72257  12.169  42.978  10.637
12722W        W72258  25.559  37.378  12.006
12723W        W72259  34.492  12.138   0.875
12724W        W72260   0.985  17.129  12.420
12725W        W72261  26.573   1.848   1.304
12726W        W72262  13.816   7.365   2.389
12727W        W72263  24.579  25.991   3.860
12728W        W72264  21.671  23.999  13.436
12729W        W72265  17.153  42.400  11.595
12730W        W72266   0.755  14.169   3.200
12731W        W72267  22.573  37.473   2.379
12732W        W72268  39.454   3.458  13.853
12733W        W72269  30.995  41.523   5.196
12734W        W72270  22.704  18.566   1.832
12735W        W72271  22.070  14.738   4.819
12736W        W72272  10.746   6.419   0.914
12737W        W72273  38.449  20.755  13.428
12738W        W72274   3.748  12.344   1.398
12739W        W72275  20.550  24.556   0.956
12740W        W72276  15.316  44.989  14.022
12741W        W72277   8.728  28.976   2.699
12742W        W72278  21.236  24.587   2.246
12743W        W72279   8.811   7.398  10.573
12744W        W72280  23.502  43.930  12.899
12745W        W72281  14.154  17.653   1.840
12746W        W72282  21.632  20.144   2.692
12747W        W72283  31.901   7.382  11.374
12748W        W72284   7.252  28.511  14.433
12749W        W72285  32.635  11.192  10.469
12750W        W72286   1.417  22.701   2.881
12751W        W72287  39.373  33.901  14.403
12752W        W72288   7.326  31.576   4.806
12753W        W72289   4.898  28.453  14.783
12754W        W72290   2.934   8.714   3.148
12755W        W72291  30.138  17.128  11.466
12756W        W72292  21.565  19.535   9.564
12757W        W72293   9.702   8.769  10.642
12758W        W72294  28.627  13.266   0.885
12759W        W72295  37.335  36.978  13.356
12760W        W72296  20.664  35.868   9.502
12761W        W72297  44.275  38.542  12.376
12762W        W72298  42.893  30.557   3.870
12763W        W72299  29.130  20.168  11.906
12764W        W72300  20.126   8.361  10.415
12765W        W72301  38.965  27.053  12.986
12766W        W72302  43.962  25.169  14.434
12767W        W72303  39.540   9.773  12.341
12768W        W72304  32.396  23.630   0.253
12769W        W72305  27.108   2.793  11.913
12770W        W72306  14.119  21.103   1.297
12771W        W72307  36.946  23.068   0.335
12772W        W72308   2.956  22.071  12.462
12773W        W72309  31.981  40.971   0.748
12774W        W72310   6.373  33.390  10.435
12775W        W72311  35.048  15.654   2.281
12776W        W72312  38.892  42.894  11.445
12777W        W72313  39.970  23.691  14.478
12778W        W72314  37.044   7.812  11.557
12779W        W72315  39.817  11.361   2.368
12780W        W72316  26.544   9.206  13.410
12781W        W72317   0.460  18.589   4.831
12782W        W72318  38.410  40.958   0.837
12783W        W72319  20.687  14.713  10.956
12784W        W72320   1.332  21.030  13.041
12785W        W72321  35.907   5.406  14.908
12786W        W72322  34.905   3.423   3.846
12787W        W72323  34.523  16.142   0.745
12788W        W72324  40.541  39.033  10.014
12789W        W72325  32.925  16.294   1.395
12790W        W72326  12.707   1.887  12.080
12791W        W72327  16.233  29.056   2.324
12792W        W72328  15.202  42.512  12.577
12793W        W72329  32.096   5.710  10.121
12794W        W72330  21.119  22.090  12.555
12795W        W72331   6.734  39.011  10.589
12796W        W72332  40.953  30.461  12.088
12797W        W72333   2.269  38.570  14.022
12798W        W72334  10.184  42.458   1.346
12799W        W72335  25.153  20.538   4.665
12800W        W72336  17.164  36.557  12.505
12801W        W72337  23.235  35.965   2.313
12802W        W72338  17.142  22.045  14.860
12803W        W72339   5.700  24.670   3.860
12804W        W72340  19.269  41.004   1.930
12805W        W72341  34.866  12.674  13.864
12806W        W72342  21.554  40.489   2.338
12807W        W72343  11.188  27.079  14.880
12808W        W72344   1.399  42.977  14.792
12809W        W72345  42.340  28.018  10.505
12810W        W72346  11.233  24.040   1.739
12811W        W72347   8.387  32.019  14.985
12812W        W72348  24.633   0.415  11.893
12813W        W72349  36.419  20.588  14.403
12814W        W72350   1.817  16.236   2.324
12815W        W72351  41.371  25.127  11.890
12816W        W72352  42.781  29.520  11.376
12817W        W72353  42.447  24.619   1.770
12818W        W72354  34.025  43.490   2.230
12819W        W72355  41.518   7.311   0.842
12820W        W72356   3.389  24.507  14.890
12821W        W72357  32.119  29.114  11.933
12822W        W72358  21.657   8.374  12.929
12823W        W72359  20.175  10.767   2.283
12824W        W72360  11.160  14.696   2.305
12825W        W72361  43.985  40.342  11.990
12826W        W72362   7.298  35.958  11.418
12827W        W72363  33.551   3.767  12.452
12828W        W72364  41.848   5.720   1.374
12829W        W72365  27.192  21.698  12.925
12830W        W72366  10.856   0.388   1.228
12831W        W72367  10.706  44.839   2.803
12832W        W72368   4.408  27.492  13.474
12833W        W72369  43.780  25.039   2.276
12834W        W72370   2.414   5.752  12.493
12835W        W72371  29.061  35.041   4.270
12836W        W72372   1.860  25.110   4.252
12837W        W72373  39.530  31.560  12.398
12838W        W72374  37.582  39.535   2.413
12839W        W72375   1.750   9.785  13.958
12840W        W72376  33.514  34.565   5.127
12841W        W72377  41.309  18.773  10.518
12842W        W72378  24.524  25.997  14.289
12843W        W72379  11.661  42.332   4.354
12844W        W72380  34.583  28.506  13.967
12845W        W72381  43.513  39.481   4.318
12846W        W72382  34.024  11.311  13.805
12847W        W72383  25.706  31.964  14.380
12848W        W72384   7.823  36.440   3.294
12849W        W72385  33.968  39.035   3.846
12850W        W72386  43.487   1.374  11.549
12851W        W72387  21.708  39.836   0.904
12852W        W72388   9.387   2.823   2.842
12853W        W72389  37.919  39.456  11.436
12854W        W72390  23.688  28.604   2.202
12855W        W72391  34.936   4.280  12.040
12856W        W72392   0.807  27.037  14.363
12857W        W72393  13.653  22.118  11.460
12858W        W72394  44.342  17.231  11.496
12859W        W72395  44.396   2.358  13.316
12860W        W72396  32.446  18.111   0.878
12861W        W72397  31.554  34.401   1.445
12862W        W72398  17.105  30.537  10.041
12863W        W72399   7.718   3.886   4.326
12864W        W72400   4.880  37.512   2.763
12865W        W72401   5.705  25.542  12.054
12866W        W72402  38.912  24.013   1.417
12867W        W72403   4.774   1.281   3.704
12868W        W72404   6.222  13.768  11.545
12869W        W72405  30.420  16.257   4.299
12870W        W72406  42.416   5.842   1.932
12871W        W72407  13.225  26.977   4.215
12872W        W72408   5.703  20.709   0.446
12873W        W72409  20.718  43.939  12.568
12874W        W72410  37.877   6.393   0.439
12875W        W72411  25.710  32.069  10.623
12876W        W72412  17.214   8.720   5.181
12877W        W72413  25.531  17.120   2.751
12878W        W72414  34.061  32.637  14.306
12879W        W72415   9.802   4.718   0.762
12880W        W72416  40.905  25.219   0.832
12881W        W72417  32.014  31.474  10.011
12882W        W72418  28.517  44.272  13.925
12883W        W72419   9.713  30.628   0.449
12884W        W72420  40.492  15.298   4.134
12885W        W72421  31.548  30.473   3.848
12886W        W72422  23.173   0.868   4.243
12887W        W72423  23.022   7.900   1.869
12888W        W72424  35.586   5.892   1.935
12889W        W72425  18.726   9.825   4.751
12890W        W72426  39.055  21.567   0.458
12891W        W72427   3.262  11.291  10.109
12892W        W72428   6.357  43.978  11.078
12893W        W72429   7.324   4.207   2.903
12894W        W72430  43.915   8.857   4.236
12895W        W72431   9.259  10.139   5.300
12896W        W72432  16.743   8.743  11.956
12897W        W72433  43.367  37.001   4.187
12898W        W72434  41.527   1.373  12.464
12899W        W72435  31.609  42.471   1.933
12900W        W72436  37.931  37.025  13.004
12901W        W72437  42.849  43.382  12.917
12902W        W72438  27.194  20.106  12.475
12903W        W72439  41.865  25.018  11.936
12904W        W72440   2.786  40.419  11.998
12905W        W72441  35.422  37.431  10.617
12906W        W72442  39.338  15.223  11.089
12907W        W72443  43.281  39.396   2.672
12908W        W72444  31.404   0.487  10.627
12909W        W72445   4.777  38.886   1.400
12910W        W72446   6.276  31.108   2.749
12911W        W72447  27.070  26.690   4.334
12912W        W72448   4.913  30.058  13.803
12913W        W72449  20.097   2.303  14.823
12914W        W72450   2.425  18.723  13.927
12915W        W72451  43.786  17.666   0.309
12916W        W72452  10.782   2.950   2.716
12917W        W72453  33.055  21.644  14.299
12918W        W72454  39.380  40.361   2.407
12919W        W72455  41.350   8.791   2.261
12920W        W72456  29.515  43.765   1.847
12921W        W72457  12.235  28.516   3.381
12922W        W72458   8.734   5.914   2.293
12923W        W72459  39.971   0.899   0.397
12924W        W72460   1.265  32.492   3.769
12925W        W72461  32.913  37.451  14.964
12926W        W72462  23.554   4.721  14.964
12927W        W72463  38.506  16.665  14.903
12928W        W72464   3.931  23.083   3.668
12929W        W72465  33.402  31.422   1.445
12930W        W72466  21.546  43.778   1.306
12931W        W72467  11.768  35.951  14.991
12932W        W72468  29.049  19.214  13.376
12933W        W72469  38.026  17.585   2.674
12934W        W72470  18.125  28.632   3.147
12935W        W72471  17.682  34.506   3.361
12936W        W72472  20.136  31.943  10.949
12937W        W72473   2.351  15.089  14.416
12938W        W72474  43.509  19.185   3.705
12939W        W72475  41.368  22.154  11.081
12940W        W72476  19.577   4.448   3.703
12941W        W72477  15.142   0.916   2.748
12942W        W72478  15.205  22.135   1.880
12943W        W72479   4.755  13.282   3.382
12944W        W72480  42.378  15.293  13.006
12945W        W72481  17.111   1.838  10.480
12946W        W72482  31.407  28.066  10.610
12947W        W72483  28.081  34.378   1.249
12948W        W72484  33.409  20.720  11.419
12949W        W72485  15.210  17.577  11.594
12950W        W72486  22.639  30.929  14.446
12951W        W72487  43.946  14.652  11.046
12952W        W72488  20.539   1.406  13.991
12953W        W72489  21.700  23.170   1.238
12954W        W72490  21.036  40.967  11.920
12955W        W72491   8.709  25.472   1.904
12956W        W72492  16.611   5.259  13.883
12957W        W72493   5.694  44.491   0.882
12958W        W72494   8.792   6.861   2.352
12959W        W72495  37.831  25.098  10.946
12960W        W72496  15.717   5.687   4.599
12961W        W72497  12.223   0.956  13.988
12962W        W72498  40.333  41.425   4.166
12963W        W72499  26.086  22.059   4.339
12964W        W72500   1.881  15.592   4.785
12965W        W72501  28.121  44.961  10.066
12966W        W72502  39.956  29.164  12.048
12967W        W72503  29.491  25.594  12.499
12968W        W72504  31.068  32.571   1.225
12969W        W72505  29.429  11.208   1.709
12970W        W72506  16.235  12.650  14.908
12971W        W72507  15.780   2.279  10.467
12972W        W72508  35.503  38.882  12.445
12973W        W72509  16.276   3.231   1.347
12974W        W72510  40.542  21.696   4.305
12975W        W72511  39.340  13.120  13.371
12976W        W72512  19.612  12.175   3.852
12977W        W72513  29.624  37.874   3.368
12978W        W72514  37.904  44.820  14.440
12979W        W72515  39.382   0.829  10.895
12980W        W72516   4.747  18.765   5.114
12981W        W72517  10.278  19.643  10.572
12982W        W72518  23.670  12.271   3.252
12983W        W72519  24.054  14.830   4.188
12984W        W72520  26.099  17.598  12.578
12985W        W72521  41.821  34.086  14.373
12986W        W72522  28.450  28.566  11.968
12987W        W72523   8.884  20.695  10.634
12988W        W72524   4.361  22.712  14.887
12989W        W72525  43.795   9.765  14.017
12990W        W72526  38.891   0.868  11.545
12991W        W72527  37.034   8.894   1.835
12992W        W72528  19.548  30.059  14.338
12993W        W72529  29.074  20.634  13.427
12994W        W72530  26.954  43.420  10.959
12995W        W72531  21.650  43.767   3.154
12996W        W72532   7.870  36.961   1.893
12997W        W72533  38.063  36.418   3.383
12998W        W72534  23.221  21.530   0.260
12999W        W72535  24.070  29.125   1.216
13000W        W72536  15.324  15.799   0.386
13001W        W72537  32.917  23.998   4.724
13002W        W72538  25.016  44.290  11.587
13003W        W72539  27.608   6.785   1.884
13004W        W72540  20.161  30.952  12.452
13005W        W72541   9.357  10.138   2.316
13006W        W72542   3.229  26.077  12.850
13007W        W72543  16.243  39.391  12.576
13008W        W72544   0.932  23.705  12.384
13009W        W72545  25.177   4.342  10.483
13010W        W72546   4.394  21.666  14.417
13011W        W72547   2.721   1.292  13.330
13012W        W72548  37.580   0.843   2.703
13013W        W72549  14.199  33.908   1.751
13014W        W72550  24.606  12.614   2.417
13015W        W72551   5.697   6.184  13.842
13016W        W72552  33.535  29.614   3.229
13017W        W72553  14.163  11.851   1.402
13018W        W72554  17.661  23.645  13.826
13019W        W72555  17.254  33.595  14.336
13020W        W72556  37.066  44.468  10.147
13021W        W72557   6.275  40.802  11.993
13022W        W72558  38.873  30.528   2.342
13023W        W72559   7.851  19.136  11.612
13024W        W72560   0.793  28.548  13.965
13025W        W72561   6.676  26.625   2.797
13026W        W72562  21.651  27.672   0.958
13027W        W72563  19.606   7.322  13.966
13028W        W72564  14.589  12.277   0.305
13029W        W72565  16.709  41.988   0.919
13030W        W72566  35.972   9.887  12.949
13031W        W72567   1.868   0.898  13.454
13032W        W72568  10.320  38.429   4.199
13033W        W72569  34.954  23.711  14.815
13034W        W72570  34.404  24.610  12.898
13035W        W72571  37.898  30.002   1.784
13036W        W72572   1.739   3.887  13.511
13037W        W72573  44.996  44.929   0.349
13038W        W72574  11.660  40.913   3.198
13039W        W72575  38.564  33.962  14.352
13040W        W72576   1.378  30.011  13.508
13041W        W72577  35.020  32.429  14.830
13042W        W72578  23.193  22.087  14.029
13043W        W72579  35.445  35.427   3.245
13044W        W72580  20.155  15.741  10.996
13045W        W72581  19.207  26.987   1.356
13046W        W72582  24.713  40.019   0.741
13047W        W72583  23.628   5.764   5.261
13048W        W72584  42.840   2.278   3.315
13049W        W72585  41.833  44.293  14.308
13050W        W72586  20.654  39.413   0.472
13051W        W72587  31.918  22.669  14.366
13052W        W72588  20.684  35.060   4.810
13053W        W72589  34.458  16.231  12.920
13054W        W72590  16.092  11.749   2.816
13055W        W72591  13.218   5.210   2.814
13056W        W72592  33.942  43.005  14.326
13057W        W72593   4.876  24.704  11.101
13058W        W72594  41.916   7.883  14.923
13059W        W72595  41.823  28.677   3.644
13060W        W72596  22.647  34.943   2.388
13061W        W72597  13.710  10.305   0.832
13062W        W72598   8.751  23.675  13.387
13063W        W72599  17.707  10.763  11.598
13064W        W72600  20.129  21.216  12.037
13065W        W72601  22.516  27.689   3.731
13066W        W72602  16.776   0.760  10.986
13067W        W72603  29.076  29.522  14.810
13068W        W72604  41.917  12.733  14.977
13069W        W72605   3.278   7.224  13.923
13070W        W72606  38.480  18.062   0.833
13071W        W72607   1.405  12.852   0.473
13072W        W72608  44.987  33.396   0.339
13073W        W72609  19.083   0.326   1.316
13074W        W72610  34.520  42.893   3.307
13075W        W72611  44.786  21.217  13.850
13076W        W72612  26.457  39.442  11.962
13077W        W72613   9.387   8.323  12.481
13078W        W72614   3.441  33.956  11.123
13079W        W72615  33.904  27.626  14.484
13080W        W72616   7.870  18.160   3.232
13081W        W72617  12.261  22.043  11.933
13082W        W72618  32.478  37.474   4.299
13083W        W72619  10.840   1.333  13.018
13084W        W72620  22.716  14.340  14.468
13085W        W72621  36.950   1.745   1.422
13086W        W72622  39.485  35.092  13.460
13087W        W72623  16.209  36.569   0.262
13088W        W72624   7.729  36.579   4.338
13089W        W72625  30.149  34.913   0.881
13090W        W72626  12.169  38.926   2.263
13091W        W72627   6.890  29.518   3.379
13092W        W72628   9.269   6.832   1.360
13093W        W72629  40.474  21.176   3.687
13094W        W72630  17.687  29.584  14.369
13095W        W72631  35.578   0.393  12.525
13096W        W72632  22.611   3.342  12.897
13097W        W72633   1.892  31.440  11.533
13098W        W72634  43.359  41.941   1.774
13099W        W72635   4.316  40.008  11.448
13100W        W72636  29.045  42.283   1.787
13101W        W72637  26.074  36.418  10.436
13102W        W72638  25.544  23.010  14.289
13103W        W72639  16.782   2.415  13.028
13104W        W72640  38.514  31.128  14.016
13105W        W72641   1.840  36.916  11.053
13106W        W72642  20.204  13.773   1.799
13107W        W72643  21.625   0.859   3.636
13108W        W72644  38.003  13.741   1.234
13109W        W72645   6.331  14.338  14.288
13110W        W72646  29.129  10.699  10.972
13111W        W72647  35.063  14.151   1.264
13112W        W72648  22.176  26.104   1.226
13113W        W72649   0.756  44.846   1.876
13114W        W72650  42.785  17.722   2.833
13115W        W72651  29.104  14.723  11.101
13116W        W72652  30.980   8.870  10.912
13117W        W72653   4.436  31.619   2.288
13118W        W72654  34.886  13.290   0.321
13119W        W72655  17.763   0.490   0.343
13120W        W72656  26.592  14.266  11.445
13121W        W72657   1.750   8.888  11.878
13122W        W72658   6.182  27.646   2.820
13123W        W72659  44.783  38.538   3.360
13124W        W72660  43.353  31.579  11.860
13125W        W72661  33.939  11.132  11.487
13126W        W72662  25.710  34.613   3.168
13127W        W72663  31.542  13.169   4.736
13128W        W72664   5.886   6.378   3.185
13129W        W72665  40.849   0.958   4.217
13130W        W72666   2.816   2.858   3.164
13131W        W72667   6.690   0.776  12.563
13132W        W72668  28.554  19.061  14.436
13133W        W72669  11.750  28.545   1.821
13134W        W72670  22.558   8.698  14.766
13135W        W72671   4.826  33.561   0.255
13136W        W72672  44.262  38.372  10.936
13137W        W72673  31.408  17.689   2.238
13138W        W72674  19.057  13.665  11.105
13139W        W72675  24.995  40.993   0.258
13140W        W72676  29.038  26.175   3.255
13141W        W72677  31.039  22.663   1.425
13142W        W72678  34.868  25.093   4.153
13143W        W72679  43.805   3.711   2.281
13144W        W72680  21.645  29.014   1.893
13145W        W72681  17.754  42.424  12.078
13146W        W72682  33.061  23.683   0.423
13147W        W72683  21.249  11.152  11.543
13148W        W72684  32.982  39.062  13.800
13149W        W72685  41.970  17.129   9.972
13150W        W72686  36.029   4.318  12.033
13151W        W72687  25.577  12.726   3.286
13152W        W72688   7.746  12.847   1.271
13153W        W72689  43.378  38.908   3.153
13154W        W72690  22.540   7.881  13.392
13155W        W72691  31.910  25.015   4.160
13156W        W72692  20.698  20.132  14.763
13157W        W72693  13.603  24.216  13.329
13158W        W72694   2.471  24.711  13.798
13159W        W72695   2.886  44.504   2.230
13160W        W72696  29.646  14.618   3.312
13161W        W72697  43.416  14.603   2.206
13162W        W72698  20.722  37.054   4.672
13163W        W72699   0.889   1.335   0.331
13164W        W72700   8.213  36.490   0.800
13165W        W72701   6.831   6.386  14.008
13166W        W72702  12.775   3.902   1.223
13167W        W72703  30.479  32.908  11.545
13168W        W72704  28.939   4.874  14.407
13169W        W72705  27.688  26.462  12.852
13170W        W72706   6.712  22.020  12.907
13171W        W72707  34.951  10.693   2.810
13172W        W72708  33.560  40.939  14.803
13173W        W72709  43.944  19.232  12.005
13174W        W72710   5.380   2.248  12.019
13175W        W72711  38.379   2.447  14.829
13176W        W72712  39.945   1.341   0.476
13177W        W72713  40.468   0.248  13.383
13178W        W72714  19.149   5.270  13.908
13179W        W72715  40.889  24.499  11.395
13180W        W72716  39.990  28.583  13.994
13181W        W72717  15.181  23.140  12.555
13182W        W72718   1.746  37.948  14.784
13183W        W72719  11.867  22.168  10.904
13184W        W72720  44.447  39.550  13.447
13185W        W72721  11.658  23.185  13.944
13186W        W72722  33.905  27.568   3.721
13187W        W72723  21.173   9.213  12.955
13188W        W72724  17.231  27.528   3.641
13189W        W72725  21.092  18.221   3.247
13190W        W72726  25.075  19.577   4.803
13191W        W72727   9.781   6.766  13.041
13192W        W72728  15.611   6.235   2.331
13193W        W72729  25.098   7.394  11.488
13194W        W72730  30.008   4.765   1.749
13195W        W72731  25.522  19.731   0.297
13196W        W72732  15.103   9.887   0.297
13197W        W72733  28.479   2.423   1.361
13198W        W72734  15.647  27.122  13.950
13199W        W72735   3.257   6.781   2.743
13200W        W72736  30.439  43.876   2.318
13201W        W72737   2.383  18.077  13.854
13202W        W72738  25.025  13.347   5.164
13203W        W72739  35.889   1.761   2.395
13204W        W72740  17.154  43.288  11.461
13205W        W72741  43.503  32.544   1.730
13206W        W72742  17.780  43.818   3.226
13207W        W72743  11.349  21.606   4.721
13208W        W72744   7.885  14.637  14.956
13209W        W72745  22.026  27.578  12.042
13210W        W72746  38.966  16.592   0.288
13211W        W72747  11.172  12.685   1.837
13212W        W72748  44.796   7.822   3.653
13213W        W72749  30.535   5.392  13.819
13214W        W72750  38.963  15.811   2.408
13215W        W72751   9.712  11.173   1.732
13216W        W72752  17.645  41.445  14.890
13217W        W72753  27.124  41.967  14.370
13218W        W72754  26.699   7.761  11.868
13219W        W72755  29.448  19.185  11.405
13220W        W72756  14.176  21.136  11.564
13221W        W72757  39.429  32.048   4.600
13222W        W72758   7.907  30.623  13.047
13223W        W72759  27.043   8.323  13.997
13224W        W72760  25.082   6.709  14.413
13225W        W72761  44.793   9.730  13.020
13226W        W72762   3.784  15.820   0.245
13227W        W72763  23.700  28.539  13.392
13228W        W72764   9.762  34.033  10.599
13229W        W72765   9.678  30.570  14.511
13230W        W72766  13.708  13.254   0.875
13231W        W72767   3.828  33.880  11.060
13232W        W72768  34.002  41.518  14.349
13233W        W72769  33.976  33.606  11.575
13234W        W72770   9.308  19.765   4.662
13235W        W72771   7.697  22.197  13.923
13236W        W72772  30.615  19.701  14.859
13237W        W72773   3.931  37.959  14.418
13238W        W72774   8.844  18.255  12.433
13239W        W72775  39.542   7.825  14.886
13240W        W72776  23.076  17.265  10.597
13241W        W72777   5.264   4.360   1.386
13242W        W72778  18.262  19.082  10.535
13243W        W72779   2.932  32.092   3.631
13244W        W72780  14.789  24.040   1.858
13245W        W72781  16.146  33.623   0.925
13246W        W72782  10.319  34.089  11.882
13247W        W72783  31.619   4.377  13.467
13248W        W72784  25.513   4.708   1.279
13249W        W72785  12.272  28.968  13.536
13250W        W72786  22.661  21.513   2.407
13251W        W72787  27.501  26.628  11.568
13252W        W72788  21.613  37.457  11.417
13253W        W72789  30.593  37.977  12.830
13254W        W72790  44.384   4.938  10.055
13255W        W72791   4.327  32.422   3.737
13256W        W72792  37.971  34.561  10.529
13257W        W72793   3.311  28.655   2.745
13258W        W72794   5.317   3.232  11.929
13259W        W72795  35.513  34.453  14.907
13260W        W72796  39.980  21.714   1.347
13261W        W72797  14.181  31.914   4.260
13262W        W72798  36.519   5.739   1.755
13263W        W72799  43.980  14.770  13.449
13264W        W72800  31.404   1.809   3.720
13265W        W72801  42.492  40.902   1.391
13266W        W72802  19.752  35.369  14.765
13267W        W72803  18.765  40.410  12.033
13268W        W72804  13.317  19.561   0.347
13269W        W72805  18.200  42.363   0.953
13270W        W72806  12.651  11.338   2.826
13271W        W72807   7.678  31.897  12.424
13272W        W72808  27.139  38.015   4.770
13273W        W72809  34.555  39.881   3.661
13274W        W72810  31.432   8.336   2.740
13275W        W72811  29.151   0.325   2.226
13276W        W72812   3.776   3.898   4.298
13277W        W72813  36.448  21.652  12.990
13278W        W72814  17.733  36.059   0.765
13279W        W72815  11.669  30.506  10.591
13280W        W72816   7.870  13.640  14.281
13281W        W72817  30.581  21.173   5.101
13282W        W72818   7.341   5.874  10.613
13283W        W72819  39.843  22.071  12.415
13284W        W72820   9.151  37.974   3.189
13285W        W72821  43.312  21.073   4.821
13286W        W72822  13.206  28.024  13.051
13287W        W72823   2.454  43.294   4.781
13288W        W72824  23.515  10.280   2.331
13289W        W72825  14.644  38.496   1.775
13290W        W72826  19.691  41.820   1.344
13291W        W72827  13.723  29.032  11.583
13292W        W72828   1.804  19.163   4.311
13293W        W72829  31.988  22.649   1.294
13294W        W72830  40.395  10.778  11.499
13295W        W72831  36.977  21.716  10.894
13296W        W72832   5.812   9.762  12.375
13297W        W72833  44.935   8.811   4.687
13298W        W72834  17.662  41.847  14.840
13299W        W72835  34.908  27.147   3.172
13300W        W72836   2.257  38.896  12.456
13301W        W72837  32.940   3.744   4.340
13302W        W72838  42.433  26.463   3.273
13303W        W72839  16.667  39.389   0.481
13304W        W72840  28.478  40.002  12.537
13305W        W72841  33.395  18.629   4.659
13306W        W72842  18.223   0.254   1.398
13307W        W72843   4.738  34.450  11.407
13308W        W72844   5.432  10.848   4.761
13309W        W72845  15.086   6.713  14.454
13310W        W72846  11.247  26.962   1.437
13311W        W72847  36.530  24.166   3.331
13312W        W72848  44.777  15.788  14.456
13313W        W72849  37.900  21.157   2.837
13314W        W72850  10.735   5.437  10.546
13315W        W72851  30.620  15.767   4.621
13316W        W72852  12.173  43.338  14.421
13317W        W72853  19.221  44.294  14.299
13318W        W72854  18.746  37.951  12.933
13319W        W72855  35.039  20.674  12.968
13320W        W72856   1.306  24.678   2.325
13321W        W72857  44.760  37.058  12.965
13322W        W72858  34.987  37.032   0.816
13323W        W72859  15.755   7.791   4.599
13324W        W72860  34.050   8.359  10.961
13325W        W72861  41.863  25.110  12.574
13326W        W72862   2.296  31.945   0.340
13327W        W72863   8.183   3.785  11.495
13328W        W72864  35.569  23.613  11.479
13329W        W72865  24.719  33.614   4.735
13330W        W72866  37.912  39.899  11.477
13331W        W72867  33.057   2.383   3.154
13332W        W72868   7.352  41.529  14.381
13333W        W72869  17.080   5.367  11.529
13334W        W72870  26.142  27.668  12.029
13335W        W72871  35.431  12.617   4.617
13336W        W72872  30.653  14.789  12.850
13337W        W72873  34.508   4.781   4.206
13338W        W72874  28.133   7.800  14.286
13339W        W72875  43.767  24.116  14.954
13340W        W72876  33.405  32.418  13.537
13341W        W72877  16.762   9.195  11.582
13342W        W72878  42.843  11.332  12.004
13343W        W72879  20.225  17.767  12.446
13344W        W72880  34.593  44.987   3.276
13345W        W72881   5.691   8.709   0.929
13346W        W72882  28.045  17.142  14.432
13347W        W72883  16.705  26.548  12.988
13348W        W72884  28.989  23.636  10.471
13349W        W72885  18.590   5.338   0.375
13350W        W72886   2.731  26.118   1.418
13351W        W72887  35.005  15.139  12.021
13352W        W72888  41.411  42.956   2.336
13353W        W72889   3.419  24.104  11.118
13354W        W72890  34.089  15.121   1.915
13355W        W72891  23.024  13.123  12.896
13356W        W72892  35.401  44.976   1.219
13357W        W72893  19.217  28.588   1.760
13358W        W72894  38.073  33.518  10.543
13359W        W72895  28.086   7.833   3.313
13360W        W72896  21.641  44.347   1.259
13361W        W72897  42.782  35.005   1.358
13362W        W72898   2.232  30.489   1.748
13363W        W72899  40.507   1.803  10.106
13364W        W72900   5.391  26.207  13.506
13365W        W72901   7.713  42.025   2.670
13366W        W72902   7.286  21.096   4.182
13367W        W72903  26.660  27.094   3.335
13368W        W72904  33.445   7.233  11.583
13369W        W72905  20.229   8.386  12.487
13370W        W72906  43.985   4.900  11.863
13371W        W72907  31.603  19.642   1.314
13372W        W72908  30.119  21.649   3.312
13373W        W72909   9.216  34.437  12.997
13374W        W72910  24.586  29.541  13.008
13375W        W72911  22.598  17.732   0.367
13376W        W72912  25.102   3.302  14.326
13377W        W72913   3.823  42.800  12.553
13378W        W72914  39.455  19.214   0.257
13379W        W72915  12.694  20.195   1.894
13380W        W72916   4.729   6.183   3.330
13381W        W72917  41.373  33.941  11.916
13382W        W72918   9.205  35.480  12.384
13383W        W72919  13.293  37.963   1.357
13384W        W72920  37.012  44.484  14.029
13385W        W72921  26.553  35.452   3.664
13386W        W72922  32.925   4.204  10.889
13387W        W72923  21.686  24.663   3.287
13388W        W72924  32.528  38.990  11.918
13389W        W72925  40.976  17.786  11.513
13390W        W72926  27.187   4.729  12.504
13391W        W72927   9.375   5.771  11.515
13392W        W72928  39.827   6.698  10.585
13393W        W72929  41.351   3.840   1.442
13394W        W72930  39.927  28.057  14.936
13395W        W72931   2.916  38.004  10.605
13396W        W72932  15.684  29.627  12.356
13397W        W72933  37.549  40.502  12.437
13398W        W72934  26.649  22.543   0.299
13399W        W72935  27.590  34.118   3.351
13400W        W72936  21.061  41.410   0.910
13401W        W72937  25.088   8.859  12.840
13402W        W72938  26.564  43.441   3.220
13403W        W72939  14.120   9.699  11.867
13404W        W72940  31.627   6.737  12.438
13405W        W72941  22.665  14.324  10.565
13406W        W72942   2.360  26.019   2.664
13407W        W72943  34.445  12.236  14.820
13408W        W72944   7.389  17.148   2.293
13409W        W72945   4.730   7.395   3.632
13410W        W72946   0.343  14.589   2.882
13411W        W72947  38.934  41.971  14.812
13412W        W72948  26.165  42.032   2.315
13413W        W72949  41.797   8.291  14.779
13414W        W72950  11.306  14.128  11.372
13415W        W72951  38.851  17.134  10.498
13416W        W72952  18.600   8.364  11.554
13417W        W72953  21.553  18.132   3.733
13418W        W72954   9.753   8.301  12.824
13419W        W72955   8.344  23.623   0.378
13420W        W72956  35.484   0.781   2.817
13421W        W72957  40.832   7.387   4.726
13422W        W72958  27.992  28.659   2.789
13423W        W72959  11.769   0.404  11.504
13424W        W72960  42.412  22.996  14.911
13425W        W72961  19.090  37.866  14.327
13426W        W72962  16.086  34.115  13.835
13427W        W72963  34.534  27.538  11.390
13428W        W72964  30.488  20.128   1.749
13429W        W72965  19.764  33.910   3.318
13430W        W72966  33.602  41.502   4.140
13431W        W72967   8.812  10.176   0.913
13432W        W72968  28.622  18.729  11.450
13433W        W72969  40.481  22.671  10.069
13434W        W72970  29.993   6.796   1.856
13435W        W72971  20.135  40.506  12.994
13436W        W72972   5.409  36.453  12.518
13437W        W72973  35.416  39.443   1.307
13438W        W72974  30.034  30.930   4.269
13439W        W72975   1.287  26.695   3.371
13440W        W72976  36.376  41.850  12.059
13441W        W72977  36.441  41.986  13.365
13442W        W72978  19.241  35.515   0.474
13443W        W72979   5.801  16.791  13.892
13444W        W72980  22.107  34.095  12.366
13445W        W72981  42.287  19.772   2.340
13446W        W72982  21.222  10.206  12.847
13447W        W72983   5.283  39.465  14.346
13448W        W72984  16.631   2.787  10.995
13449W        W72985   5.802  34.041   1.932
13450W        W72986   7.751  19.558  10.532
13451W        W72987  39.968  25.511  12.356
13452W        W72988   0.805  43.317   2.747
13453W        W72989  28.506  38.872  13.371
13454W        W72990  36.495  42.902  10.513
13455W        W72991  28.165  21.182   5.198
13456W        W72992   0.287  30.413   0.791
13457W        W72993   5.279  19.643  10.511
13458W        W72994  40.946  43.381  14.023
13459W        W72995  40.035  26.098   3.781
13460W        W72996  25.634  18.593   2.287
13461W        W72997  37.871  31.092  13.985
13462W        W72998  42.850  19.176  10.578
13463W        W72999  41.987   9.395  14.465
13464W        W73000  17.267  24.628  14.426
13465W        W73001  18.257  12.783   3.776
13466W        W73002  10.376   8.252   1.823
13467W        W73003  12.298  30.566  11.528
13468W        W73004  17.611  10.279  13.314
13469W        W73005  22.997   1.797  10.963
13470W        W73006  34.950  35.027   4.708
13471W        W73007  23.532   9.840   0.735
13472W        W73008  31.560  25.564   0.297
13473W        W73009  36.400  12.786  11.433
13474W        W73010   2.299  37.980  12.455
13475W        W73011  18.555  20.056  12.873
13476W        W73012  44.501  10.261   4.306
13477W        W73013  14.112  32.002   1.806
13478W        W73014  16.745  42.486  10.933
13479W        W73015  27.551   3.883   3.353
13480W        W73016  41.874  32.066   4.761
13481W        W73017  32.499  10.655  13.435
13482W        W73018  31.584   8.268  13.309
13483W        W73019   9.721   0.877  14.474
13484W        W73020  30.461  17.130  14.385
13485W        W73021  24.058  39.419   3.256
13486W        W73022  38.334  29.483  10.465
13487W        W73023  19.117   6.890   2.272
13488W        W73024   2.812  24.223  11.047
13489W        W73025  34.876  11.226   1.253
13490W        W73026   8.793  39.513  14.345
13491W        W73027  25.139  26.987   4.315
13492W        W73028  38.012   7.859  12.449
13493W        W73029  38.913  13.286   0.408
13494W        W73030  17.733  42.969   4.598
13495W        W73031  44.922  41.322   2.859
13496W        W73032  38.027  33.976  11.038
13497W        W73033  12.349   0.457   0.342
13498W        W73034  36.442  19.578  10.644
13499W        W73035  29.538  42.854   0.946
13500W        W73036  39.313  33.969  10.939
13501W        W73037  23.689  42.305   0.459
13502W        W73038   3.828  30.433   2.398
13503W        W73039   5.850   4.779   2.860
13504W        W73040  22.102  22.007   3.687
13505W        W73041  37.524  40.842   0.864
13506W        W73042  19.148  23.568  12.369
13507W        W73043  30.980   2.955  13.817
13508W        W73044  18.197  19.737  14.912
13509W        W73045   6.382  38.035   0.823
13510W        W73046  38.491   6.835  11.453
13511W        W73047  13.786  26.046   4.306
13512W        W73048  35.592  16.182   1.763
13513W        W73049  28.989  29.051   2.220
13514W        W73050  27.940  25.091  11.464
13515W        W73051  30.496  36.918  11.393
13516W        W73052  24.629   0.388  13.944
13517W        W73053  28.158   8.188   1.894
13518W        W73054  22.650  39.882   0.348
13519W        W73055  15.738  39.366   1.366
13520W        W73056  26.465  15.662   2.283
13521W        W73057  30.009  31.616  12.426
13522W        W73058  17.141  32.949  13.862
13523W        W73059  33.083  41.829  12.470
13524W        W73060   8.800  36.012   0.806
13525W        W73061   8.167  36.940   1.217
13526W        W73062  38.037  33.599   0.772
13527W        W73063   8.740  43.439  11.454
13528W        W73064  25.601  11.311   2.331
13529W        W73065  20.100   7.771   3.817
13530W        W73066  22.510  22.619  11.023
13531W        W73067  43.280  31.432  13.405
13532W        W73068  19.216  28.020  14.860
13533W        W73069  22.542   1.832  13.533
13534W        W73070  21.669  39.447  12.565
13535W        W73071  37.983   5.346   9.941
13536W        W73072  28.510  15.156   1.791
13537W        W73073   2.405   1.819  13.439
13538W        W73074  39.846  41.392  11.544
13539W        W73075  33.540  20.527   4.754
13540W        W73076  34.033  27.001  14.822
13541W        W73077  37.382   2.894  13.842
13542W        W73078  17.569  17.672  12.054
13543W        W73079   3.743  36.497   4.692
13544W        W73080   9.164  21.753  11.916
13545W        W73081  13.771  28.555  14.986
13546W        W73082  18.098   3.416  10.922
13547W        W73083  14.741   9.385  11.960
13548W        W73084  37.835  21.091  13.792
13549W        W73085  35.916  19.116   2.671
13550W        W73086  40.403  20.177   3.836
13551W        W73087   9.305  21.145  12.938
13552W        W73088  16.693  34.026   0.921
13553W        W73089  11.270  30.112   2.757
13554W        W73090  18.667  20.152  10.644
13555W        W73091  28.984  40.939   0.369
13556W        W73092  38.469  15.721   3.314
13557W        W73093  30.986  29.623   4.133
13558W        W73094  27.032  13.224   2.345
13559W        W73095  23.224  41.844  10.517
13560W        W73096  23.013  42.308  12.068
13561W        W73097   6.715  31.140   0.895
13562W        W73098  31.407   8.792  14.799
13563W        W73099   3.446  20.532  13.979
13564W        W73100  14.167  27.077  11.002
13565W        W73101  31.055  24.987  13.498
13566W        W73102  19.201  26.464  10.410
13567W        W73103  22.165  31.928  10.903
13568W        W73104  24.716  24.205   0.806
13569W        W73105  39.971  30.915   2.359
13570W        W73106  26.058  16.172  11.580
13571W        W73107   6.381  29.081   2.416
13572W        W73108  41.349  19.159  12.068
13573W        W73109   1.441   3.284  12.874
13574W        W73110  26.073  41.538  12.023
13575W        W73111  42.022  10.851  12.074
13576W        W73112  24.976  38.840   0.285
13577W        W73113   7.901  12.815   0.437
13578W        W73114   0.775   7.376  13.409
13579W        W73115  19.625  25.700   0.277
13580W        W73116   5.828  31.134   2.188
13581W        W73117   4.271  33.897   0.410
13582W        W73118  42.974  39.848  14.989
13583W        W73119   5.783   1.777  12.419
13584W        W73120   7.684  37.927   3.641
13585W        W73121  32.067  18.081   2.289
13586W        W73122   9.648  17.195   2.217
13587W        W73123  18.184  39.455   1.296
13588W        W73124  44.981  40.304   0.401
13589W        W73125  40.963  25.482   1.419
13590W        W73126   9.837  23.152   2.320
13591W        W73127  16.785  12.620  13.804
13592W        W73128  15.587  22.170  13.917
13593W        W73129  37.856  28.120   3.635
13594W        W73130  39.515  22.093   4.293
13595W        W73131  15.207  23.053  10.585
13596W        W73132  32.479  17.801  10.437
13597W        W73133   3.719  38.326  12.861
13598W        W73134  18.138   8.177  12.350
13599W        W73135  40.826  13.704  14.021
13600W        W73136  38.919   8.811  12.039
13601W        W73137  17.643  42.392   3.775
13602W        W73138  42.458  24.648   0.262
13603W        W73139  36.844  28.578   0.401
13604W        W73140  37.557   7.291  12.524
13605W        W73141   8.765  20.660  10.031
13606W        W73142  19.589   2.324   4.198
13607W        W73143  31.127  33.451  11.880
13608W        W73144  11.712  10.836   0.303
13609W        W73145  13.300  29.052   3.766
13610W        W73146  28.158  33.539  14.813
13611W        W73147  14.134   2.462   3.784
13612W        W73148   8.210   5.407  14.332
13613W        W73149   2.392  15.767   0.911
13614W        W73150  35.528  26.980  12.072
13615W        W73151   6.807  14.656  10.445
13616W        W73152   9.864  28.035   5.761
13617W        W73153  12.283  39.939   0.340
13618W        W73154  16.290  41.893   3.294
13619W        W73155  37.942   4.345   1.893
13620W        W73156  19.113  11.245   1.723
13621W        W73157  23.587  24.630  13.953
13622W        W73158  36.012  15.745  13.057
13623W        W73159   2.384   5.283  13.998
13624W        W73160  31.119  24.016  10.572
13625W        W73161   9.316  21.134  12.344
13626W        W73162  43.977  42.476  12.536
13627W        W73163  41.982  39.467  10.498
13628W        W73164  13.287  25.497  13.845
13629W        W73165  43.837  13.615   0.376
13630W        W73166  26.965  10.318   3.694
13631W        W73167  32.981  23.155   2.369
13632W        W73168  33.452  25.659  12.493
13633W        W73169  21.046  23.028  11.398
13634W        W73170   2.837   9.711  12.862
13635W        W73171  17.698  23.500   1.873
13636W        W73172  41.439  32.128   2.892
13637W        W73173  41.309  39.952   2.838
13638W        W73174  22.518   9.151  14.455
13639W        W73175  11.305  19.590  14.809
13640W        W73176  16.765  28.611   1.747
13641W        W73177  11.342   5.859   5.652
13642W        W73178  38.562  38.052  14.862
13643W        W73179  37.996  18.699   0.274
13644W        W73180  20.123  29.468   4.768
13645W        W73181  10.805   0.289   4.295
13646W        W73182  28.122  10.859  10.978
13647W        W73183  31.986  25.193   5.179
13648W        W73184  30.981  33.434  14.800
13649W        W73185  16.246  30.031   1.869
13650W        W73186  11.797  12.783  10.918
13651W        W73187   0.942  29.949   3.321
13652W        W73188  39.864  21.740  14.939
13653W        W73189   4.705  29.963  14.305
13654W        W73190  29.642  25.142  10.057
13655W        W73191  38.913  15.799  13.450
13656W        W73192  11.846  24.634  13.547
13657W        W73193  10.274   7.841   4.218
13658W        W73194   5.357  10.262  11.408
13659W        W73195   3.276  16.307  12.358
13660W        W73196   2.443  36.592   4.275
13661W        W73197  19.102   0.821   3.179
13662W        W73198  37.929   2.324   1.292
13663W        W73199  32.136  41.834   1.768
13664W        W73200  21.095  31.054  11.566
13665W        W73201   5.909  42.969  10.921
13666W        W73202  31.996  33.889  11.016
13667W        W73203   5.362  40.434  11.018
13668W        W73204  31.404  15.129  14.962
13669W        W73205  38.571  19.139  12.906
13670W        W73206  16.649  10.797   4.341
13671W        W73207  42.808  14.765   1.333
13672W        W73208  40.996  13.744  12.061
13673W        W73209  18.697  38.475  12.360
13674W        W73210   9.330  24.709  14.029
13675W        W73211  42.299  40.395   1.290
13676W        W73212  25.987  43.489  14.450
13677W        W73213  28.178  19.271   1.224
13678W        W73214   7.738  19.672   0.783
13679W        W73215  35.396   3.419  11.896
13680W        W73216  44.944  39.479  14.773
13681W        W73217  43.940  21.026   0.455
13682W        W73218  16.166  11.684  11.924
13683W        W73219  35.599  34.405   2.233
13684W        W73220   5.815   9.381  12.531
13685W        W73221  31.090  15.599   2.242
13686W        W73222  21.527   1.766  14.017
13687W        W73223  20.197   3.309   1.300
13688W        W73224  39.858  14.726   2.194
13689W        W73225  20.751  42.821   3.211
13690W        W73226   7.363  33.989  13.983
13691W        W73227  29.523   4.846   0.402
13692W        W73228  29.560  40.333   4.738
13693W        W73229  25.600   3.338   2.179
13694W        W73230  36.554  27.001   1.898
13695W        W73231  18.656  24.208   2.184
13696W        W73232  33.511   5.716  12.530
13697W        W73233  17.284   4.803  10.503
13698W        W73234  44.369  41.823   3.314
13699W        W73235  11.736  19.277  10.927
13700W        W73236   9.241  33.918   2.207
13701W        W73237  13.248   2.910   0.418
13702W        W73238   5.707  11.803   4.307
13703W        W73239  38.385  23.231   4.329
13704W        W73240  30.454  12.149   4.803
13705W        W73241  41.299  41.814   4.814
13706W        W73242   9.297  23.695  12.492
13707W        W73243  15.132  34.462  12.047
13708W        W73244  28.946   6.721   4.159
13709W        W73245  17.793   3.436   1.702
13710W        W73246  15.272  32.928  12.568
13711W        W73247  26.517  41.888   3.682
13712W        W73248  14.719  24.066  12.887
13713W        W73249  20.566  27.635   0.250
13714W        W73250  24.661  27.069  11.121
13715W        W73251  26.174  10.806  12.059
13716W        W73252  11.789   9.703   2.229
13717W        W73253  32.566   3.267   4.113
13718W        W73254  40.871   0.766   3.770
13719W        W73255  20.091  12.654   0.307
13720W        W73256  29.933  30.499  11.965
13721W        W73257  40.440  22.559   3.357
13722W        W73258  16.185  10.731   4.779
13723W        W73259  40.533  19.217   1.904
13724W        W73260   5.688  25.654  11.099
13725W        W73261  22.152  14.303   2.251
13726W        W73262  10.302   2.935   1.421
13727W        W73263  28.186   0.869  11.564
13728W        W73264  18.177  14.326   1.336
13729W        W73265  23.553  41.884   0.821
13730W        W73266  33.020  43.966  13.536
13731W        W73267  42.488  34.091  13.308
13732W        W73268  37.484  27.025   2.692
13733W        W73269  36.464   0.446  14.009
13734W        W73270  23.220  28.081  12.360
13735W        W73271   4.788  34.446   9.951
13736W        W73272  32.896  12.643   4.156
13737W        W73273   7.786   2.350   1.294
13738W        W73274  11.227  23.216  12.847
13739W        W73275  15.137  23.702   0.756
13740W        W73276  17.113  30.486  13.997
13741W        W73277  22.665   7.852   3.267
13742W        W73278  26.547  24.063   0.404
13743W        W73279  32.546  31.983   3.779
13744W        W73280  11.721  41.809   3.795
13745W        W73281  33.906  17.183   3.255
13746W        W73282  41.803  13.841  11.119
13747W        W73283   0.856  23.668   5.744
13748W        W73284   7.271  22.529  10.537
13749W        W73285  31.474   9.341   1.764
13750W        W73286  20.085  31.406  13.848
13751W        W73287   4.229   6.897   0.400
13752W        W73288  25.030   7.259   3.799
13753W        W73289  19.679  41.813  12.904
13754W        W73290   1.294  11.629   1.868
13755W        W73291  40.823  23.126  13.354
13756W        W73292  37.949   1.435  12.021
13757W        W73293   4.920  30.981  12.841
13758W        W73294  11.735   4.259   2.754
13759W        W73295   6.196  22.196  11.921
13760W        W73296  10.876  35.862  13.988
13761W        W73297  20.211   5.834   1.840
13762W        W73298  16.666   8.757  12.463
13763W        W73299  35.055   1.354  13.352
13764W        W73300  23.224  40.474  13.329
13765W        W73301  19.581  36.467   5.202
13766W        W73302  44.945  32.904  13.920
13767W        W73303  12.334  43.950   3.228
13768W        W73304  33.007  37.527   2.344
13769W        W73305  16.760  36.534  13.351
13770W        W73306   2.304  17.130   2.276
13771W        W73307  21.750  20.139   0.925
13772W        W73308  26.203  39.944   2.726
13773W        W73309  29.172   4.700   3.346
13774W        W73310  33.422  35.062  12.862
13775W        W73311  43.925  42.836  12.994
13776W        W73312  35.441  31.428   1.387
13777W        W73313  42.812   0.900   2.665
13778W        W73314  15.203   0.986  10.627
13779W        W73315  11.645   0.461   1.444
13780W        W73316  12.846   4.787  12.405
13781W        W73317  20.135  30.520  12.413
13782W        W73318  34.958   1.854   0.777
13783W        W73319  12.807   4.782   2.322
13784W        W73320   8.719  19.762  14.820
13785W        W73321   4.777  12.149   3.178
13786W        W73322  30.986  16.103  10.454
13787W        W73323  33.998   8.377  12.438
13788W        W73324  26.654  21.048  11.412
13789W        W73325  21.183  43.005   2.665
13790W        W73326   1.831  18.613   4.715
13791W        W73327   5.699  11.754  11.449
13792W        W73328  43.323  33.538  13.393
13793W        W73329  25.658   4.886  12.849
13794W        W73330  31.428  28.933   3.640
13795W        W73331  36.584   1.350   1.219
13796W        W73332  14.336  44.787  10.962
13797W        W73333   4.221  30.512   0.354
13798W        W73334  16.107   2.423   1.726
13799W        W73335  34.024  21.603   4.816
13800W        W73336  22.058  14.664   0.396
13801W        W73337  25.198  30.595  10.957
13802W        W73338   8.315  40.491  14.383
13803W        W73339  21.205  25.697   1.803
13804W        W73340  38.528  39.315  10.419
13805W        W73341  20.671  27.985   2.826
13806W        W73342   0.765  26.189  11.959
13807W        W73343  23.100  19.566  14.811
13808W        W73344  41.333  30.617  11.084
13809W        W73345  29.066  42.800   2.893
13810W        W73346  37.041  24.217  14.399
13811W        W73347  23.998  23.625   1.712
13812W        W73348   9.711  41.028  12.471
13813W        W73349  19.749  38.898   3.766
13814W        W73350  17.685  25.149  12.065
13815W        W73351   2.334  28.070   3.275
13816W        W73352  35.961  26.990   1.259
13817W        W73353  21.725  21.553  14.027
13818W        W73354  33.472   6.243  13.840
13819W        W73355  23.525   0.324  14.981
13820W        W73356  12.183  29.110   0.728
13821W        W73357   4.812  32.598   2.793
13822W        W73358  10.219  35.535  11.575
13823W        W73359  20.201  32.921  11.938
13824W        W73360  15.612  22.713  12.013
13825W        W73361   2.272  25.531   0.881
13826W        W73362  36.086   2.228   1.369
13827W        W73363   4.926  36.842   4.787
13828W        W73364  12.661  27.089   1.382
13829W        W73365  44.459  27.595   2.689
13830W        W73366  10.744  34.406  13.309
13831W        W73367  25.115  31.086   5.247
13832W        W73368  39.987  31.436  13.406
13833W        W73369  32.997  34.596  12.481
13834W        W73370  44.882  34.546   4.805
13835W        W73371  12.797  10.663  12.413
13836W        W73372   0.932  27.101  10.504
13837W        W73373   7.310   6.329   2.297
13838W        W73374  32.043  17.780   2.350
13839W        W73375  33.998   7.849  12.493
13840W        W73376  19.055  13.716  14.991
13841W        W73377  13.773  28.570   1.856
13842W        W73378  22.144  39.890   0.754
13843W        W73379   5.922  23.080   2.265
13844W        W73380  38.010  38.468  13.986
13845W        W73381  19.219  44.305  14.801
13846W        W73382  34.406  39.048  10.946
13847W        W73383  42.471  34.875  14.941
13848W        W73384  23.043  37.377  14.304
13849W        W73385  19.222  17.173  13.951
13850W        W73386  17.776  17.198  12.071
13851W        W73387  38.439  19.133   4.132
13852W        W73388  41.041  37.386   5.137
13853W        W73389  44.364  24.060  14.896
13854W        W73390  41.828  44.877   3.238
13855W        W73391  26.055   9.275   1.451
13856W        W73392  18.192  26.080  14.395
13857W        W73393  21.060  22.049  14.437
13858W        W73394  36.933  41.825  10.988
13859W        W73395   3.428  32.056  11.988
13860W        W73396  33.895  42.507  14.784
13861W        W73397  28.484  21.197   3.844
13862W        W73398   7.190   5.891   0.389
13863W        W73399   8.291  12.318   2.787
13864W        W73400   5.789  16.257  14.495
13865W        W73401  19.221   3.716  13.950
13866W        W73402  35.405  43.910   3.162
13867W        W73403  18.702  40.363   1.747
13868W        W73404  28.171  42.286   1.886
13869W        W73405   1.814   8.852  11.030
13870W        W73406  36.019  24.485   1.827
13871W        W73407  21.656  35.038   2.888
13872W        W73408  15.315  35.373  13.357
13873W        W73409  44.954  17.221   2.302
13874W        W73410   3.278  11.834   2.673
13875W        W73411  38.534  12.162  11.891
13876W        W73412  10.875  40.455  11.914
13877W        W73413  22.125  14.215   0.302
13878W        W73414   7.375  42.817   3.156
13879W        W73415  28.576  23.022  14.769
13880W        W73416  39.329  21.590   3.302
13881W        W73417  11.217  12.665  14.804
13882W        W73418  31.439   2.888   1.793
13883W        W73419  12.167   8.681  14.939
13884W        W73420   3.930  16.097  10.442
13885W        W73421  23.531  33.018  12.473
13886W        W73422   9.804   9.384  11.000
13887W        W73423  29.144  28.486   1.254
13888W        W73424   5.432  23.674  12.474
13889W        W73425  40.041  40.926   0.310
13890W        W73426  30.151   4.286  14.385
13891W        W73427  42.931   9.326   1.914
13892W        W73428  11.840  42.992   2.766
13893W        W73429  27.628  15.803   3.710
13894W        W73430  37.927  39.888  13.979
13895W        W73431   7.740  17.691  12.942
13896W        W73432  21.106  21.120   0.857
13897W        W73433  39.505  12.658  14.985
13898W        W73434  34.060  22.162   1.321
13899W        W73435   2.957  24.557   0.828
13900W        W73436  11.633  13.603   1.228
13901W        W73437  43.354  17.176  10.632
13902W        W73438   6.293   9.736   4.771
13903W        W73439  28.059  19.253   4.187
13904W        W73440  33.385  34.598  11.993
13905W        W73441  11.647  31.983   1.439
13906W        W73442  18.652  26.114  11.914
13907W        W73443   9.370  39.947  11.387
13908W        W73444  28.162  28.942   4.267
13909W        W73445  41.853  11.358   0.812
13910W        W73446  26.151  30.641  10.645
13911W        W73447  32.617  18.610  11.113
13912W        W73448  43.949  17.714  13.878
13913W        W73449  32.105   4.392  10.069
13914W        W73450  21.551  32.526   4.769
13915W        W73451  23.529  27.059  12.342
13916W        W73452  16.637  37.083  13.039
13917W        W73453  39.456  21.642   1.422
13918W        W73454  25.536   2.905  12.391
13919W        W73455   3.427  36.396  12.576
13920W        W73456  15.777   0.858  12.095
13921W        W73457  36.011  41.862   1.382
13922W        W73458  13.193  42.816   4.778
13923W        W73459  35.406  41.395  11.007
13924W        W73460  18.701  12.625  10.432
13925W        W73461  20.608  10.688   0.727
13926W        W73462  12.770  13.703   2.847
13927W        W73463  17.790  30.053   4.626
13928W        W73464  13.117  15.704  11.993
13929W        W73465   1.738  30.005  14.383
13930W        W73466  21.755  23.021   3.382
13931W        W73467   3.297  28.463   3.146
13932W        W73468   2.959  24.007  11.591
13933W        W73469  27.063  38.544  14.480
13934W        W73470  13.145  43.312  12.580
13935W        W73471  13.703   3.729  10.452
13936W        W73472  31.962  25.557  10.556
13937W        W73473  11.354  28.164  10.448
13938W        W73474  21.617  21.512  10.149
13939W        W73475   1.939   3.216   0.404
13940W        W73476  33.974   6.375  14.293
13941W        W73477  42.440  15.620  13.524
13942W        W73478  31.519   5.246   2.343
13943W        W73479  25.559   6.763   1.831
13944W        W73480  43.314  32.582   0.903
13945W        W73481  10.317  34.467  14.329
13946W        W73482  35.376  34.877  14.860
13947W        W73483   9.328  18.057   0.904
13948W        W73484  10.288  25.120  13.421
13949W        W73485  23.543  36.046   3.167
13950W        W73486  13.348  29.022   2.662
13951W        W73487  28.573  14.275   3.790
13952W        W73488   9.374  17.651   3.318
13953W        W73489   0.786  18.644  12.504
13954W        W73490  14.241   8.740   2.691
13955W        W73491  16.097   1.303   2.711
13956W        W73492  14.776  44.346   3.742
13957W        W73493  35.468  15.677   2.380
13958W        W73494  43.836   7.414  13.946
13959W        W73495  35.954  35.502  14.455
13960W        W73496  44.486  10.246   3.385
13961W        W73497   0.258  17.756   3.760
13962W        W73498  33.511   0.398   2.270
13963W        W73499  11.839  14.102   5.306
13964W        W73500  17.613   4.758   0.436
13965W        W73501  25.994  41.831  14.299
13966W        W73502  33.891  11.808   0.278
13967W        W73503  39.941  18.583   3.238
13968W        W73504  20.201  15.278  14.761
13969W        W73505  27.092   2.320  14.493
13970W        W73506  26.138  32.464   4.771
13971W        W73507  35.029  31.643  13.534
13972W        W73508  15.637  39.455  13.532
13973W        W73509   8.859   2.737  11.915
13974W        W73510  30.970  36.391   1.777
13975W        W73511  37.045  28.640  12.894
13976W        W73512  21.629  35.077  14.840
13977W        W73513  13.139  12.619  10.029
13978W        W73514  34.909  42.322  11.075
13979W        W73515  16.096  14.179   3.293
13980W        W73516   4.780  13.636   4.836
13981W        W73517  14.145  13.700   0.901
13982W        W73518   3.815   3.222   2.847
13983W        W73519  12.741  33.024   4.301
13984W        W73520  30.929  27.627  12.496
13985W        W73521  39.844  44.793   2.872
13986W        W73522  35.572  35.908   4.757
13987W        W73523   7.668  23.018   4.612
13988W        W73524  38.556  37.862   0.425
13989W        W73525   4.446  38.467  13.389
13990W        W73526  39.327  35.398   1.859
13991W        W73527  13.144  14.113  12.905
13992W        W73528  38.832  41.426   0.380
13993W        W73529   1.977  30.476  10.600
13994W        W73530  26.492  10.652   0.430
13995W        W73531  25.984  37.905  13.891
13996W        W73532  30.051  40.349   2.732
13997W        W73533  44.391  10.697  13.533
13998W        W73534  38.841   2.796  13.313
13999W        W73535   6.186  39.848   0.477
14000W        W73536  36.395   4.864  14.338
14001W        W73537   9.360  25.699   2.800
14002W        W73538  10.877  33.049  11.522
14003W        W73539  37.467   1.939  10.932
14004W        W73540  16.136  12.154  11.496
14005W        W73541  14.172  15.686   5.099
14006W        W73542  35.975  26.657  14.484
14007W        W73543  11.252  22.122  14.510
14008W        W73544  17.200  12.168  13.948
14009W        W73545  37.415  41.793   2.370
14010W        W73546  30.621  23.535   2.701
14011W        W73547  26.521  13.802  11.575
14012W        W73548  25.084  14.611  13.977
14013W        W73549  11.363  14.210  13.467
14014W        W73550  25.490  35.519  14.820
14015W        W73551  12.221  12.301  12.545
14016W        W73552   0.924  35.510  13.951
14017W        W73553  12.351  16.166   0.447
14018W        W73554  37.891  33.059   2.818
14019W        W73555  41.407  28.499  13.988
14020W        W73556   5.933  20.106  14.000
14021W        W73557  44.293  41.523  10.513
14022W        W73558  29.126  19.160   1.225
14023W        W73559  33.969   3.410   3.177
14024W        W73560  15.247  23.191  13.931
14025W        W73561  39.958  29.449  14.802
14026W        W73562  39.906  13.724   3.821
14027W        W73563  22.575  32.474  12.980
14028W        W73564   8.388  30.949   3.346
14029W        W73565  38.387  30.496  11.019
14030W        W73566  35.858  13.156   3.832
14031W        W73567  42.367  24.080  13.409
14032W        W73568  10.780  35.854  11.092
14033W        W73569  39.389  13.605  11.931
14034W        W73570  40.024  36.514   4.217
14035W        W73571  28.991  39.976  11.561
14036W        W73572   6.268   5.730   4.169
14037W        W73573  27.137  18.732   2.852
14038W        W73574  39.522  30.989   2.868
14039W        W73575   7.817  29.522  13.460
14040W        W73576   4.802  31.535  14.974
14041W        W73577  15.165  14.611   1.917
14042W        W73578  17.573  30.419  11.077
14043W        W73579   8.795  43.514   1.922
14044W        W73580  13.624  12.696  12.530
14045W        W73581  31.416   0.953   0.832
14046W        W73582   4.902  35.900   5.288
14047W        W73583  27.965  15.687  12.849
14048W        W73584  26.672  28.679   1.762
14049W        W73585  22.586   9.770  13.986
14050W        W73586  41.379   1.871   0.329
14051W        W73587   5.772  31.003  10.917
14052W        W73588  33.577   4.266  12.896
14053W        W73589  30.051  27.103  14.344
14054W        W73590  28.501   7.259  13.404
14055W        W73591  38.555   9.861  14.791
14056W        W73592  37.988  14.602  14.453
14057W        W73593  26.485  13.205   1.856
14058W        W73594  23.225  15.256   1.723
14059W        W73595   5.916  19.249  14.390
14060W        W73596  29.551  17.136  11.022
14061W        W73597  41.799  30.153   2.246
14062W        W73598  21.071  26.566  14.957
14063W        W73599  38.419  37.389  11.128
14064W        W73600  35.572  38.518  14.905
14065W        W73601  30.972  41.413  11.988
14066W        W73602  35.398  39.363  12.010
14067W        W73603  26.627  17.670  12.542
14068W        W73604  20.537   1.896  12.989
14069W        W73605   1.773  13.145   0.731
14070W        W73606  18.266   3.342  10.425
14071W        W73607  17.783  42.297  12.958
14072W        W73608  36.992  21.617  12.364
14073W        W73609  11.345  44.894   3.749
14074W        W73610  25.478   7.392  11.407
14075W        W73611  15.776  16.762   0.341
14076W        W73612  39.831  14.237   0.837
14077W        W73613  14.249  35.056  11.547
14078W        W73614  21.728   2.388   2.735
14079W        W73615  29.495  20.056  14.459
14080W        W73616  37.834   7.414  14.970
14081W        W73617  43.288  39.490   2.179
14082W        W73618   6.410  26.978  13.520
14083W        W73619  16.596   6.780  13.515
14084W        W73620  44.947  40.453  12.877
14085W        W73621  36.898  23.593   3.247
14086W        W73622  36.959  17.612  14.373
14087W        W73623   9.303  35.582   2.235
14088W        W73624   7.369  24.509  11.855
14089W        W73625  21.517   7.888   3.664
14090W        W73626  10.650   1.848  14.299
14091W        W73627  12.799  10.848   2.398
14092W        W73628  18.555  39.314   1.818
14093W        W73629  20.055   8.197   1.448
14094W        W73630  31.015   1.402  10.616
14095W        W73631  44.821   9.236   5.319
14096W        W73632  11.250  31.035  14.486
14097W        W73633  35.517  31.571  13.880
14098W        W73634   6.794  26.610  11.515
14099W        W73635  10.188  39.376   3.279
14100W        W73636  19.163  34.521  13.357
14101W        W73637  24.211  10.842   3.315
14102W        W73638  32.936  40.890   1.906
14103W        W73639  36.509  29.581  12.548
14104W        W73640   4.876  16.666  13.985
14105W        W73641   5.812  38.879   2.732
14106W        W73642  23.637  13.672   0.334
14107W        W73643  10.383  23.100   4.226
14108W        W73644  15.083  16.770  12.040
14109W        W73645  32.106  11.176   5.251
14110W        W73646   8.733  16.165  14.807
14111W        W73647  17.739  37.355   3.856
14112W        W73648  41.978  28.606  10.904
14113W        W73649  29.050   1.418  14.971
14114W        W73650  18.784  40.034  11.382
14115W        W73651  37.343  32.635   4.281
14116W        W73652  15.188  11.625   2.756
14117W        W73653  43.984  19.124  14.828
14118W        W73654  29.035   2.932   4.701
14119W        W73655  38.409  13.770   1.281
14120W        W73656  20.527   0.469  14.341
14121W        W73657  27.566  10.139  13.922
14122W        W73658  44.358  17.156   0.933
14123W        W73659  10.793  28.453   3.732
14124W        W73660  40.053  40.522  14.509
14125W        W73661   4.802  26.112  10.621
14126W        W73662  33.062  28.160   4.302
14127W        W73663  22.220  43.330   3.238
14128W        W73664  29.618  34.116   0.392
14129W        W73665  42.415  31.916   4.682
14130W        W73666  34.464  43.283  11.060
14131W        W73667  31.417   6.393  13.994
14132W        W73668  11.722   5.934  13.535
14133W        W73669  26.492   4.733   2.254
14134W        W73670  13.726  25.198   0.848
14135W        W73671  33.478  16.607   3.770
14136W        W73672  20.675   3.726   3.656
14137W        W73673  39.010  19.670  11.585
14138W        W73674  20.613  28.655   1.324
14139W        W73675  13.308  44.341   2.843
14140W        W73676  18.108   0.819  13.017
14141W        W73677   9.343  18.281   2.215
14142W        W73678  14.816  19.774   5.161
14143W        W73679  14.701  36.075   3.671
14144W        W73680  37.028  27.591  14.885
14145W        W73681  31.133  33.554   1.707
14146W        W73682  28.069  41.509  12.073
14147W        W73683   4.797  16.191   3.847
14148W        W73684  20.182  41.441  11.973
14149W        W73685  31.095   6.873  12.034
14150W        W73686   9.858   7.740   2.886
14151W        W73687  27.979  42.460   4.666
14152W        W73688   7.305   1.329  12.488
14153W        W73689   1.439  36.869   4.699
14154W        W73690  10.321   2.376  13.045
14155W        W73691   7.869  13.770   3.779
14156W        W73692   0.452  23.208  12.343
14157W        W73693  22.573  14.819   2.880
14158W        W73694  41.507  31.039  13.973
14159W        W73695   3.924  18.708   0.277
14160W        W73696  24.214   2.234  13.837
14161W        W73697  30.523   1.317   1.870
14162W        W73698  23.092  18.150   1.294
14163W        W73699  10.192  24.043   2.874
14164W        W73700  35.589  20.097   0.867
14165W        W73701   0.389  27.660  12.846
14166W        W73702  27.686  25.166   3.171
14167W        W73703   5.242   9.787   0.736
14168W        W73704  41.989  43.789  11.115
14169W        W73705  15.642  21.141  12.341
14170W        W73706  31.584   0.377  11.923
14171W        W73707  16.235  28.441  14.916
14172W        W73708  15.162  42.369  11.100
14173W        W73709  15.578  43.020   1.841
14174W        W73710   9.216  22.647   4.341
14175W        W73711  35.535  17.182   4.700
14176W        W73712  11.251  10.339  11.924
14177W        W73713  21.167  15.726  10.059
14178W        W73714  33.963  18.686  10.954
14179W        W73715   9.786  25.108  13.496
14180W        W73716  30.993   5.738  11.542
14181W        W73717   7.273  31.105   2.286
14182W        W73718  37.349  21.524  11.855
14183W        W73719  20.087  23.615  10.121
14184W        W73720  10.194  39.441  14.827
14185W        W73721  16.808  19.232   0.888
14186W        W73722  23.197  15.824  13.830
14187W        W73723  42.025  13.265  10.923
14188W        W73724  32.469  14.614  12.565
14189W        W73725  11.816  29.170  12.938
14190W        W73726  38.450  13.623  13.354
14191W        W73727  23.223  27.510   4.822
14192W        W73728  43.376   1.866   2.405
14193W        W73729   3.755  21.080  11.585
14194W        W73730  28.943  21.071  14.857
14195W        W73731  14.742  43.987   4.639
14196W        W73732  42.776  44.348   1.930
14197W        W73733   6.796  36.457  13.906
14198W        W73734  13.316  18.575   2.667
14199W        W73735  21.071   3.774   4.632
14200W        W73736  35.907  37.490  12.850
14201W        W73737  31.097  30.943  11.935
14202W        W73738   1.958  14.117  13.807
14203W        W73739  32.045  27.640  10.890
14204W        W73740  16.197  21.652   2.703
14205W        W73741  33.919  33.494   2.822
14206W        W73742  33.931  17.793   3.633
14207W        W73743  39.939   3.278  13.869
14208W        W73744  27.079  11.749   3.636
14209W        W73745  19.579   5.739   2.834
14210W        W73746  35.993  32.916   0.869
14211W        W73747  10.681  18.676   1.929
14212W        W73748  41.842  14.155   0.363
14213W        W73749  10.362  25.672  13.824
14214W        W73750  10.713  21.056  13.533
14215W        W73751  23.512  20.536  12.420
14216W        W73752  44.864  41.913  12.041
14217W        W73753  23.615  20.113  12.040
14218W        W73754  36.872  32.530   0.455
14219W        W73755  43.961  19.118   4.631
14220W        W73756  39.474  39.498  12.360
14221W        W73757   2.359  24.098  10.932
14222W        W73758   3.447  29.069   0.851
14223W        W73759  11.181   4.303  12.383
14224W        W73760   8.660   3.407  13.053
14225W        W73761  12.317  41.014  11.527
14226W        W73762  41.337  15.657   0.858
14227W        W73763  27.143  31.409  14.873
14228W        W73764  20.171   9.227  13.319
14229W        W73765   0.382  39.416  10.473
14230W        W73766  28.150  44.862  13.329
14231W        W73767  31.909   9.722   4.810
14232W        W73768   7.400  24.018   0.447
14233W        W73769  27.078   0.475   3.323
14234W        W73770  16.577  12.242   4.143
14235W        W73771  41.451  14.654  13.482
14236W        W73772  16.095   3.844  11.972
14237W        W73773   2.315  20.530   0.811
14238W        W73774  23.550  31.623  13.017
14239W        W73775   0.944   9.348   0.326
14240W        W73776  29.626  21.731   2.710
14241W        W73777   8.738  35.452   0.273
14242W        W73778  24.673  28.594  10.917
14243W        W73779  23.012  16.793  12.461
14244W        W73780  10.840  27.173   1.872
14245W        W73781  35.358  22.228  13.509
14246W        W73782  44.389  14.270  12.967
14247W        W73783  12.321  40.387   2.727
14248W        W73784  15.289  21.558   2.401
14249W        W73785  42.411   0.453  14.489
14250W        W73786  24.129  32.031  10.641
14251W        W73787  11.212   2.379  13.847
14252W        W73788  20.040  29.520  14.454
14253W        W73789   1.278  41.318   3.808
14254W        W73790  20.526  36.971  10.933
14255W        W73791   2.363  39.006   3.804
14256W        W73792  30.018  30.041   3.285
14257W        W73793   6.680   4.358   1.740
14258W        W73794   8.301   4.447   0.297
14259W        W73795  25.705  14.271   2.188
14260W        W73796  11.248  22.634  12.523
14261W        W73797  28.629  31.961   0.346
14262W        W73798  27.497  42.973   4.681
14263W        W73799  39.041  14.646   3.825
14264W        W73800  32.966  29.521   4.177
14265W        W73801  26.529  32.055  10.577
14266W        W73802  12.650  14.692   3.777
14267W        W73803   2.351  21.050   1.720
14268W        W73804  17.186  11.669  14.914
14269W        W73805  27.455  13.115  14.341
14270W        W73806  25.529   6.373   0.750
14271W        W73807   2.830   1.877   0.405
14272W        W73808  30.155  28.151  11.055
14273W        W73809  19.754  44.413   2.795
14274W        W73810  25.528  35.075   1.232
14275W        W73811   0.822  35.977  10.535
14276W        W73812  28.498  25.602  10.563
14277W        W73813  26.479  19.749  14.390
14278W        W73814  27.663   7.671   1.738
14279W        W73815  34.077  44.281  11.048
14280W        W73816   5.233  16.576   1.371
14281W        W73817  42.527  20.705  11.378
14282W        W73818  18.582  41.534   9.948
14283W        W73819   1.840  23.053  14.926
14284W        W73820  25.047  38.009   0.304
14285W        W73821  38.959   5.233   3.275
14286W        W73822  20.138  42.890   3.156
14287W        W73823  30.442  32.910  10.421
14288W        W73824  31.093  36.488  14.961
14289W        W73825   2.381  30.139  13.041
14290W        W73826  12.694  35.519   1.701
14291W        W73827  16.120  14.302  10.910
14292W        W73828  42.476  39.447   4.619
14293W        W73829  14.190  18.115  14.414
14294W        W73830  42.493  23.583   1.356
14295W        W73831   3.756  40.943   2.378
14296W        W73832   6.359  35.535  14.316
14297W        W73833  13.236  10.316  11.404
14298W        W73834   9.666  11.688   2.899
14299W        W73835  19.176  41.335   3.632
14300W        W73836  39.856   8.746  13.449
14301W        W73837  34.991   7.695   1.832
14302W        W73838   3.414  21.555  12.406
14303W        W73839  35.452  12.785   1.443
14304W        W73840  23.015   8.807  10.564
14305W        W73841   0.461   5.690   1.926
14306W        W73842   3.875  10.734  14.818
14307W        W73843  12.654   2.360   2.808
14308W        W73844  10.200   0.901  13.865
14309W        W73845  25.642  26.103   1.872
14310W        W73846   1.472  23.725  11.533
14311W        W73847  42.790  21.071  13.004
14312W        W73848  28.181  38.535  12.070
14313W        W73849  12.738  15.130   0.809
14314W        W73850  14.716  34.505  11.118
14315W        W73851   0.399   0.279   1.346
14316W        W73852  31.561  22.525  13.521
14317W        W73853  33.468  22.524   2.673
14318W        W73854  34.002  13.264  14.954
14319W        W73855  35.573  15.315   1.378
14320W        W73856  32.042  26.066  14.330
14321W        W73857   1.286   4.738   2.892
14322W        W73858  12.145  18.648   4.321
14323W        W73859   8.838  28.504   1.296
14324W        W73860  24.571  34.889   2.258
14325W        W73861  11.331  19.571   1.297
14326W        W73862   0.945   1.831  12.894
14327W        W73863  12.626  26.176   0.859
14328W        W73864   3.367  44.495  13.974
14329W        W73865  27.091  43.286  13.795
14330W        W73866  43.475  44.819   3.672
14331W        W73867  22.592  21.696   4.242
14332W        W73868   5.297  26.647   0.737
14333W        W73869  20.163  16.628  14.280
14334W        W73870  13.130  28.499   0.480
14335W        W73871   6.848  40.902  10.510
14336W        W73872  32.896  15.124  10.541
14337W        W73873  40.812  18.249  10.413
14338W        W73874  14.698  20.759   1.910
14339W        W73875  26.493  43.402  13.014
14340W        W73876  40.837  30.656  14.445
14341W        W73877   0.487  22.512   4.259
14342W        W73878  36.880  27.584  11.438
14343W        W73879  10.286  31.572   3.202
14344W        W73880  20.208  15.797  12.060
14345W        W73881   6.413  28.126  14.325
14346W        W73882  38.502   0.294  13.458
14347W        W73883  40.951   7.758  14.780
14348W        W73884  18.600  37.396  14.410
14349W        W73885  38.559  22.546  12.393
14350W        W73886  23.210  14.196  10.913
14351W        W73887  36.415  13.155   4.236
14352W        W73888  23.601  35.108   2.311
14353W        W73889  28.120  22.590   3.729
14354W        W73890   2.437  38.061  14.977
14355W        W73891  38.891  29.984  12.945
14356W        W73892   4.286  20.053  12.844
14357W        W73893  22.554  44.923   0.885
14358W        W73894   0.942  34.554   0.294
14359W        W73895  44.296  42.319   0.446
14360W        W73896  31.558  34.102   3.173
14361W        W73897   5.834  23.020   0.419
14362W        W73898  14.172  42.526   4.739
14363W        W73899  42.779  15.758   2.890
14364W        W73900  17.657  33.458  13.335
14365W        W73901  21.745  19.157   5.677
14366W        W73902  39.976   9.339  12.931
14367W        W73903  31.420  31.434  14.854
14368W        W73904  35.025  19.112  13.383
14369W        W73905  18.293  35.548   4.821
14370W        W73906  10.803  13.642   3.753
14371W        W73907  20.252  42.844   0.946
14372W        W73908  28.667  34.611  12.895
14373W        W73909   4.842  18.552   3.842
14374W        W73910   7.222   1.421  14.888
14375W        W73911   4.366  33.522   4.784
14376W        W73912   5.775  30.043   3.163
14377W        W73913  22.055   5.777   2.811
14378W        W73914   5.847   3.216  13.317
14379W        W73915  34.031  10.756   0.329
14380W        W73916  27.667  32.118   4.191
14381W        W73917  41.536  10.225   4.752
14382W        W73918  12.219  26.159   3.150
14383W        W73919   1.765  41.389   1.344
14384W        W73920  15.185   0.823  13.967
14385W        W73921  28.056  44.375   0.284
14386W        W73922   4.426  41.534  10.609
14387W        W73923   4.339  43.830   0.403
14388W        W73924   8.797   3.446   1.219
14389W        W73925  18.671   2.803  12.496
14390W        W73926  41.328  40.833   1.388
14391W        W73927   1.265  11.685   3.165
14392W        W73928   2.875  29.637   3.386
14393W        W73929  22.171  40.017   1.384
14394W        W73930  29.586   6.881   0.280
14395W        W73931  28.477  17.249  12.041
14396W        W73932   7.248   4.305  13.911
14397W        W73933   5.355  23.198  12.873
14398W        W73934  38.479  20.089   0.337
14399W        W73935  16.805   2.298  12.417
14400W        W73936  14.834  18.731   3.748
14401W        W73937  19.041  14.618  13.980
14402W        W73938   5.814  24.115  10.471
14403W        W73939  30.921  41.820  10.521
14404W        W73940  25.202  19.197   3.869
14405W        W73941  32.019  25.063   2.667
14406W        W73942  40.974  25.578   2.346
14407W        W73943  10.701   8.361  12.576
14408W        W73944   6.402  35.594   4.234
14409W        W73945  13.805   3.370  12.426
14410W        W73946   5.750   3.359   2.676
14411W        W73947  15.637   4.428  12.978
14412W        W73948  28.938   2.740   2.849
14413W        W73949  23.006  13.716   3.784
14414W        W73950  11.153  20.134   2.827
14415W        W73951  25.995  40.526  14.305
14416W        W73952  43.375  43.020  13.039
14417W        W73953   1.932  40.843  10.950
14418W        W73954  36.048  41.360   2.778
14419W        W73955  39.382  42.836   1.217
14420W        W73956  28.564  14.753  14.359
14421W        W73957   2.790   2.829  10.636
14422W        W73958  36.028   9.244   3.190
14423W        W73959  13.843  24.080  11.534
14424W        W73960  31.569  40.815   1.433
14425W        W73961   1.414   4.373   3.812
14426W        W73962  18.697  29.035   3.768
14427W        W73963  44.343   4.338  13.989
14428W        W73964  31.037  16.670   1.284
14429W        W73965  30.576  22.075  11.067
14430W        W73966  21.740  39.926  12.936
14431W        W73967   3.259  14.190  13.827
14432W        W73968   3.414  36.931  11.409
14433W        W73969  32.429  35.021   1.852
14434W        W73970  26.179  43.452  11.893
14435W        W73971   3.823  43.445  13.929
14436W        W73972   1.366  38.066   2.739
14437W        W73973   3.324   5.791   3.828
14438W        W73974  26.543  35.538   4.608
14439W        W73975   1.858   4.214   3.336
14440W        W73976   5.774  36.477  11.479
14441W        W73977  30.024  16.248  13.422
14442W        W73978  15.255  44.458   0.908
14443W        W73979  28.947  33.989   2.250
14444W        W73980   4.882  19.125   3.235
14445W        W73981  33.949   4.402  14.318
14446W        W73982   2.914  36.945   2.832
14447W        W73983  36.995  29.983  10.561
14448W        W73984  37.472  12.648  13.827
14449W        W73985  42.951  31.102  12.504
14450W        W73986   8.183  25.637  10.915
14451W        W73987  37.027  42.470   4.235
14452W        W73988  37.020  25.077   3.364
14453W        W73989  14.311  42.021  12.396
14454W        W73990   1.814  19.134   4.672
14455W        W73991  38.350  16.177   0.855
14456W        W73992  23.555   4.403   2.836
14457W        W73993   9.326  12.787  10.488
14458W        W73994  40.413   0.294   9.450
14459W        W73995   5.717   8.385   0.347
14460W        W73996   5.789  39.919   4.658
14461W        W73997   5.813  42.415  13.485
14462W        W73998  39.437   0.949   0.348
14463W        W73999  35.050  19.043   2.857
14464W        W74000  16.705  14.734  14.848
14465W        W74001  15.137  28.169   4.115
14466W        W74002  32.130  44.969  13.996
14467W        W74003  21.591   4.884   1.356
14468W        W74004   0.885  40.350  10.536
14469W        W74005  39.388  36.074   2.718
14470W        W74006  13.230  13.654  13.892
14471W        W74007  39.410  31.493   1.216
14472W        W74008  36.454  28.448   3.213
14473W        W74009  18.269  11.666  12.055
14474W        W74010  35.928   5.243  12.018
14475W        W74011  43.978   3.734   4.354
14476W        W74012  19.764  15.083   3.380
14477W        W74013  12.252  43.485  12.085
14478W        W74014  18.151   2.770   2.740
14479W        W74015   7.858  41.003   2.869
14480W        W74016  13.804   3.803   4.249
14481W        W74017  15.816  40.810   1.443
14482W        W74018  23.206  42.320   0.388
14483W        W74019   4.404  38.545  13.052
14484W        W74020  41.038  16.726   3.211
14485W        W74021  18.673  24.635   3.307
14486W        W74022  36.364   8.228  13.853
14487W        W74023   8.856  29.514   2.686
14488W        W74024   3.348  15.643   0.282
14489W        W74025  22.169  41.358   4.339
14490W        W74026  30.636  42.877  14.016
14491W        W74027  10.815  16.641   2.221
14492W        W74028  20.159  43.868  12.051
14493W        W74029   6.310  19.151  14.480
14494W        W74030   7.355   8.376   1.318
14495W        W74031  33.397  10.379   9.973
14496W        W74032  27.137   4.794   9.978
14497W        W74033   1.954  15.261  13.395
14498W        W74034  43.000  40.840   4.680
14499W        W74035  37.084  20.101   4.204
14500W        W74036  34.590   9.335  11.489
14501W        W74037   6.719  14.660  11.022
14502W        W74038  38.559   9.159   2.358
14503W        W74039  14.242   9.753   3.376
14504W        W74040  10.843  37.025  12.944
14505W        W74041  40.015  23.509   0.245
14506W        W74042  16.751  28.557   4.291
14507W        W74043  10.376  33.083   2.219
14508W        W74044   1.829  38.537   1.813
14509W        W74045  21.200  22.513   1.705
14510W        W74046  24.114  38.964  13.974
14511W        W74047  23.016   0.821  12.836
14512W        W74048  39.911  31.932  10.924
14513W        W74049  11.160  42.372  11.424
14514W        W74050  23.142  25.075  14.481
14515W        W74051   8.380  33.481  14.939
14516W        W74052  14.755  39.529  11.577
14517W        W74053  15.136  43.299   4.165
14518W        W74054   8.176   1.378   3.250
14519W        W74055   8.378   6.333   0.762
14520W        W74056  22.542  44.387  13.871
14521W        W74057  13.726  26.465  13.012
14522W        W74058  35.911   8.701  10.552
14523W        W74059  21.720   0.447  11.383
14524W        W74060   3.785  38.865   4.123
14525W        W74061  44.761   7.780  14.436
14526W        W74062  12.130  15.747  13.942
14527W        W74063  36.394  34.117  14.315
14528W        W74064  30.561  43.450  10.593
14529W        W74065  16.691   2.430   3.777
14530W        W74066  24.101  44.793  14.439
14531W        W74067  34.110   2.747   1.380
14532W        W74068   1.300  23.527   2.902
14533W        W74069  15.264  21.575   3.320
14534W        W74070   3.383  15.728  12.879
14535W        W74071  14.794  31.987  14.877
14536W        W74072  12.140   5.916  12.907
14537W        W74073  23.654  28.465   0.798
14538W        W74074   7.673  37.080  12.426
14539W        W74075   9.806  12.721   1.368
14540W        W74076  21.094  42.032   5.306
14541W        W74077  41.913  32.420  13.317
14542W        W74078   6.745  30.153  14.515
14543W        W74079  25.979  13.269   4.250
14544W        W74080  36.937  44.928   1.697
14545W        W74081  18.780  31.060  11.857
14546W        W74082   9.810  44.315  13.918
14547W        W74083  16.728  18.718   1.745
14548W        W74084  22.107  11.342   3.289
14549W        W74085  42.865  29.661   5.084
14550W        W74086  41.444  13.773   1.427
14551W        W74087  36.554  42.353  13.956
14552W        W74088  16.286  37.907  11.997
14553W        W74089  39.029  30.619   0.736
14554W        W74090  10.231   1.375   0.246
14555W        W74091  42.817  41.916  10.977
14556W        W74092  44.425  29.549   4.150
14557W        W74093  25.015  34.584  12.405
14558W        W74094  20.534  29.471  12.912
14559W        W74095  11.693   6.328   9.554
14560W        W74096  38.956   3.401   4.120
14561W        W74097  18.645  35.039   5.137
14562W        W74098  22.147   5.268  14.975
14563W        W74099  27.148  36.935  13.946
14564W        W74100  35.471  32.134   4.722
14565W        W74101  17.178  33.491  14.780
14566W        W74102  23.624  37.833   4.614
14567W        W74103   1.310  30.521  10.492
14568W        W74104  13.755  25.639  10.906
14569W        W74105  17.239  27.177  13.857
14570W        W74106   3.930   9.686   4.172
14571W        W74107   0.840  40.486   2.395
14572W        W74108  36.580  39.451   0.911
14573W        W74109  29.467  31.994  14.951
14574W        W74110  26.981  29.665  10.996
14575W        W74111   3.326  10.745   3.242
14576W        W74112  14.614  39.347   2.668
14577W        W74113  20.231  22.091   1.854
14578W        W74114   1.306  17.562   0.781
14579W        W74115  18.253   5.871  11.389
14580W        W74116  11.850  13.749  13.893
14581W        W74117  20.056  33.085  12.345
14582W        W74118  35.867  11.830   0.268
14583W        W74119  12.834  19.562   3.337
14584W        W74120  18.207   7.821   2.291
14585W        W74121  15.170  43.319  11.095
14586W        W74122  44.971  32.586  13.514
14587W        W74123  41.988  27.531  14.491
14588W        W74124  16.750  24.015   1.820
14589W        W74125  36.365   4.392  14.997
14590W        W74126  21.535   2.867  10.980
14591W        W74127  42.404  30.126  11.373
14592W        W74128  34.894  13.211  11.969
14593W        W74129  10.311  15.696  14.815
14594W        W74130  40.040   9.731  13.049
14595W        W74131  37.075  37.911   3.844
14596W        W74132  25.175  26.503   3.850
14597W        W74133  39.549  40.004  10.433
14598W        W74134  34.479   0.466   1.352
14599W        W74135  25.647  30.434   2.207
14600W        W74136   3.388  40.800   0.299
14601W        W74137  28.442  44.353   0.422
14602W        W74138   5.818  12.674  12.061
14603W        W74139  35.404   4.338   4.217
14604W        W74140  44.259  44.484  11.028
14605W        W74141  41.330  12.217  14.311
14606W        W74142  34.957  15.652  12.442
14607W        W74143  33.522   5.271  10.628
14608W        W74144  17.287  29.032   3.778
14609W        W74145   6.837   2.327  10.596
14610W        W74146  42.289  44.009   0.251
14611W        W74147  36.069  39.314   1.901
14612W        W74148  32.578  23.697   2.305
14613W        W74149  18.676   0.314  14.000
14614W        W74150   1.274  21.733   0.746
14615W        W74151   9.888  32.408   0.874
14616W        W74152  24.480  14.257  12.538
14617W        W74153  41.503  34.473   2.754
14618W        W74154  44.919  17.679  14.949
14619W        W74155  28.565  17.194   0.864
14620W        W74156  30.646   1.735   4.667
14621W        W74157  38.462  36.444   2.184
14622W        W74158  17.605   3.809  11.082
14623W        W74159   8.805   3.385   3.804
14624W        W74160  23.226  41.872   2.190
14625W        W74161  11.740  35.410  12.947
14626W        W74162   4.434  22.505   2.360
14627W        W74163  14.172  32.113  11.530
14628W        W74164  15.196  40.453   4.203
14629W        W74165  26.589   0.921  13.802
14630W        W74166  33.439  38.354  13.350
14631W        W74167  32.068  33.399   4.308
14632W        W74168   6.251  37.008  12.065
14633W        W74169  34.441  23.145  12.449
14634W        W74170   6.895  16.662   3.663
14635W        W74171  29.984  15.208   1.224
14636W        W74172  20.557  23.216   2.771
14637W        W74173   6.733   8.355  11.986
14638W        W74174  13.639  15.713  13.374
14639W        W74175   2.291  37.931  13.828
14640W        W74176  34.944   5.813   4.178
14641W        W74177  43.366  18.705  12.542
14642W        W74178   6.204  41.909  13.510
14643W        W74179   8.778  25.211   3.812
14644W        W74180   3.329  40.832   4.230
14645W        W74181  18.637  25.196  13.408
14646W        W74182   9.296  24.992  12.979
14647W        W74183  30.990   5.738   1.266
14648W        W74184  40.334  25.101  13.461
14649W        W74185   4.404  26.070   9.921
14650W        W74186  31.911  26.057   2.301
14651W        W74187  20.054  32.105   2.366
14652W        W74188  18.602  27.590  13.378
14653W        W74189  41.996  39.507   1.409
14654W        W74190  21.582  23.991   1.316
14655W        W74191  12.195   0.774  12.959
14656W        W74192   2.731   0.431   4.719
14657W        W74193  43.356  31.974  14.448
14658W        W74194  35.106  23.188  11.088
14659W        W74195  16.779  30.911  10.468
14660W        W74196   4.340   6.812   1.894
14661W        W74197   3.816   1.341  14.338
14662W        W74198  19.744  16.201  12.524
14663W        W74199   9.242  12.146  11.417
14664W        W74200  20.755  28.079  13.991
14665W        W74201  11.346  31.015   2.214
14666W        W74202  24.689  10.724  10.893
14667W        W74203  14.736  10.666   3.210
14668W        W74204  14.726  40.871   0.777
14669W        W74205   5.419  26.651  12.045
14670W        W74206  41.989  38.951  11.501
14671W        W74207  24.151  10.775  13.415
14672W        W74208  33.485  37.947  13.043
14673W        W74209  28.590  29.564   2.366
14674W        W74210   7.247   6.204  11.081
14675W        W74211  40.850  12.284  11.991
14676W        W74212  34.972  17.162   3.745
14677W        W74213  22.501  41.392   2.305
14678W        W74214   1.418  30.534   2.413
14679W        W74215  32.104  28.513   2.865
14680W        W74216   2.408  12.734   2.333
14681W        W74217  18.709  30.037  12.018
14682W        W74218  31.506  39.326   1.858
14683W        W74219   2.939   4.889  12.477
14684W        W74220  20.670  18.083   3.158
14685W        W74221   8.811  43.512  14.278
14686W        W74222   9.776   3.244  11.594
14687W        W74223  12.631  20.680  11.020
14688W        W74224  24.118  32.409  12.876
14689W        W74225   2.959  11.191   9.949
14690W        W74226  30.422  35.358  10.590
14691W        W74227  36.583  37.923   4.772
14692W        W74228  40.402  34.062  12.849
14693W        W74229  16.290   7.742   0.252
14694W        W74230  17.617  18.182   0.959
14695W        W74231  12.852  35.934   1.270
14696W        W74232  24.084   9.809   4.718
14697W        W74233   2.781  29.982   9.517
14698W        W74234  42.877   8.308  14.483
14699W        W74235  32.059  18.288   4.224
14700W        W74236   4.812  38.831  10.475
14701W        W74237  42.348  40.431   2.271
14702W        W74238  44.465  13.284   5.184
14703W        W74239  41.787   9.706   1.316
14704W        W74240  10.274   1.815   2.860
14705W        W74241  14.803  26.028   1.842
14706W        W74242   9.220  18.202  13.043
14707W        W74243  16.291   7.360  12.459
14708W        W74244  32.634  43.009   0.916
14709W        W74245  33.921  32.442   4.146
14710W        W74246  33.410  18.077  11.062
14711W        W74247   6.807  28.545   2.255
14712W        W74248  43.379  26.640   3.856
14713W        W74249  32.426   4.798  14.283
14714W        W74250  39.952  11.209   3.187
14715W        W74251   9.857  39.527  12.430
14716W        W74252  39.934  27.004  14.414
14717W        W74253  16.190   4.899   4.303
14718W        W74254   9.866   2.776   4.736
14719W        W74255  27.574  27.666   4.251
14720W        W74256  35.420  33.575  10.423
14721W        W74257  40.540  28.520  10.939
14722W        W74258  13.320  11.312  13.014
14723W        W74259  39.912  35.453   2.182
14724W        W74260  26.190   0.252   1.755
14725W        W74261   0.838  26.639   2.868
14726W        W74262   1.285   4.818  11.581
14727W        W74263  26.097  10.165  12.041
14728W        W74264  36.538  40.812   0.244
14729W        W74265  43.939  25.109  12.966
14730W        W74266   2.759  34.879   1.353
14731W        W74267  18.096  25.640   2.295
14732W        W74268  41.486  41.979   4.215
14733W        W74269  31.568  37.354   2.818
14734W        W74270  25.651  18.683   1.916
14735W        W74271  11.302  23.679   4.349
14736W        W74272  18.103  15.189   3.186
14737W        W74273  25.487  35.008   4.745
14738W        W74274  20.761  35.369   2.731
14739W        W74275  22.995  36.432   3.858
14740W        W74276  41.458  12.837  14.823
14741W        W74277   7.703  20.544  13.464
14742W        W74278  41.472   3.294   3.736
14743W        W74279  29.656  32.392   3.369
14744W        W74280  22.645  26.141   4.240
14745W        W74281   5.903  44.467   1.355
14746W        W74282   7.245  36.569  10.904
14747W        W74283  34.863  33.625  11.074
14748W        W74284   0.385  19.718   3.285
14749W        W74285  40.921  24.704   0.379
14750W        W74286  42.847   9.788   2.664
14751W        W74287  44.421  41.837  13.791
14752W        W74288  19.199  36.960   0.830
14753W        W74289  21.177  36.865  10.637
14754W        W74290  28.076  35.544  14.011
14755W        W74291   5.787  25.644   2.372
14756W        W74292  23.600  38.345  10.495
14757W        W74293  40.355  38.435  14.794
14758W        W74294  13.140   3.240  13.473
14759W        W74295  21.026  14.110  10.034
14760W        W74296  18.158  26.582   3.188
14761W        W74297  27.017   0.363  10.916
14762W        W74298  10.692   3.759   0.782
14763W        W74299  13.635  29.058  14.277
14764W        W74300   0.866  20.657   3.332
14765W        W74301  16.077  14.211   0.298
14766W        W74302  14.747  38.032  14.365
14767W        W74303  29.053  32.119  13.968
14768W        W74304  19.705   5.363  13.909
14769W        W74305   0.313  11.154   1.345
14770W        W74306  13.199  38.435   4.774
14771W        W74307  24.082  42.874  11.042
14772W        W74308  13.200  21.585  13.477
14773W        W74309  30.558   7.278   1.272
14774W        W74310  11.686  35.992   5.196
14775W        W74311  24.122  12.144   1.450
14776W        W74312   7.742  16.692  11.549
14777W        W74313  22.506  16.789   3.196
14778W        W74314  17.177   5.202  11.861
14779W        W74315  28.679   3.343   4.153
14780W        W74316   6.722  40.869  12.935
14781W        W74317  10.300  18.170   2.818
14782W        W74318   6.900  18.791   1.714
14783W        W74319  37.480  39.985   3.793
14784W        W74320  44.321  30.143   3.733
14785W        W74321  41.374  34.083   0.271
14786W        W74322  37.544   1.929  14.965
14787W        W74323  16.770   3.219   0.418
14788W        W74324  41.818  13.342  12.443
14789W        W74325  26.584  24.125  14.859
14790W        W74326  30.475   4.317  14.344
14791W        W74327   0.802  19.250  10.441
14792W        W74328  24.687   1.862  13.508
14793W        W74329  19.779  22.502   0.825
14794W        W74330  13.775   5.395   3.177
14795W        W74331  37.507  17.752  11.102
14796W        W74332  30.512  22.518  11.531
14797W        W74333  35.467   3.263  14.783
14798W        W74334  34.465  37.087  12.918
14799W        W74335  20.553  22.646  11.927
14800W        W74336  34.003  24.606  14.845
14801W        W74337   9.856  18.278  14.383
14802W        W74338  28.085  26.094   1.859
14803W        W74339  23.017  41.457  13.990
14804W        W74340  39.517  27.452   4.124
14805W        W74341   6.413  14.613  12.445
14806W        W74342  10.706  43.508   3.276
14807W        W74343  29.168  22.619   4.710
14808W        W74344   3.835  12.827   0.821
14809W        W74345  43.399  11.328   2.800
14810W        W74346  33.436   6.676   2.409
14811W        W74347  23.492  23.188  10.490
14812W        W74348  35.930  13.131  13.829
14813W        W74349   6.786  40.370  11.978
14814W        W74350  32.949  39.427   0.963
14815W        W74351  35.450  32.595   3.279
14816W        W74352  25.019  22.202   4.768
14817W        W74353   8.804  23.661  10.614
14818W        W74354  11.829  36.458   3.248
14819W        W74355  22.028  32.043   4.116
14820W        W74356  30.634  28.444  13.853
14821W        W74357  14.136  22.034  12.573
14822W        W74358  20.128   5.893  11.026
14823W        W74359  43.922   0.473  12.410
14824W        W74360  37.970   3.790   2.807
14825W        W74361  14.120  30.162   1.750
14826W        W74362  14.282   1.756   3.820
14827W        W74363  38.886  12.770   2.751
14828W        W74364  18.084  29.980  14.903
14829W        W74365  27.040  22.151  14.278
14830W        W74366   1.865  25.507  11.031
14831W        W74367  22.743  18.782   5.788
14832W        W74368  39.460  32.936   1.358
14833W        W74369  43.942  17.629  10.499
14834W        W74370  34.444  15.293   0.758
14835W        W74371  18.252  30.445   4.154
14836W        W74372  20.141  10.339   3.211
14837W        W74373  20.668   3.224  14.320
14838W        W74374  32.526  24.534   2.405
14839W        W74375   7.231  33.615  12.823
14840W        W74376  34.420  28.997  13.995
14841W        W74377  37.907   3.455   3.275
14842W        W74378   5.395  39.039   4.206
14843W        W74379  22.736   9.643   1.931
14844W        W74380  16.130  32.891  12.855
14845W        W74381  32.398  10.159   2.392
14846W        W74382  28.079  40.332  11.398
14847W        W74383  10.281  38.396   3.770
14848W        W74384  44.333   6.325   3.190
14849W        W74385   9.763  29.067  11.022
14850W        W74386   6.823  29.141  11.555
14851W        W74387  44.999   0.804   0.263
14852W        W74388   3.810   2.349   0.776
14853W        W74389  41.466  32.978  11.938
14854W        W74390   9.710  37.033  10.969
14855W        W74391  18.635  36.466  13.947
14856W        W74392  17.584  41.383   3.752
14857W        W74393  15.679  37.077  11.924
14858W        W74394  15.310  39.049  13.445
14859W        W74395   9.850  20.561  10.454
14860W        W74396  28.492   8.389  14.375
14861W        W74397  25.020  25.081   0.430
14862W        W74398   1.416  21.129   2.787
14863W        W74399  37.507  15.260   4.786
14864W        W74400  40.982  26.998  12.077
14865W        W74401  41.863  11.325  13.319
14866W        W74402  28.170  25.134  11.026
14867W        W74403  23.566   9.264  13.046
14868W        W74404  36.376  31.074   3.771
14869W        W74405  41.407  12.258   3.335
14870W        W74406   2.358   9.239   4.602
14871W        W74407  41.537  12.274   2.743
14872W        W74408  31.433  24.690   4.323
14873W        W74409   1.795  22.681   0.377
14874W        W74410  11.192  12.657   4.244
14875W        W74411  28.082  24.678  14.377
14876W        W74412  25.496  32.047   4.114
14877W        W74413  24.193   8.232   1.356
14878W        W74414  18.285  18.623   2.753
14879W        W74415  36.513  12.361  11.972
14880W        W74416   6.891  44.810  13.952
14881W        W74417   3.712  13.783   2.889
14882W        W74418   9.708  17.799  10.426
14883W        W74419  42.446  29.116   3.158
14884W        W74420  21.702  20.583  10.474
14885W        W74421  17.108  42.499   2.793
14886W        W74422  24.138  39.492   5.125
14887W        W74423  44.420   6.855  13.835
14888W        W74424  23.128  43.305   2.378
14889W        W74425   1.828  22.564  10.626
14890W        W74426   1.298  39.935  10.500
14891W        W74427  15.801   6.755  12.463
14892W        W74428  27.468  29.941  13.034
14893W        W74429  19.735  26.677  14.409
14894W        W74430  16.569  39.862   3.203
14895W        W74431  27.494  11.677  14.283
14896W        W74432  44.955  14.299   2.211
14897W        W74433  41.817   6.913   2.346
14898W        W74434  30.998  40.955  11.419
14899W        W74435  33.435  35.528   4.817
14900W        W74436  19.691  17.597   3.714
14901W        W74437  42.426   3.224  11.600
14902W        W74438  31.549  26.157  14.395
14903W        W74439  42.933   3.345   3.812
14904W        W74440  18.105  28.133  11.495
14905W        W74441  19.723  38.949  14.852
14906W        W74442  31.589  23.641   2.341
14907W        W74443  41.890   6.411  12.528
14908W        W74444   1.449  15.210   0.459
14909W        W74445  21.543  15.184   3.731
14910W        W74446  17.656  37.872   2.832
14911W        W74447  19.201  33.888  13.917
14912W        W74448  16.151  27.660   2.831
14913W        W74449  41.996  22.070   0.441
14914W        W74450  15.179  17.235   3.842
14915W        W74451  20.257  25.201   1.284
14916W        W74452   5.749   0.901   4.125
14917W        W74453  25.063  17.198  14.853
14918W        W74454   9.342  24.608   3.712
14919W        W74455  37.969  31.967   2.683
14920W        W74456   5.199  24.717  12.390
14921W        W74457  23.612  27.452  11.595
14922W        W74458  25.640   6.755  13.063
14923W        W74459  12.174  28.032   0.772
14924W        W74460  15.109  40.463   0.317
14925W        W74461  33.422  25.552  14.293
14926W        W74462  27.175  16.209  12.012
14927W        W74463  27.484  26.545   0.347
14928W        W74464  29.477   2.822  12.537
14929W        W74465  20.590  22.706  14.347
14930W        W74466  16.809  34.537  14.849
14931W        W74467   2.459   5.294   1.315
14932W        W74468  26.113  23.669  11.514
14933W        W74469  13.741  32.974  13.456
14934W        W74470   3.405  41.000   3.310
14935W        W74471  26.054  25.476  12.493
14936W        W74472  13.222   8.792   2.313
14937W        W74473  38.003  27.166   4.779
14938W        W74474  11.760  34.546   2.217
14939W        W74475  24.012  27.133  13.342
14940W        W74476  23.027   2.243  13.395
14941W        W74477   9.738   8.702   0.867
14942W        W74478   9.823   9.391  12.437
14943W        W74479  17.744  23.034   1.912
14944W        W74480   4.822   3.905  14.421
14945W        W74481  11.189  41.887  13.345
14946W        W74482  22.604  21.634  11.520
14947W        W74483  34.911  10.218   9.991
14948W        W74484  27.948  20.109   4.155
14949W        W74485   9.741   7.211   1.383
14950W        W74486   0.483  34.995   1.868
14951W        W74487  44.864  34.947  12.988
14952W        W74488  16.191  40.019  11.861
14953W        W74489   0.367  35.558   0.811
14954W        W74490  11.715  18.262  13.936
14955W        W74491   1.409  36.053  12.394
14956W        W74492  23.993  12.137  13.473
14957W        W74493  17.710  20.560   1.412
14958W        W74494  26.116   8.887  11.595
14959W        W74495  43.272  39.546  10.439
14960W        W74496   2.434  30.092   0.805
14961W        W74497  11.271   4.233  13.869
14962W        W74498  16.752  11.249   1.807
14963W        W74499  15.797  23.048   1.276
14964W        W74500  15.781  44.821  14.479
14965W        W74501  17.711  24.634  11.567
14966W        W74502  28.620  21.178   2.306
14967W        W74503  41.311  42.780   4.643
14968W        W74504   9.667  30.570   0.728
14969W        W74505  20.637  42.503  13.906
14970W        W74506  38.337  13.601   4.803
14971W        W74507  17.686  43.462  13.378
14972W        W74508  28.575   5.366  14.942
14973W        W74509   9.644  22.191   4.611
14974W        W74510   6.297  26.095   1.729
14975W        W74511  41.885   0.792  11.430
14976W        W74512  25.022  34.484   2.341
14977W        W74513  34.068  31.996   4.801
14978W        W74514   1.253  31.489  13.449
14979W        W74515  36.411  23.506   3.703
14980W        W74516   5.335   1.274  14.383
14981W        W74517  44.354   2.840   0.408
14982W        W74518  42.027  26.482   3.764
14983W        W74519  27.035  29.171   0.745
14984W        W74520  34.982  42.447   4.807
14985W        W74521  36.906  16.248   0.390
14986W        W74522  30.983  18.666   4.746
14987W        W74523  20.602  16.691  14.910
14988W        W74524  11.636   3.416  14.412
14989W        W74525  34.880  24.176  12.491
14990W        W74526   6.750  11.699  14.448
14991W        W74527  12.177  43.894  10.451
14992W        W74528  13.611  14.165   1.901
14993W        W74529  11.211  33.024  13.461
14994W        W74530  28.450  15.809   1.759
14995W        W74531   3.320  24.515   0.435
14996W        W74532  27.492  11.764  11.415
14997W        W74533  22.010  31.926   4.674
14998W        W74534   9.741  12.667   2.717
14999W        W74535  28.643  17.167   1.780
15000W        W74536  29.994  27.516   3.379
15001W        W74537   2.326   9.657   9.927
15002W        W74538  28.544  26.479  14.932
15003W        W74539   2.462  32.410   3.355
15004W        W74540   0.439  22.183  11.043
15005W        W74541  36.408  26.539  14.376
15006W        W74542  36.924  12.618  12.848
15007W        W74543  18.781   9.816   2.271
15008W        W74544  15.178  29.438   2.234
15009W        W74545  13.297  39.391   1.867
15010W        W74546  20.113  15.229  13.035
15011W        W74547  11.862  20.107  12.575
15012W        W74548  23.519   2.820   0.828
15013W        W74549   7.776  20.150  10.487
15014W        W74550  20.733  25.088  14.870
15015W        W74551  16.753  44.408   3.184
15016W        W74552  13.338  42.850  12.007
15017W        W74553  18.099  10.246  10.901
15018W        W74554   6.708  39.403  13.312
15019W        W74555  36.038   6.831   2.381
15020W        W74556   3.294   4.430   3.682
15021W        W74557  42.318   0.818  10.628
15022W        W74558  31.079  34.887   5.141
15023W        W74559   1.300  33.380   1.923
15024W        W74560  30.514   4.332   1.924
15025W        W74561  28.652  18.233   4.639
15026W        W74562  16.317  41.786   4.633
15027W        W74563  37.550  13.152  10.540
15028W        W74564  39.845  34.092   4.141
15029W        W74565  23.103   4.401  12.052
15030W        W74566  40.470  19.619  12.445
15031W        W74567  19.214  43.802  11.447
15032W        W74568  34.020  44.796   0.814
15033W        W74569  40.833  28.625   2.779
15034W        W74570  40.873   7.352  13.407
15035W        W74571   5.291   1.788   0.908
15036W        W74572  25.618  34.109  13.534
15037W        W74573  31.575  21.182  14.425
15038W        W74574   1.480  28.613   4.162
15039W        W74575  23.522  20.670   0.830
15040W        W74576  17.264   6.420  10.524
15041W        W74577  34.097  18.295  11.002
15042W        W74578   5.804  18.582  13.371
15043W        W74579   5.884  29.042   2.374
15044W        W74580  38.902  33.446   4.703
15045W        W74581  13.239  39.368   0.910
15046W        W74582  32.886  35.487  14.857
15047W        W74583   6.403  10.773  13.431
15048W        W74584  42.800  38.537   4.734
15049W        W74585  18.660  15.796   0.785
15050W        W74586  16.607  20.534   0.335
15051W        W74587  37.065  17.091  13.988
15052W        W74588   9.323  17.173  14.386
15053W        W74589  23.041  36.932  11.371
15054W        W74590   0.837  16.685   3.666
15055W        W74591  29.651  34.420  14.877
15056W        W74592  39.033  29.064   4.304
15057W        W74593  39.506  16.173   4.741
15058W        W74594  20.114  40.472   4.297
15059W        W74595  17.236  27.479  10.888
15060W        W74596  15.748   8.718  10.012
15061W        W74597   8.789  14.801   0.383
15062W        W74598  27.506   7.300   0.403
15063W        W74599  30.458   3.268  12.541
15064W        W74600   1.249   6.765   1.443
15065W        W74601   0.931  11.257  10.517
15066W        W74602  43.965  42.488   2.692
15067W        W74603   2.234  39.939  14.976
15068W        W74604  16.084  20.709  11.438
15069W        W74605  26.039  32.077   0.276
15070W        W74606  22.243   9.256   1.755
15071W        W74607  32.927  26.017  13.533
15072W        W74608  14.747   5.377  11.952
15073W        W74609  34.612  28.439   0.860
15074W        W74610   0.307  23.517  11.597
15075W        W74611  41.938  21.637   2.324
15076W        W74612  35.442   0.492  14.325
15077W        W74613  33.478  13.170   3.254
15078W        W74614  34.473  38.937  11.578
15079W        W74615  31.914  10.285  11.507
15080W        W74616   9.241  20.191   2.806
15081W        W74617  42.776  12.156   0.808
15082W        W74618  19.067   4.321  12.370
15083W        W74619  23.639  29.061   4.238
15084W        W74620  26.101  15.134   2.223
15085W        W74621  29.965   4.726   3.353
15086W        W74622  33.901  19.579   2.871
15087W        W74623  42.333  32.111   0.901
15088W        W74624  25.080  42.421   0.754
15089W        W74625  40.842  22.610   2.404
15090W        W74626  16.609  37.491   0.735
15091W        W74627  39.390  19.086  10.427
15092W        W74628   0.469  38.052  12.991
15093W        W74629  42.338  20.227  12.047
15094W        W74630  42.408  30.655   1.257
15095W        W74631  20.245  19.706  13.932
15096W        W74632   2.945  25.064   2.893
15097W        W74633  44.386  44.797   1.771
15098W        W74634  23.220  10.794   0.957
15099W        W74635  31.014   3.767  12.529
15100W        W74636  21.574  44.441  12.354
15101W        W74637   2.890  42.971  14.844
15102W        W74638   7.407  15.669  12.007
15103W        W74639  31.431  36.476  14.433
15104W        W74640   4.755  15.101  11.065
15105W        W74641  17.142  17.275   5.284
15106W        W74642  15.786  33.988   4.150
15107W        W74643  17.228  37.348  10.534
15108W        W74644  31.487   1.475  14.470
15109W        W74645  21.018  40.836  13.003
15110W        W74646  36.036   3.450  10.905
15111W        W74647  43.425  12.318   2.865
15112W        W74648  41.012  19.575   3.846
15113W        W74649  35.002  36.096  14.277
15114W        W74650  38.493  40.497   0.399
15115W        W74651  20.083  36.914  11.425
15116W        W74652  41.875   9.321   1.268
15117W        W74653   7.290  23.038  13.973
15118W        W74654   5.752  15.757   2.297
15119W        W74655  27.143  29.627   1.363
15120W        W74656  11.134  16.214   2.892
15121W        W74657  18.247  14.635  14.012
15122W        W74658  32.892  17.787  13.494
15123W        W74659   2.234  13.713  14.796
15124W        W74660   3.416  17.139  10.583
15125W        W74661  14.590  23.641  14.338
15126W        W74662  43.425  36.061  12.523
15127W        W74663  26.477   6.355   2.818
15128W        W74664  44.859   1.245   3.277
15129W        W74665  31.993  13.721  11.975
15130W        W74666   1.323  23.000  12.570
15131W        W74667  28.619  35.446   3.767
15132W        W74668   4.257  28.493   5.271
15133W        W74669   4.733  18.227   2.813
15134W        W74670  41.906   8.766  14.852
15135W        W74671  24.691  21.605   2.187
15136W        W74672  23.583  17.714   9.592
15137W        W74673  28.500  14.243  13.532
15138W        W74674  44.333  26.123  12.506
15139W        W74675   4.385  38.038  14.808
15140W        W74676  14.339  34.088  10.499
15141W        W74677  28.616  11.195  11.047
15142W        W74678  19.207  38.828  12.021
15143W        W74679  32.496  18.179  14.872
15144W        W74680  14.782   6.774  12.476
15145W        W74681  18.154  24.608  12.393
15146W        W74682  25.988  44.408   4.811
15147W        W74683  13.657  21.525   3.256
15148W        W74684  30.945  25.088   3.219
15149W        W74685  41.999  11.139  12.874
15150W        W74686   9.824   4.402   3.280
15151W        W74687  28.545   0.775   3.865
15152W        W74688  43.431  20.222   2.673
15153W        W74689  11.366  15.589  13.359
15154W        W74690   4.749  29.658  11.100
15155W        W74691  24.552  19.580   0.387
15156W        W74692  23.498  13.302   0.926
15157W        W74693  18.709  17.212   9.998
15158W        W74694  23.233  24.050  14.343
15159W        W74695  35.547  35.376  11.071
15160W        W74696   3.935  16.580   0.822
15161W        W74697  18.717  20.556   3.149
15162W        W74698   4.840   9.670   0.896
15163W        W74699  37.552  31.937   3.722
15164W        W74700   2.334  37.450   0.948
15165W        W74701  44.287   2.288   4.327
15166W        W74702  33.558  30.567  12.992
15167W        W74703  23.632   0.254  11.578
15168W        W74704  15.688  10.354   4.794
15169W        W74705  30.622  15.640  13.959
15170W        W74706   4.307  23.546  13.833
15171W        W74707  21.160  42.845  10.604
15172W        W74708   0.314   1.945   1.754
15173W        W74709  37.556  31.055   2.248
15174W        W74710   6.190  21.024  13.855
15175W        W74711   4.297  13.278  13.421
15176W        W74712  10.686  32.987  14.485
15177W        W74713  10.313  23.099  13.384
15178W        W74714  38.855  32.438  14.422
15179W        W74715  34.380  13.649  12.058
15180W        W74716  10.177  41.032  12.504
15181W        W74717  28.444  10.318   4.285
15182W        W74718   2.339   6.805  14.928
15183W        W74719  13.746  18.546  12.529
15184W        W74720  21.249  23.665   1.236
15185W        W74721  11.306  26.601   1.328
15186W        W74722  17.292  36.874  10.044
15187W        W74723  20.100  25.107   3.154
15188W        W74724  20.675  29.016  12.020
15189W        W74725  44.824  26.600  13.993
15190W        W74726  13.325   2.922   3.245
15191W        W74727  27.654  21.257  11.543
15192W        W74728  16.098  34.917  14.814
15193W        W74729   4.803  36.004   3.218
15194W        W74730  33.895   3.287  13.013
15195W        W74731  42.847  17.714   0.820
15196W        W74732  44.867  31.640   1.890
15197W        W74733  29.117  34.405  12.405
15198W        W74734  19.748  28.590   2.370
15199W        W74735  22.642  15.752  14.380
15200W        W74736  42.488  28.448  13.980
15201W        W74737  27.156  42.833  12.838
15202W        W74738  35.928   3.391   1.238
15203W        W74739  39.011  22.017   0.280
15204W        W74740  20.241  37.536   1.742
15205W        W74741   6.894  13.192   3.839
15206W        W74742  43.371  36.991  13.946
15207W        W74743   5.401   9.395   3.319
15208W        W74744  17.244  32.568  12.544
15209W        W74745  15.712  42.893  12.828
15210W        W74746  35.563  41.528   0.889
15211W        W74747  31.428  11.153   4.279
15212W        W74748  38.077  28.617  13.868
15213W        W74749  40.820  44.499  14.491
15214W        W74750  22.216   0.320   1.309
15215W        W74751   9.659  13.804   0.350
15216W        W74752  30.433  17.284   1.758
15217W        W74753  20.114  44.479  14.770
15218W        W74754  35.413  32.930  12.032
15219W        W74755  38.504  21.188   2.308
15220W        W74756  29.955  38.878   3.744
15221W        W74757  40.548  27.646  11.424
15222W        W74758  43.374  13.154  12.422
15223W        W74759  37.945  25.690   4.329
15224W        W74760  16.304  34.517   2.823
15225W        W74761   0.746  10.142   2.858
15226W        W74762   0.981   8.815   2.845
15227W        W74763  11.772  24.514   2.203
15228W        W74764  21.640  17.592   0.444
15229W        W74765  30.017  22.651  14.465
15230W        W74766  37.832  14.701   3.196
15231W        W74767  12.812   3.803   2.360
15232W        W74768  28.021   7.690  10.989
15233W        W74769  21.168  26.512  12.961
15234W        W74770  22.079  22.104   4.196
15235W        W74771  21.238  21.179  10.499
15236W        W74772  33.952   4.822  10.589
15237W        W74773  43.313  15.298  11.868
15238W        W74774  44.888  43.432  10.981
15239W        W74775  11.803  13.153  11.410
15240W        W74776  20.102   9.655   3.171
15241W        W74777  37.569  23.067   0.812
15242W        W74778  15.083  26.689  14.513
15243W        W74779  39.362  37.378   0.733
15244W        W74780  20.155  20.059  14.435
15245W        W74781  43.847  39.979   3.207
15246W        W74782   5.266  34.578   0.959
15247W        W74783   7.890  20.559   1.436
15248W        W74784  35.384  21.047   1.254
15249W        W74785  16.247  43.825  12.420
15250W        W74786  41.369  12.741  13.498
15251W        W74787   5.739  38.039   4.190
15252W        W74788  29.169  24.667  11.111
15253W        W74789  41.451  30.428  14.786
15254W        W74790  18.654  36.032  11.422
15255W        W74791   6.253   5.854  11.514
15256W        W74792   1.324  17.631   2.708
15257W        W74793   1.325  21.604  11.899
15258W        W74794  14.276  32.447   0.764
15259W        W74795  41.488  38.467   4.282
15260W        W74796   8.671  31.609  12.847
15261W        W74797  37.353  22.242  12.978
15262W        W74798   0.772   5.894  12.987
15263W        W74799  17.061  34.072  13.802
15264W        W74800   3.819   2.733  13.435
15265W        W74801  42.477  13.607   0.331
15266W        W74802  34.100  33.598  12.478
15267W        W74803  24.488   8.685   2.288
15268W        W74804  11.144   6.733   0.429
15269W        W74805  32.400   9.644   2.677
15270W        W74806  27.106   3.889  13.474
15271W        W74807   0.936   2.330   3.342
15272W        W74808   8.883  38.359   4.749
15273W        W74809   1.287  37.469   1.792
15274W        W74810   3.914  26.522  14.277
15275W        W74811  43.924  19.682   4.226
15276W        W74812   2.962  40.383  14.936
15277W        W74813  13.168  26.152   4.731
15278W        W74814  32.109  35.990  11.015
15279W        W74815  27.023  37.849   4.293
15280W        W74816  23.521  31.082   2.835
15281W        W74817   9.364   1.350  11.021
15282W        W74818  33.045   4.704  14.899
15283W        W74819  35.413  42.947  10.560
15284W        W74820  25.075  41.398  11.884
15285W        W74821   6.262  25.978   4.786
15286W        W74822  39.399  34.950   2.832
15287W        W74823  35.499  43.991   1.428
15288W        W74824   4.803   8.822  11.417
15289W        W74825  41.377  20.150   0.298
15290W        W74826  18.094  33.626  11.971
15291W        W74827  34.468  31.980   2.755
15292W        W74828  30.592  25.118  13.964
15293W        W74829  20.551  37.350  10.448
15294W        W74830  31.097  25.158  12.067
15295W        W74831  25.094  37.550   1.931
15296W        W74832  10.796  22.017   2.792
15297W        W74833  10.785  25.570   4.743
15298W        W74834  16.084  25.180  14.874
15299W        W74835  44.896  10.335  10.925
15300W        W74836  27.594   7.680   2.324
15301W        W74837  36.031  24.501   2.244
15302W        W74838  29.987   0.853  11.112
15303W        W74839   9.859   9.839  13.482
15304W        W74840  25.638  20.557   2.215
15305W        W74841  29.118  43.962  12.395
15306W        W74842   4.306  25.207  10.644
15307W        W74843   9.301  30.959   2.371
15308W        W74844  38.449  21.075  11.947
15309W        W74845  36.963   7.343  12.422
15310W        W74846  28.057   7.706  13.365
15311W        W74847  16.572  44.428  14.830
15312W        W74848   1.927   0.362   2.382
15313W        W74849   5.408  31.461   2.407
15314W        W74850  14.272  44.262   0.448
15315W        W74851   7.205  39.821  13.507
15316W        W74852  39.039  21.244  12.480
15317W        W74853  44.277  10.856   9.493
15318W        W74854   1.367  44.768   2.702
15319W        W74855  26.681  26.126   0.438
15320W        W74856  10.832  32.418   4.270
15321W        W74857  37.539  11.721  13.341
15322W        W74858   5.227  40.892   0.421
15323W        W74859  35.368  17.177   0.399
15324W        W74860  41.886  42.338  13.013
15325W        W74861  22.742  13.184  14.953
15326W        W74862  16.657  16.113  14.302
15327W        W74863  43.789  22.167  14.877
15328W        W74864  40.047  25.532   2.866
15329W        W74865   1.326  31.913  14.888
15330W        W74866  17.087  34.479   2.665
15331W        W74867   9.761  21.725  10.479
15332W        W74868  36.009  32.002  10.156
15333W        W74869  33.622   3.324   1.422
15334W        W74870  39.872   9.664  14.303
15335W        W74871   4.859  21.700  14.780
15336W        W74872   6.711  42.479   4.810
15337W        W74873  34.072   5.703   3.191
15338W        W74874  43.439  41.786  14.488
15339W        W74875  11.851  27.572  13.531
15340W        W74876  33.021   2.288  13.923
15341W        W74877   1.457   5.788   3.152
15342W        W74878   3.431  18.209   4.643
15343W        W74879  16.723  28.100   1.835
15344W        W74880  43.963  23.239   3.380
15345W        W74881  21.239  20.046   4.328
15346W        W74882   4.367   2.335  11.974
15347W        W74883   7.707  34.395  14.881
15348W        W74884   0.963  21.720   1.381
15349W        W74885   3.804  36.855  11.943
15350W        W74886  16.252  17.183   0.745
15351W        W74887   3.863   9.692  11.908
15352W        W74888  41.880  29.640  10.160
15353W        W74889   1.435  26.465  12.545
15354W        W74890   3.275  22.198   2.722
15355W        W74891  18.604  35.422   1.289
15356W        W74892  30.909   0.959   2.310
15357W        W74893  36.982  43.375  10.412
15358W        W74894  15.161   2.280   3.791
15359W        W74895  28.494  39.025  14.835
15360W        W74896  12.167  32.056   1.228
15361W        W74897  16.214  23.202   5.206
15362W        W74898  37.435  15.690   0.926
15363W        W74899  25.001   0.316  12.471
15364W        W74900   9.706  18.221  10.986
15365W        W74901  19.231   8.716   1.766
15366W        W74902   0.876  36.043  12.047
15367W        W74903   5.867  19.251  14.841
15368W        W74904  20.182   8.716   9.964
15369W        W74905   7.843   1.889   2.794
15370W        W74906  37.343  32.074   4.133
15371W        W74907  19.255  31.606  12.929
15372W        W74908  40.334   0.258  10.102
15373W        W74909  17.743   5.702   2.190
15374W        W74910   2.952  13.619  12.569
15375W        W74911  28.626  39.917   2.275
15376W        W74912  29.967  12.757   4.143
15377W        W74913  29.008   8.194   0.253
15378W        W74914  39.540  12.314  13.833
15379W        W74915  26.201  35.588   4.319
15380W        W74916  43.277  20.746   0.750
15381W        W74917   3.404  37.864   4.121
15382W        W74918  13.641  23.523  13.360
15383W        W74919  27.192  44.863  12.891
15384W        W74920  21.592  42.835  11.599
15385W        W74921  40.896  19.253   4.346
15386W        W74922  30.541   2.395  13.311
15387W        W74923   7.847  40.849  11.387
15388W        W74924  10.860  32.137   1.860
15389W        W74925   3.849  32.413  12.348
15390W        W74926   3.401  42.477  12.966
15391W        W74927  35.976  43.275   1.711
15392W        W74928   2.336  25.103  13.400
15393W        W74929  39.503  16.713   4.736
15394W        W74930   3.277  30.441   3.149
15395W        W74931  43.470  43.908   4.162
15396W        W74932  19.632  38.508  14.809
15397W        W74933  17.635  44.275  11.390
15398W        W74934   3.337  16.674   1.851
15399W        W74935  28.072  44.829  14.766
15400W        W74936  11.311   9.345  10.537
15401W        W74937  22.706  40.365   1.412
15402W        W74938  34.520  37.400   4.254
15403W        W74939  44.782  43.847   4.762
15404W        W74940  36.054  27.470   2.178
15405W        W74941  40.033  15.126  10.903
15406W        W74942  36.074  11.747  13.959
15407W        W74943  26.993   1.862   0.804
15408W        W74944  44.320   1.938  10.944
15409W        W74945  24.124  22.735   3.767
15410W        W74946  40.930  33.987  14.455
15411W        W74947   2.778  22.637   2.766
15412W        W74948  21.695  43.769  10.925
15413W        W74949   6.231  18.068   2.386
15414W        W74950  22.164  41.408   0.273
15415W        W74951  43.887  31.513   3.385
15416W        W74952  22.530  44.876   4.346
15417W        W74953  32.990  38.827   3.173
15418W        W74954  36.843  30.124   4.690
15419W        W74955  13.761   4.791   1.295
15420W        W74956  26.650  35.594  13.851
15421W        W74957   2.255  14.598   4.789
15422W        W74958   4.804   5.797   4.696
15423W        W74959   7.310   3.919   3.761
15424W        W74960  43.917  33.040   1.303
15425W        W74961  32.423  34.972   2.410
15426W        W74962  17.111  37.937   3.820
15427W        W74963  27.066  15.691  11.565
15428W        W74964  22.614  44.313   2.366
15429W        W74965  37.415  44.424   3.661
15430W        W74966   9.810   8.185  10.418
15431W        W74967  23.172  29.084   3.653
15432W        W74968  28.096  32.107  14.401
15433W        W74969   3.279  40.516  13.501
15434W        W74970  10.643  15.824   0.329
15435W        W74971  19.738  11.306   1.840
15436W        W74972  35.940   6.862   3.374
15437W        W74973  36.865  18.756  11.126
15438W        W74974  22.224  39.504   2.302
15439W        W74975   8.769  17.608  14.014
15440W        W74976   8.832  37.350   2.717
15441W        W74977  43.840  29.988  13.875
15442W        W74978  38.397  21.025   1.433
15443W        W74979  12.783  39.884   2.354
15444W        W74980  35.563   3.804   0.829
15445W        W74981  11.815  36.446  12.889
15446W        W74982  11.725   6.291   3.863
15447W        W74983  17.292  44.292   5.244
15448W        W74984  15.779  34.000  12.995
15449W        W74985  22.550   5.790  12.539
15450W        W74986  26.049  44.395  11.091
15451W        W74987  37.071  35.868   3.336
15452W        W74988  17.173   3.767   4.162
15453W        W74989  10.247  12.733   1.293
15454W        W74990  17.682   0.335  11.096
15455W        W74991  44.860  25.707   0.875
15456W        W74992  42.287   5.829  12.890
15457W        W74993  41.835  15.235  10.111
15458W        W74994   8.338  33.600   2.848
15459W        W74995  29.139  29.441  12.431
15460W        W74996  25.522  44.393   4.791
15461W        W74997   8.789  26.472   2.834
15462W        W74998  30.564  27.021   1.418
15463W        W74999  31.967  13.318   2.399
15464W        W75000  20.141  34.898   4.117
15465W        W75001  23.161  38.414   4.781
15466W        W75002   1.414  13.687   2.234
15467W        W75003  39.423  35.939  14.911
15468W        W75004  36.403  19.049   1.417
15469W        W75005  30.447  40.003   3.730
15470W        W75006   9.728  24.521   3.820
15471W        W75007  20.107  37.877  14.466
15472W        W75008  22.692  34.080  11.002
15473W        W75009  40.882  31.142  14.475
15474W        W75010  42.303  12.150  12.909
15475W        W75011   7.310  43.305  14.972
15476W        W75012  41.796  13.683   3.185
15477W        W75013  27.077  43.447  14.454
15478W        W75014   2.926  21.685  13.916
15479W        W75015  33.022  10.261  11.567
15480W        W75016   2.455  28.104   2.838
15481W        W75017  16.282  41.999   4.168
15482W        W75018  32.605   1.890  13.313
15483W        W75019   8.874  32.517  11.979
15484W        W75020   7.403  19.618  14.341
15485W        W75021  26.656  29.080  14.336
15486W        W75022  23.077  39.559  11.563
15487W        W75023   0.374  42.842  12.355
15488W        W75024  38.362  28.090  11.438
15489W        W75025  42.800  32.624  12.854
15490W        W75026  36.025  23.137   2.834
15491W        W75027  36.551  27.002  12.062
15492W        W75028  33.563  25.067   2.754
15493W        W75029  31.150  38.555   3.335
15494W        W75030   8.348  43.418   3.810
15495W        W75031   9.808  10.280  14.793
15496W        W75032   8.343  10.158  11.479
15497W        W75033  22.008  20.621  14.437
15498W        W75034  23.659  38.560  13.436
15499W        W75035   5.420   1.951  14.359
15500W        W75036  22.077  11.239  11.417
15501W        W75037  15.812  42.975  13.821
15502W        W75038  12.813   2.962  13.418
15503W        W75039   6.800   4.364  14.815
15504W        W75040   2.949  31.637  10.621
15505W        W75041  19.245   2.874  14.462
15506W        W75042  36.448   5.261   1.293
15507W        W75043  31.465  43.355   2.410
15508W        W75044  17.560  17.180  13.811
15509W        W75045  40.410  36.854  12.032
15510W        W75046  21.115  37.561   3.755
15511W        W75047  17.596   0.977  14.437
15512W        W75048  34.461  13.801  10.914
15513W        W75049  38.501  24.145  11.114
15514W        W75050  27.129  36.921   9.671
15515W        W75051  34.537  12.618  10.580
15516W        W75052  29.439  32.104  14.323
15517W        W75053  31.533  20.128  11.887
15518W        W75054  35.965  35.078   0.328
15519W        W75055  22.167   6.259  14.025
15520W        W75056  28.001  27.562  14.322
15521W        W75057  10.659  33.909  12.021
15522W        W75058  44.456  19.602  13.544
15523W        W75059  43.924  33.527  12.399
15524W        W75060  20.051  22.667   4.260
15525W        W75061  11.644  24.702  10.485
15526W        W75062  10.253  20.252   1.826
15527W        W75063   1.960  29.170  12.868
15528W        W75064   2.947  28.586   2.321
15529W        W75065  24.165   0.424  14.288
15530W        W75066  40.526  38.882  12.856
15531W        W75067  38.396   9.291  12.450
15532W        W75068  20.156  36.959   3.694
15533W        W75069  34.549   4.775  11.880
15534W        W75070  15.616  43.853  13.925
15535W        W75071  39.316  10.749   1.445
15536W        W75072  36.578  12.290  14.469
15537W        W75073  11.373  37.357  13.007
15538W        W75074  39.991  25.482  10.971
15539W        W75075  21.642  16.641  11.051
15540W        W75076  35.589  20.271  12.956
15541W        W75077   5.734  15.819  14.912
15542W        W75078  36.099  27.082  13.794
15543W        W75079  44.422  38.571   3.368
15544W        W75080  13.811  38.408   3.158
15545W        W75081  23.048  12.152  11.029
15546W        W75082  27.684   4.345  12.035
15547W        W75083  30.097   0.320  13.842
15548W        W75084  36.561   9.738   4.251
15549W        W75085   2.351   4.827  11.026
15550W        W75086  16.809  36.015   4.787
15551W        W75087  24.663   8.874   2.769
15552W        W75088  43.882  28.563  13.060
15553W        W75089  39.520  25.655   2.286
15554W        W75090  26.962  21.638   2.216
15555W        W75091  41.381  44.393   9.925
15556W        W75092  21.224  30.103  13.841
15557W        W75093  41.813  19.657   0.348
15558W        W75094  20.245  21.231   5.218
15559W        W75095   6.401  17.216   0.357
15560W        W75096  40.012  26.487   3.385
15561W        W75097  41.306  13.251   0.910
15562W        W75098  14.278   1.279  11.035
15563W        W75099  20.709   6.884   1.289
15564W        W75100  12.180  25.713   0.887
15565W        W75101   7.207   9.860  11.534
15566W        W75102  20.080  12.661   3.341
15567W        W75103  22.236  18.710  12.482
15568W        W75104   6.687  12.196  12.482
15569W        W75105  29.472  19.632   5.245
15570W        W75106  13.185   0.743   5.247
15571W        W75107  27.590  28.648   3.229
15572W        W75108  37.993  12.277   1.252
15573W        W75109  15.651   3.232  10.902
15574W        W75110  10.178  15.265   5.233
15575W        W75111  26.516  26.183   2.861
15576W        W75112   7.871  40.957  13.799
15577W        W75113  21.646  26.602   9.980
15578W        W75114   9.889  34.049  10.996
15579W        W75115   1.841  31.962  13.366
15580W        W75116   5.404  43.885   0.291
15581W        W75117  30.581   8.825  13.308
15582W        W75118  14.785  23.699  13.542
15583W        W75119  13.180  28.496   1.426
15584W        W75120   2.857  11.368   5.193
15585W        W75121  44.765  25.676  13.929
15586W        W75122  35.474  43.406  13.372
15587W        W75123  37.849  34.926  11.114
15588W        W75124  26.685  36.401   4.271
15589W        W75125  44.815   1.318   1.345
15590W        W75126  33.582   4.795   5.306
15591W        W75127   6.422  24.136  10.518
15592W        W75128   9.374  42.872   1.245
15593W        W75129  36.949  42.403   2.720
15594W        W75130  30.501  31.119  13.004
15595W        W75131  25.144  10.163   4.740
15596W        W75132  11.853  27.655   0.933
15597W        W75133  41.480  40.031   3.209
15598W        W75134  24.187  40.031  13.882
15599W        W75135  39.318  32.460   1.414
15600W        W75136   6.824   7.686  12.066
15601W        W75137   9.359   5.776   4.670
15602W        W75138   2.460  18.167  11.495
15603W        W75139   3.221  39.501   2.223
15604W        W75140  42.348  39.327   1.275
15605W        W75141  20.106   6.878   5.788
15606W        W75142  11.300  43.948   0.761
15607W        W75143  19.145   9.214  10.889
15608W        W75144  25.602  29.036  14.758
15609W        W75145  31.133  27.670  13.393
15610W        W75146  25.115  35.423  10.892
15611W        W75147  37.337   4.312  10.975
15612W        W75148  30.435  33.602   4.304
15613W        W75149  28.971  38.854  11.537
15614W        W75150  19.200  15.653  12.957
15615W        W75151  19.259  27.160   2.780
15616W        W75152  44.307  15.255  14.006
15617W        W75153  33.617  12.681   2.384
15618W        W75154  13.122   3.228  14.291
15619W        W75155  33.926  16.106  14.430
15620W        W75156  36.928   7.908  11.000
15621W        W75157  19.541   0.383  10.018
15622W        W75158  29.060   5.361   2.254
15623W        W75159  33.012  12.162   1.410
15624W        W75160  30.946  16.093   2.183
15625W        W75161   4.373  35.363   3.153
15626W        W75162  27.672  35.455  14.394
15627W        W75163  13.707   7.832   5.653
15628W        W75164   1.477   2.869  10.513
15629W        W75165  21.644  30.480   0.432
15630W        W75166  37.408   6.297  11.983
15631W        W75167  27.557   1.734   2.406
15632W        W75168  22.025  19.748  13.453
15633W        W75169  22.154  26.543   2.681
15634W        W75170  31.055  22.105   3.769
15635W        W75171  30.918  10.323  12.475
15636W        W75172  19.668   4.388  12.043
15637W        W75173  20.096  28.973  11.974
15638W        W75174  19.233  44.774   1.828
15639W        W75175  44.375  41.029   0.272
15640W        W75176  44.857  43.862   3.152
15641W        W75177  29.544  44.835   3.358
15642W        W75178  24.015  23.641   4.175
15643W        W75179  25.686  21.655  13.321
15644W        W75180  24.194  11.234   1.313
15645W        W75181  21.225  33.545   5.153
15646W        W75182  42.831  37.434   4.664
15647W        W75183  28.631  13.773   2.844
15648W        W75184  42.785  33.106   2.288
15649W        W75185  43.365  28.939  11.422
15650W        W75186  41.919   9.222   4.178
15651W        W75187   1.904  28.023  12.552
15652W        W75188  33.406  17.593  12.559
15653W        W75189  12.812  37.998   1.387
15654W        W75190  26.633   9.721   0.793
15655W        W75191  43.377  42.804   0.365
15656W        W75192  31.495   2.897  10.970
15657W        W75193   8.171  25.006  13.408
15658W        W75194   3.245  17.689  13.368
15659W        W75195  37.055  44.465   1.310
15660W        W75196  44.907  19.536  12.978
15661W        W75197   4.887  23.542   4.226
15662W        W75198  15.593  15.759  12.974
15663W        W75199  11.750  21.158  14.906
15664W        W75200  33.472  18.595   4.140
15665W        W75201  15.589   2.921   4.236
15666W        W75202  23.223  15.644  10.541
15667W        W75203  18.147  33.559   1.416
15668W        W75204  41.858   3.342  13.486
15669W        W75205  17.706  23.107   3.731
15670W        W75206  17.632  44.467  10.596
15671W        W75207   1.474   0.983  13.824
15672W        W75208  25.060  20.203   5.288
15673W        W75209  12.698  42.380  14.824
15674W        W75210   6.724  27.971   3.647
15675W        W75211  33.963  37.072  13.008
15676W        W75212  41.490  36.877   1.320
15677W        W75213   5.236   5.426  10.503
15678W        W75214  44.828  37.071   0.449
15679W        W75215  35.004  44.948  12.901
15680W        W75216  33.955  38.894   4.294
15681W        W75217  16.620  15.129  14.382
15682W        W75218   0.263  44.771  14.516
15683W        W75219  36.958  31.065   1.288
15684W        W75220  43.889   5.720  11.471
15685W        W75221   5.205  43.467  12.086
15686W        W75222  12.335  35.452   3.689
15687W        W75223  16.312  14.150   0.855
15688W        W75224   4.319  31.060  14.959
15689W        W75225  14.228  41.883   3.788
15690W        W75226  37.385  14.672   2.189
15691W        W75227  14.686   0.468  13.909
15692W        W75228   6.232  42.899   4.168
15693W        W75229   9.748  38.517   2.213
15694W        W75230  39.876  31.424   0.867
15695W        W75231   4.735  12.314  11.497
15696W        W75232  11.865  40.450   0.816
15697W        W75233  38.333   6.693   4.787
15698W        W75234  10.863   0.883   2.884
15699W        W75235   6.364  38.530  13.818
15700W        W75236  37.948   4.393  13.953
15701W        W75237  38.327   4.818   4.698
15702W        W75238  35.054  32.930   2.274
15703W        W75239  44.450  38.328  10.050
15704W        W75240  34.072  11.743  14.029
15705W        W75241  40.493  38.898   2.729
15706W        W75242  42.406  22.674  11.415
15707W        W75243  34.586   2.923  11.869
15708W        W75244  15.646  34.377  10.616
15709W        W75245  19.643  27.518   2.305
15710W        W75246   1.481  36.350   2.284
15711W        W75247  42.865  33.951  11.478
15712W        W75248   8.220   4.446   1.285
15713W        W75249   5.696  30.595  12.463
15714W        W75250   9.817   6.197  10.924
15715W        W75251   0.979  40.835  13.459
15716W        W75252  25.471  32.970   4.716
15717W        W75253  33.026   5.747  10.949
15718W        W75254  12.767   3.399   4.166
15719W        W75255   7.288  12.259   1.932
15720W        W75256  11.646  20.596   4.805
15721W        W75257   4.236  37.528   3.814
15722W        W75258  37.999  17.306   0.438
15723W        W75259  15.199  15.588  11.070
15724W        W75260  33.958  12.312  11.483
15725W        W75261  13.831  19.102   2.279
15726W        W75262  27.530  38.915   0.359
15727W        W75263   6.699   4.768  11.467
15728W        W75264  12.189  34.047  11.885
15729W        W75265   9.353  14.230  10.119
15730W        W75266  16.142  24.021  13.423
15731W        W75267  39.389  44.849   3.342
15732W        W75268  27.474  14.168  14.010
15733W        W75269   3.732  44.967  12.547
15734W        W75270  26.480  17.253   0.900
15735W        W75271  32.991   9.849   2.753
15736W        W75272  25.579  40.376   1.407
15737W        W75273  30.524  26.022  13.022
15738W        W75274   2.311   1.900  14.015
15739W        W75275  38.037  10.677   4.216
15740W        W75276  40.335  22.049  12.573
15741W        W75277   8.691   6.223   0.476
15742W        W75278  16.162   6.901   3.371
15743W        W75279  20.261  29.605  10.517
15744W        W75280  31.444  42.868  12.019
15745W        W75281   9.186  18.597   4.636
15746W        W75282  31.641  25.647  12.962
15747W        W75283  11.694   6.383  14.449
15748W        W75284  22.521   1.326  13.829
15749W        W75285   8.295   3.251  14.912
15750W        W75286  17.773  31.518  10.609
15751W        W75287  31.535  20.586  10.628
15752W        W75288   9.199  37.546   0.905
15753W        W75289  26.613  23.573   3.377
15754W        W75290  15.742  26.194  13.803
15755W        W75291   6.814  32.426  10.993
15756W        W75292   2.429  14.834  14.448
15757W        W75293  20.610  11.784  10.479
15758W        W75294  15.681  13.805   3.856
15759W        W75295  41.821  41.410   3.219
15760W        W75296   2.720  11.149  10.556
15761W        W75297  10.290  24.048   0.411
15762W        W75298   6.218  27.086   2.278
15763W        W75299  33.092  15.640  12.403
15764W        W75300  41.448  13.666  12.527
15765W        W75301  37.838  43.434  14.836
15766W        W75302  10.176  14.203   3.689
15767W        W75303   1.776   7.870  11.597
15768W        W75304   1.859  16.718  11.916
15769W        W75305  26.605  40.350  10.897
15770W        W75306  10.179  38.471  14.444
15771W        W75307  44.908  42.831   1.434
15772W        W75308   5.414   3.943  14.938
15773W        W75309  42.992   0.923  11.420
15774W        W75310  38.934  14.316   2.879
15775W        W75311  20.101  39.393  12.079
15776W        W75312  35.569  17.687   0.855
15777W        W75313  12.807  38.410  12.379
15778W        W75314  43.850  20.716   1.266
15779W        W75315  39.907  15.246   4.694
15780W        W75316   7.277  23.672  11.470
15781W        W75317  13.193  26.543  10.600
15782W        W75318  28.510   0.277  12.419
15783W        W75319  11.358  18.685   2.768
15784W        W75320  25.491  43.469  11.083
15785W        W75321  41.402  26.563   0.356
15786W        W75322  12.659  43.393  10.528
15787W        W75323  23.221   7.415   1.289
15788W        W75324   9.824   3.907  13.324
15789W        W75325  17.087  16.784  13.813
15790W        W75326  12.289  29.959   0.390
15791W        W75327  35.492  27.154   5.182
15792W        W75328  37.901  15.216   0.745
15793W        W75329  12.192   9.241   5.226
15794W        W75330   2.818  20.621  12.563
15795W        W75331  30.986  27.552   0.384
15796W        W75332  25.989  16.747  12.526
15797W        W75333  21.188  10.645   3.331
15798W        W75334   0.789   9.238  13.995
15799W        W75335  19.057  25.024   1.230
15800W        W75336   1.324  37.871   0.841
15801W        W75337  30.922  19.082  11.037
15802W        W75338  43.816  37.958  11.408
15803W        W75339   3.734  15.763   4.165
15804W        W75340   7.219  10.156  12.927
15805W        W75341  38.875  36.081   3.863
15806W        W75342  19.557  24.065  12.579
15807W        W75343  23.999  28.998   4.682
15808W        W75344  38.897  24.139   4.197
15809W        W75345  17.739   3.791   2.675
15810W        W75346   6.196  19.107   4.833
15811W        W75347  10.165  42.983   2.341
15812W        W75348   1.426  25.971  12.876
15813W        W75349  14.676  14.802  12.974
15814W        W75350  28.107   2.328   4.289
15815W        W75351  44.325  22.227   3.740
15816W        W75352  31.613   9.180   0.954
15817W        W75353   3.409  37.871  14.397
15818W        W75354  39.993  10.368  14.454
15819W        W75355  21.024  43.960  11.552
15820W        W75356  12.124  14.180   4.304
15821W        W75357  19.762  26.139  11.987
15822W        W75358  40.878   7.880  11.882
15823W        W75359   1.430  27.031  14.364
15824W        W75360  18.781  42.285   3.690
15825W        W75361  36.064  44.357   2.231
15826W        W75362  19.618  32.951   2.197
15827W        W75363   5.335  38.557  13.498
15828W        W75364  14.247   0.287  12.866
15829W        W75365  19.207  20.636   2.821
15830W        W75366  25.712  33.929  14.944
15831W        W75367   7.340   0.803   4.309
15832W        W75368  11.235  40.885  11.095
15833W        W75369  28.948  21.080  10.612
15834W        W75370  22.702  19.699   2.413
15835W        W75371  26.016  30.520   0.255
15836W        W75372  33.928  29.095  14.339
15837W        W75373  44.885   3.922   0.772
15838W        W75374  43.813  38.521  10.462
15839W        W75375  30.568  28.573  12.093
15840W        W75376  20.652  22.529   1.290
15841W        W75377  34.949   6.798   2.192
15842W        W75378  29.048  35.598   2.294
15843W        W75379  19.111  43.013   2.717
15844W        W75380   6.744  16.240   4.707
15845W        W75381   9.876  37.562  10.486
15846W        W75382  14.264  25.174   2.319
15847W        W75383  17.658  35.977   4.685
15848W        W75384  39.047  29.969  11.968
15849W        W75385  43.921  38.851   0.390
15850W        W75386  28.516   7.261   2.274
15851W        W75387   1.466  30.586  12.450
15852W        W75388  16.162  35.528   4.825
15853W        W75389  16.729  28.575   3.158
15854W        W75390  28.051   0.853  13.476
15855W        W75391   1.810  36.565  14.333
15856W        W75392  10.696  35.531  14.767
15857W        W75393  15.719  27.167   3.293
15858W        W75394   3.420   8.698  10.962
15859W        W75395   5.892   3.797   1.264
15860W        W75396  43.014   4.791  11.881
15861W        W75397  37.468  31.127  13.894
15862W        W75398   3.402   7.190   2.810
15863W        W75399  19.578  22.066   2.823
15864W        W75400  28.643   3.759  12.889
15865W        W75401  28.007  13.696  13.945
15866W        W75402  17.061  29.079  12.928
15867W        W75403   0.387  23.020   0.273
15868W        W75404  18.151  41.887   2.249
15869W        W75405  16.791  26.119   1.373
15870W        W75406   7.411  17.254   0.730
15871W        W75407  14.284  22.103  10.542
15872W        W75408   9.792  37.525   3.647
15873W        W75409  27.617  32.132  11.041
15874W        W75410  41.323  31.934   4.648
15875W        W75411   6.917  23.074  10.960
15876W        W75412   0.813  39.831   2.270
15877W        W75413  14.215  18.668   4.722
15878W        W75414  32.109  12.757  14.831
15879W        W75415  34.047  38.926  14.833
15880W        W75416  40.549  38.926  13.815
15881W        W75417  31.082  37.950   4.132
15882W        W75418  34.961   2.282  12.448
15883W        W75419  42.448  21.747   4.631
15884W        W75420  13.829  29.129  12.832
15885W        W75421   7.776  33.929  12.850
15886W        W75422  30.059  31.107   3.361
15887W        W75423  15.301  13.113  14.380
15888W        W75424  29.114  23.646   2.747
15889W        W75425  21.518  41.320   4.119
15890W        W75426  24.037  32.906  12.346
15891W        W75427  32.024  14.710   0.443
15892W        W75428  19.671   4.740   0.727
15893W        W75429  30.944   9.688   0.406
15894W        W75430  29.495  16.308   0.383
15895W        W75431   8.289  20.671   4.174
15896W        W75432  32.576   7.718   4.330
15897W        W75433  15.805   3.898  12.912
15898W        W75434  41.482  32.912  14.964
15899W        W75435  40.802  24.718   4.667
15900W        W75436   7.727   1.817   4.354
15901W        W75437   5.230   6.364   1.313
15902W        W75438  27.157   3.417   3.692
15903W        W75439  31.606  41.397  13.046
15904W        W75440   1.381  20.132   2.269
15905W        W75441  30.617  39.534   2.339
15906W        W75442   0.852  17.600   1.879
15907W        W75443  26.032  11.368  10.587
15908W        W75444  15.726   3.300   4.825
15909W        W75445  42.489  38.965  12.454
15910W        W75446  25.546   9.689   2.348
15911W        W75447  20.180  28.442   3.721
15912W        W75448  25.556   0.900   0.247
15913W        W75449   4.218  43.861  13.053
15914W        W75450  37.520  36.841   0.966
15915W        W75451  23.125  11.194  12.838
15916W        W75452  30.622   0.789   3.856
15917W        W75453  40.801  29.665  14.889
15918W        W75454   4.760  40.799  12.452
15919W        W75455  39.421  28.070  10.109
15920W        W75456  19.750  19.073   2.876
15921W        W75457  18.601  22.739  14.293
15922W        W75458  29.027  22.180   3.291
15923W        W75459  10.210  14.196  14.828
15924W        W75460   3.903   1.333   4.163
15925W        W75461  11.692  28.574   2.757
15926W        W75462  30.528   3.241  14.764
15927W        W75463  19.066  16.585   1.305
15928W        W75464  11.357  42.951   2.314
15929W        W75465  27.128  33.601  11.105
15930W        W75466  22.589  33.390   3.635
15931W        W75467   4.785  36.864   0.393
15932W        W75468  42.917  10.250  12.506
15933W        W75469  15.688  23.022  13.011
15934W        W75470  16.095  23.227   2.703
15935W        W75471   6.783  33.590  14.921
15936W        W75472  36.582  10.857   0.874
15937W        W75473  36.922  22.098  10.934
15938W        W75474  33.972  17.755   1.350
15939W        W75475  40.305  24.109   1.308
15940W        W75476  33.431  22.617  13.319
15941W        W75477  10.188   3.224   3.719
15942W        W75478  34.952  32.515   2.867
15943W        W75479  23.060  31.064   2.311
15944W        W75480   0.908   1.362  13.990
15945W        W75481   5.830  35.511   1.725
15946W        W75482  43.460  21.074  13.446
15947W        W75483  26.476   5.926   5.797
15948W        W75484   6.345  26.102  11.893
15949W        W75485  43.510  10.344   1.371
15950W        W75486  43.452  16.681  12.962
15951W        W75487  36.515  24.714   1.752
15952W        W75488  12.700  16.224  14.765
15953W        W75489   4.851  20.088  11.996
15954W        W75490  22.526   5.909   1.232
15955W        W75491  44.760  30.640  14.887
15956W        W75492  31.917  32.038  14.956
15957W        W75493  13.723  32.401  10.530
15958W        W75494  23.606  23.028   1.419
15959W        W75495  21.072  13.204  14.984
15960W        W75496  25.494  29.541  11.975
15961W        W75497   4.205  19.230  12.465
15962W        W75498  22.685  19.066   3.694
15963W        W75499   7.820  10.181   2.806
15964W        W75500  22.522   3.260  11.874
15965W        W75501  34.949  22.652  13.524
15966W        W75502  44.449   7.172   4.351
15967W        W75503  25.585  20.038   5.166
15968W        W75504  26.559  21.752   5.160
15969W        W75505  43.923  37.335   4.667
15970W        W75506  34.891  31.550  11.916
15971W        W75507  40.386  20.651   3.344
15972W        W75508  40.509  25.151  11.527
15973W        W75509   2.449  23.723   4.642
15974W        W75510  42.351  26.668  13.794
15975W        W75511  33.946  23.075  13.977
15976W        W75512  22.172  29.123   0.960
15977W        W75513  23.534  22.202  13.875
15978W        W75514  35.548   0.753  14.792
15979W        W75515  20.664  18.088  14.995
15980W        W75516  13.344  43.810   2.684
15981W        W75517  32.514  35.397  13.337
15982W        W75518  33.935  10.224   2.857
15983W        W75519   9.740   8.265   2.326
15984W        W75520  30.018  10.689   3.178
15985W        W75521  18.674  10.220  14.921
15986W        W75522  27.980  29.580   4.310
15987W        W75523  21.613  20.592   5.659
15988W        W75524  10.836  29.440   5.614
15989W        W75525  14.675  37.402   5.311
15990W        W75526  22.698  42.974   5.288
15991W        W75527  15.184  31.084   4.233
15992W        W75528  11.279   1.261   0.309
15993W        W75529  27.988  14.254  10.927
15994W        W75530   9.869  36.495  13.040
15995W        W75531  31.072  42.778  12.029
15996W        W75532  16.115   5.797   0.806
15997W        W75533   5.380  21.539  11.126
15998W        W75534  39.553  21.554  12.972
15999W        W75535  38.960  21.719  11.454
16000W        W75536  31.049   9.369  10.550
16001W        W75537  31.931  23.608  13.005
16002W        W75538  39.465   0.441   0.753
16003W        W75539   8.695  35.927   4.304
16004W        W75540  39.037  15.703  11.002
16005W        W75541  38.424  31.055  10.979
16006W        W75542  40.459   7.256   0.385
16007W        W75543  41.951  40.430   0.374
16008W        W75544  32.001  21.227   2.853
16009W        W75545   2.411   8.362   1.263
16010W        W75546  31.498  30.424   0.912
16011W        W75547  24.574  15.318  11.971
16012W        W75548  39.986  36.546  14.387
16013W        W75549  28.605  33.380  13.816
16014W        W75550  22.996  13.144   4.247
16015W        W75551  17.071  34.403   3.327
16016W        W75552  27.976  44.353   4.126
16017W        W75553  24.682  43.430  12.434
16018W        W75554  24.706  25.036  12.926
16019W        W75555  14.125   2.888  14.911
16020W        W75556  18.723  21.538   1.878
16021W        W75557   2.441  40.374   1.381
16022W        W75558  24.048   9.762   2.778
16023W        W75559   9.325   2.300   3.675
16024W        W75560  27.467  39.008  10.433
16025W        W75561  13.177  16.634  13.891
16026W        W75562  18.205  35.900   1.831
16027W        W75563  31.897  32.544  13.002
16028W        W75564  24.622  31.549   0.886
16029W        W75565  22.606  24.049  14.032
16030W        W75566  33.581  31.908   5.118
16031W        W75567  24.010  15.626  11.100
16032W        W75568   6.307  29.606   2.326
16033W        W75569  23.002   9.182  14.766
16034W        W75570   2.940  33.455   2.797
16035W        W75571  39.468   2.812   2.351
16036W        W75572   3.455  27.188   2.687
16037W        W75573  27.480   9.313   0.809
16038W        W75574  35.374  22.171  13.004
16039W        W75575  41.926  31.576  14.293
16040W        W75576  14.744   9.155  10.533
16041W        W75577  44.821  13.753   0.360
16042W        W75578  16.229  34.432   4.293
16043W        W75579   9.646  32.509   3.191
16044W        W75580  12.805   9.830   0.466
16045W        W75581  25.498  40.925  13.955
16046W        W75582  27.980  19.200  11.015
16047W        W75583  21.551   6.225   2.672
16048W        W75584  31.957  18.555   2.294
16049W        W75585  24.195  18.570  11.905
16050W        W75586  18.078  34.452   1.291
16051W        W75587   4.316  21.139   3.708
16052W        W75588  19.080  35.372  13.968
16053W        W75589  20.143  27.472  12.938
16054W        W75590  19.072   4.725   3.671
16055W        W75591   1.826   5.837   2.195
16056W        W75592   5.831  44.932   4.631
16057W        W75593  20.649   6.749   2.766
16058W        W75594   9.298  19.043  14.876
16059W        W75595  25.490  42.879   0.892
16060W        W75596   7.226  16.691  14.996
16061W        W75597  26.064   7.791   3.870
16062W        W75598  21.206   2.812   3.736
16063W        W75599  33.889  31.973   2.312
16064W        W75600  35.085  40.955  12.055
16065W        W75601  44.444  20.727  13.062
16066W        W75602  28.065  10.761   3.280
16067W        W75603  24.587  12.723  13.952
16068W        W75604  24.068  14.124  14.453
16069W        W75605  37.435   2.733  12.003
16070W        W75606   9.358  44.757   1.276
16071W        W75607  30.584  24.030   0.254
16072W        W75608  12.218  21.148  14.940
16073W        W75609  13.147  16.692  13.312
16074W        W75610   4.416  21.695   4.729
16075W        W75611  34.962  25.972  11.120
16076W        W75612  14.264  33.605  11.579
16077W        W75613  38.933  30.129  12.363
16078W        W75614  33.959  19.714   1.740
16079W        W75615  29.926  10.645   2.279
16080W        W75616  31.541   1.259  12.411
16081W        W75617   6.188  36.411  13.823
16082W        W75618  29.017   6.314  10.429
16083W        W75619  34.872  40.391  11.446
16084W        W75620  23.031   6.403  14.357
16085W        W75621  37.004  10.843  10.524
16086W        W75622  12.657  17.692  10.467
16087W        W75623  14.711  16.075   0.847
16088W        W75624  20.094  15.761  12.345
16089W        W75625   9.762   6.400   2.781
16090W        W75626  35.479  17.633  13.045
16091W        W75627   9.211   3.223   2.222
16092W        W75628  38.963  10.864   3.685
16093W        W75629  28.488  36.989  13.926
16094W        W75630   0.804  35.891   4.333
16095W        W75631  34.421   6.371   4.293
16096W        W75632  19.677  35.903  11.588
16097W        W75633   0.781  32.003   9.962
16098W        W75634  36.399  29.060   0.315
16099W        W75635  25.645   3.233   4.236
16100W        W75636  18.112  16.771  12.374
16101W        W75637  28.468  38.923   3.290
16102W        W75638  44.394  30.541   2.310
16103W        W75639  14.150  39.020  11.975
16104W        W75640  23.078  32.964   0.290
16105W        W75641  42.014  21.112  14.408
16106W        W75642  31.446  14.291   4.225
16107W        W75643  35.409  39.946   3.353
16108W        W75644   1.825   9.188  14.431
16109W        W75645   2.916  31.106  14.355
16110W        W75646  12.194  31.976  13.868
16111W        W75647  23.691  11.698   3.315
16112W        W75648  30.162  12.743   0.792
16113W        W75649  18.073  25.644   2.665
16114W        W75650  17.251   9.380   3.259
16115W        W75651  37.070  44.986  10.054
16116W        W75652  26.699  40.869   1.827
16117W        W75653  35.529  28.182   1.315
16118W        W75654  22.582   0.326  11.857
16119W        W75655  13.764  21.072  11.395
16120W        W75656  28.540  40.511   4.297
16121W        W75657  35.444  23.212  14.936
16122W        W75658  39.513  24.723  11.047
16123W        W75659  32.395  20.731   1.893
16124W        W75660  39.559  34.053  12.848
16125W        W75661  42.967   6.721   4.601
16126W        W75662  15.736  12.771  11.559
16127W        W75663   2.258  29.644   2.303
16128W        W75664   5.903  31.569   0.362
16129W        W75665  38.922   0.323   0.454
16130W        W75666  24.102   2.763   4.827
16131W        W75667  23.496   8.351  11.943
16132W        W75668   0.756   8.198   0.758
16133W        W75669  21.232  34.400   0.253
16134W        W75670  15.302  19.685   2.902
16135W        W75671   6.871  26.137  14.885
16136W        W75672   5.374  12.773  14.422
16137W        W75673  26.048  32.585   3.300
16138W        W75674  29.088  12.227  10.469
16139W        W75675  11.680  16.787   4.688
16140W        W75676  18.069  20.175  12.460
16141W        W75677  26.626   9.223  12.420
16142W        W75678  26.617  17.218   0.475
16143W        W75679   9.360  20.744   0.337
16144W        W75680  16.297  24.612   1.776
16145W        W75681   0.450   2.265   0.332
16146W        W75682   7.280  35.411  11.440
16147W        W75683  33.111  13.834  14.892
16148W        W75684  44.932  16.619   1.767
16149W        W75685  41.463  30.998  13.032
16150W        W75686  26.191   7.251   3.710
16151W        W75687  29.621  24.227   1.857
16152W        W75688  23.021   5.293  14.447
16153W        W75689  13.233   6.857  12.038
16154W        W75690   2.312   0.468  12.979
16155W        W75691  22.594   7.389  13.464
16156W        W75692  28.060  14.793   4.802
16157W        W75693  17.163  41.388   9.979
16158W        W75694   4.814  18.107   3.670
16159W        W75695  29.578  15.111   0.772
16160W        W75696  41.800  20.766  13.534
16161W        W75697  11.131  13.332   1.727
16162W        W75698  22.033  44.505  14.900
16163W        W75699  39.343  33.407  14.456
16164W        W75700  10.192  17.717   1.242
16165W        W75701  26.494   4.253   3.811
16166W        W75702  28.604  11.318  12.055
16167W        W75703  19.121   2.280  13.804
16168W        W75704   6.717  14.626   0.424
16169W        W75705  36.073   4.805  12.515
16170W        W75706  44.866  29.135   2.246
16171W        W75707  15.193  30.486   3.769
16172W        W75708  20.130   5.793   1.329
16173W        W75709  16.791  18.611   0.324
16174W        W75710  20.687  41.404   0.865
16175W        W75711   9.651   0.383   0.452
16176W        W75712   3.781  17.204   1.307
16177W        W75713   5.269  17.727   0.812
16178W        W75714  18.764   8.690  12.391
16179W        W75715  38.885  12.728   5.097
16180W        W75716  19.199  12.736  11.926
16181W        W75717  40.444  16.737   4.177
16182W        W75718  31.980  43.971   3.327
16183W        W75719  33.000  14.097  12.475
16184W        W75720  27.564  37.376   9.921
16185W        W75721  35.958   5.708   4.720
16186W        W75722  37.885   7.322   1.339
16187W        W75723  16.775   0.354   0.262
16188W        W75724  27.944  35.995   2.411
16189W        W75725  12.822   9.235   4.144
16190W        W75726  15.739  44.819  11.080
16191W        W75727  33.053   2.760   2.756
16192W        W75728   5.242  34.990  11.605
16193W        W75729  41.002  44.439   4.688
16194W        W75730  32.544  42.307  10.991
16195W        W75731  14.731  10.292   1.346
16196W        W75732  30.574   0.314  14.797
16197W        W75733  18.746  14.270   4.703
16198W        W75734  33.602  26.564   1.222
16199W        W75735  31.449   7.878   3.746
16200W        W75736  25.552  22.043   1.309
16201W        W75737  21.169  10.209  13.487
16202W        W75738   5.204  42.018   1.713
16203W        W75739  18.718   5.196   1.786
16204W        W75740  29.098  24.682   2.693
16205W        W75741  39.469  14.775  13.968
16206W        W75742  44.286   6.238  13.347
16207W        W75743  14.656  14.177  13.384
16208W        W75744  31.130   6.766   0.373
16209W        W75745  37.887  25.112  12.837
16210W        W75746  10.232   7.880   5.638
16211W        W75747  16.178  38.980  12.923
16212W        W75748  33.898   0.836   4.645
16213W        W75749  18.093  32.897  13.023
16214W        W75750  38.496  24.619   4.610
16215W        W75751  43.886  17.098   0.440
16216W        W75752   7.749  39.865  13.913
16217W        W75753  18.083  24.644   1.719
16218W        W75754  42.779  40.534   3.712
16219W        W75755  24.711  39.984   1.421
16220W        W75756  41.460  30.594   3.196
16221W        W75757  24.525  19.539  14.419
16222W        W75758  29.090  18.209  12.827
16223W        W75759  17.585   7.693  11.980
16224W        W75760  36.849  28.581   0.936
16225W        W75761  17.171  16.167   2.368
16226W        W75762  18.595  15.582   4.286
16227W        W75763   0.947  40.411  13.020
16228W        W75764  16.308  34.023  14.990
16229W        W75765  20.601  44.942   0.743
16230W        W75766   6.389  29.158  11.025
16231W        W75767  23.088  27.485  11.900
16232W        W75768  16.216  27.587  13.907
16233W        W75769  33.093  40.360   0.761
16234W        W75770  26.974  24.660   1.424
16235W        W75771  36.906  43.304   4.744
16236W        W75772  32.606   0.792   4.326
16237W        W75773  15.777  11.279  12.847
16238W        W75774   8.687   3.845   4.688
16239W        W75775   3.284  22.680   4.746
16240W        W75776  41.961  38.491  11.023
16241W        W75777  40.484  44.832  14.991
16242W        W75778  44.990  36.012   4.750
16243W        W75779  29.947  15.813  13.798
16244W        W75780   8.385   6.232   1.281
16245W        W75781  37.420  28.435  14.934
16246W        W75782   4.338  19.110  13.024
16247W        W75783  31.074  18.768  10.635
16248W        W75784  41.798   1.951   1.828
16249W        W75785   1.789  24.137   0.470
16250W        W75786  14.669  39.865   3.292
16251W        W75787  12.732  10.851   4.683
16252W        W75788  29.003  40.917  12.387
16253W        W75789  29.442  18.579  13.799
16254W        W75790  26.545  17.668   3.148
16255W        W75791  16.636  32.013   2.845
16256W        W75792  41.299  29.049   1.346
16257W        W75793  35.361  12.696  10.561
16258W        W75794   8.669   9.171  12.063
16259W        W75795   4.861  18.138   1.775
16260W        W75796  44.399  44.775   0.266
16261W        W75797  16.112  42.935   3.826
16262W        W75798  34.065  28.967   0.340
16263W        W75799  24.522   0.302   3.794
16264W        W75800  37.505  29.522   0.461
16265W        W75801  35.427  12.242   4.123
16266W        W75802  41.345  23.672   4.309
16267W        W75803  16.190  38.571   2.298
16268W        W75804   1.274  36.394  13.542
16269W        W75805  35.451  23.673   4.241
16270W        W75806   0.332  38.471   0.946
16271W        W75807  36.993   6.424   2.218
16272W        W75808  28.514  32.072   1.384
16273W        W75809  22.210  43.335  12.004
16274W        W75810  17.562  21.042   4.699
16275W        W75811  25.635  35.552   4.666
16276W        W75812  40.872  28.609  12.081
16277W        W75813  27.172  21.631   1.216
16278W        W75814   6.202  17.298  14.918
16279W        W75815   4.713   7.881  10.931
16280W        W75816  40.372   3.432   4.737
16281W        W75817  19.682  19.276   3.684
16282W        W75818   7.856  42.411  12.916
16283W        W75819   9.307  42.899  14.967
16284W        W75820  38.902  13.603   1.351
16285W        W75821   9.789  17.598  11.030
16286W        W75822  14.690  24.508   3.725
16287W        W75823  15.196  36.912   3.784
16288W        W75824  15.089  25.605   0.965
16289W        W75825  43.886   4.411  11.929
16290W        W75826   0.472  42.434   2.191
16291W        W75827  12.230  15.119   4.703
16292W        W75828   0.786   5.336   3.860
16293W        W75829  23.238  35.873  14.830
16294W        W75830   3.387  25.203  11.995
16295W        W75831  40.900   8.713   1.765
16296W        W75832  24.006   3.725  13.862
16297W        W75833  15.686  13.682  11.563
16298W        W75834  38.978  36.909  10.472
16299W        W75835  44.931  21.626   1.444
16300W        W75836  33.544   6.240  10.968
16301W        W75837  18.659  15.620   5.240
16302W        W75838  40.957   0.436   1.443
16303W        W75839  42.404  21.656  11.965
16304W        W75840   0.967  43.961   4.775
16305W        W75841  42.416  27.097   3.230
16306W        W75842   4.735  33.509   4.332
16307W        W75843   8.889  12.216  12.939
16308W        W75844  30.565   6.322  14.401
16309W        W75845  24.534  26.602   0.849
16310W        W75846  34.423   2.850  12.367
16311W        W75847  35.045   3.449   0.783
16312W        W75848  11.139  30.625   2.761
16313W        W75849  20.099  29.543   1.422
16314W        W75850  11.678  13.830   2.404
16315W        W75851  27.054  28.175  14.827
16316W        W75852  43.815  44.962  12.006
16317W        W75853  16.104  43.312   3.371
16318W        W75854  39.545   3.744   4.140
16319W        W75855  22.127  34.977   2.246
16320W        W75856  22.564   1.795  12.005
16321W        W75857   6.715  10.203  10.101
16322W        W75858  12.673  29.963   1.345
16323W        W75859  35.025  32.455  12.027
16324W        W75860  19.279  30.511   4.764
16325W        W75861  10.138  12.223   3.296
16326W        W75862  32.902  15.761   1.772
16327W        W75863   5.406  26.030  11.949
16328W        W75864  43.454   4.403  12.001
16329W        W75865  14.777  20.719  13.418
16330W        W75866   3.852  21.215  12.011
16331W        W75867  31.472  21.701   3.858
16332W        W75868  41.953  29.486   2.874
16333W        W75869  44.917  19.708   4.766
16334W        W75870  22.628  35.938  11.885
16335W        W75871  43.504  37.903  13.380
16336W        W75872  21.609   2.740   3.242
16337W        W75873  37.896  43.966   2.417
16338W        W75874  35.444   9.784   0.312
16339W        W75875  37.354   6.714  14.974
16340W        W75876  12.628   5.932   1.416
16341W        W75877  29.150  10.278  12.340
16342W        W75878  39.056  39.525   3.189
16343W        W75879  37.925  24.140  12.859
16344W        W75880  21.519  11.775   1.399
16345W        W75881  43.504  17.215  14.784
16346W        W75882   7.851  22.590  11.425
16347W        W75883  33.503  33.525  13.333
16348W        W75884  13.142   1.348   2.815
16349W        W75885  16.159  39.056   4.810
16350W        W75886  30.580   2.319   2.236
16351W        W75887  35.477   3.427   0.875
16352W        W75888  22.544  11.785   2.805
16353W        W75889  26.620   3.936  11.404
16354W        W75890  17.092   4.914   4.705
16355W        W75891  27.157  28.671   2.854
16356W        W75892  34.396  21.164  14.276
16357W        W75893  25.150  43.018  12.447
16358W        W75894  27.023   9.781  11.051
16359W        W75895   4.880  14.771  13.859
16360W        W75896   0.459  13.339  13.061
16361W        W75897  35.859  37.017  10.539
16362W        W75898  18.731  35.427   3.182
16363W        W75899  44.364  17.118  13.514
16364W        W75900  20.697  13.836   1.291
16365W        W75901  17.185  29.920   1.796
16366W        W75902  21.238   2.963   0.293
16367W        W75903  23.230  37.581   4.747
16368W        W75904  29.434   2.881   3.193
16369W        W75905  15.694  31.043  12.474
16370W        W75906   7.345   2.403   3.765
16371W        W75907   2.404   2.922  11.887
16372W        W75908  17.664  37.997   1.916
16373W        W75909  14.254   5.356   0.278
16374W        W75910  34.613  34.554  12.505
16375W        W75911   4.886  31.506   3.186
16376W        W75912  27.631  27.981  10.561
16377W        W75913   5.238  28.041   0.771
16378W        W75914  36.523  18.656  11.512
16379W        W75915   0.256   8.771   3.863
16380W        W75916  32.901  12.219  14.393
16381W        W75917  22.073  39.326  12.931
16382W        W75918  19.271  15.308   0.902
16383W        W75919   3.746   8.266   4.297
16384W        W75920  21.743  41.997   2.785
16385W        W75921  19.735  14.185  14.409
16386W        W75922  24.012  16.613  12.467
16387W        W75923  41.970   8.860   1.250
16388W        W75924  38.907  11.349   4.156
16389W        W75925  37.422   9.720  12.992
16390W        W75926  11.655  34.112  13.313
16391W        W75927  15.701  36.529   2.310
16392W        W75928  38.043  10.797   0.935
16393W        W75929  28.125  29.022  10.107
16394W        W75930  12.136  43.927  13.954
16395W        W75931  39.872   9.253   1.929
16396W        W75932  32.520  14.208  12.977
16397W        W75933  37.962   6.278  12.452
16398W        W75934   6.714  37.580  10.995
16399W        W75935   5.766  39.559  12.003
16400W        W75936  42.509  24.521  12.072
16401W        W75937   8.163  10.632  11.957
16402W        W75938   8.833  22.012  12.498
16403W        W75939  32.972   6.279   1.793
16404W        W75940  14.592  17.229   2.850
16405W        W75941  17.724  24.156   1.449
16406W        W75942   8.754  39.974   4.742
16407W        W75943   6.269  34.530   1.388
16408W        W75944  15.242  26.197   1.415
16409W        W75945  37.430  18.110   0.794
16410W        W75946  14.642  11.811   4.190
16411W        W75947  22.616  13.298   3.660
16412W        W75948  43.274  14.141  10.903
16413W        W75949  13.197  27.131   3.660
16414W        W75950   4.223  23.158  11.893
16415W        W75951  38.386  11.330  14.282
16416W        W75952  12.238  24.193   1.402
16417W        W75953  29.071  35.589   3.653
16418W        W75954  42.316   7.349  14.427
16419W        W75955  27.047  30.626  12.995
16420W        W75956  38.330  32.971  14.788
16421W        W75957  35.421   1.244  14.794
16422W        W75958  33.625   8.734   1.340
16423W        W75959  30.560   2.805   1.771
16424W        W75960   7.192  19.674  11.560
16425W        W75961  30.943  39.868  12.933
16426W        W75962  11.837   6.293   5.783
16427W        W75963  32.000  19.735  11.005
16428W        W75964  41.504   1.747   2.871
16429W        W75965  38.534  38.838  10.984
16430W        W75966   2.729  14.769   2.295
16431W        W75967  39.430  36.900  13.527
16432W        W75968   3.864  41.521  14.516
16433W        W75969  37.958  18.165  10.453
16434W        W75970  36.881  17.091  14.386
16435W        W75971  36.054  15.762  13.897
16436W        W75972   2.359   9.770  14.950
16437W        W75973  17.206   7.727  13.411
16438W        W75974  15.196  21.729  14.846
16439W        W75975  29.028  10.735   1.219
16440W        W75976  43.012  44.505  10.548
16441W        W75977  41.997  10.222  11.972
16442W        W75978  16.774  22.174  14.388
16443W        W75979  22.606   5.931   3.307
16444W        W75980   0.404  36.070  10.453
16445W        W75981  26.571  14.626   4.275
16446W        W75982  18.650  25.025  12.084
16447W        W75983   1.790  39.443  14.764
16448W        W75984  29.970  35.595  10.595
16449W        W75985  18.233  44.967  14.970
16450W        W75986  43.810  44.864   4.294
16451W        W75987  42.033  31.937   3.276
16452W        W75988  19.623  39.403   0.391
16453W        W75989  29.066   8.395  14.864
16454W        W75990  24.524  16.770  10.439
16455W        W75991   9.830  31.078  14.385
16456W        W75992  22.620  44.761  10.928
16457W        W75993  30.056  35.433   3.279
16458W        W75994  10.286  39.957   0.876
16459W        W75995  37.425  18.589  14.807
16460W        W75996  28.141  31.050  14.002
16461W        W75997  36.580  15.225  12.865
16462W        W75998  10.668   8.219  13.442
16463W        W75999   9.158  23.170  11.874
16464W        W76000  42.842  26.101  10.898
16465W        W76001  26.616  14.148  14.766
16466W        W76002  18.181  37.881   0.268
16467W        W76003  29.500  29.518   1.903
16468W        W76004  20.110   6.389  13.493
16469W        W76005  23.599   1.921  11.407
16470W        W76006  36.389  24.061  13.987
16471W        W76007   9.260  39.494   4.307
16472W        W76008  14.638  41.332   0.895
16473W        W76009   9.351  21.060   1.394
16474W        W76010  10.381   1.252   4.784
16475W        W76011  35.377   4.751   3.263
16476W        W76012   6.696   5.340  10.971
16477W        W76013  37.386  22.246   2.354
16478W        W76014   1.278  35.069  10.405
16479W        W76015   0.829  18.637   1.747
16480W        W76016  42.519  40.522   3.194
16481W        W76017  25.149  14.262   0.368
16482W        W76018   8.761  40.309  14.393
16483W        W76019   2.940  34.455   4.326
16484W        W76020  31.487  27.533   0.787
16485W        W76021  11.358   2.467   1.739
16486W        W76022  42.478   5.707  12.043
16487W        W76023  35.879   6.225  13.456
16488W        W76024  31.582  34.960  14.800
16489W        W76025  12.167  37.836  10.467
16490W        W76026  12.665   4.301  14.931
16491W        W76027  20.729  37.890   3.699
16492W        W76028  14.150   6.725  13.497
16493W        W76029  41.894  27.594  13.341
16494W        W76030  41.850  29.100  11.468
16495W        W76031  26.533  19.632   2.686
16496W        W76032  25.086  44.299   2.179
16497W        W76033  40.935   8.883   0.860
16498W        W76034   6.366  10.334  12.480
16499W        W76035   6.221  37.910   2.850
16500W        W76036  20.620  28.517   4.818
16501W        W76037   4.842  32.074   1.315
16502W        W76038  12.819  20.071   4.347
16503W        W76039  19.736  10.655  14.384
16504W        W76040   4.437   8.732   1.884
16505W        W76041  11.667   5.732  10.119
16506W        W76042  36.083   3.898   1.779
16507W        W76043  13.305  34.015   0.327
16508W        W76044  16.769   6.350   3.675
16509W        W76045   4.902  41.457   2.278
16510W        W76046   3.921  12.660  13.407
16511W        W76047  15.091  18.072  11.957
16512W        W76048  11.737  16.233  14.417
16513W        W76049  31.546   8.305   0.349
16514W        W76050   1.922  30.467   1.751
16515W        W76051  16.197   1.317  10.982
16516W        W76052  43.273  18.113  13.349
16517W        W76053  39.931  27.171  11.556
16518W        W76054  36.565  28.017   5.203
16519W        W76055  37.492  20.096   2.867
16520W        W76056  10.262   3.412  11.917
16521W        W76057   8.264  15.187   2.383
16522W        W76058  44.760  12.839  13.905
16523W        W76059  42.842  22.007   2.222
16524W        W76060  23.679  44.348   4.294
16525W        W76061  40.352  35.371  12.401
16526W        W76062  36.939   1.371  14.909
16527W        W76063   3.879   5.274  14.016
16528W        W76064  14.299  10.305  11.881
16529W        W76065  38.939  24.624  14.963
16530W        W76066  19.599  12.734   4.134
16531W        W76067  20.637   1.366  11.579
16532W        W76068  25.072  12.210   2.878
16533W        W76069  25.594  27.663  12.499
16534W        W76070  36.064  10.697  14.014
16535W        W76071  22.675   0.750   2.307
16536W        W76072   9.330   4.870  10.066
16537W        W76073  28.174  18.280  10.487
16538W        W76074  44.897  21.212  10.933
16539W        W76075  21.149  18.781   5.655
16540W        W76076  12.701  22.602   3.192
16541W        W76077  10.673  36.351   1.311
16542W        W76078  20.744  13.750  14.910
16543W        W76079  19.742  21.052  12.060
16544W        W76080  14.123  15.635  14.988
16545W        W76081  44.412  43.461  11.080
16546W        W76082  33.582  43.299   2.697
16547W        W76083  21.704  44.893  11.097
16548W        W76084  23.539   0.463  11.023
16549W        W76085   4.410   9.775   4.113
16550W        W76086  11.237  16.756   0.727
16551W        W76087   0.742   3.772  11.090
16552W        W76088  32.619  27.629   4.614
16553W        W76089  25.539  40.452  10.506
16554W        W76090  12.235   7.365   1.373
16555W        W76091  10.746  21.217  11.392
16556W        W76092  10.157  34.426   1.883
16557W        W76093  42.821  42.806  11.966
16558W        W76094  32.620  35.381   4.231
16559W        W76095  27.605   0.953   3.735
16560W        W76096  40.475  10.379  14.861
16561W        W76097  32.051  21.248  11.586
16562W        W76098  18.638  42.893   2.292
16563W        W76099   0.250  26.181  12.036
16564W        W76100  36.443  43.292  11.567
16565W        W76101  30.541  19.599   3.789
16566W        W76102  28.588  26.054  10.487
16567W        W76103  11.631   0.478   4.286
16568W        W76104   1.951   3.403   2.355
16569W        W76105  28.514   4.899  11.891
16570W        W76106  25.206   3.847   1.418
16571W        W76107  36.497  22.109  14.356
16572W        W76108  21.111  35.531  11.531
16573W        W76109  23.597  29.990   1.930
16574W        W76110  13.646  17.593  13.010
16575W        W76111  28.487   2.732  13.313
16576W        W76112  12.248  12.342  12.012
16577W        W76113   1.257  13.815  11.917
16578W        W76114  26.573  42.479  13.434
16579W        W76115  38.019  14.292   5.198
16580W        W76116   0.862  38.973  14.923
16581W        W76117  20.089  32.097   1.885
16582W        W76118  37.042  35.077  14.360
16583W        W76119  12.691  31.634  11.453
16584W        W76120  41.340  17.214   2.355
16585W        W76121  35.102  10.366   1.399
16586W        W76122  17.738  24.059  10.915
16587W        W76123  42.519  16.608   2.725
16588W        W76124  29.540  18.758   4.764
16589W        W76125  25.502  13.719  14.004
16590W        W76126  16.312   8.342   3.740
16591W        W76127   6.717   7.179  12.062
16592W        W76128  10.376  35.083   3.779
16593W        W76129  13.831  41.346   3.178
16594W        W76130  36.989  43.463   0.817
16595W        W76131  20.038  40.329   0.728
16596W        W76132  13.807  26.117  12.443
16597W        W76133  22.617   1.461   2.198
16598W        W76134   7.292  21.218  13.322
16599W        W76135  34.385  29.042  11.570
16600W        W76136  35.601  15.697   2.704
16601W        W76137   4.322  35.360  13.886
16602W        W76138  32.052  39.940  10.030
16603W        W76139  19.572  11.288  10.615
16604W        W76140  26.104  13.149   0.309
16605W        W76141  16.645  10.252   1.326
16606W        W76142  13.289  43.810   4.320
16607W        W76143  10.331  37.344  11.612
16608W        W76144  41.534  18.583  11.559
16609W        W76145  31.534  28.032  14.948
16610W        W76146  12.644  13.795   4.181
16611W        W76147   8.200   1.426   0.448
16612W        W76148  33.589  27.162   2.730
16613W        W76149   3.847   3.404  10.431
16614W        W76150   6.185  27.499  11.478
16615W        W76151  41.843  18.190   3.713
16616W        W76152  33.902  20.143   0.305
16617W        W76153  43.769  22.034  10.921
16618W        W76154  44.875  17.142  14.954
16619W        W76155  12.149   6.761  14.007
16620W        W76156  17.604  24.665  12.504
16621W        W76157  29.036  22.635  10.570
16622W        W76158  35.399  13.752  13.036
16623W        W76159  36.092   9.656  10.499
16624W        W76160   0.786  10.192  13.887
16625W        W76161  12.762  32.968  13.455
16626W        W76162  31.913  14.165  13.963
16627W        W76163  15.629  37.931  11.874
16628W        W76164  28.025  13.148   4.641
16629W        W76165  21.106  12.647  10.635
16630W        W76166   3.829  39.492  11.533
16631W        W76167  44.836  17.154  10.151
16632W        W76168  36.432   4.817   1.710
16633W        W76169  22.717  38.889  10.985
16634W        W76170  31.551  40.534   1.396
16635W        W76171  10.155  13.695   2.726
16636W        W76172  32.897   3.356  11.123
16637W        W76173  22.671   3.765   4.633
16638W        W76174  28.052  19.634  12.478
16639W        W76175   1.955  44.798  12.842
16640W        W76176  14.588  41.537  13.805
16641W        W76177  39.997  16.725   2.292
16642W        W76178   1.876  32.593   2.699
16643W        W76179   9.370  38.403  11.597
16644W        W76180  17.112   6.345   1.901
16645W        W76181  20.588  13.729  13.012
16646W        W76182  12.319   2.886   3.692
16647W        W76183  22.668  24.517  14.374
16648W        W76184  20.040  43.511  11.019
16649W        W76185  40.887   0.750  11.432
16650W        W76186  38.346  10.168  13.819
16651W        W76187  15.275  26.081  14.442
16652W        W76188  34.063  41.025  10.462
16653W        W76189   2.893   7.736  11.922
16654W        W76190  21.040  23.217  12.983
16655W        W76191  24.620  24.105   3.381
16656W        W76192  11.144   4.258  10.973
16657W        W76193   0.823  26.040   2.317
16658W        W76194  37.972  22.636  14.304
16659W        W76195  43.854  19.717  12.357
16660W        W76196   8.342  28.658   1.904
16661W        W76197  22.693   8.277  14.009
16662W        W76198   1.931  11.803   1.289
16663W        W76199   9.844  44.291  14.850
16664W        W76200  39.058  40.870   3.206
16665W        W76201  24.006   5.257  13.478
16666W        W76202  37.011  37.373   4.225
16667W        W76203   9.386  42.421  10.980
16668W        W76204  15.109  33.935   0.876
16669W        W76205  36.517  38.909   2.792
16670W        W76206  37.895  15.616   4.814
16671W        W76207   9.769  31.970   3.835
16672W        W76208  31.577  36.560   0.266
16673W        W76209  43.811  28.534  11.915
16674W        W76210  22.197  27.083   0.776
16675W        W76211  31.434   4.331   1.766
16676W        W76212  34.095  19.279   1.700
16677W        W76213  34.489  20.128  11.030
16678W        W76214  20.153  24.173   1.389
16679W        W76215  30.132  30.462   3.157
16680W        W76216  30.509  43.832  13.028
16681W        W76217  30.032  36.478   2.406
16682W        W76218  34.063  22.248   4.649
16683W        W76219  23.631  37.046  12.472
16684W        W76220  33.522  26.469  10.085
16685W        W76221  23.705  15.280  14.380
16686W        W76222   1.250  11.287  10.452
16687W        W76223  21.263  25.605   4.747
16688W        W76224   1.900  21.724   2.267
16689W        W76225  40.342  34.462  10.077
16690W        W76226  26.045  29.668  11.919
16691W        W76227  27.941  26.619  10.980
16692W        W76228  27.100  42.974  10.495
16693W        W76229  42.909  34.609   1.260
16694W        W76230  37.971  44.792   0.887
16695W        W76231   9.844  38.851  12.986
16696W        W76232  14.666  13.783  14.798
16697W        W76233  10.820  22.710   2.890
16698W        W76234  31.933  26.205  13.874
16699W        W76235   4.712   3.756  13.903
16700W        W76236  38.476  24.500   1.363
16701W        W76237  44.295  22.527   4.597
16702W        W76238  21.189  26.469   4.306
16703W        W76239   7.691   8.349  12.079
16704W        W76240  19.607  36.850   4.810
16705W        W76241  30.451  18.132  13.353
16706W        W76242  34.539   6.804  10.559
16707W        W76243  20.038  11.318   4.147
16708W        W76244   6.336   8.349  12.906
16709W        W76245   9.766  16.277   3.708
16710W        W76246   9.182  36.362  14.360
16711W        W76247  10.221  17.774   0.851
16712W        W76248  13.612   4.750   0.854
16713W        W76249  17.179  26.507   0.439
16714W        W76250  22.586  30.507   4.347
16715W        W76251  11.627   1.411  10.994
16716W        W76252  37.959  44.872  11.009
16717W        W76253  28.963  10.637  13.014
16718W        W76254  41.863  17.078   1.252
16719W        W76255  30.979  13.736   4.149
16720W        W76256   4.425  40.869  10.454
16721W        W76257  20.208   2.786  14.357
16722W        W76258  21.157   2.239   4.230
16723W        W76259   9.184  19.684  13.961
16724W        W76260  19.089  24.510  12.960
16725W        W76261  36.444  14.271   0.774
16726W        W76262   6.893  21.515   2.368
16727W        W76263  26.643  33.471  13.519
16728W        W76264  31.973  20.570  14.390
16729W        W76265   9.681  20.157   4.674
16730W        W76266  32.549  36.998   2.238
16731W        W76267   6.410  26.007  10.155
16732W        W76268  16.717   7.706   3.327
16733W        W76269  38.482  39.849  13.442
16734W        W76270  35.575  44.918  13.901
16735W        W76271  38.395  23.664  13.991
16736W        W76272   0.258   2.914  11.450
16737W        W76273   1.763  18.172   1.273
16738W        W76274  31.603   3.947  12.417
16739W        W76275   3.907  30.608   2.733
16740W        W76276  41.932  32.417  13.888
16741W        W76277  17.644  35.469   2.299
16742W        W76278  39.316  38.887  13.032
16743W        W76279  16.303  41.517  12.387
16744W        W76280   6.749  18.678   0.855
16745W        W76281  14.243  10.335   4.206
16746W        W76282  22.205   2.720  10.906
16747W        W76283  42.429  42.439   1.230
16748W        W76284  11.705  11.365  12.538
16749W        W76285  41.450  34.550  11.952
16750W        W76286  25.608  31.046  13.001
16751W        W76287  32.524   1.844  12.450
16752W        W76288  17.716  40.463   1.319
16753W        W76289  34.005  35.381  11.123
16754W        W76290  24.225  23.099  14.315
16755W        W76291  31.076   1.964   3.364
16756W        W76292  11.673  39.038   4.342
16757W        W76293  28.532  18.071  14.488
16758W        W76294  41.443   0.268  12.529
16759W        W76295  27.989  43.333  10.605
16760W        W76296  31.551  31.466   2.864
16761W        W76297  17.134  43.819  14.998
16762W        W76298   9.838  30.605  11.397
16763W        W76299  44.007   2.454  13.908
16764W        W76300   1.405  33.505   2.863
16765W        W76301  27.586   1.882  12.358
16766W        W76302  43.448   3.888  11.957
16767W        W76303  32.554   9.336  11.537
16768W        W76304  16.075   3.812  13.018
16769W        W76305   6.775   1.890   4.737
16770W        W76306  42.915  38.986   4.233
16771W        W76307   4.439  37.483   0.350
16772W        W76308  22.529  30.956  12.560
16773W        W76309  36.436  11.323   3.178
16774W        W76310  40.405   2.353  11.056
16775W        W76311  39.825  33.452   2.338
16776W        W76312  25.540  38.958   0.426
16777W        W76313  15.623   1.475   2.350
16778W        W76314  10.676  30.052   0.405
16779W        W76315   9.346  44.294   3.674
16780W        W76316   5.344  30.069  12.877
16781W        W76317  27.977  14.332   2.707
16782W        W76318  30.476  44.411   4.198
16783W        W76319  29.056  38.839   4.775
16784W        W76320  42.446  15.792   3.200
16785W        W76321  11.740  34.601  12.871
16786W        W76322  26.560  13.233  10.511
16787W        W76323  43.285   6.765  10.956
16788W        W76324  40.935   6.916  13.421
16789W        W76325  36.488  35.554   1.274
16790W        W76326  41.832  21.226   2.285
16791W        W76327  40.536  24.610  12.538
16792W        W76328   0.868  25.508  12.959
16793W        W76329  33.597  20.604  11.953
16794W        W76330  33.945  23.157   0.765
16795W        W76331  31.982  36.503   5.272
16796W        W76332  26.131  22.129  10.565
16797W        W76333  21.129  32.033  12.902
16798W        W76334  29.012   3.774   1.887
16799W        W76335  17.717  13.729   2.319
16800W        W76336  17.587  10.254  11.971
16801W        W76337  17.183  34.878   1.892
16802W        W76338  20.730   9.349   4.693
16803W        W76339  39.336  34.943  11.388
16804W        W76340  35.907  26.609  12.384
16805W        W76341  41.532  43.831  12.897
16806W        W76342  22.189  33.902   5.192
16807W        W76343  15.751  25.163  14.992
16808W        W76344  42.501   9.886   0.852
16809W        W76345  12.292  41.847  13.023
16810W        W76346   4.432  27.609   0.463
16811W        W76347  30.419   6.763   4.671
16812W        W76348  16.710  11.649   1.247
16813W        W76349  14.705  37.973   0.792
16814W        W76350  21.544  42.470  13.477
16815W        W76351  25.996  36.067   3.279
16816W        W76352   1.947  13.664  12.461
16817W        W76353  27.596  30.974  14.888
16818W        W76354  19.691  33.520  12.027
16819W        W76355  32.059  36.579  11.567
16820W        W76356  19.677  34.602   1.715
16821W        W76357  40.535  37.576  12.858
16822W        W76358  19.141  41.863  12.565
16823W        W76359   2.803  34.424  11.548
16824W        W76360   4.211   9.198  11.402
16825W        W76361  42.374  15.631  13.818
16826W        W76362  24.087  21.588  12.465
16827W        W76363  42.992  21.180  10.948
16828W        W76364  25.497  43.802  10.525
16829W        W76365  28.487   0.769  12.436
16830W        W76366  14.169  24.483  14.795
16831W        W76367  37.556  36.021   4.810
16832W        W76368  33.037  27.689   0.744
16833W        W76369  43.270  17.168   4.817
16834W        W76370   6.761  27.193   3.747
16835W        W76371  21.661   9.287  14.428
16836W        W76372  15.283  29.981  12.410
16837W        W76373  13.292  38.041   3.689
16838W        W76374  29.960  24.563   5.173
16839W        W76375  35.483  11.660   3.296
16840W        W76376   0.880   4.809  10.929
16841W        W76377  39.461  40.906  14.918
16842W        W76378  25.533  35.498   2.850
16843W        W76379  36.089  37.484  11.918
16844W        W76380   8.877  31.594   1.420
16845W        W76381   2.231  41.930   1.905
16846W        W76382  41.344  20.254   0.801
16847W        W76383  37.929   0.329  12.953
16848W        W76384  33.050   6.719  12.572
16849W        W76385  39.003  12.714   1.234
16850W        W76386  19.270  27.015  13.850
16851W        W76387  13.612  30.938   1.247
16852W        W76388  24.131   2.954   0.466
16853W        W76389  39.345  35.603  11.030
16854W        W76390   9.353  36.073   5.108
16855W        W76391   0.845  22.018  14.493
16856W        W76392  24.151  18.290  13.959
16857W        W76393   9.255  44.337  13.899
16858W        W76394  12.767   4.400  10.527
16859W        W76395  36.475  29.989   1.322
16860W        W76396   0.964   1.462   3.659
16861W        W76397  44.957  22.052  14.460
16862W        W76398  27.615  40.339   0.766
16863W        W76399  23.118  42.471  11.569
16864W        W76400  20.604  30.159   2.383
16865W        W76401  38.018   7.320  11.106
16866W        W76402  36.033  18.672  10.613
16867W        W76403  12.690  27.492   2.389
16868W        W76404  33.999   5.759  10.972
16869W        W76405  40.992   0.424   3.724
16870W        W76406   0.433  14.727   0.801
16871W        W76407  40.001   7.866  11.036
16872W        W76408  41.974  26.647   5.320
16873W        W76409  24.201   7.385  14.381
16874W        W76410   6.762  35.001  10.487
16875W        W76411  40.894  12.146   0.806
16876W        W76412  22.739  25.048  10.989
16877W        W76413  16.239  43.013  10.493
16878W        W76414   9.309  11.768  12.575
16879W        W76415   4.367  20.085  14.978
16880W        W76416  29.053  27.533  14.007
16881W        W76417  33.970   6.302  11.421
16882W        W76418   1.420  30.053   4.653
16883W        W76419  35.079   2.231   4.267
16884W        W76420  14.266  36.582   3.179
16885W        W76421  18.214  33.890  13.834
16886W        W76422  40.972  16.228  14.317
16887W        W76423  24.484  35.088   5.095
16888W        W76424   5.254  10.647   2.351
16889W        W76425  11.208  32.967   0.737
16890W        W76426  26.530   8.298  11.021
16891W        W76427   6.280  29.505  12.965
16892W        W76428   3.349  23.718  11.869
16893W        W76429  32.558   7.345  11.594
16894W        W76430   4.335  39.055   9.982
16895W        W76431  35.921  12.339   4.651
16896W        W76432  26.998  23.714  13.961
16897W        W76433  18.760  36.492  11.083
16898W        W76434   3.856   3.741  10.565
16899W        W76435   4.885  21.730  14.395
16900W        W76436  22.086   3.740  11.569
16901W        W76437  22.042  20.605   0.318
16902W        W76438   7.330  34.530   1.754
16903W        W76439  38.834  36.042  13.825
16904W        W76440  41.935  24.166  13.328
16905W        W76441  43.309  18.058  13.938
16906W        W76442   5.889  10.809   2.355
16907W        W76443  27.515  22.063  13.481
16908W        W76444  23.544  37.429   0.763
16909W        W76445  37.423  13.297   0.298
16910W        W76446   0.307  19.269   1.221
16911W        W76447  17.581  14.274  13.474
16912W        W76448  17.250   1.366   3.370
16913W        W76449  15.810  11.633   3.337
16914W        W76450  32.566  34.444   3.715
16915W        W76451  12.767  22.032   4.242
16916W        W76452  26.457   1.482   0.414
16917W        W76453  11.783  29.984  12.465
16918W        W76454  42.493  11.631  13.338
16919W        W76455  24.647   0.373  10.600
16920W        W76456  14.260  23.715  10.078
16921W        W76457   2.960   2.937  14.025
16922W        W76458   5.717  21.572  11.073
16923W        W76459  38.962  20.674  11.540
16924W        W76460  18.637  15.299  14.335
16925W        W76461  37.579  40.422   2.404
16926W        W76462  25.128  28.495   2.866
16927W        W76463  25.711   2.949  11.923
16928W        W76464   2.418   2.390   2.753
16929W        W76465  32.922  29.540   1.439
16930W        W76466  41.366  10.792  10.535
16931W        W76467  44.465  36.574  10.975
16932W        W76468  32.143   3.455  11.527
16933W        W76469  21.227  27.109  12.577
16934W        W76470  38.001   3.952  10.982
16935W        W76471  23.732   8.286   4.830
16936W        W76472  30.965  31.429   4.230
16937W        W76473  17.138  34.078   4.158
16938W        W76474  20.233  31.437   0.436
16939W        W76475   9.758  20.041   0.917
16940W        W76476  10.273   2.362   4.724
16941W        W76477   7.787  17.204  11.587
16942W        W76478  33.477  17.137   4.770
16943W        W76479  16.253  17.145  13.794
16944W        W76480  12.667  25.609  14.423
16945W        W76481  23.151  33.434  13.023
16946W        W76482  28.482  10.383  14.457
16947W        W76483  25.683  28.508  12.029
16948W        W76484   6.268  44.862   9.993
16949W        W76485  32.015  30.613   3.858
16950W        W76486  28.094   2.361   2.410
16951W        W76487  24.620  21.117   1.742
16952W        W76488  28.589   7.302  11.046
16953W        W76489  43.335  28.622   0.923
16954W        W76490  31.591  29.447   2.881
16955W        W76491   7.812  43.299   3.841
16956W        W76492  14.183  32.509  13.369
16957W        W76493  11.239  18.550   4.804
16958W        W76494   8.796   4.863   2.382
16959W        W76495  35.892  19.182  13.019
16960W        W76496  12.809  43.308   4.669
16961W        W76497  34.969   4.300   2.377
16962W        W76498  15.578  11.796  11.385
16963W        W76499   8.718  32.393   3.223
16964W        W76500  41.297  11.266   0.353
16965W        W76501  44.306  24.035   3.296
16966W        W76502   7.881  31.602   4.329
16967W        W76503  27.184  14.249   0.471
16968W        W76504   8.304  19.548  13.983
16969W        W76505  44.452  15.179  13.339
16970W        W76506  15.301  28.601  12.413
16971W        W76507  30.105  42.895   0.443
16972W        W76508  33.911  37.430   0.817
16973W        W76509  33.972  22.133  11.124
16974W        W76510  17.161  22.050  13.319
16975W        W76511   9.858  31.456   0.759
16976W        W76512   8.743  19.071  14.909
16977W        W76513   3.292  26.553  11.864
16978W        W76514  35.976  21.159   3.654
16979W        W76515   4.379  24.041   4.709
16980W        W76516   1.427  26.624   0.442
16981W        W76517  20.086  30.536   2.245
16982W        W76518  10.296  35.886  14.913
16983W        W76519  31.975  12.129   3.321
16984W        W76520  28.143   5.920   0.836
16985W        W76521  28.486  20.677  10.429
16986W        W76522   1.455  23.185   4.838
16987W        W76523  22.718   2.270  13.887
16988W        W76524  25.615  29.932   2.211
16989W        W76525  27.974   9.250   2.194
16990W        W76526   0.478  21.552  10.452
16991W        W76527  11.270  36.412   4.737
16992W        W76528   6.792  16.167  13.914
16993W        W76529   0.356  30.924   0.827
16994W        W76530  23.714   3.287  10.119
16995W        W76531  20.240  44.875  13.517
16996W        W76532  43.824  13.269  14.316
16997W        W76533  21.703  32.580  13.037
16998W        W76534  27.136  26.665  12.402
16999W        W76535  33.052  16.155  13.058
17000W        W76536  26.023  44.952  10.595
17001W        W76537  42.821  26.089   4.665
17002W        W76538   6.829   7.241   3.386
17003W        W76539   1.431  27.603   0.316
17004W        W76540   1.975  24.723   5.748
17005W        W76541  16.229  11.329   3.360
17006W        W76542   2.317   0.838  13.938
17007W        W76543   3.930  39.815   1.444
17008W        W76544   9.851  24.010   0.319
17009W        W76545  39.467  36.501   1.341
17010W        W76546  37.930   2.295   0.444
17011W        W76547  20.195  18.058   2.326
17012W        W76548  20.127  10.684  14.013
17013W        W76549  21.658   3.336  13.851
17014W        W76550  43.379   2.268  13.308
17015W        W76551   3.393  41.002  13.388
17016W        W76552   9.202   8.786  13.928
17017W        W76553  33.435   4.759   4.288
17018W        W76554  20.719   2.754   5.308
17019W        W76555  20.038  38.934   1.357
17020W        W76556  15.736   2.364  10.946
17021W        W76557  34.389  10.289   2.412
17022W        W76558  41.303  22.125   4.737
17023W        W76559  40.366  37.398   1.212
17024W        W76560   6.312  26.091   5.238
17025W        W76561  41.984  16.595  11.494
17026W        W76562   0.957   4.430   3.342
17027W        W76563  36.913  31.959   1.725
17028W        W76564  15.627   8.693  13.815
17029W        W76565  14.690  28.552   1.796
17030W        W76566  43.496   8.882  14.808
17031W        W76567  39.399  39.869  11.882
17032W        W76568  34.384  19.144  12.506
17033W        W76569  25.557  36.063  14.992
17034W        W76570  20.170  35.553  12.506
17035W        W76571   9.660  36.510   2.847
17036W        W76572   6.711  36.959  12.003
17037W        W76573  19.591  13.779  10.633
17038W        W76574  12.193  23.148   3.259
17039W        W76575  23.639   8.174   1.324
17040W        W76576   7.220  17.734  10.559
17041W        W76577  39.353  38.349  11.589
17042W        W76578  32.412  44.352   3.838
17043W        W76579  16.147  10.803  13.532
17044W        W76580  43.473  32.445  10.927
17045W        W76581  38.511   9.756   4.837
17046W        W76582  24.114  43.813  10.960
17047W        W76583  17.077  25.217  10.994
17048W        W76584  10.204  19.270  10.538
17049W        W76585   7.322  23.074   3.332
17050W        W76586   3.289   5.389  11.028
17051W        W76587   8.773   9.289   3.677
17052W        W76588  22.052   3.885   0.835
17053W        W76589   9.375  24.670   3.239
17054W        W76590  37.835  35.433   0.875
17055W        W76591  34.884  17.198  11.529
17056W        W76592   6.871  41.797   2.820
17057W        W76593  17.759   8.844  13.464
17058W        W76594  40.373  21.542   0.264
17059W        W76595  37.336  39.392   4.298
17060W        W76596  16.218   5.390  14.294
17061W        W76597  12.725  11.835  12.827
17062W        W76598  22.995   6.873  10.001
17063W        W76599  25.651  15.262   4.737
17064W        W76600  11.856  32.579   3.377
17065W        W76601  30.437  22.067  14.866
17066W        W76602  21.646   6.764  14.446
17067W        W76603  11.738  43.766  14.909
17068W        W76604  21.110  44.794  10.535
17069W        W76605  26.003  17.636   5.769
17070W        W76606   7.691  30.650   1.394
17071W        W76607  32.885  28.183  14.826
17072W        W76608  13.792  28.449   0.406
17073W        W76609  40.457   7.279   4.334
17074W        W76610  40.808  18.708  11.909
17075W        W76611  33.421  22.676   4.676
17076W        W76612   6.915   5.893  11.411
17077W        W76613  32.445  28.586  13.869
17078W        W76614  28.487   5.922   0.768
17079W        W76615  37.066  29.925  14.984
17080W        W76616  10.360   6.361   0.923
17081W        W76617  26.509  17.233  11.035
17082W        W76618  19.172   1.282  14.430
17083W        W76619  33.465  43.497  13.884
17084W        W76620  42.346  32.994   0.944
17085W        W76621  35.995   0.756  13.380
17086W        W76622  17.254  22.560  11.458
17087W        W76623   2.911  24.650  11.538
17088W        W76624  31.985  18.214  11.463
17089W        W76625  22.505  41.028   1.292
17090W        W76626  32.098  22.184   4.746
17091W        W76627  43.794  26.690  13.055
17092W        W76628  14.808  33.439   2.281
17093W        W76629   8.192  25.094  12.878
17094W        W76630  26.602  20.669  13.011
17095W        W76631   5.379   0.956   0.252
17096W        W76632  36.864  17.161  10.984
17097W        W76633  26.144   2.301  13.950
17098W        W76634  31.516  15.723   0.252
17099W        W76635  16.149  18.054  13.510
17100W        W76636  12.229  11.738   2.763
17101W        W76637  43.467   4.893   4.120
17102W        W76638   2.775  31.929   4.218
17103W        W76639  31.529  23.068  10.610
17104W        W76640   6.420  15.095   3.708
17105W        W76641  20.648  36.928  14.461
17106W        W76642  33.114  21.552   3.644
17107W        W76643  20.061  11.848   3.381
17108W        W76644  18.641  16.576   5.223
17109W        W76645  34.380  20.623  14.999
17110W        W76646  33.545  26.581   5.605
17111W        W76647  44.963  34.573   2.385
17112W        W76648  43.882  43.959   1.882
17113W        W76649   1.416  10.633  14.838
17114W        W76650  25.604  40.028   3.699
17115W        W76651  20.258  20.133   0.388
17116W        W76652  22.049   7.384   2.306
17117W        W76653  23.225  37.487  11.910
17118W        W76654   3.761   3.943   2.262
17119W        W76655  25.187  29.994  12.983
17120W        W76656  23.042  22.052   1.710
17121W        W76657  14.788  20.112  14.886
17122W        W76658  31.087  35.075  13.960
17123W        W76659  32.058   6.244   5.242
17124W        W76660  44.886   0.310  12.897
17125W        W76661  32.421  42.885  11.917
17126W        W76662   6.799  25.481  10.957
17127W        W76663  22.016  39.836  13.319
17128W        W76664  29.139   2.411  14.955
17129W        W76665   3.356  10.263  13.844
17130W        W76666  42.847  24.722   0.481
17131W        W76667   3.740  25.608  14.967
17132W        W76668   2.374  31.505   0.949
17133W        W76669  18.736  36.946   4.298
17134W        W76670  16.743  13.342   1.827
17135W        W76671  31.963  42.465  12.974
17136W        W76672  30.092  35.405   4.308
17137W        W76673  14.214  36.550  14.864
17138W        W76674  19.278  38.043  12.436
17139W        W76675  21.637  39.429  14.899
17140W        W76676  26.180  21.660   3.722
17141W        W76677  12.267   3.782   1.733
17142W        W76678   2.395  11.636  10.481
17143W        W76679  15.295  32.545  13.494
17144W        W76680  43.875   6.350   3.780
17145W        W76681  13.173  10.632  13.399
17146W        W76682  40.978  11.161  10.945
17147W        W76683  12.186  40.465  13.895
17148W        W76684  21.091  20.669   1.722
17149W        W76685  13.293  22.687  12.560
17150W        W76686  17.081  33.460  13.471
17151W        W76687  34.915  35.096  10.501
17152W        W76688  19.118   5.193  10.408
17153W        W76689  41.959   7.904  12.920
17154W        W76690  15.671  20.155   0.476
17155W        W76691  20.542  36.372   2.296
17156W        W76692  24.654  29.658   4.836
17157W        W76693  12.801   9.271  13.941
17158W        W76694  25.159   1.329  10.462
17159W        W76695  11.359   0.859   0.747
17160W        W76696  31.905  18.109   4.620
17161W        W76697   3.277   1.776  13.036
17162W        W76698   2.826  33.938  13.941
17163W        W76699   9.792  12.203   4.133
17164W        W76700  19.555  22.157  14.444
17165W        W76701  35.416  31.527  10.484
17166W        W76702  14.256  33.091  14.838
17167W        W76703  10.334  28.976  14.822
17168W        W76704  26.077  39.554  11.058
17169W        W76705  37.549  16.098  14.996
17170W        W76706  37.429  37.910   1.803
17171W        W76707  41.024  19.228   0.244
17172W        W76708  32.397   5.201   4.256
17173W        W76709  19.238  32.895  14.766
17174W        W76710  30.551   2.365   2.730
17175W        W76711   6.303  42.798  12.862
17176W        W76712  20.768  25.189  12.857
17177W        W76713   3.330  44.393   1.399
17178W        W76714  18.715  12.784  12.064
17179W        W76715  22.523   8.853  14.455
17180W        W76716  42.418   6.191  14.390
17181W        W76717  20.641   2.844   2.382
17182W        W76718   8.386  22.075   1.819
17183W        W76719  13.196  10.153  11.059
17184W        W76720  36.383   2.335  10.579
17185W        W76721   1.831  44.299  12.577
17186W        W76722   9.677  14.619   4.248
17187W        W76723  25.191   4.314   9.515
17188W        W76724  20.265  40.377   3.312
17189W        W76725  40.014  26.953  10.983
17190W        W76726  27.507  37.872   3.325
17191W        W76727  36.973  36.938  10.937
17192W        W76728   7.877  33.881  14.775
17193W        W76729  12.653  40.346  14.899
17194W        W76730  24.672   9.313   4.256
17195W        W76731   4.780  44.408  12.343
17196W        W76732  29.427  37.506  14.301
17197W        W76733   1.929  34.882   4.262
17198W        W76734  23.673   3.870  12.421
17199W        W76735  11.367   5.750   9.545
17200W        W76736   3.796   2.909   1.904
17201W        W76737  42.964   7.705  11.492
17202W        W76738  43.485  23.551   1.789
17203W        W76739   6.693  18.200  12.879
17204W        W76740  20.567  39.840   4.622
17205W        W76741  41.017   2.454  11.103
17206W        W76742  24.552   8.344  10.070
17207W        W76743  44.504  43.903   3.850
17208W        W76744  44.858   0.485   4.819
17209W        W76745   9.826  14.628   0.373
17210W        W76746   5.195  39.933   4.275
17211W        W76747  12.612  43.890   1.425
17212W        W76748  14.702   1.914  14.905
17213W        W76749  27.567  33.553   1.223
17214W        W76750  21.601  12.303  13.448
17215W        W76751  42.484  29.539  12.541
17216W        W76752  43.271  34.897   4.824
17217W        W76753  29.457  26.959   2.356
17218W        W76754  30.922  34.493  14.794
17219W        W76755  12.315  28.612   1.838
17220W        W76756   6.317  22.678  14.774
17221W        W76757  25.504  13.296  13.819
17222W        W76758  27.129  38.537   9.675
17223W        W76759  27.027  22.648  14.369
17224W        W76760  41.956   4.239  12.429
17225W        W76761  17.184   4.365   1.349
17226W        W76762  19.080   9.836   1.293
17227W        W76763  17.585  29.605   4.690
17228W        W76764  30.488   1.817   4.188
17229W        W76765  38.833   1.398  14.816
17230W        W76766  37.962  16.074  14.388
17231W        W76767  10.661  17.709   3.663
17232W        W76768  34.964   2.749  11.876
17233W        W76769  14.818   5.890   3.353
17234W        W76770  26.466  16.294   1.757
17235W        W76771  11.313  39.954  14.457
17236W        W76772  44.392  37.870   0.281
17237W        W76773  32.129  17.160   0.906
17238W        W76774  29.021  40.842  11.128
17239W        W76775  37.990  14.750  12.834
17240W        W76776  31.940  37.915   2.351
17241W        W76777  25.144  40.906   4.261
17242W        W76778   6.688   1.794   2.225
17243W        W76779  35.536  19.271  13.862
17244W        W76780  39.542   3.431   0.290
17245W        W76781  26.994  42.321  14.928
17246W        W76782  24.011  23.512   9.942
17247W        W76783   3.326  37.477  13.942
17248W        W76784  22.120  28.988  12.412
17249W        W76785  29.666  24.488  11.077
17250W        W76786   5.755   6.715   1.713
17251W        W76787  24.591  25.605  13.968
17252W        W76788  19.665   8.757  11.873
17253W        W76789  23.678   4.834  11.476
17254W        W76790  32.623  30.467  10.427
17255W        W76791   7.707  17.117   1.267
17256W        W76792  10.801   6.310  14.801
17257W        W76793   4.408  43.003   1.391
17258W        W76794  16.209   1.470   4.252
17259W        W76795  38.999  41.971   0.364
17260W        W76796  15.328  37.071   0.424
17261W        W76797  29.114  24.983   9.598
17262W        W76798  43.898  38.935   4.158
17263W        W76799  15.656  44.943  11.458
17264W        W76800  12.659  16.732   3.221
17265W        W76801  36.365  31.100  11.869
17266W        W76802   9.182   5.211   1.293
17267W        W76803  14.280   9.748   2.228
17268W        W76804  20.038  10.244  13.952
17269W        W76805  12.775   7.353   2.735
17270W        W76806   4.699  18.066   4.130
17271W        W76807  12.209  41.398  13.932
17272W        W76808  39.506  23.657  11.996
17273W        W76809  35.512  40.952   4.728
17274W        W76810  34.373   2.829   0.356
17275W        W76811   2.900  10.706   4.724
17276W        W76812  34.931  41.367  11.487
17277W        W76813  13.632  17.731  10.951
17278W        W76814  26.969   1.311  10.950
17279W        W76815  22.112   7.758   0.378
17280W        W76816  16.748   2.775  11.904
17281W        W76817  15.579  13.208  14.916
17282W        W76818   2.912  37.985   1.779
17283W        W76819   6.337   1.396  13.385
17284W        W76820   6.693  11.777  11.512
17285W        W76821  22.060   8.892   0.780
17286W        W76822  29.488  44.761  13.047
17287W        W76823  17.106   2.472  10.921
17288W        W76824  22.609  33.613   0.472
17289W        W76825  17.267   2.432  13.040
17290W        W76826   4.937   1.416   0.285
17291W        W76827   6.301  31.153  10.474
17292W        W76828   8.331  36.429  10.488
17293W        W76829  33.515   9.702  12.915
17294W        W76830  41.960  15.314  11.608
17295W        W76831  43.009  30.966   0.301
17296W        W76832   8.813  21.676  13.362
17297W        W76833  37.366  32.065  14.332
17298W        W76834  13.648  44.269   2.259
17299W        W76835   1.360  25.625   1.760
17300W        W76836   6.324  20.564  10.435
17301W        W76837   1.879  37.042   3.238
17302W        W76838  12.733  21.137  14.862
17303W        W76839  25.699  40.845   2.835
17304W        W76840  36.365  32.537  11.460
17305W        W76841   4.722   5.404   3.362
17306W        W76842  36.567  15.133   2.842
17307W        W76843  22.667  26.061  11.398
17308W        W76844  38.537  23.106   2.786
17309W        W76845  25.639  16.793   1.398
17310W        W76846   2.893  29.955   3.847
17311W        W76847   8.181  41.462  10.571
17312W        W76848   1.897  28.120  13.911
17313W        W76849  11.300  32.508   3.353
17314W        W76850  19.286  35.439  10.559
17315W        W76851  41.963   6.323  14.301
17316W        W76852  26.116   5.230  14.480
17317W        W76853  44.916  24.043  12.430
17318W        W76854   6.208  40.446   1.218
17319W        W76855  12.783  20.054  13.884
17320W        W76856  19.166  18.151  13.536
17321W        W76857  29.116  26.695   3.705
17322W        W76858  29.073   3.935  10.557
17323W        W76859  28.538  11.205  13.470
17324W        W76860  29.664  31.104  12.553
17325W        W76861  26.480  19.694   1.377
17326W        W76862  11.811  33.485  10.969
17327W        W76863   7.785  16.202  10.570
17328W        W76864  38.877  20.609   2.413
17329W        W76865  22.737  22.026   4.774
17330W        W76866  42.802  31.495  10.492
17331W        W76867  24.228  28.937  12.981
17332W        W76868  13.833   9.705   3.771
17333W        W76869  44.351   3.320  12.859
17334W        W76870   1.909  39.502  14.444
17335W        W76871  35.932  30.986  13.988
17336W        W76872  37.408  11.681  11.519
17337W        W76873   6.883  38.910  14.305
17338W        W76874   0.419  34.863   2.248
17339W        W76875   8.875  20.258   0.402
17340W        W76876  18.078  11.195   0.370
17341W        W76877   4.392  13.821   0.853
17342W        W76878   9.809   6.245   5.232
17343W        W76879  16.689  11.674   0.785
17344W        W76880  39.051  33.981   3.324
17345W        W76881  28.930  10.139  11.398
17346W        W76882  18.556  20.135   2.287
17347W        W76883  20.192   3.257   3.724
17348W        W76884  20.050  10.722   0.878
17349W        W76885  26.141  33.594  10.941
17350W        W76886   9.708  14.764  13.449
17351W        W76887  40.430  13.722   0.365
17352W        W76888  10.798  18.668  13.512
17353W        W76889  43.337  12.121  12.967
17354W        W76890  41.298  11.756  10.977
17355W        W76891  16.288  11.210   3.769
17356W        W76892  30.064  20.215  12.344
17357W        W76893  37.368  37.482   4.754
17358W        W76894  19.649   9.783   2.677
17359W        W76895  34.973  21.698  12.942
17360W        W76896   0.473   5.420  13.876
17361W        W76897  12.197  21.195   0.362
17362W        W76898  21.564  35.007  14.371
17363W        W76899  37.955  10.771  11.951
17364W        W76900  38.941  24.519   4.837
17365W        W76901  32.968   2.851  13.422
17366W        W76902  34.994  14.299   1.846
17367W        W76903  33.388  28.528   1.715
17368W        W76904  12.791  13.116   0.246
17369W        W76905   0.899  25.641  14.841
17370W        W76906  22.521  25.147   3.193
17371W        W76907  14.815  35.013  13.835
17372W        W76908  29.164  39.065  10.981
17373W        W76909  33.917  42.386  14.320
17374W        W76910  20.585  37.384  14.839
17375W        W76911  13.287  35.541  13.402
17376W        W76912  31.937  16.611  14.957
17377W        W76913   2.441  20.556   0.315
17378W        W76914  11.768  26.661  14.506
17379W        W76915   0.764  43.347  10.975
17380W        W76916  16.223   3.304   3.744
17381W        W76917  31.571  36.983  13.361
17382W        W76918  12.733  30.130   4.655
17383W        W76919  28.549  20.166   2.687
17384W        W76920  17.732  12.766  13.380
17385W        W76921  39.880  31.022  12.999
17386W        W76922   6.351  18.169  10.423
17387W        W76923  19.173  14.195  10.919
17388W        W76924  12.323  34.516   4.717
17389W        W76925  31.495  41.532   2.711
17390W        W76926   9.226  43.308  10.440
17391W        W76927  25.137   4.234   1.381
17392W        W76928  17.653  13.337  12.877
17393W        W76929  24.623   1.327  14.891
17394W        W76930  26.655  11.327   0.872
17395W        W76931   7.798  13.131  11.003
17396W        W76932  21.699  41.920  14.346
17397W        W76933  42.958  33.465   0.282
17398W        W76934  41.014  18.176   3.225
17399W        W76935  22.081  12.771  14.874
17400W        W76936  27.661  24.616  12.464
17401W        W76937  27.180  37.536  10.564
17402W        W76938   6.225  37.459   4.148
17403W        W76939  35.913  27.101  10.937
17404W        W76940   0.263  30.119   0.326
17405W        W76941  40.416  38.026   4.636
17406W        W76942  16.641  42.995  13.503
17407W        W76943  12.322  32.994  14.875
17408W        W76944   4.402   1.273  11.096
17409W        W76945  44.467  41.348   3.839
17410W        W76946  34.560  32.507  10.538
17411W        W76947  24.614  29.164   3.707
17412W        W76948   6.899  18.745   3.316
17413W        W76949  15.671  14.680   4.135
17414W        W76950  15.636  31.119  12.861
17415W        W76951  16.657  36.446   3.359
17416W        W76952   2.950  10.702  12.027
17417W        W76953  18.262   0.881   2.868
17418W        W76954   6.280  38.976  14.890
17419W        W76955  11.726   4.818  13.311
17420W        W76956  21.696  34.011   1.705
17421W        W76957  44.928  37.505  13.371
17422W        W76958  29.933  38.395  13.390
17423W        W76959  33.498  28.999  14.905
17424W        W76960  17.291  16.787   1.727
17425W        W76961  17.745  26.572   3.262
17426W        W76962  30.920   0.916  12.434
17427W        W76963  27.986  31.060  12.402
17428W        W76964  14.158  43.911  11.588
17429W        W76965  35.101   5.227  10.544
17430W        W76966  14.103  28.108   3.737
17431W        W76967  26.177  15.292   3.375
17432W        W76968   0.835  38.377   1.774
17433W        W76969  39.050   7.746   1.713
17434W        W76970  32.887  29.052  10.070
17435W        W76971  37.860  16.242   3.170
17436W        W76972  18.058  38.891  13.531
17437W        W76973  17.158  18.560   3.169
17438W        W76974  37.370  21.028  13.002
17439W        W76975   0.452   0.870   2.863
17440W        W76976  32.141   2.896   1.322
17441W        W76977  35.862  23.197  12.009
17442W        W76978   7.761  15.293  14.758
17443W        W76979  15.184  31.913   2.667
17444W        W76980   8.855  15.248  11.078
17445W        W76981   9.193  20.645  12.917
17446W        W76982  12.629  24.647  11.101
17447W        W76983   5.806   2.466  11.063
17448W        W76984  15.809  14.284   2.269
17449W        W76985   3.838  34.534  13.054
17450W        W76986  14.260  31.451   2.380
17451W        W76987  33.505   5.353   1.886
17452W        W76988  20.684  26.472   4.252
17453W        W76989  32.591  23.211  10.407
17454W        W76990  22.733  12.790  13.020
17455W        W76991   5.887  25.016  11.484
17456W        W76992  40.916  39.376   2.848
17457W        W76993  35.416   3.417  12.399
17458W        W76994  37.836  16.164   1.256
17459W        W76995  38.977  31.521   4.267
17460W        W76996   3.313   2.915  10.989
17461W        W76997  41.855  36.992  13.982
17462W        W76998  34.993  30.611   0.383
17463W        W76999   9.832  18.617  14.364
17464W        W77000   4.712  42.318  13.407
17465W        W77001   5.334   6.228   2.407
17466W        W77002  15.204  29.456  11.579
17467W        W77003   6.309  22.565  12.854
17468W        W77004  38.912   8.321  12.500
17469W        W77005  36.584  18.697  12.961
17470W        W77006  36.931  15.623   2.830
17471W        W77007   7.224  20.155  14.823
17472W        W77008  21.636  10.277  10.426
17473W        W77009   3.909   8.817   3.245
17474W        W77010  36.888  20.643  14.388
17475W        W77011   9.211  30.422   2.308
17476W        W77012  32.461  16.699  13.889
17477W        W77013   4.824  39.906  12.420
17478W        W77014  15.291  37.405  10.102
17479W        W77015   8.281   7.254  12.991
17480W        W77016  29.665   0.958   1.869
17481W        W77017  17.793   9.735  10.958
17482W        W77018   1.441   0.354  10.640
17483W        W77019  41.924  18.785   2.795
17484W        W77020  33.926  39.877  12.532
17485W        W77021   5.266  37.991  12.479
17486W        W77022  13.717   1.382   0.915
17487W        W77023  22.105  25.513   4.832
17488W        W77024  20.137  18.209   0.891
17489W        W77025   3.271  43.921   3.845
17490W        W77026   7.278  30.471  12.481
17491W        W77027  12.713  17.665  14.388
17492W        W77028  36.879  31.055  12.951
17493W        W77029   1.347  27.944   5.263
17494W        W77030  26.460  15.136   1.895
17495W        W77031  36.591  26.023   0.870
17496W        W77032  18.618  35.933   2.385
17497W        W77033  43.355  43.809   2.226
17498W        W77034   5.346  24.611   1.919
17499W        W77035  32.124  22.628   0.320
17500W        W77036  39.992   7.316   3.195
17501W        W77037  22.657  26.573  13.469
17502W        W77038  13.733   7.298   0.867
17503W        W77039  11.226  30.570  10.558
17504W        W77040   2.826   6.329  11.906
17505W        W77041  32.129  12.856  14.457
17506W        W77042  44.778   4.369  13.969
17507W        W77043  23.715  32.523   1.827
17508W        W77044   8.794  13.741  11.550
17509W        W77045  23.061  19.543  13.319
17510W        W77046  24.099  32.920  10.508
17511W        W77047  33.982  20.139  14.830
17512W        W77048   5.301  38.826  11.590
17513W        W77049  37.035  36.504  14.022
17514W        W77050  19.651  35.083   1.389
17515W        W77051  11.839  34.086  12.445
17516W        W77052  24.693  32.975   0.318
17517W        W77053  37.085  14.135  12.398
17518W        W77054  38.874  34.592  11.023
17519W        W77055  40.486  21.627  12.039
17520W        W77056  16.121  39.439   0.854
17521W        W77057   4.830  20.603   3.202
17522W        W77058  44.892  40.371   1.709
17523W        W77059  33.421   9.651   1.331
17524W        W77060  36.944   8.738  14.890
17525W        W77061  32.048  15.621  14.884
17526W        W77062  28.168  13.262  12.939
17527W        W77063  11.841  41.483  12.474
17528W        W77064  44.360  23.556  10.948
17529W        W77065   3.926  10.703   3.708
17530W        W77066  31.935  40.393  10.444
17531W        W77067  32.424  24.122  14.937
17532W        W77068  27.117  39.477   3.268
17533W        W77069  16.569  13.601  11.081
17534W        W77070  24.522  20.651   1.719
17535W        W77071  22.576   6.737   4.711
17536W        W77072  42.330  13.267   4.744
17537W        W77073  23.501  21.263   4.303
17538W        W77074  18.670   4.910   2.675
17539W        W77075  33.085  17.301  14.834
17540W        W77076   3.781  21.624  14.461
17541W        W77077   8.836  41.453   4.288
17542W        W77078  14.671  19.779   3.333
17543W        W77079   1.311  14.830  13.370
17544W        W77080  18.776  18.605  12.546
17545W        W77081  38.402  33.446  12.042
17546W        W77082  38.546  42.500   3.674
17547W        W77083  24.684   3.906   5.197
17548W        W77084  27.461  20.650  13.049
17549W        W77085  22.248  14.282  14.304
17550W        W77086  43.397  24.561  10.611
17551W        W77087  11.192   5.238   3.813
17552W        W77088  42.006  31.931  13.386
17553W        W77089  29.502  32.100   4.781
17554W        W77090   4.239  19.591   2.803
17555W        W77091  43.988  42.965  14.283
17556W        W77092  31.078   9.771  13.863
17557W        W77093  32.984  19.605   2.197
17558W        W77094  39.426  32.131  14.317
17559W        W77095  10.218  18.090   1.291
17560W        W77096  24.495  42.331   4.344
17561W        W77097   9.189  16.772  11.103
17562W        W77098  23.103  23.153  10.471
17563W        W77099  22.132  13.832   2.270
17564W        W77100  14.271   4.315  14.951
17565W        W77101  34.935  27.052  10.479
17566W        W77102   2.727  33.937   2.692
17567W        W77103   8.886  22.691   1.927
17568W        W77104  18.713  28.966   1.694
17569W        W77105  29.958  24.149  10.931
17570W        W77106  20.541  24.195  10.962
17571W        W77107   2.820  38.858   0.283
17572W        W77108  37.831  38.839  13.543
17573W        W77109   4.340   2.363  12.438
17574W        W77110  35.895  26.977   9.598
17575W        W77111  10.267   1.354  11.486
17576W        W77112  14.643   1.818  14.488
17577W        W77113   5.254  23.193   4.123
17578W        W77114  27.603   2.356  10.527
17579W        W77115  14.660  23.191   4.613
17580W        W77116   6.260   4.928   2.899
17581W        W77117   4.876  37.834   0.953
17582W        W77118  40.898  24.215  14.395
17583W        W77119  42.297  28.940  11.991
17584W        W77120  21.129  29.938   1.918
17585W        W77121  22.204   6.922  13.364
17586W        W77122  10.778  40.856   3.732
17587W        W77123  40.849  27.460  13.062
17588W        W77124  37.558  11.162  14.978
17589W        W77125  21.684  11.249   1.922
17590W        W77126  36.078  21.616   2.671
17591W        W77127  31.489  37.413  12.432
17592W        W77128  18.098   3.274   0.366
17593W        W77129  16.247  40.361  11.486
17594W        W77130  28.527  20.113  10.954
17595W        W77131  42.415  42.454  14.992
17596W        W77132  24.993  23.192  12.536
17597W        W77133  41.877  14.205  14.814
17598W        W77134  43.881  39.042   3.243
17599W        W77135  28.145  21.649  11.907
17600W        W77136  39.851  41.473   2.269
17601W        W77137  26.672  19.119   2.876
17602W        W77138  44.802  44.420  14.856
17603W        W77139   8.709   0.791  10.905
17604W        W77140  37.455  44.793   3.801
17605W        W77141  37.859  44.427   1.279
17606W        W77142  20.726  34.101  12.934
17607W        W77143  13.317   4.920   2.400
17608W        W77144  28.439   7.237   0.822
17609W        W77145   7.294  36.549   4.711
17610W        W77146  21.079   2.290  13.411
17611W        W77147  19.686  24.057   1.388
17612W        W77148  40.824  33.605  12.436
17613W        W77149   5.785  40.477  11.051
17614W        W77150  24.122  40.359   0.953
17615W        W77151  33.065  44.475   3.675
17616W        W77152  35.577  29.602   4.672
17617W        W77153  31.471   2.864  13.945
17618W        W77154   8.790   2.242   2.738
17619W        W77155   4.423   0.338   4.800
17620W        W77156  25.059  13.221   1.384
17621W        W77157  13.169  19.589   4.606
17622W        W77158  22.698  34.465   2.752
17623W        W77159   2.296  16.766   4.336
17624W        W77160   3.778  44.842   3.327
17625W        W77161  27.502  32.543  12.038
17626W        W77162  42.396  44.339  13.370
17627W        W77163  26.523  21.654   2.202
17628W        W77164   9.182  35.069  10.427
17629W        W77165   2.880  30.568  14.310
17630W        W77166  43.809  17.749  14.482
17631W        W77167  40.365   5.412  13.049
17632W        W77168   6.834  39.350   4.169
17633W        W77169  43.800  37.376  13.798
17634W        W77170  44.321  14.740  13.478
17635W        W77171  30.106  32.026  13.429
17636W        W77172  23.205  10.154   4.214
17637W        W77173  21.752   5.241  13.984
17638W        W77174  10.301  42.953   3.661
17639W        W77175  22.061  15.631   4.189
17640W        W77176  38.940  26.121  12.973
17641W        W77177  43.931  13.671  14.830
17642W        W77178  20.631  40.802  11.908
17643W        W77179  18.183   6.235   4.605
17644W        W77180  42.818  13.322   3.311
17645W        W77181  28.003  10.310   1.894
17646W        W77182  24.153   9.258  14.295
17647W        W77183   0.941  22.739  14.892
17648W        W77184   5.934  18.661   0.897
17649W        W77185  13.653  16.706   4.210
17650W        W77186   5.313  28.117   3.325
17651W        W77187  22.676   3.932  11.497
17652W        W77188  40.952  21.204  13.051
17653W        W77189   9.261  14.120   1.860
17654W        W77190  13.314  15.800  11.407
17655W        W77191   8.400  42.523   1.360
17656W        W77192  12.758  44.925   1.393
17657W        W77193  12.350  27.641  12.846
17658W        W77194  30.159  14.199  14.928
17659W        W77195  21.552  34.500  13.926
17660W        W77196  10.785  42.298   2.667
17661W        W77197  32.470  34.491   1.903
17662W        W77198  34.394   7.798  13.974
17663W        W77199  21.017  10.331   1.848
17664W        W77200  44.449   7.213  12.486
17665W        W77201  43.982  15.704  10.549
17666W        W77202  37.398  10.276  13.514
17667W        W77203  37.451  24.600  14.502
17668W        W77204   7.836   0.791   3.371
17669W        W77205  14.673  43.905   2.243
17670W        W77206  39.440   1.886   4.727
17671W        W77207  40.900  16.157   2.853
17672W        W77208   0.369  12.617  14.784
17673W        W77209  39.404   2.386   1.447
17674W        W77210  21.056  41.314  12.955
17675W        W77211  10.185   2.425   3.373
17676W        W77212  44.265  23.131  11.944
17677W        W77213  26.690  41.308  14.802
17678W        W77214  38.044  14.770  12.509
17679W        W77215   4.942  18.177  12.912
17680W        W77216  25.094  23.548   2.283
17681W        W77217  12.201  38.820   4.228
17682W        W77218  20.030  25.029   1.812
17683W        W77219   2.299  22.051  11.026
17684W        W77220  28.451  18.072   0.323
17685W        W77221   4.233   6.699  14.790
17686W        W77222  14.295  18.557   0.858
17687W        W77223  13.218  20.634   3.294
17688W        W77224   9.759  31.127  13.458
17689W        W77225   3.952   5.917  12.840
17690W        W77226  24.563  44.969  14.501
17691W        W77227  13.661  44.857  11.122
17692W        W77228  39.485  30.098  10.540
17693W        W77229  20.753  38.060  13.504
17694W        W77230   1.875  17.747   2.178
17695W        W77231  27.943  42.435  11.054
17696W        W77232  31.052   7.892  14.433
17697W        W77233   3.274   8.734  12.923
17698W        W77234  43.422  38.949  14.421
17699W        W77235   0.451   0.384  10.584
17700W        W77236  38.876  42.311  10.542
17701W        W77237  28.027  30.094  14.020
17702W        W77238   7.804  22.671   2.875
17703W        W77239   3.313  19.203  13.518
17704W        W77240   0.329  21.546  13.817
17705W        W77241  43.776   4.940   4.607
17706W        W77242  27.023  28.677  13.850
17707W        W77243  21.661  36.942   3.802
17708W        W77244   7.278  36.051   4.614
17709W        W77245  34.454  25.701  11.568
17710W        W77246  25.163  12.323   2.338
17711W        W77247  41.993  12.786   1.882
17712W        W77248  25.565  32.518   0.286
17713W        W77249  16.214  10.728   0.244
17714W        W77250  11.766  30.572  11.517
17715W        W77251   0.809  40.010   3.668
17716W        W77252   4.420  26.578  10.620
17717W        W77253  13.161  36.400   4.213
17718W        W77254  35.081  18.600  12.890
17719W        W77255  24.024  37.931  14.494
17720W        W77256  42.307  23.991   1.283
17721W        W77257  16.287   6.364  13.489
17722W        W77258   6.755  27.984   4.331
17723W        W77259  24.052  14.667   4.695
17724W        W77260   2.948  20.099   0.909
17725W        W77261  35.416  11.692   2.178
17726W        W77262  41.389   2.739   1.417
17727W        W77263  22.669  19.195  12.534
17728W        W77264  29.563   1.925  14.466
17729W        W77265  12.800  39.887   1.433
17730W        W77266  22.081   6.196   0.941
17731W        W77267  39.933  39.476   2.355
17732W        W77268  15.637  38.430  11.531
17733W        W77269  12.733  42.379  11.054
17734W        W77270  13.300  28.566   3.204
17735W        W77271  35.580  20.148   4.714
17736W        W77272  22.090   3.733  14.968
17737W        W77273  42.297  38.444  11.856
17738W        W77274  44.342  30.945   4.750
17739W        W77275  42.979  41.872  14.784
17740W        W77276  13.138  13.615   1.739
17741W        W77277  34.611  31.422   3.382
17742W        W77278  32.535  33.450  12.533
17743W        W77279  33.086  14.738  14.419
17744W        W77280   6.281  30.000   0.246
17745W        W77281  44.322  15.674   1.279
17746W        W77282   2.343  12.145   1.372
17747W        W77283  16.129  15.294  14.353
17748W        W77284  31.082  12.267   3.870
17749W        W77285  36.079  37.509  14.940
17750W        W77286   4.936  39.948   1.931
17751W        W77287  40.904   3.403   2.691
17752W        W77288   0.976  12.750   0.960
17753W        W77289  25.492  28.050  11.490
17754W        W77290  21.637  40.419   1.412
17755W        W77291  43.972   6.265   0.423
17756W        W77292  17.214  22.635   1.723
17757W        W77293  34.433  33.073   3.682
17758W        W77294  42.906  25.200   4.777
17759W        W77295  38.555  10.139  13.336
17760W        W77296  14.134  13.128   3.188
17761W        W77297  29.651  13.754  12.043
17762W        W77298   6.867  28.983   0.871
17763W        W77299  27.972  31.644   3.165
17764W        W77300  40.530   0.782   3.366
17765W        W77301   8.656  39.323  13.887
17766W        W77302  34.548  35.557  12.391
17767W        W77303  28.486  34.048   2.814
17768W        W77304  39.384  42.363  13.903
17769W        W77305  42.474  42.320  10.950
17770W        W77306  20.031   2.376   0.294
17771W        W77307  12.728  34.002  12.041
17772W        W77308   4.803  14.593  12.422
17773W        W77309  26.006   0.340  14.471
17774W        W77310   1.432  31.093   4.702
17775W        W77311  30.564  17.639   3.681
17776W        W77312  17.284  27.067   2.812
17777W        W77313   4.360  34.601   1.390
17778W        W77314  34.880  42.003   1.874
17779W        W77315  14.723   8.704  10.940
17780W        W77316   4.938  11.650   1.757
17781W        W77317  17.207  31.099   4.658
17782W        W77318  36.950  37.556   1.827
17783W        W77319   4.913  25.615   4.196
17784W        W77320  36.041   0.491  13.977
17785W        W77321  14.265  16.259  12.892
17786W        W77322  38.021  34.056  13.439
17787W        W77323   7.675  37.963  11.118
17788W        W77324  25.031  33.573   3.834
17789W        W77325   6.920  40.424  14.909
17790W        W77326  24.120  12.760  10.592
17791W        W77327  17.765  12.342  13.845
17792W        W77328  36.930  33.979   2.843
17793W        W77329  27.479  29.105  11.566
17794W        W77330   2.807  23.104   2.839
17795W        W77331  35.067  43.941   1.398
17796W        W77332  39.030  24.674  10.555
17797W        W77333  13.769  19.542   0.937
17798W        W77334  18.652  18.223  11.514
17799W        W77335  12.615  44.419  12.851
17800W        W77336  27.096  30.100  10.989
17801W        W77337  43.782  10.167  14.426
17802W        W77338  18.776  11.268   4.700
17803W        W77339  27.110  12.121   2.333
17804W        W77340  19.069  19.195   9.569
17805W        W77341  10.284  38.392  10.137
17806W        W77342  39.538  30.565   1.356
17807W        W77343   3.752  19.651   1.841
17808W        W77344  16.582  18.067  12.071
17809W        W77345  44.441  38.060  11.089
17810W        W77346  28.979  13.309   4.787
17811W        W77347  36.899  42.937   3.284
17812W        W77348  12.304  33.050  14.400
17813W        W77349  10.353  30.104   3.217
17814W        W77350  32.122  37.365  13.333
17815W        W77351   0.871   2.927  11.486
17816W        W77352  29.921  18.140  11.967
17817W        W77353  39.864  23.573   4.314
17818W        W77354  16.791  19.548   1.744
17819W        W77355  15.306  19.732   1.411
17820W        W77356  27.551  28.018   1.417
17821W        W77357  32.597  33.388  13.906
17822W        W77358  34.873  29.641  11.436
17823W        W77359  26.053  18.280   2.193
17824W        W77360   5.877  40.893   4.784
17825W        W77361  28.534   4.324  11.465
17826W        W77362  33.613  24.048  11.930
17827W        W77363  36.012  13.172   5.217
17828W        W77364  12.802  27.979   9.616
17829W        W77365  29.660  21.057  11.466
17830W        W77366   9.208   6.374  14.459
17831W        W77367  31.960  26.636  13.404
17832W        W77368  43.450  42.023   0.332
17833W        W77369  29.070  32.044  14.443
17834W        W77370  36.951  14.651   3.357
17835W        W77371  25.552  15.285   5.796
17836W        W77372   2.725  14.746   0.727
17837W        W77373  43.453  13.794  14.833
17838W        W77374  23.073  33.087  13.317
17839W        W77375  32.066  44.381   1.901
17840W        W77376  24.571   1.934   1.777
17841W        W77377   7.750   4.260  10.600
17842W        W77378   0.299  21.072   0.768
17843W        W77379  19.579  29.578  11.603
17844W        W77380  18.553   5.877  12.393
17845W        W77381   3.733   2.432  13.424
17846W        W77382  24.499  36.983  12.576
17847W        W77383  12.684  44.389   2.240
17848W        W77384  17.231  41.939   1.386
17849W        W77385  35.104  14.778  12.933
17850W        W77386  36.363  17.079  12.874
17851W        W77387  38.351   7.824  11.072
17852W        W77388  40.409   0.906  14.330
17853W        W77389   5.829   7.233  13.460
17854W        W77390   3.745  30.466   0.820
17855W        W77391   7.878  24.070   3.222
17856W        W77392  16.580  36.941   1.261
17857W        W77393  40.447   4.926   1.441
17858W        W77394  25.527  44.365   4.239
17859W        W77395   9.181  40.492  14.320
17860W        W77396   5.744  42.471   4.177
17861W        W77397  10.324  19.738   0.850
17862W        W77398  44.407  14.197  11.015
17863W        W77399  29.957  36.355  12.844
17864W        W77400   4.785  39.318  12.550
17865W        W77401  34.024  31.006  12.514
17866W        W77402  17.773  32.569   0.379
17867W        W77403  37.927  26.648  13.495
17868W        W77404  38.894  14.676  13.482
17869W        W77405  16.221  37.003  13.432
17870W        W77406  27.950   0.298  10.592
17871W        W77407  31.582  35.526   3.157
17872W        W77408  31.419  44.878  10.969
17873W        W77409  38.479  32.060   4.118
17874W        W77410  37.372  36.018  13.891
17875W        W77411   8.331  21.676   3.766
17876W        W77412   6.368  16.637  12.543
17877W        W77413  29.516  17.174  10.417
17878W        W77414  26.955   7.293  11.569
17879W        W77415  25.639   9.844   0.819
17880W        W77416   3.303  43.413   4.648
17881W        W77417   1.790  17.717  13.893
17882W        W77418  32.551   6.238   9.951
17883W        W77419  18.696  15.721  12.380
17884W        W77420  41.532   5.884   4.202
17885W        W77421  11.715  40.830  13.966
17886W        W77422   4.933  14.261  10.596
17887W        W77423  20.221  34.425   1.727
17888W        W77424  43.971   1.820  11.099
17889W        W77425   1.241   9.253   3.171
17890W        W77426   2.856  39.552  10.488
17891W        W77427  36.934  43.985   2.239
17892W        W77428  31.933  12.287   4.785
17893W        W77429  32.960  32.460   1.279
17894W        W77430  16.648  34.077   3.301
17895W        W77431  31.983  33.006   4.628
17896W        W77432   0.337   9.222   4.161
17897W        W77433  15.199  25.191  12.904
17898W        W77434   3.313   0.823   1.298
17899W        W77435  15.632   4.738  10.425
17900W        W77436  21.583   0.294  13.412
17901W        W77437  29.060  33.612  13.814
17902W        W77438  37.022  42.490  12.491
17903W        W77439  11.770  34.106  11.011
17904W        W77440   2.863  26.635   0.310
17905W        W77441   0.248  11.283  12.510
17906W        W77442  20.533  19.084   0.427
17907W        W77443  33.432  35.582   2.321
17908W        W77444  17.255  25.709  14.877
17909W        W77445   9.871  10.377   1.854
17910W        W77446  37.868  40.803  11.433
17911W        W77447  37.868  31.576   4.790
17912W        W77448  14.254  21.145  14.395
17913W        W77449   7.849  41.517  11.432
17914W        W77450  29.460   3.457  14.802
17915W        W77451  35.875  35.006   2.289
17916W        W77452  10.269  15.674   2.809
17917W        W77453   9.288  20.053   0.244
17918W        W77454  17.300  20.600  11.876
17919W        W77455  21.752  37.581   0.374
17920W        W77456   9.816  20.582  11.970
17921W        W77457   2.344  10.255  10.965
17922W        W77458  21.640   2.298   4.304
17923W        W77459   0.386  26.482   0.315
17924W        W77460  21.607  13.813   0.810
17925W        W77461  39.994  41.348   0.387
17926W        W77462   2.958  33.950  11.594
17927W        W77463  22.084  15.815  11.976
17928W        W77464  13.794  31.442  11.899
17929W        W77465  18.132  15.307  11.467
17930W        W77466  10.844   2.318  11.405
17931W        W77467  26.032   1.317  14.397
17932W        W77468  28.445   3.426  11.104
17933W        W77469   1.926   3.877  14.294
17934W        W77470  31.460  42.919  10.575
17935W        W77471  27.184   2.935  13.980
17936W        W77472  15.192  12.257  10.555
17937W        W77473  36.475  12.778   1.696
17938W        W77474  17.171  14.606  10.505
17939W        W77475  28.033   2.789  14.458
17940W        W77476   3.255  42.784   0.880
17941W        W77477   6.259  41.316  10.920
17942W        W77478  41.984   1.471  13.877
17943W        W77479  31.427  22.547  10.922
17944W        W77480   2.866  12.122   4.618
17945W        W77481   3.940  38.929  13.910
17946W        W77482   6.917  19.178   4.177
17947W        W77483   9.244  19.650   4.328
17948W        W77484  32.563  42.933  13.416
17949W        W77485  26.479  24.653   5.164
17950W        W77486  40.411  43.472  12.082
17951W        W77487   2.947   7.236  14.020
17952W        W77488   7.685  35.574   2.855
17953W        W77489  30.981  25.114  14.980
17954W        W77490  15.100  35.514   0.961
17955W        W77491  40.807  11.251   2.902
17956W        W77492  37.087  37.418   0.256
17957W        W77493  40.500  15.119  10.573
17958W        W77494   5.885   4.943   3.349
17959W        W77495  29.496   5.878  12.078
17960W        W77496  43.799  44.448   3.671
17961W        W77497  19.774  21.152   1.756
17962W        W77498   1.325  24.632   1.822
17963W        W77499  16.567  11.255  11.018
17964W        W77500  23.591  21.706   2.298
17965W        W77501  23.084  18.291   2.774
17966W        W77502   0.943  12.310   1.316
17967W        W77503  28.157  44.393   5.312
17968W        W77504   4.306   0.934  14.401
17969W        W77505  39.381  13.639  14.895
17970W        W77506  24.690  35.098   4.663
17971W        W77507  35.919  26.077   3.222
17972W        W77508   3.402   3.361   3.355
17973W        W77509   6.418   1.376   1.758
17974W        W77510  14.816  29.554  12.936
17975W        W77511  11.690   8.316  12.541
17976W        W77512  19.153  10.293  12.061
17977W        W77513  22.553  40.854  11.035
17978W        W77514  20.733  35.052   3.375
17979W        W77515  31.435  27.560   2.413
17980W        W77516   3.741  18.716  11.438
17981W        W77517  16.758  41.941   3.367
17982W        W77518  20.659   2.235  14.462
17983W        W77519  24.665  36.543  12.843
17984W        W77520  35.983  31.470  14.829
17985W        W77521  24.028  15.104   1.419
17986W        W77522  28.522  14.716  12.868
17987W        W77523   6.796  38.870   4.322
17988W        W77524  13.706  20.042   3.363
17989W        W77525  36.443  11.808  14.305
17990W        W77526  12.175  39.862   4.731
17991W        W77527   5.715  36.872   2.719
17992W        W77528  43.993  31.944   2.678
17993W        W77529  26.576   2.862   2.853
17994W        W77530  22.635   0.450   2.823
17995W        W77531  35.435  20.750  14.008
17996W        W77532   6.314  23.554  11.042
17997W        W77533  37.365  12.205  12.507
17998W        W77534   9.807  13.194  11.508
17999W        W77535  13.231  29.506   4.228
18000W        W77536  21.570   8.876  12.016
18001W        W77537  18.762   4.774   0.397
18002W        W77538  23.496   8.255  12.507
18003W        W77539  27.566   7.318  10.904
18004W        W77540  17.619  22.625   1.831
18005W        W77541  10.762  16.099  14.978
18006W        W77542  34.046  29.546  13.325
18007W        W77543  39.850   9.865  12.424
18008W        W77544  38.929   0.468   3.673
18009W        W77545  18.267  19.284  13.445
18010W        W77546   3.431  27.180  14.445
18011W        W77547  25.996  13.109  13.345
18012W        W77548  36.842  14.661   2.256
18013W        W77549  17.192  10.154   3.292
18014W        W77550  38.387  37.070   4.224
18015W        W77551  12.640  31.923  10.976
18016W        W77552  14.697   6.393   3.662
18017W        W77553  15.580  29.647  12.979
18018W        W77554  10.766  27.081   2.793
18019W        W77555   8.388  41.863   4.142
18020W        W77556   1.427  37.996  14.449
18021W        W77557   7.336  36.491   2.825
18022W        W77558   0.281   1.379   4.785
18023W        W77559  18.773  41.886   0.887
18024W        W77560  23.227  18.192   5.616
18025W        W77561   6.865  22.145   4.643
18026W        W77562   7.732  28.944   1.274
18027W        W77563  43.848  37.047  10.564
18028W        W77564  26.024   0.848   4.732
18029W        W77565  18.668  42.836  10.131
18030W        W77566  36.555   3.733   0.947
18031W        W77567  12.203  42.459  11.491
18032W        W77568  33.585  43.396   0.402
18033W        W77569   3.813  34.595   1.899
18034W        W77570   1.914  24.629  12.953
18035W        W77571  43.838  24.587  12.347
18036W        W77572  39.053  14.098  13.962
18037W        W77573   9.334  21.670   3.667
18038W        W77574  12.853  18.157   4.806
18039W        W77575  35.472   2.766  14.378
18040W        W77576   5.873  38.441   2.758
18041W        W77577  17.114   3.320  12.870
18042W        W77578   7.695  38.488  13.872
18043W        W77579  18.230  24.576  13.528
18044W        W77580  11.743  38.875  10.145
18045W        W77581   1.747   5.401   2.337
18046W        W77582  20.760  22.183   3.711
18047W        W77583  18.093   4.402  10.911
18048W        W77584   2.729  29.632   1.350
18049W        W77585  39.336   6.872  12.921
18050W        W77586   5.315  25.189   3.301
18051W        W77587  31.036  32.059  10.975
18052W        W77588  25.540  24.072   3.238
18053W        W77589  30.594  28.935  12.054
18054W        W77590   0.875  15.256  10.023
18055W        W77591  31.628   6.381   3.852
18056W        W77592  15.113  34.889   1.743
18057W        W77593  29.654  31.902   0.946
18058W        W77594  13.833   8.693  11.062
18059W        W77595   5.930  18.702  14.319
18060W        W77596  12.684  28.101   3.295
18061W        W77597   5.415   0.276  14.336
18062W        W77598  21.062  23.211  10.538
18063W        W77599  43.339  43.800   4.666
18064W        W77600   9.819  38.068  12.940
18065W        W77601  17.272   1.756  14.334
18066W        W77602  27.153  38.986   1.852
18067W        W77603  16.161   2.959   1.279
18068W        W77604  20.229   8.668  11.904
18069W        W77605   4.259  24.511   4.281
18070W        W77606   5.245  31.091  12.931
18071W        W77607  38.412  12.763  13.514
18072W        W77608  12.134  15.692   4.283
18073W        W77609  28.141  14.188  14.831
18074W        W77610  17.798   4.418   1.314
18075W        W77611  15.760  27.074   0.966
18076W        W77612  38.878  38.406  14.002
18077W        W77613  21.021   5.303   5.257
18078W        W77614  17.132  22.134   4.780
18079W        W77615  35.896  15.665   3.764
18080W        W77616  25.580  40.399  12.383
18081W        W77617  39.832  44.980   0.775
18082W        W77618  35.100  16.739   0.775
18083W        W77619  34.885  11.746  10.931
18084W        W77620  37.935  43.499   9.502
18085W        W77621  19.119  19.053   2.786
18086W        W77622  21.046  24.714  10.624
18087W        W77623   3.236   4.250  13.986
18088W        W77624   4.356   1.746   3.318
18089W        W77625  33.024  22.024   4.302
18090W        W77626  17.651  17.646   2.366
18091W        W77627  11.623  21.201  10.436
18092W        W77628  14.604  26.134   0.278
18093W        W77629  33.911  15.645   1.779
18094W        W77630  21.098  42.489  14.915
18095W        W77631  27.447  13.789  11.477
18096W        W77632  23.190   6.384  10.026
18097W        W77633  23.564  17.649   5.291
18098W        W77634  14.290  28.459  12.402
18099W        W77635  18.255  28.993  11.076
18100W        W77636  14.714   3.428  12.457
18101W        W77637   6.423  37.030   0.274
18102W        W77638  26.554  42.402  11.409
18103W        W77639  25.113  36.933   4.281
18104W        W77640  39.539   1.848   5.112
18105W        W77641  43.373   4.934  14.440
18106W        W77642  40.865  27.562  11.391
18107W        W77643  40.867  44.790  14.320
18108W        W77644  32.894  20.733  12.459
18109W        W77645  44.408  32.120   0.797
18110W        W77646   4.226   8.248  14.900
18111W        W77647  22.178  33.093   1.822
18112W        W77648   6.888  21.591   4.711
18113W        W77649  17.252  18.665   5.737
18114W        W77650   6.689  26.459   2.415
18115W        W77651  26.183   9.862  10.442
18116W        W77652  26.192  19.725   1.802
18117W        W77653  29.956  12.650   3.712
18118W        W77654  11.779   8.685  14.761
18119W        W77655  11.189  24.001  11.959
18120W        W77656  42.342   7.787  12.040
18121W        W77657  23.623  10.303  13.527
18122W        W77658  17.789  17.124   0.781
18123W        W77659  12.663  10.812   1.342
18124W        W77660  13.323  30.982  13.933
18125W        W77661   4.801   6.897  10.025
18126W        W77662  24.164  18.267   1.320
18127W        W77663  22.180  26.471   1.848
18128W        W77664  32.595  39.048   2.807
18129W        W77665  44.448  33.035   3.869
18130W        W77666  43.829  37.080  11.450
18131W        W77667  10.208   2.763   9.938
18132W        W77668  43.874  11.747  10.617
18133W        W77669  39.993   4.263   1.377
18134W        W77670  13.742  41.836   1.750
18135W        W77671  37.059   4.745  14.494
18136W        W77672  43.498   8.782   3.850
18137W        W77673  44.452  44.759  14.284
18138W        W77674   7.805  41.451   2.856
18139W        W77675  20.618  29.005   2.415
18140W        W77676  41.809   1.480   0.330
18141W        W77677  41.039  27.946  11.424
18142W        W77678  15.268   5.331  11.078
18143W        W77679  20.690  39.832   0.782
18144W        W77680   9.316  25.582   9.480
18145W        W77681   3.940   1.948   0.928
18146W        W77682   4.805  24.707  11.601
18147W        W77683  39.315  15.789   0.330
18148W        W77684   4.770   3.459   9.932
18149W        W77685  33.531  23.734   1.803
18150W        W77686  10.352  25.156  12.027
18151W        W77687  22.640  24.562  13.887
18152W        W77688  44.007  23.561   2.809
18153W        W77689  21.046  23.002   2.694
18154W        W77690  12.220  41.803  11.388
18155W        W77691  18.704   8.217   2.820
18156W        W77692   7.210  23.568   2.873
18157W        W77693   0.768  28.517   3.150
18158W        W77694   7.687  20.622   3.790
18159W        W77695  27.530   7.685  13.960
18160W        W77696   2.228  35.981   0.728
18161W        W77697  40.302  25.665  13.456
18162W        W77698  27.576  32.125  12.538
18163W        W77699  36.551  36.029   2.874
18164W        W77700  28.178   2.230   3.244
18165W        W77701  40.823  11.262  10.101
18166W        W77702  19.592  22.661   2.335
18167W        W77703   3.761  28.504   1.922
18168W        W77704  27.083  20.110   4.751
18169W        W77705  39.460  16.689  14.411
18170W        W77706   8.379  44.433  13.363
18171W        W77707  10.375  21.179  12.039
18172W        W77708  20.628  24.214  12.481
18173W        W77709   7.856  18.292  14.013
18174W        W77710  31.581  26.624  11.976
18175W        W77711   5.756   4.892   0.249
18176W        W77712   1.292  34.993   3.759
18177W        W77713   9.337  21.146  12.021
18178W        W77714  20.078  44.490  10.928
18179W        W77715  14.337  14.714   1.781
18180W        W77716  27.985  43.886   3.751
18181W        W77717  41.935  20.092  14.380
18182W        W77718   0.248  22.194   0.388
18183W        W77719   2.746  19.114   2.678
18184W        W77720  30.989  29.114  11.597
18185W        W77721  11.768   7.360  12.918
18186W        W77722   4.385  24.139   1.235
18187W        W77723  27.176  24.484   2.417
18188W        W77724  18.210  24.663   4.239
18189W        W77725  21.101  36.031   3.802
18190W        W77726  32.501   3.234  11.861
18191W        W77727  14.816   3.429   0.873
18192W        W77728  23.001   8.768   0.803
18193W        W77729  21.698  24.012  12.426
18194W        W77730  15.694   7.845   2.186
18195W        W77731  25.070  39.358  11.003
18196W        W77732  40.391  25.977  10.931
18197W        W77733   6.678   0.959   1.397
18198W        W77734   7.388  36.842  14.783
18199W        W77735  39.007  23.027   3.267
18200W        W77736  33.111   5.712  12.414
18201W        W77737  33.409  44.818   3.837
18202W        W77738  32.991  24.041   0.286
18203W        W77739  41.318  11.248  12.868
18204W        W77740  39.856  26.503   3.721
18205W        W77741  40.353   6.862  14.869
18206W        W77742   2.324  21.038  13.039
18207W        W77743   1.270  17.557  14.347
18208W        W77744   7.765   8.722   0.296
18209W        W77745  27.629   4.347  10.473
18210W        W77746  24.647  31.454  11.896
18211W        W77747   9.747   1.789  10.961
18212W        W77748   6.382  33.551   4.190
18213W        W77749  13.656  44.340  13.903
18214W        W77750  39.479  26.583   3.771
18215W        W77751  25.042  27.616   0.825
18216W        W77752  32.416  24.714   0.729
18217W        W77753   2.927   2.230  10.474
18218W        W77754  44.396  30.477   0.368
18219W        W77755  22.067  27.951   2.730
18220W        W77756   0.348  32.396   0.964
18221W        W77757  21.715  32.580   0.333
18222W        W77758  10.858  24.111  13.439
18223W        W77759  27.027  20.661   1.699
18224W        W77760  14.171  35.445  14.466
18225W        W77761  30.929   4.856   0.902
18226W        W77762  39.946  13.688  11.999
18227W        W77763  39.963  29.986   0.413
18228W        W77764  22.696   2.761  12.432
18229W        W77765  19.691  12.246  12.054
18230W        W77766   2.880  18.068  13.880
18231W        W77767  27.491  32.045   3.242
18232W        W77768  39.409  32.044  10.017
18233W        W77769  17.624   1.936  11.986
18234W        W77770  17.760  19.700  11.600
18235W        W77771  27.079   5.690   2.793
18236W        W77772  27.990   9.326  14.441
18237W        W77773  42.905  10.677   4.330
18238W        W77774  44.901  27.137  11.972
18239W        W77775  14.145  22.598   2.291
18240W        W77776  27.099  11.807  10.518
18241W        W77777  35.019  26.206  12.021
18242W        W77778  26.655   6.206   0.863
18243W        W77779  15.112  27.457   2.838
18244W        W77780   2.335  27.980  13.439
18245W        W77781  34.898   6.886   3.757
18246W        W77782   7.376   4.911  14.792
18247W        W77783  12.149  38.845  13.867
18248W        W77784  13.166  12.229  10.506
18249W        W77785  24.659  40.507   4.614
18250W        W77786  30.970  19.200   0.469
18251W        W77787  26.982  35.080   3.751
18252W        W77788  30.093  28.630   0.863
18253W        W77789  30.051  32.095  12.833
18254W        W77790   5.828  40.861   1.921
18255W        W77791   7.272  26.009   3.662
18256W        W77792  11.327  25.489   1.287
18257W        W77793  26.681  38.927   4.314
18258W        W77794  21.719  37.066   3.383
18259W        W77795  36.843   1.293   3.153
18260W        W77796   7.204  31.605  10.416
18261W        W77797  29.940  26.608   2.283
18262W        W77798  38.044  35.013  10.548
18263W        W77799  28.077  38.887   0.373
18264W        W77800  10.811  28.065   2.305
18265W        W77801  39.924  25.673   0.802
18266W        W77802   9.156   7.265  13.486
18267W        W77803  31.562  10.878  11.608
18268W        W77804  43.861  25.525   5.132
18269W        W77805  28.116  35.964  14.514
18270W        W77806  14.122  42.898  11.033
18271W        W77807   7.401  30.110  14.414
18272W        W77808  11.811  32.412   0.936
18273W        W77809   6.889  21.122  13.945
18274W        W77810   0.869   0.442   2.234
18275W        W77811   3.328  28.114   2.185
18276W        W77812  22.603  37.869   4.153
18277W        W77813  43.355  33.972   3.794
18278W        W77814   1.437  16.811  12.448
18279W        W77815  28.606  32.067   5.293
18280W        W77816  15.226   9.658   2.888
18281W        W77817  31.951  31.592  14.295
18282W        W77818   9.832  33.483  11.604
18283W        W77819   7.378   4.720  11.028
18284W        W77820  13.615  41.824  11.957
18285W        W77821  36.398  22.038  11.466
18286W        W77822   4.322   2.264   0.914
18287W        W77823  12.649  39.977   4.223
18288W        W77824  35.009   1.327   1.866
18289W        W77825   5.392  15.183   3.265
18290W        W77826  34.405   0.944  14.309
18291W        W77827  14.153   8.680   3.864
18292W        W77828  14.739  33.061   4.633
18293W        W77829   9.198  42.351   1.748
18294W        W77830   8.721  22.051  13.422
18295W        W77831   3.946  10.215   5.115
18296W        W77832  40.423  41.492   4.799
18297W        W77833   2.403  15.095   2.294
18298W        W77834  44.807  20.720  11.949
18299W        W77835  11.845  22.600   5.122
18300W        W77836  17.191  20.253   1.444
18301W        W77837  20.230  40.880   0.359
18302W        W77838  21.575  13.332   0.942
18303W        W77839  30.044  21.195   0.946
18304W        W77840  31.424  11.284   3.820
18305W        W77841   7.809  30.624  14.937
18306W        W77842  18.711  15.179   4.716
18307W        W77843  26.155  14.732   2.217
18308W        W77844  33.417   4.234  13.356
18309W        W77845  20.075  32.561   4.817
18310W        W77846   0.907  16.257  13.502
18311W        W77847  27.529  16.287   0.447
18312W        W77848   8.260  36.511  13.357
18313W        W77849  29.595  29.561  10.558
18314W        W77850  40.896  24.111   0.345
18315W        W77851   9.674   3.827  14.334
18316W        W77852   8.888  10.771  14.339
18317W        W77853  22.735  35.395  14.010
18318W        W77854  28.445   5.260  14.356
18319W        W77855  30.508   6.344   0.746
18320W        W77856   7.302  17.747   4.829
18321W        W77857   1.916  32.437  13.340
18322W        W77858   0.256   5.225  10.419
18323W        W77859   5.234  38.007   1.310
18324W        W77860  27.028  43.298   3.164
18325W        W77861  44.364  26.688   4.716
18326W        W77862  32.486   1.860   1.355
18327W        W77863   5.703  42.849  12.071
18328W        W77864   0.380  11.743   3.177
18329W        W77865   6.702   6.688   3.644
18330W        W77866   9.188  30.075   0.801
18331W        W77867   5.424   8.209   0.841
18332W        W77868  19.059  30.066   0.379
18333W        W77869   6.325  35.390   0.867
18334W        W77870  11.709   3.778  12.828
18335W        W77871  40.512   9.759   1.737
18336W        W77872  21.220  38.503  10.618
18337W        W77873  40.029   8.711  13.988
18338W        W77874  21.717  41.417   2.697
18339W        W77875  13.152  41.333  12.914
18340W        W77876  40.854   8.244  11.876
18341W        W77877   9.179  19.198  10.497
18342W        W77878  29.428  13.632   0.893
18343W        W77879   9.291   4.242   0.965
18344W        W77880   0.884  35.978  13.455
18345W        W77881  29.474   6.738  12.082
18346W        W77882  12.162  27.518   2.313
18347W        W77883  20.718  37.561   1.375
18348W        W77884  22.737  22.688  13.452
18349W        W77885  40.910   6.391  10.502
18350W        W77886  37.914   8.895   4.282
18351W        W77887   5.276  16.255  11.579
18352W        W77888  15.594  27.164  12.517
18353W        W77889  24.116  36.442  11.396
18354W        W77890  32.113  23.101   2.328
18355W        W77891  34.922  38.008   0.799
18356W        W77892  27.469  34.523  13.885
18357W        W77893  16.114  18.781  14.834
18358W        W77894   2.722  15.604   1.233
18359W        W77895   6.678  27.165  14.436
18360W        W77896  23.200  28.932  12.397
18361W        W77897  31.452  37.566  13.059
18362W        W77898  38.893  20.128  12.837
18363W        W77899   6.870  35.057   0.468
18364W        W77900  27.528  44.338  12.340
18365W        W77901  31.066  38.979   3.339
18366W        W77902  23.499  20.614   0.294
18367W        W77903   2.420   6.713   1.754
18368W        W77904  26.125  13.330   1.436
18369W        W77905  37.947  26.637   0.963
18370W        W77906  16.704  24.701  14.780
18371W        W77907   2.261  17.146   3.726
18372W        W77908  30.072  38.357   4.191
18373W        W77909  21.181  36.534  11.974
18374W        W77910  25.016  23.731   2.826
18375W        W77911  34.464  30.044  13.448
18376W        W77912  21.543  11.640   4.742
18377W        W77913   9.690  26.043  14.300
18378W        W77914  34.403  11.197   4.658
18379W        W77915  41.850  39.957  14.980
18380W        W77916  31.406  30.034  13.879
18381W        W77917  34.481  24.637  11.864
18382W        W77918  23.079  35.109  10.898
18383W        W77919   2.940  23.584  14.363
18384W        W77920   8.205  18.557  13.338
18385W        W77921  34.411   0.278  13.966
18386W        W77922  29.041  19.665   4.646
18387W        W77923  14.610  22.648   0.434
18388W        W77924   4.228  41.460  13.972
18389W        W77925  21.236  26.074   0.863
18390W        W77926  15.317  23.110   3.755
18391W        W77927   1.915  39.368  13.862
18392W        W77928  24.086  22.078   2.775
18393W        W77929  39.385  29.037   0.787
18394W        W77930   4.318  31.624   4.194
18395W        W77931  18.558  36.028   0.916
18396W        W77932   8.310   2.375   0.750
18397W        W77933  39.489  16.792  11.486
18398W        W77934  24.161  26.469  12.535
18399W        W77935  34.901  32.555   3.741
18400W        W77936  26.540   5.760  12.439
18401W        W77937  44.783  24.140   2.835
18402W        W77938  42.453  22.225  14.797
18403W        W77939  12.269  17.179  13.365
18404W        W77940  44.978   9.835  11.901
18405W        W77941  36.026   3.823  12.343
18406W        W77942   4.798   5.911  14.761
18407W        W77943   2.823  21.123   2.663
18408W        W77944  43.947  31.533  13.794
18409W        W77945  11.363   0.254  13.838
18410W        W77946  43.336   9.162  12.875
18411W        W77947  38.482   7.262   2.330
18412W        W77948  11.152  18.732  12.567
18413W        W77949  11.257   2.805   0.346
18414W        W77950  26.118  27.086  14.913
18415W        W77951  11.162  25.613  11.931
18416W        W77952  28.596  12.129  12.093
18417W        W77953  43.773   2.236   2.277
18418W        W77954   7.298  12.712   3.813
18419W        W77955  22.242   7.911  13.973
18420W        W77956  37.860   4.790  12.470
18421W        W77957  25.613   3.724  10.898
18422W        W77958  36.939  13.602  10.982
18423W        W77959  40.439  40.011  14.460
18424W        W77960   2.328  39.506  12.513
18425W        W77961   2.235  12.790  12.432
18426W        W77962   1.412  44.268  11.929
18427W        W77963  36.567  27.683  14.991
18428W        W77964  16.084  15.641   2.346
18429W        W77965  29.984  11.300   4.739
18430W        W77966   1.926  28.168  13.038
18431W        W77967  35.891   2.822  12.445
18432W        W77968  24.018  39.941  14.431
18433W        W77969  25.622  15.591   3.247
18434W        W77970   2.851  35.033   3.808
18435W        W77971  27.120  37.558   1.904
18436W        W77972   0.861   1.935   1.260
18437W        W77973   2.259   8.285   3.330
18438W        W77974   9.811  44.855  13.362
18439W        W77975   9.871  33.927  14.429
18440W        W77976  44.904  37.450   4.647
18441W        W77977  32.430   5.706  13.434
18442W        W77978  42.877  27.589  11.609
18443W        W77979  23.207   7.780   4.813
18444W        W77980  16.249  16.282   3.198
18445W        W77981   3.449  44.856  10.528
18446W        W77982  17.642  43.329   3.305
18447W        W77983  43.509  41.922  12.906
18448W        W77984   4.311  16.678  14.313
18449W        W77985  17.732  30.443   0.884
18450W        W77986  36.435  13.295  11.578
18451W        W77987  43.946  27.586   2.885
18452W        W77988  36.349  18.600  12.531
18453W        W77989  13.610  42.930  13.999
18454W        W77990  17.626  23.557  14.767
18455W        W77991  15.171  27.193   2.398
18456W        W77992   7.184  36.031   3.206
18457W        W77993  19.123  33.952   1.736
18458W        W77994   7.186   5.713   3.286
18459W        W77995  18.082  33.974  12.047
18460W        W77996  17.123  30.099  10.100
18461W        W77997  29.630  27.633  10.971
18462W        W77998   1.342  43.459  10.996
18463W        W77999  15.228   1.741   1.785
18464W        W78000  43.329   2.337   4.673
18465W        W78001  22.996  18.562  11.921
18466W        W78002   9.746   8.303  10.907
18467W        W78003  19.235  34.111  12.385
18468W        W78004  30.071  30.056  13.422
18469W        W78005  37.421  10.797  10.931
18470W        W78006  20.058  23.052  14.806
18471W        W78007   5.758  38.878  11.069
18472W        W78008  23.052  28.508  13.538
18473W        W78009  13.241  41.341   4.288
18474W        W78010  42.476  36.481   0.742
18475W        W78011  21.133  14.806   0.929
18476W        W78012  25.060   3.878  10.991
18477W        W78013  26.021  38.414  10.405
18478W        W78014  39.936  26.699   4.136
18479W        W78015  13.771  44.988  11.397
18480W        W78016  33.460  22.150  12.970
18481W        W78017  14.766  20.741  11.099
18482W        W78018  12.762  12.245   4.768
18483W        W78019  31.016  37.083  13.523
18484W        W78020  26.537  33.054  12.858
18485W        W78021  19.131  24.082  12.370
18486W        W78022  24.166  27.683   3.857
18487W        W78023  41.818  34.490  11.914
18488W        W78024  40.933  42.450   0.439
18489W        W78025  20.582  25.998   4.338
18490W        W78026  11.295  21.217   2.268
18491W        W78027  39.402  18.745   1.747
18492W        W78028   3.285  15.157  10.895
18493W        W78029   8.767   1.477  10.430
18494W        W78030  37.912   9.319   0.464
18495W        W78031  11.148  23.711   3.687
18496W        W78032  25.618  19.536   1.838
18497W        W78033  37.878  28.559   4.655
18498W        W78034  29.459  22.603   5.289
18499W        W78035  32.580  41.315  14.825
18500W        W78036  42.392  43.392   3.798
18501W        W78037   5.246  29.658  11.503
18502W        W78038  43.797  17.698  12.053
18503W        W78039  27.156  39.523  11.950
18504W        W78040  15.750   9.689  14.410
18505W        W78041  30.500  12.128  14.383
18506W        W78042  13.804   3.254  10.891
18507W        W78043  28.568  22.655   4.180
18508W        W78044  17.114  28.656   9.999
18509W        W78045  12.137   5.722   5.245
18510W        W78046   8.380  14.604  11.583
18511W        W78047  18.636   8.798   0.887
18512W        W78048  26.543  30.488  11.863
18513W        W78049  36.458  13.831   0.731
18514W        W78050  25.675  24.605  14.780
18515W        W78051   5.273  30.129   1.799
18516W        W78052  19.065  18.753   4.166
18517W        W78053  42.462  24.606  14.306
18518W        W78054  36.426  15.783  12.519
18519W        W78055   8.239  41.857  13.838
18520W        W78056  30.034  24.988   9.439
18521W        W78057  15.324  41.411  13.320
18522W        W78058   3.838  15.200  12.895
18523W        W78059  42.507   1.951   2.302
18524W        W78060  19.041  42.355  11.889
18525W        W78061  36.499   4.890  12.953
18526W        W78062  24.661  34.038  14.510
18527W        W78063   5.221  25.677  10.934
18528W        W78064  16.761   5.359   4.335
18529W        W78065  21.100  11.201   2.408
18530W        W78066  38.843  31.938  10.061
18531W        W78067  19.194  21.092   9.956
18532W        W78068  21.667   4.394  12.010
18533W        W78069  23.592  40.306   2.383
18534W        W78070   0.876  28.434  11.434
18535W        W78071  32.902  24.579   0.457
18536W        W78072  14.132  29.599   4.321
18537W        W78073  40.995  10.643  11.994
18538W        W78074  27.692  30.530  12.088
18539W        W78075  12.738  22.711  11.410
18540W        W78076  16.616  11.717   2.232
18541W        W78077   5.235  38.424  12.539
18542W        W78078   1.401   1.909  10.970
18543W        W78079   5.330  15.668  12.860
18544W        W78080  39.538  37.867   2.748
18545W        W78081  13.182  25.104  12.547
18546W        W78082   1.940  10.223  14.827
18547W        W78083  14.630   9.697   1.367
18548W        W78084  42.030  20.207   1.344
18549W        W78085  43.372  16.811   0.482
18550W        W78086   5.355  29.945  14.925
18551W        W78087  38.330   7.242  14.370
18552W        W78088  25.014   0.491  14.991
18553W        W78089  19.242  20.093  14.349
18554W        W78090  34.095  43.359  13.027
18555W        W78091  33.513  34.462   2.781
18556W        W78092  17.613   9.664   1.451
18557W        W78093  17.638   3.361   0.791
18558W        W78094  42.928   3.309   3.194
18559W        W78095  17.138   9.301  12.516
18560W        W78096  29.171   4.713  10.603
18561W        W78097   2.244  30.465   2.241
18562W        W78098  30.971  23.220   2.209
18563W        W78099  22.113  12.708  12.392
18564W        W78100  43.285  33.881  14.346
18565W        W78101  31.133   0.973   1.782
18566W        W78102  14.620  17.781  10.440
18567W        W78103  15.807   6.326   1.341
18568W        W78104  24.056  31.045   3.276
18569W        W78105  42.947  44.443   0.352
18570W        W78106  18.603  23.594   4.785
18571W        W78107  41.803  26.530  10.952
18572W        W78108   1.904  16.613  10.610
18573W        W78109  20.137  37.445  11.001
18574W        W78110  29.052  37.407   2.783
18575W        W78111   2.764  25.529  12.921
18576W        W78112  15.292  17.674  11.110
18577W        W78113   7.865   2.339   4.307
18578W        W78114  43.812  30.628  12.574
18579W        W78115  39.835  16.712  12.572
18580W        W78116   7.893  31.428  14.433
18581W        W78117  39.973  12.195   1.881
18582W        W78118  16.731  40.987  12.868
18583W        W78119  42.836  32.099  10.412
18584W        W78120  30.593  32.561   2.273
18585W        W78121  18.159  23.683  14.430
18586W        W78122   3.716  43.874  14.405
18587W        W78123  43.486  33.397   4.163
18588W        W78124  37.545   2.292  14.336
18589W        W78125   2.307  26.200   2.212
18590W        W78126   5.400  30.600  11.032
18591W        W78127  43.389   4.798  10.061
18592W        W78128  27.146  26.655  10.625
18593W        W78129   5.855  22.668   0.813
18594W        W78130  10.711  40.543  12.475
18595W        W78131   6.720  25.513  14.491
18596W        W78132  22.180  37.989  12.449
18597W        W78133  26.568  32.066   0.397
18598W        W78134  12.701   2.942  14.868
18599W        W78135   6.737   5.411   1.934
18600W        W78136  30.965   8.686  14.506
18601W        W78137  22.711  29.933  11.026
18602W        W78138  36.451   6.915  13.485
18603W        W78139  10.291   0.943   1.770
18604W        W78140  40.960  31.126   4.124
18605W        W78141  16.267  12.619   4.760
18606W        W78142  15.132   7.694   2.874
18607W        W78143  38.015   4.800  11.119
18608W        W78144  35.494  31.618   4.624
18609W        W78145  29.668  22.512  10.890
18610W        W78146  32.127  44.316   2.371
18611W        W78147  43.305  13.149  14.400
18612W        W78148  22.015  40.834  10.946
18613W        W78149  44.863  39.841  11.910
18614W        W78150  38.374  38.952   1.838
18615W        W78151  36.390   7.275   0.419
18616W        W78152  41.413  25.548  12.518
18617W        W78153  15.158   6.185  11.855
18618W        W78154   8.890  23.540  14.782
18619W        W78155  13.687  27.600  12.408
18620W        W78156  41.042  44.449  13.379
18621W        W78157  40.877  25.969  14.328
18622W        W78158   9.671  33.112   0.968
18623W        W78159   9.357   9.312   1.335
18624W        W78160  11.223  44.301   0.301
18625W        W78161  27.077  29.149  12.462
18626W        W78162  30.966  28.579  12.530
18627W        W78163  21.531  23.077   2.697
18628W        W78164  13.794  31.570   0.346
18629W        W78165   2.293   4.341  14.789
18630W        W78166  32.073  28.101   3.780
18631W        W78167   5.770   7.188  12.831
18632W        W78168  27.188  21.112  14.963
18633W        W78169  28.617  25.209  13.432
18634W        W78170  16.167  22.639  13.940
18635W        W78171   6.731  30.140  11.050
18636W        W78172  35.558  43.477   2.883
18637W        W78173  21.168   2.837   4.301
18638W        W78174  33.102  32.595   0.362
18639W        W78175  32.960  33.619   2.791
18640W        W78176  26.597  16.641  14.349
18641W        W78177  28.557  38.465   2.213
18642W        W78178  37.888  43.905  10.637
18643W        W78179   4.776  19.725  10.583
18644W        W78180  26.568  23.003   3.352
18645W        W78181  43.394  27.659  11.870
18646W        W78182  39.929  36.846   3.260
18647W        W78183  36.857  39.841  14.920
18648W        W78184   9.803  28.531  13.309
18649W        W78185   4.849  31.619   0.425
18650W        W78186  37.064  36.065  14.860
18651W        W78187  25.026  21.649  13.853
18652W        W78188  14.616  40.463   2.391
18653W        W78189  44.919  24.068   1.880
18654W        W78190  14.210  36.934   4.714
18655W        W78191  38.027   1.793   3.232
18656W        W78192  39.855  20.144  10.962
18657W        W78193  16.651   1.939   2.776
18658W        W78194  30.046   0.966   4.599
18659W        W78195  16.649   1.810  12.358
18660W        W78196  32.119  44.265  14.855
18661W        W78197  17.270  12.194   2.892
18662W        W78198  31.505  14.203   1.770
18663W        W78199  42.329  17.272  10.483
18664W        W78200  21.526  33.089  14.363
18665W        W78201  13.682  20.259   2.256
18666W        W78202  19.227  17.570   2.340
18667W        W78203  22.054  33.429  10.591
18668W        W78204  30.432  30.009  13.402
18669W        W78205   2.411  22.041  11.995
18670W        W78206   2.836  13.153   3.719
18671W        W78207   4.929  26.164  11.588
18672W        W78208   0.352  27.126   4.187
18673W        W78209  15.711  28.559   4.243
18674W        W78210   7.197   4.783   0.870
18675W        W78211  25.668   9.171  12.048
18676W        W78212   7.906   3.766   0.906
18677W        W78213  25.105  19.741  14.957
18678W        W78214   3.804   1.804   3.273
18679W        W78215   9.381   7.723   1.926
18680W        W78216  10.760  20.087  14.299
18681W        W78217  14.337  29.602   2.823
18682W        W78218  38.553  14.269  10.472
18683W        W78219  41.807  19.148   0.774
18684W        W78220   8.805  37.994   3.840
18685W        W78221  26.190  28.541  11.997
18686W        W78222   1.257  31.129  11.916
18687W        W78223  11.231   0.413   0.933
18688W        W78224  23.140   7.278   0.875
18689W        W78225  19.210  26.095   3.269
18690W        W78226   1.424  32.055  10.407
18691W        W78227  10.802  10.191   3.168
18692W        W78228   7.368  39.444  14.399
18693W        W78229  25.172   2.894   3.676
18694W        W78230  32.979  21.090   0.830
18695W        W78231  23.028  41.386   0.317
18696W        W78232   4.909  39.937   3.670
18697W        W78233  40.460  29.924  14.874
18698W        W78234  26.527  18.656  12.374
18699W        W78235  26.628  31.996   3.211
18700W        W78236  12.690  10.356  12.876
18701W        W78237   3.418  28.065  13.062
18702W        W78238   2.313  44.321   0.451
18703W        W78239  15.228   4.375   2.399
18704W        W78240   4.215  38.031   0.348
18705W        W78241  14.264  40.965   0.364
18706W        W78242  40.990  43.382   1.872
18707W        W78243  42.332  14.614   1.348
18708W        W78244  36.868   8.889   0.925
18709W        W78245  25.120  24.612   0.397
18710W        W78246   0.885   9.180  14.513
18711W        W78247  14.728  17.113  10.495
18712W        W78248  10.782  24.542   1.717
18713W        W78249   3.712  35.964   1.899
18714W        W78250  40.331  11.654  11.588
18715W        W78251  31.568  31.618  12.924
18716W        W78252  24.498  43.509  11.869
18717W        W78253  32.931  20.212  12.391
18718W        W78254   3.252   8.782  14.997
18719W        W78255  17.125  16.220  10.977
18720W        W78256   3.724  20.136   4.254
18721W        W78257  31.602  38.954   4.298
18722W        W78258  24.012  39.926   2.409
18723W        W78259  27.687   4.251   0.336
18724W        W78260  23.234  16.133   3.204
18725W        W78261  37.409  44.402  14.973
18726W        W78262  12.736   8.233  12.988
18727W        W78263  30.036  26.567   0.252
18728W        W78264  12.763   1.753  11.452
18729W        W78265  12.685  29.547  11.938
18730W        W78266  29.031  27.972   2.793
18731W        W78267  33.116  41.466  10.526
18732W        W78268  37.895   4.778   0.476
18733W        W78269  38.862  29.991   1.380
18734W        W78270   4.861   9.355   2.245
18735W        W78271  24.567  10.319   0.350
18736W        W78272  28.463  20.524  14.976
18737W        W78273  34.521  12.329   4.685
18738W        W78274   3.394   7.268   0.945
18739W        W78275   8.204  43.459   0.780
18740W        W78276   9.288   4.400  13.354
18741W        W78277  41.505  34.863   2.846
18742W        W78278   0.461  19.199   4.218
18743W        W78279  13.796  35.522  11.409
18744W        W78280  32.547   2.870  12.578
18745W        W78281  18.058  38.956  14.767
18746W        W78282   9.336  42.832   2.398
18747W        W78283  40.933   2.921   0.425
18748W        W78284  11.320  39.326  14.895
18749W        W78285  32.511  22.077   0.303
18750W        W78286  34.970  21.198  13.794
18751W        W78287  44.763   5.428   1.829
18752W        W78288  37.387   9.728   0.739
18753W        W78289   3.248  31.562   4.249
18754W        W78290  37.907  30.043   2.209
18755W        W78291  41.334   8.187  10.513
18756W        W78292   2.415  37.903  14.315
18757W        W78293  25.205  12.768  13.004
18758W        W78294  38.354  17.199   0.320
18759W        W78295  26.149  35.483  13.829
18760W        W78296  18.204  30.112   0.883
18761W        W78297  30.933   0.842  14.282
18762W        W78298   9.182  35.094  11.078
18763W        W78299  32.007  44.479   4.722
18764W        W78300   6.759  42.865   4.342
18765W        W78301  18.563   9.768  13.386
18766W        W78302  32.624  38.820   3.327
18767W        W78303  27.550   5.853   4.645
18768W        W78304  13.764  17.673   4.189
18769W        W78305  13.701  44.824  14.460
18770W        W78306   1.405   1.386  11.928
18771W        W78307  39.536  27.569  11.406
18772W        W78308  11.211  28.661  13.036
18773W        W78309  24.995   2.787  14.514
18774W        W78310  26.055  20.639   4.115
18775W        W78311  37.012  13.201  14.769
18776W        W78312   2.926  35.564   2.789
18777W        W78313  41.902   8.219   4.156
18778W        W78314  43.458  32.080  12.340
18779W        W78315  36.569  39.513  11.058
18780W        W78316   1.889  26.484   0.266
18781W        W78317  38.988  43.815   0.414
18782W        W78318  16.136  35.979  11.561
18783W        W78319  21.677  37.022   4.223
18784W        W78320  31.544  37.425  11.518
18785W        W78321  24.012  15.199   3.663
18786W        W78322  34.056  15.252   4.805
18787W        W78323  36.384   6.892   1.264
18788W        W78324  22.573  15.606  10.628
18789W        W78325  40.430  37.085   1.229
18790W        W78326  14.123  23.513  12.410
18791W        W78327  11.266   7.415  11.037
18792W        W78328  17.632  38.369  12.874
18793W        W78329  42.484  36.521  13.522
18794W        W78330  42.836  13.300   2.414
18795W        W78331  18.061   3.849  11.378
18796W        W78332  22.128   7.718  11.590
18797W        W78333  35.388   6.341   1.907
18798W        W78334  18.233  29.580   2.863
18799W        W78335  10.371  40.398  10.911
18800W        W78336  11.648  35.601  10.955
18801W        W78337  33.941   7.784  11.520
18802W        W78338  20.071  40.001  13.986
18803W        W78339  12.702  10.240   9.935
18804W        W78340  13.634   8.874   2.386
18805W        W78341   1.855  18.550   4.148
18806W        W78342  23.027  32.968  11.444
18807W        W78343  34.911  16.723   4.174
18808W        W78344  29.445  40.052  11.476
18809W        W78345  16.256  20.239   3.224
18810W        W78346  18.648   1.809  11.876
18811W        W78347  41.315  16.632  14.421
18812W        W78348   7.218  38.455   1.782
18813W        W78349   0.314  34.084   1.922
18814W        W78350  35.873  42.887  13.504
18815W        W78351  32.397  10.144   0.445
18816W        W78352   3.441  28.590  11.920
18817W        W78353  29.558  35.015   0.849
18818W        W78354  24.693  34.075  14.810
18819W        W78355   3.332   6.848  10.429
18820W        W78356  37.521  29.665  14.764
18821W        W78357   4.715  15.180  11.445
18822W        W78358   5.436  23.685   9.949
18823W        W78359  37.363  41.903  12.028
18824W        W78360  25.126  10.813  11.533
18825W        W78361  27.628  33.127  11.124
18826W        W78362  32.518  36.372  13.415
18827W        W78363   3.277  23.168   3.214
18828W        W78364  18.787   8.856   4.291
18829W        W78365  39.029  17.305   1.928
18830W        W78366  15.306   1.255   3.664
18831W        W78367  18.145   2.820  11.056
18832W        W78368  14.630  34.060  10.425
18833W        W78369  36.892  39.041   3.783
18834W        W78370  10.140   6.225  12.572
18835W        W78371  27.613  39.528   4.725
18836W        W78372  20.754  14.191  10.924
18837W        W78373  34.450   5.821   0.839
18838W        W78374   5.760   6.819   3.317
18839W        W78375   5.922   7.758  10.552
18840W        W78376  11.221  30.427   4.653
18841W        W78377  16.295  20.184  14.274
18842W        W78378  13.812   0.341  11.980
18843W        W78379  16.221  38.901  12.442
18844W        W78380   7.761  32.102  11.054
18845W        W78381   2.255   2.922   3.316
18846W        W78382  33.418  20.710   4.268
18847W        W78383   1.392  16.623  14.284
18848W        W78384  37.506  13.702  11.456
18849W        W78385  30.642  24.610   3.357
18850W        W78386   8.350  23.179  12.573
18851W        W78387  24.524  30.982   4.626
18852W        W78388  27.167  14.219   4.687
18853W        W78389  21.658  11.856   9.935
18854W        W78390  33.492  20.738  12.921
18855W        W78391  42.833  43.467   2.734
18856W        W78392  40.527  25.992   4.654
18857W        W78393  11.225  19.636   0.299
18858W        W78394  28.996  24.504  13.367
18859W        W78395  31.039   6.338  14.922
18860W        W78396  41.827   5.814  14.513
18861W        W78397  19.721  13.638   0.924
18862W        W78398   7.859  35.963  12.999
18863W        W78399  39.961  32.032   1.334
18864W        W78400  38.038   0.472   2.223
18865W        W78401  18.184  43.776   4.662
18866W        W78402  22.185  33.955   2.669
18867W        W78403  17.113  43.961   4.704
18868W        W78404  39.940  36.551   1.915
18869W        W78405   8.658  19.090   3.671
18870W        W78406  15.758  31.533  12.572
18871W        W78407  12.773  38.518  11.015
18872W        W78408   2.455  12.286  13.966
18873W        W78409  37.892  43.874   0.447
18874W        W78410  29.601  35.500   3.185
18875W        W78411  26.566   6.395  12.543
18876W        W78412  41.863  43.971   4.687
18877W        W78413  33.524  42.936  10.444
18878W        W78414  33.994  41.038  12.823
18879W        W78415  21.067   5.304   0.412
18880W        W78416  11.845  35.901  11.494
18881W        W78417  23.572  19.773   1.735
18882W        W78418  13.843   6.708  13.513
18883W        W78419  35.072  20.232   0.374
18884W        W78420  41.856   3.900   4.792
18885W        W78421  25.493  42.413   2.206
18886W        W78422  44.472  10.869   0.914
18887W        W78423  26.121   6.768   3.805
18888W        W78424  28.630  26.102  12.052
18889W        W78425  13.174   5.825  11.593
18890W        W78426  43.460  35.443  10.556
18891W        W78427  23.715  42.846   3.692
18892W        W78428   7.174  40.008   4.713
18893W        W78429  30.451  12.325   3.330
18894W        W78430  26.550  35.991   2.880
18895W        W78431  22.123  40.510  13.367
18896W        W78432  37.526   6.334   4.803
18897W        W78433  13.756  28.164  12.899
18898W        W78434  17.165  37.439  11.541
18899W        W78435  30.015  20.761   0.854
18900W        W78436   9.274  32.588   3.844
18901W        W78437  31.937  20.664  13.957
18902W        W78438  21.526  35.915  11.959
18903W        W78439  32.131  40.911  13.377
18904W        W78440  20.551  31.087  12.522
18905W        W78441  34.569  21.649   3.317
18906W        W78442  18.295  39.870  13.513
18907W        W78443   7.898  42.972  14.963
18908W        W78444  11.778  42.520   1.446
18909W        W78445  28.596  28.658  12.468
18910W        W78446  42.895  25.043   4.294
18911W        W78447  42.873  24.081   2.360
18912W        W78448   6.377  19.183  11.483
18913W        W78449   8.369  35.493   1.288
18914W        W78450   2.354  15.238   2.776
18915W        W78451  10.710  32.530   2.727
18916W        W78452   1.268   9.330  10.419
18917W        W78453   0.331  43.967  13.516
18918W        W78454   7.374  21.522  13.461
18919W        W78455   7.755  15.296  12.009
18920W        W78456  32.994  38.536  10.959
18921W        W78457  39.022  40.506  12.843
18922W        W78458  43.999   7.369   2.859
18923W        W78459  36.882  37.451   5.181
18924W        W78460  10.866  15.784  11.088
18925W        W78461  25.151  13.648   3.170
18926W        W78462  22.106   8.768   0.373
18927W        W78463  17.776  21.750   4.228
18928W        W78464  44.778   1.411  11.509
18929W        W78465  40.006   1.890   5.155
18930W        W78466  37.558  20.693  11.957
18931W        W78467  35.898   0.801   0.332
18932W        W78468  29.126  20.560   4.683
18933W        W78469  16.637  10.855  12.490
18934W        W78470  14.110  39.390  10.954
18935W        W78471   5.692  13.615  10.543
18936W        W78472  26.001  42.435   0.360
18937W        W78473  15.235   3.731   3.742
18938W        W78474   1.912   9.239   3.827
18939W        W78475  40.898   4.334  13.472
18940W        W78476   0.372  34.528   2.863
18941W        W78477   9.336  26.068  11.973
18942W        W78478   6.222  30.639  12.085
18943W        W78479   5.351  16.139   3.260
18944W        W78480  41.302  26.166  10.494
18945W        W78481  29.424   1.298  14.321
18946W        W78482  41.339  39.977  11.922
18947W        W78483   3.450  15.299  11.970
18948W        W78484  17.740  24.699  13.377
18949W        W78485   0.379  38.992  12.051
18950W        W78486  26.567  31.103  13.389
18951W        W78487  21.653  13.263   1.272
18952W        W78488  27.178  21.513  14.510
18953W        W78489  44.360   9.347   3.185
18954W        W78490   4.257  27.640  14.829
18955W        W78491  24.615  27.154  14.907
18956W        W78492   9.195   4.357   1.719
18957W        W78493  25.545  42.310  11.073
18958W        W78494  43.794  44.399  13.040
18959W        W78495  36.912  27.040   2.796
18960W        W78496  13.615  15.607   2.869
18961W        W78497   7.332  16.253   0.473
18962W        W78498  34.872   6.893  12.087
18963W        W78499  18.708  18.769   3.220
18964W        W78500   1.945  35.041  13.507
18965W        W78501  44.369  44.368  12.537
18966W        W78502  35.908  41.881  13.878
18967W        W78503  32.073  24.650  10.120
18968W        W78504   8.226   4.704   2.246
18969W        W78505  42.284  10.821   1.423
18970W        W78506  25.122   4.416  14.379
18971W        W78507  43.800   2.799  11.546
18972W        W78508  44.998   9.296  14.312
18973W        W78509   8.666  25.633  10.160
18974W        W78510  39.332  40.512   3.817
18975W        W78511  16.312  23.074   0.276
18976W        W78512  10.860   6.883   1.706
18977W        W78513  10.256  28.647  13.392
18978W        W78514  44.361  12.772  12.913
18979W        W78515  40.335  41.917   4.152
18980W        W78516  28.039  37.867  10.496
18981W        W78517  26.955  26.111  13.484
18982W        W78518   0.357  13.248   4.634
18983W        W78519  10.282  21.521   1.840
18984W        W78520   7.784  20.731   0.739
18985W        W78521  23.033  19.166  13.032
18986W        W78522  37.038  39.894   0.854
18987W        W78523  34.021  20.693  13.441
18988W        W78524  37.407  43.460   3.691
18989W        W78525  39.002  24.074  14.436
18990W        W78526  12.293  36.403   2.774
18991W        W78527  16.156   7.783  11.519
18992W        W78528   5.258  12.753  13.873
18993W        W78529   8.684  42.286   1.830
18994W        W78530  22.032   0.953  11.914
18995W        W78531   2.744  18.742  14.862
18996W        W78532  34.607  36.898   4.168
18997W        W78533   3.812  33.513  13.875
18998W        W78534  40.452  26.672   5.262
18999W        W78535   7.391   0.325   0.860
19000W        W78536  12.203  35.979  10.429
19001W        W78537  23.642  40.359  14.982
19002W        W78538   7.711  40.913  12.084
19003W        W78539   1.476  29.138  13.020
19004W        W78540  38.989  41.410  11.475
19005W        W78541  18.080   4.789   3.642
19006W        W78542  21.754   3.422  12.950
19007W        W78543  36.039  15.769  11.030
19008W        W78544  16.752  15.674   0.857
19009W        W78545  39.365  11.743  11.964
19010W        W78546  33.881  38.571  11.866
19011W        W78547  42.421   2.441   3.662
19012W        W78548  43.016  39.328   2.837
19013W        W78549  19.154  41.971  10.985
19014W        W78550   6.404   7.776   3.746
19015W        W78551  28.120   1.477   3.350
19016W        W78552  35.041  12.636   3.735
19017W        W78553  34.029  39.029   1.346
19018W        W78554  19.135  27.189  14.399
19019W        W78555  18.628  18.716  11.582
19020W        W78556   3.745  38.520  10.935
19021W        W78557  38.018  38.871   4.210
19022W        W78558  17.194  24.058   3.194
19023W        W78559   0.882  24.723   5.664
19024W        W78560   6.362   6.678  12.946
19025W        W78561  41.031  31.122   3.323
19026W        W78562  34.602  36.551   2.854
19027W        W78563  44.504  37.006   3.768
19028W        W78564  26.164  29.171   4.148
19029W        W78565  34.042  28.055   2.254
19030W        W78566   5.274  17.181   1.344
19031W        W78567  24.165  12.779   1.227
19032W        W78568   5.301  43.871  11.005
19033W        W78569  15.817  26.088   4.237
19034W        W78570  37.427  23.499   1.771
19035W        W78571  12.651  36.849   4.295
19036W        W78572  11.866  44.398   5.083
19037W        W78573  23.060  14.712  10.968
19038W        W78574   8.899   4.335   4.650
19039W        W78575  27.511   7.229   0.843
19040W        W78576   0.974  32.114   0.928
19041W        W78577  12.653   9.270   2.872
19042W        W78578  10.784  13.165  12.484
19043W        W78579   0.321  20.030  14.404
19044W        W78580  36.449   3.776  10.419
19045W        W78581  12.680  39.821   3.668
19046W        W78582  33.534   8.264   0.427
19047W        W78583  43.325  19.150  10.584
19048W        W78584   6.917  38.875  10.995
19049W        W78585  26.468   1.410   1.835
19050W        W78586  23.037  17.630   5.600
19051W        W78587  15.156  37.561  13.515
19052W        W78588  44.338  37.477   4.768
19053W        W78589   3.406  19.575  14.298
19054W        W78590  11.866  17.301  10.420
19055W        W78591  43.393   6.252   1.793
19056W        W78592  40.315  10.650   3.838
19057W        W78593  17.232  15.294  14.421
19058W        W78594  33.566  21.239  14.898
19059W        W78595  33.458  23.628   1.236
19060W        W78596  40.311  34.469   1.300
19061W        W78597   7.825  41.328   5.081
19062W        W78598  25.022  27.054  11.607
19063W        W78599  40.945   7.355  12.904
19064W        W78600  40.988  16.571   3.647
19065W        W78601  24.024  16.309  11.432
19066W        W78602  41.538   1.445  11.959
19067W        W78603  26.595  28.186  11.861
19068W        W78604  30.599   8.373   2.749
19069W        W78605  35.377  12.840  13.462
19070W        W78606  13.244  41.905  14.970
19071W        W78607  39.398  18.616  14.319
19072W        W78608  15.247   9.754   1.256
19073W        W78609  26.958  26.194  14.766
19074W        W78610  31.467  38.335  14.423
19075W        W78611  12.193  39.010  10.442
19076W        W78612  35.379  42.972   4.204
19077W        W78613   6.710   3.777  14.493
19078W        W78614   8.197   8.302   1.742
19079W        W78615  14.236  24.527  12.934
19080W        W78616  32.594   7.904  13.857
19081W        W78617   9.212  21.738  13.019
19082W        W78618  42.799   7.257  10.560
19083W        W78619  41.367  28.955  13.490
19084W        W78620   9.247   6.804   2.264
19085W        W78621  11.318  25.619  11.026
19086W        W78622  14.797  16.680  13.446
19087W        W78623   1.840  17.697   0.959
19088W        W78624   2.310   0.263  14.328
19089W        W78625  26.604  10.774  12.557
19090W        W78626  34.522  35.402   3.670
19091W        W78627  40.547  40.016   0.244
19092W        W78628   9.391  38.986   0.794
19093W        W78629  37.441  31.576  11.597
19094W        W78630   4.405  43.815  13.969
19095W        W78631   2.227   1.363  13.443
19096W        W78632   3.412  19.656  14.990
19097W        W78633  34.026   3.369  11.866
19098W        W78634   1.266   4.355  14.995
19099W        W78635  22.128  40.468   4.680
19100W        W78636  28.173  37.377  14.771
19101W        W78637   1.313   8.762  13.892
19102W        W78638  41.846   9.353   3.760
19103W        W78639  36.562  17.792  14.330
19104W        W78640  36.462  18.747   4.818
19105W        W78641   0.930  41.025   1.334
19106W        W78642  40.532  22.707  12.487
19107W        W78643  42.317  28.551  13.478
19108W        W78644  17.596  22.235  12.440
19109W        W78645  32.535  22.662  10.553
19110W        W78646  39.030  24.523  12.984
19111W        W78647   7.224   9.675   0.463
19112W        W78648   2.362   4.731  13.827
19113W        W78649  18.657  34.417   4.312
19114W        W78650  22.742  23.050   1.400
19115W        W78651  24.015   7.871  13.034
19116W        W78652   1.765   6.771  13.929
19117W        W78653  32.913   5.817   3.649
19118W        W78654  35.063   7.767   3.247
19119W        W78655   5.395  22.999  13.389
19120W        W78656  44.272   5.251  11.594
19121W        W78657  43.773  12.220  11.430
19122W        W78658  15.187  16.175  11.427
19123W        W78659  34.047   0.774  14.400
19124W        W78660  16.637  27.076   2.317
19125W        W78661  24.038  13.669  10.596
19126W        W78662   5.310  33.398   4.734
19127W        W78663  12.700  13.139   4.692
19128W        W78664  41.450  34.494   3.859
19129W        W78665  25.696  43.804  10.960
19130W        W78666  32.501  23.678  10.030
19131W        W78667  10.800  23.026  13.372
19132W        W78668  26.545  41.890   4.718
19133W        W78669   7.741  29.620  13.980
19134W        W78670  18.780  17.633  11.858
19135W        W78671  38.504  17.713   1.307
19136W        W78672  35.509  18.128  14.793
19137W        W78673  15.177   2.948   3.867
19138W        W78674  22.650   5.876  14.335
19139W        W78675  38.329  19.057   0.369
19140W        W78676   5.822  28.950   9.508
19141W        W78677  19.196  28.101  13.797
19142W        W78678  39.972  17.796   4.176
19143W        W78679  44.312  26.982   0.920
19144W        W78680  16.317  11.222  14.829
19145W        W78681  33.456  33.492  10.481
19146W        W78682  24.015  35.473   1.280
19147W        W78683   5.389   9.681   1.803
19148W        W78684  18.140  11.327   2.755
19149W        W78685  37.438  23.622  13.341
19150W        W78686  41.816  13.256  14.334
19151W        W78687  18.640  35.034  14.830
19152W        W78688  18.690  29.542  12.916
19153W        W78689  21.164  44.425   4.354
19154W        W78690  24.507  19.108  14.348
19155W        W78691  27.639  12.855  12.534
19156W        W78692  20.586  24.498   1.312
19157W        W78693   9.239   2.328  13.822
19158W        W78694  32.051  30.127  10.888
19159W        W78695  13.806   6.405  10.638
19160W        W78696   6.854   2.785   3.863
19161W        W78697  10.807   6.197  12.087
19162W        W78698   8.819   7.835  10.993
19163W        W78699  30.587  21.735  12.349
19164W        W78700  25.965  21.537   2.244
19165W        W78701  30.589  37.400   4.134
19166W        W78702  24.194  11.823   5.162
19167W        W78703  17.794  29.578  14.776
19168W        W78704  39.351  20.561   2.703
19169W        W78705  41.867   7.672   3.356
19170W        W78706  22.171  13.158  13.470
19171W        W78707  29.608   5.799  14.854
19172W        W78708  43.399  34.494   5.096
19173W        W78709  12.268  25.493   3.637
19174W        W78710  24.535  32.127   4.226
19175W        W78711  12.794  40.508  13.497
19176W        W78712   7.899  31.000  12.473
19177W        W78713  31.622   9.853  12.545
19178W        W78714  32.459  17.681  11.122
19179W        W78715  23.079   9.854   3.795
19180W        W78716  38.827   8.770  13.858
19181W        W78717  22.554  18.148  10.940
19182W        W78718  31.965  33.130  14.507
19183W        W78719  43.273   9.765   1.822
19184W        W78720  11.343  11.270  12.530
19185W        W78721  44.301   7.305   1.434
19186W        W78722  14.316  39.864  11.926
19187W        W78723  28.929  38.947  13.435
19188W        W78724  41.378  31.050  13.366
19189W        W78725  16.174  26.203   2.862
19190W        W78726  11.715  38.460   3.737
19191W        W78727  27.662  39.453   0.945
19192W        W78728  43.858  40.469   4.794
19193W        W78729  25.495  35.857   5.087
19194W        W78730  40.452   3.364   0.841
19195W        W78731  20.198   3.248  12.945
19196W        W78732  30.641  28.954   3.724
19197W        W78733  39.484  42.296   1.790
19198W        W78734  25.105  38.883   2.698
19199W        W78735  19.106  39.558   1.715
19200W        W78736  15.822  11.372  11.495
19201W        W78737  40.319  27.676  13.982
19202W        W78738  42.385  12.781   3.866
19203W        W78739  11.185  38.004   0.320
19204W        W78740  26.113  14.226   4.642
19205W        W78741  34.416  32.051   4.673
19206W        W78742  39.408  14.126  14.292
19207W        W78743   1.953  41.899   2.236
19208W        W78744  13.749  18.270  13.057
19209W        W78745  24.667   2.806  12.384
19210W        W78746  39.970  19.051   4.725
19211W        W78747   9.284   4.221   0.382
19212W        W78748   2.240  43.377   0.920
19213W        W78749   7.789  41.976   0.873
19214W        W78750   3.838   3.340  13.537
19215W        W78751  25.585  40.055  14.024
19216W        W78752  28.648  22.020   3.188
19217W        W78753   5.869  14.606   3.231
19218W        W78754  24.127  29.964   1.906
19219W        W78755   6.815   5.844  12.832
19220W        W78756   3.940   7.707   4.749
19221W        W78757   6.813   4.275  13.483
19222W        W78758  27.553  27.539  12.561
19223W        W78759  18.177  13.264  13.498
19224W        W78760  31.135   4.222   0.246
19225W        W78761   5.841  17.185   3.738
19226W        W78762   7.755  11.691   4.161
19227W        W78763  27.155  19.757   4.714
19228W        W78764   9.309  44.437  11.948
19229W        W78765   5.851  17.128  10.974
19230W        W78766  39.473  13.107   0.364
19231W        W78767   6.414  42.365   2.769
19232W        W78768  15.652   2.383   2.764
19233W        W78769  41.892  20.634  11.986
19234W        W78770  44.463  15.775  11.947
19235W        W78771   0.941   4.802   2.256
19236W        W78772  14.668   5.414   0.812
19237W        W78773  13.140  28.552  11.090
19238W        W78774  18.057  25.169  12.417
19239W        W78775  13.743  24.990  14.907
19240W        W78776  37.013  11.309  11.518
19241W        W78777  42.017  41.335  12.524
19242W        W78778  22.232  19.671   2.682
19243W        W78779  32.132  44.464   3.828
19244W        W78780   0.877   6.895   4.185
19245W        W78781  15.813  34.968  10.898
19246W        W78782  14.204   4.388  11.548
19247W        W78783  23.636  19.280  10.459
19248W        W78784  18.122  42.396   2.724
19249W        W78785  17.705  36.072  13.361
19250W        W78786  26.571  27.637   3.853
19251W        W78787  26.187  30.086  13.869
19252W        W78788  20.207  43.359   2.714
19253W        W78789  12.816  29.621  13.792
19254W        W78790  39.362  39.376   4.267
19255W        W78791   1.773  27.165  13.899
19256W        W78792  41.376  25.126  13.361
19257W        W78793  31.008   9.253   3.323
19258W        W78794  39.550  28.095  13.062
19259W        W78795  37.891  36.008   1.862
19260W        W78796  26.055  12.361  11.050
19261W        W78797  13.606  15.776   1.320
19262W        W78798  32.513  14.297  11.080
19263W        W78799   0.408  36.358  11.067
19264W        W78800  30.050  15.781  13.447
19265W        W78801   8.659  43.498  10.903
19266W        W78802  35.942  40.497   0.295
19267W        W78803  14.794  27.565  10.955
19268W        W78804  26.562  38.996  14.898
19269W        W78805  36.014  21.034   1.769
19270W        W78806  39.323  29.463  12.577
19271W        W78807  27.993  33.113   3.684
19272W        W78808  40.869  42.027   3.800
19273W        W78809  24.645  24.657  11.926
19274W        W78810  19.260  39.918  13.935
19275W        W78811  17.079  34.592  10.621
19276W        W78812  11.332  38.481  14.899
19277W        W78813  24.083  23.713   4.718
19278W        W78814  15.808  37.833  10.999
19279W        W78815  12.202  33.562   2.719
19280W        W78816  27.950   3.325   2.341
19281W        W78817  34.003  19.575  11.377
19282W        W78818  12.168   3.433   0.476
19283W        W78819  20.740   8.814   4.608
19284W        W78820  11.725  25.086   0.383
19285W        W78821   9.385  19.775  11.006
19286W        W78822   4.812  27.509  14.831
19287W        W78823   7.818  28.120  14.782
19288W        W78824  30.651   6.914   1.716
19289W        W78825   6.245  37.491   2.220
19290W        W78826   8.769  12.680   2.245
19291W        W78827  33.582  41.363  14.830
19292W        W78828  35.001  24.990  13.807
19293W        W78829  44.499  35.578  11.012
19294W        W78830  23.645  31.571   3.179
19295W        W78831  18.561  21.555  12.082
19296W        W78832   0.834  23.075  11.878
19297W        W78833   8.391  23.642  14.881
19298W        W78834  20.640  36.521  10.452
19299W        W78835  44.436  32.540   0.865
19300W        W78836  36.539  40.927   2.393
19301W        W78837   9.160  44.917  11.860
19302W        W78838   1.950  12.832  10.557
19303W        W78839  27.956  38.907   0.761
19304W        W78840  19.640  15.084  13.924
19305W        W78841  40.932  26.007   2.807
19306W        W78842   9.652  10.212  10.988
19307W        W78843  12.174  24.121   3.638
19308W        W78844  18.268  23.103  14.414
19309W        W78845  10.723  42.372  14.862
19310W        W78846  27.601  42.875   1.759
19311W        W78847   0.289   9.328  14.802
19312W        W78848   9.702  42.342   0.765
19313W        W78849  34.903  20.565  12.510
19314W        W78850  18.684  41.326   5.221
19315W        W78851  38.475   4.250  14.435
19316W        W78852  39.037   0.329   4.835
19317W        W78853  26.692   0.868   5.227
19318W        W78854  36.515  33.519   3.722
19319W        W78855   6.888  38.328  12.876
19320W        W78856  18.169  35.965   2.231
19321W        W78857  33.962  24.093  11.448
19322W        W78858   4.879  11.127   3.633
19323W        W78859  18.732  10.360   3.210
19324W        W78860   6.420  11.630  13.337
19325W        W78861  37.057   5.260   1.220
19326W        W78862  30.914  20.736  11.040
19327W        W78863   6.830  35.980   4.641
19328W        W78864  15.130  37.494   0.369
19329W        W78865  30.037  41.946  11.575
19330W        W78866   9.674  34.018   0.334
19331W        W78867  39.400   4.853   3.655
19332W        W78868  34.370  28.568  14.411
19333W        W78869  11.773  33.131  13.791
19334W        W78870  30.457   0.977  12.532
19335W        W78871  22.011  29.139   1.722
19336W        W78872  25.478  11.157  11.042
19337W        W78873  30.114  22.627  13.439
19338W        W78874   9.752   8.384  13.332
19339W        W78875  23.640  18.222  13.008
19340W        W78876  10.359  22.130   4.699
19341W        W78877   8.224   2.888   4.248
19342W        W78878   3.751   5.259  14.328
19343W        W78879  22.161  12.274  10.556
19344W        W78880  29.437  40.891   2.239
19345W        W78881  31.991  37.956  13.367
19346W        W78882  28.074  17.556  11.939
19347W        W78883  16.227  40.861   4.121
19348W        W78884  21.551  32.073   3.302
19349W        W78885  35.102  38.987  11.116
19350W        W78886   1.454  32.545   1.780
19351W        W78887  33.933  18.230   1.235
19352W        W78888  42.323  31.945   2.230
19353W        W78889  34.497  20.635   2.897
19354W        W78890  34.920   0.920  13.329
19355W        W78891  41.968  11.729   0.813
19356W        W78892   0.825  29.036   4.603
19357W        W78893  10.340  28.996  10.521
19358W        W78894  18.128  41.307   0.875
19359W        W78895  40.939  10.850  10.589
19360W        W78896  13.292   2.726   2.677
19361W        W78897  41.339   0.889  11.577
19362W        W78898   0.278  27.543   1.899
19363W        W78899  36.861  33.051   0.339
19364W        W78900  39.837   1.884  11.565
19365W        W78901  31.131  13.120   3.788
19366W        W78902  25.641  44.818   1.237
19367W        W78903  11.827   4.882  10.563
19368W        W78904  27.623  14.110   1.223
19369W        W78905  31.599  43.447   2.838
19370W        W78906  15.679  23.686   0.732
19371W        W78907  21.139  19.209  11.393
19372W        W78908  31.406  36.099   4.322
19373W        W78909   4.841  43.840  11.377
19374W        W78910  10.668   5.864   5.145
19375W        W78911   1.419  44.894   1.852
19376W        W78912  20.759  15.171  12.356
19377W        W78913  20.135   2.926   0.387
19378W        W78914  37.440  21.097   1.425
19379W        W78915   7.353  24.043  13.548
19380W        W78916  26.628   1.324  11.057
19381W        W78917  10.758  14.814   0.917
19382W        W78918  13.692  14.700  10.969
19383W        W78919  30.119   3.225   0.946
19384W        W78920   7.733  36.901  14.380
19385W        W78921   7.414   5.302   3.380
19386W        W78922  37.561  20.728   1.751
19387W        W78923  43.767  16.263   3.194
19388W        W78924  40.860   9.727  10.608
19389W        W78925   2.229  37.088   4.206
19390W        W78926  44.891  18.762  11.497
19391W        W78927  30.604  37.877   2.248
19392W        W78928  36.046  19.726  13.934
19393W        W78929  30.614   0.490   2.868
19394W        W78930  43.286   5.744  11.445
19395W        W78931  13.287  26.530   1.405
19396W        W78932  25.195  10.877   0.807
19397W        W78933  19.154  15.671  14.872
19398W        W78934  12.796   8.285   5.199
19399W        W78935  32.626  29.469   3.804
19400W        W78936  18.615  44.873   0.369
19401W        W78937  42.988   0.802  12.003
19402W        W78938   6.735   4.775   4.299
19403W        W78939  39.390  33.966   2.862
19404W        W78940   8.734   0.424   2.193
19405W        W78941  18.279  27.037  11.108
19406W        W78942   6.768  16.588  11.605
19407W        W78943  37.898  29.552   3.680
19408W        W78944   6.269   4.407  11.449
19409W        W78945  40.881   5.331   1.861
19410W        W78946   9.773   2.883  10.591
19411W        W78947   2.958  31.961  11.452
19412W        W78948  44.478   6.793   2.694
19413W        W78949  14.823  18.637   1.754
19414W        W78950  10.307  15.279  10.545
19415W        W78951  35.416   5.790  14.508
19416W        W78952  25.214  28.011  14.475
19417W        W78953  22.215   8.254   2.392
19418W        W78954  43.860  21.598  14.835
19419W        W78955  26.142  34.527   2.753
19420W        W78956  17.087  24.078  12.864
19421W        W78957  11.283  36.883  11.948
19422W        W78958  23.091   2.327  14.846
19423W        W78959   0.372  44.288  14.293
19424W        W78960  19.750  36.412  11.592
19425W        W78961  44.962  44.868   2.825
19426W        W78962  43.412  14.739   1.732
19427W        W78963  11.836  43.440  13.438
19428W        W78964   8.721  36.998   1.848
19429W        W78965  18.197  12.207  12.891
19430W        W78966  22.651   5.914  13.355
19431W        W78967  16.603  29.001  12.533
19432W        W78968  25.698  29.014   0.806
19433W        W78969  29.006  43.352   1.243
19434W        W78970  14.229   4.869  11.492
19435W        W78971  39.407  44.959  14.974
19436W        W78972  36.367   7.872   4.705
19437W        W78973  39.394  11.861   0.422
19438W        W78974  41.408  34.594   4.800
19439W        W78975  13.123  10.867   4.661
19440W        W78976  26.998  31.028   3.350
19441W        W78977  13.172  33.383  12.040
19442W        W78978  44.895  14.117  13.874
19443W        W78979  10.211   4.395  14.497
19444W        W78980  10.659  33.547   1.234
19445W        W78981  14.096  32.141  13.926
19446W        W78982   7.238  39.813  12.439
19447W        W78983  24.126  24.608  13.794
19448W        W78984   3.802  29.137   3.776
19449W        W78985   0.419   9.870   4.220
19450W        W78986   1.760  24.500   3.206
19451W        W78987   6.911   8.298   2.291
19452W        W78988   9.364  27.665   1.302
19453W        W78989  28.167  11.332   1.709
19454W        W78990   3.260  26.024   2.363
19455W        W78991  17.571  32.590  12.931
19456W        W78992  23.530  38.994  12.555
19457W        W78993  19.744  24.034  13.807
19458W        W78994  17.224   4.728   4.302
19459W        W78995  15.192  42.812   2.688
19460W        W78996  39.808   3.297   2.223
19461W        W78997  17.219   0.306  10.998
19462W        W78998   4.293  27.134  12.407
19463W        W78999  30.494  30.943  11.440
19464W        W79000  15.177  12.352   2.713
19465W        W79001  37.551  27.567  14.291
19466W        W79002  39.510  43.422   2.675
19467W        W79003  11.241  29.529   0.937
19468W        W79004  16.126  17.736   0.268
19469W        W79005  19.049   6.270  10.586
19470W        W79006  37.455  38.493  10.893
19471W        W79007  21.540   5.691  14.821
19472W        W79008  18.671  40.963  14.792
19473W        W79009  33.124  43.978   1.376
19474W        W79010  10.357  39.449  13.952
19475W        W79011  18.058  37.941   1.881
19476W        W79012  17.202  16.104  12.519
19477W        W79013  34.898  33.030   1.390
19478W        W79014   9.756  41.474   3.726
19479W        W79015  23.173  32.057   0.462
19480W        W79016   3.835  30.974  13.403
19481W        W79017  17.287  33.038   0.764
19482W        W79018  13.320  44.332   0.353
19483W        W79019  36.979  23.069   1.706
19484W        W79020  39.968  36.489  12.876
19485W        W79021  20.578  10.784  14.405
19486W        W79022  27.007  30.624  14.323
19487W        W79023  27.571   5.297   4.322
19488W        W79024  38.339  18.218   1.360
19489W        W79025  39.878  25.709   1.252
19490W        W79026  14.683   6.693  13.348
19491W        W79027   4.280  32.133   1.255
19492W        W79028  24.576  11.777  11.457
19493W        W79029  24.990  40.029   4.654
19494W        W79030  20.117   4.919   0.422
19495W        W79031   8.901  22.600  10.569
19496W        W79032  33.624  38.022   3.292
19497W        W79033  28.153  22.640   4.696
19498W        W79034  41.417  17.133  12.462
19499W        W79035   2.229   8.884  14.500
19500W        W79036  16.172  16.686   2.374
19501W        W79037  40.815  42.353   2.272
19502W        W79038  40.803   2.793   4.644
19503W        W79039  10.348  40.405  14.493
19504W        W79040  33.000  40.830  14.951
19505W        W79041  35.108   9.670   4.258
19506W        W79042   1.271  43.795   1.728
19507W        W79043  22.612  15.799  10.055
19508W        W79044  36.417  31.914  14.823
19509W        W79045  42.377  26.170  13.464
19510W        W79046   6.253  37.536  13.982
19511W        W79047  21.634  33.601   4.325
19512W        W79048  21.587  31.131  14.793
19513W        W79049  35.865  10.196  14.405
19514W        W79050  41.946  36.943  13.398
19515W        W79051   5.345  35.459  10.608
19516W        W79052  19.608  41.790  10.946
19517W        W79053  20.693  26.100  11.900
19518W        W79054  27.948   9.819  11.506
19519W        W79055  24.644  30.125  10.997
19520W        W79056  42.284  18.753   3.696
19521W        W79057   5.712  10.695  14.958
19522W        W79058  10.241   5.210  10.951
19523W        W79059  13.241   0.882   4.205
19524W        W79060  17.111   7.911   4.311
19525W        W79061  12.719  37.981  13.870
19526W        W79062  11.300   9.698  12.905
19527W        W79063  35.512   4.251  13.863
19528W        W79064  32.949  44.835   1.856
19529W        W79065  15.166  10.763   1.744
19530W        W79066  33.926  39.446  11.901
19531W        W79067  37.521  44.784  11.408
19532W        W79068  10.819  24.045  10.601
19533W        W79069  36.881   7.197  14.283
19534W        W79070  22.189  32.508  10.636
19535W        W79071  37.509   6.316   0.321
19536W        W79072  28.160  13.676  14.506
19537W        W79073   9.374  18.163   5.148
19538W        W79074  30.460  42.456   4.115
19539W        W79075   0.362  15.190   1.773
19540W        W79076   4.317  11.661   4.836
19541W        W79077  18.124  22.170   1.827
19542W        W79078  40.433   0.253  11.551
19543W        W79079  28.611  13.708  13.842
19544W        W79080   2.409   6.277  11.470
19545W        W79081  24.513  15.157   2.191
19546W        W79082  27.114  36.479   4.621
19547W        W79083  18.085   1.389   1.422
19548W        W79084  42.499  43.019  13.939
19549W        W79085  29.151  28.533   3.844
19550W        W79086  23.601  28.624   1.406
19551W        W79087  13.827  21.072   5.121
19552W        W79088  26.164   1.748   4.829
19553W        W79089  18.062  15.218  12.438
19554W        W79090   6.822  15.659  11.436
19555W        W79091  37.925   1.458  14.791
19556W        W79092  19.179  16.736   4.203
19557W        W79093  19.738  16.688   0.850
19558W        W79094  27.186   1.433   2.722
19559W        W79095  21.662   3.740   3.270
19560W        W79096  44.882  36.424  12.343
19561W        W79097   4.266  31.528  12.554
19562W        W79098  30.603  29.508   4.700
19563W        W79099  12.304  26.125  12.398
19564W        W79100  15.212  32.416   2.183
19565W        W79101  30.568  18.256  12.947
19566W        W79102  11.803   0.310   2.395
19567W        W79103  22.028  43.010  10.528
19568W        W79104  28.452  13.274   3.315
19569W        W79105  30.448  19.254  12.878
19570W        W79106  37.964  13.316  11.916
19571W        W79107  30.983  23.664  14.348
19572W        W79108  33.575   4.826  10.615
19573W        W79109  31.057  23.008  14.919
19574W        W79110  17.125  30.523  10.993
19575W        W79111  33.600  28.437  13.504
19576W        W79112  17.638   2.302   2.345
19577W        W79113   7.684  42.806   0.269
19578W        W79114  36.408  36.567   0.340
19579W        W79115  13.622  16.698   2.244
19580W        W79116   4.231  13.301  12.968
19581W        W79117  23.985   8.162   9.929
19582W        W79118  11.793  19.644   4.159
19583W        W79119   5.688  31.549  14.843
19584W        W79120   5.226  12.258   2.205
19585W        W79121   3.253  13.348   0.777
19586W        W79122  44.985   7.910  14.819
19587W        W79123  32.025   6.903  13.839
19588W        W79124  22.187  41.993   4.351
19589W        W79125  14.321  33.382   2.844
19590W        W79126  44.964   4.826  14.932
19591W        W79127  26.499   5.431   4.219
19592W        W79128   0.491  29.031  12.838
19593W        W79129  41.007   7.171   3.187
19594W        W79130  36.538   8.406   2.901
19595W        W79131  33.931  36.063   2.262
19596W        W79132  27.506  44.966  12.956
19597W        W79133  41.968  39.472   1.776
19598W        W79134  36.036   5.235   4.270
19599W        W79135   1.400  38.349  10.528
19600W        W79136  11.774  32.110  14.889
19601W        W79137   5.901  10.814  10.628
19602W        W79138  20.047   7.296   4.191
19603W        W79139  40.942  33.587   1.921
19604W        W79140  12.733   6.768   1.755
19605W        W79141  12.330  35.585   1.332
19606W        W79142  14.630  22.220  11.384
19607W        W79143   7.825   9.331  14.933
19608W        W79144  33.914  20.089  13.381
19609W        W79145  10.141  11.253  10.542
19610W        W79146  13.812  33.975  11.992
19611W        W79147  21.041  20.538   2.695
19612W        W79148  13.770   3.897  13.898
19613W        W79149  20.685  22.595  10.614
19614W        W79150  18.180  18.771   5.122
19615W        W79151  20.630  10.272   3.779
19616W        W79152   2.868  13.749   0.405
19617W        W79153  32.996  21.085   0.243
19618W        W79154  18.113  41.428   3.349
19619W        W79155  43.787   6.849  12.473
19620W        W79156   3.785  33.415  14.942
19621W        W79157  15.269  30.513   1.870
19622W        W79158   5.293  20.132  14.023
19623W        W79159  41.989  30.477   4.161
19624W        W79160  23.517  13.208   2.237
19625W        W79161  20.575  21.244  14.846
19626W        W79162  33.596  16.190   2.825
19627W        W79163   9.754  40.449   0.402
19628W        W79164  39.868   2.935  13.845
19629W        W79165   2.895  36.057  12.838
19630W        W79166  42.017   4.812   3.166
19631W        W79167   5.757  12.758   1.375
19632W        W79168  11.753  30.060  14.398
19633W        W79169  15.264  37.518  13.930
19634W        W79170   2.285  15.262  11.970
19635W        W79171  40.405  19.042   0.782
19636W        W79172  27.641  44.349  11.404
19637W        W79173  13.269  10.826   0.375
19638W        W79174  13.250  33.876   2.803
19639W        W79175  25.581  39.031   0.890
19640W        W79176  30.007   4.848   3.745
19641W        W79177  44.840  37.078  11.532
19642W        W79178  31.493  38.523   2.813
19643W        W79179   9.150   9.275   3.360
19644W        W79180   0.826   3.727   2.777
19645W        W79181  24.711   3.806  11.047
19646W        W79182  18.147  31.062   4.671
19647W        W79183  33.010  16.573   0.332
19648W        W79184  32.896  42.982   1.340
19649W        W79185  40.362  28.063  11.590
19650W        W79186  14.831  14.787  14.811
19651W        W79187  16.102  37.434   2.768
19652W        W79188  42.784  10.284   2.238
19653W        W79189  13.294  35.912   1.437
19654W        W79190  10.314  24.573   0.728
19655W        W79191  14.226  22.667  11.019
19656W        W79192  36.028  16.747   2.188
19657W        W79193  27.005   5.243   3.280
19658W        W79194  37.525  40.428   3.212
19659W        W79195  10.366  34.478  13.888
19660W        W79196  31.482  30.490   4.293
19661W        W79197  25.110  12.196  10.586
19662W        W79198  30.445  27.617   0.344
19663W        W79199  28.627  27.516   4.760
19664W        W79200  25.482  39.539   4.232
19665W        W79201  32.057   6.336   1.399
19666W        W79202   5.360  43.897   1.774
19667W        W79203  43.858  41.922  10.460
19668W        W79204   7.780   7.891   0.300
19669W        W79205  11.315  17.109  14.441
19670W        W79206   0.258  43.298  11.483
19671W        W79207  32.624  33.614   2.846
19672W        W79208  26.517   5.892  11.121
19673W        W79209   1.461  43.392   1.873
19674W        W79210  31.997  34.096  14.884
19675W        W79211  27.475  24.117   1.818
19676W        W79212  23.725  42.296  10.971
19677W        W79213  17.798  43.423   4.345
19678W        W79214   8.287  32.117  14.439
19679W        W79215  44.975  26.019  12.494
19680W        W79216  26.018  23.214   0.847
19681W        W79217  23.034   5.858   5.129
19682W        W79218  32.390  30.036  14.321
19683W        W79219  33.108  17.213   1.304
19684W        W79220  39.536  18.175   0.918
19685W        W79221  35.963  12.712  12.038
19686W        W79222  17.239  23.168   1.851
19687W        W79223  39.548  40.544  12.516
19688W        W79224  16.175  17.669  12.442
19689W        W79225   2.952  33.997   1.270
19690W        W79226   1.342   5.910   4.283
19691W        W79227   2.392   3.220   2.337
19692W        W79228  32.579  30.992   2.261
19693W        W79229  32.894   9.193  12.049
19694W        W79230   1.256  11.767   5.110
19695W        W79231  34.561  11.354  11.914
19696W        W79232  42.891   8.741   1.799
19697W        W79233   4.351  36.919  12.532
19698W        W79234  38.337   0.343   4.276
19699W        W79235   0.389  21.582  11.463
19700W        W79236  19.667  27.450  14.898
19701W        W79237  42.957  21.018  10.544
19702W        W79238  30.520  25.582   1.741
19703W        W79239   9.155  38.551  14.999
19704W        W79240  16.165  22.506  14.828
19705W        W79241  35.045  32.570  12.442
19706W        W79242   8.270  24.643   0.265
19707W        W79243  23.183  12.748  13.510
19708W        W79244  31.561   3.811  13.357
19709W        W79245   0.940  38.008  14.927
19710W        W79246  14.828   4.703  13.463
19711W        W79247  40.453  30.475  10.637
19712W        W79248  44.345  25.052  10.088
19713W        W79249  12.201   8.865   0.454
19714W        W79250   2.279  26.633  12.063
19715W        W79251  35.035  31.004  13.508
19716W        W79252  24.573   3.731  14.840
19717W        W79253   6.233  26.488   0.849
19718W        W79254  39.434  41.389  12.487
19719W        W79255   6.852   0.885  12.052
19720W        W79256   8.809  10.700  13.431
19721W        W79257  15.279  27.957  14.885
19722W        W79258  38.911  11.843   2.719
19723W        W79259  14.128  36.061   2.218
19724W        W79260  24.640  40.880   4.630
19725W        W79261  10.782  43.005   3.369
19726W        W79262  33.982   0.420  12.445
19727W        W79263   4.426  20.245  13.892
19728W        W79264  41.028   0.270  13.851
19729W        W79265  26.460   6.808   3.774
19730W        W79266  14.139  29.453  12.823
19731W        W79267  25.637  12.343  14.302
19732W        W79268   0.961  28.123  12.367
19733W        W79269  18.666  32.920  11.072
19734W        W79270   0.973  17.752   1.324
19735W        W79271  34.048   7.687  14.351
19736W        W79272  21.669  36.351  11.562
19737W        W79273  13.822  14.197  10.937
19738W        W79274  33.889  12.282  14.402
19739W        W79275   8.181  20.105  12.070
19740W        W79276  14.823  34.461   2.304
19741W        W79277   4.750  25.669  10.930
19742W        W79278   9.732   3.269   1.227
19743W        W79279  20.258  16.695   4.335
19744W        W79280  14.190  24.218  12.921
19745W        W79281  14.211  12.170   3.725
19746W        W79282  15.579   8.855   4.205
19747W        W79283  34.489  26.689  13.963
19748W        W79284  35.400   5.712   0.348
19749W        W79285  14.643  15.603  13.521
19750W        W79286  26.961  25.685   2.194
19751W        W79287  20.167  40.545  14.397
19752W        W79288  25.632  37.533  11.418
19753W        W79289   2.344   2.787   3.856
19754W        W79290  19.082  32.524   3.296
19755W        W79291  27.946  44.971  14.279
19756W        W79292   0.402  15.709   9.970
19757W        W79293   1.872  37.053   1.229
19758W        W79294   0.479  15.175  11.581
19759W        W79295  14.230   4.270   3.323
19760W        W79296  36.936  42.500  11.999
19761W        W79297  39.922  34.516   0.901
19762W        W79298   3.944   6.690  14.893
19763W        W79299  37.039  12.325  14.407
19764W        W79300  24.127   2.372   4.646
19765W        W79301  24.532   4.377  14.309
19766W        W79302  22.159  24.998  11.097
19767W        W79303   6.322   6.268  12.386
19768W        W79304   8.900  10.689   4.138
19769W        W79305  21.206  20.670  14.293
19770W        W79306  34.557   8.863  11.065
19771W        W79307  24.068  41.372  10.548
19772W        W79308  23.164   7.276  14.487
19773W        W79309  19.549   3.899   4.343
19774W        W79310  28.125  40.340   4.743
19775W        W79311   8.857   5.328  10.968
19776W        W79312  43.516  40.415   3.731
19777W        W79313  11.762   5.378   2.772
19778W        W79314  44.984  42.500  13.990
19779W        W79315  44.404  23.633  12.093
19780W        W79316  41.013  29.088  13.533
19781W        W79317  23.181  14.181   3.746
19782W        W79318  18.555  14.743  12.061
19783W        W79319   1.798  28.038   3.147
19784W        W79320  15.128  36.963  10.972
19785W        W79321   5.850  33.380  14.819
19786W        W79322  26.084  32.626   1.451
19787W        W79323   6.274  13.277  13.359
19788W        W79324  14.729  31.125  13.032
19789W        W79325   5.761   3.800   2.807
19790W        W79326   1.481  21.565  12.496
19791W        W79327  41.325  13.328  14.960
19792W        W79328  20.128  41.447  13.404
19793W        W79329  28.056  21.518   2.334
19794W        W79330  12.271   3.337   2.282
19795W        W79331  24.124  41.481   2.412
19796W        W79332  40.505  14.618  12.383
19797W        W79333  43.499  36.433   4.614
19798W        W79334  19.686  44.459   1.325
19799W        W79335  30.645  37.872   5.179
19800W        W79336  11.223  18.083   2.715
19801W        W79337  16.628  27.558  11.930
19802W        W79338  22.693  20.585  11.539
19803W        W79339   3.939  21.043  12.532
19804W        W79340  37.461   4.412   1.733
19805W        W79341   9.801  14.308  11.100
19806W        W79342   6.393  23.659   0.779
19807W        W79343  43.469  32.060  12.938
19808W        W79344  28.003  35.892  12.824
19809W        W79345  30.546  37.905   0.806
19810W        W79346  39.839  14.696  14.352
19811W        W79347  40.899  19.053  14.805
19812W        W79348   6.202  37.001   3.207
19813W        W79349  12.276  37.578  13.313
19814W        W79350   6.395   5.199  13.906
19815W        W79351  26.168  14.280   4.169
19816W        W79352  19.751   0.452  13.352
19817W        W79353  40.961  32.582  12.537
19818W        W79354  23.517   3.386  13.839
19819W        W79355   8.745  37.900  10.978
19820W        W79356  37.870  11.745   4.800
19821W        W79357   5.745  33.971   4.600
19822W        W79358  26.190   1.965   0.438
19823W        W79359  42.971  35.900   2.857
19824W        W79360   6.816  37.034   3.155
19825W        W79361   6.894   8.836   4.248
19826W        W79362  44.930  39.929  13.448
19827W        W79363  25.627  34.428  13.493
19828W        W79364  35.932  34.496  10.595
19829W        W79365   6.267  43.949  14.881
19830W        W79366  29.123   7.887  11.428
19831W        W79367   3.443  13.736  14.991
19832W        W79368  11.177  37.482   0.911
19833W        W79369   7.797   1.371   0.911
19834W        W79370   4.735  33.609   3.731
19835W        W79371  20.261  28.971   0.315
19836W        W79372  20.742  35.075   4.214
19837W        W79373  12.228   0.380  14.378
19838W        W79374  16.797  27.661  14.885
19839W        W79375  37.531   4.898  10.572
19840W        W79376  38.325  11.774   2.383
19841W        W79377  23.512  22.601  14.809
19842W        W79378  43.989  20.569   4.173
19843W        W79379   7.293  44.377  14.990
19844W        W79380  23.217   3.300  12.868
19845W        W79381  38.347  32.936  10.547
19846W        W79382  10.693  36.081   2.739
19847W        W79383  23.172  24.002  13.813
19848W        W79384  40.939  34.954  14.466
19849W        W79385  10.739  23.681   3.358
19850W        W79386  14.240   2.831   3.299
19851W        W79387  37.833  25.505  10.580
19852W        W79388   9.337  26.675   4.249
19853W        W79389  14.803  25.643   1.814
19854W        W79390  31.013  17.109   1.917
19855W        W79391   6.728   8.666   2.363
19856W        W79392  22.631  14.686   3.674
19857W        W79393  23.709  29.938  11.117
19858W        W79394   3.738  34.939  10.604
19859W        W79395  24.601  19.681   2.242
19860W        W79396   1.316  29.020  12.426
19861W        W79397  29.663  21.130   1.827
19862W        W79398  22.212   0.350  13.875
19863W        W79399  18.162   3.876  13.399
19864W        W79400   6.729  19.713   1.333
19865W        W79401  31.590  37.435  13.522
19866W        W79402  13.733   3.725  11.976
19867W        W79403  23.020  22.594  14.339
19868W        W79404   5.222  13.696   4.117
19869W        W79405  42.881  24.075   4.160
19870W        W79406  28.122  12.117   0.890
19871W        W79407  35.015  42.985  14.328
19872W        W79408  31.913  38.867  10.625
19873W        W79409  14.315   9.778   1.848
19874W        W79410  21.644  40.912  12.569
19875W        W79411  43.914  34.604   1.744
19876W        W79412   9.705  29.533  11.480
19877W        W79413  21.714  44.946  10.615
19878W        W79414   3.786  10.719   2.221
19879W        W79415  17.755  20.194   0.755
19880W        W79416   2.931  36.390   1.715
19881W        W79417  13.797  27.686  14.782
19882W        W79418  39.814  27.129   1.390
19883W        W79419   6.190  31.931  10.012
19884W        W79420  44.766   4.402   4.695
19885W        W79421  34.565  21.547  11.077
19886W        W79422  29.020  11.205   1.728
19887W        W79423  18.280  20.045   3.755
19888W        W79424   9.319   1.903   3.257
19889W        W79425   6.220  17.570   3.706
19890W        W79426  18.136   6.291   2.218
19891W        W79427  33.971   6.419  13.801
19892W        W79428  10.210   7.864  14.379
19893W        W79429  30.635  19.625  10.896
19894W        W79430  21.590   6.900   0.853
19895W        W79431  19.096  18.557  13.961
19896W        W79432  27.578  20.243  10.477
19897W        W79433  22.725  25.521   3.744
19898W        W79434  11.251  38.381  11.429
19899W        W79435  32.119  31.924   3.753
19900W        W79436  12.841  42.977   4.347
19901W        W79437  35.061  30.922  13.003
19902W        W79438  37.037   4.435   9.988
19903W        W79439  37.072  36.011   0.925
19904W        W79440  23.614  27.946   2.232
19905W        W79441   0.309  24.188  13.970
19906W        W79442  10.182  40.955  11.953
19907W        W79443   8.751  11.281  11.432
19908W        W79444  41.994  16.293   3.344
19909W        W79445  36.489   4.939   0.415
19910W        W79446  18.219  15.791   2.815
19911W        W79447  31.044   6.243  12.079
19912W        W79448   0.349   6.746   4.252
19913W        W79449   7.678   2.848  13.424
19914W        W79450  24.177  43.940  14.406
19915W        W79451  36.936  30.631   3.726
19916W        W79452  20.075  25.600   2.774
19917W        W79453  21.176  44.951   4.198
19918W        W79454   8.242  28.988   4.296
19919W        W79455  11.188  37.339   4.125
19920W        W79456  24.718  18.176  14.799
19921W        W79457   7.189  12.331   0.746
19922W        W79458  27.540  26.973   0.435
19923W        W79459  36.930  20.175   1.447
19924W        W79460  14.144  15.669  10.454
19925W        W79461  44.482  31.411  12.540
19926W        W79462  13.203  26.483   2.888
19927W        W79463  30.562  11.653  14.421
19928W        W79464   2.417  29.025   0.893
19929W        W79465  21.225  13.719   0.335
19930W        W79466  40.460  40.907  11.456
19931W        W79467   8.337  38.344  13.796
19932W        W79468  42.881  13.122  12.079
19933W        W79469  10.158   0.354  12.454
19934W        W79470  22.669  36.502  12.511
19935W        W79471  29.432  34.381  12.532
19936W        W79472  26.589  44.876  14.498
19937W        W79473  18.099  22.585   1.334
19938W        W79474  42.008  23.626   3.787
19939W        W79475  38.551   4.329   3.183
19940W        W79476   6.423  44.918  11.559
19941W        W79477   1.967  12.780  14.962
19942W        W79478  19.164  12.694  10.496
19943W        W79479  44.846  24.583  14.486
19944W        W79480   3.356  29.993  12.910
19945W        W79481   4.276   7.896   1.743
19946W        W79482  44.896   5.900  14.983
19947W        W79483   7.903  39.990  12.393
19948W        W79484  23.577  44.921  11.447
19949W        W79485  11.250  39.539  11.899
19950W        W79486  43.381   6.718  13.895
19951W        W79487  17.215   9.688  10.925
19952W        W79488  36.572  29.072  12.421
19953W        W79489   9.360  43.298  13.862
19954W        W79490  30.959   7.277  14.451
19955W        W79491  37.087  33.591   3.361
19956W        W79492  35.554   9.790  13.895
19957W        W79493   9.790  32.555   0.272
19958W        W79494  38.433  34.005  14.855
19959W        W79495  36.502  24.026   3.843
19960W        W79496  38.486  43.895  13.483
19961W        W79497  31.581  41.998  13.337
19962W        W79498  29.531   8.185   2.368
19963W        W79499  28.075   4.706   2.873
19964W        W79500  29.426  13.690  13.531
19965W        W79501  11.339  32.468   3.849
19966W        W79502  40.843  21.065  11.591
19967W        W79503  44.423  11.809   3.648
19968W        W79504  43.771   4.389   2.410
19969W        W79505  10.632   4.322   2.703
19970W        W79506  19.747  40.322  12.492
19971W        W79507  40.325  15.109  13.044
19972W        W79508   5.378   0.414   0.382
19973W        W79509  43.821   7.194  12.503
19974W        W79510  31.634  23.222  12.970
19975W        W79511   2.738   8.821   0.911
19976W        W79512  32.929  21.704   3.332
19977W        W79513  28.561  18.092  13.434
19978W        W79514   3.316  41.030   2.679
19979W        W79515  26.562  14.826  14.032
19980W        W79516  19.178  38.475  14.435
19981W        W79517  39.553  17.179   0.373
19982W        W79518   0.321   2.447   4.829
19983W        W79519  32.466  27.457  14.976
19984W        W79520  12.300  41.449   4.832
19985W        W79521  36.531  36.869   3.276
19986W        W79522  23.133  44.455  13.021
19987W        W79523  18.073   1.309   4.642
19988W        W79524  22.999  21.216   3.372
19989W        W79525  44.362   7.184   1.844
19990W        W79526  29.655  35.999   2.305
19991W        W79527  20.129  17.735   0.360
19992W        W79528  31.951  19.764   2.824
19993W        W79529   3.795  22.710   4.800
19994W        W79530   3.891  24.042  14.880
19995W        W79531  27.675  25.650  10.450
19996W        W79532  10.783  43.466   0.824
19997W        W79533  26.069   2.810  12.862
19998W        W79534   6.219  41.840  10.587
19999W        W79535   8.859  42.403   3.342
20000W        W79536  21.246  24.021  10.959
20001W        W79537   4.918  33.997   2.897
20002W        W79538   4.844  40.840  10.616
20003W        W79539  19.048  15.778   1.252
20004W        W79540  31.069  33.126   3.702
20005W        W79541  16.726  10.871   0.787
20006W        W79542  38.824   3.825   1.724
20007W        W79543  19.534  33.101   1.813
20008W        W79544  22.741  40.326   2.837
20009W        W79545  26.148  11.790   4.328
20010W        W79546   2.809  29.154  11.422
20011W        W79547   1.810  23.113   3.792
20012W        W79548  31.580   5.235  13.830
20013W        W79549  21.556  41.425   1.754
20014W        W79550  39.510   2.874   1.301
20015W        W79551  43.384  43.302   4.222
20016W        W79552   4.700  14.767  10.533
20017W        W79553   2.795  40.040   4.313
20018W        W79554  19.218   8.380  10.407
20019W        W79555  19.596  14.271  12.522
20020W        W79556  24.098   5.829   1.800
20021W        W79557  25.097  14.778  11.062
20022W        W79558  13.240  28.518   2.697
20023W        W79559  13.302  40.446  11.901
20024W        W79560  43.785  26.632   0.365
20025W        W79561  14.163  31.002   1.356
20026W        W79562  38.992   1.330   0.420
20027W        W79563  34.531  27.581   1.307
20028W        W79564   5.386  17.578   0.459
20029W        W79565  22.034  42.346  12.575
20030W        W79566  26.685  27.109  13.057
20031W        W79567  32.634  10.327   4.788
20032W        W79568  31.436  38.516   1.735
20033W        W79569  37.024  15.709   0.472
20034W        W79570   6.880  10.289   0.960
20035W        W79571  39.375   8.833  14.451
20036W        W79572  37.360  16.245  12.519
20037W        W79573  32.571  26.575  13.064
20038W        W79574  26.625   1.400  10.499
20039W        W79575   9.187  20.120  11.107
20040W        W79576  37.878  41.906  10.503
20041W        W79577  44.870  34.501  14.777
20042W        W79578   0.387   3.931   2.415
20043W        W79579   1.394   5.781  14.454
20044W        W79580  30.429  22.660  11.887
20045W        W79581  37.830  16.610  11.987
20046W        W79582  11.233   7.788   0.264
20047W        W79583  38.880   5.806  10.927
20048W        W79584  33.988  18.711  12.875
20049W        W79585  27.597  30.586   2.750
20050W        W79586   3.282  35.865   4.333
20051W        W79587   1.767  18.215   3.830
20052W        W79588  37.399  20.666   2.305
20053W        W79589  15.242  30.621   0.351
20054W        W79590  41.322  29.949   1.735
20055W        W79591  28.988  44.787   2.780
20056W        W79592  29.645   8.239  13.832
20057W        W79593  26.517  33.424  10.489
20058W        W79594  27.534  44.423   4.146
20059W        W79595   8.899  39.023  14.963
20060W        W79596  17.101  31.937  14.854
20061W        W79597  22.129   2.896   0.760
20062W        W79598  11.148  16.225  11.389
20063W        W79599  36.095  12.352  11.959
20064W        W79600  43.801  24.076  14.287
20065W        W79601  23.133  37.446   0.751
20066W        W79602  39.369  32.934  13.020
20067W        W79603  14.283  25.525  12.866
20068W        W79604   6.260  10.806  11.484
20069W        W79605  39.542  26.511  14.425
20070W        W79606  19.078  35.068   1.766
20071W        W79607  14.747  31.537  14.416
20072W        W79608  13.312  15.254  11.007
20073W        W79609  29.974  42.315  14.297
20074W        W79610  36.391  29.429   3.825
20075W        W79611   7.704   3.437  11.502
20076W        W79612   5.205  40.830  10.554
20077W        W79613   6.871  44.287  11.543
20078W        W79614  30.606   2.447   1.737
20079W        W79615  17.223  44.979  11.007
20080W        W79616  32.068  33.959   3.740
20081W        W79617   3.214   5.703   0.795
20082W        W79618  14.135  30.944  13.389
20083W        W79619  22.239  23.592  11.059
20084W        W79620  39.545  18.293   1.230
20085W        W79621  41.302  20.274  12.954
20086W        W79622  17.792  36.488   0.428
20087W        W79623  31.966   9.370  10.568
20088W        W79624  32.019  43.490   2.867
20089W        W79625  38.036   8.285   0.463
20090W        W79626  11.296   1.437   2.206
20091W        W79627  40.853   0.311  12.384
20092W        W79628  28.526   4.221   1.935
20093W        W79629   7.786   2.385  11.526
20094W        W79630  22.151  32.026  12.070
20095W        W79631  23.168   8.834  13.968
20096W        W79632  11.269   1.861   3.246
20097W        W79633  37.043   5.911  11.472
20098W        W79634  18.099  11.726   0.400
20099W        W79635  37.898  14.154   3.705
20100W        W79636  43.904   6.775   2.361
20101W        W79637  12.616  11.664   1.881
20102W        W79638  30.474   0.276   0.298
20103W        W79639  10.343  37.002  13.843
20104W        W79640  18.691  27.074   2.896
20105W        W79641  11.215   8.292  11.914
20106W        W79642  28.480  18.173  12.580
20107W        W79643   0.984  42.378  11.538
20108W        W79644  20.110   7.298  10.514
20109W        W79645   8.818  41.964  10.497
20110W        W79646   1.852   3.453   3.287
20111W        W79647  25.517  37.561  11.077
20112W        W79648  15.251  33.621  14.989
20113W        W79649  33.595   7.854   4.817
20114W        W79650  30.421   1.389  14.303
20115W        W79651  40.382   8.815  13.817
20116W        W79652  24.557  30.152   3.836
20117W        W79653  34.864  36.553  12.878
20118W        W79654  12.279  38.901  11.585
20119W        W79655  26.083   2.808   2.413
20120W        W79656  29.992  42.420  13.319
20121W        W79657   4.384   2.891   3.229
20122W        W79658  29.444   3.447   3.294
20123W        W79659   0.367  22.052   1.447
20124W        W79660  29.562  19.671  11.571
20125W        W79661  21.711  18.162  13.894
20126W        W79662  38.033  10.149   4.328
20127W        W79663  16.638   7.352   2.197
20128W        W79664   6.218  33.020  13.447
20129W        W79665  38.526  42.781  13.350
20130W        W79666  26.113  12.152   1.438
20131W        W79667   8.237  35.477   4.195
20132W        W79668  31.010  20.240   3.206
20133W        W79669  40.327  40.974   4.647
20134W        W79670   0.304   9.233   0.354
20135W        W79671  32.987  14.184   5.196
20136W        W79672  32.003   2.294   2.742
20137W        W79673  21.033   4.410  14.863
20138W        W79674   3.722   8.208   4.788
20139W        W79675  12.834  16.616  11.574
20140W        W79676  21.734  11.622  13.487
20141W        W79677  28.168  29.576   3.735
20142W        W79678   1.466   6.217  11.492
20143W        W79679  19.684  26.665   3.373
20144W        W79680  41.311  17.731   2.222
20145W        W79681  34.439  30.416  14.956
20146W        W79682  16.249  31.082  14.867
20147W        W79683  38.018  24.558   2.869
20148W        W79684  35.983  37.521   2.221
20149W        W79685  37.874  16.677  12.878
20150W        W79686  24.020   0.794  12.902
20151W        W79687  39.383  23.039  11.112
20152W        W79688   2.765   9.741  14.492
20153W        W79689  21.156  28.577   3.659
20154W        W79690  29.546  18.767   0.292
20155W        W79691  19.659   9.719  14.453
20156W        W79692  11.825  22.628   0.809
20157W        W79693  30.127  28.664   0.322
20158W        W79694  17.178  12.273   1.925
20159W        W79695   8.181   5.360  13.876
20160W        W79696   7.315   1.375  12.007
20161W        W79697   9.746  33.058   1.782
20162W        W79698   4.288  44.418  13.432
20163W        W79699  39.503   9.774  14.394
20164W        W79700   8.343  24.208   4.287
20165W        W79701  32.972  43.287  13.502
20166W        W79702  35.954   7.206  10.922
20167W        W79703   6.890   8.850   5.306
20168W        W79704  30.144  33.523  10.582
20169W        W79705  37.563  35.589  12.458
20170W        W79706  32.893  28.053   4.794
20171W        W79707   7.258  16.791   0.964
20172W        W79708  30.625  17.241  10.436
20173W        W79709   5.810  32.535  14.824
20174W        W79710  21.018   6.824   1.913
20175W        W79711   8.170  19.170  12.562
20176W        W79712   6.381  38.471   0.452
20177W        W79713  35.103  39.349  12.976
20178W        W79714   2.733  19.142  11.428
20179W        W79715  33.063  25.201   0.374
20180W        W79716  40.041  22.059   2.755
20181W        W79717  44.262  18.557  11.919
20182W        W79718  18.106   9.763   3.379
20183W        W79719  21.738  20.261   4.767
20184W        W79720  39.962  39.512   4.807
20185W        W79721  38.394  24.153   0.374
20186W        W79722   8.380   9.850   1.363
20187W        W79723   1.831  15.270  12.580
20188W        W79724  25.993  13.824  14.016
20189W        W79725   8.280  10.280   3.344
20190W        W79726  39.878  23.688  11.379
20191W        W79727  44.465  35.085  13.965
20192W        W79728  37.945  40.384  10.636
20193W        W79729  34.554  31.508  10.618
20194W        W79730   9.649  44.991  14.419
20195W        W79731  37.830  43.297   1.812
20196W        W79732  41.352  21.231   4.339
20197W        W79733  32.127  39.401   3.373
20198W        W79734  31.588  40.475  10.494
20199W        W79735  39.416  19.744  13.940
20200W        W79736   4.209  36.388   3.663
20201W        W79737   4.772  29.431  12.469
20202W        W79738   3.448   8.279  13.015
20203W        W79739   7.714  26.087   5.212
20204W        W79740  44.337  40.924   1.921
20205W        W79741   5.913   9.325  12.045
20206W        W79742  26.656  27.458  11.444
20207W        W79743  33.018   4.345   4.617
20208W        W79744  13.292   6.750  10.977
20209W        W79745   4.243   3.246   2.271
20210W        W79746  25.631  15.163   3.698
20211W        W79747  30.469  38.935   2.749
20212W        W79748   0.424   9.345   1.860
20213W        W79749  28.108   5.267  11.459
20214W        W79750  25.640  36.534   3.812
20215W        W79751  26.689  32.506   0.864
20216W        W79752  28.984  36.513  13.534
20217W        W79753  21.108  42.511   1.895
20218W        W79754  15.130  24.119   2.264
20219W        W79755   6.851   9.734   2.418
20220W        W79756   9.265  10.277  12.862
20221W        W79757  23.152  29.014  14.025
20222W        W79758  29.121  30.573  12.091
20223W        W79759  38.373   6.285   4.793
20224W        W79760  14.237   7.212  10.616
20225W        W79761  32.433  17.292  10.989
20226W        W79762   7.375   9.240  14.317
20227W        W79763  36.510  23.544   1.712
20228W        W79764  19.670   5.280  14.423
20229W        W79765  34.059  22.696   2.709
20230W        W79766   4.407   1.415   1.717
20231W        W79767  11.750  33.085   1.829
20232W        W79768  26.040  32.120  13.987
20233W        W79769  13.611  24.499   2.822
20234W        W79770  30.909   7.258   2.721
20235W        W79771   8.288  16.157   2.302
20236W        W79772  44.843  38.905   2.814
20237W        W79773   5.772  27.992  13.046
20238W        W79774  42.356  11.678   2.379
20239W        W79775  14.103  29.623  13.535
20240W        W79776   7.681  35.503  13.806
20241W        W79777  10.744   0.892   2.390
20242W        W79778   7.405  27.550  12.363
20243W        W79779   4.225  11.819  12.410
20244W        W79780  27.551  16.194  12.093
20245W        W79781  37.942  16.747  14.833
20246W        W79782  36.463   4.406  14.494
20247W        W79783  25.650  16.688  13.942
20248W        W79784   9.685  30.136   3.345
20249W        W79785  39.958  44.398  11.448
20250W        W79786  22.034   9.764   0.397
20251W        W79787   8.363  38.035  12.884
20252W        W79788  38.428  43.963  11.948
20253W        W79789  12.254  20.208  12.900
20254W        W79790  18.275   7.674   0.851
20255W        W79791   6.365   1.343   1.330
20256W        W79792   2.415  29.583   3.272
20257W        W79793   0.769  37.552   3.764
20258W        W79794  37.466  35.361  14.013
20259W        W79795  25.063   2.810   3.288
20260W        W79796  34.109  40.327  14.484
20261W        W79797  19.637  13.304   4.260
20262W        W79798  31.446   1.350   4.122
20263W        W79799  18.069  26.481  13.992
20264W        W79800  21.545  43.313   1.732
20265W        W79801  19.172   6.427   4.693
20266W        W79802  27.015  35.382  10.100
20267W        W79803  41.397  40.335   5.301
20268W        W79804   0.441  11.245   3.216
20269W        W79805  35.100   8.327  14.360
20270W        W79806  42.897  20.639  14.403
20271W        W79807  18.695  15.217   2.855
20272W        W79808   4.363   5.713  10.573
20273W        W79809   3.326   4.872  13.809
20274W        W79810  11.666  11.134  13.418
20275W        W79811  17.190  24.538  10.962
20276W        W79812  40.466  34.557  12.357
20277W        W79813  14.723  40.518  10.547
20278W        W79814  19.696  44.405  12.349
20279W        W79815  41.421  27.608   1.839
20280W        W79816  13.602  24.583  11.128
20281W        W79817   1.737  10.180   0.424
20282W        W79818  33.512  20.090   4.291
20283W        W79819  27.553  39.056  14.968
20284W        W79820  21.642  38.429   0.943
20285W        W79821  16.154  12.147   4.692
20286W        W79822   5.854  24.229  11.553
20287W        W79823  23.055   0.306  11.072
20288W        W79824  41.874  13.123   4.729
20289W        W79825  43.946   9.705  11.940
20290W        W79826   6.817  11.732   4.341
20291W        W79827  19.710  35.080  10.149
20292W        W79828  32.425  26.484   1.861
20293W        W79829  22.159  34.432   3.793
20294W        W79830   1.800  15.585  11.951
20295W        W79831  24.019  10.307  11.064
20296W        W79832  25.189  11.701   0.769
20297W        W79833  43.507  24.587  14.284
20298W        W79834  13.191  18.632  10.965
20299W        W79835  20.592  25.035  14.333
20300W        W79836  26.974  27.523  13.975
20301W        W79837  12.350  13.634  12.083
20302W        W79838  16.215  10.747  14.970
20303W        W79839  38.919  36.994   1.254
20304W        W79840  38.371  31.403   2.204
20305W        W79841  22.053  28.145  13.365
20306W        W79842  32.583  19.692   4.813
20307W        W79843   7.413   6.873   0.390
20308W        W79844  11.638  39.366  13.546
20309W        W79845  29.625  28.979  14.470
20310W        W79846  27.461   9.314   1.381
20311W        W79847  32.485   6.752  13.890
20312W        W79848   1.825   1.456   2.275
20313W        W79849   7.235  39.389  13.948
20314W        W79850  10.808   0.403  12.451
20315W        W79851  33.608  33.004   4.829
20316W        W79852  29.076   2.947  13.357
20317W        W79853   3.288  14.111   0.366
20318W        W79854  31.929   5.420   2.688
20319W        W79855  18.252  43.897   1.706
20320W        W79856  15.315  23.184   3.371
20321W        W79857   4.791  42.433   4.119
20322W        W79858  36.024  24.226   3.378
20323W        W79859  13.710  21.728   3.696
20324W        W79860  20.550  38.898   3.379
20325W        W79861  39.358  15.675  14.417
20326W        W79862  29.629  23.630   4.206
20327W        W79863  16.157  40.314   1.297
20328W        W79864  20.569  35.403  12.572
20329W        W79865  23.528  34.536   3.315
20330W        W79866  43.508  39.813  13.936
20331W        W79867  38.405  20.030   3.741
20332W        W79868  41.292   7.223   1.834
20333W        W79869  41.001   7.842  13.469
20334W        W79870  30.134  29.955  11.068
20335W        W79871   6.237  19.635   5.266
20336W        W79872  34.106   0.251  13.362
20337W        W79873  30.929  24.173  12.533
20338W        W79874  39.920  36.591   3.198
20339W        W79875  35.929   8.830   1.339
20340W        W79876  40.969   1.244  10.595
20341W        W79877  44.430  16.594   2.770
20342W        W79878  32.493   8.206  12.347
20343W        W79879  17.584  20.209  12.993
20344W        W79880  25.657  39.453   1.814
20345W        W79881  26.136  34.998  10.450
20346W        W79882  23.536  21.204   3.232
20347W        W79883  24.624  42.344  13.441
20348W        W79884  10.193  33.960   1.761
20349W        W79885  38.075   0.948  13.980
20350W        W79886  15.707  42.374  12.877
20351W        W79887  26.200   3.373   1.932
20352W        W79888  24.168  22.090   0.432
20353W        W79889  42.330   9.205  12.868
20354W        W79890  34.531  43.779  11.962
20355W        W79891  23.001   4.808  11.945
20356W        W79892   7.850  33.127  11.906
20357W        W79893   8.210  17.174   0.938
20358W        W79894   6.258  36.060   1.705
20359W        W79895  25.570   7.260   0.817
20360W        W79896   7.185  26.558   1.400
20361W        W79897   0.803  13.601  13.379
20362W        W79898   5.726  28.505   5.275
20363W        W79899  17.771  35.510  10.520
20364W        W79900   1.381  13.748  13.388
20365W        W79901   9.833   0.968   4.288
20366W        W79902   6.681  38.501  10.456
20367W        W79903  43.431  25.612   0.936
20368W        W79904  44.477   7.867   2.237
20369W        W79905  30.537  26.102  13.465
20370W        W79906  14.219  10.767  13.826
20371W        W79907  33.061  17.161  12.431
20372W        W79908  14.772   6.760   4.244
20373W        W79909  12.244  43.971   4.722
20374W        W79910  31.607   9.335   2.758
20375W        W79911  29.663  24.979  10.545
20376W        W79912  27.499  24.495   4.690
20377W        W79913  35.957  12.307  13.845
20378W        W79914   1.899  24.086  14.286
20379W        W79915   0.368  22.635  14.981
20380W        W79916   6.244  18.759  13.436
20381W        W79917   6.351  10.356   4.665
20382W        W79918   0.758  12.750  11.609
20383W        W79919  44.821   8.274  12.045
20384W        W79920  41.972  10.238   2.244
20385W        W79921  22.731  42.827   2.222
20386W        W79922  31.004   7.299  14.823
20387W        W79923  40.543   2.451  13.971
20388W        W79924  14.115  28.013   4.741
20389W        W79925  17.107  28.031  10.596
20390W        W79926  32.549  25.015   2.730
20391W        W79927   6.282  19.071   2.353
20392W        W79928   4.355  37.386  12.483
20393W        W79929  42.013   9.337   0.790
20394W        W79930   7.844  24.626   0.740
20395W        W79931   0.806  42.844  10.460
20396W        W79932  42.815  31.115  14.461
20397W        W79933  21.686   4.261   9.519
20398W        W79934   1.396   7.809  12.040
20399W        W79935  25.032  15.322   4.793
20400W        W79936  44.940   9.292  12.879
20401W        W79937  30.080  36.894   2.310
20402W        W79938  33.087  34.869   1.388
20403W        W79939  41.982   6.279   5.120
20404W        W79940  35.413  12.820   3.368
20405W        W79941  37.404  25.141  12.823
20406W        W79942   0.492  38.483  14.768
20407W        W79943   5.763  43.840   3.677
20408W        W79944  36.526  39.415  10.641
20409W        W79945  30.524   4.893   1.220
20410W        W79946  36.869  15.781  13.368
20411W        W79947  24.570  14.656   2.286
20412W        W79948  31.079  11.768  14.293
20413W        W79949  32.954  25.187   3.339
20414W        W79950  16.285   1.881  14.928
20415W        W79951  32.458  25.979  12.850
20416W        W79952  44.004  25.643  12.497
20417W        W79953  33.891  15.182  14.277
20418W        W79954  28.963  28.146  13.826
20419W        W79955   3.778   3.403   3.316
20420W        W79956  10.858  18.658  12.032
20421W        W79957   6.322  37.411  13.321
20422W        W79958  28.015  31.608   0.897
20423W        W79959  10.384  25.659  10.099
20424W        W79960  35.021  43.281  14.331
20425W        W79961   7.727   9.292   2.665
20426W        W79962  38.351  17.105  10.446
20427W        W79963  10.206  22.637   0.434
20428W        W79964  19.174  24.648   2.883
20429W        W79965  24.545  26.524   0.377
20430W        W79966   2.912  15.129  11.591
20431W        W79967  35.096  42.336  14.350
20432W        W79968  19.626  37.980   1.725
20433W        W79969  38.529  34.042   1.246
20434W        W79970  33.087  16.736  12.848
20435W        W79971  19.621  37.404   4.820
20436W        W79972  43.956  33.920   1.823
20437W        W79973  38.496   6.426   1.905
20438W        W79974   7.873  24.190  11.100
20439W        W79975  36.522  29.960   3.643
20440W        W79976  39.469   4.854  14.331
20441W        W79977  26.024  25.218   2.382
20442W        W79978  18.594   1.862   2.672
20443W        W79979  41.908  22.665   3.382
20444W        W79980  17.076  22.569   3.639
20445W        W79981  44.795  17.143   1.313
20446W        W79982  37.918  12.185   3.731
20447W        W79983  44.788  42.285   3.659
20448W        W79984  22.659   6.390   4.657
20449W        W79985  39.374  41.911   0.292
20450W        W79986  22.586  38.412   1.901
20451W        W79987  14.331  12.238  11.527
20452W        W79988  10.779   0.463  13.889
20453W        W79989  17.251   8.795   1.875
20454W        W79990   7.203  43.852  10.964
20455W        W79991  26.022   1.482   2.839
20456W        W79992  13.139  21.580  12.520
20457W        W79993  18.633  41.039  11.484
20458W        W79994  24.665  26.951  12.911
20459W        W79995   0.758  28.534   3.821
20460W        W79996  29.649  23.073   2.389
20461W        W79997  39.913  27.041   4.244
20462W        W79998  30.120   8.229   2.208
20463W        W79999   6.843  10.210   1.248
20464W        W80000   7.890  14.099   3.376
20465W        W80001  33.553  21.523   2.355
20466W        W80002  22.505  16.772   1.719
20467W        W80003   6.314  37.930   3.772
20468W        W80004  26.552  23.141  11.567
20469W        W80005   8.315  36.067  13.034
20470W        W80006  11.196   8.771  13.327
20471W        W80007  16.590  43.774   3.304
20472W        W80008   6.273  28.160   3.336
20473W        W80009  41.820  36.030  12.942
20474W        W80010  12.136  16.154  13.061
20475W        W80011  33.024  36.971  14.481
20476W        W80012  22.714  27.960  13.903
20477W        W80013  25.125  21.076  11.065
20478W        W80014  13.138  28.047   3.652
20479W        W80015  12.251  40.410  11.578
20480W        W80016   2.935  19.690  10.619
20481W        W80017  29.950  44.899  14.502
20482W        W80018  13.277  31.636  12.945
20483W        W80019  10.346  39.859   3.722
20484W        W80020  31.052  20.718   4.725
20485W        W80021  26.506  38.854  12.556
20486W        W80022  33.519   0.872   4.263
20487W        W80023  44.913  30.076   0.859
20488W        W80024  16.285  26.054  10.550
20489W        W80025  43.403  43.370  12.477
20490W        W80026   6.229  20.238  12.906
20491W        W80027  31.426  34.472   2.838
20492W        W80028  24.030  37.484   3.210
20493W        W80029  40.417  35.918   2.407
20494W        W80030  26.467  44.362  12.006
20495W        W80031  34.993  19.616  13.340
20496W        W80032  29.928  28.184   2.840
20497W        W80033   5.822  20.267   0.962
20498W        W80034   8.714   1.236   3.147
20499W        W80035  38.983  34.577   9.973
20500W        W80036  35.106   7.911   2.885
20501W        W80037  20.634  11.827   4.142
20502W        W80038  31.004  14.209  12.976
20503W        W80039  38.456  29.020   1.816
20504W        W80040  20.171  20.585   2.238
20505W        W80041  31.075  43.965  13.008
20506W        W80042   6.235  39.949  13.886
20507W        W80043  17.779  44.826   3.746
20508W        W80044  39.536  18.099   2.796
20509W        W80045  27.159  16.219   0.845
20510W        W80046  23.628  35.561   4.315
20511W        W80047   1.735  36.574  14.819
20512W        W80048  26.105  19.570   2.209
20513W        W80049  17.088  33.477   3.856
20514W        W80050  13.834   5.231  12.560
20515W        W80051   7.209  43.318   0.362
20516W        W80052  31.448  37.908   4.720
20517W        W80053  26.548  44.500   3.165
20518W        W80054  19.539  34.564   2.688
20519W        W80055  25.987  27.568   0.357
20520W        W80056  33.928   4.361  13.801
20521W        W80057  25.495  35.565   3.749
20522W        W80058   3.914   8.250  14.479
20523W        W80059   0.940   8.406   4.279
20524W        W80060  44.927  19.743   2.339
20525W        W80061   7.734  18.716   0.305
20526W        W80062  17.251  19.559  12.866
20527W        W80063  39.355  28.938   2.356
20528W        W80064  42.803   5.911  13.499
20529W        W80065   1.817  33.463   1.386
20530W        W80066   3.357  31.627   1.851
20531W        W80067  44.824  38.066  12.530
20532W        W80068  19.208   5.831   2.384
20533W        W80069  32.099  42.782  14.787
20534W        W80070  33.063   6.819  14.759
20535W        W80071   9.333  36.360  11.864
20536W        W80072   8.212  27.161   2.694
20537W        W80073   1.339   5.212   3.685
20538W        W80074   6.856   3.737  11.952
20539W        W80075  17.664  42.884   3.839
20540W        W80076  27.140  23.042  14.297
20541W        W80077  26.624   5.781   4.623
20542W        W80078  18.061  23.504  13.547
20543W        W80079  22.535  11.764  13.352
20544W        W80080  25.497  30.042   1.395
20545W        W80081   7.179   3.326   1.704
20546W        W80082  38.444  33.109   1.866
20547W        W80083  31.522  33.876   4.144
20548W        W80084  33.395  37.908   0.365
20549W        W80085  29.503  21.222  13.439
20550W        W80086  33.952  13.613  13.793
20551W        W80087  22.249  29.141   1.353
20552W        W80088   6.354  11.153   4.287
20553W        W80089  37.401  43.321   4.609
20554W        W80090  33.380   9.885   4.747
20555W        W80091  27.509  20.271  11.045
20556W        W80092   7.208  44.870  12.375
20557W        W80093  37.380  26.500   5.134
20558W        W80094  33.998  13.238  13.508
20559W        W80095  37.377  26.007  11.447
20560W        W80096  10.843  38.455  14.297
20561W        W80097  27.965  17.784   1.350
20562W        W80098  23.987   4.828  12.073
20563W        W80099  11.340  10.790   3.776
20564W        W80100  22.647   3.711   0.414
20565W        W80101   8.855  20.064   4.599
20566W        W80102  18.635  38.531   2.892
20567W        W80103   1.410   0.812   0.270
20568W        W80104   5.331  33.884   2.765
20569W        W80105  14.590   1.917  10.578
20570W        W80106  30.087  40.303  11.467
20571W        W80107   7.243  31.105   3.669
20572W        W80108  27.532   3.274   2.307
20573W        W80109  25.581   0.253   2.899
20574W        W80110  25.110  28.588   0.475
20575W        W80111  30.115  26.622   5.634
20576W        W80112  40.828  12.746  12.841
20577W        W80113  14.623  15.153   2.346
20578W        W80114   3.408   7.859   2.791
20579W        W80115  26.188  23.717   4.281
20580W        W80116  16.138   9.678   0.838
20581W        W80117  39.020   4.356   4.287
20582W        W80118   6.253  44.490  13.898
20583W        W80119  24.611  31.908  12.346
20584W        W80120  44.860   3.278   2.671
20585W        W80121  30.416   1.261   3.217
20586W        W80122  30.595   4.238   3.245
20587W        W80123   5.697  37.893  13.972
20588W        W80124  29.118  39.963  13.905
20589W        W80125  20.606  23.166  12.823
20590W        W80126   9.268  30.497   1.244
20591W        W80127  10.825  11.367   0.852
20592W        W80128  13.263  34.985  13.031
20593W        W80129  40.342   3.843  10.910
20594W        W80130  30.095  17.222   4.748
20595W        W80131  12.130  27.572  13.933
20596W        W80132   3.263  10.771   1.899
20597W        W80133  22.194  29.641  10.645
20598W        W80134  38.456  30.513  13.877
20599W        W80135  23.172   6.382   4.775
20600W        W80136   8.680  30.558  11.059
20601W        W80137   0.439  20.120  13.424
20602W        W80138   4.737  42.810  13.030
20603W        W80139  23.675  19.256   3.273
20604W        W80140   8.356  30.563  13.384
20605W        W80141  30.413   7.414  11.566
20606W        W80142   6.887  34.031   4.676
20607W        W80143  14.684   3.920   4.732
20608W        W80144   0.267  32.543   1.703
20609W        W80145  37.072  23.661  13.799
20610W        W80146  41.897   3.826  13.049
20611W        W80147  31.542  20.216   3.198
20612W        W80148  26.123  30.092  12.425
20613W        W80149   5.367   9.392  14.418
20614W        W80150  40.007  26.984  12.938
20615W        W80151  27.682   7.302   4.672
20616W        W80152  21.641  18.182   5.089
20617W        W80153  13.662  35.578   3.762
20618W        W80154  31.572  12.333  11.924
20619W        W80155  16.304  16.777   1.261
20620W        W80156   0.761  13.220   3.827
20621W        W80157   4.445   0.860   4.345
20622W        W80158  14.242   6.316  11.085
20623W        W80159  33.394  23.524  11.868
20624W        W80160  11.193  17.763   0.821
20625W        W80161  36.419  29.546   4.308
20626W        W80162  35.011   7.206   3.212
20627W        W80163   8.168  29.527  13.480
20628W        W80164   7.384  15.206   1.237
20629W        W80165  18.254  23.181   4.685
20630W        W80166   3.929   0.883   1.437
20631W        W80167  31.945  11.815  13.473
20632W        W80168  22.694  17.284  11.917
20633W        W80169  15.743   5.878   3.786
20634W        W80170   4.292  34.995   2.890
20635W        W80171  42.507  10.877   4.325
20636W        W80172  15.126  41.963   1.248
20637W        W80173  16.800  38.449  11.082
20638W        W80174  42.838   0.746  10.635
20639W        W80175   5.697  34.613   0.734
20640W        W80176   9.684  35.384  13.385
20641W        W80177  23.211  43.415   1.432
20642W        W80178   4.879   3.441  10.934
20643W        W80179  28.501  16.628   9.921
20644W        W80180  31.988  19.543   5.105
20645W        W80181  21.227  37.899  12.925
20646W        W80182  35.367   9.726   4.643
20647W        W80183  39.331  33.578  12.382
20648W        W80184  35.470  36.909  14.464
20649W        W80185  29.574  26.558   0.317
20650W        W80186  27.103  29.530   3.720
20651W        W80187  34.080  14.103  12.409
20652W        W80188  31.138  30.492   3.321
20653W        W80189  37.462  21.149  13.791
20654W        W80190  41.386  25.189   3.322
20655W        W80191  27.654  14.099   4.802
20656W        W80192  21.601   9.355   3.656
20657W        W80193  20.664  20.746   2.196
20658W        W80194  19.204   2.244  12.399
20659W        W80195  10.212   4.436   0.451
20660W        W80196   8.162  34.511   2.189
20661W        W80197  17.241  30.515  11.390
20662W        W80198  12.236   4.878  14.027
20663W        W80199  14.671  26.143  10.988
20664W        W80200  25.076  34.093  11.569
20665W        W80201  16.316  29.612  11.098
20666W        W80202  40.814  13.726  11.391
20667W        W80203  13.238  33.025  11.482
20668W        W80204  20.109   8.299   0.805
20669W        W80205  19.557  21.040  14.905
20670W        W80206   8.333  34.504   3.267
20671W        W80207   1.951  34.003  13.966
20672W        W80208  38.355  26.075  12.915
20673W        W80209   5.330  13.630  11.376
20674W        W80210  31.567  16.596   2.850
20675W        W80211  35.963  32.991  11.547
20676W        W80212  24.161   7.730   0.955
20677W        W80213  32.588  39.423   2.761
20678W        W80214  10.263  31.104   9.556
20679W        W80215  22.705  25.604  11.378
20680W        W80216  26.581  23.529   0.340
20681W        W80217  42.891  33.964  14.819
20682W        W80218  21.665  16.755  12.560
20683W        W80219  27.661   6.694   2.235
20684W        W80220  12.734  39.887  12.357
20685W        W80221  31.984  40.532   3.797
20686W        W80222  42.985  27.457   3.344
20687W        W80223   7.269  44.970   3.198
20688W        W80224  12.167  18.652   1.767
20689W        W80225  31.152   5.283  10.960
20690W        W80226  27.485  10.650  13.940
20691W        W80227  41.955   3.450   5.254
20692W        W80228  34.937   5.418  11.111
20693W        W80229  27.669  24.520   3.759
20694W        W80230  44.772  19.542  10.510
20695W        W80231  20.662   4.408   2.237
20696W        W80232   5.378  38.480   0.952
20697W        W80233  23.691   9.192  12.459
20698W        W80234   5.413  44.843   2.190
20699W        W80235  29.059  33.121   0.375
20700W        W80236  30.650  29.948  11.480
20701W        W80237  38.944  15.662   5.116
20702W        W80238  16.209  12.338  12.967
20703W        W80239  31.587   1.737  13.958
20704W        W80240  27.480  16.174   4.838
20705W        W80241  28.007  22.107   2.417
20706W        W80242  37.039  22.571   4.726
20707W        W80243  35.584  20.129   3.807
20708W        W80244  29.531   3.229   4.281
20709W        W80245  37.835  19.615  12.546
20710W        W80246  18.069  42.012   1.757
20711W        W80247   4.746  39.938  12.072
20712W        W80248  42.405   7.321   2.789
20713W        W80249  23.200  37.489   1.420
20714W        W80250  26.007  40.039   4.352
20715W        W80251   8.802  15.212  14.321
20716W        W80252  20.135  37.399   0.454
20717W        W80253  34.586  38.488  13.373
20718W        W80254  43.354   0.343  12.881
20719W        W80255  38.985  22.530  10.644
20720W        W80256  31.033  31.974  13.012
20721W        W80257   0.886   2.783   3.276
20722W        W80258  23.551  14.304  11.438
20723W        W80259  40.845  30.636  14.833
20724W        W80260  37.572  18.722  10.564
20725W        W80261   1.258  29.941   3.702
20726W        W80262  22.640  43.392  11.030
20727W        W80263  44.264  13.779   1.385
20728W        W80264   3.344  42.397   3.816
20729W        W80265  12.322  19.120   2.824
20730W        W80266  29.561  21.151  12.845
20731W        W80267  24.583  20.616   3.761
20732W        W80268  39.533  20.249   2.693
20733W        W80269   7.673  25.654   4.236
20734W        W80270  23.025  25.525  11.498
20735W        W80271  26.511  14.784   0.850
20736W        W80272  33.011  15.745  13.445
20737W        W80273  13.637  23.204  11.059
20738W        W80274  43.833   9.832  12.903
20739W        W80275   4.915  20.592  12.894
20740W        W80276  38.556  25.159   4.124
20741W        W80277  41.917   4.881  11.416
20742W        W80278   6.205  40.309  13.994
20743W        W80279  36.417  17.595  13.543
20744W        W80280   5.346  21.093   3.173
20745W        W80281  12.318  12.814   4.320
20746W        W80282  44.279  11.659   0.406
20747W        W80283   3.324  14.647  11.393
20748W        W80284  32.062   1.929  10.971
20749W        W80285  34.460  23.518   0.343
20750W        W80286  10.676   0.839   0.312
20751W        W80287  28.627  26.972   2.242
20752W        W80288  40.370  26.190   1.314
20753W        W80289  30.163  11.301  11.006
20754W        W80290  35.501  13.732   0.406
20755W        W80291  15.314  43.919   0.820
20756W        W80292   4.399  26.607   1.758
20757W        W80293  38.838   2.743  11.391
20758W        W80294  37.084  18.770  14.015
20759W        W80295  36.059  17.293  11.431
20760W        W80296  37.393  15.683  11.556
20761W        W80297  20.206  31.067  12.973
20762W        W80298   1.897  12.247   2.267
20763W        W80299   3.909  20.095   3.187
20764W        W80300  40.878  39.322   2.394
20765W        W80301   1.899  36.985   0.252
20766W        W80302  25.060   8.198   2.374
20767W        W80303  34.938  29.051  11.055
20768W        W80304  32.134  31.994  10.414
20769W        W80305   7.366  13.652   4.254
20770W        W80306  32.996  12.832   4.649
20771W        W80307  19.250   0.487   0.933
20772W        W80308  12.821  27.615   3.690
20773W        W80309  35.957  25.107   2.381
20774W        W80310  23.643   3.955   2.739
20775W        W80311   5.299  23.196   2.664
20776W        W80312   3.310  41.313  12.373
20777W        W80313  25.589  30.573  14.281
20778W        W80314  12.752  19.177   1.902
20779W        W80315  31.558  31.993  11.858
20780W        W80316  21.697   9.179  10.514
20781W        W80317  10.766  26.106   0.806
20782W        W80318  21.658  11.684   0.794
20783W        W80319   6.402  41.318   3.381
20784W        W80320  32.089   5.806   1.932
20785W        W80321   2.458  24.622   3.799
20786W        W80322  16.654   4.790   1.324
20787W        W80323  28.025  15.652  11.044
20788W        W80324   0.920   5.866  10.907
20789W        W80325  44.326  23.038   0.853
20790W        W80326  40.028   4.841   2.224
20791W        W80327  34.607  17.651  13.010
20792W        W80328  14.102  28.034   2.261
20793W        W80329  20.527  41.405   1.775
20794W        W80330  34.973  15.747   2.713
20795W        W80331  20.247   8.392  13.467
20796W        W80332  20.709  23.125   3.747
20797W        W80333  36.977   5.777  11.099
20798W        W80334  31.075   3.897   4.797
20799W        W80335  32.556   9.732   3.630
20800W        W80336  16.120  15.750   1.400
20801W        W80337  43.379  43.311  11.377
20802W        W80338   7.318  13.752   2.396
20803W        W80339   2.876   5.855  12.908
20804W        W80340  13.667  14.252  14.498
20805W        W80341  26.636  33.929  11.523
20806W        W80342  15.236  36.455   4.764
20807W        W80343  25.553   3.411   0.825
20808W        W80344  29.603  22.999  14.032
20809W        W80345  25.159   2.966   2.323
20810W        W80346  35.865   7.233   0.313
20811W        W80347  14.793  35.491   4.735
20812W        W80348   9.355   2.765   3.329
20813W        W80349  10.649   5.925  12.072
20814W        W80350  36.070   1.782   0.921
20815W        W80351   3.786  25.064  12.983
20816W        W80352  33.908  19.682  13.060
20817W        W80353  21.224  28.953  11.118
20818W        W80354  31.000  10.229  12.009
20819W        W80355  40.934  29.024   4.123
20820W        W80356  34.545   0.323  13.320
20821W        W80357  42.939  39.823   2.901
20822W        W80358  38.983   7.230  10.507
20823W        W80359  44.396  16.713   3.632
20824W        W80360  43.919  30.958  10.995
20825W        W80361  44.997  27.605  12.507
20826W        W80362  19.580  10.186   2.178
20827W        W80363  34.611  11.254  14.415
20828W        W80364  42.323  15.768  14.907
20829W        W80365   7.673  25.645   3.346
20830W        W80366  30.637  28.044   4.252
20831W        W80367  25.701  25.661  10.977
20832W        W80368   2.749  18.583   3.770
20833W        W80369  30.112  10.276   3.814
20834W        W80370  21.252  21.246  11.996
20835W        W80371  19.774  31.115  14.814
20836W        W80372  24.098  32.892   3.304
20837W        W80373  37.387  17.790   0.746
20838W        W80374  30.612  10.336  11.970
20839W        W80375  15.312  22.087  11.004
20840W        W80376  14.717  34.942  11.104
20841W        W80377  30.942   4.881   2.242
20842W        W80378  13.734   1.462   1.771
20843W        W80379   4.332   1.913  11.974
20844W        W80380  32.043  31.588   3.372
20845W        W80381  38.025  31.646   0.388
20846W        W80382  26.459   7.859  14.359
20847W        W80383  29.918   1.425  11.892
20848W        W80384  30.160  18.140  12.392
20849W        W80385   7.835  30.652   4.280
20850W        W80386   4.426  13.247   2.895
20851W        W80387  10.682  38.842   0.903
20852W        W80388  41.829   0.447  12.023
20853W        W80389   5.901  24.188   4.686
20854W        W80390  44.893   6.779  13.001
20855W        W80391   0.822  17.130   2.354
20856W        W80392  40.392  18.151  13.336
20857W        W80393  13.234  19.169   2.769
20858W        W80394  28.516  42.966   5.291
20859W        W80395  15.264  11.214   3.298
20860W        W80396  37.543  25.130   1.832
20861W        W80397  14.749  11.799  12.084
20862W        W80398  32.130   4.876  12.986
20863W        W80399   0.945  11.839  13.364
20864W        W80400  30.547  16.809   4.765
20865W        W80401  29.615  25.191  13.389
20866W        W80402  32.497   4.856   1.400
20867W        W80403  28.934  41.009   2.707
20868W        W80404   8.689  32.112  13.351
20869W        W80405  42.006  11.773  14.444
20870W        W80406  35.007   7.201   0.906
20871W        W80407  19.192  16.185  11.063
20872W        W80408   1.427  14.760   3.864
20873W        W80409   7.313  38.975  11.936
20874W        W80410   0.297   3.811   4.309
20875W        W80411  25.985   2.879  14.867
20876W        W80412   9.365  13.621   3.767
20877W        W80413  27.188  43.308  11.406
20878W        W80414  14.724   6.851   2.746
20879W        W80415  36.400   3.226   1.291
20880W        W80416  23.609  44.754   3.334
20881W        W80417  23.735  39.425   4.766
20882W        W80418  25.713   2.783   9.968
20883W        W80419  15.306   5.716   2.885
20884W        W80420  43.318  33.974   3.290
20885W        W80421  10.731   4.876   3.769
20886W        W80422  33.479  27.148   4.307
20887W        W80423  17.704  36.095   2.876
20888W        W80424   4.268  21.247  11.507
20889W        W80425  41.387  25.624  13.886
20890W        W80426   7.682   1.467  11.024
20891W        W80427   6.321  17.184  13.443
20892W        W80428  37.465  24.118   2.358
20893W        W80429   5.263  37.969  13.426
20894W        W80430  15.196  23.079  14.848
20895W        W80431   8.360  40.051  12.514
20896W        W80432  43.783  22.244  13.424
20897W        W80433  20.085  16.114  13.841
20898W        W80434  33.600  36.350   1.743
20899W        W80435  29.119  36.367   3.635
20900W        W80436   8.844  24.628   0.766
20901W        W80437  25.186  32.089   1.359
20902W        W80438  12.646  21.535   3.841
20903W        W80439  11.298  44.272  13.859
20904W        W80440  43.880  44.423   1.921
20905W        W80441   7.339  15.096   4.809
20906W        W80442  24.010  23.097   3.796
20907W        W80443   0.803   6.871   1.361
20908W        W80444   1.384  18.742   3.698
20909W        W80445  28.566  15.819  13.427
20910W        W80446  37.352  44.756  12.050
20911W        W80447  25.116  42.951   4.617
20912W        W80448  35.592   7.219   4.150
20913W        W80449  42.338  37.073  13.920
20914W        W80450  31.983  36.894  13.357
20915W        W80451  31.601   6.400   1.253
20916W        W80452   4.448   4.401   1.725
20917W        W80453   5.398  42.524   0.396
20918W        W80454   4.722  15.733  13.495
20919W        W80455   2.443   7.726   4.782
20920W        W80456   2.347  29.465   3.805
20921W        W80457  30.108  44.921   4.748
20922W        W80458  29.450  31.625  11.908
20923W        W80459  19.079  34.019  11.126
20924W        W80460  32.412  32.981   4.327
20925W        W80461  10.717  18.644   2.313
20926W        W80462   5.764   5.787   4.198
20927W        W80463  26.141  25.028  12.919
20928W        W80464  25.108  16.602  13.500
20929W        W80465   2.800  27.566  11.041
20930W        W80466  29.507  26.546  12.527
20931W        W80467  20.632   9.863   2.854
20932W        W80468  35.450  36.008  13.800
20933W        W80469  15.633  10.205   2.319
20934W        W80470  11.240  23.575  11.868
20935W        W80471  20.640  23.613  14.290
20936W        W80472  20.741  43.278  13.372
20937W        W80473  10.156   0.769   0.321
20938W        W80474  36.984   9.740  10.478
20939W        W80475  38.872   3.928   1.252
20940W        W80476  24.031   2.450   3.809
20941W        W80477   8.253  16.754  11.581
20942W        W80478  39.356  17.179   1.792
20943W        W80479  44.273  36.518  14.996
20944W        W80480   5.786   1.967  11.434
20945W        W80481  36.487  22.576   0.952
20946W        W80482  13.607  44.937   0.246
20947W        W80483  20.153  44.311  13.411
20948W        W80484  36.350  21.685   4.325
20949W        W80485  32.021  30.618  14.453
20950W        W80486  15.639  25.495   1.817
20951W        W80487  20.149  15.680  13.984
20952W        W80488   2.362  27.524  11.897
20953W        W80489  15.587  29.591   1.727
20954W        W80490  14.757   8.796   2.889
20955W        W80491  22.152   0.287   2.720
20956W        W80492  14.716  35.462   0.483
20957W        W80493  10.183  32.890   4.261
20958W        W80494  34.946  28.619   3.765
20959W        W80495  28.528  39.836   4.310
20960W        W80496  18.711  25.705  12.049
20961W        W80497   5.757   8.900   1.763
20962W        W80498  41.377   5.692  11.441
20963W        W80499  26.957  18.733   2.184
20964W        W80500   7.870  34.598  10.613
20965W        W80501  32.438  10.674  11.914
20966W        W80502  43.979   5.784  12.909
20967W        W80503  42.822  38.446   0.793
20968W        W80504  29.652  39.891   3.706
20969W        W80505  18.138  44.918  12.376
20970W        W80506  29.571  27.528   1.812
20971W        W80507  42.331  17.739   2.672
20972W        W80508   6.280   6.192   3.867
20973W        W80509  43.930  10.760  12.512
20974W        W80510  13.196  33.024  14.406
20975W        W80511  10.274  20.189   0.816
20976W        W80512  27.482  12.223   3.712
20977W        W80513  27.167  16.147   4.291
20978W        W80514   0.377  31.918   4.339
20979W        W80515   0.787  35.964  10.006
20980W        W80516  25.219  41.910   3.690
20981W        W80517  44.270  31.075   1.715
20982W        W80518   8.381   0.357  12.935
20983W        W80519  16.732   5.839  13.428
20984W        W80520  13.783  13.779   2.780
20985W        W80521  33.457  16.082  14.444
20986W        W80522  32.096   5.853   5.114
20987W        W80523  11.835  33.622   4.349
20988W        W80524  11.308  15.311   3.814
20989W        W80525  39.425  10.872  13.517
20990W        W80526  42.417   4.326   1.377
20991W        W80527   9.249  33.510   2.303
20992W        W80528   5.707  43.481  11.406
20993W        W80529  25.639  29.426  13.863
20994W        W80530  42.434  10.359   0.932
20995W        W80531  26.996  23.080   2.370
20996W        W80532  31.994  40.806  13.927
20997W        W80533  21.121  26.125   2.696
20998W        W80534  28.495  22.523  12.949
20999W        W80535  32.065  26.528   3.773
21000W        W80536  16.752  23.511  10.974
21001W        W80537  34.613  25.495   1.332
21002W        W80538  21.749  36.524   2.336
21003W        W80539  35.493  13.193  10.587
21004W        W80540  37.368   2.944  11.571
21005W        W80541  19.173   4.366   0.794
21006W        W80542   7.734   1.805   2.409
21007W        W80543  11.354   7.889  12.394
21008W        W80544  31.971  11.681   1.435
21009W        W80545  24.580  24.058   1.449
21010W        W80546  34.567  41.817  10.553
21011W        W80547  20.057  31.023  11.921
21012W        W80548  32.987   4.749   4.200
21013W        W80549  33.923   3.875   0.871
21014W        W80550  17.792  44.293   2.709
21015W        W80551   5.787  13.222   4.694
21016W        W80552   5.336   5.907   3.237
21017W        W80553  38.969  28.943   3.320
21018W        W80554  15.748   7.365   1.367
21019W        W80555  29.647  19.710  13.324
21020W        W80556  32.950  30.027  10.616
21021W        W80557   6.195  16.670   1.332
21022W        W80558   4.835  26.991  10.414
21023W        W80559  25.119  15.579  13.988
21024W        W80560  34.985   5.269  13.947
21025W        W80561  22.240  30.617   3.674
21026W        W80562  37.016   5.273   2.366
21027W        W80563  28.971  23.643   2.385
21028W        W80564  10.671  26.955  11.427
21029W        W80565  28.600  21.050   0.312
21030W        W80566  32.140  28.640  13.054
21031W        W80567   9.844  36.090   0.777
21032W        W80568   5.358  23.565  14.806
21033W        W80569  36.572   9.370  10.999
21034W        W80570  35.927   3.459  11.402
21035W        W80571   0.353   5.196   4.315
21036W        W80572  43.422  25.549   1.840
21037W        W80573   3.759  29.077  11.930
21038W        W80574   7.226   6.307   3.269
21039W        W80575  40.817  41.960  13.534
21040W        W80576   6.322  27.645  14.384
21041W        W80577   9.727  18.591   2.178
21042W        W80578  32.960  42.358  11.104
21043W        W80579   2.745  23.093  13.386
21044W        W80580   2.294  31.512  14.982
21045W        W80581  42.971  41.344  13.373
21046W        W80582  27.666  44.348  11.978
21047W        W80583  10.170  24.037  10.586
21048W        W80584  41.808  31.648  10.960
21049W        W80585  41.406  19.257  14.926
21050W        W80586  15.753  44.875  11.921
21051W        W80587  14.112  40.342   0.273
21052W        W80588  26.981  30.649  11.511
21053W        W80589  22.718  30.474  11.477
21054W        W80590  28.598  43.432  12.892
21055W        W80591  42.286  16.689  12.854
21056W        W80592  21.061  21.711   3.667
21057W        W80593  28.527  17.081   2.307
21058W        W80594  20.219  36.887   1.747
21059W        W80595  19.589   8.265   3.384
21060W        W80596  28.065  37.446   9.973
21061W        W80597   6.858  38.566  13.977
21062W        W80598  16.180  13.222   3.669
21063W        W80599  30.919  18.569  11.879
21064W        W80600  20.232   7.226  14.355
21065W        W80601  14.249   0.860  11.951
21066W        W80602  17.077  27.688  12.902
21067W        W80603  12.642  15.213   1.351
21068W        W80604  25.188   1.325   1.843
21069W        W80605  13.273   3.296  14.008
21070W        W80606  28.066  29.556  11.957
21071W        W80607  24.979  33.890  12.498
21072W        W80608  24.692  20.571  14.504
21073W        W80609  27.194  35.461   1.373
21074W        W80610  28.501  18.548   4.620
21075W        W80611  36.072  20.209  13.422
21076W        W80612  18.238  27.637  13.004
21077W        W80613  26.467   6.289   1.377
21078W        W80614  22.595  44.808  14.961
21079W        W80615  34.562  36.422  13.054
21080W        W80616   6.328  34.475   1.879
21081W        W80617   6.259   2.773   2.785
21082W        W80618  22.011   8.807  12.071
21083W        W80619   6.297   0.445  11.078
21084W        W80620  24.692  31.994   2.698
21085W        W80621   4.339  31.961   4.703
21086W        W80622   3.912  30.648  11.589
21087W        W80623  42.976   2.850   3.335
21088W        W80624  27.686  25.675   2.673
21089W        W80625  35.579  25.697   0.888
21090W        W80626  33.569   4.321   3.666
21091W        W80627  19.683   1.861   0.283
21092W        W80628  34.045   3.316  12.558
21093W        W80629  18.169  19.049   0.464
21094W        W80630  35.540  22.112  11.595
21095W        W80631   6.269  38.922  14.512
21096W        W80632  43.015  31.485  13.309
21097W        W80633  41.451  42.459   1.325
21098W        W80634  39.891  18.558  11.920
21099W        W80635  20.691  16.117   2.882
21100W        W80636  42.785  15.668  11.554
21101W        W80637  11.692  12.288  13.506
21102W        W80638  44.466  27.558  11.908
21103W        W80639  36.378   7.888   0.864
21104W        W80640   5.833  33.943  14.770
21105W        W80641  17.237  40.964   4.212
21106W        W80642  32.885  41.836  14.301
21107W        W80643  15.660  12.242  13.894
21108W        W80644   5.289  37.994   0.837
21109W        W80645  37.902  38.868  10.146
21110W        W80646  20.130  33.570  12.072
21111W        W80647  34.073  25.673   0.899
21112W        W80648   8.283  26.001  14.470
21113W        W80649  30.499  30.511   2.259
21114W        W80650  27.498  19.170   0.287
21115W        W80651  16.210   3.905  10.410
21116W        W80652  19.190   3.353   3.804
21117W        W80653  13.203   7.888  13.388
21118W        W80654  13.338  30.614   2.377
21119W        W80655  34.932  19.759  12.896
21120W        W80656  16.301  13.121  14.013
21121W        W80657  40.961  22.676   1.898
21122W        W80658  34.966  31.927  12.012
21123W        W80659  21.548  44.875   0.856
21124W        W80660  35.523   2.453   4.148
21125W        W80661   4.923  34.399  10.946
21126W        W80662  15.647  25.070   2.778
21127W        W80663  18.589   5.349  14.803
21128W        W80664  21.255  22.746   1.273
21129W        W80665  13.145   7.372   0.793
21130W        W80666  43.497  20.558   4.701
21131W        W80667   7.858  14.106  12.516
21132W        W80668  31.514   2.832  11.569
21133W        W80669  44.801  20.100  14.931
21134W        W80670   1.275  22.651  11.916
21135W        W80671  19.704  31.121   4.332
21136W        W80672  13.140  44.913   2.792
21137W        W80673  30.917  24.186   1.377
21138W        W80674  33.008  30.986   2.283
21139W        W80675  26.951  28.660  11.379
21140W        W80676  33.080  25.660   2.329
21141W        W80677  34.879  27.103   2.267
21142W        W80678   8.343   7.772   0.371
21143W        W80679  10.355   9.278  12.064
21144W        W80680  37.571   6.860  13.913
21145W        W80681  27.944  19.058  11.605
21146W        W80682  28.492   1.415   0.464
21147W        W80683  31.042  15.257   4.707
21148W        W80684   1.278  42.972  12.846
21149W        W80685  16.596  41.293  13.792
21150W        W80686  14.164   2.931   0.324
21151W        W80687  31.146   5.892   3.728
21152W        W80688  34.602  20.758   1.886
21153W        W80689   1.762   4.282  14.824
21154W        W80690   4.732  43.383   4.131
21155W        W80691  29.132  32.923   2.203
21156W        W80692  35.415  44.879  12.383
21157W        W80693  19.192  37.354   1.250
21158W        W80694  15.781  13.249   0.276
21159W        W80695  29.668  25.521   1.351
21160W        W80696  40.396  28.081  13.045
21161W        W80697  29.462  29.003  10.604
21162W        W80698  39.351  40.410  14.904
21163W        W80699  32.536  26.524  10.426
21164W        W80700  43.441  16.567   2.406
21165W        W80701  17.086  28.984   1.392
21166W        W80702  33.026  27.017  14.294
21167W        W80703  18.563  40.403   0.836
21168W        W80704  27.992  15.803   9.958
21169W        W80705  10.665  39.902   2.384
21170W        W80706  20.556  27.446   3.357
21171W        W80707   9.730  27.690  14.414
21172W        W80708  12.194   4.446   0.912
21173W        W80709  14.664  13.323   4.606
21174W        W80710  14.775  25.638  12.924
21175W        W80711  32.023   0.793  12.409
21176W        W80712  33.000  32.528  10.986
21177W        W80713  21.645  43.279  11.594
21178W        W80714  27.032  23.135   1.274
21179W        W80715   7.220  19.154   3.193
21180W        W80716  11.298  38.925  11.584
21181W        W80717  29.566  31.598  11.531
21182W        W80718  26.161  41.376  11.397
21183W        W80719  25.999  43.452   0.441
21184W        W80720  14.325  16.161  11.968
21185W        W80721   8.378  12.847  14.019
21186W        W80722  15.727  30.092   3.158
21187W        W80723  16.145   5.257   2.275
21188W        W80724  18.112  43.364  14.501
21189W        W80725  21.214  19.740  11.603
21190W        W80726  15.795  22.521  10.629
21191W        W80727  17.178  14.785   3.196
21192W        W80728   6.755  15.824  10.557
21193W        W80729  38.044  31.513   1.293
21194W        W80730  37.841  16.249  10.932
21195W        W80731  19.535  30.086  10.932
21196W        W80732  26.065  39.913  11.588
21197W        W80733   7.862  30.431  13.467
21198W        W80734  17.073  42.409  14.304
21199W        W80735  27.982  44.298  13.389
21200W        W80736   5.739  21.258  10.160
21201W        W80737  43.458  44.864   2.393
21202W        W80738  40.800  17.125  10.977
21203W        W80739  28.156  20.661  11.471
21204W        W80740  36.000   6.839  14.441
21205W        W80741  34.077  26.047   1.262
21206W        W80742   8.281  40.827   0.825
21207W        W80743   4.312  39.054   4.129
21208W        W80744  18.184  38.942   1.216
21209W        W80745  33.951  22.998   3.341
21210W        W80746  23.108  17.601  11.494
21211W        W80747  25.964  26.170  11.975
21212W        W80748   0.490  24.175  10.974
21213W        W80749  35.967   5.775  12.926
21214W        W80750  20.763  21.681  12.833
21215W        W80751  23.003  22.069  12.399
21216W        W80752  39.317  37.433   3.227
21217W        W80753  15.603  36.498   1.847
21218W        W80754  30.062  25.583  13.405
21219W        W80755  34.872  12.779  11.124
21220W        W80756  43.804  40.336  14.029
21221W        W80757  15.815  29.586  11.426
21222W        W80758  41.961  19.268  13.399
21223W        W80759  35.382  10.238  10.515
21224W        W80760  26.127  44.292  14.844
21225W        W80761  29.022  35.594  12.537
21226W        W80762  44.960  40.465  14.859
21227W        W80763  31.928  28.987  11.492
21228W        W80764  28.641  18.248  12.071
21229W        W80765  17.134   9.334   9.988
21230W        W80766   6.724  13.211   4.209
21231W        W80767  39.027  12.117  11.506
21232W        W80768  39.910  21.202   1.378
21233W        W80769  32.028  44.484   1.349
21234W        W80770   0.958  21.238  11.072
21235W        W80771  39.026  21.219   0.281
21236W        W80772  31.422  33.619   2.730
21237W        W80773  10.797  19.625   3.202
21238W        W80774  21.521  36.455  12.084
21239W        W80775  35.892  29.012   3.147
21240W        W80776  38.827  43.946  13.492
21241W        W80777   4.893  35.454  10.927
21242W        W80778  26.168  12.146   4.286
21243W        W80779   1.863   5.404   1.771
21244W        W80780  23.677  28.104   1.829
21245W        W80781  17.625   4.780   4.647
21246W        W80782  43.358   6.724  12.858
21247W        W80783   7.240  31.434  13.369
21248W        W80784  16.794  19.232   3.176
21249W        W80785  12.841   3.730   0.913
21250W        W80786  23.522  28.945  11.489
21251W        W80787  35.417  23.211  14.417
21252W        W80788   5.880  21.728   3.355
21253W        W80789   0.331  25.158   2.719
21254W        W80790   9.811  40.948   1.740
21255W        W80791   1.805  19.133   0.463
21256W        W80792  25.639  17.222  13.897
21257W        W80793   6.228  36.441  14.844
21258W        W80794  42.888   8.752  10.984
21259W        W80795  19.593  14.301   4.307
21260W        W80796  43.990  32.004  10.083
21261W        W80797  20.052  44.892   4.826
21262W        W80798   3.821  39.005   3.209
21263W        W80799  39.007  18.215   1.926
21264W        W80800  31.638  38.069  11.043
21265W        W80801  20.235  38.357   2.219
21266W        W80802  14.662  34.539  12.015
21267W        W80803  26.637  29.935   2.767
21268W        W80804   5.874  35.865  11.467
21269W        W80805  31.929  42.378  13.990
21270W        W80806  32.932  12.763  10.416
21271W        W80807  14.210  15.270  14.352
21272W        W80808  28.572  43.904   1.830
21273W        W80809  27.596  37.902  14.024
21274W        W80810   1.388   9.321   3.817
21275W        W80811   4.787  31.049   4.767
21276W        W80812   3.257  39.551   2.764
21277W        W80813  30.086  31.558   1.882
21278W        W80814  20.206   8.744   1.870
21279W        W80815   3.927   4.861  13.933
21280W        W80816  33.005  22.687  12.947
21281W        W80817  12.234  29.150   5.787
21282W        W80818  43.931  30.492   3.869
21283W        W80819   8.690  25.615  13.425
21284W        W80820   8.669  30.936  13.321
21285W        W80821  36.561  37.985   3.183
21286W        W80822  21.248  26.077  11.602
21287W        W80823   7.310  17.140  13.022
21288W        W80824   2.762  30.625   4.344
21289W        W80825   3.372   3.843   1.286
21290W        W80826  39.359  28.022   3.193
21291W        W80827  37.475   1.454  13.803
21292W        W80828  18.590  41.834   3.725
21293W        W80829  37.439   6.286   5.152
21294W        W80830  28.550  17.065   0.377
21295W        W80831  12.205   6.388  12.856
21296W        W80832  43.765   0.888   1.298
21297W        W80833  28.164  42.954  10.947
21298W        W80834  10.675  36.857  14.494
21299W        W80835  42.456  19.147   4.204
21300W        W80836  44.426  11.810  12.486
21301W        W80837   8.710  33.025  11.919
21302W        W80838  28.121   2.311  12.365
21303W        W80839  16.616  20.617  14.379
21304W        W80840  31.004  10.649  10.482
21305W        W80841  12.792  33.542   0.471
21306W        W80842   9.852  17.175  11.410
21307W        W80843   4.366  22.068   1.283
21308W        W80844   5.322   8.303  14.847
21309W        W80845  22.127  43.843   2.775
21310W        W80846   5.687   2.946  13.058
21311W        W80847  14.118   0.349   4.174
21312W        W80848  26.178  22.728  14.929
21313W        W80849  13.730  28.550   2.759
21314W        W80850  18.282  44.868  12.967
21315W        W80851  16.619  31.624  12.538
21316W        W80852  39.841  33.456   1.335
21317W        W80853  43.504   4.849  12.953
21318W        W80854  22.736  11.209  13.915
21319W        W80855   8.866   9.669   3.759
21320W        W80856  19.649  16.701  14.280
21321W        W80857  43.306  35.883   5.115
21322W        W80858   8.207  41.787   1.334
21323W        W80859   8.302  16.184  11.092
21324W        W80860  38.011  37.934  13.370
21325W        W80861  25.182  30.103   0.247
21326W        W80862  34.940  21.024  12.869
21327W        W80863  27.134   6.681   2.281
21328W        W80864  26.490  18.563  11.985
21329W        W80865  18.084   0.480  13.888
21330W        W80866  24.134   6.312  12.849
21331W        W80867  22.160  28.158   4.743
21332W        W80868  38.914  13.631  12.078
21333W        W80869   9.811  10.800  12.471
21334W        W80870  10.325  39.398  10.631
21335W        W80871  21.715   7.171   0.410
21336W        W80872   4.780  32.619   2.397
21337W        W80873  38.544   7.830   0.454
21338W        W80874  24.571  35.496   1.721
21339W        W80875  20.754  44.791  13.359
21340W        W80876   1.244  29.449   2.198
21341W        W80877  10.876  39.484   0.792
21342W        W80878  40.456   6.693  10.928
21343W        W80879  17.100  11.813   3.667
21344W        W80880  13.295  38.471   1.773
21345W        W80881   5.236  22.599  11.114
21346W        W80882  20.089  40.430  11.585
21347W        W80883   7.810  39.813  12.054
21348W        W80884  15.751  25.058   1.893
21349W        W80885  13.209  11.252   1.864
21350W        W80886  21.180  21.251   5.256
21351W        W80887  32.596   5.305  10.909
21352W        W80888  37.971  35.017  11.600
21353W        W80889  22.182  21.735   4.267
21354W        W80890  19.038  39.995   0.477
21355W        W80891  32.483   5.318  12.519
21356W        W80892  28.490  34.949  14.466
21357W        W80893  22.199  43.501   1.785
21358W        W80894  33.498  14.234  12.884
21359W        W80895   9.316   0.839  13.496
21360W        W80896   8.253  44.370   2.403
21361W        W80897  36.955  44.464  12.978
21362W        W80898   6.374   9.836   3.839
21363W        W80899  32.129  10.144   4.783
21364W        W80900  29.499  21.646   3.173
21365W        W80901  28.076  27.456  13.363
21366W        W80902   3.914   7.686   4.181
21367W        W80903  41.392  21.103   3.700
21368W        W80904  13.201  16.283  12.952
21369W        W80905  41.384  20.075   1.783
21370W        W80906  12.855   6.238  12.049
21371W        W80907  23.050  23.529  10.940
21372W        W80908  15.823  44.869   3.152
21373W        W80909  41.333  29.654   2.686
21374W        W80910  30.582  26.621  14.778
21375W        W80911  17.620  37.063  13.000
21376W        W80912  35.970  11.784  14.419
21377W        W80913   2.721   8.891  14.452
21378W        W80914  21.667  36.957  12.936
21379W        W80915  42.309   3.403  14.358
21380W        W80916  21.146  40.320   4.827
21381W        W80917  12.318  35.480   3.207
21382W        W80918  43.363  21.107  12.900
21383W        W80919  39.953  19.607   3.673
21384W        W80920  31.441  20.219  13.823
21385W        W80921   0.263  43.878   0.879
21386W        W80922  17.740  18.700   4.783
21387W        W80923  24.128  17.232   3.670
21388W        W80924  19.638  40.934   4.210
21389W        W80925   5.197  39.911  12.567
21390W        W80926   7.688   5.399  12.568
21391W        W80927   0.787  17.685  14.807
21392W        W80928  44.006  37.844   4.127
21393W        W80929  32.970  44.420  14.932
21394W        W80930  18.633  19.730   2.666
21395W        W80931  34.420  31.088   4.824
21396W        W80932  11.644  19.676   9.980
21397W        W80933  15.681  20.087  12.929
21398W        W80934  11.698   8.727  13.944
21399W        W80935  37.908   8.249  14.801
21400W        W80936  30.951  24.670   3.823
21401W        W80937   1.919  24.688   5.185
21402W        W80938  12.273   3.223   0.791
21403W        W80939  22.618  33.622   1.722
21404W        W80940   7.377   8.793   0.322
21405W        W80941  33.499  11.728  10.481
21406W        W80942   1.388  27.540   0.736
21407W        W80943  16.802  44.449   0.797
21408W        W80944   0.341  22.721  13.888
21409W        W80945  24.510  26.601   4.129
21410W        W80946  10.826  23.550   3.636
21411W        W80947  27.650  42.799  12.942
21412W        W80948  22.729   7.292   4.328
21413W        W80949  12.626   2.805   1.268
21414W        W80950  24.505  11.136  14.502
21415W        W80951  30.092  42.806  11.459
21416W        W80952   8.805  36.901   0.776
21417W        W80953  32.635  43.362   1.911
21418W        W80954  42.355  30.937   2.864
21419W        W80955  35.078   9.775  10.569
21420W        W80956  27.568  44.873  11.087
21421W        W80957  14.665  25.484  11.862
21422W        W80958  41.432  40.872  12.852
21423W        W80959   2.758  10.817  10.601
21424W        W80960   5.743  16.080  11.079
21425W        W80961  27.617  36.027  12.893
21426W        W80962  42.970  37.416   3.755
21427W        W80963  14.606  38.359   4.298
21428W        W80964   7.907   2.904   2.285
21429W        W80965  17.287  37.412   3.194
21430W        W80966   5.721   9.279   4.121
21431W        W80967  26.586  44.899  12.870
21432W        W80968  15.817  31.606   2.700
21433W        W80969  16.736   0.837  11.520
21434W        W80970   9.650   1.335  14.984
21435W        W80971   3.783   4.406   1.240
21436W        W80972   1.270  40.832   4.251
21437W        W80973   8.335  44.421   1.763
21438W        W80974  24.110  24.558  12.462
21439W        W80975  25.105  19.216  12.824
21440W        W80976  41.382  36.039   1.378
21441W        W80977  16.136  11.806  12.823
21442W        W80978  19.667  11.314  11.910
21443W        W80979   6.861  41.868  10.927
21444W        W80980  19.641   5.780  13.311
21445W        W80981  12.675  36.557   0.779
21446W        W80982  21.546   9.186  11.002
21447W        W80983  25.164  11.157  10.429
21448W        W80984  40.391   0.491  10.422
21449W        W80985  14.220  26.652   2.894
21450W        W80986  38.472   9.833   2.893
21451W        W80987  36.948  19.702   0.912
21452W        W80988  32.134  12.218  13.942
21453W        W80989  10.875   2.922  11.410
21454W        W80990  29.630  44.260   3.811
21455W        W80991  32.981   9.806  11.500
21456W        W80992  18.584  13.682   3.742
21457W        W80993  44.867  23.551   2.784
21458W        W80994  22.238  17.761  11.061
21459W        W80995  34.539  40.540   2.231
21460W        W80996  42.406  34.082  13.840
21461W        W80997  29.592  40.539   0.301
21462W        W80998  43.455  29.649   4.786
21463W        W80999  32.950  14.309  14.893
21464W        W81000  16.302   4.709  13.513
21465W        W81001  31.635  32.064   4.749
21466W        W81002  34.902  38.033  10.597
21467W        W81003  32.427  41.902   0.899
21468W        W81004  33.001   1.433  10.529
21469W        W81005  39.050  15.786   0.757
21470W        W81006   9.836  36.427   3.710
21471W        W81007  12.227  32.004  12.948
21472W        W81008  11.759  23.015  14.794
21473W        W81009   7.233  28.943   2.243
21474W        W81010   4.306  16.792  10.942
21475W        W81011   7.262  36.453   2.357
21476W        W81012  31.151  11.683   1.808
21477W        W81013  36.923   6.385  12.365
21478W        W81014  37.877   1.461   1.741
21479W        W81015  12.343  42.928  11.451
21480W        W81016  34.559  16.149  12.389
21481W        W81017  16.680  17.771   3.703
21482W        W81018  12.826   9.739   1.723
21483W        W81019  14.770  23.029  13.312
21484W        W81020  19.722  40.895   1.267
21485W        W81021  30.145  35.008   2.323
21486W        W81022   2.459  25.190  11.888
21487W        W81023   0.968  32.429  12.505
21488W        W81024  13.204  42.964  14.899
21489W        W81025  25.481  43.786  13.510
21490W        W81026  34.402  32.114   0.457
21491W        W81027  16.125  37.363   1.400
21492W        W81028  31.150  32.979   2.206
21493W        W81029  42.805  41.324   0.873
21494W        W81030   3.230  15.638  13.865
21495W        W81031  12.345  24.100  12.997
21496W        W81032  13.827   1.804   2.372
21497W        W81033  24.195  12.191  11.591
21498W        W81034   7.901  26.105   2.274
21499W        W81035   8.196  30.437  12.985
21500W        W81036   5.837  30.592   3.345
21501W        W81037  39.904  30.571   4.727
21502W        W81038  16.120  38.933  13.478
21503W        W81039  43.786  20.631   1.695
21504W        W81040  30.015  26.549   4.204
21505W        W81041  24.654  30.019   3.316
21506W        W81042  27.453  24.013  11.602
21507W        W81043  20.716   1.463   3.688
21508W        W81044  26.054  34.957  14.310
21509W        W81045  23.725  11.714  13.459
21510W        W81046  37.425   2.952   2.873
21511W        W81047  37.001   6.723   3.202
21512W        W81048  28.668  20.044   4.132
21513W        W81049   9.750  22.703   0.938
21514W        W81050  12.801  41.887   3.820
21515W        W81051   1.794  23.706   4.116
21516W        W81052  27.083  35.079   9.542
21517W        W81053  35.429  43.360   3.370
21518W        W81054  24.147   6.339  11.873
21519W        W81055   2.410  37.030   0.779
21520W        W81056  38.505  36.992   0.752
21521W        W81057  27.472   2.321  12.514
21522W        W81058  16.149  40.332   1.832
21523W        W81059  10.318  37.457   3.248
21524W        W81060  10.632  23.710   0.472
21525W        W81061  13.625  29.531  13.440
21526W        W81062  16.112  30.448   1.301
21527W        W81063  43.985  19.611   0.279
21528W        W81064  12.207  31.406  10.915
21529W        W81065  24.516  38.058  14.762
21530W        W81066  25.154  17.603  11.096
21531W        W81067  32.468  13.617   1.309
21532W        W81068  37.872  10.268   2.703
21533W        W81069  11.351   6.274   1.839
21534W        W81070  37.013  37.932   2.701
21535W        W81071  41.440   4.374   0.420
21536W        W81072  33.576  16.277  13.537
21537W        W81073  39.893  21.742  11.575
21538W        W81074   0.295  42.936   5.097
21539W        W81075   4.923  39.513  14.511
21540W        W81076  29.650  19.661  14.797
21541W        W81077  31.147  18.773  12.432
21542W        W81078  13.133  30.504  14.498
21543W        W81079  13.265  11.815  13.833
21544W        W81080  22.607   1.439  13.372
21545W        W81081  15.764  41.976   5.092
21546W        W81082   7.326  39.863  11.522
21547W        W81083  37.420  44.788  12.947
21548W        W81084   1.882  36.408   1.918
21549W        W81085  38.563  17.147   4.782
21550W        W81086  19.056  43.838   4.256
21551W        W81087  29.484  23.728  10.123
21552W        W81088  44.914  30.579  13.370
21553W        W81089  30.418  24.173   1.911
21554W        W81090  18.290   4.759  13.963
21555W        W81091  26.958  35.941   4.743
21556W        W81092  34.068  30.590  13.002
21557W        W81093  30.525   5.235  12.385
21558W        W81094  23.241  41.871   4.316
21559W        W81095   0.930  33.106   2.679
21560W        W81096  36.050  26.051  12.986
21561W        W81097   9.865  26.629   3.721
21562W        W81098  40.932  23.516   2.850
21563W        W81099  38.913  29.482  13.437
21564W        W81100  31.608  30.931   4.287
21565W        W81101   8.837   5.282  13.887
21566W        W81102  41.001  30.134  11.887
21567W        W81103  40.948  21.031   2.193
21568W        W81104  40.000  26.988   1.882
21569W        W81105  20.167  39.009  10.457
21570W        W81106  15.085   6.682  11.035
21571W        W81107  43.919  44.968   3.806
21572W        W81108  25.701  33.498   0.931
21573W        W81109   1.871  32.616  11.936
21574W        W81110  16.796   0.434   2.743
21575W        W81111  44.790  10.263   0.947
21576W        W81112  25.028  34.567  13.980
21577W        W81113  43.434  18.737  10.902
21578W        W81114   7.398   0.847  14.778
21579W        W81115  26.149  10.317  12.447
21580W        W81116  40.012  38.375  12.034
21581W        W81117  30.646   9.274   0.908
21582W        W81118  28.059  16.743   0.248
21583W        W81119  14.605  31.090  14.317
21584W        W81120  28.965  33.417   3.381
21585W        W81121  20.089  17.254   3.148
21586W        W81122  29.951   3.320   3.377
21587W        W81123  27.982  16.144   2.783
21588W        W81124  19.544  14.293   3.360
21589W        W81125  41.905   8.166   0.353
21590W        W81126  18.609  15.640  10.024
21591W        W81127  20.262  25.144  12.528
21592W        W81128   0.872   0.748  12.576
21593W        W81129  15.232  31.941   3.755
21594W        W81130  44.408  41.008   4.284
21595W        W81131   2.271  42.417   2.812
21596W        W81132  25.152  16.673   5.118
21597W        W81133  11.251  35.393   3.667
21598W        W81134  38.460  17.573   4.194
21599W        W81135  25.201   2.389  13.532
21600W        W81136  20.108  42.931   4.691
21601W        W81137  39.808  28.626   1.404
21602W        W81138  22.216  43.986  11.904
21603W        W81139   3.342  21.240  14.367
21604W        W81140  13.632  31.449  11.569
21605W        W81141  39.956   9.380  10.429
21606W        W81142   2.232   1.277  10.620
21607W        W81143  37.416  12.151   2.333
21608W        W81144  28.030  38.420  14.429
21609W        W81145  36.943   3.358   0.874
21610W        W81146  34.516  41.890  11.021
21611W        W81147  33.076  30.119  11.598
21612W        W81148  15.797  17.771  13.477
21613W        W81149  20.201  19.257  10.526
21614W        W81150  25.481  31.131  13.532
21615W        W81151  13.606  19.095   1.785
21616W        W81152  17.185  12.729  14.807
21617W        W81153  44.339   3.320   1.819
21618W        W81154  28.104   3.445   4.676
21619W        W81155   2.453  23.493   5.150
21620W        W81156  30.416  43.431  12.378
21621W        W81157  33.878   3.726  13.543
21622W        W81158  32.618  12.268  13.417
21623W        W81159  36.510  19.218  13.312
21624W        W81160  16.184  23.092   0.950
21625W        W81161  34.917  33.391  14.803
21626W        W81162  37.394  13.286   2.868
21627W        W81163  15.309  27.194   1.858
21628W        W81164  34.869  35.858   0.843
21629W        W81165   2.871   0.869  12.492
21630W        W81166  35.861  15.289   2.270
21631W        W81167  39.463   9.173   1.229
21632W        W81168  14.666  39.390   3.337
21633W        W81169   3.284  31.922  11.570
21634W        W81170  27.591  34.918   4.728
21635W        W81171  35.096   9.739   3.685
21636W        W81172   6.750  44.815   0.284
21637W        W81173  27.609  21.154  12.562
21638W        W81174  42.311  18.739   4.649
21639W        W81175  17.294   4.352  12.956
21640W        W81176  25.075  43.819  12.420
21641W        W81177  25.103  24.096   2.853
21642W        W81178  16.308  32.468   4.688
21643W        W81179  11.660   7.748   4.797
21644W        W81180  29.618   2.787   2.319
21645W        W81181   4.435  10.662  13.815
21646W        W81182   3.241  40.830   1.912
21647W        W81183  42.382  23.129   0.826
21648W        W81184   7.865  10.176   0.963
21649W        W81185  38.850  12.291  10.533
21650W        W81186   9.301  30.490   3.185
21651W        W81187  36.368  25.025   2.214
21652W        W81188  23.548   5.839  11.054
21653W        W81189  23.600  23.518  13.928
21654W        W81190  33.051   9.876   1.213
21655W        W81191  11.240  43.328   2.777
21656W        W81192  41.898  40.914   0.330
21657W        W81193  44.405   6.751   4.218
21658W        W81194  43.429  22.168   4.126
21659W        W81195   2.825   9.823   0.803
21660W        W81196  32.996  29.929  12.368
21661W        W81197  28.082  19.113   3.167
21662W        W81198  20.054  23.113   3.682
21663W        W81199   7.228  21.522   4.277
21664W        W81200   6.923  11.347  10.600
21665W        W81201   1.413  17.634  10.432
21666W        W81202  24.014  39.821   4.731
21667W        W81203   2.382  40.021  11.918
21668W        W81204  35.100  42.943   4.270
21669W        W81205  33.107   3.327  14.473
21670W        W81206  32.411  11.649   2.257
21671W        W81207  42.798  16.610  10.090
21672W        W81208  34.565   4.288  10.635
21673W        W81209  36.546  23.061   3.226
21674W        W81210  22.507   2.236   3.267
21675W        W81211  19.137  18.705   2.304
21676W        W81212  32.579  11.226   1.865
21677W        W81213  38.828  16.779   4.750
21678W        W81214   0.898  31.145  12.910
21679W        W81215  25.627  11.862  13.460
21680W        W81216   0.841  42.348  10.638
21681W        W81217  10.257  27.948   0.290
21682W        W81218  22.159  17.086   3.205
21683W        W81219  17.631  13.789   4.726
21684W        W81220  43.366   2.231  13.049
21685W        W81221  20.196   3.833   4.170
21686W        W81222  31.423  40.509  11.492
21687W        W81223  36.970  26.465   1.813
21688W        W81224  30.455  23.553   0.744
21689W        W81225  39.360  13.191   2.693
21690W        W81226  30.503   0.319  10.014
21691W        W81227  42.848  32.615  12.010
21692W        W81228  31.478  15.762  13.314
21693W        W81229   4.302  38.942   3.364
21694W        W81230  44.895  14.775   1.778
21695W        W81231  37.446  43.869  14.885
21696W        W81232  29.050  17.685  14.778
21697W        W81233  14.747  44.877   2.341
21698W        W81234  14.180  39.408  11.429
21699W        W81235   4.851   5.766   0.737
21700W        W81236  43.408  23.033  11.977
21701W        W81237  38.822  25.080   1.397
21702W        W81238   7.277   8.352  13.964
21703W        W81239  17.790  43.323  14.766
21704W        W81240  10.871   2.290  13.970
21705W        W81241  39.850  15.242   1.306
21706W        W81242  13.719  44.451   4.638
21707W        W81243   6.716  36.004   3.327
21708W        W81244   0.253  41.459   1.731
21709W        W81245  31.142  19.572   1.783
21710W        W81246  37.524  14.122   0.743
21711W        W81247   4.209  27.487   1.338
21712W        W81248  22.036  31.486  10.894
21713W        W81249  17.755  44.910  10.432
21714W        W81250  14.701  35.010  12.927
21715W        W81251  30.562  21.034  14.461
21716W        W81252  44.427  17.279   2.182
21717W        W81253   2.295   9.797   3.222
21718W        W81254   3.218  38.910  12.029
21719W        W81255  39.825   1.422  12.564
21720W        W81256   8.717  37.029   2.215
21721W        W81257  38.830  28.642   1.437
21722W        W81258  34.603  31.573  12.467
21723W        W81259  19.702  11.826   4.323
21724W        W81260  24.543   9.645   2.281
21725W        W81261   4.240  36.974  11.409
21726W        W81262  15.697   6.357  12.358
21727W        W81263  23.573  38.349  12.046
21728W        W81264  23.686  11.802  14.507
21729W        W81265   1.323  22.698   0.260
21730W        W81266  42.477  13.187  11.872
21731W        W81267  27.597   5.430  14.969
21732W        W81268  10.140  41.873  11.933
21733W        W81269  13.247  36.096  13.879
21734W        W81270  30.644  16.634   0.391
21735W        W81271  37.436  11.865   3.769
21736W        W81272   1.750  19.144   1.425
21737W        W81273  33.028   8.692   4.722
21738W        W81274  27.665  14.786  13.981
21739W        W81275   4.742  32.092  14.490
21740W        W81276   0.962  34.556   1.414
21741W        W81277  38.027  18.084   3.366
21742W        W81278  24.065  32.982  13.841
21743W        W81279  33.403  15.133  11.016
21744W        W81280  10.250   2.462   5.140
21745W        W81281  32.140  35.357   3.841
21746W        W81282  13.759  33.987   0.365
21747W        W81283  37.078  29.107  13.474
21748W        W81284  37.403  15.139   2.326
21749W        W81285   8.688   8.824   3.197
21750W        W81286   8.661  22.220  13.960
21751W        W81287  32.109  27.677   0.932
21752W        W81288  14.267   5.754  14.324
21753W        W81289  27.489  13.303   0.909
21754W        W81290  14.627  31.532   4.752
21755W        W81291   3.716  44.279  11.102
21756W        W81292  28.502  36.034   1.441
21757W        W81293  16.776  41.440   1.750
21758W        W81294   9.667  36.849  14.506
21759W        W81295  32.438   2.363  14.837
21760W        W81296  17.666   5.871   0.438
21761W        W81297   7.676  10.251   3.637
21762W        W81298  40.404  22.521   5.131
21763W        W81299  19.150  41.510  12.472
21764W        W81300  26.519  18.756  13.453
21765W        W81301  19.196   3.760  10.427
21766W        W81302  24.705   3.763   3.869
21767W        W81303  43.973  41.362  10.405
21768W        W81304  18.749  23.206  11.505
21769W        W81305  34.395  29.652  10.643
21770W        W81306  38.903  20.687  12.567
21771W        W81307  18.159   7.690  10.429
21772W        W81308  42.328   6.723   3.679
21773W        W81309  34.612  28.162   2.813
21774W        W81310   0.356  26.598   0.937
21775W        W81311  39.906  42.914  10.552
21776W        W81312  26.632   4.715  13.049
21777W        W81313  44.309  36.914  13.457
21778W        W81314   2.338  44.884  13.496
21779W        W81315   7.214   8.755  12.521
21780W        W81316  32.963  15.215   2.365
21781W        W81317   8.215  10.171   2.881
21782W        W81318  39.534  27.037  12.528
21783W        W81319  38.993  20.763   0.898
21784W        W81320  35.083  35.538   0.259
21785W        W81321   3.941  35.973  12.052
21786W        W81322   3.278   3.402   4.145
21787W        W81323  25.698  10.254   3.153
21788W        W81324  12.332  34.920  14.822
21789W        W81325  19.709  38.551  10.578
21790W        W81326  33.477  17.657  10.612
21791W        W81327  25.122  30.438   4.615
21792W        W81328  30.919  27.067  13.535
21793W        W81329  14.668  37.080  14.278
21794W        W81330  16.255   2.912  13.019
21795W        W81331  29.641  36.032   1.694
21796W        W81332  30.419  34.395   3.665
21797W        W81333  41.339  21.625  14.315
21798W        W81334  12.714  44.285  13.818
21799W        W81335  30.920  21.706   2.857
21800W        W81336  14.700   1.309   4.135
21801W        W81337  15.580   3.870   1.735
21802W        W81338  23.142  10.756   0.298
21803W        W81339   5.795  39.038   3.149
21804W        W81340  16.652   6.689   4.156
21805W        W81341  13.612   1.924  10.474
21806W        W81342   9.879  15.665   0.899
21807W        W81343  24.197   9.739   2.198
21808W        W81344  29.106  30.159  11.522
21809W        W81345   4.882   7.868   5.268
21810W        W81346   3.260  10.348  14.773
21811W        W81347  35.555   2.361   3.783
21812W        W81348  21.531  10.295  14.376
21813W        W81349  25.180  22.722  12.365
21814W        W81350   9.317  36.843   1.265
21815W        W81351   0.950  29.060  14.907
21816W        W81352  12.353  11.712  14.356
21817W        W81353  32.538   7.705   0.261
21818W        W81354  33.967   1.772  12.480
21819W        W81355   4.760   7.374  10.573
21820W        W81356  13.258  28.566  14.281
21821W        W81357  35.020  22.009   0.895
21822W        W81358  12.179   3.309   3.764
21823W        W81359  34.884  42.978   1.761
21824W        W81360  24.516  28.496  12.921
21825W        W81361   1.241  30.478   1.256
21826W        W81362  15.185  38.440   3.843
21827W        W81363  41.842   6.809   3.779
21828W        W81364   4.846   7.908   0.445
21829W        W81365   2.458  32.632  12.569
21830W        W81366  43.505   0.784  14.486
21831W        W81367   2.302  24.127  10.643
21832W        W81368  39.428   7.175  13.384
21833W        W81369  22.027  31.626  10.582
21834W        W81370  36.347  27.610   3.288
21835W        W81371   0.984  28.147  14.830
21836W        W81372  23.636  26.511   4.183
21837W        W81373  34.564   6.410   3.658
21838W        W81374   4.244   0.864   1.779
21839W        W81375  11.671  41.323   0.440
21840W        W81376   6.276  23.143   1.330
21841W        W81377  28.959  42.941   0.821
21842W        W81378  11.216   1.251  13.894
21843W        W81379   1.287   2.309   0.378
21844W        W81380  10.175  32.092  10.623
21845W        W81381  14.645  14.220   0.926
21846W        W81382  16.177  15.162  11.526
21847W        W81383  24.666  14.640  14.330
21848W        W81384  10.293   2.736   0.842
21849W        W81385   4.297  23.108   0.298
21850W        W81386  10.297  28.070  13.310
21851W        W81387  34.452  23.155  14.426
21852W        W81388  21.209   1.862   0.310
21853W        W81389   3.266  15.598   2.726
21854W        W81390  39.927  14.094  13.432
21855W        W81391   7.760  22.709  12.538
21856W        W81392  29.603  28.607  12.062
21857W        W81393   8.188  30.568  11.121
21858W        W81394   2.457  11.346   0.839
21859W        W81395  31.010   7.303  11.443
21860W        W81396  16.250   4.219   1.374
21861W        W81397   0.962  32.023   4.807
21862W        W81398  23.729  33.567   0.294
21863W        W81399  26.638   0.975   1.446
21864W        W81400  15.822   1.396  12.958
21865W        W81401   5.291   3.878   4.709
21866W        W81402  14.231  28.544   1.740
21867W        W81403  21.584  15.240  13.834
21868W        W81404  24.534   8.161   4.114
21869W        W81405  26.681  22.139   0.907
21870W        W81406  29.532   4.268   1.753
21871W        W81407   7.215  31.955   1.843
21872W        W81408  35.992  10.293  12.535
21873W        W81409  33.398  32.989   3.366
21874W        W81410  42.486  44.927  11.946
21875W        W81411  35.360   2.816   4.282
21876W        W81412  41.999  16.629  11.903
21877W        W81413   4.246  19.276  10.915
21878W        W81414  39.968  11.716   3.328
21879W        W81415  25.557  28.595   1.847
21880W        W81416   2.878   1.832   2.382
21881W        W81417  40.833  34.019   1.219
21882W        W81418  22.089  14.833  14.790
21883W        W81419  37.965  20.275   2.285
21884W        W81420  33.955  29.631   0.806
21885W        W81421  44.990  23.054  14.912
21886W        W81422   0.458  41.968   1.329
21887W        W81423  18.748  15.121  13.399
21888W        W81424  13.185   6.208  11.938
21889W        W81425  31.942  15.132   3.254
21890W        W81426  12.132  11.264   2.820
21891W        W81427   9.394  27.606   2.703
21892W        W81428  38.382   6.768  12.382
21893W        W81429  41.299  10.281  13.447
21894W        W81430  13.677  26.635   0.784
21895W        W81431  15.114   6.300  11.479
21896W        W81432  19.164  18.658  14.340
21897W        W81433  44.914   9.154  12.422
21898W        W81434  27.080  42.796   4.161
21899W        W81435  21.261   3.398   1.302
21900W        W81436   8.711  43.808  11.072
21901W        W81437  28.936   0.378  14.911
21902W        W81438  23.115   6.820  13.916
21903W        W81439  37.061  33.380   1.814
21904W        W81440  19.076  28.618   3.859
21905W        W81441  10.760  23.201   0.426
21906W        W81442  38.989  21.231   2.662
21907W        W81443  17.666   2.404   0.431
21908W        W81444  42.298  39.512  11.575
21909W        W81445  26.113  24.013  11.530
21910W        W81446  44.266  29.094   0.278
21911W        W81447  20.591   4.820   3.348
21912W        W81448  11.346  32.135   4.262
21913W        W81449  14.694  39.413  13.484
21914W        W81450  44.770  30.941   0.840
21915W        W81451  35.428   8.383   2.251
21916W        W81452  18.055   0.367  14.911
21917W        W81453  36.419  24.047   0.475
21918W        W81454   9.371   7.253  12.921
21919W        W81455  43.840  10.255   0.954
21920W        W81456  29.168  21.202   2.857
21921W        W81457  29.668  10.162   2.663
21922W        W81458  34.515  25.499  13.034
21923W        W81459  31.449   9.850   0.269
21924W        W81460  38.457  17.651  13.525
21925W        W81461  27.147   2.846  10.934
21926W        W81462  28.170   5.889  10.436
21927W        W81463  35.929   4.388  12.848
21928W        W81464   1.908  37.568   0.807
21929W        W81465   0.987  28.676  10.076
21930W        W81466  41.392  42.370   3.176
21931W        W81467   0.305  24.716   9.956
21932W        W81468  35.469   3.814  13.905
21933W        W81469   3.359  38.496  12.019
21934W        W81470  14.299   1.363  12.456
21935W        W81471  41.356  11.759  14.505
21936W        W81472   2.364  34.537   0.395
21937W        W81473  25.683  15.119  10.984
21938W        W81474   2.325  26.680  11.544
21939W        W81475  26.673  29.018   1.324
21940W        W81476  30.615  34.863   4.209
21941W        W81477  33.624  10.661  11.379
21942W        W81478  44.276  25.653  10.626
21943W        W81479  27.981  33.948   4.686
21944W        W81480  35.963  31.627   1.242
21945W        W81481   8.288  15.799   2.881
21946W        W81482  28.502  38.386  13.022
21947W        W81483  24.524  30.557   3.181
21948W        W81484  21.571  24.677  12.915
21949W        W81485  32.917   6.892   0.879
21950W        W81486  16.655  43.790  12.064
21951W        W81487   5.233  34.941  11.929
21952W        W81488  16.228  42.930   4.807
21953W        W81489  30.437   8.853   1.732
21954W        W81490  41.039  42.954   4.758
21955W        W81491   9.858  22.250  10.601
21956W        W81492  41.443   5.208   2.232
21957W        W81493  15.141   3.954   3.192
21958W        W81494  18.610  43.473   2.900
21959W        W81495  41.370  29.520  12.511
21960W        W81496  36.526  30.447  11.067
21961W        W81497  10.194  29.559   0.321
21962W        W81498  14.711   1.838   3.662
21963W        W81499  11.228   0.838   1.227
21964W        W81500  10.323  37.040  10.028
21965W        W81501  43.980  10.780  11.441
21966W        W81502  41.850  39.378   4.271
21967W        W81503  22.704  22.666  11.878
21968W        W81504   3.246  34.458  14.876
21969W        W81505  23.559  24.135   4.229
21970W        W81506  33.093  21.686   2.697
21971W        W81507   5.223   2.382   1.704
21972W        W81508  40.036  40.449   1.778
21973W        W81509  15.624  33.035   4.352
21974W        W81510  37.911  20.552   0.383
21975W        W81511  13.835   5.835  13.874
21976W        W81512   5.913  28.660  11.491
21977W        W81513  44.292   5.385   1.923
21978W        W81514  30.543  15.328   2.305
21979W        W81515  15.590  20.650   3.843
21980W        W81516   7.233  28.184  14.007
21981W        W81517  12.627   1.874   2.266
21982W        W81518  22.503   3.836   3.162
21983W        W81519  25.989  42.890   1.711
21984W        W81520  10.873  34.115  12.976
21985W        W81521  33.431  10.703   2.831
21986W        W81522   3.892  40.471  13.993
21987W        W81523  42.482  23.619   2.245
21988W        W81524  37.077  42.013  12.854
21989W        W81525  11.158  16.712   4.599
21990W        W81526  19.673  44.487  10.141
21991W        W81527  42.878  15.709   4.162
21992W        W81528  25.002  41.987  10.418
21993W        W81529  38.888  21.679   4.198
21994W        W81530  42.032   6.678  14.455
21995W        W81531  35.438  42.486  14.457
21996W        W81532  43.469   9.312   9.988
21997W        W81533  37.939  12.781   4.828
21998W        W81534  28.017  39.953  12.974
21999W        W81535  38.992  39.429   2.830
22000W        W81536  39.347  30.959  12.826
22001W        W81537  20.129  25.563  11.013
22002W        W81538  28.137  38.022   0.902
22003W        W81539  25.549  40.380  12.848
22004W        W81540  36.515   9.866  12.385
22005W        W81541  43.766  25.606  12.004
22006W        W81542  25.106  21.200   9.963
22007W        W81543  21.576  26.964   0.404
22008W        W81544  16.645  34.871  12.479
22009W        W81545  24.195  40.458  13.896
22010W        W81546  19.588  38.829  10.932
22011W        W81547  19.730  13.239   3.241
22012W        W81548  17.302   6.326   5.296
22013W        W81549  29.972   2.784  13.015
22014W        W81550  13.724   3.851   0.355
22015W        W81551  31.987  18.740  12.404
22016W        W81552  16.198   9.330   3.187
22017W        W81553   0.760   3.743  14.871
22018W        W81554  11.302  23.171   1.272
22019W        W81555  44.350  30.615  12.495
22020W        W81556  11.358  11.626   0.746
22021W        W81557  41.928  42.374  13.485
22022W        W81558  29.922   8.359  11.897
22023W        W81559  11.224   6.741  14.365
22024W        W81560  41.811  19.135  12.009
22025W        W81561   5.316  11.666  11.002
22026W        W81562  38.548   1.462   1.746
22027W        W81563  32.124  24.177   5.731
22028W        W81564  22.611  22.627  13.881
22029W        W81565  34.512   7.807  14.805
22030W        W81566  43.826   6.245  12.564
22031W        W81567   6.394  41.453  12.380
22032W        W81568   8.806  10.222  13.318
22033W        W81569  10.871  26.461  14.350
22034W        W81570  32.586   7.862  13.438
22035W        W81571  22.708  23.513   4.628
22036W        W81572   6.211   7.180   4.148
22037W        W81573   0.483  30.126  12.037
22038W        W81574   4.413  36.459   2.853
22039W        W81575  26.461   1.769   1.774
22040W        W81576   5.861  40.461  14.460
22041W        W81577   1.430  24.993   1.797
22042W        W81578  17.175  31.494  10.544
22043W        W81579   9.256  17.653   3.653
22044W        W81580  28.639  19.273   2.368
22045W        W81581  22.151  20.746   9.573
22046W        W81582  33.520  39.465  11.592
22047W        W81583  32.557  15.310   2.724
22048W        W81584   3.924  35.456  14.863
22049W        W81585  22.115  34.893  12.951
22050W        W81586  35.410  11.841   3.831
22051W        W81587  32.914  28.158  12.936
22052W        W81588  23.533  40.479  11.569
22053W        W81589  28.035  31.615  11.611
22054W        W81590  32.541  39.065  14.764
22055W        W81591   9.387  30.517  14.431
22056W        W81592  35.597  41.997   1.900
22057W        W81593  39.962   8.880   1.825
22058W        W81594  24.141  35.550  14.435
22059W        W81595  33.962  21.182  13.935
22060W        W81596  21.687  23.078  14.864
22061W        W81597  36.910   8.176   0.405
22062W        W81598  34.436  44.800  13.401
22063W        W81599  10.147   2.903  14.968
22064W        W81600  43.913  16.575   4.351
22065W        W81601  38.997  29.086  10.929
22066W        W81602  32.634   5.772  10.613
22067W        W81603  36.042  43.813   0.868
22068W        W81604  38.839  28.009   4.800
22069W        W81605  10.141  14.196   2.790
22070W        W81606  31.910  18.263  14.780
22071W        W81607  36.849  21.208   2.392
22072W        W81608  15.301  34.451  10.599
22073W        W81609  21.557  41.977   4.225
22074W        W81610  32.535  25.563   2.401
22075W        W81611   1.968  16.234  11.526
22076W        W81612  35.448  36.864  12.010
22077W        W81613  29.537   2.837  11.991
22078W        W81614  16.720  24.623  11.874
22079W        W81615  20.530   8.777   2.688
22080W        W81616  37.496  10.720  14.433
22081W        W81617  42.030   4.408  13.023
22082W        W81618  31.485  22.679   3.676
22083W        W81619  44.956  28.071  12.955
22084W        W81620  18.170  41.823   4.824
22085W        W81621  36.533  19.739   2.237
22086W        W81622  17.631  38.374   3.292
22087W        W81623   2.248   9.343  11.080
22088W        W81624  41.520  32.440  10.410
22089W        W81625  12.354  35.078   1.346
22090W        W81626   3.415  21.131   3.738
22091W        W81627   2.241  33.541   5.286
22092W        W81628  24.566  22.661   0.336
22093W        W81629  36.857  34.550   0.429
22094W        W81630   2.892  40.894   0.845
22095W        W81631  10.675  19.626   1.413
22096W        W81632  33.971  21.142   1.418
22097W        W81633  16.640  13.670   3.648
22098W        W81634  39.436  15.626   2.358
22099W        W81635  37.450  38.570   3.808
22100W        W81636  39.380  31.501   1.721
22101W        W81637  42.861  39.434   4.638
22102W        W81638  24.997   2.752  14.985
22103W        W81639  19.727  23.651   2.682
22104W        W81640  26.488  35.077  13.948
22105W        W81641  31.546  38.931  11.455
22106W        W81642  37.048  31.931   3.186
22107W        W81643   3.936  44.352  12.836
22108W        W81644  36.079  40.384   2.353
22109W        W81645   0.482  25.037   0.735
22110W        W81646   3.869  21.251   1.314
22111W        W81647   0.257  21.643  11.896
22112W        W81648  34.481  11.192   3.744
22113W        W81649  24.662   0.768   3.696
22114W        W81650  28.646  21.188  10.903
22115W        W81651   9.776  22.205  13.867
22116W        W81652  21.187  40.968  13.818
22117W        W81653  27.467  19.739   0.283
22118W        W81654  33.608  27.599   0.346
22119W        W81655  10.301  16.247   2.205
22120W        W81656  39.011   9.808   0.891
22121W        W81657  39.898  38.540  14.297
22122W        W81658  18.696  44.891   3.325
22123W        W81659  13.246  26.109   2.880
22124W        W81660  12.729  12.802  14.968
22125W        W81661  22.728  40.027   4.225
22126W        W81662  21.072  22.035  11.586
22127W        W81663  14.813  12.188  14.896
22128W        W81664   9.175  39.851  12.888
22129W        W81665   5.860  22.577   3.844
22130W        W81666  44.863  22.652  10.960
22131W        W81667   2.813   4.818  12.896
22132W        W81668  33.125  34.506  13.945
22133W        W81669   6.410  17.200   1.409
22134W        W81670  37.921  35.564   4.622
22135W        W81671  22.157  35.074   4.818
22136W        W81672   8.185  22.632  12.350
22137W        W81673  15.594  37.581   4.709
22138W        W81674   9.793  18.283   3.860
22139W        W81675  10.299  37.083   3.365
22140W        W81676  21.181  43.323   0.250
22141W        W81677  42.298  18.285   3.811
22142W        W81678  10.357  13.150   0.263
22143W        W81679  28.650  18.760  14.356
22144W        W81680  41.001  16.648   1.856
22145W        W81681   2.302  29.062   1.279
22146W        W81682  16.696  21.618   3.696
22147W        W81683   3.716  30.528   4.165
22148W        W81684  15.267  30.618  11.598
22149W        W81685  35.022  37.966  13.390
22150W        W81686  24.647  17.718  11.494
22151W        W81687  20.096  28.119  14.959
22152W        W81688  36.404  16.171  11.536
22153W        W81689  42.498  42.338   3.263
22154W        W81690  30.581  44.822   0.867
22155W        W81691   2.939  36.047  13.917
22156W        W81692   3.373  41.338  13.959
22157W        W81693  21.256   0.422   1.880
22158W        W81694  11.248   1.924   3.845
22159W        W81695  19.247  38.390   0.945
22160W        W81696   8.178   2.341  14.516
22161W        W81697  35.483   2.757  13.041
22162W        W81698   8.391  17.791  11.607
22163W        W81699  23.718   4.781   1.281
22164W        W81700   0.856  36.048  11.508
22165W        W81701  24.676  31.961   1.742
22166W        W81702  29.129   0.964  12.444
22167W        W81703  25.083  23.734   0.900
22168W        W81704  25.676   6.716  10.639
22169W        W81705  32.550  17.141  12.464
22170W        W81706  39.358  18.639  13.853
22171W        W81707  43.347  35.863   4.804
22172W        W81708  39.050   2.396  10.538
22173W        W81709  34.598  44.769  11.411
22174W        W81710  35.899  13.716  14.460
22175W        W81711  18.219  23.216   2.777
22176W        W81712   3.719  12.784  11.069
22177W        W81713  33.550  32.426  11.097
22178W        W81714  34.433   9.268   3.666
22179W        W81715  29.109  17.765   4.321
22180W        W81716  34.096  15.250   4.195
22181W        W81717  17.589  21.594   0.364
22182W        W81718   0.980  15.202  12.515
22183W        W81719   1.259  11.274   5.734
22184W        W81720   1.828  17.695   2.688
22185W        W81721  42.782   9.248  10.966
22186W        W81722  19.770  10.733   4.263
22187W        W81723  41.788  29.631  14.824
22188W        W81724  33.493  43.863  14.496
22189W        W81725  36.976  11.160  12.959
22190W        W81726  26.080  36.380  13.990
22191W        W81727   2.788  20.757   3.267
22192W        W81728  19.102  40.436   2.301
22193W        W81729   5.428  14.096   1.867
22194W        W81730   4.887  41.988  13.314
22195W        W81731  29.655  16.645  13.849
22196W        W81732   3.749  23.133   4.726
22197W        W81733  27.073   3.869   3.734
22198W        W81734   0.888  41.038  14.834
22199W        W81735   6.314  12.224   4.285
22200W        W81736  23.158  17.787  13.042
22201W        W81737  31.442  37.382   0.331
22202W        W81738   8.247  19.269  11.581
22203W        W81739   8.733   3.367  11.912
22204W        W81740  20.148  34.505   3.307
22205W        W81741   4.930  41.332   4.139
22206W        W81742   6.366  38.838  11.580
22207W        W81743   9.698  25.128   1.847
22208W        W81744   1.817   9.844  12.458
22209W        W81745   5.747  43.808  10.633
22210W        W81746   8.328  41.468  12.823
22211W        W81747  38.441  43.448  12.382
22212W        W81748  42.464  41.009  10.635
22213W        W81749  24.694  28.647  14.481
22214W        W81750  32.962  21.604   4.834
22215W        W81751  14.114  26.533  13.538
22216W        W81752  36.446  28.556   4.618
22217W        W81753  19.559  42.792  14.319
22218W        W81754  11.151  21.172   1.254
22219W        W81755  34.418  40.413  11.500
22220W        W81756  21.513  17.640  12.354
22221W        W81757  21.709  31.608  11.570
22222W        W81758  18.221   3.368  13.532
22223W        W81759  16.606  24.552   3.747
22224W        W81760   2.298  18.262   2.212
22225W        W81761  10.178  29.950  14.831
22226W        W81762  21.119   8.363  13.449
22227W        W81763   0.474   2.964  13.886
22228W        W81764  33.111  19.589   4.317
22229W        W81765  39.449   3.786   1.397
22230W        W81766   2.289  12.845  14.010
22231W        W81767  28.030  29.154  10.545
22232W        W81768  24.164   6.894   4.284
22233W        W81769  30.953  14.689   1.869
22234W        W81770  20.659  31.515  11.973
22235W        W81771   0.313   1.739  12.973
22236W        W81772  12.179  14.667   2.787
22237W        W81773   7.744  39.535  13.417
22238W        W81774  17.722   4.325  11.395
22239W        W81775  18.098  25.119   1.415
22240W        W81776  26.476  34.512   0.947
22241W        W81777   7.772   8.303   0.461
22242W        W81778  28.144  28.987  14.019
22243W        W81779  41.000   1.481   2.854
22244W        W81780  16.741  27.645  13.876
22245W        W81781  33.449  25.056   5.093
22246W        W81782   8.206  22.690   1.876
22247W        W81783  15.227   9.773  10.023
22248W        W81784  38.039  18.167   0.796
22249W        W81785  33.086  16.224  12.545
22250W        W81786  16.113  33.950  11.424
22251W        W81787  21.556  14.680   3.751
22252W        W81788  29.961  30.002  13.979
22253W        W81789  40.358  13.801   2.285
22254W        W81790  39.382  37.838   0.960
22255W        W81791  13.269   6.839   1.713
22256W        W81792   4.266  41.477   0.749
22257W        W81793  28.060   8.324  12.893
22258W        W81794  23.618   1.357   1.785
22259W        W81795  23.088  18.143  14.313
22260W        W81796   7.184  36.094  14.353
22261W        W81797  27.622  41.298  10.945
22262W        W81798  23.595  13.676  12.939
22263W        W81799  34.514  37.007   1.903
22264W        W81800  27.985  13.150  12.441
22265W        W81801  43.793  41.036   1.445
22266W        W81802  24.991   6.860  12.481
22267W        W81803  30.129  20.536   1.252
22268W        W81804   9.225   3.769   1.211
22269W        W81805   3.773   0.401  14.894
22270W        W81806  34.871   2.456  14.981
22271W        W81807  20.754  32.008  12.988
22272W        W81808  44.935  25.617   5.775
22273W        W81809  39.384   4.867   2.764
22274W        W81810  14.734  35.500  13.027
22275W        W81811  20.539  20.152   1.283
22276W        W81812   9.376  19.097  13.531
22277W        W81813  37.928  31.118  11.542
22278W        W81814  40.431   6.888   3.745
22279W        W81815  34.050   8.741   3.280
22280W        W81816  19.268  41.014   1.337
22281W        W81817  34.912  26.467  12.843
22282W        W81818   5.771   9.213   3.233
22283W        W81819  14.624  19.563   0.276
22284W        W81820  18.615  15.088  10.498
22285W        W81821  26.169  24.024  13.490
22286W        W81822   7.754  36.456   1.338
22287W        W81823  35.560  15.732   0.254
22288W        W81824  36.073  15.141   1.431
22289W        W81825   3.369   6.308   2.279
22290W        W81826  24.164  30.608  13.904
22291W        W81827  24.132  11.220   2.366
22292W        W81828   5.216  29.464  14.339
22293W        W81829  18.183   4.310   3.302
22294W        W81830  34.940  14.097   4.613
22295W        W81831   8.857  30.460   2.676
22296W        W81832  28.475  15.761  10.890
22297W        W81833  19.243  10.353  10.485
22298W        W81834  39.983  29.640   4.823
22299W        W81835  21.202  10.854   3.669
22300W        W81836  14.338  28.612  13.328
22301W        W81837   6.193  17.300   5.253
22302W        W81838  36.495  29.449  10.103
22303W        W81839  21.178  38.048   4.627
22304W        W81840  24.198   9.342   0.808
22305W        W81841  19.683  40.421   4.249
22306W        W81842   7.257  30.117  13.514
22307W        W81843  19.176   1.832  11.455
22308W        W81844  41.516   0.386   4.320
22309W        W81845  12.632  33.977   4.175
22310W        W81846  34.989  44.853   3.284
22311W        W81847  25.042  18.158  14.357
22312W        W81848   1.886  33.938  14.810
22313W        W81849   0.287  10.834   4.739
22314W        W81850  25.135  33.023   2.210
22315W        W81851  22.209  21.586  13.954
22316W        W81852  39.485  25.539   2.902
22317W        W81853  35.568   2.327   0.757
22318W        W81854  20.138  26.649  11.459
22319W        W81855   5.822  43.950  12.347
22320W        W81856   0.345   9.236  11.117
22321W        W81857  38.010   9.326   4.745
22322W        W81858  14.259   4.373   1.416
22323W        W81859  37.486   1.934   3.859
22324W        W81860  39.867   8.786   0.888
22325W        W81861  24.033  21.685   3.148
22326W        W81862  14.257   9.802   2.761
22327W        W81863  13.289  21.168   2.753
22328W        W81864  29.927  38.824   4.120
22329W        W81865   2.839   2.847   2.234
22330W        W81866  18.660   4.722   3.237
22331W        W81867  33.445  22.679   0.825
22332W        W81868  31.051  36.556   0.728
22333W        W81869  35.876  43.500  12.835
22334W        W81870  16.166   9.389   0.951
22335W        W81871  31.066  30.446  11.075
22336W        W81872  43.806  18.732   4.805
22337W        W81873  19.241  36.574   4.680
22338W        W81874  21.241  42.515   3.258
22339W        W81875  41.967  37.463   4.649
22340W        W81876  28.023  31.074   1.897
22341W        W81877  40.375   7.297  12.075
22342W        W81878   5.308   2.907   0.339
22343W        W81879  26.563  38.444  12.436
22344W        W81880   9.232   8.824   4.834
22345W        W81881   8.277  36.885   2.885
22346W        W81882  14.636  34.515   4.286
22347W        W81883  43.372  15.584  11.482
22348W        W81884  38.948  44.986   1.703
22349W        W81885  21.220  15.605  11.092
22350W        W81886  32.425  30.614  12.353
22351W        W81887  42.472  10.663  13.377
22352W        W81888  44.903  29.517  14.275
22353W        W81889  21.689  28.664   1.718
22354W        W81890  36.591   8.735   0.474
22355W        W81891  42.867   3.896   2.720
22356W        W81892  20.056  43.507   3.235
22357W        W81893  21.062  28.024   0.952
22358W        W81894  31.586  23.581   9.552
22359W        W81895  14.788  28.602  11.605
22360W        W81896   5.844  17.190   4.154
22361W        W81897  38.364  28.644   3.785
22362W        W81898  21.730   1.400  12.045
22363W        W81899  10.186  24.179  12.967
22364W        W81900  10.845  20.754  10.448
22365W        W81901   5.844  29.078   3.314
22366W        W81902  33.128  29.144   3.282
22367W        W81903  26.586   9.353   2.679
22368W        W81904  31.540   7.251   3.157
22369W        W81905   6.815  15.579  12.405
22370W        W81906  17.284  14.698   4.692
22371W        W81907  10.337  20.122   3.231
22372W        W81908  37.886  14.335   4.797
22373W        W81909  31.075  17.635  13.429
22374W        W81910   6.794  43.511   2.677
22375W        W81911  13.603  34.116   2.230
22376W        W81912  37.870  31.487  11.941
22377W        W81913  20.080  17.641   3.647
22378W        W81914   0.461   7.404  12.028
22379W        W81915  38.397  42.455  10.503
22380W        W81916  32.008  21.098   3.745
22381W        W81917  18.289  40.318   4.813
22382W        W81918   1.814  35.927   4.148
22383W        W81919  29.088  21.519  13.030
22384W        W81920  32.985  22.134   3.246
22385W        W81921  12.820   1.939  14.809
22386W        W81922   6.267  36.090   0.760
22387W        W81923  33.091  31.057  13.005
22388W        W81924  25.027  40.471  11.857
22389W        W81925  11.342  27.603   3.346
22390W        W81926  19.264  35.104   4.244
22391W        W81927  28.629   5.759  12.935
22392W        W81928  43.957   4.846   1.851
22393W        W81929  26.595  26.157   1.417
22394W        W81930  26.542  32.503  11.981
22395W        W81931  39.849  36.096   1.913
22396W        W81932  11.245  12.804   3.838
22397W        W81933  31.582  29.652   1.321
22398W        W81934  21.136  28.627   0.789
22399W        W81935  15.094  21.078   4.794
22400W        W81936  33.958  12.636   4.720
22401W        W81937  17.286  11.240   3.290
22402W        W81938  33.581   5.693   4.234
22403W        W81939  14.111  14.141  14.896
22404W        W81940   4.889   4.381   3.704
22405W        W81941  40.805   7.232   1.795
22406W        W81942   4.762  31.553  12.827
22407W        W81943  27.143  33.089   4.262
22408W        W81944   0.957  27.516   0.816
22409W        W81945  40.022   7.881  14.886
22410W        W81946  18.103   4.779   0.334
22411W        W81947  12.131  22.651  11.006
22412W        W81948  30.070  12.698  10.561
22413W        W81949  11.742  36.481   4.607
22414W        W81950  15.762  16.140  13.871
22415W        W81951  32.501  19.541   5.319
22416W        W81952   7.233  37.538   2.377
22417W        W81953  43.291  13.751   4.657
22418W        W81954  32.100  15.670   3.332
22419W        W81955   0.347  18.290  13.340
22420W        W81956   9.368  25.195   3.691
22421W        W81957   8.278   8.299  12.546
22422W        W81958  27.140  19.658  13.509
22423W        W81959  11.178  26.985   2.824
22424W        W81960   9.292  38.861   1.368
22425W        W81961  26.683   8.889  11.877
22426W        W81962   3.271  11.746   0.743
22427W        W81963  17.629  35.982  12.459
22428W        W81964  25.051  39.487   1.306
22429W        W81965  37.004   9.789   0.364
22430W        W81966  43.347  37.384   3.329
22431W        W81967  42.372   4.307  10.904
22432W        W81968  24.635  17.096   2.213
22433W        W81969  19.669  31.936  12.977
22434W        W81970  25.190  20.652  14.367
22435W        W81971   9.245  14.292  14.374
22436W        W81972  16.671  30.502   2.284
22437W        W81973  43.392  40.932  12.520
22438W        W81974  16.793  32.075  12.019
22439W        W81975  14.616   3.286   4.118
22440W        W81976   0.399   1.282   1.894
22441W        W81977  33.574  34.904  10.467
22442W        W81978  12.616  35.596  13.817
22443W        W81979  22.241  33.126   4.694
22444W        W81980  14.835  20.132   0.843
22445W        W81981   9.851  35.052  12.863
22446W        W81982   4.756  23.101  11.022
22447W        W81983  29.568  16.635  10.426
22448W        W81984  10.770  20.218   2.283
22449W        W81985  26.165  13.245  11.073
22450W        W81986  38.422  12.263  13.418
22451W        W81987  27.146  40.524  12.881
22452W        W81988  39.017  10.650   2.832
22453W        W81989  16.656  24.078   2.190
22454W        W81990  24.541   0.865   0.424
22455W        W81991   8.382  42.978  11.592
22456W        W81992  41.382  15.207   9.968
22457W        W81993  15.792  24.027  14.965
22458W        W81994  42.431   0.843   0.427
22459W        W81995  13.180  32.066  10.956
22460W        W81996  28.997   1.404  10.889
22461W        W81997  13.676  39.419  12.405
22462W        W81998  24.714  28.080   2.675
22463W        W81999  23.055   9.190   1.300
22464W        W82000   5.846   2.955   2.399
22465W        W82001  27.628  33.091  14.328
22466W        W82002  28.060  38.567  10.985
22467W        W82003  25.590  16.233   9.928
22468W        W82004  11.814  39.935  11.982
22469W        W82005  27.544  36.479   2.205
22470W        W82006  34.906   3.814   4.258
22471W        W82007  17.610   8.844   4.166
22472W        W82008  41.479  34.502  11.494
22473W        W82009  10.254  31.067   0.841
22474W        W82010  32.916  11.677  11.988
22475W        W82011  20.075  19.146   2.263
22476W        W82012  42.468  13.251  10.562
22477W        W82013  38.974  29.478  14.280
22478W        W82014  43.271  42.860   2.352
22479W        W82015  13.308  42.966  13.796
22480W        W82016  40.495   9.848   4.680
22481W        W82017  41.294  44.790  12.971
22482W        W82018  39.960  40.387   0.851
22483W        W82019  26.574  36.083   0.376
22484W        W82020   3.852  29.959  14.503
22485W        W82021  30.644  42.801  11.967
22486W        W82022  29.149  43.867   3.772
22487W        W82023  34.608  35.879   2.390
22488W        W82024  43.499   7.803  12.974
22489W        W82025   8.385  34.517   0.917
22490W        W82026  38.852  10.313   4.146
22491W        W82027   6.404  19.591   4.235
22492W        W82028  36.586  20.249  13.995
22493W        W82029  23.113  28.459  12.918
22494W        W82030  16.621  29.547  13.987
22495W        W82031  23.535  33.876  10.941
22496W        W82032   4.931  13.679   1.388
22497W        W82033  25.551  28.055   2.401
22498W        W82034  12.342  37.973  14.306
22499W        W82035  11.809  44.822   4.211
22500W        W82036  35.495  37.400  14.300
22501W        W82037  12.286  25.995   1.732
22502W        W82038  25.136  29.628   5.292
22503W        W82039  20.216  17.583  11.034
22504W        W82040  38.478  35.072   1.409
22505W        W82041  41.826   4.754   2.706
22506W        W82042   4.882  16.684  11.501
22507W        W82043   2.748  18.745  13.542
22508W        W82044  29.513  15.741   2.414
22509W        W82045   5.855  26.483   5.182
22510W        W82046   3.726   2.791  13.024
22511W        W82047  43.457  17.646  13.979
22512W        W82048  36.465  16.750  11.075
22513W        W82049  36.900  42.836  11.875
22514W        W82050  39.857  28.619  11.022
22515W        W82051  27.560  17.597  14.907
22516W        W82052  18.568   7.781   2.681
22517W        W82053  14.674  30.465  10.452
22518W        W82054  33.446  17.177  12.369
22519W        W82055   2.389  36.051  14.830
22520W        W82056  24.110  22.208   3.224
22521W        W82057   7.906  23.585   0.827
22522W        W82058  40.394  25.146   3.335
22523W        W82059  34.032  34.957   1.912
22524W        W82060  20.209  37.886   1.409
22525W        W82061  40.043  29.076   0.951
22526W        W82062  25.589  30.653   5.231
22527W        W82063  21.142  18.624  14.332
22528W        W82064  32.523  36.037   0.292
22529W        W82065   0.794  41.794  12.011
22530W        W82066  37.943  33.879  10.546
22531W        W82067  12.837  19.230   0.443
22532W        W82068  44.848  29.068   3.629
22533W        W82069  39.936  24.498  12.354
22534W        W82070  38.359  11.132  14.789
22535W        W82071  35.030  26.556   4.137
22536W        W82072   7.315  37.967  14.844
22537W        W82073  43.333   8.749  12.363
22538W        W82074  35.000  13.109   1.928
22539W        W82075  24.065  17.182   9.442
22540W        W82076  12.310  40.902  11.029
22541W        W82077  16.673  40.478  12.340
22542W        W82078  14.625   5.354  14.351
22543W        W82079  11.648   8.254  10.546
22544W        W82080  31.082  19.615  12.088
22545W        W82081   8.886  14.241  13.367
22546W        W82082  35.539  22.049  14.419
22547W        W82083   4.271   0.955   3.647
22548W        W82084  22.523   0.338  14.474
22549W        W82085  19.656  24.165  11.022
22550W        W82086  17.651  37.842   1.388
22551W        W82087  18.563   5.339  12.411
22552W        W82088  35.433   5.427   3.343
22553W        W82089  27.493  34.889  13.852
22554W        W82090  42.031  19.144   3.643
22555W        W82091  34.436  33.563   0.813
22556W        W82092  24.002  28.522   3.274
22557W        W82093  30.119  23.089   3.203
22558W        W82094   8.398  15.120   1.842
22559W        W82095  38.048  15.742   0.945
22560W        W82096  23.511  13.683  13.467
22561W        W82097  33.581  24.094   3.156
22562W        W82098   7.313  31.478  11.079
22563W        W82099  28.167  23.520  11.395
22564W        W82100  29.435  39.864   5.089
22565W        W82101  11.648   3.796  14.870
22566W        W82102  42.891  32.136   9.949
22567W        W82103  23.582  21.039   1.382
22568W        W82104  21.118  35.441   9.453
22569W        W82105  22.530  40.843  13.402
22570W        W82106  28.051  35.028   3.164
22571W        W82107  23.519  41.449  14.317
22572W        W82108  18.091   6.866  13.375
22573W        W82109   5.789  26.562   1.443
22574W        W82110  41.459   8.841  11.979
22575W        W82111  17.066   6.404  14.807
22576W        W82112  17.078  31.082   3.181
22577W        W82113  20.122  18.223  12.077
22578W        W82114  13.776  10.816   2.873
22579W        W82115  29.071  30.554  12.940
22580W        W82116  29.663  28.667   2.832
22581W        W82117  14.668  38.051  13.898
22582W        W82118  13.735  18.294  11.416
22583W        W82119   8.175  20.710   0.914
22584W        W82120  25.653  44.434  13.884
22585W        W82121  14.139   8.200  14.794
22586W        W82122   1.378  37.883  12.068
22587W        W82123  39.034  30.965  13.535
22588W        W82124  12.152   8.859   3.262
22589W        W82125  38.501  19.663  11.609
22590W        W82126  35.069  25.978   0.907
22591W        W82127  22.713  25.699  12.843
22592W        W82128  41.929  40.378  14.952
22593W        W82129   5.874   2.446  10.460
22594W        W82130  28.177  28.438  14.499
22595W        W82131  24.027  32.090  14.398
22596W        W82132  39.898  28.556  11.583
22597W        W82133   6.263  40.510   2.763
22598W        W82134  16.743   5.805  11.492
22599W        W82135   5.194   0.828   1.241
22600W        W82136  44.943  18.573   3.720
22601W        W82137  17.108  18.144  13.434
22602W        W82138  23.564  44.281  11.982
22603W        W82139  24.180  32.592  13.368
22604W        W82140  11.304  39.365   0.364
22605W        W82141  10.867   7.856   3.156
22606W        W82142  23.037  40.337  11.939
22607W        W82143  30.961  10.141   1.762
22608W        W82144  28.951  29.582  10.558
22609W        W82145  38.013  10.249   0.475
22610W        W82146  35.875  14.326  11.899
22611W        W82147  17.075  25.981  10.413
22612W        W82148   0.488   9.240  12.081
22613W        W82149  39.542  37.339   3.665
22614W        W82150  11.654  22.531   4.121
22615W        W82151  39.325  19.208  14.401
22616W        W82152  43.923   1.238  12.845
22617W        W82153  42.848  39.024  12.538
22618W        W82154  28.648  22.231   2.852
22619W        W82155  11.812  35.497   2.209
22620W        W82156  30.979  38.476   2.846
22621W        W82157  26.102   2.884  11.971
22622W        W82158   6.801   4.227  11.882
22623W        W82159   2.345  37.573   1.931
22624W        W82160  23.731  34.094  11.531
22625W        W82161  31.472   7.181   0.842
22626W        W82162  21.730  32.608   1.898
22627W        W82163  25.016   9.262   2.669
22628W        W82164  13.277  23.584   2.841
22629W        W82165  39.378   0.861   2.838
22630W        W82166  35.373  22.155   4.172
22631W        W82167   2.438  16.112   2.896
22632W        W82168   3.410  16.804  11.032
22633W        W82169  30.595  12.692   2.834
22634W        W82170  15.626   4.813   1.436
22635W        W82171  35.469   4.941  14.481
22636W        W82172  42.855  19.055  13.941
22637W        W82173   5.933  26.464  11.581
22638W        W82174  18.287  30.067  12.437
22639W        W82175  15.620  36.459   4.160
22640W        W82176  30.067   9.373   1.316
22641W        W82177  32.555  41.895   4.749
22642W        W82178  17.630  32.474   4.203
22643W        W82179  27.542  44.986   3.636
22644W        W82180   0.851   9.313  13.413
22645W        W82181  37.471   2.797  13.049
22646W        W82182  37.443   3.350  11.470
22647W        W82183  21.173  35.110  11.044
22648W        W82184  38.054  38.029  11.451
22649W        W82185  33.930  11.697  11.077
22650W        W82186   1.436   5.428  11.542
22651W        W82187  41.297  37.045   3.231
22652W        W82188  34.039  13.623   1.760
22653W        W82189  27.461  43.842   0.370
22654W        W82190  44.423   4.391  11.448
22655W        W82191  26.015  39.986  12.036
22656W        W82192  22.180  42.919   1.876
22657W        W82193   6.268   2.319  11.912
22658W        W82194   4.908   9.685   1.348
22659W        W82195  38.500  20.578   3.156
22660W        W82196  44.328  26.615  14.443
22661W        W82197  26.513  30.963   4.798
22662W        W82198  11.640  42.360   4.646
22663W        W82199  35.584  20.159   4.336
22664W        W82200  19.150   6.376  12.020
22665W        W82201  12.150  24.174  13.953
22666W        W82202  15.177  27.161   4.616
22667W        W82203  12.687  20.766   1.775
22668W        W82204  42.780  29.115   0.471
22669W        W82205  24.051   8.271   3.639
22670W        W82206  32.981  25.507  12.501
22671W        W82207   5.352  24.133  11.446
22672W        W82208  15.712   7.371   0.329
22673W        W82209  27.083   7.715   9.584
22674W        W82210  29.621  36.878  13.957
22675W        W82211   7.373   7.787  11.023
22676W        W82212  33.613  39.064  14.315
22677W        W82213  10.808   8.847   2.368
22678W        W82214  29.078   4.279   0.733
22679W        W82215  33.449  27.551   2.780
22680W        W82216  39.841  16.796   1.339
22681W        W82217  22.533  13.637  11.375
22682W        W82218   6.881  10.796  13.426
22683W        W82219   5.357  28.185   0.315
22684W        W82220  39.056  21.098   4.645
22685W        W82221  43.312  22.680   3.263
22686W        W82222  29.059  33.918   0.926
22687W        W82223   3.893   2.469  12.546
22688W        W82224  24.675  14.181  12.848
22689W        W82225  13.124  44.875  13.963
22690W        W82226  37.425  22.603  11.556
22691W        W82227  31.900  36.480  12.445
22692W        W82228   4.320   0.311  13.013
22693W        W82229   5.355  12.357   0.846
22694W        W82230  17.283  21.231  10.634
22695W        W82231   2.282  38.445   4.679
22696W        W82232  30.015   4.700   1.243
22697W        W82233  40.836  13.108  12.991
22698W        W82234  16.719  14.160  11.438
22699W        W82235  10.650   6.780  12.451
22700W        W82236  30.037  23.623   0.441
22701W        W82237  17.757  34.060   0.793
22702W        W82238  41.405  19.058   0.888
22703W        W82239  31.519  28.577   1.308
22704W        W82240  14.695  25.503   0.887
22705W        W82241   3.738  33.460   1.277
22706W        W82242  10.669  23.072   4.779
22707W        W82243   4.736  16.656   3.699
22708W        W82244  35.910  44.355   1.883
22709W        W82245   5.720  23.029  11.477
22710W        W82246   0.361  44.911  13.512
22711W        W82247  12.291  31.427   3.207
22712W        W82248   2.463  11.725   5.278
22713W        W82249   4.923  42.949  10.617
22714W        W82250  32.934  18.064   0.479
22715W        W82251  14.246  20.530   3.772
22716W        W82252   6.203  13.337   3.252
22717W        W82253  10.139  36.026   1.928
22718W        W82254   4.863   4.342  10.145
22719W        W82255   1.411  12.665  11.556
22720W        W82256  40.910  37.455   2.789
22721W        W82257  11.245   8.895   3.190
22722W        W82258  25.567  32.394  11.073
22723W        W82259   5.221  27.076   3.202
22724W        W82260  40.854  37.976   2.834
22725W        W82261   6.199  18.690  11.541
22726W        W82262  33.468  41.043  11.451
22727W        W82263  27.667  12.355  10.988
22728W        W82264   0.411  44.784   1.298
22729W        W82265  22.502  21.718   0.733
22730W        W82266  28.549   6.237   1.719
22731W        W82267   1.365  13.174   2.335
22732W        W82268  41.937  42.511  11.479
22733W        W82269  44.930  29.546   0.458
22734W        W82270  27.553  23.598   1.893
22735W        W82271  29.425  24.060   0.808
22736W        W82272  42.859  42.382  10.535
22737W        W82273   1.909  17.118  13.524
22738W        W82274  26.130  36.481   4.264
22739W        W82275  24.172  17.712  12.554
22740W        W82276  11.763  26.183  12.514
22741W        W82277   0.358   4.765  11.522
22742W        W82278  16.081  38.846   2.381
22743W        W82279  15.769   5.413  13.045
22744W        W82280  30.495  33.966   3.158
22745W        W82281  16.080   0.824   2.313
22746W        W82282  10.763   9.750  13.307
22747W        W82283  44.004  44.377  14.413
22748W        W82284  18.730   1.257   4.774
22749W        W82285   6.897  33.079   0.379
22750W        W82286  14.143  13.167  14.856
22751W        W82287   0.285  35.390   3.825
22752W        W82288   9.693  31.939   0.929
22753W        W82289  37.002   4.258  12.976
22754W        W82290  35.952  30.007   2.283
22755W        W82291  14.276  12.653  13.920
22756W        W82292  43.955  32.065   4.234
22757W        W82293   3.824  29.589  12.832
22758W        W82294  35.425  11.134   0.254
22759W        W82295  39.896  30.028   0.777
22760W        W82296   1.850  25.583  13.973
22761W        W82297   0.933  35.050  14.833
22762W        W82298   4.277  35.086  13.014
22763W        W82299  32.428  41.922  11.912
22764W        W82300  37.363  12.726   1.906
22765W        W82301   7.893  43.336  14.812
22766W        W82302  36.449  15.747  12.040
22767W        W82303   0.758  14.820   3.307
22768W        W82304   7.414  36.849  10.430
22769W        W82305   8.260   3.723  13.918
22770W        W82306   3.874  39.946   2.832
22771W        W82307  28.487  38.975  11.897
22772W        W82308   1.345  16.597   0.305
22773W        W82309  12.747  23.689  11.074
22774W        W82310  36.444   5.784   4.817
22775W        W82311  25.005  39.886   4.308
22776W        W82312   3.794  18.782   3.682
22777W        W82313  36.845   5.933  10.603
22778W        W82314  15.743  36.084   2.414
22779W        W82315   9.319  18.773   4.242
22780W        W82316  20.062  21.526   4.205
22781W        W82317  43.963  39.458   1.817
22782W        W82318  20.575  41.501   0.296
22783W        W82319  15.629  17.252   4.760
22784W        W82320   1.270  43.405  13.996
22785W        W82321  24.689  26.984   3.329
22786W        W82322  12.193  20.093   2.200
22787W        W82323  32.614  19.542   0.418
22788W        W82324  28.031  10.869   4.155
22789W        W82325  11.831  12.626   4.833
22790W        W82326   3.784   4.415   1.883
22791W        W82327  24.106  42.003  14.513
22792W        W82328  42.331  25.980   4.719
22793W        W82329  44.788  27.512   2.782
22794W        W82330  16.752  38.855   1.247
22795W        W82331  40.008  24.064  11.098
22796W        W82332  31.095  34.009  12.908
22797W        W82333   1.280  26.143  13.813
22798W        W82334  17.225  22.114  11.893
22799W        W82335  13.681  30.506  12.507
22800W        W82336  18.777  34.405   0.321
22801W        W82337  42.345   5.319  13.923
22802W        W82338  40.865  37.472  12.862
22803W        W82339  21.137  15.695   2.300
22804W        W82340  19.098  24.552  10.569
22805W        W82341   2.442  38.032   3.277
22806W        W82342  20.157  25.077  12.854
22807W        W82343   1.747  24.664   0.902
22808W        W82344   7.693   3.874  13.965
22809W        W82345  32.626  19.552  13.469
22810W        W82346  33.545  27.677  11.539
22811W        W82347   8.743   0.882   3.155
22812W        W82348  38.343  33.613  14.331
22813W        W82349  23.076  14.107   1.436
22814W        W82350   9.644  21.077  10.457
22815W        W82351  11.280   9.219  12.537
22816W        W82352  24.679   1.249   3.699
22817W        W82353  34.094  20.190  10.570
22818W        W82354  43.976   4.406  14.497
22819W        W82355   4.811  24.558  14.365
22820W        W82356  28.112  30.927  11.595
22821W        W82357  33.549   5.404  12.008
22822W        W82358  16.188   5.287   4.295
22823W        W82359   9.189   9.714   1.445
22824W        W82360   0.295  32.955   1.797
22825W        W82361  34.407  42.846  11.595
22826W        W82362   3.907  35.013  11.478
22827W        W82363  16.786  33.554   0.478
22828W        W82364   2.847   2.945  12.870
22829W        W82365  41.324  29.514   4.168
22830W        W82366  24.575  38.524   4.150
22831W        W82367  39.330  41.296   4.766
22832W        W82368  28.636  26.556   1.814
22833W        W82369   7.710  17.068  10.917
22834W        W82370   1.763   1.422  11.489
22835W        W82371  15.268  40.505  12.475
22836W        W82372   1.918  32.525  13.870
22837W        W82373   0.972  15.096  14.909
22838W        W82374  35.956  29.099  11.095
22839W        W82375   2.820  37.340  12.494
22840W        W82376  39.417  14.642  12.432
22841W        W82377   4.743  36.888   0.909
22842W        W82378  18.726   1.274  11.952
22843W        W82379  29.462  22.125  11.532
22844W        W82380  39.501   1.904  14.759
22845W        W82381   1.758  15.661   2.885
22846W        W82382  24.171  13.321  11.001
22847W        W82383  21.253  32.058   9.965
22848W        W82384   7.822  35.866  11.592
22849W        W82385  25.468  20.053  13.424
22850W        W82386  37.009  22.194   0.255
22851W        W82387  14.625  43.896   1.715
22852W        W82388   6.697  31.534   1.325
22853W        W82389   6.325  21.219   3.374
22854W        W82390  37.853  31.563   3.312
22855W        W82391  16.712  12.321  11.960
22856W        W82392  14.178  11.800  14.351
22857W        W82393   4.736  33.578  12.072
22858W        W82394  20.572  23.102  14.910
22859W        W82395  42.018  13.280  14.890
22860W        W82396  20.600  20.642   2.729
22861W        W82397  12.720  37.956   3.232
22862W        W82398  44.285  18.116   2.873
22863W        W82399  12.679  24.997   4.606
22864W        W82400  27.569   4.221   2.829
22865W        W82401  21.618  42.488  13.006
22866W        W82402   6.422  39.027   9.956
22867W        W82403  44.416   7.389  11.106
22868W        W82404  35.442  16.242   1.217
22869W        W82405  44.487  41.360  11.018
22870W        W82406  38.538   9.779   3.836
22871W        W82407  29.443  16.075  11.531
22872W        W82408  15.088  36.084  10.616
22873W        W82409  28.661  24.149  12.032
22874W        W82410   6.280  41.386  11.890
22875W        W82411  39.534  16.687  13.799
22876W        W82412   3.818   6.364  12.969
22877W        W82413   6.264  16.276  13.968
22878W        W82414   3.794  21.726   1.828
22879W        W82415  34.550  20.729   3.861
22880W        W82416   2.875  13.338  13.954
22881W        W82417  22.656   4.439  14.870
22882W        W82418  36.979  36.976  13.005
22883W        W82419   3.393  43.821   4.182
22884W        W82420  15.173  33.018   2.689
22885W        W82421   4.211  42.962   4.332
22886W        W82422  43.966  39.499  11.122
22887W        W82423  37.852   2.279   0.920
22888W        W82424  33.970   6.370  12.011
22889W        W82425  26.985  35.491   5.218
22890W        W82426  32.925  43.945   4.233
22891W        W82427  44.386  39.983   0.844
22892W        W82428  13.260   4.380  14.837
22893W        W82429  16.210  10.306  10.117
22894W        W82430  40.823  24.201   2.852
22895W        W82431  32.452  24.214  10.110
22896W        W82432  40.335   2.945  14.388
22897W        W82433   8.300   2.829   1.849
22898W        W82434  35.863   3.356  14.789
22899W        W82435  31.482   6.191   0.835
22900W        W82436  43.009  16.661  12.371
22901W        W82437  21.091  17.648   3.792
22902W        W82438  40.375   0.892   4.807
22903W        W82439  44.291  17.720   1.415
22904W        W82440  29.995  26.174   3.374
22905W        W82441  37.456  19.257   3.294
22906W        W82442   0.794  11.769   0.766
22907W        W82443  44.398  40.990   3.244
22908W        W82444  16.655  37.513   3.216
22909W        W82445  27.055   8.242  14.984
22910W        W82446  11.786  41.954   0.246
22911W        W82447   1.319  17.755   2.336
22912W        W82448  18.234  34.108   2.331
22913W        W82449  25.590  25.696  14.454
22914W        W82450  13.825  20.163  13.484
22915W        W82451  37.408  24.684  13.340
22916W        W82452  19.067  25.571  12.362
22917W        W82453   2.452  40.837  12.960
22918W        W82454   0.788   6.744   4.743
22919W        W82455  41.500  22.241  11.904
22920W        W82456   9.368  40.422   0.784
22921W        W82457   3.943   3.428   4.698
22922W        W82458   9.257  26.046   4.218
22923W        W82459  44.450  16.224  14.290
22924W        W82460   6.424  31.103  11.599
22925W        W82461  18.729  33.039   3.854
22926W        W82462  29.919   3.425  12.052
22927W        W82463  17.786  42.908  11.573
22928W        W82464  37.944   0.267   3.341
22929W        W82465  16.610   4.336  13.417
22930W        W82466   4.236  23.720  12.573
22931W        W82467  43.503  42.509  10.605
22932W        W82468  30.959  32.575  10.958
22933W        W82469   4.220  35.050   3.752
22934W        W82470   5.744  39.837  14.371
22935W        W82471   9.185  36.049  14.868
22936W        W82472  11.838  21.657   0.740
22937W        W82473  24.009  42.921  11.581
22938W        W82474  27.958   5.343   0.329
22939W        W82475  37.335  35.934   0.898
22940W        W82476  16.186  10.210  10.625
22941W        W82477  24.579  27.991   4.637
22942W        W82478  36.438  25.531  10.598
22943W        W82479  13.111   0.319   3.341
22944W        W82480  11.230  20.062  14.918
22945W        W82481  29.020  37.061  13.918
22946W        W82482  26.656  43.315  11.424
22947W        W82483  33.536  11.644   0.901
22948W        W82484  41.458   3.824   4.812
22949W        W82485  30.102   4.917   2.196
22950W        W82486  13.229  19.133  10.933
22951W        W82487  44.410  37.341  14.462
22952W        W82488  32.607   4.417   1.402
22953W        W82489  20.757  15.307  13.939
22954W        W82490  27.660  25.525  11.546
22955W        W82491  20.157   7.290  13.903
22956W        W82492  12.660  19.206   2.283
22957W        W82493   2.416  40.001   1.864
22958W        W82494  15.310  20.711  10.487
22959W        W82495  33.988   0.900   1.375
22960W        W82496   6.864  36.484   1.366
22961W        W82497  10.304   0.399   3.262
22962W        W82498  34.470  30.153  13.978
22963W        W82499   0.356  27.064   0.837
22964W        W82500  24.724  42.517  12.856
22965W        W82501   8.356  33.952  14.014
22966W        W82502  29.103  12.665  14.342
22967W        W82503  26.689  43.804   3.253
22968W        W82504  13.191  23.237   0.962
22969W        W82505  30.609   2.760   1.247
22970W        W82506  35.596  13.236  12.461
22971W        W82507  18.642  14.277  11.610
22972W        W82508  18.169  20.633  11.505
22973W        W82509   4.299   2.304  13.377
22974W        W82510  17.244  21.637   2.215
22975W        W82511   8.828  26.650  12.498
22976W        W82512  13.207  10.704   3.861
22977W        W82513   5.303  20.597   0.959
22978W        W82514  31.136  19.655   2.217
22979W        W82515  13.158   3.829  12.853
22980W        W82516  12.320  44.490  11.100
22981W        W82517  30.584  28.557  13.033
22982W        W82518  23.706   8.896   2.415
22983W        W82519   1.890  35.506   1.433
22984W        W82520   0.775  35.598  14.407
22985W        W82521  41.435   1.836  13.518
22986W        W82522   1.906  26.108   3.188
22987W        W82523  22.595  17.660   9.927
22988W        W82524  30.945  12.293   0.806
22989W        W82525   9.695  31.966   2.180
22990W        W82526  11.333  44.446   2.821
22991W        W82527   2.375  17.195  11.069
22992W        W82528  26.029   9.680   1.269
22993W        W82529  25.663  15.773   1.866
22994W        W82530  25.973  22.517  13.322
22995W        W82531  38.369  15.093   3.352
22996W        W82532   9.868  29.012  13.805
22997W        W82533  36.420  23.606   2.777
22998W        W82534   0.373   3.373   3.361
22999W        W82535  37.970  42.814  12.956
23000W        W82536  40.304  14.328   1.814
23001W        W82537   7.186  39.347   0.861
23002W        W82538  24.023  23.999   2.683
23003W        W82539  33.565   1.422   4.679
23004W        W82540  12.357  25.037   0.937
23005W        W82541   3.449  18.282   3.855
23006W        W82542   3.741  20.162   0.843
23007W        W82543   6.777  17.161  13.978
23008W        W82544  14.826  37.488  10.629
23009W        W82545  36.347  41.521  14.322
23010W        W82546  24.649  30.959   2.348
23011W        W82547  38.075  15.789   4.282
23012W        W82548  32.925   2.824  10.921
23013W        W82549  36.380  17.294  14.461
23014W        W82550  39.819   3.944  14.338
23015W        W82551  40.459  43.425  12.543
23016W        W82552  37.547   5.229   4.761
23017W        W82553  22.150  23.174  13.888
23018W        W82554  44.497  30.049   4.352
23019W        W82555  31.966  28.951  12.575
23020W        W82556  36.435  40.357  13.051
23021W        W82557  25.087   1.254   4.822
23022W        W82558  19.280  26.161  13.792
23023W        W82559  30.424  10.226  12.832
23024W        W82560  25.598  20.167   2.180
23025W        W82561  11.137  39.825  12.490
23026W        W82562   7.795  39.478   3.849
23027W        W82563  15.236  36.040   0.842
23028W        W82564   5.889   9.770   1.885
23029W        W82565  42.523  18.560  10.491
23030W        W82566  38.516  16.125  10.955
23031W        W82567  11.860  31.064  10.444
23032W        W82568   5.201  11.678   2.695
23033W        W82569  24.125   7.791  13.890
23034W        W82570  15.112  26.687   4.286
23035W        W82571  38.912  12.843  10.530
23036W        W82572  36.351  29.006  11.455
23037W        W82573   3.930   9.663  10.999
23038W        W82574  26.587  16.764  12.982
23039W        W82575  38.831  20.766   0.471
23040W        W82576   6.321  21.550  14.429
23041W        W82577  35.414  29.155   0.452
23042W        W82578  20.598  23.601   4.228
23043W        W82579  26.057  19.247   0.387
23044W        W82580  27.513  14.333  11.536
23045W        W82581  13.315  12.302  14.865
23046W        W82582  39.329  30.617  13.840
23047W        W82583  35.965  22.227   3.384
23048W        W82584  13.650  28.445  11.115
23049W        W82585   5.231   9.850   2.824
23050W        W82586  37.520   6.199  12.411
23051W        W82587  36.901  11.326   3.333
23052W        W82588  25.024  41.305  11.127
23053W        W82589  42.501  43.491  13.315
23054W        W82590  16.572  14.181  12.382
23055W        W82591  25.180  25.107   5.105
23056W        W82592  11.197   3.400  13.339
23057W        W82593  26.970  18.745   3.223
23058W        W82594  37.933  44.962  12.929
23059W        W82595  20.533  36.544   5.149
23060W        W82596  10.810  37.464  12.978
23061W        W82597  42.859  42.835   4.805
23062W        W82598  28.025   4.317  13.375
23063W        W82599  44.793  29.495  12.348
23064W        W82600  12.713   1.308   3.705
23065W        W82601  38.819  26.459   1.360
23066W        W82602  24.656   8.215   0.889
23067W        W82603  17.125  17.788  13.831
23068W        W82604   6.890  40.798   4.260
23069W        W82605  42.030  13.747  14.002
23070W        W82606  23.052  28.477  14.885
23071W        W82607  18.072   6.236  10.924
23072W        W82608  20.644  21.145   1.352
23073W        W82609  11.788  24.993   4.236
23074W        W82610  25.114  41.500   4.664
23075W        W82611  37.563   8.675   9.947
23076W        W82612  33.879  19.089   4.797
23077W        W82613  33.052  14.290   0.958
23078W        W82614  32.611  23.511  14.854
23079W        W82615  33.876  17.158  11.448
23080W        W82616  38.450  19.097   3.383
23081W        W82617  35.026  18.751  14.955
23082W        W82618  23.572  42.288  13.908
23083W        W82619  38.043   6.338  14.342
23084W        W82620  27.092  14.647  14.014
23085W        W82621  14.753  37.881   4.767
23086W        W82622  10.729  40.335  10.478
23087W        W82623  11.370   4.430   0.293
23088W        W82624  43.846  20.123  14.390
23089W        W82625  14.259  11.161  11.122
23090W        W82626  37.949   9.339   3.769
23091W        W82627   4.397  17.639  12.420
23092W        W82628  43.943  28.624   3.839
23093W        W82629  22.231  14.249   0.848
23094W        W82630  34.413  17.735   0.411
23095W        W82631  28.600  36.881  11.579
23096W        W82632   4.944   7.388  11.110
23097W        W82633  43.380   2.946   0.373
23098W        W82634  13.327  31.908   4.273
23099W        W82635  24.178  34.529   2.792
23100W        W82636  15.323   8.886  12.447
23101W        W82637  35.517  20.567   2.186
23102W        W82638  10.194  29.069  13.458
23103W        W82639  21.106  37.077   5.140
23104W        W82640   8.320  16.184   1.923
23105W        W82641  43.364   7.870  11.496
23106W        W82642  16.688  12.731   4.201
23107W        W82643  25.514  41.402   0.867
23108W        W82644  39.401  37.379  14.858
23109W        W82645   0.387   2.823  11.968
23110W        W82646  24.723  40.480   1.796
23111W        W82647   2.895  34.083   0.967
23112W        W82648  40.505  39.404  11.463
23113W        W82649   6.379   7.768   0.330
23114W        W82650  10.690  18.085  10.596
23115W        W82651   8.711  17.264   3.643
23116W        W82652  27.158  33.960   1.342
23117W        W82653   6.907  27.149   0.892
23118W        W82654  33.094  14.641  11.554
23119W        W82655  33.577  41.383  11.415
23120W        W82656  34.428   7.412  11.037
23121W        W82657  11.678  44.379   4.650
23122W        W82658   9.887   3.328  10.604
23123W        W82659  38.448  27.116  14.459
23124W        W82660  19.606  41.381  11.507
23125W        W82661  44.376  43.284   1.319
23126W        W82662  13.285  44.828   4.777
23127W        W82663  36.349  22.128  13.829
23128W        W82664  23.707  23.083   0.444
23129W        W82665  14.682  29.016  13.502
23130W        W82666  19.590   3.770   4.613
23131W        W82667  10.824  20.088   4.247
23132W        W82668  39.466  36.857   1.840
23133W        W82669  39.345  15.102  14.793
23134W        W82670   7.839  36.942   3.288
23135W        W82671  24.523  41.530   2.796
23136W        W82672  32.417  40.926   1.420
23137W        W82673  37.034  40.492  14.292
23138W        W82674  14.763  24.503  14.899
23139W        W82675  29.159  39.025   3.679
23140W        W82676   6.760  29.605   0.959
23141W        W82677  33.548   4.447   4.698
23142W        W82678   2.804   4.315   3.380
23143W        W82679  42.798  21.241  13.443
23144W        W82680  41.816  43.485  10.998
23145W        W82681   5.402  12.680   2.218
23146W        W82682  23.131  39.441   1.334
23147W        W82683  34.552   0.485  12.495
23148W        W82684  37.993   4.903   2.351
23149W        W82685   2.377   5.916  10.154
23150W        W82686  23.069  21.642  11.536
23151W        W82687  25.684   4.404  12.857
23152W        W82688  32.044   1.872  11.417
23153W        W82689   6.706  25.048  13.504
23154W        W82690  29.127  43.933   1.448
23155W        W82691  26.456  24.651   0.785
23156W        W82692  36.841   1.275   2.196
23157W        W82693  15.638  20.713   1.450
23158W        W82694  43.365  42.384   4.720
23159W        W82695  21.649  26.958   2.190
23160W        W82696  16.625  10.168  13.313
23161W        W82697  14.291  28.494   2.742
23162W        W82698  40.860  24.586  14.906
23163W        W82699  42.865  15.674  11.107
23164W        W82700  37.557  35.495  12.979
23165W        W82701  36.490  14.731   3.652
23166W        W82702  15.193  11.134   1.830
23167W        W82703   4.318  11.244  12.978
23168W        W82704  13.695  28.149  10.527
23169W        W82705  24.485   8.342   1.379
23170W        W82706   5.310  16.209   1.731
23171W        W82707  24.008  12.267   2.780
23172W        W82708  26.702  40.390   3.212
23173W        W82709  20.110  25.611  12.882
23174W        W82710   4.320  11.835  12.882
23175W        W82711  27.113  33.578   3.228
23176W        W82712   3.380   3.715   2.355
23177W        W82713  31.440  34.416   3.778
23178W        W82714  44.909  32.567  12.419
23179W        W82715  22.651   5.286   1.307
23180W        W82716  38.028   8.865  11.992
23181W        W82717  16.095   7.858   1.743
23182W        W82718  28.588   3.329   2.770
23183W        W82719   4.392   6.401  10.942
23184W        W82720  35.939   9.687  14.351
23185W        W82721   1.897  13.753   2.255
23186W        W82722  17.174  15.722   1.911
23187W        W82723  22.744  27.636   4.318
23188W        W82724  11.250   4.714  14.449
23189W        W82725  34.091  13.326  14.438
23190W        W82726  19.688   4.934  10.127
23191W        W82727  16.153   1.426   0.947
23192W        W82728   3.865  30.602   4.826
23193W        W82729  44.873   0.484   2.193
23194W        W82730   0.838  10.239   3.822
23195W        W82731  17.099  21.580  14.389
23196W        W82732  44.401  20.109   3.706
23197W        W82733  26.482  42.356  10.975
23198W        W82734  34.420  43.989   5.202
23199W        W82735  13.734  35.459   3.294
23200W        W82736  15.712  13.305   2.215
23201W        W82737  17.602   8.218  12.371
23202W        W82738  12.812   0.469   2.697
23203W        W82739  17.298  40.309  10.117
23204W        W82740   1.406  19.705   0.276
23205W        W82741  37.067  17.299   3.148
23206W        W82742   5.716  20.573  13.449
23207W        W82743  13.805  18.781  10.448
23208W        W82744  31.632  13.747   0.759
23209W        W82745  29.013  35.039  11.032
23210W        W82746  30.011   7.173   1.254
23211W        W82747   5.689  25.609  14.788
23212W        W82748  24.500  20.727  13.519
23213W        W82749  37.541   1.263   4.284
23214W        W82750  15.673  25.021  14.503
23215W        W82751  22.240  34.928  14.939
23216W        W82752  10.657  15.224  10.425
23217W        W82753  35.078  39.493   1.804
23218W        W82754  31.447  41.844   1.748
23219W        W82755   7.736  39.856  13.474
23220W        W82756  32.056  12.626  13.059
23221W        W82757  28.082   1.854  12.980
23222W        W82758  31.409  22.056   3.643
23223W        W82759  14.670   6.923  10.958
23224W        W82760  37.945  24.044   4.291
23225W        W82761   5.294  31.519   0.768
23226W        W82762   6.711  21.526   3.668
23227W        W82763  17.086   7.308   0.727
23228W        W82764  21.721  14.153   1.839
23229W        W82765  42.826  24.725  11.507
23230W        W82766  26.178  24.015  14.024
23231W        W82767  15.588  44.350  13.397
23232W        W82768  13.197   8.696  14.784
23233W        W82769   8.397  24.701   0.912
23234W        W82770   0.784   6.291   1.262
23235W        W82771  20.197  43.789  11.439
23236W        W82772  28.469  37.409  12.546
23237W        W82773  28.499  28.144  14.913
23238W        W82774  30.630   0.382  11.556
23239W        W82775  16.127  43.936  11.887
23240W        W82776  15.608  12.827   1.749
23241W        W82777  24.607  13.130   4.790
23242W        W82778  36.873  23.666   4.281
23243W        W82779  23.078  23.097   4.781
23244W        W82780   6.198  12.641  14.431
23245W        W82781  11.193  22.069   0.939
23246W        W82782   9.204  34.069   3.744
23247W        W82783  14.723  19.691   0.838
23248W        W82784   3.414  35.914   0.330
23249W        W82785  25.565  40.371  14.848
23250W        W82786  12.805   8.849   0.803
23251W        W82787   6.901  29.075  14.969
23252W        W82788   1.756  32.994  14.989
23253W        W82789   7.333   6.743   1.812
23254W        W82790   9.704  13.721   3.857
23255W        W82791  36.457  33.048   1.393
23256W        W82792  37.370   5.751  10.516
23257W        W82793  41.323  14.180   3.384
23258W        W82794  40.525  42.950   3.773
23259W        W82795  36.559  36.952   0.429
23260W        W82796  26.543   8.835  11.378
23261W        W82797  20.548  25.598  10.525
23262W        W82798   6.270  28.595  14.382
23263W        W82799   2.941  19.209   4.631
23264W        W82800  11.846  30.582  13.057
23265W        W82801  22.082  27.668  12.543
23266W        W82802   0.412  32.984   0.280
23267W        W82803  28.634   2.274  10.924
23268W        W82804   5.849   3.307  12.941
23269W        W82805  36.572  12.837  13.470
23270W        W82806  34.409  42.450   0.953
23271W        W82807  27.968  26.045   1.213
23272W        W82808  44.903  14.144  13.058
23273W        W82809   8.796  41.864   0.449
23274W        W82810  41.536  28.958   2.204
23275W        W82811   9.368  10.707  12.888
23276W        W82812   4.699  28.160   0.405
23277W        W82813   3.268  22.527   5.244
23278W        W82814  32.126  36.404   2.201
23279W        W82815  11.621  12.190   3.151
23280W        W82816   2.829   9.342  12.926
23281W        W82817  44.267  42.281  13.456
23282W        W82818  32.625   6.827   0.798
23283W        W82819   1.972  17.192   2.827
23284W        W82820  23.549  22.549  10.603
23285W        W82821  19.579   9.794  14.833
23286W        W82822  10.727  39.873  13.972
23287W        W82823   4.810   7.281   2.411
23288W        W82824  12.717  31.472  13.451
23289W        W82825   6.904  17.102   2.190
23290W        W82826  14.817  37.943  11.457
23291W        W82827   6.830  35.600   3.172
23292W        W82828   8.741  32.488   1.374
23293W        W82829   5.395  18.271  10.570
23294W        W82830  15.304  27.457  14.327
23295W        W82831  38.914  22.113   1.804
23296W        W82832  27.961  43.923  13.401
23297W        W82833  37.442  35.091  10.438
23298W        W82834  43.364  36.023  14.856
23299W        W82835  24.108   9.374   1.792
23300W        W82836  26.505  25.995   2.316
23301W        W82837  24.493  30.030  10.545
23302W        W82838  25.111  35.975   1.789
23303W        W82839  16.606  44.890   0.413
23304W        W82840   7.752  26.529   2.232
23305W        W82841  39.951  30.448  12.043
23306W        W82842   9.850  38.542   3.655
23307W        W82843   3.255  18.240  11.469
23308W        W82844   5.896  26.635   4.718
23309W        W82845   5.907   7.759   0.389
23310W        W82846  43.380   7.356  14.369
23311W        W82847  42.418  40.905  13.937
23312W        W82848  33.407  35.491  12.544
23313W        W82849  13.341  14.688   2.401
23314W        W82850  44.993   1.255   2.840
23315W        W82851   8.393  31.068   2.885
23316W        W82852  35.573  19.198   1.904
23317W        W82853  19.690  13.128   0.286
23318W        W82854   3.271  44.843  11.951
23319W        W82855  39.003  36.943   1.931
23320W        W82856  32.939  30.616  14.858
23321W        W82857  16.297  18.749   1.295
23322W        W82858  33.962   4.938   3.351
23323W        W82859  38.554  39.441  11.377
23324W        W82860   9.709  42.905   3.783
23325W        W82861  32.540  22.511   2.181
23326W        W82862  37.495  29.627  11.078
23327W        W82863  30.577  29.613  13.026
23328W        W82864   3.234  38.070  11.597
23329W        W82865  36.924  15.101   0.781
23330W        W82866  32.964   3.438   4.775
23331W        W82867  25.529  27.013   3.859
23332W        W82868   5.792  29.438  11.414
23333W        W82869  42.963  23.583  12.856
23334W        W82870  25.546  33.929   3.672
23335W        W82871  21.562   1.363   1.911
23336W        W82872  24.508  10.162  13.398
23337W        W82873  26.122  16.757   4.725
23338W        W82874  39.342  32.402   0.282
23339W        W82875   4.277  27.178   4.686
23340W        W82876  41.919  30.595   2.204
23341W        W82877  30.417  44.905   0.313
23342W        W82878  11.166   0.391  12.462
23343W        W82879  42.385   6.839  14.337
23344W        W82880  33.981  23.615   1.372
23345W        W82881  32.071   4.361   4.155
23346W        W82882  10.848  15.739  14.907
23347W        W82883  21.128   8.183   4.681
23348W        W82884  23.233  16.615   0.345
23349W        W82885   1.255  36.593  14.424
23350W        W82886  40.875  33.048  11.120
23351W        W82887  32.912  32.111  14.959
23352W        W82888  18.251  30.590   2.887
23353W        W82889  32.549  10.640  10.568
23354W        W82890  26.196   1.924   3.846
23355W        W82891  22.087  12.691  11.414
23356W        W82892   7.686  38.948   1.892
23357W        W82893  43.294   7.853   2.683
23358W        W82894  34.013  12.756   1.235
23359W        W82895  14.258   0.759  11.039
23360W        W82896   4.704  17.075   2.838
23361W        W82897   8.211   6.345  10.564
23362W        W82898  40.510  23.083   3.344
23363W        W82899  43.275  42.800  12.566
23364W        W82900  33.106  40.531   2.299
23365W        W82901   0.873  11.343  14.879
23366W        W82902   3.262  43.313   3.324
23367W        W82903   1.391  35.999  11.492
23368W        W82904  28.538   1.874   4.702
23369W        W82905  27.003  10.810  11.507
23370W        W82906  41.354  32.563  13.875
23371W        W82907   5.381  10.143  13.892
23372W        W82908  36.386   6.866  13.901
23373W        W82909  14.788   8.755  14.305
23374W        W82910  28.600   2.338   4.293
23375W        W82911  34.932  28.952   1.713
23376W        W82912  27.122  37.398  11.443
23377W        W82913  14.656   0.962   0.759
23378W        W82914   4.331   4.726   3.295
23379W        W82915   8.246  25.093   4.753
23380W        W82916  39.904  10.696   0.752
23381W        W82917  42.793  17.305  11.372
23382W        W82918  14.663  19.132  13.435
23383W        W82919  15.132  44.944  13.005
23384W        W82920  17.119  20.737   0.879
23385W        W82921   5.927  42.821   1.308
23386W        W82922  28.616  39.968   0.771
23387W        W82923  44.445  28.930  10.962
23388W        W82924  44.874  10.679   1.223
23389W        W82925  34.523  43.460   1.895
23390W        W82926  20.234  41.909  13.363
23391W        W82927  10.773  31.969   4.314
23392W        W82928  32.018  35.939  14.941
23393W        W82929  23.668  10.693  14.020
23394W        W82930  10.322  35.420  10.564
23395W        W82931  43.914   3.871   1.293
23396W        W82932  18.638  21.541  12.850
23397W        W82933  41.992  36.926  10.559
23398W        W82934  14.608  13.134   0.308
23399W        W82935   6.708  40.822   3.862
23400W        W82936   9.258  10.381   3.637
23401W        W82937  22.111  30.440  13.964
23402W        W82938  23.519  25.140   0.902
23403W        W82939  25.467  32.939  13.043
23404W        W82940   6.903  25.580  10.581
23405W        W82941   4.807  23.035   4.309
23406W        W82942  44.359   0.407  13.886
23407W        W82943  23.203  28.092  14.772
23408W        W82944  43.296  20.204   0.878
23409W        W82945  19.216  41.425   0.923
23410W        W82946  26.953  43.945  13.828
23411W        W82947  17.181  15.092   0.326
23412W        W82948  22.205  19.184  14.440
23413W        W82949  11.715   4.769   3.782
23414W        W82950  10.237  43.937  11.562
23415W        W82951  29.640  33.109   3.748
23416W        W82952   0.896  26.097   2.731
23417W        W82953  18.703  30.917   1.763
23418W        W82954   5.825  24.104   4.236
23419W        W82955  30.999   3.845  13.355
23420W        W82956  43.000  43.834   1.710
23421W        W82957  17.584  20.544   2.794
23422W        W82958  10.860  32.111  14.478
23423W        W82959  40.513   8.678   4.265
23424W        W82960  37.028   6.821  14.784
23425W        W82961  44.274  28.595   3.764
23426W        W82962  24.588  27.516  13.456
23427W        W82963  39.895  25.486   0.424
23428W        W82964  41.422   5.764  11.089
23429W        W82965   1.442  43.469   2.253
23430W        W82966   6.714  29.045   0.369
23431W        W82967  31.138  22.148  12.065
23432W        W82968   1.451  25.083   0.886
23433W        W82969  33.533  34.880  14.352
23434W        W82970  28.514  35.375   1.854
23435W        W82971  33.409  43.293   4.651
23436W        W82972  32.891  44.944   0.890
23437W        W82973  30.152  38.022   1.219
23438W        W82974   5.923  35.527   2.843
23439W        W82975  18.130  33.977  13.064
23440W        W82976  13.242  15.611  14.408
23441W        W82977  17.606  34.089   3.741
23442W        W82978   3.720  41.537   3.760
23443W        W82979  37.548  44.964  10.026
23444W        W82980   0.372   7.884   2.359
23445W        W82981   7.394  12.722  13.412
23446W        W82982  33.937  44.839   4.617
23447W        W82983  25.026   7.320  12.488
23448W        W82984   5.687  35.874  12.424
23449W        W82985   8.705  32.578   3.662
23450W        W82986   2.448  24.226  12.848
23451W        W82987   1.335   6.837  12.476
23452W        W82988  43.790  15.647   0.282
23453W        W82989  25.088  10.677   2.389
23454W        W82990  38.032  41.835   2.662
23455W        W82991  34.555  13.216   0.919
23456W        W82992  37.428  22.039   4.604
23457W        W82993  11.759  41.854   2.254
23458W        W82994  22.517  30.595   4.646
23459W        W82995  13.139  37.566  14.343
23460W        W82996  37.831  40.954  11.085
23461W        W82997  37.076  34.927   2.804
23462W        W82998  44.480  13.619  12.566
23463W        W82999  21.634  11.849   3.284
23464W        W83000  23.991  16.109  11.087
23465W        W83001  20.246   5.196  10.568
23466W        W83002  33.416  27.144   2.312
23467W        W83003   3.364  31.590  11.518
23468W        W83004  24.652  22.036  13.044
23469W        W83005   9.714  12.156  11.383
23470W        W83006   6.239  27.601   3.358
23471W        W83007   9.207  26.592   3.858
23472W        W83008  18.655  18.087   1.832
23473W        W83009  27.024  39.490  11.064
23474W        W83010  39.517  28.104  11.592
23475W        W83011  20.123  19.658  11.942
23476W        W83012  39.061  32.889   4.778
23477W        W83013  19.079  34.897   1.261
23478W        W83014  39.966  43.974  14.980
23479W        W83015  24.985  31.023  13.929
23480W        W83016  44.849  33.547  14.849
23481W        W83017  12.300  19.038   3.643
23482W        W83018   6.688  24.499   3.752
23483W        W83019  43.994   3.273   3.728
23484W        W83020  16.230  26.700   1.421
23485W        W83021  34.462  25.082   0.768
23486W        W83022  16.197  39.444  13.339
23487W        W83023  12.118  32.995  12.581
23488W        W83024  22.511  38.530   0.886
23489W        W83025   4.829  32.449   3.694
23490W        W83026   6.360   2.816   3.280
23491W        W83027   8.355  32.935  13.401
23492W        W83028  31.929  16.309   0.419
23493W        W83029  10.352  10.794   3.804
23494W        W83030  31.508  22.539  14.843
23495W        W83031  16.780  18.087   0.875
23496W        W83032  11.225  27.942   0.802
23497W        W83033  18.055   7.315  12.937
23498W        W83034   7.216  38.516   3.766
23499W        W83035  24.186  21.135   4.349
23500W        W83036  36.007  10.223   3.660
23501W        W83037  44.903  17.102   1.825
23502W        W83038  19.584  34.002  14.435
23503W        W83039  42.326   7.826   4.220
23504W        W83040  34.444  18.203   1.831
23505W        W83041  41.364  35.041   3.764
23506W        W83042   6.400  37.427   3.334
23507W        W83043  19.715  29.997  12.013
23508W        W83044  19.544  31.430   0.353
23509W        W83045   5.247   3.936  13.501
23510W        W83046  30.462  11.242  13.946
23511W        W83047   8.318  17.243  11.007
23512W        W83048  14.292  26.598   4.779
23513W        W83049   1.246  27.979   2.759
23514W        W83050  33.542   5.304   4.340
23515W        W83051  40.980  34.950   4.662
23516W        W83052  17.137  35.977   9.933
23517W        W83053  10.855  42.484  12.910
23518W        W83054  21.680  43.397   4.284
23519W        W83055   4.262  41.973   3.380
23520W        W83056  12.650  40.422   1.296
23521W        W83057   9.226  24.715  14.875
23522W        W83058   4.374   9.171  13.886
23523W        W83059  36.362   9.765  10.449
23524W        W83060  14.756  41.401  11.611
23525W        W83061  14.104  16.686   3.366
23526W        W83062  14.125  39.515  13.884
23527W        W83063  24.600   4.435   1.349
23528W        W83064  10.309  21.019  12.459
23529W        W83065  21.248  38.944  14.894
23530W        W83066   8.360   6.704   9.499
23531W        W83067  16.146  40.335   4.764
23532W        W83068  31.101  40.476   9.973
23533W        W83069   6.193  40.931  11.119
23534W        W83070  27.031  12.787   2.346
23535W        W83071  27.107   3.394  13.866
23536W        W83072  15.118   5.220   2.192
23537W        W83073  21.166   6.694   2.373
23538W        W83074  11.741  11.730   3.724
23539W        W83075   8.371   1.972  10.415
23540W        W83076  31.072  32.620   2.788
23541W        W83077  19.533   6.877  13.838
23542W        W83078  13.112  11.289  14.876
23543W        W83079  23.556  30.081   0.919
23544W        W83080  35.853  26.547  11.004
23545W        W83081  27.157  38.530   4.816
23546W        W83082  17.638  10.792  11.031
23547W        W83083  12.148  13.614  14.285
23548W        W83084  11.658  19.568   1.862
23549W        W83085  10.287  40.401  11.447
23550W        W83086  14.783  21.140   2.753
23551W        W83087  28.590  35.597   3.251
23552W        W83088  28.934  36.483   3.387
23553W        W83089  11.230  19.083   1.707
23554W        W83090  39.962  40.422  10.982
23555W        W83091  36.098  16.151  14.321
23556W        W83092  37.007   6.906   2.280
23557W        W83093  31.001  24.545  12.417
23558W        W83094  32.980   8.862  13.953
23559W        W83095   5.434  22.583  12.836
23560W        W83096  36.967  29.593  13.428
23561W        W83097  15.135   4.763  12.439
23562W        W83098   8.787  20.219  14.415
23563W        W83099  21.606  44.260  13.892
23564W        W83100  28.155  12.819  12.500
23565W        W83101  10.314  44.766   0.276
23566W        W83102  22.158   9.802  12.473
23567W        W83103  10.231  44.394   5.322
23568W        W83104  40.943   7.770   4.760
23569W        W83105   9.717  15.702  14.895
23570W        W83106   6.873   2.811  11.968
23571W        W83107  26.491  25.165  11.963
23572W        W83108  10.796  34.436  14.944
23573W        W83109  16.164  23.094   1.733
23574W        W83110  43.271  21.656   3.711
23575W        W83111  27.150  39.966   1.283
23576W        W83112  23.710  26.576   2.227
23577W        W83113  32.978  12.769  11.988
23578W        W83114   9.740  33.383   1.214
23579W        W83115  43.449   7.765   4.722
23580W        W83116  36.026  15.271  10.980
23581W        W83117  35.491  15.684   0.736
23582W        W83118  11.169   5.693  11.075
23583W        W83119   9.256   8.759   0.848
23584W        W83120  10.140  24.512   2.886
23585W        W83121  26.471   9.773  13.347
23586W        W83122   8.197   6.892   1.866
23587W        W83123   6.370  16.601   0.259
23588W        W83124  30.068  44.405   3.307
23589W        W83125   2.786  11.225  13.395
23590W        W83126   7.319  34.497  14.509
23591W        W83127  11.755  32.054  10.032
23592W        W83128  14.622   6.750   4.657
23593W        W83129  38.996  26.485  13.014
23594W        W83130   4.320  27.179   2.353
23595W        W83131  34.908   6.285   4.300
23596W        W83132  22.519   4.361   1.771
23597W        W83133   9.384   5.339   3.690
23598W        W83134  30.470  32.047   0.471
23599W        W83135  30.102  19.272   2.865
23600W        W83136  24.135  44.974   3.757
23601W        W83137   8.833  40.329   2.375
23602W        W83138  32.464  19.185  14.410
23603W        W83139  17.775  11.339  11.031
23604W        W83140   4.890  16.276   2.246
23605W        W83141  35.601  28.594   4.833
23606W        W83142  18.270  19.159  13.006
23607W        W83143  18.276  36.468   4.603
23608W        W83144   4.858   7.233  14.502
23609W        W83145  14.249   3.712   3.723
23610W        W83146  11.818  37.500   4.746
23611W        W83147  12.221   4.241  12.018
23612W        W83148  40.410   4.765  13.476
23613W        W83149  10.704  40.374  14.994
23614W        W83150   8.802   3.760  11.939
23615W        W83151  29.979  12.269   4.151
23616W        W83152   2.795   3.919  11.580
23617W        W83153   3.763  11.781  13.000
23618W        W83154  14.164  29.973  14.928
23619W        W83155  43.426   3.249   3.761
23620W        W83156  25.069  37.344   3.295
23621W        W83157   3.378   9.801   0.795
23622W        W83158  34.048  37.869   2.827
23623W        W83159  33.617  38.544  11.415
23624W        W83160   6.904  18.628  11.908
23625W        W83161  23.097  38.517  12.834
23626W        W83162   8.183  16.801  12.489
23627W        W83163  39.815   9.886  13.521
23628W        W83164  21.615   5.787   0.751
23629W        W83165  23.654  12.253   1.274
23630W        W83166  44.456   7.208  14.478
23631W        W83167  27.071   3.764  11.528
23632W        W83168   0.419  31.472   3.215
23633W        W83169   1.959  26.981  12.513
23634W        W83170  10.337  27.638   0.366
23635W        W83171  38.990  17.724   1.218
23636W        W83172   8.178  43.312  11.975
23637W        W83173  31.596  17.574   3.365
23638W        W83174  26.043  20.224  13.841
23639W        W83175  37.946  23.036   2.760
23640W        W83176  41.967  17.746  12.397
23641W        W83177  43.012  41.476   1.220
23642W        W83178  28.979  43.912   1.720
23643W        W83179  34.977  26.520   0.373
23644W        W83180  12.307  27.008   1.389
23645W        W83181  18.100   9.187   0.872
23646W        W83182  41.931  15.206   1.908
23647W        W83183  19.780  36.978   1.761
23648W        W83184  31.554  40.502  11.999
23649W        W83185  35.483  42.349  13.331
23650W        W83186  33.456  10.759   4.729
23651W        W83187  11.139   5.396  11.533
23652W        W83188  34.920  18.652  11.918
23653W        W83189  28.158   0.384  14.875
23654W        W83190   3.275  35.503   2.231
23655W        W83191  20.664  28.129  13.334
23656W        W83192  25.643  16.180  13.875
23657W        W83193  24.206  37.345   0.810
23658W        W83194  40.801  17.151   4.725
23659W        W83195  19.259  10.867  14.824
23660W        W83196  33.026  11.780   2.872
23661W        W83197  13.183  17.679   4.812
23662W        W83198  23.202  41.306  13.058
23663W        W83199  20.168  35.962   0.367
23664W        W83200  37.847  31.550  13.977
23665W        W83201   5.717  10.250   3.380
23666W        W83202   7.283  22.688   0.879
23667W        W83203   7.352  42.432   1.308
23668W        W83204   1.379  32.077  13.464
23669W        W83205   3.887  34.383   4.242
23670W        W83206  20.627   6.354  11.434
23671W        W83207  14.653  41.507  12.420
23672W        W83208  15.634  22.501   0.246
23673W        W83209  35.519  26.590   3.252
23674W        W83210   9.724  32.604  13.496
23675W        W83211  23.019  29.048   0.254
23676W        W83212  24.672  23.223  10.111
23677W        W83213  25.590  28.937   1.730
23678W        W83214  23.106  10.363  14.914
23679W        W83215  36.361  28.107   4.234
23680W        W83216  25.014  35.525   0.875
23681W        W83217  15.732  40.533   1.751
23682W        W83218   8.793  20.605   4.231
23683W        W83219  12.618  38.538  14.439
23684W        W83220  11.333  29.992   3.776
23685W        W83221   3.417   3.882   5.233
23686W        W83222  31.446   5.789  10.517
23687W        W83223  30.077  28.476  14.448
23688W        W83224  22.204   1.262  11.116
23689W        W83225  34.883  15.136  11.098
23690W        W83226   9.391  44.389  10.054
23691W        W83227  17.763  15.093  14.276
23692W        W83228  27.517  40.889   3.718
23693W        W83229  10.703   5.920   0.906
23694W        W83230  27.505  23.633  13.800
23695W        W83231  11.144  17.728   1.864
23696W        W83232   0.488  27.048  12.482
23697W        W83233   2.963  16.610   1.827
23698W        W83234  16.078  35.957  13.889
23699W        W83235  42.921  44.835   1.829
23700W        W83236  10.383  15.784   0.374
23701W        W83237  30.418   1.438  13.950
23702W        W83238   1.477  11.161   0.833
23703W        W83239  30.500  40.835   4.830
23704W        W83240  43.888  29.569  13.457
23705W        W83241  20.690  22.544  11.590
23706W        W83242  31.403   1.309   2.236
23707W        W83243  14.202  21.631  13.536
23708W        W83244  36.006  36.395   3.338
23709W        W83245  31.604  24.192  12.455
23710W        W83246  20.607  11.706  13.318
23711W        W83247  14.627  22.138  14.369
23712W        W83248   2.302   7.266  13.938
23713W        W83249  27.948  13.168   1.749
23714W        W83250  33.927  20.643  11.396
23715W        W83251  44.277  42.970   2.224
23716W        W83252  19.090  42.896  11.592
23717W        W83253  38.931  20.104  14.870
23718W        W83254  34.941  40.022  12.096
23719W        W83255  34.869  11.690  10.575
23720W        W83256  37.869  33.624  10.139
23721W        W83257  19.273  41.429  13.390
23722W        W83258  38.872  14.623   4.660
23723W        W83259  21.712  30.053   3.764
23724W        W83260  39.946  19.545  11.870
23725W        W83261   5.265  27.536  14.760
23726W        W83262  25.136  20.251  12.032
23727W        W83263   0.842  33.482   0.462
23728W        W83264   9.712  31.542   2.213
23729W        W83265  28.606  34.034  11.080
23730W        W83266  36.439  11.298   1.800
23731W        W83267   0.890  33.080  14.460
23732W        W83268  38.827  15.599   4.350
23733W        W83269  25.668  43.319  10.434
23734W        W83270  43.915  42.975  13.361
23735W        W83271   0.761   5.407  12.854
23736W        W83272  35.980   7.262  14.367
23737W        W83273  24.071  29.486  12.829
23738W        W83274   7.324  10.226  11.118
23739W        W83275  32.636  28.443  12.083
23740W        W83276  15.231  38.340  11.913
23741W        W83277   3.269   6.354  13.535
23742W        W83278  42.875  21.250   3.645
23743W        W83279   2.749  12.794  14.471
23744W        W83280   3.749  40.515  11.384
23745W        W83281  43.012   5.299   0.869
23746W        W83282  22.679  34.369  13.390
23747W        W83283  39.531  43.462  12.549
23748W        W83284  13.134   0.977   2.368
23749W        W83285  11.744  10.204   3.675
23750W        W83286  41.840  11.229  11.501
23751W        W83287  42.402  41.035   0.274
23752W        W83288  30.085   4.369   0.836
23753W        W83289  16.182   2.358  13.403
23754W        W83290  37.528  30.585   2.261
23755W        W83291  25.203  44.880   1.255
23756W        W83292  11.706   7.316  12.546
23757W        W83293  39.496  42.333  14.334
23758W        W83294  12.317  25.996   5.293
23759W        W83295  27.687  26.104   4.613
23760W        W83296   3.854  18.641   0.767
23761W        W83297  29.462   2.882  13.898
23762W        W83298  39.993   3.823   4.718
23763W        W83299  25.161  28.048  10.566
23764W        W83300  19.225   8.244   4.606
23765W        W83301  42.995  37.920   3.351
23766W        W83302  39.360  17.169   3.841
23767W        W83303  15.683  40.845  12.954
23768W        W83304  10.138  43.826  12.012
23769W        W83305   2.730  15.799  11.075
23770W        W83306  20.142  42.392   4.279
23771W        W83307  40.429   7.290   2.678
23772W        W83308   4.382  28.562  11.074
23773W        W83309   7.870  33.119  14.007
23774W        W83310   1.768  37.988   4.724
23775W        W83311  42.482  41.385   1.742
23776W        W83312  14.123  18.080  12.058
23777W        W83313  40.038  17.101   1.727
23778W        W83314  21.719  26.048  13.432
23779W        W83315  34.512  34.000  10.991
23780W        W83316   9.829  40.960  14.318
23781W        W83317  20.205   6.899   0.461
23782W        W83318  26.955  31.939  12.532
23783W        W83319  40.351  44.908   0.255
23784W        W83320  25.094   1.904   2.762
23785W        W83321  23.085  39.934   2.197
23786W        W83322  29.172  36.359   0.798
23787W        W83323  32.076  44.992   1.311
23788W        W83324  30.913  25.511  12.347
23789W        W83325  30.603  30.163   1.212
23790W        W83326   9.152  12.225   2.714
23791W        W83327  28.007  11.822   5.268
23792W        W83328  28.945   6.797  14.837
23793W        W83329  38.553  39.030  10.125
23794W        W83330  37.018  36.527  12.450
23795W        W83331  22.547  41.799   0.931
23796W        W83332  33.982  41.995   0.888
23797W        W83333  31.992  36.403   1.712
23798W        W83334  35.984  22.735   0.408
23799W        W83335  25.704  28.057  13.357
23800W        W83336  41.418  26.509  11.497
23801W        W83337  19.709  35.934  12.096
23802W        W83338   8.698  42.982  13.866
23803W        W83339  18.750  14.712  10.586
23804W        W83340  10.863  30.578   0.413
23805W        W83341  26.632  16.739   0.909
23806W        W83342  13.655  37.028  10.981
23807W        W83343  16.769  33.577  11.947
23808W        W83344  25.064  38.423   9.611
23809W        W83345  10.818  20.240  11.579
23810W        W83346  15.809  15.657  14.876
23811W        W83347  40.952  29.031  10.588
23812W        W83348  15.320   1.742  11.528
23813W        W83349  17.671   9.331   2.300
23814W        W83350  35.447  11.255  11.564
23815W        W83351  13.759  30.957   0.356
23816W        W83352  15.292  31.568  10.579
23817W        W83353  43.978  34.578   3.683
23818W        W83354  33.928  13.735  14.338
23819W        W83355  38.891  43.433  10.570
23820W        W83356  30.580  38.902  11.595
23821W        W83357  11.672  18.617   2.876
23822W        W83358  28.451  17.775  13.333
23823W        W83359  36.937  39.524  10.897
23824W        W83360  29.172  22.027  11.013
23825W        W83361  30.974  38.970   3.760
23826W        W83362  19.642  42.453   0.868
23827W        W83363  21.694   7.726   0.471
23828W        W83364  28.606   7.669   0.946
23829W        W83365   1.953   6.297   0.837
23830W        W83366  42.485   7.327   3.811
23831W        W83367  40.382  11.129  10.643
23832W        W83368  12.288  42.380  11.985
23833W        W83369  16.263  41.042   0.270
23834W        W83370  17.609  28.036  11.419
23835W        W83371  35.074  36.092  14.847
23836W        W83372   6.335   1.463   2.291
23837W        W83373  10.813   4.699  12.865
23838W        W83374   7.312   0.974   0.472
23839W        W83375  15.721  34.392   1.215
23840W        W83376  40.046  43.497  11.407
23841W        W83377  21.096  28.975   4.268
23842W        W83378  11.804   9.352   5.776
23843W        W83379  27.107  14.803   0.346
23844W        W83380  14.099  13.235  10.487
23845W        W83381  36.480   0.283   1.791
23846W        W83382  11.780  31.467   1.413
23847W        W83383   9.190  20.691   3.353
23848W        W83384  39.978  30.060  13.844
23849W        W83385  15.325   5.305  14.356
23850W        W83386   6.217  34.533  12.006
23851W        W83387  42.370  25.116   3.653
23852W        W83388   4.807   0.815  10.897
23853W        W83389  10.798  13.626  13.511
23854W        W83390  20.059  14.761  11.411
23855W        W83391  44.311  26.050   3.329
23856W        W83392  32.922  18.068  11.575
23857W        W83393  15.241  40.495  11.567
23858W        W83394  32.082  37.574  10.469
23859W        W83395  19.181   6.240   3.870
23860W        W83396  43.788  23.654   9.968
23861W        W83397  33.943  13.790  13.376
23862W        W83398  20.546   8.306  14.390
23863W        W83399  34.606   3.955  10.902
23864W        W83400  27.968  33.583   2.880
23865W        W83401   5.256  30.918  10.624
23866W        W83402   6.860  27.642  14.765
23867W        W83403  38.843  39.869  14.290
23868W        W83404  27.146   0.982  13.842
23869W        W83405  13.763  10.751   1.865
23870W        W83406  29.089  23.118  12.858
23871W        W83407  25.170   0.905  13.902
23872W        W83408  41.981  19.629   3.279
23873W        W83409  13.700   3.335  13.013
23874W        W83410   6.825  12.336   4.274
23875W        W83411  19.724  16.079  14.359
23876W        W83412  13.136  11.155   2.785
23877W        W83413  13.325  30.652   5.224
23878W        W83414  22.164  16.665  11.987
23879W        W83415  31.602  24.050   3.184
23880W        W83416  41.902   4.436   2.764
23881W        W83417  42.851   1.247  13.827
23882W        W83418   4.225  10.876  13.362
23883W        W83419   1.245   5.920  13.915
23884W        W83420  29.659  16.650   0.925
23885W        W83421  12.206  30.118   4.695
23886W        W83422  28.472  25.504   0.798
23887W        W83423  42.404  19.273   2.335
23888W        W83424  17.687  33.061  13.062
23889W        W83425   3.870  26.511  12.060
23890W        W83426  25.110  43.445  10.634
23891W        W83427   0.383   3.406  13.537
23892W        W83428   5.431  22.704  13.319
23893W        W83429  30.163   1.376  14.890
23894W        W83430  41.796  35.549  11.412
23895W        W83431   0.826  33.977  12.056
23896W        W83432  13.695  23.685   3.183
23897W        W83433   5.863  40.998  11.016
23898W        W83434   2.319  28.074   5.174
23899W        W83435   7.845  11.244   2.370
23900W        W83436   4.404  34.419  13.973
23901W        W83437  17.259  18.713   0.760
23902W        W83438  18.594  40.498   0.370
23903W        W83439  42.899  25.061  10.409
23904W        W83440  43.820  39.451   2.686
23905W        W83441  13.108  30.617  13.029
23906W        W83442  14.770  21.021   3.781
23907W        W83443  31.128  43.977   2.807
23908W        W83444   8.885  42.337  13.829
23909W        W83445  27.100  32.054   4.117
23910W        W83446  34.105   4.847  10.029
23911W        W83447  23.009   0.391   4.715
23912W        W83448  30.997  30.581   0.324
23913W        W83449  11.673   7.411  11.929
23914W        W83450  13.599  19.607   1.925
23915W        W83451  13.804  31.140  14.977
23916W        W83452   1.893  10.265   2.772
23917W        W83453   1.882  26.493  11.021
23918W        W83454  39.498  30.638   1.728
23919W        W83455   4.321  10.693   1.230
23920W        W83456  28.657  35.551  10.571
23921W        W83457  13.330  23.572  11.126
23922W        W83458  28.934  34.968  10.440
23923W        W83459  41.411  11.809   4.826
23924W        W83460  13.232  41.436   3.308
23925W        W83461  29.497   8.219  12.874
23926W        W83462   6.921  12.775   4.222
23927W        W83463   0.386  27.630   3.214
23928W        W83464   5.759  13.817   3.857
23929W        W83465   0.285  27.023  11.936
23930W        W83466  19.106  18.255  12.523
23931W        W83467  38.404  40.032   1.920
23932W        W83468  12.129  42.905  14.906
23933W        W83469  12.655  15.709  14.900
23934W        W83470  14.116  18.053   0.448
23935W        W83471  31.136  38.570   1.362
23936W        W83472  15.720  31.045  13.962
23937W        W83473  25.559   9.889  12.450
23938W        W83474  37.881   9.248  10.936
23939W        W83475  35.480   5.425   0.352
23940W        W83476  36.425  19.586  11.926
23941W        W83477  27.141  25.174   5.118
23942W        W83478  16.143  29.149   3.691
23943W        W83479  34.955  21.081  11.551
23944W        W83480  19.626  11.654  10.411
23945W        W83481  44.386  22.657  13.418
23946W        W83482  43.018   9.656  14.956
23947W        W83483  41.484  13.627  12.037
23948W        W83484   5.735  30.492  13.366
23949W        W83485  34.105   0.909  13.328
23950W        W83486  18.293  26.457  13.346
23951W        W83487   3.334  37.038  11.060
23952W        W83488  44.898  36.479   2.842
23953W        W83489  24.172  33.126   0.942
23954W        W83490  25.197  14.747   0.439
23955W        W83491   2.272   3.837   2.233
23956W        W83492  18.061  42.482   0.273
23957W        W83493   6.336  29.050   0.777
23958W        W83494  26.008  27.520   4.710
23959W        W83495   8.821   4.438   3.247
23960W        W83496  14.184   6.425   3.772
23961W        W83497   0.829   5.368   4.222
23962W        W83498  27.062  41.013   4.658
23963W        W83499   3.945   1.938   2.792
23964W        W83500  19.699   8.749   3.703
23965W        W83501  23.998   0.906  12.034
23966W        W83502  42.359  27.166  13.911
23967W        W83503  25.581   0.262   1.322
23968W        W83504   7.780   5.713  10.926
23969W        W83505  16.744  20.153   1.857
23970W        W83506  43.001  29.023  12.349
23971W        W83507   0.979  44.402   3.718
23972W        W83508  22.701  28.664  12.507
23973W        W83509  35.591  41.855  12.912
23974W        W83510  12.329  17.254   0.377
23975W        W83511   4.224  13.312  14.972
23976W        W83512  33.974  23.088   0.331
23977W        W83513   6.213  19.568   3.234
23978W        W83514  25.965  39.935  14.925
23979W        W83515  18.223  13.783  11.576
23980W        W83516  12.352  29.600  12.971
23981W        W83517  18.158  36.451  13.033
23982W        W83518  21.048  13.259   1.305
23983W        W83519  23.525  24.108   0.784
23984W        W83520  29.476  27.606   3.204
23985W        W83521  31.946  24.499   3.349
23986W        W83522   5.826  10.786  12.395
23987W        W83523  35.037  35.921   4.290
23988W        W83524  18.690  29.584  12.428
23989W        W83525  24.019  19.624  13.518
23990W        W83526  35.075   4.380  14.838
23991W        W83527  31.151  38.890  10.898
23992W        W83528   4.783   2.448   2.805
23993W        W83529   3.234   2.770  13.409
23994W        W83530  43.998  34.046  14.837
23995W        W83531  27.664  40.321   1.792
23996W        W83532  43.396  12.841  12.482
23997W        W83533  38.916   2.471   1.403
23998W        W83534   9.832  11.822   4.247
23999W        W83535   5.341   0.341   2.713
24000W        W83536  28.465  42.017  12.532
24001W        W83537  10.814  22.615   2.314
24002W        W83538  32.445  24.694  14.885
24003W        W83539  24.553  27.029   4.132
24004W        W83540  39.514  31.114  12.027
24005W        W83541  14.678  26.678   2.262
24006W        W83542  14.287  37.928  14.325
24007W        W83543  42.442  23.592   3.749
24008W        W83544  36.869   2.324  13.378
24009W        W83545  32.982   7.256   3.724
24010W        W83546  10.353   8.232  12.048
24011W        W83547   8.303  37.050   3.704
24012W        W83548   8.742  16.759   4.154
24013W        W83549  35.081   8.284  11.522
24014W        W83550   6.296   0.450   5.147
24015W        W83551  39.859  10.325   0.404
24016W        W83552  41.976  30.559  14.378
24017W        W83553  44.870  27.942  10.978
24018W        W83554  42.819  13.845   3.834
24019W        W83555   6.744  15.690  13.527
24020W        W83556   5.345  25.468  12.474
24021W        W83557  22.558   6.908   4.118
24022W        W83558  13.324  34.479  13.796
24023W        W83559   4.723   5.705   2.886
24024W        W83560  20.716  13.778   4.698
24025W        W83561  33.071  17.696   3.705
24026W        W83562  40.889  36.349   4.239
24027W        W83563  17.086  26.673   3.344
24028W        W83564   2.961   5.410  14.791
24029W        W83565   3.863  43.272  12.473
24030W        W83566   9.884  18.655   1.764
24031W        W83567  16.082  39.815   0.382
24032W        W83568  28.144   8.225   1.440
24033W        W83569   1.904  32.971   4.686
24034W        W83570  39.858  30.909  14.392
24035W        W83571  12.242  19.255   4.335
24036W        W83572  29.948   6.893   3.373
24037W        W83573  43.833  10.859  13.498
24038W        W83574   2.230  19.672  13.352
24039W        W83575  30.077   4.825   0.459
24040W        W83576  40.352   0.860  11.121
24041W        W83577   5.884  31.413  13.397
24042W        W83578  19.226  39.331  11.446
24043W        W83579  28.935  19.064   0.824
24044W        W83580  34.613  42.457   1.250
24045W        W83581   4.931   4.214   2.799
24046W        W83582  15.820  33.035  13.523
24047W        W83583  16.308  14.225  10.454
24048W        W83584  39.354  29.492   1.852
24049W        W83585  14.115  13.269   2.728
24050W        W83586  40.545  33.085   4.253
24051W        W83587  18.157   9.869  11.460
24052W        W83588  41.973  10.745  13.807
24053W        W83589  21.211  33.422  11.453
24054W        W83590  39.454   5.788  13.975
24055W        W83591  26.544  21.669  10.462
24056W        W83592  42.777  18.594  11.531
24057W        W83593   0.314  14.803  12.565
24058W        W83594  43.491   8.718  14.397
24059W        W83595  22.745  39.041   0.788
24060W        W83596  27.038   5.796   9.987
24061W        W83597  31.136  16.798   3.809
24062W        W83598  41.421  36.525  10.989
24063W        W83599   0.451  32.962  11.921
24064W        W83600  34.876  33.529   2.798
24065W        W83601  22.189  16.256  13.810
24066W        W83602  34.581  38.393   4.600
24067W        W83603  30.510   4.830   2.727
24068W        W83604  40.413   5.751  12.355
24069W        W83605  18.774   3.263  14.492
24070W        W83606  33.102  28.186   1.809
24071W        W83607   3.939   6.365  10.577
24072W        W83608  21.051  14.643   1.443
24073W        W83609  33.544  10.330  12.344
24074W        W83610  18.120  42.367  10.433
24075W        W83611  44.293  34.483  13.017
24076W        W83612   5.221  41.834   0.262
24077W        W83613  27.147  44.296   4.619
24078W        W83614  27.105  38.341  13.339
24079W        W83615   1.254  19.105  13.414
24080W        W83616   2.867  23.026   2.256
24081W        W83617  37.956  15.222   2.321
24082W        W83618  41.448   4.755  11.555
24083W        W83619  12.752  16.580  12.528
24084W        W83620  25.578   6.886  12.554
24085W        W83621  43.789  36.084  10.415
24086W        W83622   3.280  44.440  11.107
24087W        W83623  34.875  34.097   1.363
24088W        W83624  11.159  33.057  14.971
24089W        W83625  14.222  10.142   4.623
24090W        W83626  17.295  31.092   1.362
24091W        W83627  15.579  27.685   0.355
24092W        W83628  42.417  39.524   1.717
24093W        W83629  44.365   8.351   2.179
24094W        W83630  30.581  16.103  13.524
24095W        W83631  30.514  21.631   0.846
24096W        W83632   5.841  29.106   1.707
24097W        W83633   4.762  37.841  14.957
24098W        W83634  12.224  18.615   2.204
24099W        W83635   1.467   8.757  13.376
24100W        W83636  42.399  15.597  10.991
24101W        W83637  42.028   5.282   2.786
24102W        W83638  42.342  41.501  13.960
24103W        W83639  25.713   4.244  11.083
24104W        W83640   0.772  26.693   1.918
24105W        W83641  21.157  28.465  13.868
24106W        W83642  21.562  41.009   2.790
24107W        W83643   2.825   0.260  13.846
24108W        W83644   9.190  27.122   1.290
24109W        W83645   8.234  42.513   1.872
24110W        W83646   7.792   8.224   3.728
24111W        W83647  31.619  20.227   1.342
24112W        W83648  11.263  36.015  10.505
24113W        W83649  10.686  18.132   1.742
24114W        W83650   1.822   3.312  13.031
24115W        W83651  35.980   6.867   0.337
24116W        W83652  11.155  28.637   2.341
24117W        W83653  20.565   2.279   2.312
24118W        W83654  44.909  11.693   2.824
24119W        W83655  30.107  40.487   4.287
24120W        W83656  14.776  18.060   5.204
24121W        W83657  23.617  13.648  14.475
24122W        W83658  33.998  34.434  13.940
24123W        W83659  10.202  42.822   4.779
24124W        W83660  13.212  17.200  10.984
24125W        W83661  17.300   1.850  11.501
24126W        W83662   4.308  12.352   1.236
24127W        W83663  28.998  21.682   0.434
24128W        W83664  43.818  29.138  14.345
24129W        W83665  25.999  32.611   1.828
24130W        W83666  39.505  12.241   0.921
24131W        W83667  32.432  27.968  12.959
24132W        W83668   9.185  36.589   2.198
24133W        W83669   0.427  14.102   2.209
24134W        W83670  22.680  32.465  12.462
24135W        W83671  10.350   3.332   2.343
24136W        W83672  37.412  22.055   0.763
24137W        W83673  39.356  17.757   4.694
24138W        W83674  44.818  10.686   3.160
24139W        W83675  36.580   6.835  14.500
24140W        W83676  32.114  10.822  14.468
24141W        W83677  37.372  11.157  12.578
24142W        W83678  15.296   7.352  13.503
24143W        W83679  11.679   8.782   1.230
24144W        W83680  22.210  44.912   2.758
24145W        W83681  17.564  44.813   4.200
24146W        W83682  17.186   7.717   0.395
24147W        W83683  25.036  25.967   3.705
24148W        W83684  42.397  43.014  14.785
24149W        W83685  32.555  31.645   0.746
24150W        W83686  36.378   4.359   0.780
24151W        W83687  18.067   2.960  13.037
24152W        W83688  14.663  44.329  11.040
24153W        W83689   8.667  37.451  14.276
24154W        W83690   5.819  37.537   1.293
24155W        W83691  35.498  28.100  11.896
24156W        W83692  10.289  44.390   3.282
24157W        W83693  14.826   2.371  12.045
24158W        W83694  41.891  40.336   4.194
24159W        W83695  18.778  18.773   2.273
24160W        W83696  28.073  38.974  12.966
24161W        W83697  39.378   0.461  13.467
24162W        W83698  28.456  22.217  10.568
24163W        W83699  43.361  10.838   5.277
24164W        W83700  32.620  41.022  10.462
24165W        W83701  17.134   4.820  10.080
24166W        W83702  12.346   5.309   4.693
24167W        W83703  26.039   8.721   2.888
24168W        W83704  22.097  23.614   1.765
24169W        W83705  43.813  13.124  13.876
24170W        W83706  20.161  42.463  10.523
24171W        W83707  40.871   9.360  11.464
24172W        W83708  17.563  21.048   2.228
24173W        W83709   2.367   3.356  14.801
24174W        W83710  15.765  21.648   0.385
24175W        W83711  40.855  14.140   1.795
24176W        W83712  13.812  31.966  12.027
24177W        W83713   4.340  38.511  14.794
24178W        W83714  27.185  28.631   1.448
24179W        W83715  39.976  35.900   2.744
24180W        W83716  18.676  29.485   3.230
24181W        W83717  16.296  34.565  11.092
24182W        W83718  41.292   0.800  10.892
24183W        W83719  28.174  44.831   1.305
24184W        W83720  34.906  31.952  10.120
24185W        W83721  29.585   2.260   0.828
24186W        W83722  13.626  25.102  13.517
24187W        W83723  22.103   8.237  12.354
24188W        W83724  19.738  38.329   1.244
24189W        W83725   2.359  20.192  11.464
24190W        W83726  27.573  29.574  10.477
24191W        W83727  30.649  42.341   1.718
24192W        W83728  16.807  43.798   3.653
24193W        W83729  16.739   5.350   2.289
24194W        W83730   8.273   8.758  10.483
24195W        W83731  18.269   6.859   2.361
24196W        W83732  25.158  10.294   0.754
24197W        W83733  44.942   6.373   4.260
24198W        W83734  22.242  23.518   1.310
24199W        W83735  33.078  18.722   0.248
24200W        W83736  11.315  32.934  14.289
24201W        W83737  15.642  15.663  10.096
24202W        W83738   6.792   9.313   3.753
24203W        W83739  15.734  14.726   3.657
24204W        W83740  27.071  20.745  12.504
24205W        W83741   5.423  36.542   1.716
24206W        W83742  32.497  26.603  14.849
24207W        W83743  13.156  30.912   1.715
24208W        W83744  31.408  30.100  12.388
24209W        W83745  17.199   4.755   5.154
24210W        W83746  18.156  15.800   2.326
24211W        W83747  29.102   5.770  13.402
24212W        W83748  12.297  22.239   0.872
24213W        W83749  17.271  15.712  11.916
24214W        W83750  32.013  18.217  12.935
24215W        W83751   0.945  10.869  13.482
24216W        W83752  30.967   8.888  13.981
24217W        W83753  40.989  11.184  14.404
24218W        W83754  43.391  27.085  14.782
24219W        W83755  30.464  21.157  14.833
24220W        W83756  19.742  11.182   1.393
24221W        W83757  13.607   9.678   0.964
24222W        W83758  35.586  30.431  13.357
24223W        W83759  37.846  15.683   3.722
24224W        W83760  20.168  13.798   3.272
24225W        W83761  42.910  41.398   3.300
24226W        W83762  34.468  19.112  13.010
24227W        W83763   8.329  20.191  12.562
24228W        W83764  33.969   3.773  14.818
24229W        W83765   7.223  13.328  12.943
24230W        W83766  17.674   3.243   1.306
24231W        W83767  18.091   8.674   0.296
24232W        W83768   7.894  26.080   5.741
24233W        W83769  17.166   9.330   2.821
24234W        W83770  30.587  42.819   0.463
24235W        W83771  16.595  42.823   1.361
24236W        W83772  27.954  40.315  12.396
24237W        W83773  39.046  37.870   2.357
24238W        W83774  15.094   8.277  10.136
24239W        W83775   5.328  20.085   0.919
24240W        W83776   7.678   8.742  11.452
24241W        W83777  23.129  44.891   3.705
24242W        W83778  41.800  40.900   0.736
24243W        W83779  30.455   8.302   4.328
24244W        W83780  27.466  25.036   1.301
24245W        W83781  21.164   7.324  13.046
24246W        W83782  42.416   6.789   4.686
24247W        W83783  24.110  44.874  12.928
24248W        W83784  25.695  38.861   2.276
24249W        W83785   7.274  26.082  12.845
24250W        W83786  17.127  40.906  13.038
24251W        W83787  34.109  11.350   0.799
24252W        W83788  12.625  38.525  12.887
24253W        W83789   5.229  37.034  12.872
24254W        W83790   1.255  32.018   3.841
24255W        W83791  37.007  37.022  14.431
24256W        W83792  40.928  43.004  12.827
24257W        W83793  10.170   0.920  11.449
24258W        W83794  38.418   1.765  11.958
24259W        W83795   5.828   4.886   1.419
24260W        W83796   1.443  43.326  14.895
24261W        W83797   8.251  43.803  14.828
24262W        W83798  24.684  17.250  10.574
24263W        W83799  16.241  11.793   4.777
24264W        W83800  36.395   9.737  12.877
24265W        W83801   1.831  12.691  12.394
24266W        W83802  16.089  19.195   2.878
24267W        W83803  21.583  38.056  12.537
24268W        W83804  39.873  18.268   2.678
24269W        W83805  22.650  25.600   2.418
24270W        W83806  20.259  36.455  13.804
24271W        W83807  11.816  10.774   0.824
24272W        W83808   2.335   7.764  14.813
24273W        W83809  26.190  24.165   1.239
24274W        W83810  20.036   7.854  10.918
24275W        W83811  19.636  20.232   1.789
24276W        W83812   1.241   7.700   1.885
24277W        W83813  37.994   4.807  14.030
24278W        W83814   9.195   6.793   2.787
24279W        W83815  13.600  38.549  11.435
24280W        W83816   8.194  34.913  11.861
24281W        W83817  35.601  32.980  13.807
24282W        W83818  41.909  24.994   4.278
24283W        W83819  20.082   7.815  12.532
24284W        W83820  22.558  38.062   0.778
24285W        W83821   5.319  29.147  13.365
24286W        W83822  36.022  37.860  12.415
24287W        W83823   0.749   1.475  10.921
24288W        W83824  26.077  24.573  12.436
24289W        W83825   6.359  36.447   0.866
24290W        W83826  28.439  39.350   0.258
24291W        W83827  35.452  38.039   1.401
24292W        W83828  19.269  34.116   0.430
24293W        W83829  20.720   1.761   3.863
24294W        W83830  31.925  19.221   3.785
24295W        W83831  30.980  31.432   0.853
24296W        W83832  16.105  28.122   3.630
24297W        W83833   8.662   9.718   4.614
24298W        W83834  21.517  39.983  11.602
24299W        W83835  30.935  29.579   0.437
24300W        W83836   7.259  24.495   3.779
24301W        W83837  28.073  30.634   4.836
24302W        W83838  27.047  15.182   2.308
24303W        W83839  19.155  42.303  12.480
24304W        W83840  13.215  31.010  11.856
24305W        W83841  31.153  28.066   3.346
24306W        W83842  28.092   4.355  11.477
24307W        W83843   4.793  35.554   4.664
24308W        W83844   7.409   5.200   2.850
24309W        W83845  13.748  18.069   0.953
24310W        W83846  11.372   5.885  13.817
24311W        W83847  38.985  26.699   2.680
24312W        W83848   1.460   8.390   4.113
24313W        W83849  28.442  39.356  14.500
24314W        W83850  37.387  23.716  10.420
24315W        W83851  35.411  38.987   1.719
24316W        W83852  43.440  30.634  14.412
24317W        W83853  24.200  13.755  11.439
24318W        W83854  32.481  18.076  12.427
24319W        W83855  12.856   0.253   3.208
24320W        W83856  39.900  32.014  13.023
24321W        W83857  19.731  41.414   1.745
24322W        W83858  18.754  16.288  12.849
24323W        W83859  32.460  38.859  10.922
24324W        W83860  18.687  31.004  13.948
24325W        W83861  33.614  26.989   0.259
24326W        W83862  12.626  29.972   2.862
24327W        W83863  37.395  28.453  13.532
24328W        W83864  34.064  28.962   2.227
24329W        W83865  20.259  43.899  11.059
24330W        W83866  15.722  17.168   0.802
24331W        W83867  41.988  40.313   0.947
24332W        W83868  11.757  22.553   1.325
24333W        W83869  42.380  31.540   1.408
24334W        W83870  29.015  17.063  11.580
24335W        W83871   5.345  22.559  11.895
24336W        W83872  40.388  34.517   3.308
24337W        W83873  31.135  23.708   2.346
24338W        W83874  38.863  35.501   1.226
24339W        W83875  25.067   3.455   0.275
24340W        W83876   8.751  19.754  10.506
24341W        W83877  26.148  44.911   4.742
24342W        W83878  10.863  28.453  13.531
24343W        W83879  26.018  24.133  12.048
24344W        W83880   2.233   9.769  10.596
24345W        W83881   5.392   4.239   4.618
24346W        W83882  37.960   3.872  12.379
24347W        W83883   7.750   9.729  13.800
24348W        W83884  23.991  16.108  13.917
24349W        W83885   1.431  21.119  14.347
24350W        W83886  39.880  34.927  10.595
24351W        W83887  25.166  42.416  12.548
24352W        W83888  23.191  20.636  10.452
24353W        W83889  35.402   9.285   1.312
24354W        W83890  28.094  15.765  13.351
24355W        W83891  43.870  26.496  14.834
24356W        W83892  23.685  33.084   1.780
24357W        W83893  38.891  33.395   3.820
24358W        W83894  19.564  11.670  13.850
24359W        W83895  19.157   3.784  12.381
24360W        W83896  32.400  25.686   0.365
24361W        W83897  40.868  44.276  12.434
24362W        W83898   3.741   9.256  13.517
24363W        W83899  29.460  15.232  13.006
24364W        W83900  28.031  19.757  12.957
24365W        W83901   3.814  44.759   2.219
24366W        W83902   8.313  31.587   4.602
24367W        W83903  10.268  44.936  13.044
24368W        W83904  33.453  12.352   2.232
24369W        W83905  13.138  12.825  13.874
24370W        W83906  12.857  33.101   0.317
24371W        W83907   5.207  21.252   1.337
24372W        W83908  18.065   1.414  12.960
24373W        W83909  41.033  33.458   4.623
24374W        W83910  17.177  29.519   0.828
24375W        W83911  22.039  27.514   0.470
24376W        W83912  35.453   3.738   3.837
24377W        W83913   9.810  31.563   1.223
24378W        W83914   7.848  21.129  10.919
24379W        W83915  12.856  33.075   2.287
24380W        W83916  19.258  29.099   4.791
24381W        W83917   7.271  44.978  11.930
24382W        W83918   2.309  14.167  10.466
24383W        W83919  12.804  42.436   0.829
24384W        W83920  16.174  13.800  10.452
24385W        W83921  15.282  11.265  12.057
24386W        W83922  12.322   3.798  14.451
24387W        W83923  16.112  42.846  11.058
24388W        W83924  31.579  13.668   0.285
24389W        W83925  42.472  44.403  14.823
24390W        W83926   2.437  38.484  12.037
24391W        W83927  12.256   7.836  12.559
24392W        W83928  15.096  22.154   4.256
24393W        W83929  24.051  31.038   3.678
24394W        W83930  17.675  42.946   1.426
24395W        W83931  17.776  30.494   0.354
24396W        W83932  38.874   8.764  14.331
24397W        W83933  21.205   0.835   5.099
24398W        W83934  13.162  44.421  14.868
24399W        W83935  40.497  37.945  13.988
24400W        W83936  19.079  32.429   3.744
24401W        W83937  43.427  16.227   0.470
24402W        W83938  13.133  44.343  10.488
24403W        W83939   9.366   4.918   2.248
24404W        W83940  39.508  33.491  10.897
24405W        W83941  39.523   1.287   0.948
24406W        W83942  43.467  21.632   1.377
24407W        W83943   3.883   7.832   0.382
24408W        W83944   4.403  30.972   4.352
24409W        W83945   4.709   9.281  13.859
24410W        W83946   2.405  35.529   1.914
24411W        W83947  21.026  33.561  13.532
24412W        W83948  39.947  20.166  13.348
24413W        W83949   1.443   2.912   0.834
24414W        W83950   0.840   8.217  14.955
24415W        W83951   5.351  29.948  12.525
24416W        W83952  23.052   9.153  10.973
24417W        W83953  40.008  20.745  10.605
24418W        W83954  31.503  14.226   2.781
24419W        W83955   7.689   5.243   0.385
24420W        W83956  19.760   1.420  14.429
24421W        W83957   5.289   7.735  14.845
24422W        W83958  21.674   9.737   2.295
24423W        W83959  31.047  30.919   4.217
24424W        W83960  39.944  39.381  11.547
24425W        W83961  27.565  11.241  12.570
24426W        W83962  19.703   4.918   5.107
24427W        W83963  12.224   1.810   1.278
24428W        W83964  42.877   2.389  13.407
24429W        W83965  23.516   3.294  13.352
24430W        W83966  14.746  26.580  14.001
24431W        W83967  28.504  25.569   1.313
24432W        W83968  34.537  21.719   4.806
24433W        W83969  19.620  28.478  14.365
24434W        W83970  13.672  15.174  10.452
24435W        W83971  19.711  26.069   4.791
24436W        W83972  21.089  26.667  14.321
24437W        W83973  28.608  21.196  12.919
24438W        W83974  24.216  25.625  14.833
24439W        W83975  31.520  22.615  12.440
24440W        W83976  19.760  22.052  12.892
24441W        W83977  28.505  29.013   3.384
24442W        W83978   8.880  42.782   2.875
24443W        W83979  11.679  28.026   4.659
24444W        W83980  18.683  23.216   0.267
24445W        W83981  43.969  18.236  11.050
24446W        W83982  42.974   6.702  10.558
24447W        W83983   7.210  35.897  12.379
24448W        W83984  19.716  30.495  14.986
24449W        W83985  37.442  24.996  12.554
24450W        W83986  15.804  35.970   1.236
24451W        W83987  42.800  22.572  13.054
24452W        W83988   8.697   7.865  13.395
24453W        W83989  25.152   9.391   1.721
24454W        W83990  21.519  31.447  14.476
24455W        W83991   4.226  37.488   1.917
24456W        W83992  10.274  38.933   0.756
24457W        W83993  43.393  40.513   3.210
24458W        W83994  36.007  12.644  14.441
24459W        W83995  27.040  30.105   3.260
24460W        W83996  29.112  11.198  12.824
24461W        W83997  26.082  16.758   3.188
24462W        W83998  42.286  15.600   1.816
24463W        W83999  33.400  29.471   5.260
24464W        W84000  14.758  10.330   3.366
24465W        W84001   0.968  11.326  11.886
24466W        W84002  33.074  43.501   4.788
24467W        W84003   5.872   4.364  12.839
24468W        W84004  42.926   4.825  12.865
24469W        W84005  23.190   3.277   1.771
24470W        W84006   1.915  38.851   2.744
24471W        W84007   5.240   8.211  14.433
24472W        W84008  25.208  31.603   0.877
24473W        W84009   5.358  41.524  13.500
24474W        W84010  27.032  37.424   3.638
24475W        W84011   1.871  21.033   3.638
24476W        W84012  38.488  21.203   3.282
24477W        W84013  40.311  14.701  11.543
24478W        W84014  20.216   9.161   1.865
24479W        W84015  37.875  43.822  13.897
24480W        W84016  12.776  44.272  11.592
24481W        W84017   0.845  27.686   0.472
24482W        W84018  28.638  31.134  14.851
24483W        W84019  30.597   5.315  12.921
24484W        W84020  34.014   0.282   0.924
24485W        W84021  24.065  26.459   4.303
24486W        W84022   3.396  18.583  14.864
24487W        W84023   0.959   5.849   2.697
24488W        W84024  44.361  26.681   4.300
24489W        W84025  40.413   3.386   1.247
24490W        W84026  10.242  44.362  14.288
24491W        W84027  41.379  42.947   4.205
24492W        W84028  22.232  37.407   3.193
24493W        W84029  41.442  11.683   9.525
24494W        W84030  38.065  20.709   0.948
24495W        W84031  18.077  40.013   2.357
24496W        W84032  13.835  35.536   2.811
24497W        W84033  42.924   0.378  14.426
24498W        W84034  18.702  43.878  14.018
24499W        W84035   6.752  20.657   3.241
24500W        W84036  38.828   3.222   2.388
24501W        W84037  38.369  37.367   2.205
24502W        W84038  30.499  31.137   4.761
24503W        W84039  11.678  21.202  12.945
24504W        W84040  22.127  15.727   0.451
24505W        W84041  26.610  36.592   3.318
24506W        W84042  44.395   7.358  12.910
24507W        W84043   8.840  44.918   4.633
24508W        W84044  25.210  21.598  14.396
24509W        W84045   5.781   4.862  10.541
24510W        W84046  29.459  41.012  14.293
24511W        W84047  35.985  15.662   2.325
24512W        W84048  14.774   3.404   4.604
24513W        W84049  25.657   5.373  10.000
24514W        W84050  35.027  37.420  11.887
24515W        W84051  24.587  13.663  11.598
24516W        W84052  33.616  27.067  12.554
24517W        W84053  10.668  24.491   1.418
24518W        W84054  29.064  33.514   4.658
24519W        W84055   7.373   4.792   3.210
24520W        W84056   9.809  36.039  11.127
24521W        W84057  40.917  15.115  11.068
24522W        W84058  10.139  12.762  13.858
24523W        W84059  23.590   5.340   2.390
24524W        W84060  17.706  15.187   2.897
24525W        W84061  37.338  37.337  12.865
24526W        W84062  25.664  37.893   4.284
24527W        W84063  15.114  38.981  11.065
24528W        W84064  10.348  44.279  10.610
24529W        W84065  30.071   8.776   3.774
24530W        W84066  29.114  35.515  14.961
24531W        W84067  20.694   2.749  13.367
24532W        W84068   6.348  39.829  13.463
24533W        W84069  38.017   3.732   4.169
24534W        W84070  43.373   4.380  12.512
24535W        W84071   8.740  33.088   3.387
24536W        W84072   6.838  30.918   3.755
24537W        W84073  17.642  33.013   1.268
24538W        W84074  43.934  37.860  10.575
24539W        W84075  18.251  20.562  13.039
24540W        W84076  44.992  34.460  13.826
24541W        W84077  14.260  37.014  13.352
24542W        W84078  19.762  15.592   3.188
24543W        W84079  23.184  39.849  14.385
24544W        W84080  43.798   9.828   3.292
24545W        W84081  16.251  35.935   0.755
24546W        W84082  12.670   4.718   3.651
24547W        W84083  37.025   3.398  14.311
24548W        W84084  19.224  12.320   1.309
24549W        W84085   7.390  34.467  12.850
24550W        W84086  21.521  10.718   1.886
24551W        W84087  24.708  22.682   1.233
24552W        W84088  37.567  22.226   1.781
24553W        W84089   4.815  32.423   9.939
24554W        W84090  23.161  22.631  10.967
24555W        W84091  14.645  26.985   2.227
24556W        W84092   5.870  16.147  12.485
24557W        W84093  39.551  18.592  13.548
24558W        W84094  16.086   1.436   1.822
24559W        W84095   9.381  17.558  13.922
24560W        W84096  37.475  19.562  11.873
24561W        W84097  29.058  26.540   2.318
24562W        W84098  12.819   0.465  14.509
24563W        W84099   6.709  31.988   2.337
24564W        W84100   5.906  21.031   4.598
24565W        W84101  16.146   0.902   2.860
24566W        W84102   5.432  24.226   1.273
24567W        W84103  44.843  18.608  12.471
24568W        W84104  34.021  41.904   4.607
24569W        W84105   2.264  39.955   0.440
24570W        W84106  38.836   1.347  12.023
24571W        W84107  41.920  35.406   3.649
24572W        W84108  35.056   6.349  12.377
24573W        W84109   7.814  21.248   3.251
24574W        W84110  21.650  24.996   1.917
24575W        W84111  24.517  37.987  12.024
24576W        W84112  22.538  15.646   3.226
24577W        W84113  18.251   9.287  11.414
24578W        W84114  27.547  26.096   0.889
24579W        W84115   3.900   7.307   4.790
24580W        W84116   8.385  34.989   0.791
24581W        W84117  25.030  38.556   0.446
24582W        W84118   1.870  19.703  12.525
24583W        W84119  39.034  11.639  12.406
24584W        W84120   8.813  25.673  11.425
24585W        W84121   3.777   3.369  11.077
24586W        W84122  26.958  30.058  11.955
24587W        W84123  38.844   4.892   4.191
24588W        W84124  13.294  22.082  14.771
24589W        W84125  41.328   9.166  11.553
24590W        W84126  25.163  38.870  13.997
24591W        W84127  23.539   5.706   2.205
24592W        W84128  23.667  21.620  11.515
24593W        W84129  21.042  19.131   0.392
24594W        W84130  19.735  19.677  14.788
24595W        W84131  34.979  28.981   2.770
24596W        W84132  14.814  16.269   4.829
24597W        W84133  40.428  38.344  10.573
24598W        W84134  34.518   0.956  10.063
24599W        W84135  39.933  35.375   0.838
24600W        W84136   1.483  28.088  13.525
24601W        W84137  26.701   6.828   2.194
24602W        W84138  30.932   0.822   0.447
24603W        W84139  31.140   6.357  12.568
24604W        W84140  27.954   0.943  12.411
24605W        W84141  25.068  20.073  14.312
24606W        W84142  11.213  11.341  13.850
24607W        W84143   5.379  28.486  13.456
24608W        W84144  43.793  26.462   1.722
24609W        W84145  21.136  15.193  13.360
24610W        W84146  10.738  12.683   3.333
24611W        W84147  16.619  15.095  13.829
24612W        W84148   2.750  35.966   3.792
24613W        W84149  30.430  25.986   0.354
24614W        W84150  17.139  30.425   3.310
24615W        W84151  28.118  24.563  11.954
24616W        W84152  19.724  43.938  14.307
24617W        W84153  30.067  28.986   5.289
24618W        W84154  11.635  21.176   1.405
24619W        W84155  13.810   8.867   3.187
24620W        W84156   1.320  35.072   1.216
24621W        W84157   1.329  41.908  12.558
24622W        W84158  19.193  40.544   0.335
24623W        W84159   3.384   4.827   1.251
24624W        W84160   6.263   3.384   3.277
24625W        W84161  10.191  28.124   2.822
24626W        W84162   7.182   4.402  14.957
24627W        W84163  11.359  36.559   1.861
24628W        W84164  38.525  16.655  13.503
24629W        W84165  42.871  10.733  10.532
24630W        W84166  30.492  10.216   0.874
24631W        W84167  41.449  27.189  11.401
24632W        W84168  13.254  14.207  10.922
24633W        W84169  24.994   5.224  14.402
24634W        W84170  43.416   3.823   1.860
24635W        W84171   1.369  31.566   4.743
24636W        W84172  37.993  26.101   0.932
24637W        W84173  33.071  28.993   1.273
24638W        W84174  33.883   5.249  13.331
24639W        W84175   1.378  43.854   1.375
24640W        W84176  28.952  27.461   0.414
24641W        W84177  11.209  19.704   1.769
24642W        W84178  38.518  23.692   2.184
24643W        W84179   7.798  27.099  12.949
24644W        W84180   2.246  13.200  11.489
24645W        W84181   8.850  32.918   4.701
24646W        W84182  12.130   9.245   0.868
24647W        W84183  37.517   7.323   1.254
24648W        W84184  11.340  32.045  13.420
24649W        W84185  38.507   8.267  14.414
24650W        W84186  19.201  24.555   3.154
24651W        W84187  41.527  36.467  14.820
24652W        W84188  21.221   1.916  14.281
24653W        W84189  38.917  31.471  13.323
24654W        W84190  38.825  34.886   2.250
24655W        W84191   5.218   7.396  11.977
24656W        W84192  20.220   1.888  12.403
24657W        W84193  38.926  33.029  11.958
24658W        W84194   8.666   5.437   4.193
24659W        W84195  41.483  13.286   2.866
24660W        W84196  29.544  25.503  11.855
24661W        W84197  44.329  14.105   3.861
24662W        W84198  15.790  23.642  13.931
24663W        W84199  13.643   3.231   2.220
24664W        W84200  19.658  33.394   1.241
24665W        W84201  28.568   3.387  12.858
24666W        W84202  36.048  19.132  12.409
24667W        W84203  35.104  27.489   2.850
24668W        W84204  35.061   4.802   4.299
24669W        W84205  33.071  28.663  14.468
24670W        W84206  27.102  25.176   1.268
24671W        W84207  37.050   9.378  14.923
24672W        W84208  32.562  39.029  12.880
24673W        W84209   9.696  40.973  10.961
24674W        W84210  41.904  15.727  14.914
24675W        W84211  26.555  14.285  13.507
24676W        W84212  22.564   6.866   1.904
24677W        W84213  19.210  17.189   3.190
24678W        W84214   6.318  24.649   2.212
24679W        W84215  34.113  43.825  12.841
24680W        W84216   1.426   3.946  13.869
24681W        W84217  19.076   0.929  13.993
24682W        W84218  39.984  11.367  14.365
24683W        W84219  18.593  37.392   4.641
24684W        W84220   0.487  15.774   1.785
24685W        W84221  12.257  42.527   1.778
24686W        W84222   5.217   1.383   1.309
24687W        W84223  29.450  29.146   2.794
24688W        W84224  33.489  17.250   1.870
24689W        W84225   8.242  32.545   4.185
24690W        W84226  28.984  12.681  11.477
24691W        W84227  17.292  29.424  11.977
24692W        W84228  27.112   9.804   0.417
24693W        W84229  38.388  25.485  11.451
24694W        W84230   9.337  16.781   0.320
24695W        W84231  36.438  20.038   2.816
24696W        W84232  24.651   6.907   0.325
24697W        W84233  19.078  11.788  13.822
24698W        W84234   3.746  16.217  11.508
24699W        W84235  33.542  42.505   0.898
24700W        W84236  28.441  16.259   4.723
24701W        W84237   1.295   3.883  13.456
24702W        W84238   2.369  25.524  12.838
24703W        W84239  11.628  28.057  11.456
24704W        W84240  41.797  37.919   0.864
24705W        W84241  23.057  30.130  12.989
24706W        W84242  21.604  17.676  10.576
24707W        W84243   2.862  27.594   2.325
24708W        W84244  32.966  37.392   3.242
24709W        W84245  18.726  11.740   3.701
24710W        W84246  12.263  14.666  12.525
24711W        W84247  19.054   9.208   0.463
24712W        W84248  21.630  35.373   9.552
24713W        W84249  10.655  42.908   1.864
24714W        W84250  17.570   3.769  10.577
24715W        W84251  33.533  11.742  14.309
24716W        W84252   2.755  37.513   3.824
24717W        W84253  38.508  34.895  12.841
24718W        W84254  28.120  41.914  10.086
24719W        W84255   1.869  44.406   4.783
24720W        W84256  30.069  40.813  11.484
24721W        W84257   7.230  32.084   3.810
24722W        W84258  44.485  41.434  13.369
24723W        W84259  31.137  27.016   3.258
24724W        W84260  15.179  27.488   4.668
24725W        W84261  16.760  14.243   1.274
24726W        W84262  41.820   4.374   0.445
24727W        W84263  16.703  22.042   3.348
24728W        W84264  41.989   1.405   2.803
24729W        W84265  37.469  40.364  14.787
24730W        W84266  34.389  10.797  13.884
24731W        W84267  36.592  34.877  12.497
24732W        W84268  37.346   9.678  13.821
24733W        W84269  41.825  39.916  10.930
24734W        W84270  32.902  22.122  14.942
24735W        W84271  15.271  41.019   3.842
24736W        W84272  20.679   1.843  11.990
24737W        W84273  43.341  43.890   1.754
24738W        W84274  33.120   9.311  13.899
24739W        W84275   8.309  36.485  12.945
24740W        W84276   7.715   7.734   2.800
24741W        W84277  41.807   3.275  14.804
24742W        W84278  35.380  24.645  12.867
24743W        W84279  23.050   3.793  13.912
24744W        W84280  26.545   2.954   4.731
24745W        W84281  30.458   4.818  11.539
24746W        W84282  14.807  19.268   2.850
24747W        W84283  22.518  31.557   3.367
24748W        W84284  15.096   9.323   0.757
24749W        W84285  36.066  16.603  14.967
24750W        W84286  19.160   8.195  14.964
24751W        W84287  21.259   2.417   3.732
24752W        W84288  43.497  28.644   2.694
24753W        W84289  29.661   6.723   2.183
24754W        W84290  24.600  34.877   3.355
24755W        W84291  42.806  13.611   4.340
24756W        W84292  39.532  43.915  14.030
24757W        W84293   8.703  18.587   3.162
24758W        W84294  33.554  24.000  14.371
24759W        W84295  18.683  10.368   1.801
24760W        W84296  29.027   7.689  13.844
24761W        W84297  16.192  28.469   4.622
24762W        W84298  29.042  38.367  14.761
24763W        W84299  28.632   7.704  14.990
24764W        W84300  38.073  27.446  10.601
24765W        W84301  39.398  32.960   3.863
24766W        W84302  24.650  30.996  10.612
24767W        W84303   0.417  11.748  13.046
24768W        W84304   1.426  35.370  10.902
24769W        W84305  26.558  11.809  13.038
24770W        W84306  11.301  39.350   3.866
24771W        W84307   6.428  32.027  13.926
24772W        W84308  14.805  37.880  10.645
24773W        W84309  41.342  44.769  14.759
24774W        W84310  37.382  12.800   2.708
24775W        W84311  12.819  33.057  11.078
24776W        W84312  24.147  14.722   2.195
24777W        W84313  26.535  21.514  11.917
24778W        W84314   5.796  11.673  13.317
24779W        W84315  15.771  25.136  10.559
24780W        W84316  15.611   1.969  13.012
24781W        W84317  16.621  40.437   0.865
24782W        W84318  43.950  11.295  11.540
24783W        W84319  22.696  23.584   1.442
24784W        W84320  35.061  39.443  12.358
24785W        W84321  40.304  34.104  12.052
24786W        W84322  24.561  16.593   4.153
24787W        W84323  18.672  10.252  10.532
24788W        W84324   7.837  27.072   1.368
24789W        W84325  30.487  15.193   1.377
24790W        W84326   0.865  30.521  13.820
24791W        W84327  10.301  15.088   0.778
24792W        W84328  27.660  41.970  12.041
24793W        W84329  28.633  13.767  11.884
24794W        W84330  43.782  30.578  10.642
24795W        W84331  19.756   2.930   1.754
24796W        W84332  37.869  39.336  14.295
24797W        W84333  28.118  10.243  13.843
24798W        W84334  13.759   9.151  11.883
24799W        W84335   0.411  44.345  11.946
24800W        W84336  18.223  19.703  11.866
24801W        W84337  31.622  36.044  11.127
24802W        W84338   5.238  21.226   2.701
24803W        W84339  39.447   8.727   4.161
24804W        W84340  35.513   6.304  11.065
24805W        W84341  39.918   0.824   5.293
24806W        W84342  25.522  20.268   4.318
24807W        W84343  44.787  11.338   1.373
24808W        W84344  38.843   0.781  13.388
24809W        W84345  32.539   2.820   1.772
24810W        W84346  36.533  44.956   5.190
24811W        W84347  20.605  22.610   5.122
24812W        W84348  39.431  42.464  12.093
24813W        W84349  19.281  31.635  10.434
24814W        W84350  27.086  22.121  10.961
24815W        W84351  22.566  10.368   0.774
24816W        W84352  27.575  31.482   1.288
24817W        W84353   2.785   6.363  11.063
24818W        W84354  24.133   6.277   2.246
24819W        W84355  39.033   6.281  12.423
24820W        W84356  32.997  41.918   2.788
24821W        W84357   0.304  31.473  12.423
24822W        W84358   7.783  35.101  10.532
24823W        W84359   0.952  19.284  13.935
24824W        W84360   9.217  14.209  11.541
24825W        W84361  44.763  30.486  12.034
24826W        W84362  43.963  25.546   3.862
24827W        W84363  26.094  27.043   4.330
24828W        W84364  43.416  25.996   2.273
24829W        W84365   2.913  25.168   1.768
24830W        W84366   1.274  15.085  12.913
24831W        W84367   3.912   9.850  14.435
24832W        W84368   3.310  19.185   3.359
24833W        W84369  22.575  14.816  14.980
24834W        W84370  41.468   0.348   1.765
24835W        W84371  23.602  10.684  11.428
24836W        W84372  18.088  36.966   2.832
24837W        W84373  27.036  20.603  14.317
24838W        W84374  44.502  12.785   1.335
24839W        W84375  32.020  41.487  10.020
24840W        W84376  15.809  13.291   4.804
24841W        W84377  29.109  28.631  13.913
24842W        W84378  27.070  39.341   3.736
24843W        W84379  12.700   3.829  11.538
24844W        W84380  12.785  22.538   3.795
24845W        W84381  28.948  34.912  13.444
24846W        W84382  37.455  37.457   5.235
24847W        W84383  17.181  41.028   0.940
24848W        W84384  19.040  39.534  14.764
24849W        W84385  16.743  22.196  13.379
24850W        W84386  29.928  38.335  10.450
24851W        W84387  23.002  16.176  13.919
24852W        W84388  25.588  25.983  13.972
24853W        W84389  14.262  24.557  10.998
24854W        W84390   1.972  26.072   2.226
24855W        W84391   3.446  44.917  13.015
24856W        W84392  17.713  10.328  11.505
24857W        W84393  16.747  11.760   1.899
24858W        W84394   6.385  25.492  12.096
24859W        W84395   6.388  42.342  11.986
24860W        W84396  23.135  35.462   2.227
24861W        W84397  44.970  42.436  11.084
24862W        W84398  29.928   5.716   1.418
24863W        W84399  18.548  12.786   4.616
24864W        W84400  32.901  44.405   0.867
24865W        W84401  31.952  32.952   2.665
24866W        W84402  40.851   8.189   1.795
24867W        W84403  23.176   1.409  14.868
24868W        W84404  42.503  24.512   1.450
24869W        W84405  24.101  30.051   0.301
24870W        W84406   8.852  36.925   0.411
24871W        W84407   7.903  11.163   0.941
24872W        W84408  44.979  32.010  14.938
24873W        W84409  32.135  10.332   2.805
24874W        W84410  32.066  38.394   2.394
24875W        W84411  27.574  39.554   2.725
24876W        W84412  31.586  44.782   4.281
24877W        W84413  19.679  20.213  12.468
24878W        W84414  29.520  32.528   3.737
24879W        W84415  39.331  20.169   2.358
24880W        W84416  15.168  18.641  11.090
24881W        W84417  14.320  24.031   0.450
24882W        W84418  21.250  31.492   3.839
24883W        W84419  28.610  37.939   1.890
24884W        W84420   1.839  25.495   1.916
24885W        W84421  29.009  44.953   4.199
24886W        W84422  16.784  25.665   1.772
24887W        W84423  25.469  28.141   0.294
24888W        W84424  43.398  26.666  12.009
24889W        W84425  26.017   4.744   0.323
24890W        W84426  36.883  40.343   1.835
24891W        W84427  26.689  31.428  10.940
24892W        W84428  11.758  32.573  14.482
24893W        W84429  20.534  35.525   4.297
24894W        W84430  43.896  20.059   2.308
24895W        W84431  44.505   0.347   5.240
24896W        W84432  32.594  32.038   1.394
24897W        W84433  41.895  25.612   1.227
24898W        W84434  29.039  29.530  14.349
24899W        W84435   8.271   3.846   0.852
24900W        W84436  24.598  24.622   1.359
24901W        W84437  10.699  42.465   1.443
24902W        W84438  44.985  33.472  12.867
24903W        W84439  33.125  39.039   4.280
24904W        W84440   4.882   9.228  14.405
24905W        W84441  38.460  31.626  13.412
24906W        W84442  20.146   0.756   3.673
24907W        W84443  22.081  13.739   1.902
24908W        W84444  11.802  33.469  14.329
24909W        W84445   9.368  32.008  14.326
24910W        W84446  33.593  27.677   3.184
24911W        W84447  22.582  30.631  14.815
24912W        W84448   6.216   9.176   3.800
24913W        W84449   2.441  25.589  14.997
24914W        W84450  39.449  13.268  13.945
24915W        W84451  21.208  11.643   1.762
24916W        W84452  26.960  17.238  14.814
24917W        W84453  17.775   0.472  12.472
24918W        W84454   8.880  10.230  10.617
24919W        W84455  42.366  12.233   0.306
24920W        W84456   1.446  42.468   4.751
24921W        W84457   1.423  42.457   2.245
24922W        W84458  44.772  27.563  11.372
24923W        W84459  33.085  41.425   2.711
24924W        W84460  41.327  28.012  13.875
24925W        W84461  13.826  44.915  12.832
24926W        W84462   0.769  22.652  13.952
24927W        W84463  36.410  41.314   4.794
24928W        W84464  25.124  27.692  12.850
24929W        W84465  33.897  21.097  10.519
24930W        W84466  44.961  35.431   3.261
24931W        W84467  13.258  12.175   1.261
24932W        W84468  40.449  27.641   4.116
24933W        W84469  22.116  43.812  11.527
24934W        W84470   8.361  35.514  14.889
24935W        W84471  17.144  36.498  10.640
24936W        W84472  16.591  38.889   0.887
24937W        W84473   0.320   3.349   0.825
24938W        W84474  22.702  33.544   9.998
24939W        W84475  34.962  34.403   1.904
24940W        W84476  42.434  11.216   1.815
24941W        W84477  41.405   7.255  12.568
24942W        W84478  44.876   6.182  14.324
24943W        W84479   9.183  19.284  12.348
24944W        W84480  43.511   2.791  11.888
24945W        W84481  22.736   0.898   4.735
24946W        W84482  34.418   5.751   1.326
24947W        W84483  17.292  42.493  13.473
24948W        W84484  26.525  43.511   5.272
24949W        W84485  19.662  30.587  14.400
24950W        W84486  30.046  33.622  11.594
24951W        W84487  32.446  17.218   0.433
24952W        W84488   0.989   1.864  10.544
24953W        W84489  16.175  32.507  11.968
24954W        W84490  12.168  41.818  14.008
24955W        W84491   1.803  32.989   3.322
24956W        W84492  40.992   8.806  12.491
24957W        W84493  34.882  30.089  13.355
24958W        W84494  32.912  24.713  11.118
24959W        W84495  30.163  31.078  10.936
24960W        W84496  44.944  44.335  13.364
24961W        W84497  41.017   7.244  14.905
24962W        W84498  34.001  41.474   2.901
24963W        W84499   3.292  33.125  14.947
24964W        W84500   8.848  36.576  13.507
24965W        W84501  41.361  37.016   4.766
24966W        W84502  35.960  17.675  13.508
24967W        W84503  28.988  25.970   4.767
24968W        W84504  27.665  13.330  14.874
24969W        W84505  11.134  28.955  13.343
24970W        W84506  42.346  11.210   3.380
24971W        W84507  42.307  34.447   4.137
24972W        W84508  34.606  32.103  11.427
24973W        W84509  20.758  31.927  13.824
24974W        W84510  23.097  42.801  11.451
24975W        W84511  40.813   2.805   2.762
24976W        W84512  10.157  39.053   0.311
24977W        W84513  21.648  39.916  10.448
24978W        W84514  26.588  37.921  12.992
24979W        W84515  10.837  30.916   5.159
24980W        W84516   7.171   8.163   0.295
24981W        W84517  34.056  17.229  12.352
24982W        W84518   4.720  43.417  14.503
24983W        W84519  20.059  27.177  11.944
24984W        W84520   6.898  23.521  11.421
24985W        W84521  32.897  34.422  12.906
24986W        W84522   6.311  34.377  13.859
24987W        W84523  20.211  40.880   2.243
24988W        W84524  22.241  26.047   0.838
24989W        W84525  14.094  44.806  12.541
24990W        W84526   0.270  41.479  13.849
24991W        W84527  33.419  19.271   2.823
24992W        W84528  37.020  11.341   1.912
24993W        W84529  24.186  41.892   4.740
24994W        W84530  16.740  22.251  13.953
24995W        W84531  38.990  30.467  13.328
24996W        W84532  38.829  41.951   3.225
24997W        W84533  16.632   4.357   4.196
24998W        W84534  12.161  38.519  11.525
24999W        W84535   1.839  12.142   3.341
25000W        W84536  23.713  12.749  11.923
25001W        W84537  36.908  15.244   2.829
25002W        W84538  39.380  12.840  11.473
25003W        W84539   2.471  17.648   2.808
25004W        W84540   5.313  34.089   0.391
25005W        W84541  21.561   7.351  13.819
25006W        W84542  27.196  43.011   1.734
25007W        W84543  14.196  35.430  13.969
25008W        W84544  10.157  41.334   3.304
25009W        W84545  15.190  24.123  14.441
25010W        W84546  27.585  18.730  12.523
25011W        W84547  13.169  30.929   0.817
25012W        W84548  15.131  37.949  10.454
25013W        W84549  40.880   8.851   4.127
25014W        W84550  41.955  16.802   1.758
25015W        W84551  35.012  44.295  12.082
25016W        W84552  30.134  42.855   2.238
25017W        W84553   0.855  36.460  10.603
25018W        W84554  22.688  28.136   0.822
25019W        W84555  35.966  20.651  12.479
25020W        W84556  44.862   5.789  12.076
25021W        W84557  14.310  10.723  12.374
25022W        W84558  31.024  39.395   3.360
25023W        W84559  19.601  25.169   2.746
25024W        W84560   8.723   8.658   3.854
25025W        W84561  38.448  38.961   0.401
25026W        W84562  37.577   1.750  11.580
25027W        W84563  29.657   0.361   3.819
25028W        W84564  44.337  14.163   2.407
25029W        W84565  43.851  35.556  13.367
25030W        W84566   1.840  34.917  11.908
25031W        W84567  27.176  30.916  10.619
25032W        W84568   1.798   1.357  13.368
25033W        W84569  16.147   8.288   2.389
25034W        W84570  23.616  38.332   4.743
25035W        W84571  42.887  15.728  12.877
25036W        W84572  23.554  38.409   1.829
25037W        W84573  20.694  38.563  12.066
25038W        W84574  20.671  32.533  10.416
25039W        W84575  11.657  36.943  11.561
25040W        W84576  29.167  27.659   1.768
25041W        W84577  10.312  41.375  11.503
25042W        W84578  34.470   4.367   0.888
25043W        W84579  16.215  15.156  10.897
25044W        W84580  32.011  18.692  11.070
25045W        W84581  35.576  36.570  14.434
25046W        W84582  41.326  12.647   2.243
25047W        W84583  44.428  30.657  10.011
25048W        W84584   9.193  43.488  11.544
25049W        W84585  34.613  27.005  14.380
25050W        W84586  23.142  35.881   4.164
25051W        W84587   0.494  20.649  13.435
25052W        W84588  38.854  34.613  13.917
25053W        W84589  30.425  12.633   0.371
25054W        W84590  15.693  39.463  11.098
25055W        W84591   7.684   2.319   2.675
25056W        W84592  44.764  31.088  10.999
25057W        W84593  42.370  38.968   3.301
25058W        W84594  22.066  33.921  14.988
25059W        W84595   8.395  15.116  11.387
25060W        W84596  28.185  17.144   2.868
25061W        W84597  34.998   7.258  13.866
25062W        W84598  43.456  18.263   3.202
25063W        W84599  29.067  30.086  13.960
25064W        W84600  35.924  20.682  11.397
25065W        W84601   7.716  39.062   2.378
25066W        W84602   8.254  34.541  13.804
25067W        W84603  40.871   2.430  12.363
25068W        W84604   8.867  27.597  12.414
25069W        W84605  20.031  33.111   2.866
25070W        W84606  33.380   0.325  12.396
25071W        W84607  39.427   4.786  13.961
25072W        W84608  30.151  23.588   3.215
25073W        W84609  10.744  16.584  11.935
25074W        W84610   5.932  14.165   4.340
25075W        W84611   6.792  37.951  14.353
25076W        W84612  40.004   8.201  10.945
25077W        W84613   8.802  20.120  11.898
25078W        W84614  38.372   5.742   1.934
25079W        W84615  24.601  30.519  13.856
25080W        W84616  44.353  19.127  10.129
25081W        W84617  24.092  38.336  12.973
25082W        W84618  39.499   6.228  12.992
25083W        W84619  21.182   3.285  14.796
25084W        W84620  41.368  23.583   0.937
25085W        W84621   4.797  23.562  14.494
25086W        W84622  31.063  23.001  13.843
25087W        W84623  26.560  41.417   4.636
25088W        W84624  15.148   8.712   1.857
25089W        W84625   4.924   6.887  14.433
25090W        W84626  11.247  42.944   3.355
25091W        W84627   1.302  11.270  11.872
25092W        W84628  22.741  32.977   0.936
25093W        W84629  42.023  26.169   1.390
25094W        W84630  10.747  43.946  10.451
25095W        W84631  18.058  13.709   0.406
25096W        W84632  12.814  42.019   1.431
25097W        W84633  39.877  12.295  13.826
25098W        W84634  10.226  18.774  11.461
25099W        W84635  30.560  25.985  11.954
25100W        W84636  38.380   3.413   1.878
25101W        W84637  33.881   6.201   4.774
25102W        W84638  27.040  25.502  13.356
25103W        W84639  13.311  23.637  13.853
25104W        W84640  15.633  30.017  11.389
25105W        W84641   6.336  21.240  10.922
25106W        W84642  23.719   3.365   3.353
25107W        W84643   6.257  44.796   2.320
25108W        W84644  24.557  21.142   0.242
25109W        W84645  36.857  36.401   0.880
25110W        W84646   7.856  31.559  10.638
25111W        W84647   1.844   8.895  11.409
25112W        W84648  32.521  23.197  11.379
25113W        W84649  29.507  21.101  12.070
25114W        W84650  19.657   1.433  13.407
25115W        W84651  41.902  33.116   3.371
25116W        W84652  34.060  29.022  10.625
25117W        W84653  12.683  30.505  14.952
25118W        W84654  33.411  39.424   4.778
25119W        W84655  21.235  35.376   1.439
25120W        W84656  43.912  20.525  13.025
25121W        W84657   3.935  29.146   0.748
25122W        W84658   4.382  15.229  12.356
25123W        W84659  13.306  34.527  12.421
25124W        W84660  34.604  42.301  13.533
25125W        W84661  11.293  17.111   2.357
25126W        W84662  12.179   8.276   0.761
25127W        W84663   9.354  34.910   4.641
25128W        W84664  26.021   8.369   1.366
25129W        W84665  35.514  11.328   3.649
25130W        W84666  27.512  27.122  10.892
25131W        W84667   1.738  23.087  10.513
25132W        W84668  38.326  23.158   4.767
25133W        W84669  12.257  30.922   3.216
25134W        W84670  16.260   1.885  12.419
25135W        W84671  35.895   3.782  13.896
25136W        W84672   8.864  19.178   0.888
25137W        W84673  12.353   0.284   2.689
25138W        W84674  16.243  12.740   3.775
25139W        W84675  13.614  41.037  12.568
25140W        W84676  11.690  27.146   0.886
25141W        W84677   6.402  20.054   0.965
25142W        W84678  11.288   0.482   2.383
25143W        W84679  23.100   0.396   2.218
25144W        W84680  16.701  14.782  10.891
25145W        W84681  26.531  34.581   1.713
25146W        W84682  16.585  39.343  12.353
25147W        W84683  34.463  27.512   4.139
25148W        W84684  13.228   1.916  12.381
25149W        W84685  21.160  21.684  11.997
25150W        W84686  26.098  21.139   3.173
25151W        W84687  25.063   7.780  14.818
25152W        W84688  21.561  31.906  14.332
25153W        W84689  20.698   9.690   2.212
25154W        W84690   6.774  25.535  11.997
25155W        W84691   1.433  28.526  13.946
25156W        W84692   8.889  42.780  11.506
25157W        W84693   1.335  39.338   2.802
25158W        W84694  28.441  17.783  13.795
25159W        W84695   0.362   0.371   2.884
25160W        W84696  36.034  28.663  11.432
25161W        W84697  44.878   8.238   0.941
25162W        W84698   0.434  25.651   0.767
25163W        W84699  41.995  15.140   5.226
25164W        W84700  27.677  25.155  12.418
25165W        W84701  43.350  10.869  11.376
25166W        W84702  23.003  44.402   0.834
25167W        W84703   0.833  12.224  14.916
25168W        W84704  34.385  39.895   4.206
25169W        W84705   4.355  35.093  10.943
25170W        W84706  22.150  44.319   4.835
25171W        W84707   8.864  42.483   0.296
25172W        W84708  30.013  38.425   3.240
25173W        W84709   8.858  35.058   4.312
25174W        W84710  12.171  33.596  11.570
25175W        W84711   8.274  27.600  12.937
25176W        W84712   8.383  28.999   3.744
25177W        W84713  19.053   3.786   1.867
25178W        W84714  26.666  20.158   0.938
25179W        W84715  40.506  42.911   2.807
25180W        W84716  19.604  30.106  10.468
25181W        W84717  25.027  33.020  10.498
25182W        W84718  22.095  26.620  13.985
25183W        W84719  43.851  39.323  10.496
25184W        W84720  24.127  25.176   2.665
25185W        W84721  39.964  40.998  14.850
25186W        W84722   2.309   7.334  11.041
25187W        W84723  11.229  44.477   3.212
25188W        W84724  19.232  42.980  10.462
25189W        W84725   2.444  42.340   0.937
25190W        W84726  33.554   9.227  12.402
25191W        W84727   2.788  18.773  11.524
25192W        W84728  32.551   9.156  11.001
25193W        W84729  24.551  16.222   0.364
25194W        W84730  37.509  31.955   5.146
25195W        W84731  14.727  14.698  13.369
25196W        W84732  24.601  35.023  10.553
25197W        W84733  23.150   1.456   2.887
25198W        W84734  34.120   6.757   2.812
25199W        W84735  36.563   1.283   3.199
25200W        W84736  36.904  37.027   1.822
25201W        W84737  29.011  43.464   2.787
25202W        W84738  43.362  39.957  11.483
25203W        W84739  29.136  12.340  13.380
25204W        W84740  20.750   8.294   0.815
25205W        W84741  28.669  31.062  11.508
25206W        W84742  19.265  29.961  11.986
25207W        W84743  30.947  22.037   0.330
25208W        W84744  26.149  28.605   1.710
25209W        W84745  13.333   3.428  12.557
25210W        W84746   2.823  27.605  12.843
25211W        W84747  41.934  44.760   0.816
25212W        W84748  17.727  35.527   0.293
25213W        W84749   6.830  14.258   2.894
25214W        W84750  39.924  29.572  13.039
25215W        W84751  30.610  11.706   1.798
25216W        W84752  16.194  22.074  11.912
25217W        W84753  10.814  38.939  10.113
25218W        W84754  15.199  32.459  11.586
25219W        W84755   1.753  35.426   4.257
25220W        W84756  27.140  10.824  10.452
25221W        W84757  23.630  23.681  12.411
25222W        W84758  41.341   1.854  14.408
25223W        W84759   2.418   9.189   3.270
25224W        W84760   2.428  32.933   0.926
25225W        W84761  39.980  41.850  14.981
25226W        W84762   8.820  38.497  11.533
25227W        W84763  30.460  44.258   1.771
25228W        W84764  31.638  32.441   1.446
25229W        W84765  22.101  43.858   0.847
25230W        W84766  16.800  15.731  11.889
25231W        W84767   6.828   7.213  11.577
25232W        W84768  27.038  27.960  13.987
25233W        W84769  14.325   8.825   0.752
25234W        W84770  21.022  27.591   0.453
25235W        W84771  11.216   5.868   2.387
25236W        W84772  26.043  22.218   0.366
25237W        W84773  26.117  28.107  10.957
25238W        W84774  22.735  10.140   0.384
25239W        W84775  25.583  29.100  12.993
25240W        W84776  24.713  41.391   3.367
25241W        W84777  21.139  16.746   2.297
25242W        W84778  37.406   0.250  10.585
25243W        W84779  31.939  25.066  11.478
25244W        W84780  44.759  37.836   1.260
25245W        W84781  33.535  14.620   2.818
25246W        W84782  16.584   0.753   4.200
25247W        W84783   6.230  16.803  13.419
25248W        W84784   6.762  26.988   9.446
25249W        W84785  31.908  29.530  11.961
25250W        W84786   7.717  30.588  10.605
25251W        W84787  16.276  20.184  14.931
25252W        W84788   1.773   4.412  11.969
25253W        W84789   1.432  44.971   3.835
25254W        W84790   6.754   4.759   2.310
25255W        W84791  12.133  16.758  13.975
25256W        W84792  17.709   8.169   1.354
25257W        W84793  34.481  20.623   0.456
25258W        W84794   0.345  39.391   0.406
25259W        W84795  35.459  41.847   3.342
25260W        W84796  12.272  33.565   0.437
25261W        W84797  21.618   3.252   3.749
25262W        W84798  24.150  11.849  14.331
25263W        W84799  27.553  19.089   9.938
25264W        W84800  43.776  27.178   9.966
25265W        W84801  33.084  21.143  11.597
25266W        W84802  43.014  18.624   0.331
25267W        W84803   3.797  42.892   1.914
25268W        W84804   6.289  29.423   4.214
25269W        W84805  27.986  37.038   1.724
25270W        W84806  34.396  29.951  14.428
25271W        W84807   3.819   4.881   4.197
25272W        W84808  18.631  22.613   1.436
25273W        W84809  31.931  19.258  14.766
25274W        W84810  30.139   5.784   2.320
25275W        W84811   1.388   7.911   1.256
25276W        W84812  44.936  25.028   0.311
25277W        W84813  26.021  23.656   2.374
25278W        W84814  29.968  37.968  10.515
25279W        W84815   5.806   8.777  13.844
25280W        W84816  10.662  35.947  14.968
25281W        W84817  21.756  11.832  10.980
25282W        W84818  24.596  26.647  14.972
25283W        W84819  39.926   7.906   4.182
25284W        W84820  11.675  44.863  13.024
25285W        W84821  15.820  30.648  10.529
25286W        W84822  31.117  44.881   4.337
25287W        W84823  43.294  23.111   2.193
25288W        W84824   3.911   7.194   3.669
25289W        W84825  31.104   8.254  13.430
25290W        W84826   9.707   8.758   2.843
25291W        W84827  41.495  19.100   2.385
25292W        W84828  13.262   2.850   0.773
25293W        W84829   4.758  33.413   3.263
25294W        W84830  30.441  42.019  10.644
25295W        W84831  38.475  32.977  14.452
25296W        W84832  44.986   7.846   1.741
25297W        W84833  16.190  38.458   0.937
25298W        W84834   8.813  19.587   1.412
25299W        W84835  12.707  16.635   2.293
25300W        W84836   7.842  43.286  13.011
25301W        W84837  10.313  15.264   3.862
25302W        W84838   4.705  28.113  10.641
25303W        W84839  14.661  18.562  14.997
25304W        W84840  16.282  25.569  11.096
25305W        W84841  42.784  42.899   0.267
25306W        W84842  35.939  41.528  13.046
25307W        W84843  38.532  30.642   4.767
25308W        W84844   6.788   7.799  11.084
25309W        W84845  12.852  44.873   4.147
25310W        W84846  21.024  33.036   3.360
25311W        W84847  23.646  35.893  11.864
25312W        W84848  10.683  19.564   0.866
25313W        W84849  44.377  41.869   3.777
25314W        W84850  35.423  34.381   3.753
25315W        W84851  11.675  28.651   0.281
25316W        W84852   6.209  21.713   4.635
25317W        W84853  28.032  26.059  13.469
25318W        W84854  18.785  44.333  12.824
25319W        W84855  16.312   9.161   1.250
25320W        W84856  23.168  30.052  10.908
25321W        W84857  43.424  20.750  13.474
25322W        W84858  40.833  37.432  13.806
25323W        W84859  40.411  40.961  14.463
25324W        W84860  37.087  13.653   3.729
25325W        W84861  10.239  22.009   2.367
25326W        W84862  25.210  44.268   4.665
25327W        W84863  23.157  25.170  13.494
25328W        W84864   3.871  22.198  10.491
25329W        W84865  10.651  38.900   1.924
25330W        W84866  20.632  20.125   2.252
25331W        W84867  24.618  14.606   0.426
25332W        W84868  30.119  13.743   0.379
25333W        W84869  35.884  17.592   3.156
25334W        W84870   9.257  44.403  12.864
25335W        W84871   7.714   0.467  12.420
25336W        W84872  16.739   5.367   4.829
25337W        W84873  20.571  23.109  13.939
25338W        W84874  23.665   6.899  11.063
25339W        W84875  26.957   5.264  13.385
25340W        W84876  27.991  21.216   2.263
25341W        W84877  41.908  24.695   2.798
25342W        W84878   8.728  44.412   2.255
25343W        W84879  41.458  31.086   2.875
25344W        W84880  27.019  21.184   3.646
25345W        W84881  10.817  21.051   2.693
25346W        W84882  11.199  13.701  13.930
25347W        W84883   2.270   9.377  14.412
25348W        W84884  18.617  26.563  10.980
25349W        W84885  34.378   3.734   1.272
25350W        W84886  43.331   6.901  10.584
25351W        W84887  16.102  17.749   2.274
25352W        W84888   5.382  44.483   2.187
25353W        W84889  31.510   2.273  14.895
25354W        W84890  31.546   2.896  13.024
25355W        W84891  30.656  41.294  13.899
25356W        W84892  22.590  38.953   2.328
25357W        W84893  18.180   0.966  10.964
25358W        W84894   4.888  44.830   9.943
25359W        W84895   7.895  33.606   0.903
25360W        W84896  23.573  23.107  11.957
25361W        W84897  13.297  31.551  10.890
25362W        W84898  34.942  31.491  10.965
25363W        W84899  32.892  39.488  11.972
25364W        W84900   2.742  26.680  13.359
25365W        W84901  35.980   2.879   3.320
25366W        W84902  38.396   2.383  12.476
25367W        W84903  24.593  44.373   1.727
25368W        W84904  31.905  20.626   1.423
25369W        W84905   8.344  43.010  13.470
25370W        W84906  15.678  34.949  14.834
25371W        W84907   6.222   9.385  13.031
25372W        W84908  43.000  24.190  10.901
25373W        W84909  40.307  12.655  10.508
25374W        W84910   1.333  40.507  12.511
25375W        W84911   2.854  39.821  11.391
25376W        W84912   1.819   0.804   4.350
25377W        W84913  13.712  18.081  12.387
25378W        W84914  43.447  36.031   3.673
25379W        W84915   3.429  25.667   0.339
25380W        W84916  28.639  25.194   3.382
25381W        W84917   3.944  34.530   4.676
25382W        W84918   4.337  17.261  12.501
25383W        W84919  32.467  18.782   0.477
25384W        W84920   1.433  13.246  11.463
25385W        W84921  33.404  17.683   2.194
25386W        W84922  29.447  27.992  14.791
25387W        W84923   9.742  37.436   1.738
25388W        W84924  35.075  24.684   4.617
25389W        W84925  34.539  29.017   2.862
25390W        W84926  39.493   4.413   2.317
25391W        W84927  44.955  21.082   0.367
25392W        W84928  25.175  10.654  12.910
25393W        W84929  18.131  28.139   4.280
25394W        W84930  15.156   2.266  10.487
25395W        W84931   6.363  22.538  14.345
25396W        W84932   8.707   4.707  14.329
25397W        W84933  33.006  31.058  11.447
25398W        W84934  33.979  31.046  13.435
25399W        W84935  10.782  33.904   2.786
25400W        W84936  39.408  31.563  13.918
25401W        W84937  20.640  38.866   0.405
25402W        W84938  44.387   5.290   0.878
25403W        W84939  23.676  40.992   4.336
25404W        W84940  29.641   1.476   1.795
25405W        W84941   9.860  11.853   0.785
25406W        W84942  28.479  19.684   0.869
25407W        W84943  38.487  29.936   4.229
25408W        W84944  30.559  31.639   4.215
25409W        W84945  11.656   7.797  10.032
25410W        W84946   1.962   3.798  13.866
25411W        W84947  40.476  20.192  10.919
25412W        W84948  23.004   9.845   4.175
25413W        W84949   2.297   8.366   2.774
25414W        W84950  44.280  22.213  12.449
25415W        W84951  23.676  36.985   1.438
25416W        W84952  41.001  25.030  12.362
25417W        W84953  28.074  17.278   3.671
25418W        W84954  19.114  31.411  12.563
25419W        W84955   6.692  34.538  10.631
25420W        W84956  30.502  13.118  13.385
25421W        W84957   8.271  41.296   3.280
25422W        W84958  43.494  43.882  13.824
25423W        W84959  44.462  16.620   0.958
25424W        W84960  44.274  17.276  13.908
25425W        W84961  37.479  14.277  13.541
25426W        W84962   9.273  43.808  11.583
25427W        W84963   3.735  20.115  11.506
25428W        W84964  12.782   4.386  11.482
25429W        W84965  12.845  22.633   0.843
25430W        W84966  44.948  16.800  13.800
25431W        W84967  20.186  33.569  12.362
25432W        W84968  26.039  38.868  11.078
25433W        W84969  14.295  38.327  14.769
25434W        W84970  26.007  30.429  14.889
25435W        W84971  31.046   9.859  14.902
25436W        W84972  41.969  39.485   2.231
25437W        W84973  20.710  36.384   2.766
25438W        W84974  17.149  30.093  11.924
25439W        W84975  24.019  21.242   2.367
25440W        W84976  21.549   9.239   3.170
25441W        W84977  31.410  20.182  13.483
25442W        W84978  28.943  24.694  11.894
25443W        W84979  24.981  12.777   1.427
25444W        W84980  43.345  37.056  12.442
25445W        W84981  26.474   6.400   4.321
25446W        W84982   8.871  30.510   3.302
25447W        W84983  36.986  36.427   0.369
25448W        W84984  40.409  11.699  12.500
25449W        W84985  31.406  43.437   4.310
25450W        W84986   3.236  37.927   3.645
25451W        W84987  28.940  15.210   0.942
25452W        W84988  15.583   9.298  11.428
25453W        W84989  37.069  21.167   2.859
25454W        W84990   9.702  34.566   0.337
25455W        W84991  28.594  31.508   2.844
25456W        W84992  37.068   9.723   4.197
25457W        W84993  31.647   3.300  14.347
25458W        W84994  20.245  41.976  10.979
25459W        W84995  30.036  25.990   9.567
25460W        W84996  15.183  25.644   3.348
25461W        W84997  31.569  28.527   4.319
25462W        W84998  30.943  39.035   0.957
25463W        W84999   4.352  16.746   3.273
25464W        W85000  31.581  39.973   0.774
25465W        W85001  22.138  14.202   1.218
25466W        W85002  23.074  35.931  14.280
25467W        W85003  20.063  20.643   2.852
25468W        W85004  24.027   0.840  12.537
25469W        W85005  30.962  12.786   3.326
25470W        W85006   2.366  17.154  11.563
25471W        W85007  15.773  44.784   0.731
25472W        W85008   8.889  21.729  12.391
25473W        W85009  27.488  21.056  10.087
25474W        W85010  41.429  37.065  13.373
25475W        W85011  29.595  17.232   0.288
25476W        W85012  15.642  28.638   0.414
25477W        W85013  15.320  13.663   4.635
25478W        W85014   0.334   0.332   3.747
25479W        W85015  11.679  18.547   0.904
25480W        W85016  38.437  44.412  13.417
25481W        W85017  43.947  13.750   1.325
25482W        W85018  33.480  42.805  13.427
25483W        W85019  10.360   9.202   0.439
25484W        W85020  38.983   7.184  10.911
25485W        W85021  25.630  32.418   1.743
25486W        W85022  42.390  40.970   0.734
25487W        W85023  25.172  15.796  14.930
25488W        W85024  21.237  44.352  10.426
25489W        W85025   8.872  10.330  14.429
25490W        W85026  42.455   6.245   2.855
25491W        W85027  17.261  10.238   1.835
25492W        W85028  35.492  30.101   4.720
25493W        W85029  11.149   7.335  13.390
25494W        W85030  28.635  14.588  12.549
25495W        W85031   2.406  36.046   5.282
25496W        W85032  40.813  37.894  10.511
25497W        W85033  43.784  16.753  12.350
25498W        W85034   6.855   4.835   2.687
25499W        W85035  20.586  35.477   9.634
25500W        W85036  16.158  32.495   4.283
25501W        W85037  26.174  35.920  11.022
25502W        W85038  10.735   4.330   0.774
25503W        W85039  24.678   0.792   3.251
25504W        W85040  28.084   9.729   3.641
25505W        W85041   7.777   4.888   2.731
25506W        W85042  44.465  38.985   1.405
25507W        W85043  39.358   2.743  11.457
25508W        W85044   3.255  11.194  14.847
25509W        W85045  14.639   3.244  10.924
25510W        W85046  31.581   7.689  14.957
25511W        W85047  39.858  25.079   1.234
25512W        W85048   8.343  10.786  12.884
25513W        W85049  21.611  38.456  14.916
25514W        W85050  13.640  35.932  11.981
25515W        W85051  12.625  28.636  10.577
25516W        W85052   1.732   1.269  14.834
25517W        W85053  35.059  14.719   2.364
25518W        W85054  33.966  28.063   4.236
25519W        W85055   5.316  32.499   0.919
25520W        W85056  33.909   9.727   1.323
25521W        W85057  15.705  30.028  11.109
25522W        W85058   3.810   9.182   3.828
25523W        W85059  34.005  26.494  12.961
25524W        W85060   9.365   0.453  13.039
25525W        W85061  11.856  30.052  12.824
25526W        W85062  23.106   7.285   0.373
25527W        W85063  21.624  32.581   1.430
25528W        W85064   4.740  36.851   3.375
25529W        W85065   8.710  39.375   0.897
25530W        W85066   5.696  38.430   2.284
25531W        W85067   1.832  31.613   3.855
25532W        W85068   8.275   7.793  11.921
25533W        W85069   9.330   4.746  12.380
25534W        W85070  21.211  14.219  14.447
25535W        W85071  39.530   0.372   3.672
25536W        W85072  40.389   1.952   3.732
25537W        W85073  20.561  12.672  11.107
25538W        W85074  27.120  31.943   4.725
25539W        W85075   9.271  25.586  10.498
25540W        W85076  33.973   6.878  10.900
25541W        W85077  25.500   4.250   2.868
25542W        W85078  35.442   6.387  13.474
25543W        W85079  24.625  10.173   3.846
25544W        W85080  27.451  35.985  10.995
25545W        W85081  13.322  39.966  13.547
25546W        W85082  22.122  16.614  14.963
25547W        W85083  34.017  12.625   2.776
25548W        W85084  29.152  26.575   5.270
25549W        W85085  11.354  33.058   2.674
25550W        W85086  32.112  36.403  10.530
25551W        W85087  41.892  19.713   4.188
25552W        W85088   7.887  14.605   0.301
25553W        W85089  44.316  37.067   4.350
25554W        W85090  18.782  24.536  10.623
25555W        W85091   8.363  17.689  13.515
25556W        W85092  43.850   0.442   2.207
25557W        W85093  11.661  33.082  12.512
25558W        W85094  32.560  19.174  13.867
25559W        W85095  26.960  34.051  12.448
25560W        W85096  23.617  40.532   4.722
25561W        W85097  33.438  40.459  13.487
25562W        W85098  16.165  11.712   0.288
25563W        W85099  24.104   9.359  11.893
25564W        W85100  30.030  29.070   3.284
25565W        W85101  42.856   3.269  11.069
25566W        W85102  38.409  14.824  12.411
25567W        W85103  38.466   0.890  13.539
25568W        W85104  43.845  40.520  14.377
25569W        W85105   6.303  26.651  12.090
25570W        W85106  23.000  38.025  13.530
25571W        W85107  29.144   9.648   3.847
25572W        W85108   2.943  10.679   0.766
25573W        W85109   1.434  13.202   0.410
25574W        W85110   1.793  37.962   3.304
25575W        W85111  42.417  41.833   2.323
25576W        W85112  12.162  25.138   3.744
25577W        W85113  10.315  37.076  14.328
25578W        W85114   7.695  35.020   3.164
25579W        W85115  13.204  10.322  14.316
25580W        W85116   0.812  20.151   2.831
25581W        W85117  25.577   8.362   3.276
25582W        W85118  26.007   4.862  12.075
25583W        W85119  40.538  17.064   0.380
25584W        W85120   5.809   7.770   3.810
25585W        W85121  23.548  24.642   2.340
25586W        W85122  33.481  28.643  12.085
25587W        W85123  20.723  18.275   4.676
25588W        W85124  39.993  39.852   1.355
25589W        W85125  19.100  12.138  12.570
25590W        W85126  29.494  29.442  14.991
25591W        W85127  12.284  14.827  14.822
25592W        W85128  32.630  20.066   0.416
25593W        W85129  28.999  32.988   4.228
25594W        W85130   6.919  29.566  10.566
25595W        W85131  32.922  13.720  10.938
25596W        W85132   3.219  12.842   3.746
25597W        W85133  23.072  13.142   3.156
25598W        W85134   4.232  24.492   3.694
25599W        W85135  25.709  10.150  14.280
25600W        W85136   6.922  27.487  11.094
25601W        W85137  28.935  19.150   2.859
25602W        W85138  32.967   9.157   3.347
25603W        W85139  18.678  36.002   4.831
25604W        W85140  16.728  16.277   3.182
25605W        W85141  15.093  27.500  13.409
25606W        W85142  34.956   6.427   3.675
25607W        W85143  32.391   4.396   3.241
25608W        W85144   8.359  29.128  14.442
25609W        W85145  26.577   0.919   3.166
25610W        W85146  29.009  35.890  10.627
25611W        W85147  13.603  27.564   0.829
25612W        W85148  24.683  40.429   2.691
25613W        W85149  36.547  11.786   5.265
25614W        W85150  43.863   5.433   3.825
25615W        W85151  32.133   4.425  12.855
25616W        W85152  29.575  13.724  11.051
25617W        W85153  12.156  18.258  12.978
25618W        W85154  41.835  21.132   0.762
25619W        W85155  25.565  23.072   2.338
25620W        W85156  28.133  22.705  10.513
25621W        W85157  38.884  36.898  11.595
25622W        W85158   7.895   8.270   1.871
25623W        W85159  26.057   4.757   2.799
25624W        W85160  12.263  13.264   3.719
25625W        W85161  24.528  29.449  10.577
25626W        W85162  22.065   5.877  14.286
25627W        W85163  17.073  35.490   1.326
25628W        W85164  16.724  42.803   0.435
25629W        W85165  18.600  12.145   4.751
25630W        W85166  13.637  14.798  10.428
25631W        W85167  37.437  44.008   2.880
25632W        W85168   5.834   8.372   3.320
25633W        W85169  42.890  23.055   1.800
25634W        W85170  41.475   3.313  14.462
25635W        W85171  15.811  26.540  11.584
25636W        W85172  17.089  41.413  11.544
25637W        W85173  40.875  30.092  13.796
25638W        W85174  12.697  41.529   4.746
25639W        W85175  10.367  44.400  14.010
25640W        W85176  12.235   2.919   1.365
25641W        W85177  37.571   6.831   4.824
25642W        W85178  40.371   0.485   4.296
25643W        W85179  16.650  27.127   2.778
25644W        W85180   7.666  34.002  13.912
25645W        W85181  18.234  34.437   2.304
25646W        W85182  26.043  42.459   1.741
25647W        W85183  35.921   1.444  13.378
25648W        W85184   0.301  11.842   1.787
25649W        W85185  37.909  19.702  10.538
25650W        W85186  24.130   6.722  14.486
25651W        W85187  10.670  25.527   4.310
25652W        W85188   7.854  17.766   2.334
25653W        W85189  33.402  44.915   1.241
25654W        W85190  36.043  19.756  12.460
25655W        W85191  42.790  33.599  11.466
25656W        W85192  27.148  29.486  10.597
25657W        W85193  11.152   0.751   2.720
25658W        W85194  12.824  24.025  14.787
25659W        W85195   9.241  28.505   9.982
25660W        W85196  41.306   0.967   1.431
25661W        W85197  28.004   2.317  11.123
25662W        W85198   0.796  29.967   1.356
25663W        W85199  17.769  10.695  12.490
25664W        W85200  32.933  29.463   5.664
25665W        W85201  43.813   2.459   2.701
25666W        W85202   8.387  17.279  10.446
25667W        W85203  11.624  18.204  13.403
25668W        W85204  32.026  32.631   1.312
25669W        W85205  44.487  23.197  12.963
25670W        W85206  30.140  13.630   0.777
25671W        W85207  20.634   4.856   2.201
25672W        W85208  32.564  27.941  10.115
25673W        W85209  27.154  14.254  11.902
25674W        W85210  37.497  29.919  10.486
25675W        W85211  25.634   9.262  10.464
25676W        W85212  30.617  26.590  10.038
25677W        W85213  32.911   3.752  11.416
25678W        W85214  12.302  29.507   4.609
25679W        W85215  15.193  18.283  11.459
25680W        W85216  28.987  35.460  13.906
25681W        W85217  26.483  38.418  13.331
25682W        W85218  27.075  29.055  14.901
25683W        W85219  43.793  43.397   1.430
25684W        W85220  28.991  15.197   1.929
25685W        W85221  14.647   9.869  13.852
25686W        W85222  36.952   1.462   1.812
25687W        W85223  41.301  26.462  12.483
25688W        W85224  24.599   2.963  13.893
25689W        W85225  10.817  21.036   5.141
25690W        W85226  31.570  29.070  13.834
25691W        W85227  44.938  24.683  12.553
25692W        W85228  40.350  32.978  11.443
25693W        W85229  34.913  33.012  12.359
25694W        W85230   5.364  41.808   4.673
25695W        W85231  20.139   3.764   1.440
25696W        W85232  29.518  22.630  13.827
25697W        W85233   6.335  37.845  10.942
25698W        W85234  13.259   4.350  10.418
25699W        W85235  23.621  10.303  10.086
25700W        W85236   4.320   7.280   1.711
25701W        W85237  20.189  25.625  11.588
25702W        W85238  43.454   1.304  12.847
25703W        W85239  30.414  17.768   2.306
25704W        W85240  11.734  36.382  11.547
25705W        W85241   5.294   5.369  10.937
25706W        W85242  39.340  31.464   2.247
25707W        W85243  11.662  39.875  12.419
25708W        W85244  14.211  34.382   3.231
25709W        W85245  42.821  23.498  10.560
25710W        W85246  37.898  32.895   0.370
25711W        W85247  30.001   5.354  12.409
25712W        W85248   1.449  28.496  11.086
25713W        W85249  27.192   5.310  14.967
25714W        W85250  38.375  37.911   2.731
25715W        W85251  44.375  29.080   4.688
25716W        W85252   7.907  32.901  12.544
25717W        W85253  19.140   8.165   3.321
25718W        W85254   8.886  25.186   0.443
25719W        W85255  41.454  29.139  14.282
25720W        W85256  22.635  15.282  13.511
25721W        W85257  34.022   2.895  14.800
25722W        W85258  23.505  37.567   2.709
25723W        W85259   2.234  10.646   3.673
25724W        W85260  16.693  36.971  11.406
25725W        W85261  36.083  27.067  10.009
25726W        W85262  44.410  12.798   5.220
25727W        W85263  32.621   4.795   3.726
25728W        W85264  18.190  16.611   2.391
25729W        W85265   9.297   8.397   2.283
25730W        W85266  23.571  42.955  13.341
25731W        W85267   9.241  41.861   3.337
25732W        W85268   5.324  23.626   2.362
25733W        W85269   0.753  30.994   4.734
25734W        W85270  27.998  22.214   1.263
25735W        W85271  39.896  17.664   2.762
25736W        W85272  44.284  15.310   0.915
25737W        W85273   3.242   1.973  11.447
25738W        W85274  21.234   2.900   2.894
25739W        W85275   3.408   8.269   4.754
25740W        W85276   1.863  18.786   0.452
25741W        W85277  22.719   7.236   1.213
25742W        W85278   3.461  33.383   5.294
25743W        W85279  28.626   7.749   2.867
25744W        W85280  13.720   9.324  11.472
25745W        W85281  38.367   4.386  14.813
25746W        W85282  15.311  29.559   0.806
25747W        W85283   3.402  37.861  12.061
25748W        W85284  25.512  25.095  10.602
25749W        W85285   7.332  41.454   1.870
25750W        W85286  21.563  23.134   4.831
25751W        W85287   6.706   9.270  11.868
25752W        W85288  30.103  26.501  11.423
25753W        W85289   8.318  12.312  13.369
25754W        W85290  27.639  26.126  12.557
25755W        W85291  21.681  30.414  13.896
25756W        W85292   0.323   3.812   4.758
25757W        W85293   8.202  27.143  12.349
25758W        W85294   3.814  34.954  12.076
25759W        W85295   9.782  31.517  13.044
25760W        W85296  23.056   6.365  13.516
25761W        W85297  38.381   6.768  12.880
25762W        W85298  36.527  26.200  11.472
25763W        W85299  25.149  15.177   4.228
25764W        W85300  33.129  26.998   4.679
25765W        W85301  15.243  12.259  13.060
25766W        W85302  14.122  33.079  14.366
25767W        W85303  43.386  23.099   0.286
25768W        W85304  16.724  15.246  11.543
25769W        W85305   8.656   4.348  13.500
25770W        W85306  37.995  38.350  14.798
25771W        W85307  18.560   8.688  10.994
25772W        W85308  32.022  27.125  11.412
25773W        W85309  22.705  35.063   1.223
25774W        W85310   8.240  40.008  13.456
25775W        W85311  27.009  15.292   2.760
25776W        W85312  44.969  16.213   3.150
25777W        W85313  10.694  35.551  10.895
25778W        W85314   1.238  22.193  13.318
25779W        W85315  36.989  10.223   2.813
25780W        W85316  28.501  22.727   0.335
25781W        W85317  22.159  23.503  11.462
25782W        W85318  12.197   5.841  10.067
25783W        W85319   6.358  26.657   0.385
25784W        W85320  22.199   2.405  10.503
25785W        W85321  30.606   7.299   4.820
25786W        W85322  28.111  27.677   0.778
25787W        W85323  13.604  38.384  14.383
25788W        W85324  28.094  43.936   4.719
25789W        W85325   7.361  10.643   4.140
25790W        W85326  11.352  43.962   2.264
25791W        W85327  27.999  39.928   0.398
25792W        W85328   8.878  41.936  13.975
25793W        W85329  30.640  38.868  13.475
25794W        W85330  25.686  35.977   1.790
25795W        W85331  15.767  21.620   0.833
25796W        W85332  17.133  14.236   1.443
25797W        W85333  32.142  37.072   4.684
25798W        W85334  31.522  10.846   2.316
25799W        W85335  10.366  21.161   2.372
25800W        W85336   9.244  15.295   3.786
25801W        W85337  43.441   7.746   2.310
25802W        W85338  41.800  33.021   3.856
25803W        W85339  16.232   6.767   4.224
25804W        W85340   2.786  35.365  13.809
25805W        W85341  38.831   3.766   4.243
25806W        W85342  25.992  26.080   4.763
25807W        W85343  22.516  19.637   4.621
25808W        W85344  21.183   1.963   3.752
25809W        W85345  35.013   0.417   3.637
25810W        W85346   1.898   6.887  14.994
25811W        W85347  20.109  18.731   3.272
25812W        W85348  27.665  38.376   3.670
25813W        W85349   7.195  22.214  12.425
25814W        W85350   6.720  33.616   4.163
25815W        W85351  18.708   7.869  13.471
25816W        W85352   1.836  44.438  10.597
25817W        W85353  11.289  37.934   3.359
25818W        W85354   7.709   0.831  11.405
25819W        W85355  14.102  24.504   1.758
25820W        W85356  12.675  19.687  11.026
25821W        W85357   2.282  42.008   3.744
25822W        W85358   8.829  10.182   1.816
25823W        W85359  13.781  21.549  11.932
25824W        W85360  40.525  20.088   1.338
25825W        W85361  22.144   5.912  10.492
25826W        W85362  27.582  43.271  10.587
25827W        W85363  13.351  16.735  14.848
25828W        W85364  12.256  13.800   3.323
25829W        W85365  31.626  10.756  10.631
25830W        W85366   2.323  27.639   1.859
25831W        W85367  14.319  11.156   1.224
25832W        W85368  22.701  10.695  13.059
25833W        W85369  12.222   9.223  14.871
25834W        W85370  10.833  27.175   0.847
25835W        W85371   5.349   4.447   3.713
25836W        W85372  26.557  27.033   3.663
25837W        W85373  31.151  22.579  11.977
25838W        W85374  17.575   6.906   1.855
25839W        W85375  17.182  12.148  11.437
25840W        W85376  20.134  33.407  14.777
25841W        W85377  44.861  14.668   0.946
25842W        W85378  27.161  29.139   3.231
25843W        W85379  10.220  16.719   3.236
25844W        W85380   3.904  38.925  10.034
25845W        W85381  39.061  12.143   2.782
25846W        W85382  26.614  42.836  10.930
25847W        W85383  44.487  39.326  10.471
25848W        W85384  16.812  44.759  10.951
25849W        W85385  44.413  29.658   1.416
25850W        W85386  18.645  10.835  13.463
25851W        W85387  27.115  12.277   0.329
25852W        W85388  13.669  16.184  13.387
25853W        W85389  33.621  31.539   2.230
25854W        W85390  13.800  13.310  12.037
25855W        W85391   9.853   1.449  13.434
25856W        W85392  10.384  13.650   5.141
25857W        W85393   2.285  34.919  14.878
25858W        W85394  12.209  18.728  12.859
25859W        W85395  27.980  43.018   4.306
25860W        W85396  35.581   9.741   3.219
25861W        W85397  22.099   3.710  10.125
25862W        W85398  20.071  15.700   4.246
25863W        W85399  15.115   7.819   0.847
25864W        W85400   5.232  33.577   1.840
25865W        W85401  27.573   5.345  14.515
25866W        W85402  40.407  26.606  12.007
25867W        W85403  12.628  27.576  13.436
25868W        W85404  10.782  14.719  14.871
25869W        W85405  10.643  43.795  13.410
25870W        W85406  33.575  15.150   2.790
25871W        W85407  40.384  19.684   3.720
25872W        W85408  16.650  31.514   2.333
25873W        W85409  30.597  25.053   0.260
25874W        W85410  32.470  34.895  11.420
25875W        W85411  21.740  37.984   2.676
25876W        W85412   5.381  37.942   0.335
25877W        W85413  29.034  24.540   4.267
25878W        W85414  15.696  10.697   1.847
25879W        W85415  35.391  26.629   5.771
25880W        W85416   1.480   1.887  14.798
25881W        W85417  29.965   2.263   3.726
25882W        W85418  18.657  25.704  12.825
25883W        W85419  16.782  37.579   2.688
25884W        W85420   8.216  19.676   4.231
25885W        W85421  15.811  22.995  14.911
25886W        W85422  28.447   6.719  12.486
25887W        W85423  43.362  34.013  13.417
25888W        W85424  24.009  40.399  14.403
25889W        W85425  34.403  26.642   2.849
25890W        W85426  19.760  30.124  11.384
25891W        W85427  33.592   7.798  13.491
25892W        W85428  17.621   1.321  12.983
25893W        W85429  37.549  19.760   2.342
25894W        W85430  30.128   7.894  12.031
25895W        W85431   8.281   8.685  12.452
25896W        W85432  24.101  38.922   3.289
25897W        W85433  13.256   5.201   3.716
25898W        W85434  18.074  25.175   2.307
25899W        W85435  10.868  37.992  10.984
25900W        W85436  16.263   7.301  13.997
25901W        W85437  29.531  27.529  12.576
25902W        W85438  21.047  37.557  13.810
25903W        W85439  14.610   0.751  13.962
25904W        W85440  26.666  10.836   3.167
25905W        W85441  39.903  10.218   1.381
25906W        W85442  22.717  32.142  12.424
25907W        W85443  42.462   6.771   1.893
25908W        W85444  18.707  18.629  14.027
25909W        W85445  28.521  16.614  14.904
25910W        W85446   0.473  43.404   1.214
25911W        W85447  16.310  18.549  12.526
25912W        W85448   9.772  35.424  12.570
25913W        W85449  24.031  28.446   1.448
25914W        W85450   4.352   8.222  12.575
25915W        W85451  17.564  42.936   2.283
25916W        W85452  36.874  31.447   3.293
25917W        W85453  41.871  20.243   3.811
25918W        W85454  26.049  30.622  11.486
25919W        W85455  10.755  37.874   2.209
25920W        W85456  34.479  34.415   4.210
25921W        W85457  18.093  12.625   4.691
25922W        W85458  44.841  34.900   0.298
25923W        W85459  39.883   7.344  12.921
25924W        W85460   3.242  19.082   1.306
25925W        W85461  10.146  34.371  11.988
25926W        W85462  12.229  29.657  11.956
25927W        W85463  20.741  13.259   4.833
25928W        W85464  15.284  25.029  13.959
25929W        W85465  25.538  37.368   4.828
25930W        W85466  31.427  30.608   1.327
25931W        W85467   4.904   2.870  10.946
25932W        W85468  32.029  22.087  10.061
25933W        W85469  29.516  44.970  14.330
25934W        W85470  31.544  31.038   2.306
25935W        W85471  37.830  27.497   4.698
25936W        W85472   5.437  17.182  12.580
25937W        W85473  18.237  44.382   0.859
25938W        W85474  31.118   0.353  13.392
25939W        W85475  15.099  18.744  11.395
25940W        W85476   7.311  41.879  11.423
25941W        W85477  38.943  28.459   2.406
25942W        W85478   0.280  12.234   0.276
25943W        W85479  27.515   5.322  11.473
25944W        W85480  40.798   2.414   1.434
25945W        W85481  16.188  42.785   1.903
25946W        W85482  30.147  15.227  12.842
25947W        W85483  17.663  34.488   2.257
25948W        W85484  24.095  33.019  13.546
25949W        W85485  17.061  44.961  10.041
25950W        W85486   0.979  36.031   5.291
25951W        W85487  12.708   3.297   1.256
25952W        W85488  11.746  36.587   1.266
25953W        W85489  12.149  42.901  12.517
25954W        W85490   4.924   4.781  14.819
25955W        W85491  19.540  38.337  12.485
25956W        W85492  38.826  11.774   5.206
25957W        W85493  29.101  32.031   1.227
25958W        W85494  23.678  23.096  12.971
25959W        W85495   3.718  23.547  11.879
25960W        W85496  26.486  34.996  13.356
25961W        W85497  23.141  19.772   1.355
25962W        W85498  21.649  10.706   4.722
25963W        W85499  39.355   0.814  14.953
25964W        W85500  11.222  27.672   9.989
25965W        W85501  19.557   7.309   1.338
25966W        W85502   8.371  39.340   1.844
25967W        W85503  33.093  16.222  10.915
25968W        W85504   7.892  40.323   4.671
25969W        W85505  31.475  39.499   3.763
25970W        W85506  35.904  41.377   1.827
25971W        W85507  31.938  24.203  13.427
25972W        W85508  33.511  35.420  14.316
25973W        W85509  20.640  30.054  10.567
25974W        W85510  15.736  17.066   0.471
25975W        W85511   1.368  11.271  10.997
25976W        W85512  14.723  24.573  12.389
25977W        W85513  28.995  40.519   0.417
25978W        W85514   2.438  18.695   2.740
25979W        W85515  23.727  18.758   0.765
25980W        W85516  16.220  31.572   3.188
25981W        W85517  42.350  17.104  13.320
25982W        W85518   8.214  18.634  14.818
25983W        W85519   1.432  20.596   3.759
25984W        W85520  38.917  28.108  13.398
25985W        W85521  14.296  16.809  11.101
25986W        W85522  22.714  26.977   2.386
25987W        W85523  19.738  11.836   5.160
25988W        W85524   4.751  43.991  11.031
25989W        W85525   3.858  40.358   0.744
25990W        W85526  34.429   4.867  12.460
25991W        W85527  40.862  18.697   2.222
25992W        W85528  30.541  20.763   2.665
25993W        W85529  32.613  40.359   2.325
25994W        W85530  16.780  18.770  12.860
25995W        W85531  15.187  14.169   0.894
25996W        W85532  38.956   4.363   3.305
25997W        W85533  14.661   2.309  12.843
25998W        W85534  23.565  26.994   4.612
25999W        W85535  27.176  26.118   1.330
26000W        W85536   2.318   4.742  14.907
26001W        W85537  16.114  30.639  10.923
26002W        W85538   4.705  12.167  12.413
26003W        W85539  36.550  39.324   2.669
26004W        W85540   8.660  12.740   0.341
26005W        W85541  29.999  18.066   4.317
26006W        W85542  16.685   1.315  14.426
26007W        W85543  30.643   8.802   3.815
26008W        W85544   1.865  43.911   2.246
26009W        W85545  32.560  43.352  14.783
26010W        W85546  14.293  37.572   9.937
26011W        W85547  28.976  41.829  12.837
26012W        W85548  40.322  16.743  14.342
26013W        W85549  35.535  28.662   2.280
26014W        W85550  30.535  13.659   1.411
26015W        W85551  40.387  11.645  10.597
26016W        W85552   5.415  28.636   0.905
26017W        W85553  17.200  15.288   0.825
26018W        W85554  26.187  14.220   3.192
26019W        W85555  26.047  18.286   0.258
26020W        W85556  29.157  31.044   3.803
26021W        W85557  19.739  10.213   5.146
26022W        W85558  44.350   8.742  14.300
26023W        W85559   2.938   6.315   0.370
26024W        W85560  26.649   0.320   4.611
26025W        W85561   0.916   6.232   5.100
26026W        W85562   7.200  29.498   9.953
26027W        W85563  19.553  43.800  11.957
26028W        W85564  44.297  26.633   3.271
26029W        W85565  42.847   4.444   3.261
26030W        W85566   9.821  17.228   0.871
26031W        W85567  43.369  31.479   4.629
26032W        W85568   1.426   5.318   2.345
26033W        W85569  12.356  24.668   4.208
26034W        W85570   4.854  39.378   0.389
26035W        W85571   7.680  10.852   4.149
26036W        W85572  41.494  16.801   0.404
26037W        W85573  38.442  13.741   4.320
26038W        W85574  16.636   3.310   1.742
26039W        W85575  41.531  36.005  11.002
26040W        W85576   5.233   2.918   2.227
26041W        W85577  20.030  29.612  13.060
26042W        W85578   2.451   8.208  12.000
26043W        W85579   6.282  18.709  12.578
26044W        W85580   2.914   1.798  11.573
26045W        W85581  13.256  26.568  12.989
26046W        W85582   0.467  10.792   1.929
26047W        W85583  20.708   0.387   1.250
26048W        W85584  36.981   0.755  13.419
26049W        W85585  23.221   5.438   1.342
26050W        W85586  28.526  41.386   4.255
26051W        W85587  37.494  28.447   1.797
26052W        W85588   3.949   0.416  14.301
26053W        W85589  22.076  38.393   2.236
26054W        W85590  42.872   0.466  11.866
26055W        W85591  15.635  13.253   0.837
26056W        W85592  18.101  20.265  10.091
26057W        W85593   1.783   2.384   2.726
26058W        W85594  17.216  13.298   3.789
26059W        W85595  19.106  21.113  11.872
26060W        W85596   2.822  12.347   1.875
26061W        W85597  30.022  34.051   3.319
26062W        W85598   3.371  14.799   0.293
26063W        W85599  41.871  36.455  14.382
26064W        W85600  44.999  19.073   0.343
26065W        W85601  19.647  27.567   0.928
26066W        W85602  22.746  32.025   5.267
26067W        W85603  15.751   7.361   3.234
26068W        W85604   8.806  35.965  10.531
26069W        W85605  12.835  32.893   1.893
26070W        W85606  17.606   2.926   0.763
26071W        W85607  36.441  25.158   1.807
26072W        W85608  28.128  23.556  11.859
26073W        W85609  35.405  18.271   0.927
26074W        W85610  17.700  11.664  14.879
26075W        W85611   3.443  32.904   2.747
26076W        W85612  40.879  34.884  12.985
26077W        W85613  15.579  38.914  14.028
26078W        W85614  36.046   4.710  14.370
26079W        W85615   5.364  13.312   4.236
26080W        W85616  41.433  32.064  13.381
26081W        W85617  17.655  43.847   0.250
26082W        W85618  13.682  34.453   1.879
26083W        W85619  25.024  37.976   2.820
26084W        W85620  10.690   4.441  13.422
26085W        W85621  38.550  34.470  13.380
26086W        W85622   3.812  10.167   4.665
26087W        W85623  40.356  38.921   5.172
26088W        W85624  37.447  15.747  10.585
26089W        W85625  14.767  40.931   2.878
26090W        W85626   0.862  44.912   1.274
26091W        W85627  25.966  40.398  11.120
26092W        W85628  30.546  35.388  12.397
26093W        W85629  38.057   6.279   3.710
26094W        W85630  10.874  20.032   1.856
26095W        W85631  14.690  42.886   0.817
26096W        W85632  44.341  35.000   5.241
26097W        W85633  13.604  38.483   4.340
26098W        W85634  15.223  30.008   1.879
26099W        W85635   5.258  17.681  13.988
26100W        W85636  32.577   6.317   3.668
26101W        W85637  39.505  38.376   3.694
26102W        W85638  12.691   5.342  12.379
26103W        W85639  19.044  26.148  14.461
26104W        W85640  42.483   4.216   1.868
26105W        W85641  14.268  28.576   2.293
26106W        W85642   4.366  21.594   3.791
26107W        W85643   9.281  28.004  12.869
26108W        W85644  22.102   9.839  11.544
26109W        W85645  10.783  44.499  12.085
26110W        W85646  42.931  12.611   2.763
26111W        W85647   6.726  31.439   4.315
26112W        W85648  32.588  24.064  11.545
26113W        W85649  32.431   0.934  10.994
26114W        W85650  28.444   9.764   3.337
26115W        W85651  34.941   6.230   0.861
26116W        W85652  15.673  33.073   1.862
26117W        W85653  40.047   4.884  13.976
26118W        W85654  24.138  15.299   2.216
26119W        W85655  25.515   2.351  10.534
26120W        W85656   2.771   5.757   1.411
26121W        W85657   3.406  40.339  14.797
26122W        W85658  39.011   2.811  12.894
26123W        W85659  33.117  30.036  13.524
26124W        W85660   3.881  44.349  13.445
26125W        W85661  39.492  19.168   2.207
26126W        W85662  32.552  33.565  11.956
26127W        W85663  19.240  35.556  14.312
26128W        W85664  35.887  38.475   2.798
26129W        W85665  22.212  35.882   2.363
26130W        W85666   9.678  34.571   2.859
26131W        W85667   8.760  36.481  14.791
26132W        W85668   3.374  18.558  10.917
26133W        W85669  37.047  44.263  10.575
26134W        W85670  27.031  44.845   0.295
26135W        W85671  35.474   5.368  11.611
26136W        W85672  17.739  27.097  12.517
26137W        W85673  30.089  33.380  13.044
26138W        W85674  12.754  41.985   2.366
26139W        W85675  20.148   0.851  12.398
26140W        W85676  36.891   9.314  11.486
26141W        W85677  14.709  33.511  10.004
26142W        W85678  25.563  31.455  13.336
26143W        W85679   4.382   6.685  13.027
26144W        W85680  32.490  37.026  10.616
26145W        W85681   2.895   0.277  13.444
26146W        W85682   1.934  33.406   3.673
26147W        W85683  12.177  41.494  11.494
26148W        W85684  42.447   5.374  12.339
26149W        W85685   0.925  41.847  14.503
26150W        W85686  32.116  33.937  12.375
26151W        W85687  30.598  10.692   0.457
26152W        W85688  14.662   1.289  12.974
26153W        W85689  17.108  32.603   4.701
26154W        W85690  11.851   9.229  12.097
26155W        W85691  16.263  16.312  11.406
26156W        W85692  31.910  10.364  10.511
26157W        W85693  27.080   1.834  12.915
26158W        W85694  35.440  32.024  13.446
26159W        W85695  34.960  29.465   2.308
26160W        W85696  12.164  34.564   4.348
26161W        W85697  32.045  11.283  10.603
26162W        W85698   0.276  15.265   9.672
26163W        W85699  14.159  28.439  12.882
26164W        W85700   3.848  18.272   2.233
26165W        W85701  16.284  39.891   3.866
26166W        W85702  23.033  27.104  12.880
26167W        W85703  41.465  19.214   0.401
26168W        W85704  38.844  11.653  13.930
26169W        W85705  18.257   0.277  11.053
26170W        W85706  19.686  38.480  11.560
26171W        W85707  25.198  44.889  13.912
26172W        W85708  21.066   0.881  13.828
26173W        W85709  35.964  14.628  12.888
26174W        W85710  21.580  16.664   0.814
26175W        W85711  12.149  35.857   4.815
26176W        W85712  11.844  19.572   1.438
26177W        W85713   6.185  23.097   4.313
26178W        W85714  44.893  36.910   4.190
26179W        W85715  17.762  39.855  14.963
26180W        W85716  35.881  23.590  11.021
26181W        W85717  16.225  28.461   0.290
26182W        W85718  36.940   3.238  12.864
26183W        W85719  19.707  42.425  12.925
26184W        W85720  20.686  36.049  14.494
26185W        W85721  13.277  21.091   2.244
26186W        W85722   7.869  43.351  13.794
26187W        W85723   8.295   8.780  11.879
26188W        W85724  31.458   8.697   2.400
26189W        W85725  16.768  42.336   2.754
26190W        W85726  22.720  18.083   0.248
26191W        W85727  42.857  40.464  11.581
26192W        W85728  30.451  27.178   4.729
26193W        W85729   6.388   6.731  11.889
26194W        W85730  19.053   4.361  13.906
26195W        W85731  33.954  27.635  12.889
26196W        W85732  26.126  11.365  10.892
26197W        W85733   9.272   2.890   4.147
26198W        W85734   3.941  10.718   1.713
26199W        W85735   2.327   2.793  13.830
26200W        W85736  40.844  12.175  10.997
26201W        W85737   0.863  19.214   2.722
26202W        W85738  25.000   8.229  10.611
26203W        W85739  40.381   1.244  13.940
26204W        W85740  10.826  31.603   0.329
26205W        W85741  35.436  19.591  12.372
26206W        W85742  22.180  27.573  11.067
26207W        W85743  42.823  20.557   4.153
26208W        W85744  20.710  32.480  12.975
26209W        W85745  14.760   8.203   3.656
26210W        W85746  27.076  23.060  13.371
26211W        W85747   7.415  42.442  11.526
26212W        W85748  40.857   9.841  12.903
26213W        W85749  17.134  27.024   0.881
26214W        W85750  38.488  22.066  11.552
26215W        W85751  10.789  20.728   2.694
26216W        W85752  30.450  22.651   2.335
26217W        W85753  43.987  22.629   4.161
26218W        W85754  43.018  28.671  14.020
26219W        W85755  39.941  43.379   4.656
26220W        W85756  24.129  39.958   4.245
26221W        W85757  41.294   8.751  13.817
26222W        W85758  42.974  21.650   3.317
26223W        W85759  31.499  12.799  12.372
26224W        W85760  26.643  12.260   1.218
26225W        W85761  37.479  11.652   2.794
26226W        W85762  28.177   2.401  14.786
26227W        W85763  33.070  37.955  14.002
26228W        W85764  40.005   0.859   3.843
26229W        W85765  28.050  13.836   2.313
26230W        W85766   0.772  42.481  13.905
26231W        W85767  27.113  14.832  10.576
26232W        W85768  21.719  34.593  14.310
26233W        W85769  27.112  40.482  14.772
26234W        W85770  12.741  18.289   1.386
26235W        W85771  35.915  37.384   1.894
26236W        W85772  37.354   0.809   1.902
26237W        W85773   7.409   2.284   0.922
26238W        W85774  24.058  24.682  11.890
26239W        W85775  19.245  15.316   4.119
26240W        W85776  36.970  23.623   0.770
26241W        W85777  22.189  20.121  13.373
26242W        W85778  13.763   7.269  14.984
26243W        W85779  14.802  25.529  13.368
26244W        W85780   6.834   3.295   3.794
26245W        W85781  27.529  18.622  10.582
26246W        W85782   3.774  39.911   3.759
26247W        W85783  33.924  17.558  14.511
26248W        W85784  43.464  21.064   4.210
26249W        W85785   4.339   2.815   3.845
26250W        W85786   1.899  16.709   4.239
26251W        W85787  15.818  14.798   0.432
26252W        W85788  28.173   4.746   3.325
26253W        W85789  36.989  27.465  11.908
26254W        W85790  28.996  32.530  10.481
26255W        W85791  21.547  32.096  12.079
26256W        W85792  38.973  31.415  10.078
26257W        W85793  41.880  10.283  13.456
26258W        W85794  23.046  38.007  10.054
26259W        W85795  42.463  12.623  12.521
26260W        W85796  36.372  11.745  11.385
26261W        W85797  17.750  23.108   4.637
26262W        W85798  10.639  12.673   4.164
26263W        W85799  43.787   7.813   1.327
26264W        W85800  42.337  43.343   4.341
26265W        W85801  31.568  16.223  12.410
26266W        W85802  20.577   5.711   4.639
26267W        W85803  16.697  37.951  13.448
26268W        W85804  32.074  24.683  10.498
26269W        W85805  19.762  36.357   1.394
26270W        W85806   7.310   0.413  11.580
26271W        W85807  11.735  24.708   3.348
26272W        W85808   5.420   4.945  13.003
26273W        W85809  42.459  29.957   0.415
26274W        W85810  25.147  23.187   0.947
26275W        W85811  10.285  14.831  14.016
26276W        W85812  38.935  21.638  14.929
26277W        W85813  13.333  27.451  14.865
26278W        W85814  28.061  11.245   3.838
26279W        W85815   8.392   7.702  10.442
26280W        W85816  13.343  36.947  11.088
26281W        W85817   6.378   4.256  10.525
26282W        W85818   2.809  29.033  10.112
26283W        W85819  28.934   1.941  11.450
26284W        W85820  27.974  23.598   2.798
26285W        W85821   3.787   8.790   4.764
26286W        W85822  19.776  38.821  14.287
26287W        W85823  21.225  14.613   4.690
26288W        W85824  34.099   1.344   3.316
26289W        W85825  20.745  44.369   4.194
26290W        W85826  25.022  16.201   4.749
26291W        W85827  25.610   7.741  13.003
26292W        W85828  28.529  21.602   3.285
26293W        W85829  30.567  40.887  14.383
26294W        W85830  22.102  38.366   3.771
26295W        W85831  11.809  33.088   4.624
26296W        W85832  40.853  39.532  11.995
26297W        W85833  17.254  19.665   1.309
26298W        W85834   7.309  28.044  11.589
26299W        W85835  24.614  19.707   3.301
26300W        W85836  38.019   9.161  14.946
26301W        W85837  27.642  25.966   0.367
26302W        W85838  26.476  44.306   5.174
26303W        W85839  10.361  35.024  13.046
26304W        W85840  17.645  31.644   4.302
26305W        W85841  43.001  14.155   3.679
26306W        W85842   7.201  31.537  13.892
26307W        W85843  38.011  26.606   0.358
26308W        W85844  24.118  44.007  12.095
26309W        W85845  31.625  31.970  14.766
26310W        W85846  30.068  10.690   3.788
26311W        W85847  21.550  19.243  12.565
26312W        W85848  33.607   4.886   3.676
26313W        W85849  12.321  11.145  13.440
26314W        W85850  38.846  27.085  13.983
26315W        W85851   6.273  12.128  14.468
26316W        W85852  35.483   5.289   2.217
26317W        W85853  20.643   7.248  13.005
26318W        W85854  33.884   5.757   1.895
26319W        W85855  29.990  14.303   3.308
26320W        W85856  11.648  16.212   4.316
26321W        W85857  19.738  21.082  13.912
26322W        W85858  36.579  28.609  10.620
26323W        W85859  14.328  42.816   3.685
26324W        W85860  40.452  43.467  14.905
26325W        W85861   8.770  13.143   0.342
26326W        W85862   4.799   7.202  13.903
26327W        W85863   8.370  16.274  10.590
26328W        W85864  36.441  39.393   4.598
26329W        W85865  10.263  27.555  14.014
26330W        W85866   8.251  21.717  13.934
26331W        W85867   8.242  21.082  14.022
26332W        W85868   5.247  20.175  13.332
26333W        W85869  12.203  13.305  11.399
26334W        W85870  17.604  35.522  12.896
26335W        W85871   7.912  40.970  13.544
26336W        W85872  24.608  43.954   4.719
26337W        W85873  26.136  11.160  13.993
26338W        W85874  16.803  23.241   0.849
26339W        W85875  30.007  17.252   4.281
26340W        W85876  38.061  38.002  10.944
26341W        W85877  11.307  20.099   4.293
26342W        W85878  41.917  17.229  12.419
26343W        W85879  16.606  24.049   1.412
26344W        W85880   4.811  11.295  12.054
26345W        W85881  12.779  30.160   1.850
26346W        W85882   2.229  11.727  14.353
26347W        W85883  16.279  37.571  11.546
26348W        W85884   3.335  38.466   2.368
26349W        W85885   8.859  15.744   1.722
26350W        W85886   2.287  31.143  10.999
26351W        W85887  33.087  14.102  13.985
26352W        W85888  33.544  26.028  14.789
26353W        W85889  14.205   2.947  11.599
26354W        W85890  20.755  19.666   3.648
26355W        W85891  22.213  15.737   3.703
26356W        W85892   6.823  23.616  10.482
26357W        W85893  38.486  35.106  10.508
26358W        W85894  30.066  21.148   4.154
26359W        W85895  35.047   0.887  11.115
26360W        W85896   7.330   7.696   1.343
26361W        W85897  20.133  14.256  12.903
26362W        W85898   2.349   7.813  12.850
26363W        W85899  31.939  35.528   0.417
26364W        W85900  23.554   1.821   0.281
26365W        W85901  18.061  12.769   4.114
26366W        W85902  32.552  31.568  14.356
26367W        W85903   3.235  16.262   2.847
26368W        W85904  26.485  38.504   3.780
26369W        W85905  19.120  31.981  12.840
26370W        W85906  21.675  25.973   1.904
26371W        W85907  22.243   1.267  13.919
26372W        W85908  28.984  42.995  11.888
26373W        W85909  41.966  41.379  13.048
26374W        W85910  26.521   1.774  10.903
26375W        W85911  38.494   0.776  12.881
26376W        W85912   7.318  13.794   1.429
26377W        W85913  31.537  19.638  11.443
26378W        W85914  22.691  12.304  10.985
26379W        W85915  23.503  39.512  13.858
26380W        W85916  31.453  41.883  10.446
26381W        W85917  13.818  31.134  12.442
26382W        W85918  34.584   9.706  14.442
26383W        W85919   9.381  44.995   3.374
26384W        W85920  36.419  15.109   3.713
26385W        W85921  18.560  27.576   3.770
26386W        W85922  44.955  20.122   1.799
26387W        W85923  37.906  40.006  11.996
26388W        W85924   8.375  24.224   2.873
26389W        W85925  23.203  18.195  13.052
26390W        W85926  31.979  42.840  11.992
26391W        W85927   2.240  10.815   1.302
26392W        W85928   6.904  36.457   3.151
26393W        W85929   5.773   4.262   4.823
26394W        W85930  18.277  43.302  12.535
26395W        W85931  10.832  25.056  13.791
26396W        W85932  40.535   7.828   0.736
26397W        W85933   5.845  44.378   4.653
26398W        W85934   1.755  17.787  10.615
26399W        W85935  42.286  38.850   4.266
26400W        W85936  34.433   5.820   3.694
26401W        W85937  14.237  32.584   4.321
26402W        W85938  11.368   1.413   0.731
26403W        W85939   8.821  43.373  13.495
26404W        W85940  42.287  37.469  14.974
26405W        W85941  34.947  19.658   5.258
26406W        W85942  22.160  29.043   0.477
26407W        W85943  11.698   3.255  14.932
26408W        W85944  44.854   2.432  10.547
26409W        W85945  15.144  13.726  13.409
26410W        W85946  34.948  10.764  14.507
26411W        W85947  28.562  27.651   3.803
26412W        W85948  14.673   9.670  11.452
26413W        W85949  20.693  39.052  13.517
26414W        W85950  10.181  37.341  14.278
26415W        W85951  32.941   2.280  13.439
26416W        W85952  38.933  32.521   4.791
26417W        W85953  14.602   8.251  14.347
26418W        W85954  19.142  26.048   1.810
26419W        W85955   9.246  24.716  12.881
26420W        W85956  23.142  36.550  13.869
26421W        W85957   0.929  26.077  14.009
26422W        W85958  18.240  19.091   1.336
26423W        W85959  17.241  35.521  10.446
26424W        W85960  31.424   2.878  10.423
26425W        W85961  33.056  30.095   0.796
26426W        W85962  25.684  24.587   3.338
26427W        W85963  26.505  36.985   4.784
26428W        W85964  42.477   4.279  14.870
26429W        W85965  23.706   1.785  13.799
26430W        W85966  26.668  41.516   0.958
26431W        W85967   9.783   9.651  14.496
26432W        W85968  12.837   8.895   1.879
26433W        W85969  39.912  17.305  13.449
26434W        W85970  24.661   4.711  12.899
26435W        W85971   8.365  13.194  13.063
26436W        W85972  11.708  15.159  14.900
26437W        W85973  30.078  26.692   2.860
26438W        W85974  34.438  21.690   4.217
26439W        W85975  29.995   3.274  11.611
26440W        W85976   2.758  20.102   2.239
26441W        W85977  27.099  32.470  14.345
26442W        W85978   5.751  32.542   4.685
26443W        W85979  12.190  30.057  13.019
26444W        W85980   2.246  36.441  12.542
26445W        W85981  42.396  36.893  14.911
26446W        W85982  12.348  14.834  14.462
26447W        W85983   2.395   0.892   0.458
26448W        W85984  19.109  40.381  13.530
26449W        W85985  12.725  13.252  10.603
26450W        W85986  22.009  24.032   0.954
26451W        W85987   1.821  22.019  10.155
26452W        W85988   6.369   2.936  12.341
26453W        W85989  34.461  20.075   3.169
26454W        W85990   7.198  32.983   0.766
26455W        W85991  38.926   9.268  10.501
26456W        W85992  39.891  23.503   0.903
26457W        W85993  37.407  21.632  13.859
26458W        W85994  21.152  27.067  13.462
26459W        W85995  30.622   6.301  12.516
26460W        W85996   2.848  35.030  13.893
26461W        W85997  38.496  35.421   3.152
26462W        W85998  33.988  39.863  11.933
26463W        W85999  42.849  36.843   2.761
26464W        W86000  22.252  19.710   9.998
26465W        W86001   9.385  25.142  12.053
26466W        W86002  36.567  38.490   2.334
26467W        W86003  12.347  21.517   0.380
26468W        W86004  36.962  39.011   2.183
26469W        W86005  28.024  21.087  13.491
26470W        W86006  18.676  44.448  14.788
26471W        W86007   8.779  42.915  10.948
26472W        W86008  19.134   5.751   1.818
26473W        W86009  14.672  43.285  13.892
26474W        W86010  25.519  34.562  13.063
26475W        W86011   2.426   3.269   0.805
26476W        W86012  30.560   3.353   2.196
26477W        W86013  27.445  26.500   3.674
26478W        W86014  11.662  32.503  11.469
26479W        W86015  16.182   5.698  11.581
26480W        W86016  25.515  30.541   4.339
26481W        W86017  13.113   0.787  14.330
26482W        W86018   7.269  20.670   3.247
26483W        W86019  23.640   6.289   5.634
26484W        W86020  20.243  21.251  14.948
26485W        W86021  28.009   1.411  10.587
26486W        W86022  16.649  35.890  12.063
26487W        W86023   5.385   9.373   1.267
26488W        W86024  18.590  40.405  14.969
26489W        W86025  28.055   3.441  13.385
26490W        W86026  14.775  30.417  11.051
26491W        W86027  33.981   3.881   4.142
26492W        W86028  26.464  33.982  14.284
26493W        W86029   4.228  16.700   1.773
26494W        W86030   1.348  40.052   0.436
26495W        W86031   4.721  34.528   2.876
26496W        W86032  25.207  12.232   4.682
26497W        W86033  42.420  20.242  12.404
26498W        W86034   5.880  44.981   0.894
26499W        W86035   3.429  36.583   3.226
26500W        W86036  29.606   3.409   1.805
26501W        W86037  41.907   3.399   2.841
26502W        W86038  35.590  34.041   3.780
26503W        W86039  24.126  40.307  10.067
26504W        W86040  42.909  42.834   3.631
26505W        W86041  37.987  27.622  11.930
26506W        W86042  25.696  23.024   0.406
26507W        W86043  43.378  34.615   9.990
26508W        W86044  26.562  11.663  13.496
26509W        W86045   2.269  27.962  12.002
26510W        W86046  35.539   9.213  10.944
26511W        W86047  32.963  17.214   3.641
26512W        W86048  33.624   1.793  10.004
26513W        W86049  43.481  42.290  12.084
26514W        W86050  22.087   8.718  13.521
26515W        W86051   6.305  17.063  12.829
26516W        W86052   5.812  11.844   0.475
26517W        W86053  27.022   6.835  10.999
26518W        W86054   9.650  41.993   3.686
26519W        W86055  31.442  23.201   5.138
26520W        W86056  42.921  26.540  14.810
26521W        W86057  15.218  19.545   3.746
26522W        W86058  19.165  17.630  12.538
26523W        W86059  41.021   0.790  13.013
26524W        W86060   6.233  19.086   3.644
26525W        W86061  32.403   9.878  11.981
26526W        W86062   7.381   9.690   3.744
26527W        W86063   0.860  20.684  12.566
26528W        W86064  17.165   5.872  13.054
26529W        W86065   3.753  33.914  14.415
26530W        W86066  17.155   4.375   0.927
26531W        W86067  24.643  36.945   5.230
26532W        W86068  25.058  12.785  14.448
26533W        W86069   1.348   6.351  14.390
26534W        W86070  31.412   4.249  14.894
26535W        W86071  32.450  13.151  13.369
26536W        W86072  21.598  26.633  14.841
26537W        W86073  20.170   2.890   1.241
26538W        W86074  23.490  26.687   1.291
26539W        W86075  44.816  20.071  13.914
26540W        W86076  38.550  28.513   2.298
26541W        W86077  37.449  14.099   1.764
26542W        W86078  31.565  22.213   2.388
26543W        W86079  35.502  14.250   3.815
26544W        W86080  35.997   0.309  13.526
26545W        W86081   5.796  24.173   1.374
26546W        W86082  33.899  13.796   2.343
26547W        W86083  29.034  43.516  13.471
26548W        W86084  38.953  22.538   1.243
26549W        W86085  37.869  18.135   3.786
26550W        W86086  41.812  35.589  12.045
26551W        W86087  21.098   4.944   9.651
26552W        W86088  40.029  22.156  12.907
26553W        W86089  18.639  34.406  13.340
26554W        W86090  11.744  37.494  12.896
26555W        W86091  24.169  18.722  11.410
26556W        W86092  11.752  41.415  13.503
26557W        W86093  42.510  27.113   1.269
26558W        W86094   9.658  32.612  12.533
26559W        W86095  43.409  35.539  11.519
26560W        W86096  41.879  36.490  13.388
26561W        W86097  42.383  16.702  12.422
26562W        W86098  16.692  13.700  14.888
26563W        W86099  19.638  42.441   4.720
26564W        W86100   1.284   8.391  10.553
26565W        W86101  37.378  20.767   2.733
26566W        W86102   9.863  21.172  10.077
26567W        W86103   2.922  44.796  11.878
26568W        W86104  18.260  16.160  14.318
26569W        W86105  36.925  22.117  14.777
26570W        W86106   8.737  11.725  13.815
26571W        W86107  11.685  20.625   3.835
26572W        W86108  31.154  15.092  12.446
26573W        W86109  34.452  29.545  12.006
26574W        W86110   8.723  40.034  14.437
26575W        W86111  21.174   5.738  10.633
26576W        W86112  19.599  11.222   2.717
26577W        W86113   6.785  28.455  11.587
26578W        W86114  29.546  31.423  14.487
26579W        W86115  33.453   6.388   1.812
26580W        W86116  28.528  27.951  12.577
26581W        W86117  28.481  44.393  11.436
26582W        W86118  18.574  39.057   3.173
26583W        W86119  35.376  31.942   3.631
26584W        W86120   1.249  33.572  10.974
26585W        W86121  31.580  37.439   1.425
26586W        W86122  21.249  40.401  14.969
26587W        W86123  28.069  31.927  12.345
26588W        W86124  29.069   0.368  12.001
26589W        W86125  34.432   1.906  11.940
26590W        W86126  39.046  18.221   2.317
26591W        W86127  34.033  11.255  14.289
26592W        W86128  19.280  37.437   0.419
26593W        W86129   0.387   7.244   3.335
26594W        W86130  30.425   5.828  10.976
26595W        W86131  32.072  40.501  11.089
26596W        W86132  14.715  25.533  11.489
26597W        W86133  28.560  16.176  13.034
26598W        W86134   4.385   0.954   4.668
26599W        W86135   0.987  40.933   4.306
26600W        W86136   3.397  42.939   3.275
26601W        W86137   7.297  25.126  11.613
26602W        W86138  17.271  36.059  12.354
26603W        W86139  39.977  38.535   2.785
26604W        W86140   7.687  40.979   2.256
26605W        W86141   5.787  25.210  10.039
26606W        W86142  21.103  23.036   4.143
26607W        W86143  39.823  10.377  13.052
26608W        W86144  27.171  16.260   2.370
26609W        W86145   4.914   5.407  14.804
26610W        W86146   9.694   5.734  12.568
26611W        W86147  23.510  29.615   3.337
26612W        W86148  28.568  10.229   2.879
26613W        W86149  14.612   6.788   5.737
26614W        W86150   8.772   8.232  14.507
26615W        W86151  12.225  35.958  13.960
26616W        W86152  42.934   0.774   3.187
26617W        W86153  20.231  13.152   2.343
26618W        W86154  16.682  40.951  13.825
26619W        W86155   0.252  41.344  14.447
26620W        W86156  22.086  41.509  12.419
26621W        W86157  17.649  23.226  13.873
26622W        W86158  27.954   2.446   2.831
26623W        W86159  24.603  43.936   0.899
26624W        W86160   6.211  21.261  11.877
26625W        W86161  14.739  15.636  13.824
26626W        W86162  37.550  36.564   2.810
26627W        W86163   9.848  36.374  13.429
26628W        W86164  40.053  42.441   4.123
26629W        W86165  20.153  11.342  14.461
26630W        W86166  14.321   2.896   2.851
26631W        W86167  27.076  42.803  11.479
26632W        W86168  35.422  10.345   1.728
26633W        W86169  33.094  26.460   0.293
26634W        W86170  40.854  40.979  12.351
26635W        W86171  41.397   2.937  12.457
26636W        W86172   7.260  34.929   4.691
26637W        W86173  19.654  25.126  12.377
26638W        W86174  40.815  35.879   4.815
26639W        W86175  14.202  36.918  14.280
26640W        W86176  13.179  13.258   2.306
26641W        W86177  30.655   6.268   1.834
26642W        W86178   5.315  15.138  13.025
26643W        W86179  34.026   9.154  11.894
26644W        W86180  24.602  21.040   4.656
26645W        W86181   3.848  40.440  13.317
26646W        W86182  14.640  16.699   4.234
26647W        W86183  27.098  19.283  12.957
26648W        W86184  38.564  40.489  13.395
26649W        W86185  23.494  19.750  13.545
26650W        W86186  40.890  15.155   2.241
26651W        W86187  11.680  17.137   4.776
26652W        W86188  11.336  41.309  11.922
26653W        W86189  37.085  19.691  10.632
26654W        W86190  35.452  14.641   3.701
26655W        W86191  38.831  28.573  11.526
26656W        W86192  36.090  30.084  12.518
26657W        W86193  28.163  40.331   0.764
26658W        W86194  20.711   9.827   3.352
26659W        W86195   8.289  16.588   3.647
26660W        W86196  29.062  10.648  13.888
26661W        W86197  12.248   3.775  12.889
26662W        W86198  14.747  39.810  10.491
26663W        W86199  20.708  11.230   2.182
26664W        W86200  24.029  26.054   0.765
26665W        W86201  39.403   8.349  13.365
26666W        W86202  42.935  34.985   5.174
26667W        W86203  26.017  43.866   1.271
26668W        W86204   1.434   3.895   2.702
26669W        W86205  36.850   0.895  11.480
26670W        W86206   1.945  12.327   3.756
26671W        W86207   7.378  15.269  13.540
26672W        W86208   9.766  18.576  10.933
26673W        W86209  32.528   2.862  13.931
26674W        W86210  13.825  30.519  11.005
26675W        W86211  44.788  38.494  12.080
26676W        W86212  29.153  15.715  11.955
26677W        W86213  12.217  37.380   1.260
26678W        W86214   4.392  40.942  11.057
26679W        W86215  37.039  43.515  12.069
26680W        W86216  23.192   0.305   0.859
26681W        W86217  27.003   0.314  11.915
26682W        W86218  36.086  40.934  10.446
26683W        W86219   6.205   8.382   0.793
26684W        W86220  15.142  10.150  14.504
26685W        W86221  32.511   0.334  14.411
26686W        W86222  20.658  13.158   0.401
26687W        W86223   0.280   6.313  11.987
26688W        W86224  23.063  38.448  11.521
26689W        W86225  12.144  42.425  13.813
26690W        W86226  28.511  37.455   3.269
26691W        W86227  28.676  31.518   4.242
26692W        W86228  15.588  13.651  14.360
26693W        W86229   2.315  18.274  14.846
26694W        W86230  43.910  36.456  11.903
26695W        W86231  14.687   3.881   3.317
26696W        W86232   0.803  32.416   2.796
26697W        W86233  30.584  14.700   4.822
26698W        W86234  16.218   3.770   2.713
26699W        W86235  38.012  22.161   3.846
26700W        W86236   2.372  22.524   1.341
26701W        W86237  29.477  24.680   2.667
26702W        W86238  10.658  20.524  13.383
26703W        W86239  24.501  33.007  13.402
26704W        W86240  16.314  22.175   2.205
26705W        W86241   1.895  28.540  12.569
26706W        W86242   7.299  41.837  11.915
26707W        W86243  40.377  20.071  14.301
26708W        W86244  15.120  34.905   3.245
26709W        W86245  25.649   8.226  11.511
26710W        W86246  44.414  37.917  13.900
26711W        W86247   8.265  32.392   3.815
26712W        W86248  41.519   7.370  12.991
26713W        W86249  15.797   4.732  12.040
26714W        W86250  19.085  44.839   0.475
26715W        W86251  17.171  38.515  14.962
26716W        W86252  44.876   6.888   2.750
26717W        W86253  42.022  35.532   2.877
26718W        W86254  24.517  32.959  13.888
26719W        W86255  22.743  20.719   1.697
26720W        W86256   4.273  42.987  14.886
26721W        W86257  36.844  19.654   1.869
26722W        W86258  44.330  43.893   4.310
26723W        W86259   8.226  11.308   1.845
26724W        W86260   4.925  10.286   1.928
26725W        W86261   1.937  11.196  14.808
26726W        W86262  34.951  15.227   0.244
26727W        W86263   8.240  21.150   3.269
26728W        W86264   4.406  19.268   1.870
26729W        W86265  29.667  18.649   5.196
26730W        W86266  19.533   3.774  10.951
26731W        W86267  43.344   1.911   0.366
26732W        W86268   6.205   5.395  10.958
26733W        W86269  44.999  43.420   0.920
26734W        W86270   4.901  26.493   1.234
26735W        W86271  28.528  42.870   1.438
26736W        W86272  40.524  31.597   2.753
26737W        W86273  33.395  20.095   3.261
26738W        W86274  42.294   9.286  11.534
26739W        W86275  20.759  41.438  10.944
26740W        W86276  15.219  30.105   3.368
26741W        W86277  33.469  13.786  14.930
26742W        W86278   6.320  19.654  12.092
26743W        W86279   0.269  14.617  10.982
26744W        W86280   8.359  32.461  11.953
26745W        W86281  40.925  19.580  14.015
26746W        W86282  14.815  39.495  14.027
26747W        W86283  19.685  11.133  11.021
26748W        W86284  23.615  43.986   0.385
26749W        W86285  17.577  39.892   3.229
26750W        W86286   4.218   8.166  11.428
26751W        W86287   6.182  44.845   0.744
26752W        W86288  34.518  27.679  14.002
26753W        W86289  27.167  39.973   4.758
26754W        W86290   0.362   7.807   2.771
26755W        W86291  12.134  11.799   3.350
26756W        W86292   0.805   1.432  13.026
26757W        W86293  26.703  22.564   3.692
26758W        W86294  42.315  35.577   2.196
26759W        W86295  10.238  25.185   2.768
26760W        W86296  11.156   9.884  10.518
26761W        W86297  21.160  40.955   4.730
26762W        W86298  43.013   0.892   3.710
26763W        W86299   8.250  24.617   2.246
26764W        W86300  10.639  42.288   3.804
26765W        W86301   0.913  40.438   4.160
26766W        W86302  12.674  32.007   4.240
26767W        W86303  36.917  24.087   3.288
26768W        W86304  28.645  25.584  14.828
26769W        W86305  13.658  13.820   0.460
26770W        W86306  34.919  22.184  14.511
26771W        W86307  17.154  33.105  12.398
26772W        W86308  18.142  22.674  10.425
26773W        W86309  37.496  34.553  10.444
26774W        W86310  37.500  23.599  12.085
26775W        W86311  33.567   1.273   4.281
26776W        W86312   8.338   7.854   1.806
26777W        W86313  36.039  13.151  14.844
26778W        W86314   4.315  33.543  11.377
26779W        W86315  44.374  37.865  14.346
26780W        W86316  36.928  38.002   1.805
26781W        W86317  36.500   8.349   1.757
26782W        W86318  31.100   7.305  10.502
26783W        W86319  24.674  23.042   5.685
26784W        W86320   5.249  26.550  10.125
26785W        W86321   8.815  30.464   1.358
26786W        W86322  20.111   7.807  12.833
26787W        W86323  24.034  35.887  13.512
26788W        W86324  17.569  16.801  10.468
26789W        W86325  37.052  34.024   3.688
26790W        W86326  13.671  32.985  11.504
26791W        W86327  34.586  12.740  14.435
26792W        W86328  36.397  44.844   0.375
26793W        W86329  32.400  31.424  14.010
26794W        W86330  14.684   8.193   1.233
26795W        W86331  29.561  17.222   1.711
26796W        W86332  18.227  27.160   4.759
26797W        W86333  22.681  22.030   3.320
26798W        W86334  41.880  21.731   0.397
26799W        W86335   2.812   2.794  11.935
26800W        W86336  33.559  14.734  13.854
26801W        W86337  36.361  30.511   3.222
26802W        W86338  36.583  34.114  13.817
26803W        W86339  25.553   6.200  12.045
26804W        W86340  31.454   7.248   1.313
26805W        W86341  41.305  32.081  12.990
26806W        W86342   2.896  24.514  12.553
26807W        W86343   7.883  31.022  11.379
26808W        W86344  38.368  12.818  12.954
26809W        W86345  30.982   5.894  10.417
26810W        W86346   0.853  23.215   3.837
26811W        W86347   5.270  39.012   1.774
26812W        W86348   5.895  12.131  12.479
26813W        W86349  41.926  35.019  13.516
26814W        W86350  26.987  41.305   3.729
26815W        W86351  11.230  15.207  11.870
26816W        W86352   4.448  19.631  14.860
26817W        W86353  39.061  35.510   4.674
26818W        W86354  33.524  37.989   2.758
26819W        W86355  27.479  32.102   0.841
26820W        W86356   9.281  24.572  13.507
26821W        W86357  44.480  40.968  10.509
26822W        W86358  25.035  19.165  13.461
26823W        W86359  14.244  26.974   3.827
26824W        W86360  42.976  31.551  12.052
26825W        W86361  30.964  20.538   2.698
26826W        W86362  44.967  25.671   3.869
26827W        W86363  17.664  13.681  11.384
26828W        W86364  33.122  29.148   2.742
26829W        W86365  39.478  44.304  11.588
26830W        W86366  13.177  23.669   1.214
26831W        W86367  10.746  10.762  11.972
26832W        W86368  18.158  16.148   1.305
26833W        W86369  22.511  30.048  10.617
26834W        W86370  39.922  11.806  12.882
26835W        W86371   7.863   9.284   4.149
26836W        W86372  11.197  18.213   0.949
26837W        W86373   5.273  23.545  12.071
26838W        W86374   2.792  37.414  14.468
26839W        W86375   4.281   9.779   4.642
26840W        W86376  13.322  39.816  13.928
26841W        W86377   9.873  31.043   1.755
26842W        W86378  16.668  34.508   1.835
26843W        W86379  33.471   6.750  14.334
26844W        W86380   5.359  42.386   0.827
26845W        W86381  15.623  29.046  12.913
26846W        W86382  19.576  20.741   0.338
26847W        W86383  12.205   3.808   0.411
26848W        W86384  11.749  21.042  10.145
26849W        W86385  35.462  37.571   3.312
26850W        W86386  40.321  19.558  10.532
26851W        W86387  40.452   8.394   1.790
26852W        W86388  36.554  38.898   5.223
26853W        W86389  27.450  33.919  11.963
26854W        W86390  30.529  37.469  14.515
26855W        W86391  35.063  17.587  11.897
26856W        W86392  34.527  43.842  13.797
26857W        W86393  31.148  29.430   1.379
26858W        W86394   6.790  20.191  13.838
26859W        W86395   9.344  27.148  12.421
26860W        W86396  17.171  13.747  11.104
26861W        W86397  16.149  41.878   1.229
26862W        W86398   7.850   0.763   4.749
26863W        W86399  21.745  42.402  12.445
26864W        W86400  12.125  18.652   1.313
26865W        W86401  12.795  21.726  12.827
26866W        W86402   3.795  35.537   4.208
26867W        W86403  10.660  14.630  13.000
26868W        W86404  38.916  37.983  13.818
26869W        W86405  35.414  11.241   1.787
26870W        W86406  15.278  33.944   3.727
26871W        W86407  23.729   2.841  14.825
26872W        W86408  37.028  31.450  12.569
26873W        W86409  20.112  14.296  11.465
26874W        W86410  10.149  32.574  14.364
26875W        W86411  17.744  36.009  11.406
26876W        W86412  34.409  37.422   0.765
26877W        W86413  39.983   6.744   2.361
26878W        W86414  40.513  27.526   0.852
26879W        W86415  27.638  11.354   2.706
26880W        W86416  29.453  42.796   9.967
26881W        W86417  13.308  28.444   1.901
26882W        W86418   2.868  28.025   0.799
26883W        W86419  18.273   8.732  13.488
26884W        W86420  21.250   2.855  11.587
26885W        W86421  32.109  24.008   2.881
26886W        W86422   6.411  44.266  11.494
26887W        W86423  19.680  39.539  12.032
26888W        W86424   7.353   8.302   3.204
26889W        W86425   6.190  41.805  10.976
26890W        W86426  35.594  18.630   2.206
26891W        W86427  15.277  40.047   0.438
26892W        W86428   2.397  27.009   3.838
26893W        W86429  42.802  16.716   2.799
26894W        W86430  12.166  18.576   2.745
26895W        W86431  17.797  21.170   3.220
26896W        W86432   3.849  29.441  13.386
26897W        W86433  37.010  24.978  13.844
26898W        W86434  24.065  41.907  12.080
26899W        W86435   4.709  22.605   1.327
26900W        W86436  25.083   5.722  11.395
26901W        W86437   1.929  29.037  13.858
26902W        W86438   5.196   8.405  13.523
26903W        W86439  38.427  22.199  10.456
26904W        W86440  33.089  42.357  12.877
26905W        W86441   3.884   5.423  10.540
26906W        W86442   1.849  39.518   2.360
26907W        W86443  12.126  32.460  11.603
26908W        W86444  33.075  43.779  14.291
26909W        W86445  21.174  20.673   2.222
26910W        W86446  33.111  44.383  10.064
26911W        W86447  16.634  15.170   2.195
26912W        W86448  30.623  20.584   2.284
26913W        W86449  36.062  26.667   3.226
26914W        W86450  37.911  13.812   4.647
26915W        W86451  25.149  35.412   9.606
26916W        W86452  26.970  11.242  10.570
26917W        W86453  34.048   7.743  11.903
26918W        W86454   9.209  41.991  12.090
26919W        W86455  44.938   8.810  11.995
26920W        W86456  24.002  25.995  14.287
26921W        W86457   1.367  18.603  10.597
26922W        W86458  33.439   1.754  14.833
26923W        W86459   8.385  24.039  14.507
26924W        W86460  26.556  31.416   3.731
26925W        W86461  39.970  38.396  14.767
26926W        W86462  26.512   0.286   4.181
26927W        W86463  44.376  24.529  12.087
26928W        W86464   5.365  39.898   1.284
26929W        W86465   4.215  27.155   0.786
26930W        W86466  21.592  36.575  14.306
26931W        W86467  27.006  11.745   2.767
26932W        W86468  44.480   2.941   4.833
26933W        W86469  22.567   4.414   2.339
26934W        W86470  43.951  25.158  12.495
26935W        W86471  44.279  40.437   3.649
26936W        W86472  40.002  15.618   2.289
26937W        W86473  12.842   1.315  14.439
26938W        W86474  21.238  10.829  11.128
26939W        W86475   5.335  17.577  14.933
26940W        W86476   6.708  22.557  10.540
26941W        W86477  19.212   3.821   2.822
26942W        W86478  22.647   7.855   0.447
26943W        W86479  17.106  21.201  13.901
26944W        W86480  25.544   6.361  14.806
26945W        W86481  17.295  25.551   2.675
26946W        W86482  31.478   5.202  12.855
26947W        W86483   2.906  24.023  14.427
26948W        W86484  24.637  44.499   1.354
26949W        W86485  28.092  10.822  13.339
26950W        W86486  15.203   3.449   3.296
26951W        W86487  43.923   6.356   2.885
26952W        W86488  30.035  38.073   2.271
26953W        W86489  27.587  31.423   3.749
26954W        W86490  13.810  12.310   0.825
26955W        W86491  41.383  37.506  10.470
26956W        W86492   8.358  38.852   0.351
26957W        W86493  21.238  20.641   9.490
26958W        W86494   8.393  23.677  13.820
26959W        W86495  32.468  10.291  13.025
26960W        W86496  14.649   7.309   1.230
26961W        W86497  15.176  44.000   0.337
26962W        W86498  23.560  12.141   2.357
26963W        W86499   7.827  29.042  13.809
26964W        W86500  24.119  34.369   0.320
26965W        W86501  23.151  26.058  14.442
26966W        W86502  27.034   0.765   4.638
26967W        W86503  16.690  40.884   1.372
26968W        W86504   7.790   5.338  10.405
26969W        W86505  44.899  30.932  14.943
26970W        W86506   1.863  31.472   2.879
26971W        W86507  12.313  28.186  14.955
26972W        W86508  19.136  20.740   0.326
26973W        W86509  21.233  10.340  12.552
26974W        W86510  22.052   0.403  12.079
26975W        W86511  17.750  11.714  13.435
26976W        W86512  12.841  21.658  14.516
26977W        W86513  31.522  36.438   2.849
26978W        W86514   6.330  30.467   1.759
26979W        W86515  14.100  43.475   4.640
26980W        W86516  11.633  21.580   0.420
26981W        W86517   6.406   2.363  13.394
26982W        W86518   3.422  23.095  13.953
26983W        W86519  22.052  23.993   2.887
26984W        W86520  35.938   9.360   1.375
26985W        W86521   4.879   9.756  12.069
26986W        W86522  10.252  18.551  11.996
26987W        W86523  44.272  31.566   2.682
26988W        W86524  19.266  12.759   2.316
26989W        W86525   0.384   6.403   0.734
26990W        W86526  18.206  24.189   2.208
26991W        W86527  24.136   7.229  14.778
26992W        W86528  39.899  20.198  13.822
26993W        W86529  14.623  19.729  12.934
26994W        W86530  33.880  28.676   3.278
26995W        W86531  15.312  31.439   4.317
26996W        W86532  36.991  11.182  10.501
26997W        W86533  21.669  22.044   0.475
26998W        W86534  36.968  18.741   2.809
26999W        W86535  14.245  20.189   2.411
27000W        W86536  41.846  40.470  13.805
27001W        W86537  40.923  27.665   0.354
27002W        W86538   8.680   9.262  12.984
27003W        W86539  31.965   0.797  14.801
27004W        W86540  32.543  29.069   1.249
27005W        W86541   7.824  40.332   9.973
27006W        W86542  17.595  21.670   1.254
27007W        W86543   5.907  13.220   1.270
27008W        W86544   6.329  10.822   0.381
27009W        W86545   2.447  37.049  14.955
27010W        W86546  22.036  13.685   1.389
27011W        W86547  31.562   2.883  13.501
27012W        W86548   2.432  33.991   3.168
27013W        W86549   6.186  34.436  10.041
27014W        W86550  32.463   1.334   3.633
27015W        W86551  23.218  18.157   0.945
27016W        W86552  27.054  32.629  13.379
27017W        W86553   8.749  41.000   4.337
27018W        W86554  21.239  28.015   1.425
27019W        W86555  31.144  18.551   3.706
27020W        W86556  14.824  34.881   3.220
27021W        W86557  22.105  31.453  13.828
27022W        W86558   9.806  40.986   2.815
27023W        W86559  14.652  13.205   1.775
27024W        W86560  28.634  21.699   0.471
27025W        W86561  29.511  35.034  12.079
27026W        W86562  27.015  22.559   0.453
27027W        W86563  28.676   4.407  14.496
27028W        W86564   3.259  38.011   3.230
27029W        W86565  44.967  29.488  11.865
27030W        W86566  35.525  19.775  11.585
27031W        W86567  14.333   5.409  11.426
27032W        W86568   0.983  31.962   4.243
27033W        W86569  27.150  37.343  11.086
27034W        W86570  42.002   0.939  12.081
27035W        W86571  37.351  29.070  11.548
27036W        W86572  24.486  42.334   2.222
27037W        W86573   2.821  24.066  13.332
27038W        W86574  13.697  23.723  14.364
27039W        W86575  30.925   7.214   0.438
27040W        W86576   0.769  37.432   3.235
27041W        W86577  19.115  11.138  12.507
27042W        W86578  14.668  42.468   0.856
27043W        W86579  13.667   3.336   3.657
27044W        W86580  30.541  12.808   3.219
27045W        W86581  22.689  26.958   4.794
27046W        W86582  17.784  18.081   9.476
27047W        W86583  38.501   7.298   2.789
27048W        W86584   1.848  29.639   1.898
27049W        W86585  30.045  34.495  11.397
27050W        W86586  14.619  15.817   3.747
27051W        W86587  44.443   2.752  13.345
27052W        W86588  29.425   1.309  10.959
27053W        W86589  42.354  15.256   2.811
27054W        W86590  12.163  12.838  12.011
27055W        W86591   6.777  42.807  14.808
27056W        W86592  17.078  27.162  14.790
27057W        W86593  15.099  25.668  12.088
27058W        W86594  21.686   7.281   1.225
27059W        W86595  35.995  40.448  13.328
27060W        W86596  14.271  12.674   1.784
27061W        W86597  17.768   5.207   3.208
27062W        W86598   9.201  37.451   1.433
27063W        W86599  18.169  32.407  14.387
27064W        W86600  30.923  34.511   1.344
27065W        W86601   9.357   3.341   0.465
27066W        W86602  43.459  17.796   0.730
27067W        W86603  11.166  40.901   4.309
27068W        W86604  24.231  27.181   2.311
27069W        W86605  34.000  26.144   0.902
27070W        W86606  29.531  39.833  12.030
27071W        W86607   5.881  26.638   5.730
27072W        W86608  16.679  23.019  13.795
27073W        W86609  30.522  32.974   0.275
27074W        W86610   6.856  26.516   9.621
27075W        W86611  11.203   1.329  11.010
27076W        W86612  10.657  37.364  11.461
27077W        W86613  16.199  24.718   3.221
27078W        W86614  23.103  12.791   0.266
27079W        W86615  34.445  19.064  14.959
27080W        W86616  13.682  13.609   2.247
27081W        W86617  10.701  34.923  11.482
27082W        W86618  43.504   8.659  12.962
27083W        W86619  39.367  15.699   1.234
27084W        W86620   6.813  31.573  13.947
27085W        W86621  20.256   3.271  10.502
27086W        W86622  14.696  44.282   0.892
27087W        W86623  23.986   3.757   9.644
27088W        W86624  15.140  43.807  13.310
27089W        W86625  29.012  27.101   4.636
27090W        W86626  28.973   0.908  10.486
27091W        W86627  15.696  24.581  14.759
27092W        W86628  20.647  32.011  10.961
27093W        W86629   2.900  10.704   1.877
27094W        W86630  34.002  30.580   3.647
27095W        W86631   3.330  14.177  13.037
27096W        W86632  32.121   1.866  10.637
27097W        W86633  22.235  32.919   9.659
27098W        W86634  20.156   1.836   4.139
27099W        W86635   8.692  11.312   1.736
27100W        W86636  44.806  42.889   5.149
27101W        W86637  36.948  14.730  12.856
27102W        W86638  32.607  30.065  13.822
27103W        W86639   0.773  39.413  13.996
27104W        W86640   1.429  25.651   3.229
27105W        W86641  33.022   7.400   4.698
27106W        W86642  26.611  16.186  13.321
27107W        W86643  11.278  31.586   4.644
27108W        W86644   3.436  29.656  14.024
27109W        W86645  24.111   0.890  14.904
27110W        W86646   8.755   8.345  13.805
27111W        W86647  27.468  28.459  13.041
27112W        W86648   7.688   4.343   1.863
27113W        W86649  18.735   7.362   2.752
27114W        W86650   4.320  21.513  13.871
27115W        W86651  26.065  27.564  14.981
27116W        W86652  22.226  19.720   2.348
27117W        W86653  27.063  42.396   0.836
27118W        W86654  12.709  25.492  13.970
27119W        W86655  18.124   5.812   1.227
27120W        W86656  12.239   4.285  11.055
27121W        W86657  38.482  30.451   1.766
27122W        W86658   5.221  25.997  11.612
27123W        W86659  23.035  26.201   4.621
27124W        W86660  22.183  26.650  12.502
27125W        W86661  33.520  24.075   1.820
27126W        W86662  21.214  11.715   0.952
27127W        W86663  34.607  38.470  12.480
27128W        W86664  40.853  10.358  10.901
27129W        W86665  29.462   9.836   3.681
27130W        W86666  20.226  23.652  13.487
27131W        W86667  43.861  19.075   1.216
27132W        W86668  27.004   8.304   1.371
27133W        W86669  36.552  15.686  13.349
27134W        W86670  15.175  17.230   2.836
27135W        W86671  16.139  21.566  11.044
27136W        W86672  23.049  41.335  14.299
27137W        W86673  41.332  26.496  13.911
27138W        W86674   7.741  26.617  12.012
27139W        W86675  41.477   5.287   3.632
27140W        W86676  35.373  34.029  10.500
27141W        W86677  13.716  30.487  13.458
27142W        W86678  25.640  13.667   2.715
27143W        W86679  12.290  32.938  13.888
27144W        W86680  38.931  27.101  10.954
27145W        W86681  44.774  12.292   0.840
27146W        W86682  24.716  13.800  14.810
27147W        W86683   2.826  20.606   4.116
27148W        W86684  37.390  10.657   1.340
27149W        W86685  16.225  23.064   3.347
27150W        W86686   7.730  19.255   3.639
27151W        W86687  28.039  21.597   4.142
27152W        W86688  18.151  44.870   0.911
27153W        W86689  35.900  11.698   3.365
27154W        W86690  16.165   6.292  13.060
27155W        W86691  21.197  12.659   4.331
27156W        W86692   3.240   4.357   4.667
27157W        W86693   2.313  12.743  14.838
27158W        W86694   1.739  10.201  11.977
27159W        W86695  32.975   0.275   3.335
27160W        W86696  42.312   9.680   2.811
27161W        W86697  43.502  15.780  12.944
27162W        W86698  16.149  34.045  12.020
27163W        W86699  41.505   4.277   3.181
27164W        W86700  36.042   6.913  13.342
27165W        W86701   7.879  42.789   4.298
27166W        W86702  34.954  24.127   0.763
27167W        W86703   6.424  15.160   1.412
27168W        W86704   9.685  40.343   3.633
27169W        W86705  14.650  32.096  10.619
27170W        W86706   8.724  13.748   3.361
27171W        W86707  30.086   4.286   0.259
27172W        W86708  22.532   0.273   1.371
27173W        W86709  35.930   9.826  11.048
27174W        W86710  32.496   6.765   4.714
27175W        W86711  22.048   2.287  13.020
27176W        W86712   3.267  42.442   0.286
27177W        W86713  15.165  26.607   3.227
27178W        W86714   2.235  36.898  10.995
27179W        W86715  29.960   7.718  11.581
27180W        W86716   4.424  18.268  12.838
27181W        W86717  41.396  37.942   2.398
27182W        W86718  17.085   1.923  12.057
27183W        W86719  18.682  10.181   5.208
27184W        W86720  25.695  23.107   2.823
27185W        W86721  37.888  41.888   3.206
27186W        W86722   2.449  16.283   1.803
27187W        W86723   3.787  38.522  13.387
27188W        W86724   7.695   5.712  12.051
27189W        W86725   1.327  24.145  12.877
27190W        W86726  13.249  14.791  12.486
27191W        W86727   5.816  32.622  10.429
27192W        W86728  18.234   9.224   1.694
27193W        W86729  16.105  19.159   3.857
27194W        W86730  14.224  30.613  10.960
27195W        W86731  36.941  22.601  14.805
27196W        W86732   8.323  15.218   0.293
27197W        W86733  14.245  40.376   3.276
27198W        W86734  20.654   3.908   1.295
27199W        W86735  39.923   0.365   4.798
27200W        W86736  40.014  21.577   4.182
27201W        W86737  37.863  21.527   1.370
27202W        W86738  31.507   6.276  12.471
27203W        W86739  21.196  42.031   1.382
27204W        W86740  15.286  17.603   1.429
27205W        W86741   7.349  41.333  11.914
27206W        W86742  36.874  15.766  12.464
27207W        W86743  29.571  41.915   3.321
27208W        W86744  39.453  33.094  11.440
27209W        W86745  39.004  17.766   2.790
27210W        W86746  19.537  37.480  13.486
27211W        W86747  34.457   0.248  10.889
27212W        W86748   1.736  12.712   2.205
27213W        W86749  27.647  13.636   1.870
27214W        W86750  25.611  43.997   1.360
27215W        W86751  15.146  18.621   4.613
27216W        W86752  43.991  35.375   3.256
27217W        W86753  32.552   2.866   1.405
27218W        W86754  33.503   7.858   3.858
27219W        W86755  41.845  19.211  11.607
27220W        W86756  25.469  21.044   4.652
27221W        W86757  10.272  10.879  14.936
27222W        W86758  44.307   2.784   4.273
27223W        W86759  29.592  33.905   1.249
27224W        W86760  18.621  29.145  12.466
27225W        W86761  36.095  23.604   3.192
27226W        W86762  44.775  38.910  10.993
27227W        W86763   7.898  44.455  13.343
27228W        W86764  12.699  18.068  14.827
27229W        W86765   6.847  40.903  13.416
27230W        W86766  32.411  38.384   0.902
27231W        W86767  11.283  23.546  13.831
27232W        W86768  19.671  18.198  12.414
27233W        W86769  37.913  29.652  11.917
27234W        W86770  42.373  26.676   4.324
27235W        W86771  14.809  24.598   4.618
27236W        W86772   7.202   6.916   0.853
27237W        W86773  24.090  30.928   4.819
27238W        W86774  20.551  29.131   0.862
27239W        W86775  40.040   8.316  12.410
27240W        W86776  43.376  10.707  14.471
27241W        W86777  33.966  18.209   4.633
27242W        W86778  32.135  37.945  11.489
27243W        W86779  22.036   2.402  12.397
27244W        W86780   2.861  41.389  12.077
27245W        W86781  43.483  24.065   3.240
27246W        W86782  14.273   0.893  12.464
27247W        W86783  15.579  40.932  12.040
27248W        W86784  14.613  26.068  13.529
27249W        W86785  14.742  39.891   1.873
27250W        W86786  12.185   9.681  14.903
27251W        W86787  32.432  13.212  10.487
27252W        W86788  23.513  12.682   3.817
27253W        W86789   4.924  17.565   1.409
27254W        W86790  40.378   2.390  13.482
27255W        W86791  29.517  27.951  12.070
27256W        W86792   1.332   3.316   3.169
27257W        W86793  16.661   5.732   0.940
27258W        W86794  21.057   1.428  12.839
27259W        W86795  21.198  42.300   2.780
27260W        W86796   1.881   8.791   0.459
27261W        W86797  27.941  19.284  10.538
27262W        W86798   0.804  32.557  13.527
27263W        W86799  25.014  22.587  13.514
27264W        W86800  16.675  26.523  12.347
27265W        W86801  21.560   1.421  14.886
27266W        W86802  21.555  12.160   2.830
27267W        W86803  40.520  29.535  13.314
27268W        W86804  27.973  23.002   1.758
27269W        W86805   8.364  43.957   3.646
27270W        W86806  13.257  37.023   0.891
27271W        W86807  44.803  10.212  12.832
27272W        W86808  36.013  17.278  13.477
27273W        W86809   3.825  28.460  11.477
27274W        W86810  16.246  30.018  14.502
27275W        W86811   4.870  10.380  14.446
27276W        W86812  26.558  18.161  13.539
27277W        W86813   6.795   2.305  11.990
27278W        W86814  22.181  37.433  12.853
27279W        W86815  26.683   6.285  14.821
27280W        W86816  15.227  18.565  13.388
27281W        W86817  36.958  27.021   4.776
27282W        W86818  38.528   5.396   2.237
27283W        W86819  39.857  28.644  12.824
27284W        W86820   8.764  41.929   1.851
27285W        W86821  18.126  23.988   3.380
27286W        W86822  37.514  23.522   3.168
27287W        W86823  34.561  40.537  11.057
27288W        W86824  12.753  44.838   0.815
27289W        W86825  22.530  34.864  14.338
27290W        W86826   0.883  32.631  14.801
27291W        W86827  26.007  14.324   1.884
27292W        W86828  37.974  33.972  14.361
27293W        W86829   2.755   4.830  12.097
27294W        W86830  39.432  21.201  11.544
27295W        W86831  31.581  34.465   0.320
27296W        W86832  29.493  39.866   2.738
27297W        W86833  13.300  24.995  14.993
27298W        W86834  24.533  13.648   2.374
27299W        W86835  26.461  44.413   2.341
27300W        W86836  24.599  40.499  14.513
27301W        W86837  18.598  19.197   1.746
27302W        W86838  17.131  37.549  10.038
27303W        W86839  20.598  17.630   3.371
27304W        W86840   1.305  19.555  12.881
27305W        W86841  15.824  29.103   3.233
27306W        W86842  44.900  11.167   2.670
27307W        W86843  17.559   7.221  14.902
27308W        W86844  15.728  34.886  12.879
27309W        W86845  27.191  17.246   0.788
27310W        W86846  23.550  40.910  14.333
27311W        W86847  36.992   3.768  13.343
27312W        W86848   1.436  40.940  13.402
27313W        W86849  22.197  42.937   3.201
27314W        W86850   3.830   1.977   2.325
27315W        W86851   4.329  20.222  13.405
27316W        W86852  29.661  14.233   1.238
27317W        W86853   5.428  39.485   2.707
27318W        W86854  38.569  22.034   2.210
27319W        W86855  20.141  34.588   3.749
27320W        W86856  39.526  29.117   3.766
27321W        W86857  37.998   9.386  11.880
27322W        W86858   0.437  15.677   3.796
27323W        W86859  21.704  21.086  13.460
27324W        W86860  22.668  32.539  10.575
27325W        W86861  31.044  33.950  11.472
27326W        W86862  22.622  37.062   1.925
27327W        W86863  18.107   4.258   2.262
27328W        W86864  15.711  14.252  13.821
27329W        W86865   6.894  43.503   1.435
27330W        W86866  20.049  16.691  10.047
27331W        W86867  16.132  40.914  12.970
27332W        W86868  41.323  21.744   4.217
27333W        W86869  29.453  35.404  12.424
27334W        W86870  39.838  26.006  13.504
27335W        W86871  36.512  15.681  12.999
27336W        W86872  19.258  35.411   1.430
27337W        W86873   3.754  42.900  13.409
27338W        W86874  38.994   3.864  11.076
27339W        W86875  23.589  42.791  11.555
27340W        W86876  24.582  15.587  12.363
27341W        W86877  27.963  38.941   2.287
27342W        W86878   4.907  33.392  10.144
27343W        W86879  28.149  11.848  10.081
27344W        W86880  22.526  33.962   1.911
27345W        W86881  34.441  15.611   4.313
27346W        W86882  39.936  16.580  12.933
27347W        W86883   9.865  31.428   3.761
27348W        W86884  15.149   4.355  14.846
27349W        W86885  44.886  18.101   4.831
27350W        W86886  38.836  33.057   2.392
27351W        W86887  44.919   1.813  13.462
27352W        W86888  14.688   6.231  12.984
27353W        W86889  30.994  27.196  12.361
27354W        W86890   7.747  37.881   2.316
27355W        W86891  21.144  34.495   0.896
27356W        W86892  18.746  18.207  13.486
27357W        W86893  33.514  25.684   3.150
27358W        W86894  42.359  12.191   2.750
27359W        W86895  12.725  35.520  11.885
27360W        W86896   5.910   4.210   0.886
27361W        W86897  12.336   1.838  11.448
27362W        W86898   9.236  37.366  12.994
27363W        W86899  41.927   6.235   4.606
27364W        W86900  30.030  20.184   1.306
27365W        W86901  44.787  22.652   4.614
27366W        W86902   2.863  33.413  12.973
27367W        W86903  22.594  26.493   4.130
27368W        W86904  29.665  23.139  12.087
27369W        W86905  17.651  14.834   1.422
27370W        W86906  28.666   9.312  12.520
27371W        W86907  23.219  32.631  12.869
27372W        W86908  21.516  41.983  12.897
27373W        W86909  19.730  33.072   0.254
27374W        W86910  39.060   7.364   4.268
27375W        W86911  27.985  12.729  13.453
27376W        W86912  40.448  10.194   3.225
27377W        W86913  34.550  26.971  14.829
27378W        W86914   6.390  14.152  12.015
27379W        W86915   5.287  38.954   4.695
27380W        W86916  11.667   0.892  12.060
27381W        W86917  10.244   6.751  12.359
27382W        W86918   5.401  26.547  13.516
27383W        W86919   7.682  28.185  13.405
27384W        W86920   6.700  12.856  10.573
27385W        W86921   7.198  31.138  14.410
27386W        W86922   7.209   0.454  13.924
27387W        W86923  22.707   0.772   4.140
27388W        W86924  18.118  41.795   4.173
27389W        W86925  27.461  23.140  11.573
27390W        W86926  19.572  40.978   2.693
27391W        W86927   6.184  19.689  11.086
27392W        W86928  20.724  35.046   1.418
27393W        W86929  12.272  37.954   2.838
27394W        W86930  29.986  13.619  14.796
27395W        W86931  23.126   2.256  11.089
27396W        W86932  25.047   6.820   0.886
27397W        W86933  36.409  24.635  13.314
27398W        W86934  14.630  33.419  14.381
27399W        W86935   7.824  26.002   3.368
27400W        W86936  11.684  24.623   4.143
27401W        W86937  31.980  17.237  14.019
27402W        W86938  39.432  40.461   4.134
27403W        W86939  31.896   0.444   4.161
27404W        W86940  16.186  23.735  11.374
27405W        W86941  14.801   7.245  13.478
27406W        W86942  20.573  28.036   4.720
27407W        W86943   3.221  28.480  11.573
27408W        W86944  22.059  10.639   3.291
27409W        W86945  14.262  37.989  11.941
27410W        W86946   9.858   0.304  13.409
27411W        W86947  14.196  41.834  10.627
27412W        W86948  32.034  11.740  10.439
27413W        W86949  34.971  13.620  10.968
27414W        W86950  34.400  43.335   3.843
27415W        W86951  40.538   2.294   5.667
27416W        W86952  34.372  22.085   2.211
27417W        W86953  24.512  38.455   0.321
27418W        W86954  36.939   8.686  12.405
27419W        W86955   6.818  38.937   0.859
27420W        W86956  23.089  35.447  10.977
27421W        W86957   9.830  14.735   3.361
27422W        W86958  26.054   5.203   4.283
27423W        W86959  33.009  37.941   1.729
27424W        W86960  28.053  40.960  11.384
27425W        W86961   1.279  38.949  12.993
27426W        W86962   6.694  13.819  14.760
27427W        W86963   5.737  39.435  14.995
27428W        W86964   1.956  10.802  14.934
27429W        W86965  25.623   0.368  11.903
27430W        W86966   7.258  23.200  12.962
27431W        W86967  19.603  42.812  11.520
27432W        W86968  31.073   5.377   1.872
27433W        W86969  36.976  17.107   4.181
27434W        W86970  24.089   5.756  12.362
27435W        W86971  22.134  19.151  12.448
27436W        W86972  39.061  21.023   1.849
27437W        W86973   6.326   9.275   0.408
27438W        W86974  40.931  42.851   0.304
27439W        W86975   8.897   1.887   0.351
27440W        W86976  43.813  20.095   0.879
27441W        W86977  42.485   8.709  12.489
27442W        W86978  32.473  10.852  11.110
27443W        W86979  41.298   8.210  12.436
27444W        W86980  34.932   7.677   4.291
27445W        W86981  39.425  24.080  13.462
27446W        W86982  26.111  14.153   2.706
27447W        W86983   3.303  42.965   2.228
27448W        W86984  22.012   9.231  14.825
27449W        W86985  14.805  19.046  13.946
27450W        W86986  42.514  12.801   5.292
27451W        W86987   2.754  19.139   3.826
27452W        W86988  33.974  43.939  10.941
27453W        W86989  30.116  19.246  12.854
27454W        W86990  24.172  26.951  13.052
27455W        W86991   8.247  13.760  14.885
27456W        W86992  14.676  10.308  11.954
27457W        W86993  36.378  26.617  12.397
27458W        W86994  43.897  15.765  13.989
27459W        W86995  41.039  26.493  14.369
27460W        W86996   3.843  42.453   2.276
27461W        W86997   1.431  43.308   2.839
27462W        W86998  29.034  32.561   3.725
27463W        W86999  33.569  11.779  13.850
27464W        W87000  27.140  16.768   0.336
27465W        W87001   8.363  30.561  14.826
27466W        W87002  39.536  38.514  12.549
27467W        W87003  25.982  14.720   3.791
27468W        W87004  44.846  14.173   0.761
27469W        W87005  20.706   5.416   1.321
27470W        W87006  19.234  26.520   2.726
27471W        W87007  15.272  28.625  11.007
27472W        W87008  13.137   6.202   2.873
27473W        W87009   2.265  31.611   4.114
27474W        W87010   5.867  33.412  14.503
27475W        W87011  33.072  11.825  13.503
27476W        W87012  30.992  39.515   4.299
27477W        W87013  34.867  43.795   0.474
27478W        W87014  25.540  30.437  11.600
27479W        W87015  38.915  26.989   4.808
27480W        W87016  29.998   7.743   0.777
27481W        W87017  11.708  41.889   1.315
27482W        W87018  11.253  36.087   1.749
27483W        W87019   3.899  14.718  14.814
27484W        W87020   6.780  26.650   3.165
27485W        W87021  22.051  32.393  13.921
27486W        W87022  22.119  43.863   2.323
27487W        W87023   7.807  16.659  13.869
27488W        W87024   2.729   7.815  13.425
27489W        W87025  20.572  22.647   3.737
27490W        W87026   1.401  33.109  14.803
27491W        W87027  19.763  35.600  13.314
27492W        W87028  13.346  35.566   1.403
27493W        W87029  35.058  22.184  11.025
27494W        W87030  33.955   0.356  10.479
27495W        W87031   7.715  27.106  13.862
27496W        W87032  29.110   4.419  13.061
27497W        W87033  30.003  40.043   4.123
27498W        W87034  25.053  16.688  10.582
27499W        W87035  11.160  26.068  11.393
27500W        W87036  31.409   4.896  13.358
27501W        W87037  28.141  10.284  12.065
27502W        W87038   3.271  44.263  11.605
27503W        W87039  18.603  29.151  12.055
27504W        W87040   5.366  17.243  10.448
27505W        W87041   3.424   6.830   3.149
27506W        W87042   3.260  38.921   1.926
27507W        W87043  12.229  10.744   4.727
27508W        W87044  38.501   9.707   1.414
27509W        W87045  25.501  18.727   0.921
27510W        W87046   5.267  23.613   1.239
27511W        W87047  24.122  24.523   1.267
27512W        W87048  29.112  34.975   0.383
27513W        W87049  44.796  25.135  10.099
27514W        W87050   1.806  11.246   0.926
27515W        W87051  41.948  33.972  11.475
27516W        W87052  20.759  37.074  13.402
27517W        W87053  44.881  26.688  14.298
27518W        W87054  27.499   3.953   2.215
27519W        W87055  18.159  20.256   0.939
27520W        W87056   9.715  34.071   4.131
27521W        W87057  44.419   1.294  12.361
27522W        W87058  27.176  19.675  13.803
27523W        W87059  33.509  10.321   3.275
27524W        W87060  22.694  11.371   1.387
27525W        W87061  20.090   4.223   4.755
27526W        W87062   0.988  31.125   0.415
27527W        W87063   9.299  41.842   0.927
27528W        W87064  22.152   5.867   0.256
27529W        W87065  25.034  25.537  13.014
27530W        W87066  22.087  13.105   0.314
27531W        W87067  16.566   7.706   3.807
27532W        W87068  21.106   1.964  14.951
27533W        W87069  23.096   6.215  12.529
27534W        W87070  10.229  42.432   4.231
27535W        W87071   2.886  43.398   2.403
27536W        W87072   7.786  35.458   1.894
27537W        W87073   3.856  11.796   2.731
27538W        W87074  26.035  33.906   2.309
27539W        W87075  10.693   7.341  14.349
27540W        W87076  29.924   8.678  14.932
27541W        W87077   0.930   4.832   1.732
27542W        W87078  20.265  41.953   2.219
27543W        W87079  34.054  29.633  10.513
27544W        W87080  36.544  44.450   0.805
27545W        W87081  13.166  20.642   4.116
27546W        W87082  16.805  26.637   0.949
27547W        W87083  38.495  36.026  11.447
27548W        W87084  39.485   2.770   0.884
27549W        W87085  16.102  44.399   4.118
27550W        W87086  20.570  30.007  13.354
27551W        W87087   1.260  24.111  10.930
27552W        W87088  25.588   5.266   0.743
27553W        W87089   4.317  24.643   1.912
27554W        W87090  40.526  28.174  10.982
27555W        W87091  16.223  39.827  10.509
27556W        W87092  17.275  11.657   2.370
27557W        W87093   5.386  14.614  13.543
27558W        W87094  26.692   4.831  10.999
27559W        W87095  10.826   6.409  14.023
27560W        W87096   4.380  32.903   2.667
27561W        W87097  28.120  27.517   1.318
27562W        W87098  32.902  41.947  12.826
27563W        W87099  39.024  32.406   0.458
27564W        W87100   7.745   5.695  13.420
27565W        W87101   2.424   1.259   1.225
27566W        W87102  35.360  17.653   4.640
27567W        W87103  39.953   4.353   3.257
27568W        W87104  35.105  40.544   0.903
27569W        W87105  24.671   3.919   1.902
27570W        W87106  20.218  37.396   1.281
27571W        W87107  36.488  43.310   2.690
27572W        W87108  26.096  23.104   4.637
27573W        W87109  30.577   7.711  11.461
27574W        W87110  40.811  23.570  13.867
27575W        W87111  43.864  25.632  11.102
27576W        W87112  15.290  19.046  13.445
27577W        W87113  43.920   3.716  13.021
27578W        W87114   5.299  20.126  12.933
27579W        W87115  35.876   8.690   1.724
27580W        W87116  29.654  30.947  14.876
27581W        W87117  24.229  41.035  10.994
27582W        W87118  40.514   2.800   4.769
27583W        W87119  33.966  13.169   3.630
27584W        W87120  44.493  15.120  14.855
27585W        W87121  34.925   3.864  13.919
27586W        W87122   7.364  29.480  14.821
27587W        W87123  36.851   8.672  11.485
27588W        W87124  22.104  18.290   0.359
27589W        W87125   2.444  21.049   2.256
27590W        W87126  15.231  24.003   3.855
27591W        W87127  11.148  11.667   1.822
27592W        W87128  16.753  35.060  11.923
27593W        W87129  16.802  43.954  14.289
27594W        W87130  21.557  15.225   4.745
27595W        W87131  38.347  38.846  10.569
27596W        W87132  15.273  44.289  14.803
27597W        W87133   1.375   9.712  10.642
27598W        W87134  32.081   8.366  12.905
27599W        W87135   3.812  28.079  13.933
27600W        W87136  18.287  28.012   0.916
27601W        W87137  43.426  42.878  13.322
27602W        W87138  43.394  44.324   3.179
27603W        W87139   8.161   4.408  14.382
27604W        W87140   2.356   3.852   4.762
27605W        W87141  20.728  42.987   4.649
27606W        W87142   4.281  32.055   2.879
27607W        W87143  30.073  35.080   4.832
27608W        W87144  21.737  18.786  13.934
27609W        W87145   2.816  33.940  13.053
27610W        W87146  23.539   4.245  14.410
27611W        W87147  24.170  30.569   2.896
27612W        W87148  41.480  15.292   3.724
27613W        W87149  12.678  15.704   3.706
27614W        W87150  12.197  33.435   3.746
27615W        W87151  18.154  16.708  14.958
27616W        W87152  10.220  42.352  11.915
27617W        W87153  22.165  17.094  13.838
27618W        W87154  18.272  43.280  11.471
27619W        W87155  24.054  21.617   1.778
27620W        W87156   7.782   3.717   2.321
27621W        W87157   2.762  32.025  14.490
27622W        W87158  18.673  26.672   2.312
27623W        W87159   0.811   4.296  12.868
27624W        W87160  33.886  16.117  10.518
27625W        W87161   8.255  44.403   1.428
27626W        W87162   3.885  29.440   1.451
27627W        W87163  12.308  14.181  11.123
27628W        W87164  20.539  39.976  13.879
27629W        W87165  17.256   7.317  11.385
27630W        W87166  25.180  35.956  14.910
27631W        W87167   6.307   8.265  11.023
27632W        W87168   7.174  21.203   3.272
27633W        W87169  21.619  28.054   1.759
27634W        W87170  10.342  34.408   0.860
27635W        W87171   4.729  28.155  11.976
27636W        W87172  25.680   4.754   1.853
27637W        W87173  30.543  43.852  13.973
27638W        W87174  37.082  26.526   4.721
27639W        W87175  26.653  15.217  10.953
27640W        W87176   5.893  43.916   3.161
27641W        W87177  36.498   8.192  11.936
27642W        W87178  42.000  22.049   2.787
27643W        W87179  12.219  37.500  13.799
27644W        W87180  14.718  26.962  10.623
27645W        W87181  40.428  22.577   2.707
27646W        W87182  22.081  41.894   2.306
27647W        W87183  25.148  18.126  12.948
27648W        W87184  16.113   0.478  11.378
27649W        W87185  25.172  33.611  12.081
27650W        W87186  33.917  19.739   3.376
27651W        W87187  16.130   1.891   0.745
27652W        W87188  25.599   9.819   1.845
27653W        W87189  10.236  31.974   3.634
27654W        W87190   6.272  41.348   4.721
27655W        W87191  17.123  13.123   0.726
27656W        W87192  11.748  18.697  11.869
27657W        W87193  43.828  14.179  12.486
27658W        W87194  11.827  33.129   3.365
27659W        W87195  13.679  36.447  12.826
27660W        W87196  30.483  40.374   3.267
27661W        W87197  39.054   8.673   0.437
27662W        W87198  36.529  37.400  12.082
27663W        W87199   4.759  10.210  13.522
27664W        W87200  38.972  43.405   0.923
27665W        W87201   1.404  25.674  11.000
27666W        W87202  37.370  10.271  14.901
27667W        W87203  31.948  39.386   1.813
27668W        W87204  22.553  14.711   4.650
27669W        W87205   5.259  15.747   0.947
27670W        W87206   2.857  11.698   4.673
27671W        W87207  32.895  20.267   3.209
27672W        W87208  38.354  20.203   1.400
27673W        W87209  33.112  36.514   4.812
27674W        W87210  34.865  41.416   3.277
27675W        W87211   0.351   6.862   0.425
27676W        W87212  27.525  21.544   3.284
27677W        W87213  11.829  22.105  10.603
27678W        W87214  37.553   8.780  11.523
27679W        W87215  24.557   3.287  11.106
27680W        W87216  34.930   3.936  13.423
27681W        W87217   7.681  28.604  14.275
27682W        W87218  10.644  31.143   0.444
27683W        W87219  15.722  15.645  11.537
27684W        W87220  18.574  16.250   4.753
27685W        W87221   7.796   5.254   0.794
27686W        W87222  22.091  31.580  12.894
27687W        W87223  15.250  30.058  14.884
27688W        W87224   5.817   8.208  12.545
27689W        W87225  41.423  44.487   2.810
27690W        W87226  39.013  15.179  11.459
27691W        W87227  43.984   2.419  14.791
27692W        W87228  37.018  33.572   3.725
27693W        W87229  28.122  44.420   0.762
27694W        W87230  42.471  32.474  14.915
27695W        W87231  12.288   3.224  14.973
27696W        W87232  29.060   1.960   1.286
27697W        W87233  44.984   6.296   1.214
27698W        W87234  24.181  26.508   1.894
27699W        W87235  10.336  16.759  10.626
27700W        W87236  10.855  44.264   1.330
27701W        W87237  40.911  18.668   1.752
27702W        W87238   0.876   5.270   2.209
27703W        W87239   7.363  28.652  13.055
27704W        W87240  11.750   6.710  14.344
27705W        W87241  36.545  42.461  14.832
27706W        W87242  26.092  30.556   1.278
27707W        W87243  29.157   4.816  12.916
27708W        W87244  20.092  28.115  13.339
27709W        W87245   8.740  37.956   1.396
27710W        W87246  20.664  13.291  10.995
27711W        W87247   0.365  38.932  12.883
27712W        W87248  35.002   5.693   3.654
27713W        W87249  20.549  33.898   4.677
27714W        W87250  12.696  25.105   0.345
27715W        W87251  33.080  11.229  10.491
27716W        W87252   4.842  27.531  13.879
27717W        W87253  10.637  17.603   0.816
27718W        W87254  29.006  25.594   5.778
27719W        W87255  24.146  31.643  14.915
27720W        W87256  16.588  34.102  11.063
27721W        W87257  42.513   5.690  12.481
27722W        W87258  25.180   0.281  10.903
27723W        W87259  14.613  37.007  13.529
27724W        W87260  33.892  32.410   0.801
27725W        W87261   2.942  28.002  12.420
27726W        W87262  17.204  31.538   3.844
27727W        W87263   1.893  22.729   2.783
27728W        W87264  41.864  30.966   2.216
27729W        W87265   9.735   9.160  14.489
27730W        W87266  29.075  29.571  11.966
27731W        W87267  19.593  33.924  13.981
27732W        W87268  36.025  27.138   3.663
27733W        W87269  38.526  37.491  12.984
27734W        W87270  21.133  33.414   0.957
27735W        W87271  37.029  31.123  11.454
27736W        W87272   2.911  18.062   1.836
27737W        W87273  18.172  37.870  11.952
27738W        W87274   3.250  14.150  10.910
27739W        W87275  22.050  28.636   4.676
27740W        W87276  14.674  30.567   2.764
27741W        W87277  21.753  38.544   3.380
27742W        W87278  26.190  38.937   4.336
27743W        W87279  10.285  10.383   2.809
27744W        W87280   5.227  17.768   2.192
27745W        W87281  33.013   5.918   1.765
27746W        W87282  12.152  15.183  11.042
27747W        W87283  20.191   3.748  14.839
27748W        W87284  43.887   2.279  13.538
27749W        W87285   7.728  15.183   1.312
27750W        W87286  32.492  44.830   2.345
27751W        W87287   6.829  43.403  13.920
27752W        W87288  12.136  13.736   1.334
27753W        W87289  26.618  11.649  11.123
27754W        W87290  40.547  24.992  11.895
27755W        W87291  39.982  19.558   1.761
27756W        W87292  39.964  20.228  13.046
27757W        W87293  32.111  31.507   3.664
27758W        W87294   4.438  27.544  14.426
27759W        W87295  15.630   0.409   0.727
27760W        W87296   5.832   2.825  11.413
27761W        W87297  40.348  24.589  11.883
27762W        W87298  18.152   4.362   4.626
27763W        W87299  17.770  27.540   4.187
27764W        W87300  16.603  13.127  14.382
27765W        W87301  32.979  24.513  14.875
27766W        W87302   8.825  26.489   1.388
27767W        W87303  16.593   9.826  14.511
27768W        W87304  20.688  19.158  12.549
27769W        W87305  40.435  23.505   2.382
27770W        W87306  19.552  20.733   0.907
27771W        W87307  26.509  34.483  14.030
27772W        W87308  25.685  10.661  10.585
27773W        W87309   5.855  41.867  14.505
27774W        W87310  28.649   0.864  14.013
27775W        W87311  30.566  12.338   1.299
27776W        W87312   0.831  20.196   0.478
27777W        W87313   6.741  14.241   4.163
27778W        W87314  15.701  44.414  12.058
27779W        W87315  30.082  27.456  13.364
27780W        W87316   6.207   2.339  14.342
27781W        W87317   4.292  34.099  13.363
27782W        W87318   8.261   9.680   4.316
27783W        W87319  32.494  13.620  13.438
27784W        W87320  35.414   0.326  14.821
27785W        W87321  25.965  34.456   3.858
27786W        W87322   3.760  12.766  13.845
27787W        W87323  23.649  33.063  12.938
27788W        W87324  10.795  30.137  13.377
27789W        W87325   3.846  13.601   4.237
27790W        W87326  39.509  20.695   0.279
27791W        W87327   1.909  12.354  12.471
27792W        W87328  15.102  38.825  12.888
27793W        W87329  17.064  44.330  10.121
27794W        W87330  19.569  40.909  13.492
27795W        W87331  21.649  40.817  11.461
27796W        W87332  35.598  15.798   4.126
27797W        W87333  16.184  29.668   1.257
27798W        W87334  17.224  42.406   4.286
27799W        W87335  11.642  22.680  13.459
27800W        W87336  11.282  33.516  13.052
27801W        W87337  18.257  11.312  14.364
27802W        W87338  13.179  16.313   2.838
27803W        W87339  41.818  10.664  12.405
27804W        W87340  21.636  11.867  11.878
27805W        W87341  29.502  19.642   0.875
27806W        W87342  20.216  15.750   3.785
27807W        W87343   3.733  44.992   2.751
27808W        W87344  40.921  24.583  11.082
27809W        W87345  32.417  17.799   2.249
27810W        W87346  25.505  37.882  14.314
27811W        W87347  26.031  18.134  14.447
27812W        W87348  34.566   2.929  13.930
27813W        W87349  34.456  28.620  13.448
27814W        W87350  40.998  18.099   1.421
27815W        W87351   5.884  28.476   0.739
27816W        W87352  20.220  40.515  13.814
27817W        W87353  26.109  43.315   2.754
27818W        W87354   6.828  26.697   1.932
27819W        W87355   7.263  32.137   0.412
27820W        W87356   9.184   6.690   1.929
27821W        W87357  40.937  32.399   4.737
27822W        W87358   2.874  16.277   3.696
27823W        W87359  31.484   6.376   2.201
27824W        W87360  41.877   7.274  14.469
27825W        W87361   3.756  26.492   0.809
27826W        W87362  29.000  15.800   2.231
27827W        W87363   8.710  44.903  14.451
27828W        W87364   9.888  16.151  14.978
27829W        W87365  34.437   0.253   3.278
27830W        W87366   5.378  13.229   2.343
27831W        W87367  14.831   1.859   4.729
27832W        W87368   0.934  24.698   0.365
27833W        W87369  33.893  31.138   1.694
27834W        W87370  18.216   0.786   0.353
27835W        W87371  44.779   0.896  11.064
27836W        W87372  18.223  18.208  11.540
27837W        W87373  19.582   1.966   3.783
27838W        W87374   5.284  14.301  10.985
27839W        W87375  30.424   1.878  11.895
27840W        W87376  31.619  14.300  11.105
27841W        W87377  25.970   8.318  12.017
27842W        W87378   4.758  24.630   2.232
27843W        W87379  31.015  18.172  13.849
27844W        W87380  14.242   1.365  14.347
27845W        W87381  18.593  14.173  10.116
27846W        W87382   2.834  32.098  13.953
27847W        W87383  13.744   1.942   3.299
27848W        W87384  17.129  31.994  13.533
27849W        W87385  30.631  26.676   0.848
27850W        W87386  37.057  27.608  13.909
27851W        W87387  18.254   2.283   4.309
27852W        W87388   3.847   6.394  12.013
27853W        W87389   5.809  22.527  11.414
27854W        W87390  36.435  44.848  13.513
27855W        W87391  23.727   0.839  12.851
27856W        W87392   8.176  22.689  13.828
27857W        W87393  28.452   5.244  10.427
27858W        W87394   4.933  39.427   0.763
27859W        W87395  32.622  22.129   2.683
27860W        W87396  31.491  44.787   2.679
27861W        W87397  41.926   6.279   0.812
27862W        W87398   6.837  36.990  11.045
27863W        W87399  41.939  25.629   3.276
27864W        W87400  15.740   2.385  14.278
27865W        W87401  25.575  19.732  13.439
27866W        W87402  25.517   4.860   0.402
27867W        W87403   2.372  22.628   1.788
27868W        W87404  42.425  14.823  12.992
27869W        W87405   7.314  18.755  12.499
27870W        W87406  33.029  38.395   0.921
27871W        W87407  44.817  42.489  12.093
27872W        W87408  18.135   9.301   4.820
27873W        W87409  38.518   5.366  13.477
27874W        W87410   5.869   0.429  10.512
27875W        W87411   6.680  43.016  12.556
27876W        W87412  41.480  39.822  11.111
27877W        W87413  27.667  13.323  11.869
27878W        W87414  39.845  18.256  11.901
27879W        W87415  41.332  44.815   2.751
27880W        W87416   0.910   7.343   0.966
27881W        W87417  36.011   7.861   3.154
27882W        W87418  39.884  23.624   1.312
27883W        W87419  36.355  41.938   0.273
27884W        W87420  12.199  15.595   9.925
27885W        W87421  16.662  12.665   4.637
27886W        W87422   4.803  32.008   2.416
27887W        W87423  34.511  38.851   1.854
27888W        W87424  11.253  39.022  10.626
27889W        W87425  29.654   2.272  14.350
27890W        W87426  13.171  21.607   4.629
27891W        W87427  20.097  31.421   1.700
27892W        W87428  42.809  15.703  11.935
27893W        W87429  30.450  33.484  14.925
27894W        W87430  23.122  31.439  11.077
27895W        W87431  15.117  44.468  13.006
27896W        W87432  16.142  29.965   4.155
27897W        W87433  14.807   6.873   5.146
27898W        W87434  26.661  12.228   4.660
27899W        W87435  19.732   3.935  14.335
27900W        W87436  11.195  33.614  13.911
27901W        W87437  10.805  35.927   1.728
27902W        W87438  26.025   8.698  14.970
27903W        W87439   6.903  42.809  12.859
27904W        W87440  22.141  20.121  10.460
27905W        W87441   3.366  13.816  10.516
27906W        W87442   1.844  19.705  13.061
27907W        W87443   7.406   4.400   1.246
27908W        W87444  25.171  43.809   1.773
27909W        W87445   8.273   6.733   1.222
27910W        W87446   5.856  10.249  13.539
27911W        W87447  31.139   9.663  12.093
27912W        W87448  14.238  24.016  13.494
27913W        W87449  33.965  22.021   3.254
27914W        W87450  37.410  38.008  12.420
27915W        W87451  21.574  23.671  12.054
27916W        W87452  33.918  24.515  11.457
27917W        W87453   9.655   3.857  12.391
27918W        W87454  25.640  42.443   4.204
27919W        W87455  31.432  31.404   3.647
27920W        W87456   9.830  35.577   2.676
27921W        W87457  37.397  27.487  11.977
27922W        W87458  15.671  10.350  13.884
27923W        W87459  41.300  42.483  13.807
27924W        W87460  39.897  29.043  11.032
27925W        W87461   8.267  24.133  11.120
27926W        W87462  33.093  24.153  13.494
27927W        W87463   4.761   1.295   2.801
27928W        W87464  37.867   4.449   4.289
27929W        W87465  37.080  12.123  12.555
27930W        W87466   1.474  20.056  11.895
27931W        W87467   9.782  43.427  11.513
27932W        W87468  32.467  44.285   3.314
27933W        W87469  26.547  38.439   3.356
27934W        W87470  32.616  41.395  13.856
27935W        W87471  23.088  25.195   1.380
27936W        W87472  18.661  37.931   1.775
27937W        W87473   0.425  39.903   3.743
27938W        W87474  10.685  41.925  14.860
27939W        W87475   1.283   7.306  11.919
27940W        W87476  29.558  35.007  10.898
27941W        W87477  18.151  28.580   0.852
27942W        W87478  38.513   8.364   3.653
27943W        W87479  24.619  39.357   0.826
27944W        W87480  39.454   7.256   3.159
27945W        W87481  20.246  15.641  13.001
27946W        W87482  42.488  44.822  13.900
27947W        W87483   4.380  23.540  12.920
27948W        W87484  17.762  25.998  12.527
27949W        W87485   7.296  39.407  11.001
27950W        W87486  14.199  14.302   3.359
27951W        W87487  15.216  24.667   0.756
27952W        W87488  41.351  15.322   3.335
27953W        W87489  18.734  32.552  13.325
27954W        W87490  23.081  32.506   0.832
27955W        W87491  17.691  28.633   0.336
27956W        W87492   9.298  13.136   2.384
27957W        W87493   6.325  16.603  14.808
27958W        W87494  44.871  11.863   3.200
27959W        W87495  41.804  44.437   0.299
27960W        W87496  24.159  31.114  14.014
27961W        W87497   5.833  38.429  13.807
27962W        W87498  22.546  36.037   1.319
27963W        W87499  13.701  33.883  13.925
27964W        W87500  13.275   7.331   1.300
27965W        W87501  25.088   1.786  12.380
27966W        W87502   2.285  44.997   4.143
27967W        W87503   0.877  34.068  11.458
27968W        W87504  25.026  23.672  13.047
27969W        W87505  30.994   8.247   3.844
27970W        W87506  15.707   8.891  12.434
27971W        W87507   2.947  35.963   0.786
27972W        W87508  13.737   5.902   1.790
27973W        W87509  29.959   1.867   4.141
27974W        W87510  33.394   5.933   1.894
27975W        W87511  14.262  44.479   4.603
27976W        W87512  42.944  25.069  12.382
27977W        W87513  43.952  10.268   2.408
27978W        W87514  31.038  42.013  14.415
27979W        W87515  38.838  28.980  13.873
27980W        W87516  20.766   5.718  10.643
27981W        W87517  13.293  13.134   0.874
27982W        W87518  41.804  23.163   3.196
27983W        W87519   1.964  34.515   4.833
27984W        W87520  32.416  22.997   0.790
27985W        W87521   0.376  26.128   2.716
27986W        W87522  30.653   9.379  13.468
27987W        W87523  22.702   5.370  12.397
27988W        W87524  18.058  21.091   0.306
27989W        W87525  40.529  16.261   2.890
27990W        W87526  44.301  18.706  13.957
27991W        W87527  25.615  37.352  13.948
27992W        W87528  28.044  43.926  12.085
27993W        W87529  34.415  13.617   0.832
27994W        W87530  31.959  32.139   4.159
27995W        W87531  12.294  29.044  14.478
27996W        W87532  34.478   9.826   4.725
27997W        W87533  26.512  38.825   3.147
27998W        W87534  25.611   5.295   2.319
27999W        W87535  34.493  16.754   1.368
28000W        W87536  27.143  39.932  12.970
28001W        W87537  12.169  41.893  14.819
28002W        W87538  16.569  22.523   2.863
28003W        W87539  43.952  18.771  10.564
28004W        W87540  31.907  39.467   1.244
28005W        W87541  10.376  44.907   4.305
28006W        W87542  27.105   7.732   1.845
28007W        W87543  13.835  40.039  13.347
28008W        W87544  26.031   3.860   3.310
28009W        W87545  11.228  17.155  13.332
28010W        W87546  20.144   0.250   3.201
28011W        W87547  29.583   3.873  10.435
28012W        W87548  12.714   1.361   1.832
28013W        W87549  42.426  17.589  12.438
28014W        W87550  42.527  11.248   4.692
28015W        W87551   1.898  39.393   3.212
28016W        W87552  26.016  35.362  10.106
28017W        W87553  36.948  41.833  10.589
28018W        W87554  34.968  14.631  12.021
28019W        W87555  23.593  23.170   4.345
28020W        W87556  40.036  34.587  13.809
28021W        W87557   0.927   4.337   4.292
28022W        W87558  43.971  16.073  13.005
28023W        W87559  23.520  12.795   4.771
28024W        W87560  43.922  24.158  10.453
28025W        W87561  24.584  31.429  14.343
28026W        W87562  33.498  19.589   2.179
28027W        W87563   9.305  35.420   0.326
28028W        W87564  23.582  28.146  10.937
28029W        W87565  18.158  12.123  10.457
28030W        W87566  28.464  44.830  13.012
28031W        W87567  17.108  40.518   4.750
28032W        W87568  24.103  26.094  10.636
28033W        W87569  33.454  17.134  13.837
28034W        W87570  25.972  33.071   4.135
28035W        W87571  18.580   9.262  12.871
28036W        W87572  27.615   3.826  13.318
28037W        W87573   2.938  42.964   0.401
28038W        W87574  25.575  33.482  11.895
28039W        W87575  14.711  31.025   3.202
28040W        W87576  20.120  23.170   0.391
28041W        W87577  13.780  20.755   2.683
28042W        W87578  32.572  43.424  14.412
28043W        W87579   2.251  43.846   1.281
28044W        W87580   3.370   7.364   4.223
28045W        W87581  33.907   4.926   0.283
28046W        W87582  12.710  22.714  14.487
28047W        W87583   5.923  20.701   3.301
28048W        W87584  35.042  25.033  14.295
28049W        W87585  18.134   8.835  12.426
28050W        W87586  43.902   8.846   1.316
28051W        W87587   4.818  29.950  11.464
28052W        W87588  11.767   5.313  12.841
28053W        W87589  30.081  26.602  12.908
28054W        W87590  14.689  14.597   4.776
28055W        W87591   7.205  18.725  13.033
28056W        W87592  23.725   4.821   1.818
28057W        W87593  43.276   5.772   1.304
28058W        W87594  23.041  30.139  11.576
28059W        W87595  12.331  13.262   3.366
28060W        W87596  18.252  36.517  11.444
28061W        W87597  17.649  33.018   2.814
28062W        W87598  44.489   1.747  12.467
28063W        W87599  32.526   3.714  11.500
28064W        W87600  30.111  33.098   3.670
28065W        W87601  22.664   2.908   0.332
28066W        W87602  10.168  34.391  11.613
28067W        W87603  28.521   9.217  13.929
28068W        W87604  27.998  26.171  12.056
28069W        W87605  41.798   7.250   3.674
28070W        W87606  38.934  16.685   4.350
28071W        W87607  39.887   7.730  11.607
28072W        W87608   9.284  14.595   1.368
28073W        W87609  37.999  30.938   2.744
28074W        W87610  36.906  31.000   2.286
28075W        W87611   8.825  35.592  11.605
28076W        W87612  31.454  28.113  11.106
28077W        W87613  14.679  30.104   4.125
28078W        W87614  44.448   8.837  10.576
28079W        W87615  24.622  32.898  12.914
28080W        W87616  11.677  36.060   1.799
28081W        W87617  12.685  33.964  13.796
28082W        W87618  19.234  35.531   3.794
28083W        W87619  13.200  31.621   0.734
28084W        W87620   6.717  38.407   1.225
28085W        W87621  23.222  28.181  12.960
28086W        W87622  22.025  36.967   0.782
28087W        W87623   2.256  19.676   4.763
28088W        W87624  27.668   4.309   1.858
28089W        W87625  13.126  40.815  10.427
28090W        W87626  42.522   8.203   4.115
28091W        W87627  25.999  31.422   1.758
28092W        W87628  10.867  42.845  14.275
28093W        W87629  10.254   2.935  12.884
28094W        W87630   8.406  37.011   0.368
28095W        W87631  28.035  10.653  12.849
28096W        W87632  44.409  41.332   3.168
28097W        W87633   3.324  29.607   3.216
28098W        W87634  14.110   8.381   4.134
28099W        W87635   5.933   3.835   2.398
28100W        W87636  27.621   3.714  11.925
28101W        W87637  40.513  35.478  11.025
28102W        W87638   4.887  19.176  11.124
28103W        W87639   0.865  21.062   4.251
28104W        W87640   8.895  14.825   1.857
28105W        W87641  21.173  25.964  11.062
28106W        W87642  36.945  39.413  14.024
28107W        W87643   4.777  41.538  11.104
28108W        W87644  21.045   0.901  10.892
28109W        W87645   1.472  21.254  11.558
28110W        W87646  13.256  36.449  14.461
28111W        W87647   2.262  40.525   3.265
28112W        W87648  40.530  14.219   2.349
28113W        W87649  31.556   6.185  11.377
28114W        W87650  11.863  27.684   3.182
28115W        W87651  30.551  17.085   0.304
28116W        W87652  14.179   3.861   2.316
28117W        W87653  38.930  20.195  10.593
28118W        W87654   1.330   9.661  12.537
28119W        W87655   2.737   6.875  14.348
28120W        W87656  15.149  28.530  13.022
28121W        W87657  24.047  12.121   3.309
28122W        W87658   7.338  20.723  14.364
28123W        W87659   0.850  23.556   2.775
28124W        W87660  31.976  10.712   4.333
28125W        W87661   6.766  40.306   3.738
28126W        W87662  21.223  31.139  12.486
28127W        W87663  42.781  22.075  11.596
28128W        W87664   8.269   9.682   1.756
28129W        W87665  10.344  29.632  12.956
28130W        W87666  25.558  33.880  10.985
28131W        W87667  20.711   8.796  12.880
28132W        W87668  37.421  13.599   4.158
28133W        W87669  40.838  40.522   2.314
28134W        W87670  21.062  40.949   0.809
28135W        W87671  36.581  31.616   1.872
28136W        W87672  41.929  21.148   5.195
28137W        W87673  35.383   1.776   0.302
28138W        W87674   3.956  34.112   2.834
28139W        W87675  26.540  29.446   1.837
28140W        W87676   1.948  27.019   1.433
28141W        W87677  12.132   6.895  11.928
28142W        W87678  18.791  19.579  14.958
28143W        W87679  13.242   8.323   1.321
28144W        W87680  27.562   3.427   3.240
28145W        W87681  16.583  30.478  14.337
28146W        W87682   0.889   2.876   1.852
28147W        W87683  41.803  41.379   1.799
28148W        W87684  30.565  39.965   2.840
28149W        W87685  18.219  37.942  11.453
28150W        W87686  32.065  34.874  10.929
28151W        W87687  17.788   3.384   5.320
28152W        W87688   5.883  12.803  11.460
28153W        W87689  20.063  35.379  11.103
28154W        W87690  39.928  18.772   0.961
28155W        W87691  27.144  19.581  12.892
28156W        W87692  36.044  18.764   3.633
28157W        W87693  33.897  40.974   3.212
28158W        W87694  12.357  41.453   3.159
28159W        W87695  16.165  34.021   0.910
28160W        W87696   0.853   3.346  10.573
28161W        W87697  20.547   5.911   9.654
28162W        W87698  13.727   0.776  12.385
28163W        W87699   1.444   4.264   4.136
28164W        W87700  35.436  27.000   3.790
28165W        W87701  36.509  17.233   3.670
28166W        W87702  43.368  42.422  14.989
28167W        W87703  36.454   3.240   4.805
28168W        W87704  41.900  39.504  11.871
28169W        W87705  30.483   2.842   0.258
28170W        W87706   1.461  37.401  14.428
28171W        W87707   2.306  23.152   4.321
28172W        W87708  22.224  31.905  14.929
28173W        W87709  23.226  15.126  11.937
28174W        W87710  29.034   3.373  14.823
28175W        W87711  17.156  18.207  14.876
28176W        W87712  20.628  21.122  13.933
28177W        W87713  25.644  17.085   1.821
28178W        W87714  16.136  41.498  13.427
28179W        W87715  18.264  14.155   3.232
28180W        W87716  44.000  18.200  13.461
28181W        W87717  43.982  20.077   1.844
28182W        W87718   8.711  11.366  12.437
28183W        W87719  14.255  12.774   1.301
28184W        W87720  21.137  20.261   1.922
28185W        W87721  17.146  42.405   3.715
28186W        W87722   7.402  13.629  13.356
28187W        W87723  40.316  24.638  12.922
28188W        W87724  16.177  30.062   0.863
28189W        W87725  13.142  21.213  12.511
28190W        W87726   0.978  44.434   9.963
28191W        W87727   9.207  38.914   4.728
28192W        W87728  41.434  37.408  13.457
28193W        W87729   1.266  38.927   2.413
28194W        W87730  11.680  27.995   4.315
28195W        W87731  16.148  33.875   1.788
28196W        W87732  13.812  44.334  12.832
28197W        W87733  25.687  26.546  11.595
28198W        W87734  37.904  32.957   2.222
28199W        W87735  22.538   2.330  14.435
28200W        W87736   3.280  32.614  10.503
28201W        W87737  13.700  37.497   3.271
28202W        W87738  34.911  37.454  12.847
28203W        W87739  27.127  35.532  14.868
28204W        W87740  36.068  42.446   3.386
28205W        W87741   9.329  16.109   4.132
28206W        W87742   9.824   6.768   9.473
28207W        W87743   9.325  32.889   0.288
28208W        W87744  40.452  33.585  13.850
28209W        W87745   3.387  11.267  10.609
28210W        W87746  29.482   8.761   0.965
28211W        W87747  11.792  23.572  12.074
28212W        W87748  28.124  44.813   2.800
28213W        W87749  26.164  30.489  14.310
28214W        W87750  15.725  38.898  12.401
28215W        W87751  34.932  37.046  13.333
28216W        W87752  31.600  23.113  11.490
28217W        W87753  27.653  41.005  14.022
28218W        W87754  22.514  23.120  14.908
28219W        W87755  40.534   5.856   1.918
28220W        W87756  32.956  44.755  14.979
28221W        W87757   4.296  32.993   3.285
28222W        W87758  12.187  10.863  12.546
28223W        W87759  20.751   6.769   1.694
28224W        W87760  23.235   3.240  13.528
28225W        W87761  16.641   7.286  13.929
28226W        W87762   7.193  15.578  11.106
28227W        W87763  31.017   1.478  12.547
28228W        W87764  36.094  10.337  12.025
28229W        W87765  20.662   3.458  13.944
28230W        W87766   6.743   8.357   0.818
28231W        W87767   9.869  24.641  14.940
28232W        W87768  31.952  38.350  10.104
28233W        W87769  33.063  18.705   3.856
28234W        W87770  38.399  30.528  11.924
28235W        W87771  31.151  44.854   1.382
28236W        W87772   2.429  40.800   1.876
28237W        W87773   7.352  31.457   4.336
28238W        W87774  33.069  10.777  12.065
28239W        W87775  23.568  25.624  13.547
28240W        W87776  22.082  36.092   0.922
28241W        W87777  38.045  41.394   9.938
28242W        W87778  37.555  39.046   2.218
28243W        W87779  20.756  29.468  10.955
28244W        W87780   4.388  41.300   2.189
28245W        W87781   3.729  44.778   0.295
28246W        W87782  22.503  18.199   5.668
28247W        W87783  31.478  34.016  14.973
28248W        W87784  40.804  21.087   1.351
28249W        W87785   9.290  16.707  12.001
28250W        W87786  11.261  17.269  11.602
28251W        W87787  12.279  17.623   0.861
28252W        W87788  44.476  31.006   4.348
28253W        W87789  19.185  43.822  12.924
28254W        W87790  10.668  10.689   2.267
28255W        W87791  13.123   7.750  11.423
28256W        W87792  19.134  38.065  11.961
28257W        W87793   1.951   0.936   2.733
28258W        W87794   1.916   2.919  11.867
28259W        W87795  11.284   0.887   2.370
28260W        W87796   4.369  24.717  13.382
28261W        W87797  44.993   4.808  11.976
28262W        W87798   4.732  23.187   2.247
28263W        W87799  23.564  20.118  14.351
28264W        W87800  41.808   0.750   2.862
28265W        W87801  36.992  39.526  14.421
28266W        W87802   7.738  42.801  10.004
28267W        W87803   4.865  19.542  13.821
28268W        W87804  23.216  21.580   1.753
28269W        W87805  44.901  15.144   0.352
28270W        W87806   3.937   1.791   3.811
28271W        W87807  29.531  37.944   4.688
28272W        W87808  23.707   2.356   3.289
28273W        W87809   6.397  22.735   3.799
28274W        W87810   1.331  43.884   0.927
28275W        W87811  36.062  20.257   1.426
28276W        W87812  14.167  40.013   0.370
28277W        W87813  44.829  29.104  12.426
28278W        W87814  21.708  35.556  11.888
28279W        W87815  23.052  27.066  12.029
28280W        W87816   4.767  44.954   0.420
28281W        W87817  38.014  35.536  13.480
28282W        W87818  15.812  13.243  13.924
28283W        W87819  24.095  17.088   2.279
28284W        W87820  24.975  35.596  14.295
28285W        W87821  23.694  29.156   4.633
28286W        W87822   5.859  23.531  12.910
28287W        W87823  20.619  19.269  12.902
28288W        W87824  43.489   3.376  13.908
28289W        W87825  34.577  19.574   0.362
28290W        W87826   4.718  25.972   0.269
28291W        W87827  36.578  17.651  13.040
28292W        W87828  18.585  43.919  11.431
28293W        W87829  32.418   3.349   5.116
28294W        W87830   5.384   6.317  14.952
28295W        W87831  25.012  12.296   0.483
28296W        W87832  28.507  16.159   2.833
28297W        W87833  25.101   4.285  11.002
28298W        W87834  38.867  42.870   1.359
28299W        W87835   9.195   9.746  13.905
28300W        W87836  33.010  15.092   1.851
28301W        W87837  29.574  40.911  12.872
28302W        W87838  14.773  11.164  11.504
28303W        W87839  24.039  14.262  10.911
28304W        W87840  19.535  14.735   4.117
28305W        W87841  14.662  26.491  10.984
28306W        W87842   6.754  34.995   0.755
28307W        W87843  11.262  25.013   2.780
28308W        W87844  34.048  13.235  10.591
28309W        W87845   7.408   1.746   4.697
28310W        W87846  18.199  33.986   3.870
28311W        W87847  19.058   8.744  13.510
28312W        W87848  31.561   7.376  12.464
28313W        W87849   7.212  42.504   0.860
28314W        W87850   4.744  22.208   1.416
28315W        W87851   2.247   7.257  10.020
28316W        W87852  40.380  11.235   4.674
28317W        W87853   4.416  25.698  12.501
28318W        W87854  44.333  23.685  11.534
28319W        W87855  36.489  24.532   3.837
28320W        W87856   1.742  38.893   2.346
28321W        W87857  26.485  32.568  11.603
28322W        W87858  31.087  17.088  10.541
28323W        W87859   8.179  24.534  14.867
28324W        W87860  28.009  23.621  14.493
28325W        W87861   4.260  42.328   0.287
28326W        W87862  13.731  21.107  13.381
28327W        W87863   6.816  27.678   0.827
28328W        W87864  27.547   2.911  13.933
28329W        W87865  28.650  44.286   1.766
28330W        W87866  44.916   2.453   1.826
28331W        W87867  16.695   8.658  10.977
28332W        W87868   0.422  11.247  13.915
28333W        W87869   7.723  24.619  11.423
28334W        W87870  27.082   4.239   1.358
28335W        W87871  24.070   0.357   2.181
28336W        W87872  41.035  15.718  11.458
28337W        W87873   7.888  22.028   1.787
28338W        W87874  26.048  35.023   2.767
28339W        W87875  43.872  21.147  12.060
28340W        W87876  33.544   9.817  10.472
28341W        W87877   3.232  25.115   1.247
28342W        W87878  34.466  39.349   1.870
28343W        W87879  24.570  26.627  11.893
28344W        W87880   6.326   8.874  12.436
28345W        W87881  39.526   4.268  10.449
28346W        W87882   8.271  29.554  14.473
28347W        W87883   1.266  16.738   4.818
28348W        W87884   0.301  12.178   3.314
28349W        W87885   6.756   4.700  11.015
28350W        W87886  37.024  44.806  10.937
28351W        W87887  18.297  28.598  10.580
28352W        W87888  44.484   1.891   3.745
28353W        W87889  38.537  34.579   0.351
28354W        W87890  24.717  43.962  12.934
28355W        W87891  10.292   5.870   2.885
28356W        W87892   2.236   4.774   0.331
28357W        W87893  18.728  15.740  14.796
28358W        W87894   5.834  14.778  13.449
28359W        W87895  41.837  21.023  11.929
28360W        W87896  27.492  18.788  13.994
28361W        W87897  15.740  18.702   2.708
28362W        W87898  39.489   7.834   2.819
28363W        W87899  21.108  17.704   4.248
28364W        W87900  11.686   8.172   0.826
28365W        W87901  34.054   3.316   1.792
28366W        W87902  26.647  33.943   4.745
28367W        W87903  17.149   6.875   2.271
28368W        W87904   1.826   2.904   4.172
28369W        W87905  41.483  37.369  11.470
28370W        W87906  28.066  29.946   0.301
28371W        W87907  18.578  30.605  12.846
28372W        W87908  39.984  31.058  12.523
28373W        W87909  21.250  14.708  13.481
28374W        W87910  39.543  29.570  11.030
28375W        W87911  17.104  12.664  10.595
28376W        W87912   5.789  36.906  13.416
28377W        W87913   4.257  20.099  10.514
28378W        W87914  21.638   8.876   3.175
28379W        W87915  29.513   9.793  14.010
28380W        W87916  33.996   1.275   5.711
28381W        W87917  31.410  10.277   4.224
28382W        W87918   6.741  26.166   3.765
28383W        W87919   8.776   7.837  13.811
28384W        W87920  30.500  11.131  11.383
28385W        W87921   7.181   4.225   1.850
28386W        W87922  11.860  15.606   3.820
28387W        W87923  10.316  15.227  13.948
28388W        W87924  30.576  37.387  14.898
28389W        W87925  28.597  38.412   1.325
28390W        W87926   2.954  32.547   0.373
28391W        W87927  16.661  38.421   4.241
28392W        W87928  14.210  26.978  12.568
28393W        W87929  12.325  21.702   4.293
28394W        W87930  11.174   8.193  11.440
28395W        W87931   0.341  32.096  11.377
28396W        W87932  40.976   9.652  13.320
28397W        W87933   1.344  40.399   2.295
28398W        W87934   2.731   0.743   1.341
28399W        W87935  24.717   5.698  12.502
28400W        W87936  29.424  26.986   1.931
28401W        W87937  43.365  32.087  11.608
28402W        W87938  34.881  10.722  10.456
28403W        W87939  27.962   5.771  14.807
28404W        W87940  16.317  21.646   4.276
28405W        W87941  38.065  26.182   2.260
28406W        W87942  37.487  39.492   2.686
28407W        W87943  28.157  22.735   5.191
28408W        W87944  13.662  28.952   2.193
28409W        W87945  44.900  27.498   3.831
28410W        W87946  36.355  40.530  13.983
28411W        W87947  37.385  11.684  12.576
28412W        W87948  38.407  18.053  12.394
28413W        W87949  22.652  31.021  13.041
28414W        W87950  38.927  14.624   0.746
28415W        W87951   9.392  43.844  13.836
28416W        W87952  15.578  22.642  12.840
28417W        W87953  40.020  24.995  13.889
28418W        W87954  31.452  29.631   0.454
28419W        W87955  29.550  27.031   2.818
28420W        W87956  14.280  16.161   1.215
28421W        W87957  33.926   5.890  10.495
28422W        W87958  21.180  44.949   2.410
28423W        W87959   7.262   9.345   2.275
28424W        W87960  14.659  12.812  10.487
28425W        W87961  39.350  30.576  11.035
28426W        W87962   1.749  26.129   3.822
28427W        W87963  34.975  11.731   4.637
28428W        W87964  33.119   6.344   1.363
28429W        W87965  17.084   7.363   9.972
28430W        W87966   7.302  18.279  10.643
28431W        W87967  36.986   1.931  13.965
28432W        W87968  29.468  41.396   1.911
28433W        W87969  18.241  39.336  14.504
28434W        W87970  30.615  17.787  12.871
28435W        W87971  42.390   7.732  12.960
28436W        W87972  17.126  34.048  11.468
28437W        W87973  19.255  30.515  12.566
28438W        W87974  10.308  16.282   0.366
28439W        W87975  26.674  32.479  12.886
28440W        W87976  32.965   3.808  12.094
28441W        W87977  21.733  21.616   2.341
28442W        W87978   2.931  27.692   0.447
28443W        W87979  39.848  29.478   2.370
28444W        W87980  17.749   0.858   4.285
28445W        W87981  21.730   2.723   0.313
28446W        W87982   9.884  42.810   1.777
28447W        W87983  15.791  44.337  13.818
28448W        W87984  38.910  25.655   2.848
28449W        W87985  42.307  23.731  14.014
28450W        W87986  24.086  23.653  11.576
28451W        W87987  34.950  40.913  10.960
28452W        W87988  44.349  18.578   4.815
28453W        W87989  27.503  40.320   4.231
28454W        W87990  15.796   8.291  12.396
28455W        W87991  15.710  27.600  14.469
28456W        W87992  35.569   6.318   4.290
28457W        W87993   9.676  23.587  13.379
28458W        W87994  43.790  23.563  12.429
28459W        W87995  24.583  34.443   4.347
28460W        W87996  25.058  19.270   5.256
28461W        W87997  16.763  14.298   3.859
28462W        W87998  35.022   8.753   0.483
28463W        W87999  38.537  14.717   2.238
28464W        W88000  10.221  36.502  14.488
28465W        W88001  27.563  18.102   2.380
28466W        W88002  42.367  10.721  12.368
28467W        W88003  41.338  41.882   2.675
28468W        W88004  23.986  30.506  12.517
28469W        W88005   3.358  42.334   1.710
28470W        W88006  29.603  44.806  11.114
28471W        W88007  43.388  42.021   3.150
28472W        W88008  14.109   4.340   4.624
28473W        W88009  29.948  25.204   4.825
28474W        W88010   5.799   3.814  14.966
28475W        W88011  42.988  17.674   2.185
28476W        W88012  26.650   4.325   4.685
28477W        W88013  43.898   4.206  12.960
28478W        W88014  16.739  29.582   2.324
28479W        W88015   1.874  14.228   1.866
28480W        W88016  19.239  38.912  13.421
28481W        W88017  22.142   4.704   2.273
28482W        W88018  20.103  29.502   0.415
28483W        W88019   4.728  15.685   0.944
28484W        W88020  16.245   7.673  14.486
28485W        W88021  16.617  12.842  13.502
28486W        W88022  19.747  41.807  14.379
28487W        W88023   3.320  33.892   1.429
28488W        W88024  36.366  34.569  13.417
28489W        W88025  23.714  12.286  14.426
28490W        W88026  11.657   8.200   3.653
28491W        W88027  12.211  42.377   4.777
28492W        W88028  18.191  35.093   1.694
28493W        W88029  31.897  16.788  10.959
28494W        W88030  24.035  17.157  13.974
28495W        W88031  42.929  40.455  13.412
28496W        W88032  16.602  31.487   2.692
28497W        W88033  21.221  14.213  12.859
28498W        W88034   6.232  21.633   4.154
28499W        W88035  17.794  42.908  12.549
28500W        W88036   0.748  20.546   1.282
28501W        W88037  10.294  41.813  13.323
28502W        W88038  34.513   3.423   1.930
28503W        W88039  13.322   2.337   1.438
28504W        W88040  38.018  19.103   4.282
28505W        W88041  27.991  12.316  12.049
28506W        W88042  41.488  40.437   4.628
28507W        W88043  13.176  20.563  12.452
28508W        W88044  30.085  27.680   1.317
28509W        W88045   4.852  40.481   5.119
28510W        W88046   4.725  22.127   3.216
28511W        W88047   7.242   5.697  11.115
28512W        W88048   8.896  25.489  13.052
28513W        W88049  22.234  28.494  11.003
28514W        W88050  30.050  32.019  11.935
28515W        W88051   0.322  30.063  12.480
28516W        W88052  27.958  35.088  14.405
28517W        W88053  15.112   6.779   4.714
28518W        W88054  43.926  43.314  11.951
28519W        W88055  13.206  42.409  13.457
28520W        W88056  38.485  39.923   4.830
28521W        W88057   1.328  37.845  13.819
28522W        W88058  17.188  32.584  14.809
28523W        W88059  21.525  40.326  13.515
28524W        W88060  41.375  42.335  11.013
28525W        W88061  18.176  38.486  13.342
28526W        W88062  44.416  19.131   4.176
28527W        W88063  40.491  27.659  10.414
28528W        W88064  28.111  34.085  13.013
28529W        W88065  34.374   2.409  10.438
28530W        W88066  27.497  31.581  14.024
28531W        W88067  20.170  27.120   1.262
28532W        W88068  23.588   4.219   1.851
28533W        W88069  31.634  25.653   1.236
28534W        W88070  33.086  34.076  13.804
28535W        W88071   7.828  10.250  13.062
28536W        W88072  27.168  24.576   3.222
28537W        W88073  15.102  23.149   2.292
28538W        W88074  17.134  42.833  11.570
28539W        W88075  41.340  22.646   3.210
28540W        W88076  10.820  33.572   1.836
28541W        W88077  16.747  28.069   0.777
28542W        W88078  43.462  28.017  10.620
28543W        W88079   5.821  12.732   0.896
28544W        W88080  22.539  23.651   2.213
28545W        W88081   7.398   6.840   1.333
28546W        W88082  30.038  19.718   4.607
28547W        W88083  25.096  44.866  10.466
28548W        W88084  12.632  25.682   3.216
28549W        W88085  39.317   9.679   3.716
28550W        W88086  39.342  33.118  12.574
28551W        W88087  41.420   2.320  12.542
28552W        W88088  15.706  35.583  10.448
28553W        W88089   9.315  37.919   0.776
28554W        W88090   8.791  40.958  14.471
28555W        W88091   1.358  22.065  11.992
28556W        W88092   2.320   7.203   2.852
28557W        W88093  14.608  19.047   3.854
28558W        W88094  16.239  26.178  12.379
28559W        W88095  36.904  12.662   3.634
28560W        W88096  39.845  32.095  14.826
28561W        W88097  13.808  12.727  13.050
28562W        W88098  23.628  25.028  10.593
28563W        W88099  24.523  39.991   3.690
28564W        W88100   2.269  20.550   2.332
28565W        W88101   4.850   1.863   4.695
28566W        W88102  12.131  12.270  14.969
28567W        W88103  39.817  33.526  11.013
28568W        W88104  39.983  31.642   2.228
28569W        W88105  17.076  31.911   5.122
28570W        W88106  14.802   8.405   5.200
28571W        W88107  18.084  28.512   1.882
28572W        W88108  20.029  18.614  13.333
28573W        W88109   9.775  21.257  13.927
28574W        W88110   3.357  19.225  12.348
28575W        W88111   6.726  35.085  14.409
28576W        W88112   0.429  10.174  12.896
28577W        W88113  31.619  15.297  13.445
28578W        W88114  43.816  10.187  13.387
28579W        W88115  25.708   6.376  11.471
28580W        W88116  28.082   0.799  14.298
28581W        W88117  29.156  28.019  10.618
28582W        W88118  36.422   2.420  13.500
28583W        W88119  19.219  35.507   1.836
28584W        W88120  16.295  40.433  14.972
28585W        W88121  13.761  35.024  11.517
28586W        W88122  41.917  40.389   2.389
28587W        W88123  33.945  20.146   2.669
28588W        W88124  20.134  17.611   1.338
28589W        W88125  41.467  18.610  12.000
28590W        W88126  41.988  33.454   4.268
28591W        W88127  25.020  28.506  12.984
28592W        W88128  26.170  39.885   0.783
28593W        W88129   1.293  16.313  13.801
28594W        W88130  17.123  36.019  11.126
28595W        W88131   5.276  20.601  14.297
28596W        W88132  28.558   9.662   0.247
28597W        W88133  43.469  16.729  13.867
28598W        W88134   6.886  36.463  11.595
28599W        W88135  40.448  13.607   1.784
28600W        W88136  34.426  18.690  12.930
28601W        W88137   3.940  35.461  11.494
28602W        W88138  21.040  31.424   1.302
28603W        W88139   4.234  26.190  11.582
28604W        W88140  14.648   8.701  12.356
28605W        W88141  31.035   6.231  13.948
28606W        W88142  14.690   0.764  10.632
28607W        W88143  18.723  23.205   2.877
28608W        W88144  35.075   9.838   0.262
28609W        W88145  20.548  33.912   9.931
28610W        W88146  14.613  39.492  11.942
28611W        W88147  31.960   8.338   0.737
28612W        W88148  26.626  42.976   3.775
28613W        W88149  24.174  37.370   2.349
28614W        W88150  18.183   5.930  12.407
28615W        W88151  14.099  29.157   4.789
28616W        W88152  43.311  25.194   3.170
28617W        W88153  24.121   1.928   4.597
28618W        W88154   7.706  36.556  14.773
28619W        W88155  32.530  35.045   0.323
28620W        W88156  34.471   8.229   3.360
28621W        W88157   2.910  38.404   0.881
28622W        W88158  40.317  35.469   4.828
28623W        W88159  19.766  20.723  12.055
28624W        W88160   9.691  40.051  10.986
28625W        W88161  25.081  16.129  10.962
28626W        W88162  34.030  10.642  14.890
28627W        W88163  13.143  34.015  13.422
28628W        W88164  20.530  16.237   4.144
28629W        W88165  31.420  33.973  10.634
28630W        W88166  14.290  33.894   3.301
28631W        W88167  44.876  23.060   1.772
28632W        W88168  12.257  23.513   3.336
28633W        W88169  42.302   3.355  13.456
28634W        W88170  34.906  28.457   3.180
28635W        W88171  30.635   9.840   3.780
28636W        W88172  15.185   2.850  14.504
28637W        W88173  38.927  37.833  12.839
28638W        W88174   6.347   4.868  14.369
28639W        W88175  29.642  37.401   4.340
28640W        W88176  28.679  39.384   1.368
28641W        W88177  21.057  36.546   2.386
28642W        W88178   0.750  14.797   3.850
28643W        W88179   5.875   2.314  12.884
28644W        W88180  10.633  32.024  14.812
28645W        W88181  23.618  39.829   2.328
28646W        W88182  39.528   9.751  11.610
28647W        W88183  29.924   9.177   3.776
28648W        W88184  27.983  25.177   0.744
28649W        W88185  37.456  14.611  11.402
28650W        W88186   9.309   4.241  14.482
28651W        W88187   3.931  18.168   3.707
28652W        W88188  16.126  32.429   0.782
28653W        W88189  24.579  38.035  12.480
28654W        W88190  19.123   7.720   1.441
28655W        W88191  27.565   2.344  12.970
28656W        W88192   4.391  22.665  10.462
28657W        W88193  25.678  15.748   2.768
28658W        W88194  10.682   1.781   3.366
28659W        W88195  39.441  29.426   2.343
28660W        W88196  42.978  38.978  14.944
28661W        W88197  44.361  36.072  14.955
28662W        W88198  25.615   7.692   1.756
28663W        W88199  10.153   1.834   0.369
28664W        W88200  16.602   4.290  14.933
28665W        W88201  28.674   1.277  12.415
28666W        W88202   1.279  27.100   4.145
28667W        W88203  18.071  14.102   0.887
28668W        W88204  24.023  39.975   0.350
28669W        W88205  34.520  11.153  12.405
28670W        W88206  38.410  17.192  14.946
28671W        W88207  29.562  31.007  13.974
28672W        W88208  42.820  20.545   3.336
28673W        W88209  44.979   6.404   3.373
28674W        W88210  10.360  11.740   1.782
28675W        W88211   1.285  33.597   2.301
28676W        W88212  17.800  31.045   4.832
28677W        W88213  34.960  19.551   2.219
28678W        W88214  35.503  14.171   4.809
28679W        W88215  35.106   5.851   1.375
28680W        W88216  22.553   2.815   2.271
28681W        W88217  42.526  40.979   2.866
28682W        W88218  30.150  21.209  12.437
28683W        W88219   1.974  32.492   3.734
28684W        W88220  32.032  27.662   2.340
28685W        W88221  30.991   4.410   4.238
28686W        W88222  37.947  35.604   3.807
28687W        W88223   4.801  42.374  12.921
28688W        W88224  26.495  40.964   4.299
28689W        W88225  24.492   6.884  10.600
28690W        W88226  21.140  36.862  11.000
28691W        W88227  17.790  39.481   0.797
28692W        W88228  29.128  41.963  13.341
28693W        W88229   8.763  11.806   3.149
28694W        W88230  39.909  12.836   1.344
28695W        W88231  21.598   5.933  14.318
28696W        W88232  12.754  42.914  11.543
28697W        W88233  31.124  37.373   2.317
28698W        W88234  25.024   5.839  10.482
28699W        W88235  24.995  27.025   0.784
28700W        W88236  10.192  24.696   4.320
28701W        W88237   6.879  33.564   1.830
28702W        W88238  30.418   8.277   1.873
28703W        W88239  22.008  20.068  11.046
28704W        W88240   8.315   6.743   2.767
28705W        W88241  36.546  10.143  14.453
28706W        W88242   5.201  43.893   3.706
28707W        W88243  19.141  13.199  10.592
28708W        W88244   8.380  34.383   3.853
28709W        W88245  14.667  15.759   1.794
28710W        W88246  25.481  18.621   3.750
28711W        W88247  33.556  30.975   0.325
28712W        W88248  32.998  28.458   1.701
28713W        W88249  24.569  41.401   0.456
28714W        W88250   5.836  12.339   4.184
28715W        W88251   7.379  44.497   3.329
28716W        W88252  41.499  30.529  10.501
28717W        W88253  29.449  23.172   0.481
28718W        W88254  36.429  32.494  14.367
28719W        W88255  39.491   5.770  14.964
28720W        W88256   6.678  38.428   4.196
28721W        W88257  42.369  17.731   0.384
28722W        W88258  28.979  40.443  14.789
28723W        W88259  41.848   0.294   3.333
28724W        W88260  32.084  36.998   1.315
28725W        W88261  18.216   2.726   0.808
28726W        W88262  43.811  25.612   4.634
28727W        W88263   4.261   7.290   3.688
28728W        W88264  17.660  22.220   3.342
28729W        W88265  36.047   5.911   0.810
28730W        W88266  20.193  41.862   1.378
28731W        W88267  13.738  10.191  12.435
28732W        W88268  42.437  35.949   0.249
28733W        W88269  32.495   9.721  13.881
28734W        W88270  31.999  23.106  11.037
28735W        W88271  43.916  19.189   0.348
28736W        W88272  35.052  32.055   1.893
28737W        W88273   6.724   1.908  10.926
28738W        W88274  21.556  15.683   2.839
28739W        W88275  42.848   4.303   4.635
28740W        W88276  23.179  41.961  13.816
28741W        W88277  20.564  29.130  11.480
28742W        W88278  30.522  37.361   1.371
28743W        W88279  17.131  18.273  10.022
28744W        W88280  32.033  43.415   4.303
28745W        W88281  14.257   1.848  13.051
28746W        W88282  10.843  20.605   0.959
28747W        W88283  38.992  19.677  11.908
28748W        W88284  41.428   8.275  14.474
28749W        W88285   7.397  14.298  11.033
28750W        W88286  44.846  24.647   3.804
28751W        W88287  32.114  16.278   2.893
28752W        W88288  30.004  39.013  11.591
28753W        W88289  20.178  37.920   5.655
28754W        W88290  12.145  17.763  12.522
28755W        W88291   3.937  36.529  14.382
28756W        W88292  33.484  33.066  14.916
28757W        W88293  22.743  34.531   3.267
28758W        W88294  22.731  37.341   2.774
28759W        W88295  27.597  41.443  11.996
28760W        W88296  32.094  32.979   2.271
28761W        W88297  21.598  43.496  14.506
28762W        W88298  33.400  37.547   3.667
28763W        W88299   7.694  33.470  13.054
28764W        W88300  16.228   6.353   2.366
28765W        W88301   0.841  18.753  11.536
28766W        W88302  15.134  41.889   3.775
28767W        W88303  32.405  12.825  13.355
28768W        W88304  38.914  36.990  13.415
28769W        W88305  37.455  21.551  12.340
28770W        W88306  28.439  40.376  13.442
28771W        W88307   2.742  21.529  11.583
28772W        W88308  41.490   6.812   0.370
28773W        W88309  19.229  16.163   0.802
28774W        W88310  13.250  31.992   1.387
28775W        W88311  15.107   7.317   3.367
28776W        W88312   4.286  33.555   0.952
28777W        W88313  15.737  19.536  13.407
28778W        W88314  35.543  18.125  12.979
28779W        W88315   1.916   2.823  11.453
28780W        W88316  41.356  38.372   0.776
28781W        W88317   7.216   9.764  12.909
28782W        W88318  26.020  38.522  14.858
28783W        W88319   3.330  13.217   3.694
28784W        W88320  21.725  19.710  14.355
28785W        W88321  26.642   7.833  12.962
28786W        W88322  11.790  18.201   3.267
28787W        W88323  22.669  20.101  13.849
28788W        W88324  41.972  15.302  13.453
28789W        W88325  17.278  33.901   0.760
28790W        W88326  16.194   8.771   2.875
28791W        W88327  21.226   6.407   1.416
28792W        W88328   3.416  41.888  14.992
28793W        W88329  25.140   8.839  10.897
28794W        W88330  11.197   2.794  14.428
28795W        W88331  11.168  19.242   4.696
28796W        W88332  18.088  37.911  14.483
28797W        W88333   8.794   8.830  11.126
28798W        W88334   7.392  33.527   0.921
28799W        W88335   2.226  38.419   3.212
28800W        W88336  33.612  25.025  10.061
28801W        W88337  35.926   5.296   4.722
28802W        W88338  37.509  25.576   1.750
28803W        W88339  34.880  28.599  11.067
28804W        W88340  35.973  25.642  12.399
28805W        W88341   7.252  39.012   1.910
28806W        W88342  44.879  19.137   3.319
28807W        W88343  21.027  29.117   3.814
28808W        W88344  24.525  21.564   4.719
28809W        W88345  28.449  19.589  12.862
28810W        W88346  16.627  32.004   0.955
28811W        W88347  37.391  44.792   2.396
28812W        W88348  12.814  25.703   4.123
28813W        W88349  21.538  17.571  13.320
28814W        W88350  35.548  27.538   1.443
28815W        W88351  13.769   0.470   2.326
28816W        W88352  40.960   2.927  11.878
28817W        W88353  11.672  42.830  14.431
28818W        W88354  30.544  11.257   0.450
28819W        W88355  41.936  39.004   3.821
28820W        W88356  33.441  42.998  11.125
28821W        W88357  40.406  20.126   2.777
28822W        W88358  33.479  12.172   1.431
28823W        W88359  11.751  17.773   1.287
28824W        W88360  29.049  43.794  12.852
28825W        W88361  26.165  43.962  10.892
28826W        W88362  38.055  38.897   4.671
28827W        W88363  32.122   3.820  12.850
28828W        W88364  44.954  11.266  12.498
28829W        W88365  41.951  30.958  14.007
28830W        W88366  19.583   2.799  14.879
28831W        W88367  13.231   7.387  12.028
28832W        W88368  17.153  26.669   3.748
28833W        W88369  26.492  20.193   4.126
28834W        W88370  24.039  18.122  13.323
28835W        W88371  10.710  25.671   5.726
28836W        W88372  38.878  11.206   4.673
28837W        W88373  25.186   3.456  13.374
28838W        W88374  30.597   3.810   0.450
28839W        W88375  36.520  42.457   4.332
28840W        W88376  18.265  35.953   3.320
28841W        W88377  21.092  12.128   5.287
28842W        W88378   9.236   2.423  12.486
28843W        W88379  11.309   9.214  11.876
28844W        W88380   1.387  12.248  13.402
28845W        W88381  11.860  34.112   2.806
28846W        W88382  32.909   1.862   1.912
28847W        W88383  29.477  20.045   0.362
28848W        W88384  28.563  11.838  13.052
28849W        W88385  19.197  27.605   0.896
28850W        W88386  40.025  44.438   3.772
28851W        W88387  27.545   9.871   1.295
28852W        W88388  44.375  34.076   1.891
28853W        W88389  18.696  22.197   3.815
28854W        W88390  14.183  20.610  10.410
28855W        W88391   9.355  18.238  12.525
28856W        W88392  44.297  23.180   3.749
28857W        W88393  21.600   0.870  13.417
28858W        W88394  36.043  33.126  14.984
28859W        W88395  39.059  36.472   2.336
28860W        W88396  42.481  22.145   2.364
28861W        W88397  21.235  15.718   5.176
28862W        W88398  32.964  16.182   0.357
28863W        W88399  28.961   2.248   1.880
28864W        W88400  12.350  38.952  13.386
28865W        W88401  14.726  26.541   4.679
28866W        W88402   4.850  36.030  11.928
28867W        W88403  21.070   8.325  11.490
28868W        W88404  38.329  43.790  14.001
28869W        W88405  43.460  22.249  11.483
28870W        W88406  18.294   7.271  13.900
28871W        W88407  33.621  43.868  12.086
28872W        W88408  28.135  16.661  13.036
28873W        W88409  35.449  17.061  12.473
28874W        W88410  40.321  44.363   0.408
28875W        W88411  19.630  22.053  14.870
28876W        W88412   2.894  13.155  13.484
28877W        W88413  10.745  23.583   2.183
28878W        W88414  21.638  44.339  11.997
28879W        W88415  12.855  17.748  11.472
28880W        W88416  31.995  17.644   3.755
28881W        W88417  14.744  19.085   0.850
28882W        W88418  38.868  23.670   1.335
28883W        W88419  12.792  12.802   2.320
28884W        W88420   9.662  44.387  11.064
28885W        W88421  23.033  14.757   3.754
28886W        W88422  43.400  24.638   2.192
28887W        W88423  24.488  19.550   1.264
28888W        W88424  10.732  28.500   0.954
28889W        W88425  40.807  14.602  13.796
28890W        W88426  33.919  18.697  11.990
28891W        W88427  35.919  22.623  14.945
28892W        W88428  39.945  29.110  14.866
28893W        W88429  27.601   9.379  12.573
28894W        W88430  38.018   6.780   1.371
28895W        W88431  12.181  12.190  13.937
28896W        W88432  21.598  22.229  13.445
28897W        W88433  13.350  23.168   2.372
28898W        W88434  11.338   0.970   4.756
28899W        W88435  25.557   4.402   5.705
28900W        W88436   4.851  20.573  13.540
28901W        W88437   4.291  17.236  13.490
28902W        W88438   7.286  12.277   3.740
28903W        W88439   6.769  22.213   3.355
28904W        W88440  22.670  38.955  13.881
28905W        W88441   8.399  43.314   1.237
28906W        W88442  32.455  33.900   0.731
28907W        W88443  39.921   7.720   1.435
28908W        W88444  38.062  43.510   2.800
28909W        W88445  25.059   9.357  11.042
28910W        W88446  10.820  29.523  14.886
28911W        W88447  14.814  36.066   5.274
28912W        W88448  33.065   9.306   2.842
28913W        W88449  38.938  38.382   2.417
28914W        W88450  14.733  15.803   4.739
28915W        W88451  39.004   0.477   1.735
28916W        W88452  31.939  32.567   2.728
28917W        W88453  43.285  17.299   2.232
28918W        W88454  34.493  26.107  13.489
28919W        W88455   3.422  36.973   4.137
28920W        W88456  21.723   8.659   3.752
28921W        W88457  20.717  43.915   0.894
28922W        W88458   2.789  39.515   1.748
28923W        W88459  41.448  38.327   3.145
28924W        W88460  30.617  35.912  14.993
28925W        W88461   3.323  19.087  12.903
28926W        W88462  17.307  33.421   2.405
28927W        W88463  33.614   6.277  11.605
28928W        W88464   7.298  13.837   0.324
28929W        W88465  37.937  35.368   1.321
28930W        W88466  21.625  21.720  12.398
28931W        W88467  20.165  19.064   0.935
28932W        W88468  15.313  24.067  14.977
28933W        W88469   7.719   3.444  13.307
28934W        W88470  31.475  27.619   3.645
28935W        W88471   4.821   3.255   1.211
28936W        W88472  14.181  32.942   2.329
28937W        W88473  19.056  22.573  14.803
28938W        W88474   6.283   4.319  13.392
28939W        W88475  29.166  34.105  11.953
28940W        W88476  16.648  38.503   4.713
28941W        W88477  22.008  37.498  12.028
28942W        W88478  27.044  21.153  14.513
28943W        W88479   3.766  19.574   4.783
28944W        W88480  36.458  15.145   3.192
28945W        W88481  34.872  13.248  14.988
28946W        W88482  30.145  36.914   2.798
28947W        W88483  44.764  13.253   5.164
28948W        W88484  39.835  29.013   2.227
28949W        W88485  15.240  14.623   2.310
28950W        W88486  11.337  44.338  14.386
28951W        W88487  15.140  14.326  12.880
28952W        W88488  28.575  31.006   0.367
28953W        W88489  30.028  16.651  14.855
28954W        W88490  41.035   7.676  10.493
28955W        W88491   1.787  26.582  11.515
28956W        W88492  32.943   4.791   0.398
28957W        W88493   6.872  26.479  13.410
28958W        W88494  43.370  14.676   4.732
28959W        W88495  20.107  41.840   4.246
28960W        W88496  23.616  27.672  10.615
28961W        W88497  39.940  42.420   4.816
28962W        W88498  27.055  19.252   2.835
28963W        W88499   5.772  43.802  12.936
28964W        W88500  34.582  15.597  13.459
28965W        W88501  20.751  20.272  12.531
28966W        W88502  39.956  15.682   4.264
28967W        W88503   1.745  17.667  14.930
28968W        W88504  19.543  43.844   0.418
28969W        W88505   7.387  19.709  14.837
28970W        W88506  43.009  37.415   2.356
28971W        W88507  26.044  42.888   5.291
28972W        W88508  15.822  26.993   5.224
28973W        W88509  11.838  31.971  12.037
28974W        W88510   9.743  29.926   4.602
28975W        W88511  32.046  29.994   2.747
28976W        W88512  25.588  36.421   3.371
28977W        W88513  22.610  42.006  13.393
28978W        W88514  18.670  34.950   0.824
28979W        W88515  14.729  21.226  13.448
28980W        W88516  10.683   2.264   2.225
28981W        W88517  21.056  23.580   2.901
28982W        W88518   4.249   6.338  10.578
28983W        W88519  29.454   2.911   1.252
28984W        W88520   8.299  20.675  10.481
28985W        W88521  15.247  22.056   2.201
28986W        W88522  40.957   5.884   2.818
28987W        W88523   5.766  36.039  10.920
28988W        W88524  41.934  32.620  11.974
28989W        W88525  25.495  41.977   4.643
28990W        W88526   0.924  19.276  12.517
28991W        W88527  42.856  15.135  13.471
28992W        W88528  39.940  38.006   2.246
28993W        W88529   7.267  39.928  11.126
28994W        W88530  29.567  14.777  11.506
28995W        W88531  42.953  12.238  14.303
28996W        W88532  34.409  18.152   0.330
28997W        W88533  21.244  35.469   3.822
28998W        W88534  38.949  42.376  13.957
28999W        W88535  44.385  31.409   3.230
29000W        W88536  18.086   1.294  13.539
29001W        W88537  37.453  18.073  11.412
29002W        W88538  41.872  26.650   9.968
29003W        W88539  23.636  26.970   2.691
29004W        W88540  33.913   6.744   3.735
29005W        W88541  35.468  15.738  10.474
29006W        W88542   9.770  44.386   3.229
29007W        W88543   2.266  18.776   4.262
29008W        W88544   9.725   1.240   2.768
29009W        W88545  26.662  26.977  11.949
29010W        W88546  17.084  14.752   0.318
29011W        W88547  35.969  31.569   0.291
29012W        W88548  24.508  10.288  14.452
29013W        W88549  37.018  14.753  14.962
29014W        W88550  31.116  23.542   4.177
29015W        W88551   4.832  40.851   1.907
29016W        W88552   4.324  32.915  11.059
29017W        W88553   1.895  20.674   2.372
29018W        W88554  20.740  36.060   0.393
29019W        W88555  21.118  17.768  13.349
29020W        W88556  18.211  17.632   3.837
29021W        W88557  35.368  38.462  11.455
29022W        W88558  27.942  44.426  10.608
29023W        W88559   1.354  38.951   0.754
29024W        W88560  18.713  39.899   4.624
29025W        W88561  16.760  35.590   1.222
29026W        W88562  21.047  36.995  13.480
29027W        W88563  14.215  39.020  12.850
29028W        W88564  16.769  30.084   0.761
29029W        W88565  24.632  41.380   1.738
29030W        W88566  26.016  15.685  13.062
29031W        W88567  40.857  44.901   2.780
29032W        W88568  43.848  33.497  14.310
29033W        W88569  16.666  19.662  12.937
29034W        W88570   2.905  19.707  13.833
29035W        W88571  20.687  42.352   4.700
29036W        W88572  33.099   5.721   2.320
29037W        W88573  29.659  30.112   3.769
29038W        W88574  40.544  28.101   5.218
29039W        W88575  33.906  43.981   2.271
29040W        W88576  28.447  34.575   4.304
29041W        W88577  26.585  15.579   3.823
29042W        W88578  39.874  17.756  10.457
29043W        W88579   9.747  13.313  13.942
29044W        W88580   6.826   9.276   4.664
29045W        W88581  15.189   1.946   3.722
29046W        W88582  19.535  22.540   3.768
29047W        W88583  24.553  15.745   2.666
29048W        W88584  17.699  16.717  14.787
29049W        W88585  29.669  19.225   0.891
29050W        W88586  23.650   3.716   0.244
29051W        W88587  24.066   4.269   2.884
29052W        W88588  10.308   7.883  11.897
29053W        W88589   7.302  32.888  10.597
29054W        W88590  29.432  12.133   4.294
29055W        W88591  19.086  40.954  12.459
29056W        W88592  11.169  25.643   4.244
29057W        W88593  22.571  16.785  10.541
29058W        W88594  28.937  40.005  10.494
29059W        W88595  24.058  42.899  12.462
29060W        W88596  24.182   1.839   1.428
29061W        W88597  29.088   7.176   3.657
29062W        W88598   3.357  27.670  12.929
29063W        W88599  42.921  30.474   1.298
29064W        W88600  31.981  37.473   0.945
29065W        W88601  36.365   7.704  11.974
29066W        W88602  17.775  16.573   2.716
29067W        W88603  35.053  13.129  11.465
29068W        W88604  43.330  42.509  13.994
29069W        W88605  24.709  28.174   4.307
29070W        W88606  38.378  17.200  11.871
29071W        W88607   5.717  15.149  12.458
29072W        W88608  13.347  28.638  11.400
29073W        W88609  36.898   2.957   0.327
29074W        W88610  22.203  22.716  11.899
29075W        W88611  16.743  30.934  11.548
29076W        W88612  14.101  44.324   0.835
29077W        W88613  38.340   0.920   0.821
29078W        W88614  19.271   0.941  11.915
29079W        W88615  37.056  42.032  14.953
29080W        W88616   2.833  44.500  12.544
29081W        W88617  28.945  16.263  10.937
29082W        W88618  40.955  14.748   3.711
29083W        W88619  28.988  25.977  11.425
29084W        W88620  13.348  37.424  12.407
29085W        W88621  24.228  15.679  13.005
29086W        W88622   1.275  38.886  13.921
29087W        W88623  10.645  36.094  12.504
29088W        W88624  34.871   6.226   4.809
29089W        W88625  24.489  29.150   2.301
29090W        W88626   6.880  27.603  11.899
29091W        W88627   7.857   5.875  12.877
29092W        W88628  23.496  32.077  11.535
29093W        W88629  30.487  29.536  14.948
29094W        W88630  26.962  37.491   2.200
29095W        W88631  29.440   8.384   1.706
29096W        W88632  28.545  19.192   9.550
29097W        W88633  24.080  44.895   0.883
29098W        W88634  41.038  29.005   4.654
29099W        W88635  14.810  44.303  12.081
29100W        W88636  28.652  21.685   0.886
29101W        W88637  20.544  34.448  11.892
29102W        W88638  30.100   7.680   3.331
29103W        W88639  21.235  35.579   0.443
29104W        W88640  17.252  12.258   0.301
29105W        W88641  25.163  13.752   0.908
29106W        W88642  22.576  16.247  11.481
29107W        W88643  41.463   1.946  13.900
29108W        W88644   1.313  14.285   0.787
29109W        W88645  35.484  26.958  13.358
29110W        W88646   6.833   2.874  10.927
29111W        W88647  35.955   7.277  12.523
29112W        W88648  19.043  44.396   3.357
29113W        W88649   6.879   1.296   1.445
29114W        W88650  24.644  30.641   2.664
29115W        W88651  16.257  12.166  13.954
29116W        W88652  39.433  25.541  14.282
29117W        W88653  28.048  20.086  11.401
29118W        W88654  40.877   6.342   1.745
29119W        W88655  25.152   6.708   4.238
29120W        W88656  34.436  40.999  14.313
29121W        W88657  20.692  13.724  10.480
29122W        W88658  12.201  25.561   4.793
29123W        W88659  31.910  29.123  10.631
29124W        W88660  18.106  23.573   0.405
29125W        W88661  20.056  20.164   3.151
29126W        W88662   1.797  40.526  14.884
29127W        W88663   3.356   3.855  10.603
29128W        W88664  14.589  22.223   4.274
29129W        W88665  44.424   6.763  10.903
29130W        W88666   7.358  37.395  14.012
29131W        W88667  19.086   9.709  11.460
29132W        W88668  29.166   3.226  10.524
29133W        W88669  25.097   1.849   0.474
29134W        W88670   0.444  32.945   4.811
29135W        W88671  28.670  31.504   4.778
29136W        W88672  11.768  13.275  13.447
29137W        W88673  26.516   5.228  12.843
29138W        W88674  36.846  21.538   0.872
29139W        W88675  23.060   9.281  12.831
29140W        W88676  32.555  28.518  13.058
29141W        W88677  39.950  16.606  11.126
29142W        W88678   7.314   8.684   4.836
29143W        W88679  33.098  24.070   2.826
29144W        W88680  13.706  14.664   2.229
29145W        W88681   6.885  35.559  13.546
29146W        W88682   7.852   9.175  13.949
29147W        W88683   5.357  20.067   2.179
29148W        W88684  17.071  42.882  12.855
29149W        W88685   5.306  35.597  11.425
29150W        W88686   3.750  21.686   0.775
29151W        W88687   0.334  28.457   3.367
29152W        W88688  17.234  33.508   3.160
29153W        W88689   0.400   8.817   0.245
29154W        W88690  14.663  32.122   3.384
29155W        W88691  24.594   0.864   0.785
29156W        W88692  10.676   7.174  13.425
29157W        W88693  37.456   2.378  14.806
29158W        W88694  34.119  14.328   2.306
29159W        W88695  32.921  43.444   3.661
29160W        W88696   2.873  19.618  11.458
29161W        W88697  41.984  34.940  12.049
29162W        W88698  38.493  34.108   2.752
29163W        W88699  14.653  13.158  11.048
29164W        W88700   9.171  28.944  14.485
29165W        W88701  26.083  36.053  13.508
29166W        W88702  39.482  27.536   3.804
29167W        W88703  10.297   0.776   2.708
29168W        W88704  21.751  37.496  13.316
29169W        W88705  16.721  14.173   2.700
29170W        W88706  36.466  34.009  13.391
29171W        W88707  26.463  13.794  12.082
29172W        W88708  44.827  16.780  11.981
29173W        W88709  34.039  27.603  11.549
29174W        W88710  14.813  42.527  12.510
29175W        W88711  36.425  42.824  13.451
29176W        W88712   0.983  26.673   2.343
29177W        W88713  12.722  41.972  11.896
29178W        W88714  30.047  17.184   0.260
29179W        W88715  33.393  30.612  13.407
29180W        W88716  20.522  36.935  13.905
29181W        W88717  25.603   0.467   2.189
29182W        W88718  17.595  20.708  13.520
29183W        W88719  16.092   3.236  13.317
29184W        W88720  23.543  26.069   4.229
29185W        W88721   4.412   8.807   0.958
29186W        W88722   0.770  20.606  12.978
29187W        W88723  19.741  39.943   3.256
29188W        W88724  38.962  34.443   2.359
29189W        W88725  15.706   0.485   0.327
29190W        W88726   9.829  14.678   4.690
29191W        W88727  27.004  40.916   0.418
29192W        W88728  25.661  18.052   3.776
29193W        W88729  14.314  15.821  11.569
29194W        W88730  30.922   3.244  12.019
29195W        W88731   6.779  20.269   2.886
29196W        W88732  12.313  34.084   3.755
29197W        W88733  44.928  25.125   1.695
29198W        W88734  32.099  22.168  14.946
29199W        W88735  37.007  29.011  12.467
29200W        W88736  16.601  39.917   4.693
29201W        W88737  39.547  40.940  10.420
29202W        W88738  24.546  17.688  12.944
29203W        W88739  10.245  42.834   1.807
29204W        W88740  33.454  39.348  11.039
29205W        W88741  28.971  27.961  13.355
29206W        W88742  13.669  29.000   0.356
29207W        W88743  20.694  16.804  12.956
29208W        W88744  18.193  38.942   0.954
29209W        W88745  37.467  17.733  14.444
29210W        W88746  14.163  34.964   2.270
29211W        W88747  31.627  18.134   2.877
29212W        W88748  33.905  27.454   1.377
29213W        W88749  33.007  28.617  13.876
29214W        W88750  29.559  26.056  14.781
29215W        W88751   1.465   9.685  13.415
29216W        W88752  24.678   9.879   2.715
29217W        W88753  38.052   4.278   2.206
29218W        W88754  10.273  24.039  11.476
29219W        W88755  20.650   3.391  10.463
29220W        W88756  40.459  30.126   0.273
29221W        W88757  35.361  30.910   1.785
29222W        W88758  44.805  13.680   4.137
29223W        W88759  34.059   6.771  13.807
29224W        W88760  24.010  43.368  14.354
29225W        W88761   3.439  22.737  12.514
29226W        W88762   0.331   5.922  14.313
29227W        W88763  40.888   8.704  11.073
29228W        W88764  42.789  40.518   2.705
29229W        W88765  34.073  33.962   2.805
29230W        W88766  19.281   4.238   3.658
29231W        W88767  40.460  23.708  14.483
29232W        W88768  28.144  31.102  13.474
29233W        W88769  13.791  27.161  12.909
29234W        W88770  14.311  19.591  13.795
29235W        W88771   8.256  30.160  12.927
29236W        W88772  10.274  21.089  13.996
29237W        W88773  42.946  26.498   1.284
29238W        W88774  26.660  36.521  14.001
29239W        W88775  17.722  40.039  11.514
29240W        W88776  29.987  37.460  11.037
29241W        W88777  32.425   1.270  10.948
29242W        W88778   4.241  44.874  14.411
29243W        W88779   8.799  40.330   0.726
29244W        W88780  14.237  28.634  10.929
29245W        W88781   7.252  38.385  13.000
29246W        W88782  42.808  34.036   1.785
29247W        W88783  21.595  26.507   0.749
29248W        W88784  19.725   1.458  12.432
29249W        W88785   9.303  39.985  13.524
29250W        W88786  25.053  42.467   3.311
29251W        W88787  10.838  44.774  12.438
29252W        W88788   3.245  33.435  11.512
29253W        W88789  19.688   6.721  13.010
29254W        W88790  12.798  28.589  11.427
29255W        W88791  24.085   9.379   0.386
29256W        W88792  23.023  22.604   2.319
29257W        W88793  22.666   7.830   1.380
29258W        W88794  36.551  17.090  13.399
29259W        W88795  26.550  39.372  14.504
29260W        W88796   8.879   7.357  13.395
29261W        W88797  29.952  20.088   0.483
29262W        W88798  37.346  10.860   3.222
29263W        W88799  42.788  23.567  11.417
29264W        W88800  20.230   4.402   5.108
29265W        W88801  42.345  24.579  13.794
29266W        W88802  38.902  16.613  13.536
29267W        W88803  10.760  28.026   1.922
29268W        W88804   5.828   2.444  11.440
29269W        W88805  12.297  34.095  14.412
29270W        W88806  17.150  30.534   3.730
29271W        W88807   1.292   1.953   2.722
29272W        W88808  44.902  28.022   3.209
29273W        W88809  32.543  22.579  14.497
29274W        W88810   8.179   1.933  11.981
29275W        W88811  14.673  41.309  10.960
29276W        W88812  17.693  26.547  14.463
29277W        W88813   4.394  25.125  11.919
29278W        W88814  28.509  19.189   0.943
29279W        W88815  29.030  19.588  12.878
29280W        W88816  28.062   1.742   0.730
29281W        W88817  25.986  42.945   4.261
29282W        W88818  13.800  43.841   3.318
29283W        W88819   6.778  41.530  13.038
29284W        W88820  12.699  35.957  10.607
29285W        W88821   5.882   0.927  12.515
29286W        W88822  38.909  17.690   0.454
29287W        W88823  10.255  10.757  14.481
29288W        W88824   5.854   1.928   1.373
29289W        W88825  38.060  29.112  13.935
29290W        W88826   6.849   0.326  12.978
29291W        W88827  22.537  41.509   0.481
29292W        W88828  13.634  38.400  10.533
29293W        W88829  15.580  17.248  13.919
29294W        W88830  11.363  22.105  14.865
29295W        W88831  37.362  37.472  13.543
29296W        W88832  43.872  23.575  13.811
29297W        W88833  36.910   4.745   0.732
29298W        W88834  35.105  44.426  13.427
29299W        W88835  20.609   1.367   4.186
29300W        W88836  19.085  23.992   3.647
29301W        W88837  25.499  43.836  14.762
29302W        W88838  16.708  21.164   2.286
29303W        W88839  15.778  43.834  10.045
29304W        W88840   3.887  26.150  13.985
29305W        W88841  18.086  39.004  11.513
29306W        W88842  24.026  18.749  14.775
29307W        W88843   2.285  27.008   0.463
29308W        W88844  19.220  41.339   3.177
29309W        W88845  34.037  22.538  12.891
29310W        W88846  30.049  19.089   3.206
29311W        W88847  22.093  28.681  12.999
29312W        W88848   0.435  34.396  13.365
29313W        W88849  16.114  24.648  13.995
29314W        W88850  29.049  13.677  12.911
29315W        W88851   2.783  41.515   2.240
29316W        W88852   8.806  14.601   4.756
29317W        W88853  34.441   1.341   3.165
29318W        W88854  11.193   4.744  14.798
29319W        W88855  35.584  43.853   1.779
29320W        W88856  39.961  19.271   3.830
29321W        W88857  42.461  36.880   0.325
29322W        W88858  11.720  27.008   3.762
29323W        W88859  13.116  20.601   2.416
29324W        W88860  39.855  19.707   2.811
29325W        W88861   4.862  31.950  11.508
29326W        W88862  17.560  32.050  11.026
29327W        W88863   7.185   4.883   4.119
29328W        W88864  32.934  41.385  12.488
29329W        W88865  10.267   1.938  13.018
29330W        W88866  11.227  44.448   1.425
29331W        W88867  39.856   4.327  12.916
29332W        W88868  10.873  37.399   1.772
29333W        W88869  41.028  22.643  14.947
29334W        W88870  26.019  20.717   3.685
29335W        W88871  30.925  40.840  10.615
29336W        W88872  29.047   2.349   0.322
29337W        W88873  41.450  44.850   0.902
29338W        W88874  18.138  10.752   0.288
29339W        W88875  35.053   7.230  10.505
29340W        W88876   5.307  32.583   2.338
29341W        W88877  44.330  18.752  10.953
29342W        W88878  43.351  15.771  14.317
29343W        W88879  11.756  20.578   0.912
29344W        W88880  44.970  35.436   0.860
29345W        W88881  20.273  31.614  13.483
29346W        W88882  32.632  23.673  13.376
29347W        W88883  25.705  23.069  12.386
29348W        W88884  24.078   1.261  14.444
29349W        W88885  37.548  38.074  10.535
29350W        W88886  14.588  44.451   2.702
29351W        W88887  17.701  40.347  14.804
29352W        W88888  27.002  39.061  11.378
29353W        W88889   4.823   2.842   2.884
29354W        W88890  36.425  31.042  14.415
29355W        W88891  24.212   1.288   3.346
29356W        W88892  15.625  27.114   4.177
29357W        W88893  26.514  44.294   1.836
29358W        W88894   9.362  17.299   4.767
29359W        W88895   5.360  21.708   3.809
29360W        W88896  15.791  43.293   0.788
29361W        W88897  17.146  23.666  10.146
29362W        W88898  12.677  15.702   4.259
29363W        W88899   2.847  28.447  13.500
29364W        W88900   3.367   3.401  11.444
29365W        W88901   8.878  22.503  13.842
29366W        W88902  12.116  44.392  13.515
29367W        W88903  26.170  11.221   4.126
29368W        W88904   9.693  31.902  14.930
29369W        W88905  41.030  19.058   1.241
29370W        W88906  18.697  43.890   0.835
29371W        W88907   0.838  30.977  11.992
29372W        W88908  26.557   2.324  14.290
29373W        W88909  15.183  18.205  13.949
29374W        W88910  10.737  24.029  11.377
29375W        W88911  40.797  42.418   3.787
29376W        W88912   6.764  19.616   0.918
29377W        W88913   5.923  27.150   3.159
29378W        W88914   6.204  21.060   0.738
29379W        W88915  24.493  22.164  14.966
29380W        W88916  18.240  20.731  11.060
29381W        W88917   4.407  21.191   3.313
29382W        W88918  18.775  28.963   0.444
29383W        W88919  11.327   6.823  12.879
29384W        W88920   0.844   1.893  11.569
29385W        W88921  27.668  22.149   4.604
29386W        W88922  27.657  44.769  12.492
29387W        W88923   7.386   4.297  12.409
29388W        W88924  12.823  23.701   0.890
29389W        W88925   5.437  14.328  10.591
29390W        W88926   1.276  12.244   2.832
29391W        W88927  41.966  39.903   0.377
29392W        W88928   7.241  42.969   4.799
29393W        W88929   0.278  32.487  11.116
29394W        W88930  15.108  27.007   0.460
29395W        W88931   7.334   6.364   3.670
29396W        W88932  12.122  38.055   2.351
29397W        W88933  41.794  30.525  14.957
29398W        W88934  38.973  29.483  12.539
29399W        W88935  32.964  28.052  13.484
29400W        W88936  18.759  41.828  12.007
29401W        W88937  26.119  31.970  13.312
29402W        W88938  17.793  18.607  13.487
29403W        W88939  37.990  22.102  11.078
29404W        W88940  40.366  26.984  14.942
29405W        W88941   8.875  31.509   2.244
29406W        W88942  21.681  35.927  12.858
29407W        W88943  34.503   7.859   4.779
29408W        W88944   4.210  36.874  14.292
29409W        W88945   6.814   6.416   1.259
29410W        W88946  20.249  21.557   3.336
29411W        W88947   8.876  34.955   1.840
29412W        W88948   1.780  26.643   2.756
29413W        W88949   5.864  12.677  12.960
29414W        W88950   3.286  12.719  11.127
29415W        W88951   2.226  30.980  14.869
29416W        W88952   7.797  14.136   1.359
29417W        W88953   9.744   5.694   3.382
29418W        W88954  43.804  26.080  10.643
29419W        W88955  28.461   0.377  10.429
29420W        W88956   2.926  24.695  14.856
29421W        W88957  30.146  41.454   1.284
29422W        W88958   9.846  35.992   3.796
29423W        W88959  28.470  32.411  13.990
29424W        W88960  38.434  42.977   0.909
29425W        W88961   3.261   3.852  14.851
29426W        W88962   9.167  20.201  13.356
29427W        W88963  29.443  30.042   4.263
29428W        W88964  38.959  32.458   2.245
29429W        W88965  11.682  22.540   2.727
29430W        W88966   5.895  27.013   4.209
29431W        W88967  27.942  38.995  11.582
29432W        W88968  39.509  27.174   0.868
29433W        W88969   6.329   4.215  12.464
29434W        W88970   8.381   3.319   2.716
29435W        W88971  28.994  31.947   1.893
29436W        W88972  26.188   0.876   3.279
29437W        W88973  38.076  37.947   2.830
29438W        W88974   5.356   6.416  11.414
29439W        W88975   7.247  14.322  12.920
29440W        W88976  24.526   9.319   1.399
29441W        W88977  12.644  38.007  11.016
29442W        W88978  38.074  39.971   3.364
29443W        W88979  23.086  31.453   0.951
29444W        W88980  33.131   8.898   2.377
29445W        W88981  32.493  43.779   0.849
29446W        W88982  19.582   9.318  14.964
29447W        W88983  41.512   4.217   2.778
29448W        W88984   6.807  26.168   0.893
29449W        W88985   3.319  12.193   3.375
29450W        W88986   3.920  29.579  14.378
29451W        W88987  44.460   1.431   2.280
29452W        W88988  10.315  18.214   4.267
29453W        W88989  42.914  44.849   0.952
29454W        W88990  24.216   1.784   0.424
29455W        W88991  27.191  15.241   0.284
29456W        W88992  20.064  14.312  10.947
29457W        W88993  44.259  13.762   4.615
29458W        W88994  27.519  24.515  11.471
29459W        W88995  35.485  38.027  13.846
29460W        W88996  36.552  13.800  14.475
29461W        W88997   2.832   3.786   3.693
29462W        W88998  38.542  24.626  12.371
29463W        W88999  40.894  24.524   2.326
29464W        W89000  12.782  15.620   2.336
29465W        W89001  33.910  40.894  14.991
29466W        W89002  44.472  22.094   0.811
29467W        W89003  26.062  13.207   1.751
29468W        W89004   4.261   2.923   2.388
29469W        W89005   8.225  28.979   3.165
29470W        W89006   7.905   2.426  12.869
29471W        W89007  44.929  32.041   1.803
29472W        W89008  14.288  38.977  12.389
29473W        W89009   0.347  29.654  12.460
29474W        W89010   9.241  13.343   1.404
29475W        W89011  36.391  29.972  12.904
29476W        W89012  41.431  27.602   1.304
29477W        W89013   4.319  40.326   2.857
29478W        W89014   4.894  40.977  14.330
29479W        W89015  13.214  17.628   1.255
29480W        W89016  25.574  20.050   1.780
29481W        W89017   4.843  31.978  13.368
29482W        W89018  43.358   5.241   1.298
29483W        W89019  13.637  37.364  11.862
29484W        W89020  40.511  43.316   0.959
29485W        W89021  15.664   9.725   1.320
29486W        W89022  38.469  10.138   4.760
29487W        W89023   2.413  22.244   3.653
29488W        W89024  43.020   9.159   3.854
29489W        W89025  12.854  23.189  14.006
29490W        W89026  32.443  36.360   0.337
29491W        W89027  26.461  28.470   0.397
29492W        W89028  23.697  39.990  13.912
29493W        W89029  27.511  41.013   2.664
29494W        W89030  21.542  10.297   1.407
29495W        W89031  40.808  34.543  12.939
29496W        W89032  14.299  10.270  10.606
29497W        W89033  33.502  20.704  14.302
29498W        W89034  15.815  16.096  12.457
29499W        W89035  33.616  10.827  10.444
29500W        W89036  41.015  33.892   3.764
29501W        W89037  29.572   8.723  13.939
29502W        W89038   2.853  38.024   4.667
29503W        W89039   2.236  28.607   3.270
29504W        W89040   8.221   5.719  12.850
29505W        W89041  15.703  36.906   4.776
29506W        W89042  41.967   5.904  13.395
29507W        W89043  14.597  40.980   1.450
29508W        W89044  38.457   4.784  12.949
29509W        W89045  30.558  29.926   0.744
29510W        W89046  16.669   2.720   1.717
29511W        W89047  35.511  19.551  13.061
29512W        W89048  33.048  44.848   2.773
29513W        W89049  16.149   4.804   2.733
29514W        W89050  25.040   5.828  12.491
29515W        W89051  27.640   6.399  13.791
29516W        W89052  23.649  33.956  14.509
29517W        W89053  25.669  25.544   0.277
29518W        W89054  26.185  38.974  12.460
29519W        W89055  34.537   3.403  11.562
29520W        W89056   9.245  23.236   4.833
29521W        W89057  30.492  13.165  14.995
29522W        W89058   2.945  37.878  12.491
29523W        W89059  35.018   1.344   3.673
29524W        W89060  25.107  11.664   4.679
29525W        W89061   8.784   1.240   2.227
29526W        W89062   1.249  19.567  11.516
29527W        W89063  35.529   9.391   4.174
29528W        W89064  12.721   5.400   4.817
29529W        W89065   9.770  36.957  13.378
29530W        W89066  33.997  30.079  10.899
29531W        W89067  39.432  29.018  14.838
29532W        W89068   2.759  29.511   3.727
29533W        W89069  24.118   0.919   2.304
29534W        W89070   2.295  33.535  14.424
29535W        W89071  23.096  19.573   4.764
29536W        W89072  17.136  35.993   4.809
29537W        W89073   4.919  36.482   4.637
29538W        W89074  43.839  16.629  10.496
29539W        W89075  23.694  21.550  13.465
29540W        W89076  24.516  39.017  12.571
29541W        W89077  40.410  21.158  13.541
29542W        W89078  22.150   7.244   1.753
29543W        W89079   3.740   6.701   2.196
29544W        W89080   2.306   6.800   3.725
29545W        W89081   4.363  19.688  10.959
29546W        W89082   1.970  25.130  11.548
29547W        W89083  27.446  44.485   4.620
29548W        W89084  11.351  36.054   0.903
29549W        W89085  27.599  23.625  14.940
29550W        W89086  22.163  38.545   0.848
29551W        W89087  36.873  35.081   1.238
29552W        W89088  12.632  30.439  13.811
29553W        W89089   4.448  24.079  11.028
29554W        W89090   4.444  42.919  12.835
29555W        W89091  44.313  20.765  10.948
29556W        W89092  10.791  41.823  10.468
29557W        W89093  38.028  12.206   0.343
29558W        W89094  34.384  12.706   2.816
29559W        W89095  43.835  11.166   0.381
29560W        W89096  12.653   5.872  11.484
29561W        W89097   7.774  27.976  14.289
29562W        W89098  34.386   6.349   1.717
29563W        W89099  26.683  32.536   3.381
29564W        W89100   4.740  21.679  11.396
29565W        W89101  33.549  34.565   2.338
29566W        W89102  42.349   7.269  11.505
29567W        W89103   3.396  41.041   3.699
29568W        W89104  21.604  29.111  10.481
29569W        W89105  42.432  17.670  11.978
29570W        W89106  36.854  32.407  11.416
29571W        W89107  25.152  32.619  10.617
29572W        W89108  10.700  35.411   4.146
29573W        W89109  21.231   7.403  14.029
29574W        W89110  15.274  13.229   0.335
29575W        W89111  22.070  30.619   2.767
29576W        W89112   1.923   3.378   0.805
29577W        W89113  25.661  12.305   4.263
29578W        W89114   8.881  15.158  14.849
29579W        W89115  40.411  39.557  13.908
29580W        W89116  33.409  11.276   0.944
29581W        W89117  14.323  25.489   4.649
29582W        W89118  20.664   5.820  11.482
29583W        W89119  21.028  18.746   1.290
29584W        W89120  36.009  11.134   1.229
29585W        W89121   0.865   7.180  12.834
29586W        W89122   4.356  32.471   1.397
29587W        W89123  42.310  35.457  14.379
29588W        W89124  17.566  13.694   1.307
29589W        W89125   9.284   2.720  11.453
29590W        W89126  12.259  28.472  11.559
29591W        W89127  44.498  35.991   4.822
29592W        W89128  21.076  16.612  13.044
29593W        W89129  18.737  30.446  13.332
29594W        W89130   5.823  13.774   4.262
29595W        W89131  11.197   6.219   2.344
29596W        W89132  30.021  29.559   5.308
29597W        W89133   6.336  27.964   0.331
29598W        W89134  26.113  16.691  14.831
29599W        W89135   3.289  20.097   1.259
29600W        W89136  26.684  37.539   4.640
29601W        W89137   8.836   7.771  11.555
29602W        W89138  13.218   1.925   1.245
29603W        W89139   3.301  22.148  11.565
29604W        W89140  18.668   7.248   3.269
29605W        W89141   9.683  26.545   0.358
29606W        W89142   7.782  12.715  11.921
29607W        W89143  36.851  25.078  12.504
29608W        W89144  13.626  25.068   2.839
29609W        W89145  39.035  24.495   2.216
29610W        W89146   5.844  44.835   3.145
29611W        W89147  34.501   9.844   1.716
29612W        W89148  44.366   6.186  14.429
29613W        W89149  40.351  20.522   3.774
29614W        W89150  12.774  18.168  10.911
29615W        W89151   3.323  24.045   0.868
29616W        W89152  24.647  39.912   4.690
29617W        W89153  15.152  16.090  12.866
29618W        W89154   9.740  29.055  11.608
29619W        W89155   4.308  26.027   4.752
29620W        W89156  29.581  19.175  14.436
29621W        W89157   8.812  24.695   2.842
29622W        W89158  25.535  20.136   5.701
29623W        W89159  41.356  23.672   1.224
29624W        W89160  40.942  20.724   0.928
29625W        W89161  18.629   6.797   3.243
29626W        W89162  31.462  26.124  12.881
29627W        W89163  16.641  22.134   2.354
29628W        W89164  31.614  21.674  10.901
29629W        W89165  29.444   8.300   3.657
29630W        W89166  32.094  37.558  12.885
29631W        W89167   7.778   9.267   1.813
29632W        W89168  11.672  38.380  12.904
29633W        W89169  35.023  16.226   2.834
29634W        W89170  39.425  42.503  14.953
29635W        W89171  35.486  25.173   2.210
29636W        W89172  26.028   6.841  11.938
29637W        W89173  21.233  27.483  14.900
29638W        W89174  32.581  17.734   2.749
29639W        W89175  30.088  38.435   2.703
29640W        W89176  23.231   3.413  14.908
29641W        W89177  27.677  15.181   2.681
29642W        W89178  23.626  17.230  14.022
29643W        W89179  26.661  28.520  13.336
29644W        W89180  42.871  15.132  12.847
29645W        W89181   1.237  37.922   3.820
29646W        W89182  35.866   2.954  12.081
29647W        W89183  26.536   8.660  14.939
29648W        W89184  12.734  24.171  13.926
29649W        W89185  33.947  17.095  14.490
29650W        W89186   1.767  26.565   3.160
29651W        W89187  39.868  42.940   1.219
29652W        W89188  13.336  37.505   2.741
29653W        W89189   6.342  26.643   4.142
29654W        W89190   7.394  14.800   2.250
29655W        W89191  37.021  30.099   2.207
29656W        W89192  36.584  42.994   4.598
29657W        W89193   4.915  21.712   1.788
29658W        W89194  19.630  29.137   1.374
29659W        W89195  11.201  30.554  11.933
29660W        W89196  18.631   3.849   0.846
29661W        W89197  26.523  11.347   4.156
29662W        W89198  39.863   5.329  11.398
29663W        W89199  40.330  23.629  12.413
29664W        W89200  14.751  33.120  13.344
29665W        W89201  21.097  19.740  10.154
29666W        W89202  37.419   0.427   2.246
29667W        W89203  26.004   7.787   2.788
29668W        W89204  18.149  12.669   2.381
29669W        W89205   8.900  27.949   0.777
29670W        W89206  35.868  12.723  13.410
29671W        W89207  25.054  36.543  13.509
29672W        W89208  34.070   4.389  12.877
29673W        W89209  12.178   5.251  14.848
29674W        W89210  44.987  44.314  11.123
29675W        W89211  25.572   7.902  14.490
29676W        W89212  19.205  27.170   1.782
29677W        W89213  24.997  32.005  13.822
29678W        W89214  19.731  13.828  14.904
29679W        W89215  39.329  26.035  13.439
29680W        W89216  31.606  43.952  11.115
29681W        W89217  26.973  25.167   2.256
29682W        W89218  39.930  13.803  14.917
29683W        W89219  40.542   5.410  11.972
29684W        W89220   4.744  11.155   1.758
29685W        W89221   8.867  36.864   4.826
29686W        W89222  32.604   3.765  14.928
29687W        W89223  31.948  16.784   1.729
29688W        W89224  37.371  14.733   4.208
29689W        W89225  13.261  37.891  12.495
29690W        W89226  40.391  36.046   3.313
29691W        W89227  15.582  31.643   4.129
29692W        W89228  41.808  22.699   1.854
29693W        W89229  42.837  25.200   0.441
29694W        W89230   7.848   3.285   4.229
29695W        W89231  22.219  14.661   3.842
29696W        W89232  17.256  32.414  10.481
29697W        W89233  28.073  23.101   0.399
29698W        W89234  43.330   4.342   2.857
29699W        W89235   7.877  18.577  11.556
29700W        W89236  18.667  41.476   4.798
29701W        W89237   9.721  26.090  14.974
29702W        W89238  27.131  29.496   3.184
29703W        W89239  32.463  18.063   4.643
29704W        W89240  16.671  33.124  12.970
29705W        W89241   7.905  22.620   4.118
29706W        W89242  42.325  17.764  11.551
29707W        W89243  25.701   7.841   1.218
29708W        W89244  23.088  44.818  12.975
29709W        W89245  34.939  26.974  14.383
29710W        W89246  40.440  34.867   0.438
29711W        W89247  41.877   3.309   0.911
29712W        W89248  40.838  36.558  13.847
29713W        W89249   9.353  12.855   4.791
29714W        W89250  27.669   9.726   3.264
29715W        W89251  33.919  14.762   1.912
29716W        W89252  38.441  39.948  11.471
29717W        W89253  14.781  26.624   1.729
29718W        W89254  20.050  18.557  11.011
29719W        W89255   1.893  32.616   3.237
29720W        W89256  27.043   6.768  10.421
29721W        W89257  25.504   0.825  15.000
29722W        W89258  20.138   2.426  11.900
29723W        W89259  30.043  12.685   1.317
29724W        W89260  18.578   5.787   1.903
29725W        W89261   8.399   9.271   4.752
29726W        W89262  35.464   5.822   3.722
29727W        W89263  31.077  19.693  12.964
29728W        W89264  31.982  14.338  11.867
29729W        W89265  17.663  16.163   4.803
29730W        W89266  16.637  11.842   2.875
29731W        W89267  39.450  18.078  13.054
29732W        W89268  38.918   2.804  11.885
29733W        W89269  27.507   4.732   2.323
29734W        W89270   9.227  13.663   1.378
29735W        W89271  37.007   1.780   4.330
29736W        W89272   3.871  16.676   1.295
29737W        W89273  35.092  30.643   3.216
29738W        W89274  42.488  29.146  11.463
29739W        W89275  18.559  37.434   5.230
29740W        W89276  40.490  42.398  11.904
29741W        W89277   6.759  22.055   4.123
29742W        W89278  17.569  18.249  10.011
29743W        W89279  10.735  44.914   1.762
29744W        W89280  43.351  33.499  11.086
29745W        W89281  34.507   6.374  13.007
29746W        W89282  39.810  15.745  14.348
29747W        W89283  17.600  41.373   0.940
29748W        W89284  32.392  42.408   0.948
29749W        W89285  19.563   4.807  12.894
29750W        W89286  29.924  43.295   2.668
29751W        W89287  25.122  27.562  11.938
29752W        W89288   0.816   9.304  13.052
29753W        W89289   8.663   2.447  14.004
29754W        W89290  34.492  13.107  10.509
29755W        W89291  32.110   4.432   1.375
29756W        W89292  37.852  36.005   0.443
29757W        W89293  17.103   8.177  11.949
29758W        W89294   2.777  30.955  11.004
29759W        W89295  18.225  19.165  11.385
29760W        W89296  36.562   1.343   2.889
29761W        W89297  35.033  25.572  10.079
29762W        W89298  19.253  26.526   3.813
29763W        W89299  36.935  44.447   9.587
29764W        W89300  33.520   0.978  13.509
29765W        W89301  38.868  32.492  11.972
29766W        W89302  41.346   6.281   2.204
29767W        W89303  17.225  11.326   4.633
29768W        W89304  21.142  14.096   3.830
29769W        W89305  39.978  42.875  12.917
29770W        W89306  37.566  38.450   0.838
29771W        W89307  40.011   7.221   3.680
29772W        W89308  28.668  35.969   3.323
29773W        W89309  44.822  20.643   4.310
29774W        W89310   8.802  11.758   1.841
29775W        W89311  11.776  17.108  14.276
29776W        W89312  32.393  26.989   4.796
29777W        W89313  30.090  40.929  14.475
29778W        W89314  15.267  21.587   1.271
29779W        W89315  12.666  24.497  11.490
29780W        W89316  22.503  31.584  13.988
29781W        W89317  17.758  33.622   2.725
29782W        W89318  43.914  16.232   2.237
29783W        W89319  33.094  27.562   5.260
29784W        W89320  40.508  11.711  13.333
29785W        W89321  11.320   8.257  12.880
29786W        W89322  30.065  22.714   4.647
29787W        W89323  21.062   1.426   0.325
29788W        W89324  14.139   5.803   3.352
29789W        W89325  22.573  10.799   3.688
29790W        W89326  36.906  20.633  12.493
29791W        W89327  19.223  14.279   4.192
29792W        W89328  11.689   2.842   3.224
29793W        W89329   1.323  39.847   4.601
29794W        W89330  18.147  42.488  14.384
29795W        W89331  29.161  16.123   0.931
29796W        W89332  44.474  28.555  13.915
29797W        W89333  11.359  30.115  13.049
29798W        W89334  22.651  25.482  14.783
29799W        W89335  32.532  36.570  14.287
29800W        W89336   0.414  18.749  10.888
29801W        W89337  38.044   5.308  13.912
29802W        W89338   8.682  32.560  14.294
29803W        W89339   8.292  14.205   1.857
29804W        W89340  18.705  20.125  14.900
29805W        W89341  21.654  22.676   4.617
29806W        W89342   4.881   0.831  10.603
29807W        W89343  13.158  38.060   3.331
29808W        W89344   7.873  44.973   3.673
29809W        W89345  33.410  44.811   5.260
29810W        W89346  32.006   2.406  12.416
29811W        W89347  10.378  31.996   0.360
29812W        W89348  22.652  32.394  12.022
29813W        W89349   7.844  16.636   0.764
29814W        W89350  28.070  11.166  10.539
29815W        W89351   2.776  31.517   4.121
29816W        W89352  15.672   3.865   0.765
29817W        W89353  31.458  24.593   3.639
29818W        W89354  44.276  39.809   3.633
29819W        W89355  27.470  20.044   0.300
29820W        W89356  21.599  19.737   3.718
29821W        W89357  40.330  18.122  11.019
29822W        W89358  22.516  17.720  12.962
29823W        W89359  16.093  24.607   0.825
29824W        W89360  34.943  39.515  14.281
29825W        W89361  20.633  20.556  10.112
29826W        W89362  26.466  20.608  10.987
29827W        W89363  27.567  19.658  14.314
29828W        W89364  34.446   7.272   0.793
29829W        W89365   0.267  42.030  12.466
29830W        W89366  10.151   1.775  13.310
29831W        W89367  21.735  10.720  12.530
29832W        W89368   0.806   3.842  12.476
29833W        W89369  36.877  12.341  11.458
29834W        W89370  17.120  11.815   2.865
29835W        W89371   8.166  32.548  12.467
29836W        W89372  28.565  13.763  10.639
29837W        W89373  18.596  37.582  11.404
29838W        W89374   5.366  23.731   3.200
29839W        W89375   8.176  21.112   0.966
29840W        W89376  12.722  16.255   4.251
29841W        W89377  35.528   8.200  14.391
29842W        W89378  16.705  36.017   1.911
29843W        W89379  19.606   6.218  11.975
29844W        W89380  31.949   1.261  13.865
29845W        W89381  13.683  13.135   1.922
29846W        W89382  18.199  26.561  14.762
29847W        W89383  29.969  32.977  12.038
29848W        W89384  41.010  22.043   0.849
29849W        W89385  18.611  44.442  10.611
29850W        W89386  16.811  18.262  10.623
29851W        W89387  44.979  16.232  12.370
29852W        W89388  28.062  18.576  11.515
29853W        W89389  31.106  40.474   2.338
29854W        W89390   7.379  16.683   3.287
29855W        W89391  36.054   1.794  14.019
29856W        W89392  28.111  40.983   4.170
29857W        W89393  25.999   2.830  13.842
29858W        W89394  32.897  36.064  14.767
29859W        W89395  28.636   5.403   3.305
29860W        W89396  38.465  43.339   0.878
29861W        W89397  31.152  14.186  14.361
29862W        W89398  34.542   9.205  10.909
29863W        W89399  31.486  28.027   2.227
29864W        W89400  39.392  39.550  12.948
29865W        W89401  18.712  40.308   2.350
29866W        W89402   8.824   8.207   1.396
29867W        W89403  29.554   4.938  13.544
29868W        W89404  33.129  17.749   1.213
29869W        W89405  18.142  39.403  12.092
29870W        W89406  27.031  15.707  12.451
29871W        W89407  24.580  42.984   1.771
29872W        W89408  14.828  22.174  13.384
29873W        W89409   1.425   1.249   1.306
29874W        W89410   6.254  31.099   4.649
29875W        W89411  35.537   6.689  14.381
29876W        W89412  31.553  21.536  14.431
29877W        W89413  16.080   1.430  13.985
29878W        W89414  34.558  30.643   2.868
29879W        W89415  28.178   6.323   1.403
29880W        W89416  34.399  36.855  14.823
29881W        W89417  21.704  37.080  14.954
29882W        W89418  12.771  17.671   1.448
29883W        W89419   4.883  20.714  12.008
29884W        W89420  32.459  14.834  13.020
29885W        W89421  28.560  31.630  10.433
29886W        W89422  28.599  30.438   4.654
29887W        W89423  17.177  42.779   3.646
29888W        W89424  34.571  37.404  11.583
29889W        W89425   7.307  25.122   2.775
29890W        W89426  25.558  24.566  13.015
29891W        W89427   2.407  20.171   1.330
29892W        W89428  42.524  26.040  11.016
29893W        W89429   4.836  44.446  12.846
29894W        W89430  13.153  28.561  13.922
29895W        W89431  38.450  29.612  14.315
29896W        W89432  42.009  17.305  11.478
29897W        W89433  12.808  24.669  14.783
29898W        W89434  25.709  36.552  12.936
29899W        W89435  42.012   7.814   5.258
29900W        W89436  32.580   8.224  11.963
29901W        W89437  40.936  22.151  13.959
29902W        W89438   1.377  31.621  12.994
29903W        W89439   1.855  39.385  13.346
29904W        W89440  22.600   4.880   3.219
29905W        W89441   1.958  39.903  10.479
29906W        W89442  36.371  27.959   1.807
29907W        W89443  31.561  13.276   2.370
29908W        W89444  29.445   5.373  11.557
29909W        W89445  43.449  31.423   0.922
29910W        W89446  29.650   6.255  12.020
29911W        W89447  32.552   7.396   2.881
29912W        W89448  36.535   9.736  14.351
29913W        W89449  29.571   6.739  11.543
29914W        W89450  28.154  25.030   1.260
29915W        W89451  31.465  28.487   0.761
29916W        W89452  32.441   6.896   0.447
29917W        W89453  33.887   7.273  12.384
29918W        W89454  15.603  19.671   2.415
29919W        W89455  21.084  15.581   0.964
29920W        W89456  11.205  13.141   3.209
29921W        W89457  13.737   2.772  10.605
29922W        W89458  14.652  25.973   0.759
29923W        W89459   5.398  15.600   2.385
29924W        W89460  37.945   4.745   1.699
29925W        W89461  43.450   9.163   1.447
29926W        W89462   3.734  22.178  13.862
29927W        W89463   8.678   1.819  12.489
29928W        W89464  14.321   9.217  13.910
29929W        W89465  25.544  27.453  13.803
29930W        W89466   7.214  37.047   4.667
29931W        W89467  29.561  35.591  11.514
29932W        W89468  10.306  28.185   5.213
29933W        W89469   6.309   8.727   1.739
29934W        W89470   3.888  28.506   4.140
29935W        W89471  20.582  42.427   2.875
29936W        W89472  42.919  43.913  13.525
29937W        W89473  33.991  35.107  11.425
29938W        W89474  36.434  41.444   0.809
29939W        W89475   9.834  35.923  13.499
29940W        W89476   7.205  28.560   0.856
29941W        W89477  22.137  40.476   2.785
29942W        W89478  16.074  21.106   1.771
29943W        W89479   9.824  13.274   1.835
29944W        W89480   6.237  41.945  14.906
29945W        W89481  21.589  36.954  11.045
29946W        W89482  14.251  28.001  13.505
29947W        W89483   2.361  42.452  14.432
29948W        W89484  29.501   4.321   2.403
29949W        W89485  30.021  43.460  14.926
29950W        W89486  29.459  30.446  11.020
29951W        W89487  34.022   4.419   1.348
29952W        W89488  12.284   1.826   2.746
29953W        W89489  28.105  18.138   9.928
29954W        W89490  28.957  36.071   0.802
29955W        W89491  43.317  12.194   0.465
29956W        W89492  25.187  39.058  11.467
29957W        W89493  25.646  15.607   2.348
29958W        W89494   2.315   6.204  14.984
29959W        W89495   0.382   9.750  12.038
29960W        W89496   5.266  27.451  13.429
29961W        W89497   4.731  27.951   2.888
29962W        W89498  27.679   2.244   3.283
29963W        W89499  11.283  43.886   1.336
29964W        W89500  25.582  29.491  14.830
29965W        W89501  10.296  30.067  12.571
29966W        W89502  40.346   8.703  14.884
29967W        W89503  20.059  40.538   1.324
29968W        W89504  24.601   1.244   4.727
29969W        W89505  44.372  21.598   3.360
29970W        W89506  35.428  19.039  11.478
29971W        W89507   6.882  29.042  12.385
29972W        W89508  32.431   4.374  12.560
29973W        W89509  30.018  10.356   4.272
29974W        W89510  21.591   8.224   0.435
29975W        W89511  17.096  32.895  11.571
29976W        W89512  21.631  24.204   1.759
29977W        W89513   2.923  44.454   4.702
29978W        W89514  25.176  20.227   4.315
29979W        W89515  41.007  15.191   3.325
29980W        W89516  29.146  19.604  10.421
29981W        W89517  15.720  17.194   2.308
29982W        W89518  18.778   3.265  14.000
29983W        W89519   2.751  30.534   3.752
29984W        W89520  18.687  12.703   1.410
29985W        W89521  20.547   4.750   9.439
29986W        W89522  21.687  16.099   1.891
29987W        W89523   6.300  38.874  10.590
29988W        W89524  42.433  43.810  13.002
29989W        W89525  12.630  43.845  13.323
29990W        W89526  26.117  33.451   4.705
29991W        W89527  37.046  16.581  14.342
29992W        W89528  12.642  33.966   0.843
29993W        W89529  36.045   1.472   2.419
29994W        W89530  11.812  44.305  12.511
29995W        W89531  34.431  39.460  11.945
29996W        W89532  24.494  12.230  12.365
29997W        W89533  37.556  18.639   1.378
29998W        W89534   6.233   4.927   0.321
29999W        W89535  27.978  18.196  14.422
30000W        W89536  15.087  35.377  12.413
30001W        W89537  21.586  29.478  13.443
30002W        W89538  18.767   3.767  11.603
30003W        W89539  35.596  28.535  11.494
30004W        W89540  17.099  41.303   3.235
30005W        W89541  20.604  40.054   3.633
30006W        W89542  27.644  14.285   3.187
30007W        W89543  37.053  42.502  11.078
30008W        W89544  28.484   5.884   4.239
30009W        W89545  44.896   2.861  10.601
30010W        W89546  39.041  23.993  12.877
30011W        W89547  30.923  31.976   0.823
30012W        W89548  35.508  22.602  14.009
30013W        W89549   5.233  12.297  12.988
30014W        W89550  34.381  12.835  14.820
30015W        W89551   3.809  24.043   3.856
30016W        W89552  21.607  12.732   5.300
30017W        W89553   9.389  42.308  13.456
30018W        W89554   2.255  33.022   1.799
30019W        W89555  33.406  11.160  10.513
30020W        W89556  40.488  41.443  11.048
30021W        W89557   3.829  43.861   0.399
30022W        W89558   5.411  33.529  10.977
30023W        W89559   0.814  31.466  12.836
30024W        W89560  28.661  10.280   3.362
30025W        W89561  10.760  30.006  11.589
30026W        W89562  27.562  23.499  10.944
30027W        W89563  26.061  19.658   2.670
30028W        W89564  26.203  28.534  14.911
30029W        W89565  23.519  43.475   0.450
30030W        W89566  22.222   0.868   3.269
30031W        W89567  12.197  31.139  13.887
30032W        W89568  37.890  39.377   2.806
30033W        W89569  27.624  39.961   2.349
30034W        W89570   7.221  12.355  14.285
30035W        W89571  40.949   1.293   1.222
30036W        W89572  36.438  16.683  14.375
30037W        W89573  25.163  39.958  10.537
30038W        W89574  23.549   4.232  11.576
30039W        W89575  12.763   0.884   0.251
30040W        W89576  15.802   2.255   4.756
30041W        W89577   8.810   8.381   4.211
30042W        W89578  13.224  14.769  14.477
30043W        W89579  34.564  12.279   0.455
30044W        W89580  11.813  21.749  11.098
30045W        W89581  21.648  26.666   4.710
30046W        W89582   0.892  10.874   2.734
30047W        W89583  25.023  14.633   4.131
30048W        W89584   9.663  43.998   1.382
30049W        W89585   5.316  44.791   1.714
30050W        W89586  23.604   3.938  13.393
30051W        W89587  22.643  14.608   0.383
30052W        W89588  25.611  30.563   3.831
30053W        W89589  37.490  18.569   3.654
30054W        W89590  38.392   0.472  14.439
30055W        W89591  43.856  18.079   4.337
30056W        W89592  28.104  39.380  11.961
30057W        W89593  36.986   5.225  13.914
30058W        W89594   4.932  33.973   1.265
30059W        W89595   2.313  42.379   4.788
30060W        W89596  17.188  36.499   0.728
30061W        W89597  12.613  34.431   2.814
30062W        W89598  29.984  13.645  10.494
30063W        W89599  29.066  39.432   3.300
30064W        W89600  37.903  25.185   1.767
30065W        W89601  23.662  14.102  12.930
30066W        W89602  29.517  32.553   4.632
30067W        W89603  13.201  16.810   4.672
30068W        W89604  36.005   8.244   1.850
30069W        W89605   0.863  40.918   3.294
30070W        W89606  29.990  18.106  11.050
30071W        W89607  15.196   9.883  12.474
30072W        W89608   1.948   6.204   0.384
30073W        W89609   0.822  43.871   2.363
30074W        W89610  40.889  35.880   1.828
30075W        W89611  15.328  24.609   0.333
30076W        W89612   9.872  24.582  10.001
30077W        W89613  44.426   2.396   4.821
30078W        W89614  11.298  42.405  14.414
30079W        W89615  35.424  36.966   0.472
30080W        W89616  18.283  13.329  11.945
30081W        W89617   2.472  28.443   1.846
30082W        W89618   6.870  32.446   1.297
30083W        W89619  32.563   0.469  12.403
30084W        W89620  18.757  24.184  14.404
30085W        W89621  36.940  33.445  13.953
30086W        W89622  14.121  23.179   2.385
30087W        W89623   2.263   8.745   4.740
30088W        W89624  41.833   1.739   3.286
30089W        W89625   0.875  37.955   3.204
30090W        W89626  22.209  18.275  12.499
30091W        W89627  13.270   9.652   3.697
30092W        W89628   0.974  27.179  12.074
30093W        W89629  10.175  11.724   2.856
30094W        W89630  40.851  19.579  12.073
30095W        W89631   4.854   6.305   4.775
30096W        W89632  42.442  26.952  10.545
30097W        W89633  16.133   8.787  12.364
30098W        W89634   7.798  21.257  14.032
30099W        W89635   9.328   9.674   0.316
30100W        W89636  32.909  39.421  11.461
30101W        W89637  27.553  35.873   2.823
30102W        W89638  35.520   6.275   3.248
30103W        W89639  29.512   6.866  14.875
30104W        W89640  44.384  26.118   0.260
30105W        W89641  43.776   0.858  12.871
30106W        W89642  14.338  18.242   0.961
30107W        W89643  14.609   7.256   0.902
30108W        W89644   6.908  29.530   1.761
30109W        W89645  41.789  33.950   0.418
30110W        W89646  15.665   7.781  12.962
30111W        W89647   1.959  13.786  11.937
30112W        W89648   7.272  29.606  12.439
30113W        W89649   3.433  35.062  11.596
30114W        W89650  33.970  23.594   1.819
30115W        W89651  28.610   7.738  13.971
30116W        W89652   0.388  17.587  13.333
30117W        W89653  33.038  30.127   5.752
30118W        W89654   5.837  29.146   0.841
30119W        W89655   5.849  27.554   2.365
30120W        W89656  13.679  24.189  11.938
30121W        W89657  17.256  36.422   2.416
30122W        W89658  22.653  17.168  12.945
30123W        W89659   1.770  28.661  14.890
30124W        W89660   6.700  10.339   2.178
30125W        W89661   1.240  14.816  10.896
30126W        W89662   0.897  19.631  12.413
30127W        W89663  16.745  25.059  13.320
30128W        W89664  12.635   2.919   4.246
30129W        W89665  42.523   4.407  12.492
30130W        W89666  25.127  31.128  11.579
30131W        W89667  24.535  30.591   4.168
30132W        W89668  39.375  44.874   2.189
30133W        W89669  22.538  37.443  11.930
30134W        W89670   2.421  11.186  13.009
30135W        W89671  39.029  33.910  11.988
30136W        W89672  41.344  30.101   4.272
30137W        W89673   2.311  31.470   1.758
30138W        W89674  20.237  28.986   1.784
30139W        W89675  17.715  34.521  12.359
30140W        W89676  14.589   8.763   4.312
30141W        W89677  30.156   0.911  13.504
30142W        W89678  18.620  42.918   1.296
30143W        W89679  42.369  43.459   3.322
30144W        W89680  15.123  14.796   2.751
30145W        W89681  10.720  35.424   4.654
30146W        W89682   5.760  17.736  10.415
30147W        W89683  21.539  25.589  11.942
30148W        W89684   5.347  36.044   3.668
30149W        W89685  35.540   6.758   4.134
30150W        W89686  43.436   2.880  11.408
30151W        W89687  28.658  19.574   4.680
30152W        W89688  42.450  41.432   3.209
30153W        W89689  21.694  11.735   0.277
30154W        W89690  21.121  10.344  11.035
30155W        W89691  26.167  43.294   4.315
30156W        W89692  40.848  17.097  12.874
30157W        W89693  39.500   9.869  10.990
30158W        W89694  33.120  31.116   2.788
30159W        W89695  30.967  30.658  11.571
30160W        W89696  18.124  43.507  10.490
30161W        W89697   9.255   4.250   4.132
30162W        W89698  18.561  31.563  14.285
30163W        W89699  29.095  16.641  11.415
30164W        W89700  36.408  27.620   2.886
30165W        W89701  18.607   2.230  12.437
30166W        W89702  22.141  14.757  11.482
30167W        W89703  21.049   8.705   9.952
30168W        W89704  34.602  33.524  13.021
30169W        W89705  35.998  15.110   4.332
30170W        W89706  27.548   0.441   2.868
30171W        W89707   6.220   1.435  10.942
30172W        W89708  30.938  11.718   0.291
30173W        W89709  21.139  41.309  11.440
30174W        W89710  40.941  27.196  14.831
30175W        W89711  32.403  20.217   1.793
30176W        W89712  40.324  38.997   4.232
30177W        W89713  11.766  17.289   5.177
30178W        W89714  33.944  19.660  12.502
30179W        W89715  23.706  26.697  13.488
30180W        W89716  43.349  16.163   2.688
30181W        W89717  22.574   5.373  14.425
30182W        W89718  22.552  13.274   0.435
30183W        W89719  10.779  40.346   0.807
30184W        W89720   6.276  20.765  13.839
30185W        W89721   8.694  30.564  14.990
30186W        W89722  26.087  31.615  11.439
30187W        W89723  39.853  13.200  11.588
30188W        W89724  25.135   1.377  11.926
30189W        W89725  31.941  17.603   0.780
30190W        W89726  23.144  14.620  14.967
30191W        W89727  10.278  38.995  14.864
30192W        W89728  32.602   6.867  10.535
30193W        W89729  41.320   7.298   4.780
30194W        W89730  14.101  14.256  13.477
30195W        W89731  30.630  26.110  13.928
30196W        W89732  30.631  32.930   3.203
30197W        W89733  27.603  14.312   4.134
30198W        W89734  23.000   5.364  13.935
30199W        W89735  39.066  31.994   1.791
30200W        W89736  15.151  12.257  11.410
30201W        W89737  20.545  23.185  11.067
30202W        W89738  23.208  33.451  14.352
30203W        W89739  19.256  34.409   0.281
30204W        W89740  28.520  16.607  11.974
30205W        W89741  21.731  24.124   4.337
30206W        W89742  26.089  13.345  12.904
30207W        W89743   7.259   1.415  13.422
30208W        W89744   2.763  42.470   3.336
30209W        W89745   4.305   8.214  13.904
30210W        W89746   2.884  13.253  11.111
30211W        W89747  33.427  23.227  14.955
30212W        W89748  36.048  14.824  13.943
30213W        W89749  21.168  42.849   0.395
30214W        W89750   3.772  30.116  12.376
30215W        W89751  26.206   4.247   0.833
30216W        W89752  14.645  15.150   1.739
30217W        W89753   3.313  29.662  14.841
30218W        W89754   2.346  22.137   4.272
30219W        W89755  42.356  35.504  13.858
30220W        W89756  26.976   9.859   0.751
30221W        W89757  31.416  22.704   3.180
30222W        W89758  40.535  13.130   3.858
30223W        W89759   0.806  23.115   9.652
30224W        W89760  10.324   0.759  10.492
30225W        W89761  29.449   1.808  10.093
30226W        W89762  36.384  40.535   2.364
30227W        W89763   2.813  42.902  13.535
30228W        W89764  20.108  36.083   3.799
30229W        W89765  37.944  12.197   2.345
30230W        W89766   0.256  37.025  14.331
30231W        W89767  34.611   5.247   3.231
30232W        W89768  26.094  38.505  12.943
30233W        W89769  35.498   9.251  12.934
30234W        W89770   7.784  40.900   0.429
30235W        W89771  21.263  18.578  10.417
30236W        W89772  40.950  11.362  14.854
30237W        W89773   9.686  12.344   4.642
30238W        W89774  40.931  32.121   0.407
30239W        W89775  28.149  12.702  13.014
30240W        W89776  39.431  34.978   2.276
30241W        W89777  41.437  18.182  13.333
30242W        W89778  28.113  26.697   2.231
30243W        W89779  11.180   8.300   3.190
30244W        W89780  22.725  15.217  10.475
30245W        W89781   9.879   7.899   1.806
30246W        W89782   5.770   6.831   1.346
30247W        W89783  35.902  40.825  13.448
30248W        W89784  40.052  31.494   3.366
30249W        W89785  34.091  33.061  13.032
30250W        W89786   9.391  16.675   2.235
30251W        W89787  37.017  39.540   4.335
30252W        W89788  40.539   4.441  14.396
30253W        W89789  12.232  37.444  11.106
30254W        W89790  27.067   0.885   1.330
30255W        W89791  16.115  17.218  10.931
30256W        W89792  38.541   3.900  12.424
30257W        W89793  34.505   1.413  14.476
30258W        W89794  30.500  29.542  11.385
30259W        W89795  42.407  35.946   2.739
30260W        W89796  42.013  31.493   1.850
30261W        W89797  32.562  14.146  11.607
30262W        W89798  11.189  38.524   2.794
30263W        W89799  29.029  39.853  11.105
30264W        W89800  32.573  18.639   0.781
30265W        W89801  11.714  15.691  12.349
30266W        W89802   1.777  18.223   2.192
30267W        W89803  40.305   1.909   3.331
30268W        W89804  27.023  40.354  11.446
30269W        W89805  35.017  35.494   2.180
30270W        W89806  36.092  35.963  10.566
30271W        W89807  25.560  35.985   0.791
30272W        W89808  20.738  42.353  11.550
30273W        W89809   3.402  15.158  10.450
30274W        W89810  32.518  23.720  13.815
30275W        W89811  17.176  23.690  10.922
30276W        W89812   5.753  30.562  10.967
30277W        W89813  32.607  30.526  14.288
30278W        W89814  12.322  36.026  10.900
30279W        W89815  13.243  18.096  12.522
30280W        W89816   8.187  34.934   4.254
30281W        W89817   1.247  35.999  14.969
30282W        W89818  42.008  21.579  11.996
30283W        W89819  12.841  42.012   4.632
30284W        W89820  32.115   6.348  11.067
30285W        W89821   8.402  40.981   2.336
30286W        W89822   7.675  15.138  12.477
30287W        W89823  39.332   6.246   0.347
30288W        W89824  39.027  10.384   0.266
30289W        W89825   8.835  41.955  12.826
30290W        W89826  15.578   5.861   4.222
30291W        W89827  38.324   9.806  11.412
30292W        W89828  29.445   0.979  11.928
30293W        W89829  14.818  11.737  14.373
30294W        W89830  25.184  31.541  13.310
30295W        W89831  10.263   4.386   1.726
30296W        W89832  30.497  15.814   4.340
30297W        W89833  29.512  28.465  12.493
30298W        W89834  17.265  20.197   2.709
30299W        W89835  24.686  10.681   3.831
30300W        W89836  37.979  27.979  10.462
30301W        W89837  11.656   0.781   1.897
30302W        W89838  28.542  29.929  11.013
30303W        W89839   6.896  32.983   1.925
30304W        W89840  14.621   7.813  11.003
30305W        W89841  34.612   6.831   0.854
30306W        W89842  26.635  34.507   3.275
30307W        W89843   0.275  20.699  12.830
30308W        W89844  34.870  31.433  13.926
30309W        W89845   3.807  26.070   3.216
30310W        W89846  36.868  34.969   3.266
30311W        W89847   1.857  26.206   0.932
30312W        W89848  13.270  39.368  12.551
30313W        W89849   1.361  35.926  11.008
30314W        W89850   2.747  24.181  12.967
30315W        W89851  17.717  25.500   0.909
30316W        W89852   9.685  10.648   3.202
30317W        W89853  15.734  17.237  12.468
30318W        W89854  32.467   4.909  10.488
30319W        W89855  30.507  38.954  13.027
30320W        W89856  14.307  28.961   0.730
30321W        W89857  24.540  17.242   0.914
30322W        W89858  24.540  22.087  10.518
30323W        W89859  37.948  26.972   1.753
30324W        W89860  38.010  25.129   1.222
30325W        W89861  18.108  14.607   3.785
30326W        W89862  43.354  31.432   1.884
30327W        W89863  24.502  36.380  12.066
30328W        W89864  26.500  33.125  13.961
30329W        W89865  14.724   8.727   3.260
30330W        W89866  27.581   5.698  14.360
30331W        W89867   3.301  15.191   2.237
30332W        W89868  42.856  29.468   1.211
30333W        W89869   2.253  10.203   3.739
30334W        W89870   8.674  17.709  14.879
30335W        W89871   7.312  15.206   4.131
30336W        W89872  32.396  20.243  14.348
30337W        W89873  26.025   0.871  14.483
30338W        W89874  20.085  28.524  13.809
30339W        W89875  24.187  27.076  12.473
30340W        W89876  38.399  41.478   1.437
30341W        W89877  17.616   7.393   2.880
30342W        W89878  41.347  33.926   1.446
30343W        W89879  11.228  17.088  14.989
30344W        W89880   2.762  23.708  13.834
30345W        W89881  14.637   0.444   3.668
30346W        W89882  15.265  27.178  12.005
30347W        W89883  14.148   5.818   4.182
30348W        W89884  40.855  11.836   0.353
30349W        W89885  25.635  39.022  12.377
30350W        W89886   5.692   4.322  14.942
30351W        W89887   5.688   3.838  13.448
30352W        W89888  15.675  23.659   3.770
30353W        W89889  44.343   9.870   3.263
30354W        W89890  27.512   1.393   0.389
30355W        W89891   1.781   8.753   3.648
30356W        W89892  26.516   5.839  13.838
30357W        W89893  29.154  30.908   1.300
30358W        W89894  37.905  18.661  11.928
30359W        W89895  37.467  41.995  12.367
30360W        W89896   0.816   0.951   1.252
30361W        W89897  23.038  43.372  14.407
30362W        W89898  38.414  37.348   4.800
30363W        W89899  25.004  19.578  11.985
30364W        W89900  24.674  42.822  13.312
30365W        W89901  17.063  23.093  10.970
30366W        W89902  25.573  44.815  13.318
30367W        W89903  16.221   2.928  14.405
30368W        W89904  41.362  20.692   0.269
30369W        W89905  39.842  26.485  14.841
30370W        W89906  31.988  21.519  13.929
30371W        W89907  40.517  15.330  14.031
30372W        W89908  44.011  36.996  13.469
30373W        W89909  37.351  38.905  12.983
30374W        W89910   5.697  27.660  13.908
30375W        W89911   8.800   0.923  13.423
30376W        W89912   9.240  24.621  10.603
30377W        W89913  24.527  38.560  13.029
30378W        W89914  36.484   2.333   1.310
30379W        W89915  14.624  20.589   2.679
30380W        W89916  26.504  40.898  13.829
30381W        W89917  23.083  17.139   0.733
30382W        W89918  34.994  29.117  11.460
30383W        W89919   3.873  35.412  13.840
30384W        W89920  11.307   6.797   2.882
30385W        W89921   1.891  14.728   4.274
30386W        W89922  24.708  36.534   3.324
30387W        W89923  35.382   9.215   3.868
30388W        W89924  31.638  27.637  13.496
30389W        W89925  43.846  31.042  11.962
30390W        W89926  27.529  24.530  14.348
30391W        W89927  28.037  11.667  12.927
30392W        W89928   1.959  38.396   0.395
30393W        W89929  37.952  32.001  11.565
30394W        W89930  44.423   5.719   4.754
30395W        W89931  30.550  36.879  14.370
30396W        W89932  37.045  35.378   1.704
30397W        W89933  23.182  44.360   2.290
30398W        W89934   5.338  34.892   2.214
30399W        W89935   4.702  14.269   4.758
30400W        W89936  10.730  23.657  13.371
30401W        W89937   7.228  20.268  10.574
30402W        W89938  19.719   8.289   0.294
30403W        W89939  16.706  21.090  14.426
30404W        W89940  42.891  44.961  12.525
30405W        W89941   7.256  13.207   3.702
30406W        W89942  34.930   0.905  14.911
30407W        W89943  11.753  25.166  13.981
30408W        W89944  34.586  31.049  14.500
30409W        W89945  26.072  29.038   2.399
30410W        W89946  40.958   3.734   2.801
30411W        W89947   7.799  15.771   2.207
30412W        W89948  13.781  32.895  14.842
30413W        W89949  38.893  42.778   0.321
30414W        W89950  22.620  18.295  13.818
30415W        W89951  38.849  11.706   3.758
30416W        W89952   0.341   3.809  10.890
30417W        W89953   7.724  25.621   2.782
30418W        W89954  28.126  29.980  14.813
30419W        W89955  33.955  31.980  14.375
30420W        W89956  26.626  16.684  13.837
30421W        W89957  27.497  26.514  14.872
30422W        W89958  42.874  25.171  10.955
30423W        W89959  34.100  20.227  11.016
30424W        W89960   1.350  22.689   3.829
30425W        W89961   7.843   5.851   4.286
30426W        W89962  39.495  31.583   0.441
30427W        W89963  25.499   8.323  14.506
30428W        W89964  37.888  37.903   4.620
30429W        W89965  35.523  38.073   0.417
30430W        W89966  41.371  17.743  12.455
30431W        W89967   4.834  43.858   4.210
30432W        W89968   7.364  41.996   2.344
30433W        W89969  11.852  44.430  13.890
30434W        W89970  30.151  25.212  11.560
30435W        W89971  28.516   9.203  11.500
30436W        W89972  15.597  16.750  12.830
30437W        W89973  28.470   6.206  13.838
30438W        W89974  14.172  23.551   1.723
30439W        W89975  23.008   6.774   2.836
30440W        W89976   2.870   3.828  14.453
30441W        W89977  12.792  40.408   3.283
30442W        W89978   0.454  15.705  11.519
30443W        W89979  10.225  39.846   0.386
30444W        W89980  21.682  42.428  14.421
30445W        W89981  25.980   9.863  13.947
30446W        W89982   7.748   7.292  12.444
30447W        W89983  35.096  11.362  13.472
30448W        W89984   8.775  41.352   1.926
30449W        W89985   1.816  10.739   1.935
30450W        W89986  12.289  33.927   2.320
30451W        W89987  19.265   2.290  11.108
30452W        W89988  34.059   8.888   2.798
30453W        W89989  14.234  41.855   2.392
30454W        W89990  24.994  43.500   0.375
30455W        W89991  26.556  42.363  13.875
30456W        W89992  16.630  22.523  14.502
30457W        W89993  40.829  33.524  10.420
30458W        W89994  18.064  15.196  11.108
30459W        W89995   1.888  36.351  10.553
30460W        W89996  14.141  11.854   4.798
30461W        W89997  14.104  31.597   1.225
30462W        W89998  10.776  43.881  12.439
30463W        W89999  11.237   3.287  14.940
30464W        W90000  14.772   4.701  14.826
30465W        W90001  16.193  43.985  13.329
30466W        W90002   2.810  35.359   0.787
30467W        W90003  19.153   9.862   3.242
30468W        W90004  31.541  36.910   2.685
30469W        W90005  26.529  35.382  13.030
30470W        W90006  21.211  22.603   2.888
30471W        W90007  37.956  25.976  12.011
30472W        W90008  11.807  29.633   4.323
30473W        W90009  21.567   1.327  10.890
30474W        W90010  35.083  40.879   4.242
30475W        W90011   2.298  29.946  12.023
30476W        W90012  42.006  21.612  13.459
30477W        W90013  35.022  29.461  11.867
30478W        W90014  20.656  36.852  14.935
30479W        W90015  40.496  11.781   3.688
30480W        W90016  34.487   1.811   0.273
30481W        W90017   9.230  12.213   0.412
30482W        W90018  39.891  12.785   2.830
30483W        W90019  30.573   3.767  10.630
30484W        W90020  24.637  23.543   3.317
30485W        W90021  32.441  20.735  13.050
30486W        W90022  43.410   7.744  11.069
30487W        W90023  15.713  14.114  14.448
30488W        W90024   8.797  10.188  12.441
30489W        W90025  33.031  12.210  10.925
30490W        W90026  24.119  32.440   4.663
30491W        W90027  44.817  17.226  10.588
30492W        W90028  32.044   3.792  13.859
30493W        W90029   6.765  36.372   4.802
30494W        W90030  13.665  19.101  12.568
30495W        W90031  30.913   5.404   4.710
30496W        W90032  26.070   8.364   3.634
30497W        W90033  26.513  23.046   2.777
30498W        W90034   6.769  20.230   2.217
30499W        W90035   0.460  14.142   4.210
30500W        W90036   7.396  38.567  14.303
30501W        W90037  16.669  32.497  14.779
30502W        W90038  41.890  12.186   3.755
30503W        W90039  15.740  15.655   3.730
30504W        W90040  14.627   8.879   1.923
30505W        W90041   9.250  34.395  11.125
30506W        W90042   6.364  17.741  12.547
30507W        W90043  36.013  16.084   2.197
30508W        W90044  41.863  39.384  13.823
30509W        W90045  35.055  22.121   3.376
30510W        W90046  38.007   0.892   3.328
30511W        W90047  32.050  27.967   3.255
30512W        W90048   3.314   4.944   0.352
30513W        W90049   9.787   9.393   4.770
30514W        W90050  16.691  17.759  12.428
30515W        W90051  41.461  16.750  13.348
30516W        W90052  37.525  25.479   3.297
30517W        W90053  25.077   3.849  12.864
30518W        W90054  22.154  34.602   4.123
30519W        W90055  22.059  31.963  13.456
30520W        W90056  16.715   6.267   3.262
30521W        W90057  37.505  24.163   4.732
30522W        W90058  32.932  32.458  11.875
30523W        W90059  14.618  18.255   3.763
30524W        W90060  31.604  31.918   3.829
30525W        W90061   9.342  20.574  14.448
30526W        W90062   5.332  23.107   3.168
30527W        W90063  42.915   7.171  12.580
30528W        W90064  12.808  25.024   1.296
30529W        W90065   2.844  43.905   3.708
30530W        W90066  20.029  26.514  11.097
30531W        W90067  38.003   4.916   3.383
30532W        W90068   8.227  13.233   1.432
30533W        W90069   4.772  40.019  10.104
30534W        W90070  22.180  13.731   4.664
30535W        W90071   7.730   0.972  12.503
30536W        W90072  35.069   3.243  14.948
30537W        W90073  38.378  22.115   3.202
30538W        W90074   5.774   6.706  12.048
30539W        W90075   9.153  41.818   1.374
30540W        W90076  24.672   6.185  12.557
30541W        W90077  21.183  31.425   0.278
30542W        W90078  32.954   0.404   3.755
30543W        W90079   2.408  43.956  12.923
30544W        W90080  42.964  40.958   4.198
30545W        W90081  38.479  42.789  13.925
30546W        W90082  36.089  42.840  11.090
30547W        W90083  14.743  31.962  11.409
30548W        W90084  16.149  32.422  13.847
30549W        W90085   6.359  41.872   4.347
30550W        W90086  24.539  26.116  11.476
30551W        W90087  40.322  10.693   1.218
30552W        W90088   1.432  38.943   4.810
30553W        W90089  10.159  27.617  13.035
30554W        W90090   6.676  18.626   2.865
30555W        W90091  12.250  26.604  13.946
30556W        W90092   7.810  36.927  13.433
30557W        W90093  37.988  35.097   1.375
30558W        W90094  36.933  35.395   3.312
30559W        W90095  23.640  27.060  11.113
30560W        W90096  35.488  39.821  13.445
30561W        W90097  26.065  23.639  13.050
30562W        W90098  35.534  14.699  13.523
30563W        W90099  15.112  25.119   1.821
30564W        W90100  27.029  44.467  10.146
30565W        W90101  15.604   5.856  10.425
30566W        W90102  22.620  38.333  11.503
30567W        W90103  20.145  34.499  13.864
30568W        W90104  10.304  41.969   3.766
30569W        W90105  23.079   5.277   3.766
30570W        W90106   2.820  34.015   2.371
30571W        W90107   0.985  18.095   2.344
30572W        W90108   6.891  25.644   0.822
30573W        W90109  32.504  34.599  12.460
30574W        W90110  12.726  34.904  14.802
30575W        W90111  20.642  25.480  12.034
30576W        W90112   6.356   0.908  12.900
30577W        W90113  17.108  34.897   2.885
30578W        W90114  14.184  29.651   4.763
30579W        W90115  31.912   8.863  10.404
30580W        W90116  27.639  18.154   3.202
30581W        W90117  18.706  38.397   4.263
30582W        W90118  40.018   7.367  14.846
30583W        W90119  26.649  44.294   0.754
30584W        W90120  27.552   8.733  11.046
30585W        W90121  16.171  38.039   4.816
30586W        W90122  10.762  34.513  11.597
30587W        W90123  20.101   2.284   0.886
30588W        W90124  20.210  35.102   3.656
30589W        W90125  35.387  14.807  11.533
30590W        W90126  16.576  38.488   0.410
30591W        W90127  29.088  19.674   3.819
30592W        W90128  26.062  43.356   0.773
30593W        W90129  35.048  41.361  14.496
30594W        W90130  18.225   1.832   4.143
30595W        W90131   4.747   2.924  11.943
30596W        W90132  11.624  25.649   3.851
30597W        W90133  43.878  40.429  11.453
30598W        W90134   5.761  14.723  13.029
30599W        W90135  20.567  13.119  11.572
30600W        W90136   7.707   3.384  14.368
30601W        W90137  19.120  18.116   0.918
30602W        W90138  31.029  29.118  13.022
30603W        W90139  39.457  39.553   1.326
30604W        W90140  33.918  36.385   2.178
30605W        W90141   8.733   4.886   2.769
30606W        W90142  29.101  20.268  14.514
30607W        W90143   6.707  20.111   3.235
30608W        W90144  11.689  26.151   3.293
30609W        W90145  26.558  43.777  14.800
30610W        W90146   5.882  29.940  13.516
30611W        W90147  27.488  32.465  11.052
30612W        W90148   2.736  24.025   1.224
30613W        W90149  42.896  30.912   1.773
30614W        W90150  39.346  29.132  13.030
30615W        W90151  36.441  34.061   4.309
30616W        W90152  39.841  42.508   1.776
30617W        W90153   8.390   6.209  14.306
30618W        W90154  13.128  26.003   1.369
30619W        W90155  20.140  24.108  11.008
30620W        W90156  33.054  15.208  14.906
30621W        W90157  20.037  11.717   2.778
30622W        W90158  11.256  36.002   3.229
30623W        W90159  44.812  38.985   0.358
30624W        W90160   3.843  16.779  14.321
30625W        W90161  11.273  13.325  13.904
30626W        W90162  24.530  33.529   1.743
30627W        W90163  11.754   8.268   2.340
30628W        W90164  43.931  23.108  14.838
30629W        W90165  23.172   5.239   3.148
30630W        W90166  41.390   5.287   0.469
30631W        W90167  43.958  39.049   0.737
30632W        W90168   9.804  28.544  13.057
30633W        W90169  42.801  43.813  12.925
30634W        W90170  41.354  39.473   3.650
30635W        W90171  21.707  27.500   2.736
30636W        W90172  10.256  42.329  12.413
30637W        W90173   4.816  38.917  14.390
30638W        W90174   0.301  25.487   2.733
30639W        W90175  18.250  35.035   2.260
30640W        W90176  32.081   9.318   4.295
30641W        W90177  20.588   7.851  10.950
30642W        W90178  26.063  39.366   3.307
30643W        W90179  40.930  20.144   4.168
30644W        W90180  22.659  43.466   2.318
30645W        W90181  44.304  16.238   3.357
30646W        W90182  37.025  42.927   2.282
30647W        W90183  15.195  33.513  12.894
30648W        W90184  24.561  15.154  14.892
30649W        W90185   3.230  29.521  11.038
30650W        W90186  27.053  22.590   3.763
30651W        W90187  38.073  13.615  11.602
30652W        W90188   0.258  16.576   4.621
30653W        W90189  40.504  36.541   2.412
30654W        W90190  15.632  28.570  14.491
30655W        W90191  21.570  19.225   0.955
30656W        W90192  14.792  37.084   3.865
30657W        W90193   4.288  10.342   2.366
30658W        W90194   6.307  26.082   2.313
30659W        W90195   5.865  40.971  14.804
30660W        W90196  13.600   6.216  12.519
30661W        W90197   7.187  40.468  13.419
30662W        W90198   3.724  32.561   1.450
30663W        W90199  13.215   1.422  11.059
30664W        W90200  27.067  22.639   4.170
30665W        W90201   3.252  39.824   3.304
30666W        W90202   1.976   2.934   3.724
30667W        W90203   9.364  21.602  13.384
30668W        W90204  17.257  20.726  14.287
30669W        W90205  38.429  10.223   3.712
30670W        W90206  23.511   7.842  11.612
30671W        W90207   6.704  25.495   1.369
30672W        W90208  10.334   7.322   1.897
30673W        W90209  34.539  28.116   4.184
30674W        W90210  15.733  21.120  14.418
30675W        W90211  36.371  13.692   3.254
30676W        W90212   0.783  18.095  14.994
30677W        W90213  21.736  17.681   3.829
30678W        W90214  28.664  28.595  11.613
30679W        W90215  25.561  39.560   9.937
30680W        W90216  37.531  12.123  11.958
30681W        W90217  18.727  31.953   2.208
30682W        W90218   2.913  12.276  13.923
30683W        W90219  33.031  34.015   4.654
30684W        W90220   3.728  18.209  12.071
30685W        W90221  44.986  37.428   1.331
30686W        W90222  12.150  24.975  11.592
30687W        W90223  14.655  21.244  11.098
30688W        W90224  29.627  17.614   2.734
30689W        W90225  16.184   4.728  10.526
30690W        W90226  34.517  10.703  13.425
30691W        W90227  31.594  20.234  14.782
30692W        W90228  10.243  44.947   3.815
30693W        W90229  30.936  18.282   2.779
30694W        W90230  34.050   4.923  12.083
30695W        W90231  37.085   7.270  11.575
30696W        W90232   6.319   8.385  10.488
30697W        W90233  39.040  11.656  12.079
30698W        W90234   0.920  24.680  14.487
30699W        W90235   0.976  36.926   4.745
30700W        W90236  42.986  20.211  12.343
30701W        W90237  12.249  40.987  10.407
30702W        W90238   6.774  11.843  13.030
30703W        W90239  44.954  32.990   0.942
30704W        W90240  30.616  38.483   3.298
30705W        W90241  36.078   1.913  14.972
30706W        W90242  19.687  33.948  14.771
30707W        W90243  25.001  28.572  13.813
30708W        W90244  25.667  17.113  12.394
30709W        W90245  44.329  42.371   3.220
30710W        W90246   8.293  20.236  10.999
30711W        W90247  39.906  10.301  14.882
30712W        W90248   7.215  14.674   1.409
30713W        W90249  15.643  34.872  13.807
30714W        W90250  18.119  17.198   1.875
30715W        W90251  20.087  32.448   4.206
30716W        W90252  43.366   0.766  13.449
30717W        W90253   3.799  30.115  10.487
30718W        W90254  24.044   5.831   2.385
30719W        W90255   3.383  37.365   0.868
30720W        W90256  44.495  33.026  12.991
30721W        W90257  26.203  12.689   2.671
30722W        W90258  16.111  39.815  13.960
30723W        W90259  43.473  26.492  12.833
30724W        W90260  44.394   0.413   3.801
30725W        W90261  11.255  21.604   0.955
30726W        W90262  24.141  25.581   3.798
30727W        W90263   5.215  38.933  13.809
30728W        W90264  34.069  34.539   2.335
30729W        W90265  25.214  43.770   3.836
30730W        W90266  28.563  41.332   3.353
30731W        W90267  34.412  23.670   3.203
30732W        W90268  43.505   6.901  12.465
30733W        W90269  13.725   0.864   1.910
30734W        W90270  16.597  19.112   2.684
30735W        W90271  38.977  13.761   1.889
30736W        W90272  26.021  29.987   1.790
30737W        W90273  10.711  16.281  12.436
30738W        W90274  13.215   1.240  12.480
30739W        W90275   7.799  40.460   4.198
30740W        W90276  34.948  17.700  11.456
30741W        W90277  22.207  24.537   3.224
30742W        W90278  11.248  14.209  12.056
30743W        W90279  36.587  24.117  14.459
30744W        W90280  38.402   8.866  13.003
30745W        W90281  30.035   5.306  10.567
30746W        W90282   1.369  16.255   0.858
30747W        W90283  43.414  30.526   1.401
30748W        W90284  44.946  23.692  12.948
30749W        W90285  10.343  20.544  14.470
30750W        W90286   6.742  33.400  12.424
30751W        W90287  36.063  41.453  13.319
30752W        W90288   9.819  10.705  11.957
30753W        W90289  43.862  11.802  11.905
30754W        W90290  28.036   6.680   0.840
30755W        W90291  17.222   4.780  12.377
30756W        W90292  15.801  22.181   1.301
30757W        W90293  37.554  25.970   0.282
30758W        W90294  32.116   2.389   4.137
30759W        W90295  41.485   0.475  13.035
30760W        W90296   2.964   7.731   0.847
30761W        W90297  32.905   8.241  14.395
30762W        W90298  15.604  11.207   3.349
30763W        W90299  32.966   2.270  12.350
30764W        W90300  31.410  31.934   1.738
30765W        W90301  31.994  28.056  10.005
30766W        W90302   4.838  18.608  13.907
30767W        W90303  22.160  27.956  12.528
30768W        W90304  39.904  30.038  13.434
30769W        W90305   2.926   8.775  12.036
30770W        W90306  14.285  43.361  10.577
30771W        W90307  14.658   2.921   3.264
30772W        W90308  26.643  30.059  13.931
30773W        W90309  34.954  20.236  11.900
30774W        W90310  42.473   3.278   3.189
30775W        W90311  37.879   2.260   5.257
30776W        W90312  35.388  41.888   2.329
30777W        W90313  31.601  39.928   3.751
30778W        W90314  13.308   6.215  13.313
30779W        W90315   8.741  43.394   1.374
30780W        W90316  40.806  26.598  12.012
30781W        W90317   5.263  38.822  10.589
30782W        W90318  10.658  41.837   1.775
30783W        W90319  25.560  16.154   3.705
30784W        W90320  44.369  35.060  10.476
30785W        W90321  35.373   1.437   0.441
30786W        W90322  44.806  19.569   1.285
30787W        W90323  11.815  10.183  11.464
30788W        W90324  10.879  27.958   4.838
30789W        W90325  44.966   9.327   0.370
30790W        W90326  43.940  25.572   0.481
30791W        W90327  40.804  44.362   1.720
30792W        W90328  27.145   0.894   4.275
30793W        W90329  43.022  25.037  14.416
30794W        W90330  14.758   8.744   1.291
30795W        W90331  11.236  18.153   0.321
30796W        W90332  11.625   9.698   4.679
30797W        W90333  19.089  20.094   1.310
30798W        W90334   3.440  19.206   3.735
30799W        W90335   6.396  28.444   9.523
30800W        W90336   3.258  15.092   1.748
30801W        W90337   0.790  22.544   5.151
30802W        W90338  29.174   9.264   4.254
30803W        W90339   0.835  41.369  11.026
30804W        W90340  36.522  39.878   4.196
30805W        W90341   0.760   4.434   2.307
30806W        W90342  13.711  16.730   0.874
30807W        W90343  39.444  40.488   2.761
30808W        W90344   2.369  41.379   2.741
30809W        W90345  23.053   2.804   4.341
30810W        W90346  16.813   3.344  10.989
30811W        W90347   0.256  37.474   4.777
30812W        W90348   6.248  17.294   9.933
30813W        W90349  28.480  26.512   9.939
30814W        W90350  33.085  14.146   1.393
30815W        W90351  20.118  25.623  11.925
30816W        W90352   5.786  35.503  10.481
30817W        W90353   8.886  15.760   3.169
30818W        W90354  26.549  24.529  10.983
30819W        W90355   6.801  26.462  14.514
30820W        W90356   6.903  24.977   1.449
30821W        W90357  24.179   2.441  12.876
30822W        W90358  19.224  28.167   2.844
30823W        W90359   3.396  23.237  14.997
30824W        W90360  11.747   3.721   2.395
30825W        W90361   5.338   8.386  12.049
30826W        W90362   5.702  29.990  11.956
30827W        W90363  12.236  29.650   4.311
30828W        W90364  17.654  37.892   3.820
30829W        W90365  14.245  40.021   1.802
30830W        W90366  10.718  21.233  14.487
30831W        W90367   5.819  11.363   2.773
30832W        W90368   0.894  10.674  13.856
30833W        W90369  38.028  36.588   3.860
30834W        W90370  22.212  35.104   0.467
30835W        W90371   6.681  23.233   3.702
30836W        W90372  30.581  18.096   4.805
30837W        W90373   1.449  41.531  14.455
30838W        W90374  37.485  39.976  10.497
30839W        W90375  24.223  33.949   3.252
30840W        W90376  41.355   8.857   1.312
30841W        W90377  20.552   7.259   1.227
30842W        W90378  29.017   1.461   4.670
30843W        W90379   8.740  24.097   0.318
30844W        W90380   0.485  28.098  12.869
30845W        W90381  25.582  31.530  14.925
30846W        W90382  33.125  41.840  14.895
30847W        W90383  25.006  34.045   5.733
30848W        W90384  44.897  40.407   0.928
30849W        W90385  32.456  39.415  14.806
30850W        W90386  36.382  38.374  11.121
30851W        W90387  26.477  25.165  13.842
30852W        W90388  10.346  12.646   3.349
30853W        W90389  38.332  28.065   0.430
30854W        W90390  30.163  21.066   2.745
30855W        W90391  25.996  21.669  13.009
30856W        W90392  30.430  35.462  12.932
30857W        W90393  23.522  21.614  14.946
30858W        W90394  28.161   9.287   1.349
30859W        W90395  33.555   7.336  11.872
30860W        W90396   6.296  34.998  11.584
30861W        W90397  13.233  36.020  12.877
30862W        W90398  27.503  23.551  11.896
30863W        W90399   0.332  23.110   5.764
30864W        W90400  42.864   8.243   0.904
30865W        W90401  42.453   7.401  11.062
30866W        W90402  21.145  17.135  10.075
30867W        W90403  18.203  39.846   4.629
30868W        W90404  32.066  27.006  11.125
30869W        W90405   3.234  42.330  13.358
30870W        W90406  24.160  18.570  14.447
30871W        W90407  27.186  32.946   3.840
30872W        W90408  33.007  44.390  12.949
30873W        W90409  24.167   0.267  12.039
30874W        W90410  18.104  11.361   1.409
30875W        W90411  29.571  31.614  13.905
30876W        W90412  36.849  22.505  11.447
30877W        W90413  41.910  29.499   0.386
30878W        W90414   4.935  14.322   1.813
30879W        W90415  16.694  17.284  14.873
30880W        W90416  32.529  37.931  12.427
30881W        W90417  44.316  24.086  13.050
30882W        W90418  32.551   4.887   2.284
30883W        W90419   9.866  18.568  12.548
30884W        W90420   3.392  24.496  11.066
30885W        W90421  22.640  23.176   2.769
30886W        W90422   3.747  37.024   4.153
30887W        W90423  31.545   9.255  14.398
30888W        W90424  39.369  29.924  11.394
30889W        W90425  22.062  28.527   1.428
30890W        W90426  21.735  41.986  12.032
30891W        W90427  44.493   1.833   3.307
30892W        W90428   3.885   2.843  14.855
30893W        W90429  22.249  43.882  10.918
30894W        W90430  11.743  10.813  14.466
30895W        W90431  35.031  27.061  10.992
30896W        W90432  32.435  12.667   2.216
30897W        W90433  40.426  38.399   0.828
30898W        W90434   2.777  31.639  13.851
30899W        W90435  12.219  26.605   3.295
30900W        W90436  13.826  38.846   0.930
30901W        W90437   5.225   5.390   1.253
30902W        W90438  31.068   8.394   1.841
30903W        W90439  36.385  16.300   4.713
30904W        W90440  38.989  40.321  10.518
30905W        W90441  28.998  12.182  10.890
30906W        W90442  13.666  30.084  13.046
30907W        W90443  40.932  23.529   1.441
30908W        W90444  29.038  25.581  13.018
30909W        W90445  33.098  20.166   3.645
30910W        W90446   8.273  14.679  12.516
30911W        W90447   7.253  13.616   3.241
30912W        W90448  44.872  34.887   0.812
30913W        W90449  41.010   2.962  13.895
30914W        W90450  31.635   1.304   1.263
30915W        W90451  14.261  18.594   4.332
30916W        W90452  27.162   5.307  11.404
30917W        W90453  21.671  41.335   0.889
30918W        W90454  32.512  35.392  11.866
30919W        W90455  25.194   9.879   0.827
30920W        W90456  30.921  39.042  13.794
30921W        W90457   9.248  28.645   4.792
30922W        W90458  15.097  15.123  14.416
30923W        W90459  13.637  42.346  14.352
30924W        W90460   3.921   7.368  11.406
30925W        W90461   5.903  41.957  10.596
30926W        W90462   4.937  31.951  11.993
30927W        W90463  18.593   4.287  14.346
30928W        W90464  11.260   0.437  10.944
30929W        W90465  28.050   0.824  10.974
30930W        W90466  15.602  42.442  13.427
30931W        W90467  36.475   7.716  13.441
30932W        W90468  29.964   2.774  13.936
30933W        W90469  24.082  11.679  14.007
30934W        W90470   5.743  12.668  14.957
30935W        W90471  42.346  20.715   2.783
30936W        W90472  38.407  44.817   1.260
30937W        W90473  13.630  24.229   2.688
30938W        W90474  36.538  40.965  14.282
30939W        W90475  27.941  42.525  14.512
30940W        W90476   2.280  41.297   0.282
30941W        W90477   6.915   5.305   4.724
30942W        W90478  41.346  33.401   3.869
30943W        W90479  37.941  43.409  13.463
30944W        W90480  12.613  35.376   4.220
30945W        W90481   5.332  11.176   1.441
30946W        W90482   2.232  15.822  12.555
30947W        W90483  39.513  20.100   3.235
30948W        W90484  37.997  42.519   3.213
30949W        W90485   4.884  29.577   4.319
30950W        W90486  34.978   7.199   3.716
30951W        W90487  27.984  21.571  14.386
30952W        W90488   3.921  19.712   5.315
30953W        W90489  23.567   8.251   1.815
30954W        W90490  39.375   3.330   3.835
30955W        W90491   0.487  39.444  11.432
30956W        W90492  26.502   0.252  10.614
30957W        W90493   2.875  13.136   5.219
30958W        W90494  23.170  19.269  14.814
30959W        W90495   5.926  18.791   4.346
30960W        W90496   2.835   9.266  14.391
30961W        W90497  34.601  30.576  12.003
30962W        W90498  14.320  16.645   0.962
30963W        W90499  42.796  18.602  13.835
30964W        W90500  23.653   8.834  14.459
30965W        W90501  39.859  33.425  12.378
30966W        W90502  27.081  10.152  14.012
30967W        W90503  35.405  34.962   1.342
30968W        W90504   1.745  16.134   4.312
30969W        W90505  13.124  40.501  12.422
30970W        W90506  25.714  15.692  11.489
30971W        W90507  37.368  43.427   3.246
30972W        W90508  33.003  20.649  11.901
30973W        W90509  29.115  26.964  10.899
30974W        W90510  19.587  18.121   0.829
30975W        W90511  37.344  39.401   4.690
30976W        W90512   3.395  13.167  14.005
30977W        W90513   5.426  30.464   2.696
30978W        W90514   7.880  27.508  11.397
30979W        W90515  31.494  19.138  10.594
30980W        W90516   8.233  13.769   2.841
30981W        W90517   2.748  13.677   4.819
30982W        W90518  42.312  12.155  11.955
30983W        W90519  27.669  19.055  14.761
30984W        W90520  18.665  44.823  11.970
30985W        W90521  43.775  14.248  13.340
30986W        W90522  34.885  42.940  11.611
30987W        W90523  21.228  11.253  13.905
30988W        W90524   1.255  27.017  13.972
30989W        W90525  33.124  30.502   0.856
30990W        W90526  16.116  26.205   1.247
30991W        W90527  16.222   6.408  14.406
30992W        W90528  34.957  13.811   0.346
30993W        W90529   7.276  19.594   1.271
30994W        W90530  25.009  19.756   2.797
30995W        W90531  30.950   0.373   3.652
30996W        W90532  15.096  39.315  13.523
30997W        W90533  23.102  28.646  11.987
30998W        W90534  27.642  44.955  10.613
30999W        W90535   3.857  32.981  11.514
31000W        W90536  31.959   8.787   2.700
31001W        W90537  40.875  17.652  14.996
31002W        W90538  36.575   9.391  13.328
31003W        W90539  16.633  10.751   3.308
31004W        W90540  41.847  11.322   2.185
31005W        W90541  36.565   3.869  14.279
31006W        W90542   2.762  35.540  12.060
31007W        W90543   1.446  12.133  12.837
31008W        W90544  43.815  24.498  12.938
31009W        W90545   8.268  35.006  13.908
31010W        W90546  36.371  37.361  11.548
31011W        W90547  27.141   2.865   0.311
31012W        W90548   3.727  43.941   4.295
31013W        W90549  27.166  28.619   0.862
31014W        W90550  15.801  35.892  11.865
31015W        W90551   2.875  28.600  10.032
31016W        W90552  38.517   9.845   3.207
31017W        W90553  18.230  23.708   3.756
31018W        W90554  23.682  10.189  13.924
31019W        W90555  25.976  17.216   0.785
31020W        W90556   3.837  12.249   3.251
31021W        W90557  22.010  42.437   1.903
31022W        W90558   8.658  23.065   0.843
31023W        W90559   5.397   9.699  11.091
31024W        W90560  33.433  37.435  12.844
31025W        W90561  14.737  37.071   1.795
31026W        W90562  38.893  34.399  12.410
31027W        W90563  36.427  31.646   4.734
31028W        W90564  40.855  43.904   4.258
31029W        W90565  26.633  34.942   5.152
31030W        W90566  44.337  34.520  11.417
31031W        W90567  27.578  27.663   0.914
31032W        W90568   3.898  39.406   1.283
31033W        W90569  32.915  39.508  12.942
31034W        W90570  36.846  22.125  12.497
31035W        W90571   7.816  31.535   4.668
31036W        W90572  31.065  42.882  10.124
31037W        W90573  43.487  17.102  13.378
31038W        W90574  43.002  21.736  11.932
31039W        W90575  15.144   6.777   5.597
31040W        W90576  13.678  17.127   2.842
31041W        W90577  38.568  42.937  12.546
31042W        W90578  11.802  35.547   3.345
31043W        W90579  24.558  22.541  13.498
31044W        W90580  14.098   3.215   4.750
31045W        W90581   0.304   4.290   2.792
31046W        W90582  31.519  25.168  11.876
31047W        W90583  20.221   8.309   4.713
31048W        W90584   7.834   5.347  13.859
31049W        W90585   8.306  21.547  14.946
31050W        W90586  32.053   2.824   4.217
31051W        W90587  22.623  10.362   4.203
31052W        W90588  11.343   6.382  11.103
31053W        W90589  38.536  27.528   4.619
31054W        W90590   9.823   7.212  12.568
31055W        W90591  33.458  40.053  10.068
31056W        W90592  32.065   5.924  11.428
31057W        W90593  18.068  27.544   1.865
31058W        W90594   8.266  34.016   1.777
31059W        W90595  37.018  13.320  13.371
31060W        W90596  42.520  42.459  10.575
31061W        W90597   6.365  15.789   5.141
31062W        W90598  21.121  12.218   2.805
31063W        W90599  25.663  37.483   2.786
31064W        W90600  17.120  28.131  12.412
31065W        W90601  20.256  30.642   3.859
31066W        W90602   3.947  27.512  12.535
31067W        W90603  32.044  30.039  14.012
31068W        W90604   4.371  28.002  12.890
31069W        W90605   9.763  24.062   5.271
31070W        W90606  35.107  42.875   4.737
31071W        W90607  42.825  44.829  12.031
31072W        W90608   8.887  27.513  14.424
31073W        W90609  15.775  37.470  11.569
31074W        W90610  38.408  37.400  12.062
31075W        W90611   6.736  31.143  12.894
31076W        W90612  31.102  27.022   4.644
31077W        W90613   1.400  36.549   0.957
31078W        W90614  31.128  32.557   4.705
31079W        W90615   8.863  22.010   3.286
31080W        W90616  42.968  10.858  13.403
31081W        W90617  27.052   5.414   3.740
31082W        W90618  27.956  21.124  14.758
31083W        W90619   1.782   2.349   0.848
31084W        W90620   1.797  37.397  11.043
31085W        W90621  24.135  10.139  12.976
31086W        W90622   1.740  36.480   3.771
31087W        W90623  30.923  12.642  12.078
31088W        W90624  21.559  23.219  13.354
31089W        W90625  42.372   3.811  13.956
31090W        W90626   7.721  44.980  10.434
31091W        W90627  23.046  18.779   2.664
31092W        W90628  36.939  22.573   2.899
31093W        W90629  15.741   5.385  14.384
31094W        W90630  21.232   9.161   0.276
31095W        W90631  21.512  34.389   2.883
31096W        W90632  35.046   5.775  12.924
31097W        W90633   4.891  19.767  14.416
31098W        W90634  27.944  13.150   4.255
31099W        W90635  17.748  19.213  11.501
31100W        W90636  15.652  35.886   9.945
31101W        W90637  39.515  27.461   0.864
31102W        W90638  31.412  22.124  13.845
31103W        W90639  23.052  34.605   4.171
31104W        W90640   4.746  18.713   0.932
31105W        W90641  10.180  26.645   1.424
31106W        W90642  40.938  43.915   2.900
31107W        W90643  26.011   2.396   3.763
31108W        W90644  27.621  22.648  12.530
31109W        W90645  20.040  25.987   1.922
31110W        W90646  27.038   2.375   2.395
31111W        W90647  37.866  37.469  11.112
31112W        W90648   7.846  12.686   5.211
31113W        W90649  25.030  24.517   4.749
31114W        W90650  42.852   6.390   2.793
31115W        W90651  24.633  35.575  13.418
31116W        W90652  27.020  25.696   0.901
31117W        W90653   6.891  31.134  11.039
31118W        W90654   9.341  11.655   4.277
31119W        W90655  31.583   3.801  10.443
31120W        W90656  26.613  31.043   2.834
31121W        W90657  18.087  37.044  12.402
31122W        W90658  43.864  18.187  14.973
31123W        W90659  43.446   4.815  11.062
31124W        W90660  34.080  25.682   1.844
31125W        W90661  33.910  37.066  10.413
31126W        W90662  29.934  43.844  13.850
31127W        W90663  30.652  26.645   4.313
31128W        W90664  16.737  44.965  13.919
31129W        W90665  22.520   2.737   4.212
31130W        W90666  27.179  23.001  12.455
31131W        W90667  31.602  38.040  14.392
31132W        W90668  44.446  42.866   1.356
31133W        W90669  40.922  16.292  10.496
31134W        W90670   4.204   1.970  11.388
31135W        W90671  12.807   2.234  12.974
31136W        W90672  34.971  12.200   2.857
31137W        W90673  14.664  11.224   1.702
31138W        W90674  30.008  18.114  11.403
31139W        W90675  44.799  26.501   1.426
31140W        W90676   1.307  33.449   3.238
31141W        W90677  20.741   6.282  10.994
31142W        W90678  22.579  24.484   0.899
31143W        W90679   8.324  41.396  14.798
31144W        W90680  35.466  11.196  14.960
31145W        W90681  15.604  12.758  14.377
31146W        W90682   9.346  36.967  12.864
31147W        W90683  41.871   1.949   0.359
31148W        W90684  21.162  10.798   2.342
31149W        W90685  13.817  11.824  14.358
31150W        W90686  11.175  32.471   0.405
31151W        W90687  33.938  41.319   4.614
31152W        W90688  26.175  31.411   2.227
31153W        W90689  34.442  36.892   0.821
31154W        W90690  16.765   5.276   1.395
31155W        W90691  25.008  37.024   4.723
31156W        W90692  40.478  37.447   2.877
31157W        W90693  27.979  23.529  11.067
31158W        W90694  21.129  32.617   4.750
31159W        W90695   1.745  37.546  14.884
31160W        W90696   9.285   8.161   4.204
31161W        W90697   7.683  37.932   3.232
31162W        W90698  15.328  39.992   2.350
31163W        W90699  29.470   4.816   1.847
31164W        W90700  23.617   6.376  12.030
31165W        W90701   1.474   2.918  14.320
31166W        W90702  44.504  14.323   0.373
31167W        W90703  28.118  33.131   3.210
31168W        W90704  12.643  32.390  12.373
31169W        W90705  31.602  37.918   3.210
31170W        W90706  15.258  12.196   0.835
31171W        W90707  23.071   6.874   2.251
31172W        W90708  28.655   3.794   0.368
31173W        W90709   8.739  40.974   1.775
31174W        W90710  14.807  10.637  12.911
31175W        W90711   1.436  23.088   3.287
31176W        W90712  43.866  39.321  13.910
31177W        W90713  31.044   0.374  13.951
31178W        W90714  15.157  12.328  13.947
31179W        W90715  35.511  28.474  13.537
31180W        W90716   0.927  13.732   1.329
31181W        W90717  17.239  44.402  13.032
31182W        W90718  43.511  39.481  11.586
31183W        W90719  23.039  36.431   3.254
31184W        W90720  20.150  26.557  13.525
31185W        W90721  19.270  43.946  13.884
31186W        W90722  25.695  30.951   1.385
31187W        W90723  40.385  27.955  13.438
31188W        W90724  16.272  28.010  13.392
31189W        W90725  40.883  21.581  11.478
31190W        W90726  44.284   2.767   1.374
31191W        W90727   8.683  36.018   2.743
31192W        W90728   3.310   2.366   1.890
31193W        W90729  15.762  16.732   2.884
31194W        W90730   0.341  42.493  13.906
31195W        W90731  10.649   8.898   4.813
31196W        W90732  21.517  17.195  10.509
31197W        W90733   7.896   5.225   1.926
31198W        W90734  40.417  11.711  12.860
31199W        W90735   8.857  15.315  13.484
31200W        W90736  16.721  41.393  11.859
31201W        W90737  33.572  35.937   2.226
31202W        W90738  16.760  32.469  10.428
31203W        W90739   6.905   0.864   4.303
31204W        W90740  10.830  37.998  14.928
31205W        W90741  33.525  34.516   0.874
31206W        W90742  12.854  40.420  13.809
31207W        W90743  20.262   0.356   2.725
31208W        W90744  37.510  34.908   0.401
31209W        W90745  31.967  43.481  12.576
31210W        W90746  21.694  38.555   2.349
31211W        W90747  27.152   5.896   0.787
31212W        W90748  18.151  20.032   1.932
31213W        W90749  22.082  14.266   3.250
31214W        W90750  28.499  40.950  11.127
31215W        W90751  43.834  25.194  11.125
31216W        W90752  40.336  15.275  11.897
31217W        W90753  44.292  29.085  12.514
31218W        W90754  35.441  38.555   0.898
31219W        W90755  14.244   1.745   4.802
31220W        W90756   9.827  38.395   1.266
31221W        W90757   8.232  42.420   0.343
31222W        W90758  41.830   7.227  10.572
31223W        W90759  29.560  20.170   2.777
31224W        W90760  32.578  21.570   1.933
31225W        W90761   8.660   0.764   2.873
31226W        W90762  18.618   0.823  12.469
31227W        W90763  33.881  26.041   5.703
31228W        W90764  25.657  30.984   4.732
31229W        W90765  33.577  37.371  14.502
31230W        W90766  31.111  27.084   5.320
31231W        W90767  39.029  32.441  10.497
31232W        W90768  44.355   5.227   2.321
31233W        W90769  33.053  30.989  11.856
31234W        W90770  11.747  44.461   1.292
31235W        W90771  35.929  20.708   4.723
31236W        W90772  30.431  30.481  11.482
31237W        W90773   6.386  29.568   3.789
31238W        W90774  24.115  27.468  13.521
31239W        W90775  39.907  13.339  14.890
31240W        W90776  19.548  33.969   1.414
31241W        W90777  17.713  35.543   0.875
31242W        W90778  43.861  11.648  14.877
31243W        W90779  31.152  16.175  13.860
31244W        W90780  13.106  30.998   3.310
31245W        W90781  37.480  21.160   4.178
31246W        W90782  17.295  39.424  14.370
31247W        W90783  33.039  23.730   1.773
31248W        W90784   1.790  43.426   4.248
31249W        W90785  26.116  37.833  10.584
31250W        W90786  27.570  41.010   2.302
31251W        W90787  13.835   1.778   1.254
31252W        W90788  20.028   8.890   3.204
31253W        W90789  14.705   7.859   3.353
31254W        W90790  43.908   3.775   3.385
31255W        W90791   8.224  40.973   3.314
31256W        W90792  32.547  28.115   5.250
31257W        W90793  44.278   9.288  14.831
31258W        W90794  38.472   2.319  13.902
31259W        W90795  21.731  27.586  14.459
31260W        W90796  21.118  43.803   3.200
31261W        W90797   9.722  35.382  13.995
31262W        W90798  37.427  44.869   2.681
31263W        W90799  15.802   1.735  14.013
31264W        W90800  33.412  26.172   2.319
31265W        W90801  41.830  10.296   0.467
31266W        W90802  24.974  28.487   1.420
31267W        W90803  24.517  34.964  14.912
31268W        W90804  14.337  41.467  12.509
31269W        W90805  18.197   1.381  10.609
31270W        W90806  43.971  16.738   0.805
31271W        W90807  36.354  41.502  12.447
31272W        W90808  30.452  26.471  12.996
31273W        W90809  18.588  22.160  13.360
31274W        W90810  36.988  24.071   3.851
31275W        W90811  34.507   2.944  10.543
31276W        W90812  10.356   7.255  11.032
31277W        W90813   2.308   8.692   0.817
31278W        W90814  35.577  15.782  12.093
31279W        W90815   7.297  42.986  10.496
31280W        W90816  40.022  30.135   2.281
31281W        W90817  30.645   8.293  14.438
31282W        W90818  38.848   6.752   0.913
31283W        W90819  26.992  11.152  10.921
31284W        W90820   3.926  11.791   0.917
31285W        W90821   9.881  44.808   3.647
31286W        W90822  39.993  28.650  10.533
31287W        W90823  20.683  30.439  10.995
31288W        W90824  24.506  38.822   0.455
31289W        W90825  39.916   2.812  11.544
31290W        W90826  14.767  25.611   3.690
31291W        W90827  33.019  12.116   4.666
31292W        W90828  38.442  10.315  10.042
31293W        W90829  34.040  39.928   3.283
31294W        W90830  12.310  32.394   0.451
31295W        W90831   0.841  34.463  12.447
31296W        W90832  34.028  30.439  13.469
31297W        W90833  37.021  21.204  11.408
31298W        W90834  28.106   8.320  13.422
31299W        W90835  14.773   7.877   9.583
31300W        W90836   1.314  24.671   0.773
31301W        W90837  40.329  31.040   1.211
31302W        W90838  28.678  40.968   0.847
31303W        W90839  42.935  17.218   0.854
31304W        W90840  36.914   6.232  14.026
31305W        W90841  37.947   0.447  14.293
31306W        W90842  12.180  43.844  11.440
31307W        W90843  35.969  22.687   3.306
31308W        W90844  38.331   8.741  12.054
31309W        W90845  44.965  16.629   0.482
31310W        W90846  14.663  41.321  13.374
31311W        W90847  25.480   5.392   0.460
31312W        W90848  37.877  18.677  12.492
31313W        W90849  16.086  30.122   3.236
31314W        W90850   9.676  17.235   3.222
31315W        W90851  36.984  26.030   0.937
31316W        W90852  23.492  42.931   2.752
31317W        W90853  20.579   1.970   0.306
31318W        W90854  43.767  25.660  13.013
31319W        W90855  23.032  42.292   4.340
31320W        W90856  12.191  37.002  11.559
31321W        W90857   6.272  14.208   0.306
31322W        W90858   8.699  18.601  11.960
31323W        W90859   3.757  39.935  12.579
31324W        W90860   6.917  26.025   3.346
31325W        W90861  42.934  41.891  12.901
31326W        W90862  42.473  14.708   2.331
31327W        W90863   7.831  41.883  12.372
31328W        W90864   4.339  27.178   0.265
31329W        W90865  34.039  33.131   3.167
31330W        W90866   9.203  10.798   0.867
31331W        W90867  21.745  15.733  11.387
31332W        W90868   6.372  32.562   4.138
31333W        W90869  27.451  33.444   1.897
31334W        W90870   6.705  30.982  13.545
31335W        W90871  28.006  42.932   0.270
31336W        W90872   3.810   4.828  12.546
31337W        W90873   1.380  14.178  13.893
31338W        W90874  37.873  35.016   2.297
31339W        W90875  37.950  19.562   1.400
31340W        W90876   5.401  32.476  12.348
31341W        W90877   7.390   9.298  13.934
31342W        W90878  30.586  33.905  11.965
31343W        W90879  12.701  39.500   1.439
31344W        W90880   8.898   0.482  14.493
31345W        W90881  10.757  25.065   3.181
31346W        W90882  16.156  15.767  13.312
31347W        W90883  40.934   0.411  10.054
31348W        W90884   5.887  33.408  10.952
31349W        W90885  30.009  42.331   4.640
31350W        W90886  19.707  29.139  14.874
31351W        W90887  14.763  39.055   3.629
31352W        W90888   1.276  41.302  12.912
31353W        W90889  18.285   4.916  12.004
31354W        W90890  33.520  23.585   0.377
31355W        W90891  19.641  12.697  13.913
31356W        W90892   6.233  44.447   1.352
31357W        W90893  27.114  17.265   4.144
31358W        W90894  39.008  18.126  10.511
31359W        W90895   1.368   6.354   4.623
31360W        W90896  25.985   3.271   4.165
31361W        W90897   6.901  17.743  12.470
31362W        W90898  33.584  30.424   4.125
31363W        W90899  39.824  38.051  12.507
31364W        W90900  34.932  11.786  11.472
31365W        W90901  17.741  11.294  11.882
31366W        W90902  29.564  26.176   2.286
31367W        W90903  26.533  15.672   1.408
31368W        W90904  29.584  30.602   4.612
31369W        W90905  24.610   8.707   1.853
31370W        W90906  23.228  22.512   3.266
31371W        W90907  34.914  30.643  11.573
31372W        W90908  19.076   0.933   3.866
31373W        W90909  10.342   9.735  13.834
31374W        W90910  33.468   5.232   4.683
31375W        W90911   3.755  22.657   2.664
31376W        W90912  38.430  34.464  13.939
31377W        W90913  16.720  27.115  10.516
31378W        W90914  25.968  17.199  11.507
31379W        W90915  44.938  41.851  10.611
31380W        W90916  16.585  26.690  14.905
31381W        W90917  43.966   5.435   3.380
31382W        W90918  34.546  21.617  14.498
31383W        W90919  34.112   7.176   4.817
31384W        W90920  33.911  15.708   4.318
31385W        W90921   8.306  26.575   0.753
31386W        W90922   1.821  24.490  14.276
31387W        W90923  21.596  31.540  14.972
31388W        W90924  17.247   9.175  14.295
31389W        W90925   3.436   5.221   1.727
31390W        W90926  10.656  14.654  11.891
31391W        W90927   9.807  16.317   4.622
31392W        W90928  40.459   5.399   0.427
31393W        W90929  42.893   5.929   3.315
31394W        W90930  11.258  21.216   2.856
31395W        W90931  31.099  34.089   3.657
31396W        W90932   0.853  44.794   0.427
31397W        W90933   8.278  30.979   2.372
31398W        W90934  19.208  33.885  13.441
31399W        W90935  22.507   3.722  13.461
31400W        W90936  18.785  39.843   3.696
31401W        W90937  20.648   8.807   0.727
31402W        W90938  12.156   0.836  11.505
31403W        W90939  36.894  16.700  12.917
31404W        W90940  23.007  23.703   1.302
31405W        W90941  36.930  39.524   3.198
31406W        W90942  35.996  36.856   0.828
31407W        W90943  12.785   1.827  10.433
31408W        W90944  33.538   8.370  11.587
31409W        W90945  42.782  19.069   1.215
31410W        W90946   2.881   7.672   4.176
31411W        W90947  42.783  32.073  14.843
31412W        W90948  12.296  21.059   2.858
31413W        W90949  24.204  13.216   3.370
31414W        W90950  32.911   1.340  11.375
31415W        W90951  25.061  11.765  11.525
31416W        W90952  43.794  44.866  13.537
31417W        W90953  33.028   8.328  13.507
31418W        W90954   1.326  39.872  12.546
31419W        W90955   5.894  14.288  11.386
31420W        W90956   3.827   5.301  11.939
31421W        W90957   2.252  35.451   4.717
31422W        W90958   7.755   1.911   3.867
31423W        W90959   7.191  34.385  13.398
31424W        W90960   0.329  28.938   3.344
31425W        W90961  40.918   6.729  12.386
31426W        W90962   1.934   8.377   0.884
31427W        W90963  10.806  15.658   5.268
31428W        W90964  29.584  30.557   1.381
31429W        W90965  26.007   5.771  12.931
31430W        W90966  32.051   8.210   2.383
31431W        W90967  43.862  19.535  11.418
31432W        W90968  18.631  29.939  13.419
31433W        W90969  17.188  41.874   1.777
31434W        W90970  43.369  41.348   2.824
31435W        W90971  38.021   5.402   1.334
31436W        W90972   6.376  35.604  13.964
31437W        W90973   0.376  34.110   4.141
31438W        W90974  16.787  23.660   3.324
31439W        W90975  26.046   1.863  13.453
31440W        W90976   9.788  15.271  12.439
31441W        W90977   9.883  20.548   0.754
31442W        W90978  43.388  15.642   0.735
31443W        W90979   4.798  25.586  14.462
31444W        W90980   3.274   6.338   4.748
31445W        W90981  26.680  33.605  11.970
31446W        W90982  10.159  20.675   1.323
31447W        W90983  26.562  27.614  11.999
31448W        W90984  31.914  16.122  11.420
31449W        W90985  39.496  37.402  12.517
31450W        W90986  44.458  35.448   0.270
31451W        W90987  14.802  10.739   4.293
31452W        W90988  34.513  32.608   4.341
31453W        W90989  17.296  16.804   1.408
31454W        W90990  14.728  29.571  12.572
31455W        W90991   5.738  18.061  11.951
31456W        W90992   4.844  34.558   3.699
31457W        W90993  25.170  33.505  12.421
31458W        W90994   9.360  43.393   2.205
31459W        W90995  22.064  33.875  12.016
31460W        W90996  43.412  23.174   1.701
31461W        W90997   7.735  20.595   0.432
31462W        W90998  13.794  37.991   0.479
31463W        W90999   4.340  26.689  14.350
31464W        W91000   2.806  20.231  11.922
31465W        W91001  30.532  22.241   0.861
31466W        W91002  41.841   7.669   1.417
31467W        W91003  29.158  24.569  11.413
31468W        W91004  35.440   5.250  12.007
31469W        W91005   2.274  16.662  14.794
31470W        W91006  15.586   4.909  13.864
31471W        W91007  23.241  38.556  11.965
31472W        W91008  20.580  26.957  14.859
31473W        W91009  10.757  25.010   1.881
31474W        W91010  25.047   7.373  12.977
31475W        W91011  11.669  22.634   4.661
31476W        W91012  10.693   9.657   1.255
31477W        W91013  39.373  42.281   4.674
31478W        W91014  42.425  44.994  13.520
31479W        W91015  35.989  26.000  12.520
31480W        W91016  19.175   6.910   0.259
31481W        W91017  16.145  26.131  11.483
31482W        W91018  14.691  21.687  13.498
31483W        W91019  17.174   3.824  12.505
31484W        W91020  25.080  41.506  13.816
31485W        W91021   9.192  42.001  10.474
31486W        W91022  13.251  34.415   2.732
31487W        W91023  43.849  27.164  10.946
31488W        W91024  28.593  29.161  12.534
31489W        W91025  26.007  26.166   2.232
31490W        W91026  37.422  28.492  14.013
31491W        W91027  39.493  12.844  13.877
31492W        W91028   0.276  42.330  13.389
31493W        W91029  37.045  20.764   4.119
31494W        W91030  33.455  30.541  11.465
31495W        W91031  15.823   5.284   0.920
31496W        W91032  14.790  14.301   2.195
31497W        W91033  26.081  11.770   4.661
31498W        W91034   4.224  34.042  12.832
31499W        W91035  42.476  31.507   3.780
31500W        W91036   5.896  19.101   1.920
31501W        W91037  13.314  27.631  11.968
31502W        W91038  35.876  22.552  11.986
31503W        W91039  11.852  10.826   2.189
31504W        W91040  39.512  18.113   3.755
31505W        W91041  16.571  13.793   0.924
31506W        W91042   0.359  21.755   3.729
31507W        W91043  26.054   1.306  11.008
31508W        W91044  35.951  32.992   0.353
31509W        W91045  19.138   1.308   2.888
31510W        W91046  32.591  29.980   3.376
31511W        W91047   1.949  41.873   3.864
31512W        W91048  39.471   8.748   3.818
31513W        W91049  13.147   3.230   1.934
31514W        W91050  23.673  31.032   0.363
31515W        W91051   8.397  31.929   4.308
31516W        W91052  16.248  41.948  12.905
31517W        W91053  13.815   6.875   1.395
31518W        W91054  27.650  18.238  11.534
31519W        W91055  31.445  37.963  13.953
31520W        W91056   9.876  19.227  12.473
31521W        W91057  19.105   7.277  10.951
31522W        W91058  42.802  39.345  12.397
31523W        W91059  23.511  26.010   2.390
31524W        W91060  38.528  44.277  11.895
31525W        W91061  19.110  12.628  13.532
31526W        W91062  18.790   4.868   3.763
31527W        W91063  35.042  34.458  12.440
31528W        W91064   5.776   5.933  10.994
31529W        W91065  11.754  23.099   4.349
31530W        W91066   2.955  43.486   4.620
31531W        W91067  29.494   8.240   4.815
31532W        W91068  40.913  17.624   2.830
31533W        W91069  24.510   7.827   1.368
31534W        W91070  23.496  43.468  11.483
31535W        W91071   4.437   7.347   2.725
31536W        W91072   0.784  25.476  13.371
31537W        W91073  41.355  15.298   1.736
31538W        W91074   8.262  12.186   3.732
31539W        W91075   1.797  27.962   3.678
31540W        W91076  44.306  13.213   0.333
31541W        W91077  19.536  42.428   4.163
31542W        W91078   4.348  42.917  13.515
31543W        W91079  44.877  31.624   2.806
31544W        W91080   0.409   5.689  10.593
31545W        W91081  10.344  39.030  12.058
31546W        W91082  19.641  33.879  13.025
31547W        W91083  35.550  31.528  11.532
31548W        W91084   9.348   9.269   0.893
31549W        W91085  36.402  19.584   4.675
31550W        W91086  36.022  29.121   1.234
31551W        W91087  31.482  26.519   0.399
31552W        W91088   1.884  44.008   3.301
31553W        W91089  22.105  11.248  10.631
31554W        W91090  10.844  20.537  14.444
31555W        W91091  42.969  33.383  10.423
31556W        W91092  22.223  23.092   2.862
31557W        W91093  38.884  25.178   2.326
31558W        W91094  43.810  21.148   2.419
31559W        W91095  30.524  11.370   2.761
31560W        W91096  32.567   1.348   0.348
31561W        W91097  18.651   8.719  11.997
31562W        W91098   6.800  17.680   4.250
31563W        W91099  22.104  29.968  12.059
31564W        W91100  24.987  38.532   2.673
31565W        W91101   6.294   1.294  12.578
31566W        W91102   9.829  29.537  10.132
31567W        W91103   5.325  16.256  10.517
31568W        W91104  17.754  31.990  12.862
31569W        W91105  33.947  40.361  13.474
31570W        W91106  12.847  11.339  14.808
31571W        W91107   5.803  36.062  11.923
31572W        W91108   2.243  10.748   9.663
31573W        W91109  37.927  24.006  10.525
31574W        W91110  23.688  42.492   2.304
31575W        W91111   0.956  17.215   3.649
31576W        W91112  28.677  13.254   2.251
31577W        W91113  32.548  42.027   1.927
31578W        W91114  18.121   7.906  13.522
31579W        W91115  35.974  21.689   1.812
31580W        W91116   0.883  27.567  12.506
31581W        W91117  26.645   1.389   0.814
31582W        W91118  21.703  38.466  14.366
31583W        W91119  42.912  18.773   4.130
31584W        W91120  19.646  25.513   3.652
31585W        W91121  32.048  18.072  13.340
31586W        W91122   7.281   4.735   1.895
31587W        W91123  43.782  10.325   0.297
31588W        W91124  42.421   5.247  12.937
31589W        W91125  24.209  15.613   0.776
31590W        W91126  24.575  19.773   1.927
31591W        W91127  26.162  23.563   3.315
31592W        W91128  29.001   2.806  12.429
31593W        W91129  40.521   0.301   0.432
31594W        W91130  41.529   3.755   3.253
31595W        W91131  11.266   9.224   2.366
31596W        W91132  26.522   0.765   0.785
31597W        W91133  24.982  20.045  11.553
31598W        W91134  39.007   1.742   2.898
31599W        W91135  28.644  34.475  14.032
31600W        W91136  29.020  36.090   2.290
31601W        W91137  41.510  25.040  14.472
31602W        W91138   1.308   7.769   0.291
31603W        W91139   7.805  23.628  14.393
31604W        W91140   9.251   6.795   3.828
31605W        W91141  42.947  10.161   1.892
31606W        W91142  13.768   5.206   1.236
31607W        W91143  20.164   1.773   0.812
31608W        W91144  41.340  23.659  14.400
31609W        W91145  29.019   4.234   0.319
31610W        W91146  36.542  32.495   0.959
31611W        W91147  18.279  19.141   1.772
31612W        W91148  12.776   0.965  13.031
31613W        W91149  39.856  16.242  13.484
31614W        W91150  31.943  40.889   0.264
31615W        W91151  22.237  31.107  13.826
31616W        W91152   5.917  15.645   0.287
31617W        W91153  19.757  15.605  14.959
31618W        W91154  39.519  26.581  11.401
31619W        W91155  34.094  25.059   4.759
31620W        W91156  16.576  18.791  11.610
31621W        W91157  22.525  16.567   4.276
31622W        W91158  29.624  20.194  12.042
31623W        W91159   6.757  12.243  10.434
31624W        W91160  37.374  16.639   1.306
31625W        W91161  20.688  36.031  11.492
31626W        W91162  35.915  19.620  14.452
31627W        W91163   5.782  34.420   1.252
31628W        W91164  16.079  12.126   0.886
31629W        W91165  13.771  30.033   0.352
31630W        W91166  27.687  38.882   4.628
31631W        W91167  36.094  38.542  10.574
31632W        W91168  12.355  23.560  14.496
31633W        W91169  26.498   2.462  10.991
31634W        W91170  13.252  17.693   0.252
31635W        W91171  24.687  43.501  10.575
31636W        W91172   3.781  14.658   3.653
31637W        W91173  13.760   1.312   0.303
31638W        W91174  39.016   4.278  14.990
31639W        W91175  16.295  39.546  11.435
31640W        W91176  38.496   7.319  13.906
31641W        W91177  36.954  18.569  13.307
31642W        W91178   6.333  34.913  14.833
31643W        W91179  18.679  16.114   2.894
31644W        W91180  44.440  21.702  13.803
31645W        W91181  38.824  24.119  11.524
31646W        W91182  19.579  43.824   1.310
31647W        W91183  25.102  17.676  14.333
31648W        W91184  13.159   4.794  12.060
31649W        W91185   4.402  41.370   4.733
31650W        W91186   9.842  16.212  10.439
31651W        W91187  16.310  14.828   2.235
31652W        W91188  23.111  20.544   0.373
31653W        W91189  36.872  18.261  10.591
31654W        W91190  14.772  23.034   1.723
31655W        W91191  18.685  37.979   1.291
31656W        W91192  12.180  26.990   5.749
31657W        W91193   2.764   4.881  14.460
31658W        W91194   0.907  30.446  14.501
31659W        W91195   3.444  26.610   0.294
31660W        W91196  31.976  17.793  11.517
31661W        W91197   3.398  32.607  13.511
31662W        W91198  22.198  15.089  13.822
31663W        W91199  28.472  40.321   1.898
31664W        W91200  26.017  23.143   3.864
31665W        W91201  32.023  10.309   0.769
31666W        W91202  39.032  11.172   1.757
31667W        W91203  41.446  33.034   1.319
31668W        W91204  19.720   9.241   0.850
31669W        W91205  32.045  17.574  12.991
31670W        W91206  34.466  23.496   3.645
31671W        W91207  28.606   9.734   2.710
31672W        W91208  22.510  38.997   2.699
31673W        W91209  24.521   2.446   3.714
31674W        W91210  27.997  32.993   1.820
31675W        W91211   4.246  20.596  12.031
31676W        W91212  10.290  15.232  14.457
31677W        W91213  35.412  33.879   4.635
31678W        W91214  29.047  43.479  14.479
31679W        W91215  35.515  33.473  13.951
31680W        W91216   8.312   6.394   1.839
31681W        W91217   7.261  28.938  13.041
31682W        W91218  23.557  34.437  13.883
31683W        W91219  15.580   4.375  10.905
31684W        W91220  34.047  37.356  11.893
31685W        W91221  28.497  44.933  11.923
31686W        W91222  41.447   4.378   3.825
31687W        W91223   3.771  21.539   4.204
31688W        W91224   1.466  13.289  13.976
31689W        W91225  13.194   7.878   2.770
31690W        W91226  22.511  12.331  11.516
31691W        W91227  26.539  15.603  12.416
31692W        W91228   4.413  42.939   3.170
31693W        W91229   7.325  19.083  12.912
31694W        W91230  35.088   9.258  11.607
31695W        W91231  28.441  28.438  13.437
31696W        W91232  32.393   1.778  13.882
31697W        W91233  29.990  39.503  11.875
31698W        W91234  29.510  42.790   0.278
31699W        W91235  21.693  35.041  13.966
31700W        W91236   5.928  31.002   4.819
31701W        W91237   9.341   5.746   1.375
31702W        W91238  11.820   0.361  12.938
31703W        W91239  33.981  40.504   4.777
31704W        W91240   3.719  36.897  14.405
31705W        W91241  26.556  27.975   5.209
31706W        W91242  35.070   9.236  12.975
31707W        W91243   4.399  16.741  13.899
31708W        W91244  26.688   9.183   3.707
31709W        W91245  32.580  13.701  12.478
31710W        W91246  43.809  43.431   0.786
31711W        W91247  41.476  15.329  13.533
31712W        W91248  23.028  23.644  12.092
31713W        W91249   8.203  37.569   1.295
31714W        W91250  34.501  11.787   1.375
31715W        W91251  42.500  32.068   2.806
31716W        W91252  38.067   8.261   3.789
31717W        W91253  22.665  30.535   2.681
31718W        W91254  43.908  43.904  13.444
31719W        W91255  15.718   8.726   1.381
31720W        W91256  29.489  13.771  12.984
31721W        W91257  18.789   8.165  10.481
31722W        W91258  31.500   0.831  13.544
31723W        W91259  37.909  39.349  12.360
31724W        W91260  19.118  26.111  14.855
31725W        W91261  34.889   0.906   1.320
31726W        W91262  43.997  15.177   3.174
31727W        W91263  30.467  22.506  10.562
31728W        W91264  25.623  11.670   1.239
31729W        W91265  30.019   9.282  11.437
31730W        W91266  40.448  12.211  11.517
31731W        W91267  13.258  29.444   3.759
31732W        W91268  42.288  42.851   0.406
31733W        W91269   2.353  30.424  13.997
31734W        W91270  29.102   0.931   3.157
31735W        W91271  43.888   3.843   2.816
31736W        W91272  41.911   4.897  12.419
31737W        W91273  30.651  21.027  13.498
31738W        W91274  21.706  39.931  12.078
31739W        W91275  10.294   3.873   1.744
31740W        W91276  19.259  27.048  12.470
31741W        W91277  44.800  19.092   1.767
31742W        W91278  18.151   5.438  12.350
31743W        W91279   0.488   5.397   2.745
31744W        W91280  26.667  13.681   3.371
31745W        W91281  42.996  28.186   0.902
31746W        W91282  43.494  28.952  14.965
31747W        W91283  33.049  35.068   0.758
31748W        W91284  18.061   9.645   0.858
31749W        W91285   6.761  10.313  12.474
31750W        W91286  15.214  40.525  14.484
31751W        W91287  16.230  36.552  11.558
31752W        W91288  38.887  42.937  11.031
31753W        W91289  21.616  24.222  14.396
31754W        W91290  12.191  42.775   3.331
31755W        W91291  27.059  21.578   4.206
31756W        W91292  19.225  31.989   3.161
31757W        W91293  39.559   0.365  14.973
31758W        W91294  29.601  36.495  14.291
31759W        W91295  27.462  20.180   1.829
31760W        W91296  25.529  24.578   4.602
31761W        W91297  28.980   7.673   2.731
31762W        W91298   9.244   7.296   4.641
31763W        W91299  39.011  24.611  10.093
31764W        W91300  11.845  41.009  12.946
31765W        W91301  32.982  38.000   3.350
31766W        W91302  20.088  23.496  11.556
31767W        W91303  38.989  16.703  10.414
31768W        W91304  15.632  38.355   3.825
31769W        W91305  27.079  26.008   3.832
31770W        W91306   7.833  25.219  14.278
31771W        W91307  13.603  13.242   3.858
31772W        W91308  30.617  39.478  11.086
31773W        W91309  42.455  37.902   0.410
31774W        W91310  38.981  44.801   4.788
31775W        W91311  15.170  28.662  13.998
31776W        W91312  44.359  26.118  11.579
31777W        W91313  42.281  31.468   0.441
31778W        W91314  20.267   0.444   3.870
31779W        W91315   6.363  33.594  12.051
31780W        W91316  41.480  17.094   3.161
31781W        W91317  42.480  20.186   3.215
31782W        W91318  20.622  15.636   1.894
31783W        W91319   3.307  37.391   1.772
31784W        W91320   8.263  20.618  13.509
31785W        W91321  10.773   9.149   2.304
31786W        W91322  42.329  13.809  11.374
31787W        W91323  42.026  32.063  12.066
31788W        W91324  10.217  21.586   0.941
31789W        W91325  23.608  42.291   3.799
31790W        W91326  22.604  44.354   3.802
31791W        W91327  28.152  37.510   4.682
31792W        W91328  10.289  18.073  13.874
31793W        W91329   2.374  38.541  12.387
31794W        W91330  16.617  31.538   0.819
31795W        W91331  30.650   7.249   4.239
31796W        W91332  21.253   6.273  11.996
31797W        W91333  38.335   9.292  13.828
31798W        W91334  32.531  27.105   5.225
31799W        W91335  27.493   3.370   4.612
31800W        W91336  32.514  43.768   1.421
31801W        W91337  41.403  24.053  10.547
31802W        W91338  17.140  34.490  13.029
31803W        W91339  21.656  23.643  12.936
31804W        W91340  11.809  34.094  14.974
31805W        W91341  28.987  41.908  11.410
31806W        W91342   1.758  16.591  13.467
31807W        W91343  19.083  43.934   4.722
31808W        W91344  11.709   9.834  11.608
31809W        W91345   8.821   6.226  12.954
31810W        W91346  11.269  14.797  12.010
31811W        W91347   4.449  11.316  13.361
31812W        W91348  22.690  18.789   5.089
31813W        W91349  41.530  13.259  10.430
31814W        W91350  20.684  21.248  13.428
31815W        W91351  16.636  26.172  12.046
31816W        W91352   9.794  21.595   0.899
31817W        W91353   8.353   7.340   4.123
31818W        W91354  27.489   8.214   0.913
31819W        W91355  43.019  27.035  14.393
31820W        W91356  35.581   7.370   3.182
31821W        W91357  34.076  10.288  12.065
31822W        W91358   2.786  41.371   4.320
31823W        W91359   8.808   8.183   0.327
31824W        W91360  38.900  32.913  12.560
31825W        W91361  31.039  31.530  14.872
31826W        W91362   8.315  38.426  12.931
31827W        W91363   0.445  43.285   3.264
31828W        W91364  32.566   2.240   4.812
31829W        W91365   6.774   7.357  14.432
31830W        W91366   2.236  39.437   2.670
31831W        W91367   3.857  29.632   0.275
31832W        W91368  10.268  17.767  13.398
31833W        W91369   4.287  37.544  11.372
31834W        W91370  34.931   8.211  12.023
31835W        W91371  29.968  20.220  11.567
31836W        W91372  44.857   2.293   2.244
31837W        W91373  12.126  24.625   0.456
31838W        W91374  43.316   6.893   2.378
31839W        W91375  27.025  10.829  13.045
31840W        W91376  39.524   0.788  11.887
31841W        W91377  17.729  13.684   4.138
31842W        W91378  27.671  35.988   0.265
31843W        W91379   6.292  35.446   2.205
31844W        W91380  39.866  10.355  10.519
31845W        W91381  22.702  28.442  11.605
31846W        W91382  24.090  13.334   1.928
31847W        W91383  37.494   2.298   0.940
31848W        W91384  44.274   6.194   4.192
31849W        W91385  36.474  19.067   3.656
31850W        W91386  20.032  32.948   0.339
31851W        W91387   1.952  31.059   3.362
31852W        W91388  22.022  33.950   3.666
31853W        W91389  17.559  42.476  10.464
31854W        W91390  42.830  30.134   1.870
31855W        W91391  25.106  44.852   1.784
31856W        W91392   5.229  32.930  13.473
31857W        W91393  29.920  35.946   0.854
31858W        W91394  23.575  43.886  12.457
31859W        W91395  21.564  29.957   4.171
31860W        W91396  28.644  11.643  13.510
31861W        W91397  26.128  16.720   0.286
31862W        W91398  44.892  10.165  13.910
31863W        W91399  38.952  18.762   2.248
31864W        W91400   3.936  13.694   4.699
31865W        W91401  42.451  17.777   4.688
31866W        W91402  28.611   2.285  14.454
31867W        W91403   2.858   9.384   4.184
31868W        W91404  31.511  13.727  11.989
31869W        W91405  34.490  34.940  13.867
31870W        W91406  14.765  23.165   2.720
31871W        W91407   0.255   2.335   3.776
31872W        W91408  23.613  44.763  14.512
31873W        W91409  10.858  21.141  12.035
31874W        W91410  20.715  18.081  12.890
31875W        W91411  11.735   5.419   4.298
31876W        W91412  39.985  11.801  13.815
31877W        W91413  23.736  19.065   0.787
31878W        W91414  41.838   7.790   4.647
31879W        W91415  13.216  20.706   1.261
31880W        W91416  25.164  22.599  14.921
31881W        W91417  35.460  28.066   4.324
31882W        W91418  26.985   2.786   2.358
31883W        W91419  28.001  39.511   4.271
31884W        W91420  11.288   2.415   3.763
31885W        W91421  23.494  29.611  13.350
31886W        W91422  36.079  18.233  13.320
31887W        W91423  24.082  36.355  12.970
31888W        W91424  14.721   6.182   4.291
31889W        W91425  42.851  35.895   4.234
31890W        W91426  41.452  42.887   1.777
31891W        W91427  11.647   1.298  14.447
31892W        W91428  37.352   2.420  13.025
31893W        W91429  17.188  41.322   4.777
31894W        W91430  14.284  16.602  14.798
31895W        W91431  27.111   7.683   3.360
31896W        W91432  30.611  25.651   3.756
31897W        W91433  32.068  28.573   4.153
31898W        W91434  18.256  26.544   2.236
31899W        W91435  14.679  38.437  13.396
31900W        W91436  38.365  28.938  10.951
31901W        W91437  22.597  16.315   3.702
31902W        W91438   3.232  41.938   3.647
31903W        W91439  30.948  35.476   0.388
31904W        W91440  33.060  24.578  11.867
31905W        W91441   8.754  21.096   4.295
31906W        W91442  36.918  18.134  12.504
31907W        W91443   7.880  26.166  10.090
31908W        W91444   8.178  10.737   0.831
31909W        W91445  35.460  33.927   3.149
31910W        W91446  40.001   6.703   3.672
31911W        W91447   9.392  32.982   4.163
31912W        W91448  21.636   5.765  13.502
31913W        W91449  21.030   1.261  12.529
31914W        W91450  16.191   6.800   3.671
31915W        W91451   6.744  11.295  14.410
31916W        W91452   9.156  29.959  11.902
31917W        W91453  28.608  26.014  14.988
31918W        W91454   6.297  20.531  14.895
31919W        W91455  38.050  13.110   0.475
31920W        W91456  44.403   0.848   2.724
31921W        W91457   1.824  19.189  13.937
31922W        W91458  18.073  39.948  12.933
31923W        W91459  37.517  30.510  12.370
31924W        W91460  20.671  36.502   5.695
31925W        W91461   1.464  39.021  11.955
31926W        W91462   4.740  19.661   1.312
31927W        W91463  22.745  24.174   3.757
31928W        W91464   5.399   3.826   3.731
31929W        W91465  27.073  44.930  11.061
31930W        W91466  36.094   8.236  14.865
31931W        W91467  22.630  37.428  12.459
31932W        W91468  27.092   4.414  12.560
31933W        W91469   8.403   5.703   2.848
31934W        W91470   5.909  39.846   0.385
31935W        W91471  42.914  34.049  13.465
31936W        W91472   9.154   6.743  10.643
31937W        W91473   9.734  33.078  11.578
31938W        W91474  35.590   8.868   4.306
31939W        W91475  26.049  26.696  13.882
31940W        W91476   2.261  13.110  13.448
31941W        W91477  18.244   8.355   2.231
31942W        W91478  14.158  16.108  11.569
31943W        W91479  24.982  25.621  13.519
31944W        W91480   5.264  32.999   3.153
31945W        W91481  42.964   7.279  11.102
31946W        W91482  16.081  37.879   2.791
31947W        W91483  42.793  17.147  13.477
31948W        W91484   2.938  44.261   4.145
31949W        W91485  15.199  42.439   2.209
31950W        W91486  28.510  42.405  13.900
31951W        W91487   8.379  33.112   3.806
31952W        W91488  32.943  19.128   2.673
31953W        W91489  16.072  10.645  10.556
31954W        W91490  42.988  34.502   2.403
31955W        W91491  17.797  41.995   1.410
31956W        W91492  10.688   1.341  12.467
31957W        W91493   6.424  25.145   9.952
31958W        W91494   1.740   3.849   4.778
31959W        W91495   9.248  17.570  11.436
31960W        W91496  10.738  11.851   3.863
31961W        W91497  20.756  36.901  11.884
31962W        W91498   1.311  22.176   4.772
31963W        W91499  27.940  33.081  14.375
31964W        W91500  25.970   9.166   1.774
31965W        W91501   6.377  23.134  13.997
31966W        W91502  31.913  43.436   1.781
31967W        W91503  31.537  12.668  10.623
31968W        W91504  44.280  29.063   1.438
31969W        W91505  34.394  36.445   1.850
31970W        W91506  42.314  13.207  13.826
31971W        W91507   4.733  30.424   9.998
31972W        W91508  28.084  14.660   2.399
31973W        W91509  38.961  11.318   1.375
31974W        W91510  36.581  39.011   3.219
31975W        W91511  11.693  25.618  10.408
31976W        W91512  13.833  10.284  13.948
31977W        W91513  32.125  41.397  14.429
31978W        W91514  23.585   2.412   0.311
31979W        W91515  10.755  14.207   2.694
31980W        W91516  17.235  29.081   3.210
31981W        W91517  11.786   6.416  10.072
31982W        W91518  17.724   9.395   3.661
31983W        W91519  19.679  12.138  10.965
31984W        W91520  12.146  32.430  12.837
31985W        W91521   7.790   0.354  10.497
31986W        W91522   6.685  43.764   0.856
31987W        W91523  28.122  23.022  10.906
31988W        W91524   2.335   4.928   3.255
31989W        W91525   8.780  12.619   4.231
31990W        W91526  14.250  28.619   0.885
31991W        W91527  39.854  38.477   3.345
31992W        W91528  20.711  44.263  14.952
31993W        W91529  39.959  42.994   1.711
31994W        W91530  27.186   8.303  12.951
31995W        W91531   8.760  32.405   4.713
31996W        W91532  27.527  10.332   2.276
31997W        W91533  11.276  34.930  13.415
31998W        W91534   3.888  34.543   1.330
31999W        W91535  35.076  44.396  11.541
32000W        W91536  25.656  23.064   1.776
32001W        W91537  16.219  30.448   3.851
32002W        W91538  17.611  44.392  13.530
32003W        W91539  18.131  11.657  12.859
32004W        W91540  39.317  41.900   3.727
32005W        W91541   4.364  22.502   4.309
32006W        W91542  31.117  13.349  14.294
32007W        W91543   3.897  43.854   3.237
32008W        W91544   6.377  27.013   0.891
32009W        W91545  42.008   2.770   4.304
32010W        W91546  17.204  28.040  11.414
32011W        W91547  15.261   6.886   9.970
32012W        W91548   2.337  40.344  13.014
32013W        W91549  18.640  44.470   5.189
32014W        W91550  12.639  18.081   3.302
32015W        W91551   8.242  43.951  11.497
32016W        W91552  18.768   4.350   4.327
32017W        W91553  40.980  30.461   1.706
32018W        W91554  22.646  25.693  14.021
32019W        W91555  39.061  36.551   4.768
32020W        W91556  21.656  13.670  10.417
32021W        W91557  21.032  42.908  10.887
32022W        W91558  37.993  13.201   4.226
32023W        W91559  12.302  28.010  12.351
32024W        W91560  21.110   1.284  10.558
32025W        W91561  19.637  23.173  11.438
32026W        W91562  18.271   1.855  13.445
32027W        W91563  16.227  41.871   0.836
32028W        W91564  11.208   2.237  14.299
32029W        W91565  16.613   1.919  13.947
32030W        W91566   2.266   4.730  10.444
32031W        W91567  42.348   7.787   2.192
32032W        W91568  14.305  35.415   3.762
32033W        W91569  32.093  35.977   1.916
32034W        W91570  22.540  38.350  11.917
32035W        W91571   2.343   1.281  14.025
32036W        W91572   8.717   1.346  13.050
32037W        W91573  30.123  24.555   0.340
32038W        W91574  31.629   6.328   1.759
32039W        W91575  23.570  34.000  10.638
32040W        W91576  29.577  17.063  11.602
32041W        W91577   3.853  35.445   2.296
32042W        W91578  19.699  13.686   3.177
32043W        W91579  28.517  42.031   3.298
32044W        W91580  30.912  34.953  11.564
32045W        W91581  32.114   2.795  13.915
32046W        W91582  13.208  29.456  12.977
32047W        W91583  20.634  15.314   2.752
32048W        W91584  14.808  33.425  12.546
32049W        W91585  11.327  20.748   3.192
32050W        W91586  34.085  44.916  14.332
32051W        W91587   1.431  37.901  11.102
32052W        W91588  32.897  24.524   3.176
32053W        W91589  44.404  24.485  12.490
32054W        W91590  19.256  19.563   2.673
32055W        W91591  19.140   5.908  14.789
32056W        W91592  43.433   2.442  10.611
32057W        W91593  35.436  17.628   1.896
32058W        W91594   5.915  42.884   3.222
32059W        W91595  38.069  30.164  13.447
32060W        W91596  33.095  25.568   2.717
32061W        W91597  11.733  30.426  13.497
32062W        W91598  26.175  15.631  14.295
32063W        W91599  20.098  37.871   9.491
32064W        W91600  27.532  43.896   4.715
32065W        W91601  32.970  10.329   1.283
32066W        W91602  21.720  16.074  13.390
32067W        W91603  22.181  37.011  14.418
32068W        W91604  30.974  40.945  11.116
32069W        W91605  25.024  10.222   2.306
32070W        W91606  24.507  31.446  13.917
32071W        W91607  35.436  28.574  14.413
32072W        W91608  10.708  19.249   4.268
32073W        W91609  24.548  23.212   3.217
32074W        W91610  28.013   9.321  11.082
32075W        W91611  43.908  16.174   4.172
32076W        W91612  23.489  15.674   1.932
32077W        W91613   6.836  32.519  13.815
32078W        W91614  28.088  16.743  14.903
32079W        W91615  28.554  33.004  10.939
32080W        W91616  30.110  17.104  13.975
32081W        W91617   2.952  33.920   0.450
32082W        W91618  27.976  24.027   5.237
32083W        W91619  12.262  20.126   1.788
32084W        W91620  15.750   1.444  10.568
32085W        W91621  29.030   5.904  12.023
32086W        W91622  14.174  26.046   4.825
32087W        W91623  26.163  34.483  11.055
32088W        W91624  20.113  40.349   2.784
32089W        W91625  26.152  28.993  13.370
32090W        W91626  26.675  36.584  14.340
32091W        W91627   7.808  39.947   0.818
32092W        W91628  29.435   0.272  11.542
32093W        W91629  20.212  24.077  12.025
32094W        W91630   8.691   4.310   1.272
32095W        W91631  32.944  29.498  11.395
32096W        W91632  36.479  10.637   0.247
32097W        W91633  17.677  19.610   2.854
32098W        W91634  29.568  38.393   3.716
32099W        W91635  33.523  28.073   3.702
32100W        W91636  10.350  35.083  14.835
32101W        W91637  30.006  10.683  11.055
32102W        W91638  27.554   9.376   0.312
32103W        W91639  14.704  33.492   4.732
32104W        W91640   3.927  36.490  10.930
32105W        W91641  11.728   9.791  12.427
32106W        W91642  41.518  30.084  11.988
32107W        W91643  21.119  15.209  10.991
32108W        W91644  19.745   8.741   2.214
32109W        W91645  16.651   5.708   3.189
32110W        W91646  13.303   8.172   1.911
32111W        W91647  11.719  22.701   0.273
32112W        W91648  17.209  29.033   2.390
32113W        W91649  17.077  23.641   0.326
32114W        W91650  34.458  25.503  10.090
32115W        W91651  27.658   7.909  12.440
32116W        W91652  31.426  42.949  13.803
32117W        W91653  24.607   8.753  10.561
32118W        W91654  33.510   7.904  14.459
32119W        W91655  41.939  41.434  14.291
32120W        W91656  16.213  20.197  12.421
32121W        W91657  34.458  12.205  10.615
32122W        W91658  39.011  35.036  12.949
32123W        W91659  28.536  12.305  11.414
32124W        W91660  15.582  38.846  10.584
32125W        W91661  43.502  39.062   2.250
32126W        W91662   5.919  26.116  14.944
32127W        W91663  24.035  40.945  12.993
32128W        W91664  23.084  31.438  10.487
32129W        W91665  31.089  42.780  12.870
32130W        W91666   7.239   5.359  14.431
32131W        W91667  18.567  43.779  12.083
32132W        W91668  38.339  11.622  13.503
32133W        W91669  14.630  13.731  11.592
32134W        W91670  44.466  29.511   0.810
32135W        W91671  22.585  10.308  11.480
32136W        W91672   3.363  15.777   4.319
32137W        W91673  33.603   1.448   3.822
32138W        W91674  35.871  32.139  14.441
32139W        W91675  36.947   5.787   1.922
32140W        W91676  27.949   5.357  12.511
32141W        W91677   8.280  26.951  13.799
32142W        W91678  40.808  11.732  13.430
32143W        W91679  15.771  11.728   0.845
32144W        W91680  29.999  18.693   3.373
32145W        W91681  25.682  13.782   4.214
32146W        W91682  37.347  13.767  13.053
32147W        W91683  14.655  42.335   2.262
32148W        W91684  41.406  44.292   3.715
32149W        W91685  44.451   6.397   2.294
32150W        W91686  37.373   5.876   3.384
32151W        W91687   7.779  34.056  12.549
32152W        W91688  15.724  11.629  13.956
32153W        W91689   9.887  27.490   0.742
32154W        W91690  11.664  16.774  11.419
32155W        W91691  37.538  13.295   1.819
32156W        W91692  34.547  25.030  12.972
32157W        W91693  39.514   2.460  14.900
32158W        W91694   9.302  32.439  13.480
32159W        W91695  43.286  24.017   3.736
32160W        W91696  22.222   4.892  13.913
32161W        W91697   7.735  43.897   1.337
32162W        W91698  29.504  38.329  11.458
32163W        W91699  25.101   2.282  14.764
32164W        W91700  27.167  38.946  11.986
32165W        W91701  34.978   1.941  10.043
32166W        W91702  33.382   5.704  14.289
32167W        W91703  32.541  14.778   2.230
32168W        W91704   1.372   0.370   4.798
32169W        W91705  35.428  15.587  12.405
32170W        W91706  19.760   8.679  11.476
32171W        W91707  42.973  32.595   1.268
32172W        W91708  29.639   0.330  14.028
32173W        W91709  26.649  37.923   2.876
32174W        W91710  21.136  14.136  11.466
32175W        W91711   9.288  24.231  12.828
32176W        W91712  24.118  31.523  12.088
32177W        W91713  17.583  37.568  11.031
32178W        W91714  42.918  30.106  12.388
32179W        W91715  37.416  29.527  14.425
32180W        W91716  23.551  23.007  11.035
32181W        W91717  35.065  36.012   5.172
32182W        W91718  43.493  43.343  14.876
32183W        W91719  17.721  25.186   3.280
32184W        W91720  11.638  32.561   4.701
32185W        W91721  41.309  22.087   1.718
32186W        W91722   1.769  17.134  13.828
32187W        W91723   0.294  29.009   2.886
32188W        W91724  22.617  41.481  13.508
32189W        W91725   1.370   0.417  12.492
32190W        W91726  10.750  14.291   5.301
32191W        W91727   8.755  12.284  12.512
32192W        W91728   0.385  28.573  14.824
32193W        W91729  30.469  30.560   4.208
32194W        W91730  39.398  44.426   5.115
32195W        W91731  13.768  31.119   1.851
32196W        W91732  31.554   5.319  13.442
32197W        W91733  44.481  27.447   1.394
32198W        W91734  31.963  14.787   5.164
32199W        W91735  39.961  29.570  11.454
32200W        W91736  32.912  26.002  14.838
32201W        W91737  16.190  20.688  14.823
32202W        W91738   6.734  19.611  14.497
32203W        W91739  11.728  16.742   3.869
32204W        W91740  37.842  39.462  13.393
32205W        W91741   6.852  36.877  11.494
32206W        W91742   6.733   3.752   1.849
32207W        W91743   2.746  34.032  14.972
32208W        W91744   6.203  33.487   3.269
32209W        W91745   3.283  38.938  10.969
32210W        W91746  26.030  32.930  10.461
32211W        W91747  24.676   5.246  13.902
32212W        W91748  11.677  40.017   2.292
32213W        W91749  23.230  31.148  14.863
32214W        W91750  17.068  44.002  10.482
32215W        W91751  43.005  35.435  11.925
32216W        W91752   5.239  34.378  12.027
32217W        W91753   2.787  33.606   4.743
32218W        W91754   1.897  22.030  10.436
32219W        W91755   2.303  36.093   4.777
32220W        W91756   1.373   5.438  10.424
32221W        W91757   1.906  41.423  14.788
32222W        W91758  30.469  29.093   1.721
32223W        W91759  23.215  12.307   2.736
32224W        W91760  23.633  44.334   3.273
32225W        W91761  29.137  24.057   3.805
32226W        W91762   6.411  22.589   4.136
32227W        W91763   1.451  36.468  12.040
32228W        W91764  22.094  18.687   0.314
32229W        W91765  37.428   4.233  14.010
32230W        W91766   5.797  33.098  10.999
32231W        W91767  31.975  22.737  12.004
32232W        W91768   9.236  41.020  14.901
32233W        W91769  31.110  20.214   0.738
32234W        W91770  36.998  10.355  13.796
32235W        W91771  20.544   5.750   5.716
32236W        W91772  15.237  34.496   0.956
32237W        W91773  33.901  29.086   0.854
32238W        W91774  15.698  18.208   0.747
32239W        W91775  42.348  23.038   3.858
32240W        W91776  29.616  37.997   2.331
32241W        W91777  23.532  31.594  10.425
32242W        W91778  35.447  41.382   3.803
32243W        W91779  18.663  26.676   4.690
32244W        W91780  33.457  17.160  13.457
32245W        W91781   1.465  38.994   2.854
32246W        W91782  26.478  20.268   2.663
32247W        W91783  27.505  37.565  11.556
32248W        W91784  44.289   6.818   4.625
32249W        W91785  41.438  21.127   1.779
32250W        W91786  23.026  35.511   4.624
32251W        W91787  18.775  17.745   2.708
32252W        W91788  18.599  42.316   0.825
32253W        W91789   6.754  27.495  10.438
32254W        W91790  39.907  37.868  14.938
32255W        W91791  27.112   1.795   1.330
32256W        W91792  35.883  32.472   0.829
32257W        W91793  40.901   2.304  12.918
32258W        W91794  38.073  38.406   2.346
32259W        W91795  22.653  16.573  14.436
32260W        W91796   9.339  44.389   2.362
32261W        W91797   2.423  44.274   1.408
32262W        W91798  34.561  34.564   2.671
32263W        W91799  12.736  26.201   4.763
32264W        W91800  20.140  12.169   2.196
32265W        W91801  18.611  30.558   2.373
32266W        W91802  42.433   2.263   0.843
32267W        W91803  19.276   0.399  12.036
32268W        W91804  17.224   7.207  13.898
32269W        W91805  13.314  40.841   4.797
32270W        W91806  15.823  33.911  12.429
32271W        W91807   1.887   8.790   3.371
32272W        W91808   6.334  24.548   0.261
32273W        W91809  25.609  31.579  14.505
32274W        W91810   0.953  14.257  10.963
32275W        W91811  17.287  41.448   5.292
32276W        W91812  21.109   4.372   5.566
32277W        W91813  26.990  35.470   2.295
32278W        W91814  32.493  18.659  10.584
32279W        W91815   9.855  42.947  14.357
32280W        W91816  37.855  39.417   2.337
32281W        W91817  40.927  42.836   2.402
32282W        W91818  33.976  43.965  12.096
32283W        W91819  34.988  29.634  10.046
32284W        W91820   0.864   9.345   3.174
32285W        W91821  29.663  39.428  10.434
32286W        W91822   2.392  11.242   3.780
32287W        W91823  41.465  16.805  11.446
32288W        W91824  14.284  43.017  12.012
32289W        W91825  30.922   8.848   4.279
32290W        W91826  25.195  10.775  13.337
32291W        W91827  33.989  13.695   0.758
32292W        W91828   1.848  33.015  11.096
32293W        W91829  23.568  40.398   1.729
32294W        W91830  20.258  15.605   3.313
32295W        W91831  35.530  23.230   2.274
32296W        W91832   0.852  33.611   2.663
32297W        W91833   5.372  18.555   0.459
32298W        W91834  27.121  41.507   1.823
32299W        W91835  13.819   8.182  11.377
32300W        W91836  39.360  44.430  10.639
32301W        W91837   4.430   9.732  13.499
32302W        W91838  14.209  20.253   1.371
32303W        W91839  13.338  32.471   1.230
32304W        W91840  29.951  24.634   4.609
32305W        W91841   2.297  30.935   4.622
32306W        W91842  37.463  44.890  13.926
32307W        W91843  18.250  24.115  13.443
32308W        W91844  41.005  42.959   4.227
32309W        W91845  28.008  15.261  13.960
32310W        W91846  30.993   3.333   2.900
32311W        W91847   9.861  41.297   4.131
32312W        W91848  37.483   6.187   3.291
32313W        W91849   0.978  15.693  10.565
32314W        W91850   6.813   7.262   1.320
32315W        W91851   3.369  33.989   0.939
32316W        W91852   8.387  13.343  10.996
32317W        W91853  28.515   9.776   3.841
32318W        W91854   5.309   4.764  13.342
32319W        W91855   0.366   4.271   0.823
32320W        W91856   5.243  39.034  14.988
32321W        W91857  40.014  32.412  11.124
32322W        W91858  40.514  44.381   5.127
32323W        W91859  14.259  24.172  14.462
32324W        W91860  18.260  44.348  12.875
32325W        W91861  44.765  32.893  14.443
32326W        W91862  19.597  29.003   0.410
32327W        W91863  33.588  32.400  10.499
32328W        W91864   3.745  25.597   9.457
32329W        W91865  23.502   0.474   0.448
32330W        W91866  35.906  31.531   4.765
32331W        W91867   8.220   6.907  11.034
32332W        W91868  19.578   5.407   3.205
32333W        W91869  44.935  33.549   2.795
32334W        W91870  37.862  11.854  12.543
32335W        W91871   6.896  10.236   2.727
32336W        W91872  28.652  19.098  14.010
32337W        W91873  33.882  21.551   0.894
32338W        W91874   2.404  38.938  13.473
32339W        W91875  15.595  21.654   1.860
32340W        W91876  21.200   7.770  12.470
32341W        W91877  32.584  11.272  14.340
32342W        W91878  27.133   9.668  12.489
32343W        W91879  32.107  17.761   2.756
32344W        W91880  40.526  43.436   3.748
32345W        W91881  14.796  28.110   2.815
32346W        W91882  26.169  35.049   4.197
32347W        W91883   9.661  23.023  11.473
32348W        W91884  17.267  29.166  12.092
32349W        W91885  44.268   3.778   0.277
32350W        W91886   2.457   5.330  14.308
32351W        W91887  24.117  29.531  12.356
32352W        W91888  18.231  18.750   0.906
32353W        W91889  14.182  29.027  14.463
32354W        W91890   5.405  21.555  13.322
32355W        W91891   8.807  41.009  11.960
32356W        W91892   0.297  33.876   0.843
32357W        W91893   7.237  36.409  10.640
32358W        W91894  32.466  44.306  11.374
32359W        W91895  31.903   4.394   1.910
32360W        W91896  38.834  43.453   3.791
32361W        W91897  38.944  37.358  11.089
32362W        W91898  36.046  39.408   4.720
32363W        W91899  16.609   8.247  14.840
32364W        W91900  34.542  25.018  14.368
32365W        W91901   2.310  13.147  12.908
32366W        W91902  14.737  18.715   2.252
32367W        W91903  27.092  34.119  11.440
32368W        W91904  14.186  44.466  13.993
32369W        W91905  24.048  27.599   4.669
32370W        W91906   7.287  13.336   0.398
32371W        W91907  44.854  38.569  10.535
32372W        W91908   6.815   0.281  14.977
32373W        W91909  11.848  39.897   3.827
32374W        W91910  43.314  29.612  13.857
32375W        W91911  32.615  11.843  14.432
32376W        W91912  41.826  33.932  11.002
32377W        W91913  13.813  31.517   4.208
32378W        W91914   9.877  12.266   1.749
32379W        W91915  31.606   3.227   9.975
32380W        W91916   1.743  18.648   3.648
32381W        W91917  14.327  32.089   1.379
32382W        W91918  30.508  34.430   1.855
32383W        W91919  38.057   5.281   5.620
32384W        W91920   2.855   4.704   0.738
32385W        W91921   8.377  32.424  12.863
32386W        W91922  43.881  38.075   0.764
32387W        W91923  11.255  26.965  14.312
32388W        W91924  12.700  12.175   3.674
32389W        W91925  40.828  24.115   3.280
32390W        W91926  19.195  12.358   2.308
32391W        W91927  44.398  44.456  11.521
32392W        W91928  32.501   4.807  12.401
32393W        W91929  18.255   7.894   1.424
32394W        W91930  44.446  31.108  14.430
32395W        W91931   3.390  40.416   0.298
32396W        W91932  26.573  36.970  14.766
32397W        W91933  30.535  36.453   2.280
32398W        W91934  26.064   7.416  13.026
32399W        W91935  25.147   7.740   1.335
32400W        W91936  24.176   8.363   0.831
32401W        W91937  21.154  36.926  14.515
32402W        W91938  25.493  13.836   1.828
32403W        W91939  40.805  30.008  12.886
32404W        W91940  12.722  35.489  11.467
32405W        W91941  30.590  26.497   1.355
32406W        W91942  19.261  14.100   0.830
32407W        W91943   0.835  40.378  13.447
32408W        W91944  21.147  40.026  11.520
32409W        W91945   0.932  38.847   2.735
32410W        W91946  42.010  22.684  13.442
32411W        W91947   2.838  44.888   2.356
32412W        W91948  23.677  10.687   0.404
32413W        W91949   1.338   9.183   0.782
32414W        W91950  42.926   8.703  10.567
32415W        W91951  28.993  25.633  14.416
32416W        W91952  29.138  14.114  12.473
32417W        W91953  36.002  44.878   2.764
32418W        W91954  29.643  36.379  10.552
32419W        W91955  30.441  18.761  14.934
32420W        W91956  35.875  17.730  13.978
32421W        W91957  14.186  41.361   2.327
32422W        W91958  10.838  30.954   0.777
32423W        W91959   8.865  31.972   2.304
32424W        W91960  27.013  33.443   1.333
32425W        W91961  19.762  14.186   0.760
32426W        W91962  18.611  34.015   3.351
32427W        W91963   3.421  40.469  13.026
32428W        W91964  14.189  35.881   1.225
32429W        W91965  30.431  31.042  13.925
32430W        W91966  23.516  23.242   3.234
32431W        W91967   8.872   0.449   3.196
32432W        W91968  34.433  17.148   2.353
32433W        W91969  27.589  25.196  12.829
32434W        W91970  44.425   2.766   3.678
32435W        W91971   6.371  21.026  10.552
32436W        W91972   8.843   1.447  11.941
32437W        W91973   8.167  36.080  14.400
32438W        W91974  34.510   5.914   1.865
32439W        W91975  22.028  22.716  13.337
32440W        W91976  25.014  44.894  11.060
32441W        W91977   3.843   3.817  13.916
32442W        W91978  36.976  25.648   0.824
32443W        W91979  24.512  23.215  12.089
32444W        W91980  24.576  16.259  11.972
32445W        W91981  10.654  44.981  12.054
32446W        W91982  43.776  24.516  10.463
32447W        W91983  25.487  18.058   0.852
32448W        W91984   0.416  19.169  12.009
32449W        W91985  10.283   9.714  14.318
32450W        W91986   9.202  30.520  12.468
32451W        W91987  24.564  19.635  13.942
32452W        W91988  41.010  24.679  13.525
32453W        W91989  23.522  12.135  14.770
32454W        W91990   1.783   7.275  14.406
32455W        W91991  37.928  26.007  13.426
32456W        W91992   6.804  17.760   1.376
32457W        W91993  14.731  15.315  10.973
32458W        W91994  39.314  36.954  13.013
32459W        W91995  40.983  28.436   3.250
32460W        W91996   5.266  22.539   2.798
32461W        W91997  38.836  29.104  12.988
32462W        W91998  20.169   0.768   4.122
32463W        W91999  31.919  43.883  11.477
32464W        W92000   1.873   1.343  14.492
32465W        W92001  35.376   1.827   2.857
32466W        W92002   4.744  12.266   4.291
32467W        W92003  10.658  10.329  12.959
32468W        W92004  19.134  32.138   1.269
32469W        W92005  23.191  17.176  11.393
32470W        W92006  32.406  30.489   3.774
32471W        W92007  27.157  40.054  12.443
32472W        W92008  13.787  42.922  13.060
32473W        W92009   4.397  34.448   4.661
32474W        W92010   0.359  11.667   0.829
32475W        W92011  28.481  25.115   0.861
32476W        W92012   8.160  28.015  13.513
32477W        W92013  30.482  11.628  10.622
32478W        W92014   5.829  21.573   2.845
32479W        W92015   3.736  39.475  14.794
32480W        W92016   2.759  17.665   4.336
32481W        W92017  16.777  31.089   1.730
32482W        W92018  21.050  24.077  13.401
32483W        W92019  17.631   8.351  11.012
32484W        W92020  18.272   1.763   3.842
32485W        W92021   0.440  21.742  13.453
32486W        W92022   4.314   5.195  10.503
32487W        W92023  12.788  23.232   4.792
32488W        W92024  36.969  25.160   1.698
32489W        W92025  35.997  13.778   4.603
32490W        W92026  32.498   5.784   1.928
32491W        W92027  20.759  14.176  11.600
32492W        W92028   3.428   2.760  11.492
32493W        W92029   0.835  23.619  13.526
32494W        W92030   3.289  34.033   0.396
32495W        W92031  42.817  28.680   2.394
32496W        W92032   2.287  32.576   3.724
32497W        W92033  44.454  20.199  11.537
32498W        W92034  14.663  44.300  12.379
32499W        W92035  18.700   8.202  13.347
32500W        W92036  20.198   5.724   9.930
32501W        W92037   6.325  34.528   0.735
32502W        W92038   8.373   3.873   3.206
32503W        W92039   7.378  12.758   4.786
32504W        W92040  13.203   2.254   1.888
32505W        W92041  43.912   2.803   0.783
32506W        W92042   4.798  26.641  11.447
32507W        W92043  10.684   3.255  12.578
32508W        W92044  27.062  44.457   0.889
32509W        W92045   7.810  29.646  12.381
32510W        W92046  17.556  27.974  13.351
32511W        W92047  25.141  17.777   5.096
32512W        W92048  23.543   2.252   5.721
32513W        W92049  27.499   0.869   1.446
32514W        W92050   2.366  22.605  12.540
32515W        W92051  30.144  37.440   1.862
32516W        W92052  19.104  44.392  10.458
32517W        W92053   5.850  35.093  13.375
32518W        W92054  38.515  42.295   1.809
32519W        W92055  19.185  31.546  14.307
32520W        W92056   0.290  24.511  11.038
32521W        W92057   7.711  10.706  11.110
32522W        W92058  33.473  34.429   3.806
32523W        W92059   2.749  32.124  12.368
32524W        W92060   1.815  28.618   4.172
32525W        W92061   7.737  33.127   0.374
32526W        W92062  10.213  28.968   3.705
32527W        W92063  13.607   1.449   2.325
32528W        W92064  23.614   9.859   2.796
32529W        W92065  12.342  26.126  11.990
32530W        W92066  19.604  17.799   0.935
32531W        W92067  17.200  18.249  12.907
32532W        W92068  28.666  36.497  14.435
32533W        W92069  39.361  26.607   4.719
32534W        W92070  35.414  19.093   0.729
32535W        W92071   8.894  24.535  11.402
32536W        W92072  41.304  34.406  13.362
32537W        W92073   6.793  12.346   1.395
32538W        W92074   5.255  12.648  12.019
32539W        W92075  41.510  18.064   4.145
32540W        W92076  40.547  11.368  11.504
32541W        W92077   1.364  40.449   2.803
32542W        W92078   0.965  43.810  13.048
32543W        W92079  36.529  12.841  14.007
32544W        W92080   4.367   6.327  12.350
32545W        W92081  41.326  16.691  10.995
32546W        W92082  29.973   5.804  13.484
32547W        W92083  36.879   8.198  13.047
32548W        W92084  42.979  26.013  13.524
32549W        W92085  21.137   8.275  14.486
32550W        W92086  42.321   0.869  12.871
32551W        W92087  28.168  22.149  10.070
32552W        W92088  11.822  28.536  10.969
32553W        W92089   8.351  38.428   1.852
32554W        W92090   5.275  25.550   1.745
32555W        W92091  44.459   6.190  12.528
32556W        W92092  39.916  38.029  14.488
32557W        W92093  29.641  17.668  13.540
32558W        W92094  22.684  28.105  11.389
32559W        W92095  20.724  30.565  12.936
32560W        W92096  19.702  15.688  10.896
32561W        W92097  35.390  41.452  12.514
32562W        W92098   7.877  32.039   3.185
32563W        W92099  13.194  34.866  12.500
32564W        W92100  30.135  29.144   1.399
32565W        W92101  21.713   4.395  12.426
32566W        W92102  39.904   3.410  13.416
32567W        W92103  11.274  32.421   2.779
32568W        W92104  40.389  29.505  12.914
32569W        W92105  43.347  17.083  11.389
32570W        W92106   6.376  44.446  12.422
32571W        W92107   8.322  36.079   4.670
32572W        W92108  26.078  40.804   4.618
32573W        W92109   8.377  31.420   0.736
32574W        W92110  18.597  26.600   1.747
32575W        W92111  12.342   6.271   3.276
32576W        W92112  29.022   0.875  14.772
32577W        W92113  12.358  43.391  12.364
32578W        W92114  29.458  35.883  10.064
32579W        W92115   4.888  24.563  10.567
32580W        W92116  28.449   1.240  12.841
32581W        W92117  37.053  40.440  14.772
32582W        W92118  34.470  33.464  14.867
32583W        W92119  37.508  22.092   2.885
32584W        W92120  29.991  40.980   1.880
32585W        W92121   5.299   0.822   4.627
32586W        W92122   1.418  44.921  11.430
32587W        W92123  28.967   1.359  12.564
32588W        W92124   9.258  36.579   4.742
32589W        W92125  16.768   8.891  12.960
32590W        W92126  15.179   2.327   2.371
32591W        W92127  12.778  14.310   1.790
32592W        W92128   4.863   8.344  13.418
32593W        W92129  12.233  16.176  11.488
32594W        W92130  42.014  32.022   4.147
32595W        W92131  13.120  21.114  13.064
32596W        W92132  20.069  18.623  14.397
32597W        W92133   9.777   6.860   3.661
32598W        W92134  30.936   0.832   3.205
32599W        W92135  42.894  39.901   0.480
32600W        W92136  14.242  13.333  12.576
32601W        W92137  38.331  24.716  13.054
32602W        W92138  14.757  44.967   4.605
32603W        W92139  28.638  22.020   1.324
32604W        W92140  36.487   0.795   2.209
32605W        W92141   6.268  36.091  13.376
32606W        W92142  36.932  22.710  14.477
32607W        W92143  36.091  43.412  11.096
32608W        W92144   2.304  37.434  14.925
32609W        W92145  37.031  35.581  14.308
32610W        W92146  40.952  37.922   3.721
32611W        W92147   9.685   3.792   0.253
32612W        W92148  43.285   5.894   2.204
32613W        W92149  33.005  13.207  11.508
32614W        W92150  20.676   2.272   4.254
32615W        W92151   0.779   4.940  10.547
32616W        W92152  24.975  26.505  12.875
32617W        W92153   2.783   5.396  12.572
32618W        W92154  15.671  19.565  11.988
32619W        W92155  34.493  31.969   3.208
32620W        W92156   5.406  39.841  12.931
32621W        W92157  23.048  23.118  11.521
32622W        W92158  13.843  27.083   3.311
32623W        W92159  39.335  27.655   1.315
32624W        W92160  30.521  34.554   3.218
32625W        W92161  40.882  29.925  12.425
32626W        W92162  34.896  27.147  12.836
32627W        W92163  17.066  17.644  14.884
32628W        W92164  14.294   5.214   2.871
32629W        W92165  16.597   1.474   0.955
32630W        W92166   5.373  21.180  12.950
32631W        W92167  17.256  38.490  13.370
32632W        W92168  26.496  10.199   1.905
32633W        W92169  27.538  38.842  13.516
32634W        W92170   6.852  40.822  14.869
32635W        W92171  35.438  35.567  13.374
32636W        W92172  25.634  44.277   3.813
32637W        W92173  24.157  21.069  11.023
32638W        W92174  36.927   6.742   1.361
32639W        W92175  19.164  23.714  11.864
32640W        W92176  44.272  40.469  12.855
32641W        W92177  39.321  22.709   3.155
32642W        W92178  24.049  23.558   2.379
32643W        W92179  15.669   6.691   1.718
32644W        W92180   4.304  35.369  14.298
32645W        W92181  17.714   0.797   9.924
32646W        W92182  13.161  32.118   3.174
32647W        W92183  19.244  13.137  13.526
32648W        W92184  10.186  33.425  12.462
32649W        W92185  12.644  32.029   2.701
32650W        W92186  24.620  15.716   5.266
32651W        W92187  41.812  28.041  11.017
32652W        W92188   1.901  15.689  13.391
32653W        W92189  29.537   2.232  10.532
32654W        W92190  30.497  24.613  10.587
32655W        W92191  41.530  25.147   0.278
32656W        W92192  30.048  16.191   0.287
32657W        W92193   5.818  21.568  11.904
32658W        W92194  13.779  24.097   1.760
32659W        W92195  34.053  14.767   2.362
32660W        W92196  13.601  16.591   0.360
32661W        W92197  27.131   7.806   2.276
32662W        W92198  15.173  13.311   2.847
32663W        W92199   8.829  34.911  12.976
32664W        W92200  35.925  34.504  14.989
32665W        W92201  13.690   9.245   0.827
32666W        W92202   5.909  17.615   2.264
32667W        W92203  35.454  35.105  12.358
32668W        W92204   3.724  17.634   4.817
32669W        W92205   4.901  18.229  11.090
32670W        W92206  12.737   1.761   0.967
32671W        W92207  31.098  19.113   2.744
32672W        W92208  39.848  35.854   4.806
32673W        W92209  13.741  24.085   3.325
32674W        W92210   3.917  33.125   3.309
32675W        W92211  14.258   1.915  11.603
32676W        W92212   2.827  23.238   4.322
32677W        W92213  28.100  37.353  13.471
32678W        W92214  32.429  20.598   0.394
32679W        W92215  36.527  21.615  14.466
32680W        W92216  41.357   5.877   2.761
32681W        W92217  27.526   6.351   3.333
32682W        W92218  44.940   8.268   3.801
32683W        W92219  21.096  39.870   3.864
32684W        W92220  41.852   9.194  13.924
32685W        W92221   9.693   1.423   3.631
32686W        W92222  29.542  41.915   2.821
32687W        W92223  39.330  38.031  11.026
32688W        W92224  10.847  11.232  14.446
32689W        W92225  20.195  27.510   4.245
32690W        W92226   1.373  42.992   5.221
32691W        W92227  33.579  35.553  10.461
32692W        W92228  33.475  17.275  12.841
32693W        W92229  44.980   0.961  13.405
32694W        W92230   9.714  37.382  10.064
32695W        W92231  31.410  39.919  12.436
32696W        W92232   0.793  30.461  10.450
32697W        W92233   3.332  28.675  12.422
32698W        W92234  22.733  11.190   3.752
32699W        W92235  18.117  22.673  10.982
32700W        W92236  31.481   2.325   0.457
32701W        W92237  42.876   0.938  14.776
32702W        W92238  36.579  10.270  12.415
32703W        W92239  11.716  43.837  12.937
32704W        W92240  36.590   8.820  10.453
32705W        W92241  29.087  19.073  14.500
32706W        W92242  27.468  22.542  13.050
32707W        W92243   6.386   3.292  11.405
32708W        W92244  30.535  44.841  11.894
32709W        W92245  24.686  23.179  12.931
32710W        W92246  19.724  27.050   4.167
32711W        W92247  23.551  10.706   1.327
32712W        W92248  32.115  10.716   2.258
32713W        W92249  37.412  30.124   2.249
32714W        W92250  12.151  13.292   0.858
32715W        W92251   4.784  41.456   4.660
32716W        W92252  23.622  27.014  13.851
32717W        W92253   9.833  27.501   1.385
32718W        W92254  28.589  24.167  13.345
32719W        W92255   1.334  12.748   3.293
32720W        W92256  36.527  17.265  13.803
32721W        W92257  15.098   8.682   0.754
32722W        W92258  33.397   8.804  11.935
32723W        W92259  16.711  43.880  14.792
32724W        W92260  35.106  13.340   4.727
32725W        W92261  44.815  28.134   2.830
32726W        W92262  11.729  26.466   0.471
32727W        W92263   4.367  11.178  12.458
32728W        W92264  16.726  24.117   0.958
32729W        W92265   2.725  20.095  10.940
32730W        W92266  24.624  27.509   1.452
32731W        W92267  39.837  29.930  12.823
32732W        W92268  25.521  41.490  14.441
32733W        W92269  14.787  32.976   0.482
32734W        W92270  42.810  27.539   3.852
32735W        W92271  36.080  14.149   1.215
32736W        W92272  29.160  16.673   0.775
32737W        W92273  21.754  11.182   3.153
32738W        W92274   9.874  40.381   1.890
32739W        W92275  10.204  19.156  13.044
32740W        W92276  23.649  42.359   4.752
32741W        W92277  30.649  30.502   4.781
32742W        W92278  36.492  16.116   1.756
32743W        W92279  16.159   7.392   3.644
32744W        W92280  29.008  21.561   4.791
32745W        W92281  33.532  11.251  14.354
32746W        W92282  13.736  30.936  13.855
32747W        W92283  21.042  37.566   1.784
32748W        W92284  12.843  14.178  10.894
32749W        W92285  42.915   1.959  11.964
32750W        W92286  29.617  42.351  11.555
32751W        W92287  14.159  14.764   0.433
32752W        W92288  12.807  21.037   1.876
32753W        W92289  22.008  17.065   2.796
32754W        W92290  16.573  35.551  11.446
32755W        W92291  38.850  34.913  14.447
32756W        W92292  27.051  15.764   0.837
32757W        W92293  31.016  23.641  13.804
32758W        W92294  26.459   6.793   2.831
32759W        W92295  19.070  16.175  11.959
32760W        W92296   5.222  42.451  10.987
32761W        W92297  13.637   9.226   2.732
32762W        W92298  42.456  28.592   3.222
32763W        W92299   9.708  14.158   1.763
32764W        W92300  29.090  44.974  11.490
32765W        W92301   1.936  34.409  10.469
32766W        W92302   4.424  32.464   3.220
32767W        W92303  26.108  20.091   1.697
32768W        W92304  10.659  19.780  14.981
32769W        W92305  42.990   4.744   0.326
32770W        W92306  12.285   4.280  13.453
32771W        W92307  13.672  14.811   2.790
32772W        W92308  29.937  19.591  11.111
32773W        W92309  33.005  11.838  14.793
32774W        W92310  43.834  30.427  11.610
32775W        W92311  22.137  30.458  14.798
32776W        W92312  30.446  38.394   2.717
32777W        W92313   5.850  25.645   0.407
32778W        W92314  29.988  18.219   0.957
32779W        W92315  34.868  30.935  14.284
32780W        W92316  15.646  44.804   3.648
32781W        W92317  31.051   2.420  14.004
32782W        W92318   4.217   3.829   3.386
32783W        W92319  33.539  12.127   3.717
32784W        W92320  16.783   2.378  11.858
32785W        W92321   9.190   9.873  11.013
32786W        W92322  17.690  37.401  13.367
32787W        W92323  28.974  27.105  12.579
32788W        W92324  41.388   0.911  12.357
32789W        W92325   6.417  33.055  11.423
32790W        W92326  10.858   9.320  12.915
32791W        W92327   4.704  33.962   4.611
32792W        W92328  17.723  28.969   2.381
32793W        W92329  24.587  21.605   4.175
32794W        W92330   2.383  16.636   3.270
32795W        W92331  15.171  12.174   4.622
32796W        W92332  22.090  40.878   4.127
32797W        W92333  42.982  33.989  11.992
32798W        W92334  21.598  33.022   0.270
32799W        W92335  18.059   5.202   1.263
32800W        W92336   4.707  13.133   4.800
32801W        W92337  38.977   2.956   1.352
32802W        W92338  33.080  29.000  10.611
32803W        W92339   6.378   5.748  12.874
32804W        W92340  14.835  24.203  14.295
32805W        W92341  16.709   5.333   1.843
32806W        W92342  37.359  38.839  12.512
32807W        W92343  11.171  43.278   3.678
32808W        W92344  11.653   3.392   2.675
32809W        W92345  31.493  12.767   2.272
32810W        W92346  12.656  18.062  11.929
32811W        W92347   5.699   3.747   0.839
32812W        W92348   3.243  22.510  11.045
32813W        W92349  36.423  10.160   4.282
32814W        W92350  24.615  39.488   5.187
32815W        W92351  20.035   3.416  13.989
32816W        W92352  40.348  24.483   3.771
32817W        W92353  44.286  35.537  14.948
32818W        W92354  30.455  14.108   0.272
32819W        W92355  31.634  13.176   2.757
32820W        W92356  43.356  20.215   4.652
32821W        W92357   1.395  21.105  13.358
32822W        W92358  14.627  24.169   2.184
32823W        W92359  15.324  29.067   4.799
32824W        W92360  16.311  22.577   3.347
32825W        W92361   9.693   1.803  12.387
32826W        W92362  22.094  43.504   2.731
32827W        W92363  38.007  42.810   5.083
32828W        W92364  28.026  36.965  10.543
32829W        W92365  10.643  36.869   2.733
32830W        W92366  10.332  37.536   1.261
32831W        W92367   9.872  21.162   2.328
32832W        W92368  16.687  17.706  13.014
32833W        W92369   1.425   3.932   3.790
32834W        W92370  12.678  31.101  11.017
32835W        W92371  17.691  23.683   3.716
32836W        W92372  18.218  33.979  14.861
32837W        W92373  12.243  25.619  11.984
32838W        W92374   1.243   5.412   2.672
32839W        W92375  14.157   3.866  10.625
32840W        W92376  27.964  13.742   0.826
32841W        W92377   6.866   8.741   4.707
32842W        W92378  20.589  30.944   0.923
32843W        W92379  41.465  18.784  14.438
32844W        W92380  20.268  30.656  14.930
32845W        W92381   7.727   9.865   0.958
32846W        W92382   5.438  11.672   1.221
32847W        W92383  23.734  12.612   2.899
32848W        W92384  36.416   2.372   2.705
32849W        W92385  17.135   6.406   0.960
32850W        W92386  43.314  19.172   0.856
32851W        W92387  21.528  33.414  10.563
32852W        W92388  25.104  44.799  12.525
32853W        W92389  16.311  27.490  12.828
32854W        W92390  17.159   9.778  13.802
32855W        W92391  24.071  11.785  11.590
32856W        W92392  12.340  11.292   2.382
32857W        W92393  26.164  21.668  11.405
32858W        W92394  33.433  16.805  12.922
32859W        W92395  23.707  36.979   5.747
32860W        W92396  38.404  40.420   4.804
32861W        W92397  41.325   8.186   3.351
32862W        W92398   5.832   3.924  10.487
32863W        W92399  13.645  21.050  12.513
32864W        W92400  16.633  32.904   1.747
32865W        W92401  23.184   2.916   1.837
32866W        W92402  20.140   2.292  13.526
32867W        W92403   0.449  33.569  14.411
32868W        W92404  32.982  21.032   4.813
32869W        W92405   6.828  43.285  11.418
32870W        W92406  42.819  26.684   0.318
32871W        W92407  18.733   8.171  12.931
32872W        W92408  36.438  26.045  13.983
32873W        W92409  20.650   6.907   0.308
32874W        W92410   1.955  44.809   1.252
32875W        W92411  30.420  17.695   1.237
32876W        W92412   9.656   4.886   2.701
32877W        W92413  11.326  40.930   2.888
32878W        W92414  22.247   7.365  13.400
32879W        W92415  39.382  39.875  13.437
32880W        W92416  10.305  25.045  14.812
32881W        W92417   7.880  28.940   3.370
32882W        W92418  41.307  12.138  12.516
32883W        W92419  41.996  15.808   3.636
32884W        W92420  33.562  38.843   3.254
32885W        W92421  15.767  30.659  11.447
32886W        W92422  22.599  39.531  13.345
32887W        W92423  24.013  29.926  10.529
32888W        W92424  28.519  24.163  11.063
32889W        W92425  19.123  24.168   1.435
32890W        W92426  32.459  22.009   0.937
32891W        W92427  19.219   2.773   4.128
32892W        W92428  28.964  21.567   1.397
32893W        W92429   7.902  14.213   2.237
32894W        W92430  11.147   1.837   4.287
32895W        W92431  43.324  27.605  14.774
32896W        W92432  41.397  15.776   1.297
32897W        W92433  38.452  28.034  11.928
32898W        W92434  12.716  16.783   0.818
32899W        W92435  29.128  29.013   4.210
32900W        W92436   1.791  24.628   2.327
32901W        W92437  44.815   7.845  11.555
32902W        W92438  25.670   0.443  14.397
32903W        W92439  18.673   9.690  12.831
32904W        W92440  43.020  30.003  11.915
32905W        W92441  24.064  10.803   1.789
32906W        W92442  14.242   7.859   4.718
32907W        W92443  27.628  18.207   1.399
32908W        W92444  39.431  21.645  10.902
32909W        W92445  20.667  38.549  12.568
32910W        W92446  34.512  21.707  12.539
32911W        W92447   8.350  24.204   1.755
32912W        W92448  37.577  40.028   0.270
32913W        W92449  43.017  30.540   0.461
32914W        W92450  25.135  16.608   5.653
32915W        W92451  43.486   6.329  11.612
32916W        W92452  32.996  12.128   0.899
32917W        W92453  24.187   2.446  10.589
32918W        W92454  39.498  11.744   0.793
32919W        W92455  11.673  28.157  13.317
32920W        W92456  12.612  29.992   3.693
32921W        W92457  38.829  14.671   2.860
32922W        W92458  29.615   5.852  10.588
32923W        W92459  13.706   6.286   3.843
32924W        W92460  31.458  43.394   0.953
32925W        W92461  12.674  27.688  14.460
32926W        W92462  27.038  30.151   4.153
32927W        W92463  40.356   8.674  12.032
32928W        W92464   2.232  32.104  12.082
32929W        W92465  18.075  21.143  13.861
32930W        W92466  43.887  19.556  13.951
32931W        W92467  43.392  43.512   4.658
32932W        W92468  13.220  26.066  13.353
32933W        W92469  29.518  42.481  14.993
32934W        W92470   3.799   7.766   1.282
32935W        W92471  14.657   2.269   4.276
32936W        W92472  38.371  17.128  11.400
32937W        W92473  17.645  32.480   2.759
32938W        W92474   9.280  29.058   2.686
32939W        W92475  34.480  22.231  12.883
32940W        W92476  35.998  20.244   3.145
32941W        W92477   4.303  39.924  12.883
32942W        W92478   8.240  42.944   4.274
32943W        W92479  25.988  12.205  12.420
32944W        W92480  19.623   8.211   2.699
32945W        W92481   3.812   2.351   3.633
32946W        W92482  29.478  32.961   1.851
32947W        W92483  41.902  10.344   0.857
32948W        W92484   4.446  23.185   3.149
32949W        W92485  24.185   3.393   3.760
32950W        W92486  20.542  23.029   4.208
32951W        W92487  38.434  21.033  10.498
32952W        W92488  28.094  17.584   9.516
32953W        W92489   5.397   6.378   3.643
32954W        W92490  38.042  14.176   2.688
32955W        W92491  41.875  22.573   3.710
32956W        W92492  32.617  15.707   0.316
32957W        W92493  44.326  44.938  10.436
32958W        W92494   2.931  38.996  11.975
32959W        W92495   9.700  28.484  10.047
32960W        W92496  29.513  42.373  10.980
32961W        W92497  30.002   5.418  13.051
32962W        W92498   6.703  27.079  13.923
32963W        W92499  18.692  23.689   1.268
32964W        W92500  24.004   7.174  10.116
32965W        W92501  34.387  25.645   1.931
32966W        W92502   6.852  26.171  13.315
32967W        W92503  43.815  24.601   1.382
32968W        W92504  24.524   4.259   0.279
32969W        W92505  40.977   8.720  11.455
32970W        W92506  32.585  12.818   0.360
32971W        W92507  44.944  24.574  14.838
32972W        W92508  44.765  29.586  10.410
32973W        W92509   1.319  33.454  10.573
32974W        W92510   7.374  30.514  12.976
32975W        W92511  35.971  37.418   4.116
32976W        W92512  36.593   4.896  13.844
32977W        W92513  44.847  15.282   4.165
32978W        W92514  31.530  38.987   0.279
32979W        W92515  25.514  18.255  14.029
32980W        W92516  23.135  15.599  14.386
32981W        W92517  25.159  44.755   2.418
32982W        W92518  30.067  39.440  13.900
32983W        W92519   1.819  18.280   3.227
32984W        W92520  31.984  22.700   0.863
32985W        W92521  41.823  42.465   4.218
32986W        W92522  26.681   7.855  13.969
32987W        W92523   5.841   0.802   0.378
32988W        W92524  21.085  35.431  10.474
32989W        W92525  29.532  34.063   0.950
32990W        W92526   2.381  22.209   2.838
32991W        W92527  37.947  26.567   2.715
32992W        W92528  40.308  15.158   1.918
32993W        W92529   5.231  44.368  13.447
32994W        W92530   9.845  41.368   1.350
32995W        W92531  19.225  14.140   1.315
32996W        W92532  25.096   1.312  14.433
32997W        W92533  21.700   6.273   1.238
32998W        W92534  41.501  33.472  13.522
32999W        W92535   2.279  17.273   0.332
33000W        W92536  14.799  37.013   2.680
33001W        W92537  23.070  43.943   0.381
33002W        W92538  25.630  42.033   0.474
33003W        W92539  33.494  33.595   0.744
33004W        W92540  22.613  40.489   3.225
33005W        W92541  41.865  26.011   2.680
33006W        W92542   4.283  15.821   5.177
33007W        W92543  11.268  10.365  12.921
33008W        W92544  27.153   4.429   9.568
33009W        W92545  22.066  33.597   9.495
33010W        W92546  21.745  17.239   1.794
33011W        W92547  13.684  23.166   2.770
33012W        W92548  25.988  44.415   3.256
33013W        W92549  41.443   4.821  13.824
33014W        W92550  33.926  39.504  14.869
33015W        W92551  12.656  11.644   4.805
33016W        W92552  30.059  42.917  13.989
33017W        W92553  43.853  44.847   4.699
33018W        W92554  23.233  21.079   2.901
33019W        W92555  20.705  25.521   4.767
33020W        W92556  28.608   9.756  13.445
33021W        W92557  24.163  16.297   0.245
33022W        W92558  43.312  21.527  11.038
33023W        W92559  24.528  41.836  13.328
33024W        W92560  30.017  36.572  11.110
33025W        W92561   9.166  13.618   3.186
33026W        W92562  22.253  41.850  12.840
33027W        W92563  36.439  43.303   3.843
33028W        W92564   8.834  43.778   3.657
33029W        W92565  38.935  13.307  11.028
33030W        W92566  29.980  37.851   4.653
33031W        W92567   1.946   1.827  13.822
33032W        W92568  32.483  13.330  11.055
33033W        W92569   7.801  30.563   0.414
33034W        W92570  24.609  19.196   2.237
33035W        W92571  29.999  12.284  13.052
33036W        W92572  14.825  33.887   0.886
33037W        W92573  38.567  30.096  14.314
33038W        W92574   6.255  27.147   3.791
33039W        W92575  40.981  14.664   2.235
33040W        W92576   3.790  41.362  12.479
33041W        W92577   2.428  22.688  11.933
33042W        W92578  21.149   6.827  14.975
33043W        W92579  15.277  32.602   0.293
33044W        W92580  43.446  25.986   3.684
33045W        W92581   4.731  34.907   0.397
33046W        W92582  19.063  37.973   2.326
33047W        W92583  32.973  43.274  11.435
33048W        W92584  31.920  13.202   4.639
33049W        W92585  18.154  30.492  12.542
33050W        W92586  44.827  40.811   4.668
33051W        W92587  44.447   3.773  13.958
33052W        W92588  24.587  33.542  12.975
33053W        W92589  10.643  14.640  10.548
33054W        W92590  22.624   2.725   3.216
33055W        W92591  43.818  32.619   0.872
33056W        W92592  11.800   7.211   0.443
33057W        W92593  24.225  26.654   2.271
33058W        W92594   2.465   6.911   1.232
33059W        W92595  27.963  42.986   1.724
33060W        W92596  39.025   1.836   1.772
33061W        W92597  29.146  39.381   0.329
33062W        W92598  30.497  37.073  13.838
33063W        W92599  37.014  40.053   3.190
33064W        W92600  31.062  19.655   5.287
33065W        W92601  32.018   8.238  13.536
33066W        W92602   5.409  35.518  12.432
33067W        W92603  39.408  12.255   0.426
33068W        W92604  24.510  10.349   0.889
33069W        W92605  25.083   7.397   0.438
33070W        W92606  11.787  17.600   4.129
33071W        W92607  30.977  35.967  11.580
33072W        W92608  27.627   7.197   1.357
33073W        W92609  18.115  23.640   0.949
33074W        W92610  15.243  33.586   2.857
33075W        W92611  21.543  41.972   1.397
33076W        W92612  30.927   4.294  10.605
33077W        W92613  35.586   4.894  11.963
33078W        W92614  21.174  26.698   3.703
33079W        W92615   9.343  31.122  11.073
33080W        W92616  34.379  40.979   0.447
33081W        W92617  21.227  11.664  12.487
33082W        W92618  13.770  20.556  10.482
33083W        W92619   1.914  33.968   3.786
33084W        W92620  32.086  22.536  13.514
33085W        W92621   4.812  21.212   1.405
33086W        W92622  42.902   3.251   1.317
33087W        W92623  41.042  22.539  10.913
33088W        W92624   9.679   3.280  12.424
33089W        W92625   8.282  25.577  13.045
33090W        W92626  30.956   8.889  11.475
33091W        W92627  17.592  31.552  13.309
33092W        W92628  20.653  20.596  10.910
33093W        W92629  21.117  39.493   5.130
33094W        W92630  28.635  43.336  13.995
33095W        W92631  26.020  28.093   1.370
33096W        W92632  34.443  35.936  14.410
33097W        W92633  18.676  32.562   1.741
33098W        W92634  13.665  42.007   4.728
33099W        W92635  24.030  33.394  11.887
33100W        W92636   0.746  33.967   0.760
33101W        W92637  13.649  33.490   3.666
33102W        W92638  37.901  21.043  13.543
33103W        W92639  30.997  39.880  11.605
33104W        W92640   8.704  17.777   3.856
33105W        W92641   2.887  41.495   3.687
33106W        W92642  36.096   9.183   4.164
33107W        W92643   9.666  39.038  10.477
33108W        W92644   6.269   7.325  13.893
33109W        W92645  30.601  17.208  13.429
33110W        W92646   6.793  21.716  12.015
33111W        W92647   1.765  13.287  10.525
33112W        W92648  43.909  35.985   2.852
33113W        W92649  20.213  43.511   4.828
33114W        W92650   4.220  30.080  14.786
33115W        W92651  23.112  41.369  12.539
33116W        W92652  38.442  25.145  14.370
33117W        W92653  27.060  29.071   3.669
33118W        W92654  12.305   4.741   1.707
33119W        W92655  35.390   3.386   3.853
33120W        W92656  30.641  11.307  14.510
33121W        W92657   9.795  23.103   4.309
33122W        W92658  26.951  38.886   2.679
33123W        W92659  40.032  13.765   0.448
33124W        W92660  14.661  16.699   1.787
33125W        W92661  11.139  20.244  13.375
33126W        W92662  13.610  13.678   1.233
33127W        W92663  13.236   5.822  11.868
33128W        W92664  25.709  20.716   5.089
33129W        W92665  16.149  23.208   1.434
33130W        W92666  27.040  26.028  11.389
33131W        W92667  35.041  18.695  11.123
33132W        W92668  42.304  41.419  13.400
33133W        W92669  36.543   3.300  11.571
33134W        W92670  41.344  24.144   2.402
33135W        W92671   7.690  14.244   0.857
33136W        W92672  43.813   9.258  10.578
33137W        W92673  27.101  16.620  10.982
33138W        W92674  38.483  19.554  13.356
33139W        W92675  20.037  26.464   3.673
33140W        W92676   0.786  33.947  14.467
33141W        W92677  27.538   4.802  10.636
33142W        W92678   8.833   1.959   1.726
33143W        W92679  14.266  13.834   4.189
33144W        W92680  32.074  43.959  10.594
33145W        W92681  31.030  37.448   2.870
33146W        W92682  29.541  21.577   3.681
33147W        W92683  24.480  18.248  13.375
33148W        W92684   9.788  18.159  10.540
33149W        W92685  33.549  33.079  11.586
33150W        W92686  42.416  38.845  11.922
33151W        W92687  30.658  20.670   4.826
33152W        W92688  38.465   7.246  12.969
33153W        W92689  20.170   7.811  13.946
33154W        W92690  44.395  44.456  14.870
33155W        W92691  40.005   9.270   0.964
33156W        W92692  36.445  12.276  10.985
33157W        W92693   0.823  37.876  14.472
33158W        W92694  13.181   0.921  11.566
33159W        W92695  41.023  32.975  14.507
33160W        W92696  29.435  20.093   3.344
33161W        W92697  30.508   3.403  12.080
33162W        W92698  28.463  41.388  10.409
33163W        W92699   7.854  21.227   4.738
33164W        W92700  40.309  30.576  11.379
33165W        W92701  35.602  41.462  14.336
33166W        W92702  21.099   9.649   3.360
33167W        W92703   3.405  14.719  14.935
33168W        W92704   0.813  44.863   4.634
33169W        W92705  11.232  34.458   4.318
33170W        W92706  27.073  36.898   2.180
33171W        W92707  23.544  14.795  11.874
33172W        W92708  12.140   5.265   2.709
33173W        W92709   4.746  37.840  12.467
33174W        W92710   8.247   4.853  10.642
33175W        W92711   7.297  16.754   4.818
33176W        W92712  11.651  43.293   3.374
33177W        W92713   4.214   5.758  12.825
33178W        W92714  32.945  19.117   3.313
33179W        W92715  10.323   0.808   0.910
33180W        W92716  14.314  31.103   4.692
33181W        W92717  11.279  28.002   1.914
33182W        W92718  31.474  19.233   0.450
33183W        W92719   4.707  36.037   2.255
33184W        W92720  40.309  36.375   0.330
33185W        W92721   8.373  29.929  11.943
33186W        W92722  22.006   0.807  12.411
33187W        W92723  37.366  29.605  12.952
33188W        W92724  27.158  40.870  13.509
33189W        W92725  38.447  41.295   3.661
33190W        W92726  10.682  34.877   0.742
33191W        W92727   0.286  11.299   0.732
33192W        W92728   9.677  35.591  10.574
33193W        W92729  42.908   3.319  10.562
33194W        W92730  43.982  25.712   0.921
33195W        W92731   7.677  39.887   4.695
33196W        W92732  42.778  19.053  11.597
33197W        W92733  11.200   5.287  12.508
33198W        W92734   4.834  10.268   0.316
33199W        W92735   0.829  21.238  12.514
33200W        W92736   0.276  15.197  13.062
33201W        W92737  24.181   4.822   1.886
33202W        W92738  22.222  28.457   0.790
33203W        W92739  25.559  11.364   3.717
33204W        W92740  30.067  12.679   3.354
33205W        W92741  44.844  36.032  13.370
33206W        W92742   0.778  30.608   0.790
33207W        W92743  24.174  32.052  10.893
33208W        W92744  37.980  20.591  12.057
33209W        W92745  32.960  20.045   1.776
33210W        W92746   0.758  41.503   2.903
33211W        W92747  12.302  30.447   2.771
33212W        W92748  42.444  42.430   2.887
33213W        W92749  20.093  39.544   2.182
33214W        W92750  41.477   6.385  12.447
33215W        W92751  13.717  26.658  14.394
33216W        W92752   2.795   4.764   4.132
33217W        W92753  14.620  20.097  12.374
33218W        W92754  36.551  27.517   1.870
33219W        W92755  29.563   1.897   0.944
33220W        W92756  41.413   6.265  14.020
33221W        W92757  37.431  35.503   1.754
33222W        W92758   7.736  40.053   3.807
33223W        W92759   3.865  42.420  14.288
33224W        W92760   5.385  16.267   2.256
33225W        W92761  11.641   0.967   3.251
33226W        W92762  27.195   3.789   1.822
33227W        W92763   7.708  10.282   5.259
33228W        W92764  26.018  38.550   1.349
33229W        W92765  44.436  15.677   4.215
33230W        W92766  12.213  11.284   1.333
33231W        W92767  15.193   5.746  13.467
33232W        W92768  29.623   1.352  13.909
33233W        W92769   0.923   6.409  14.999
33234W        W92770  20.228  35.404  10.118
33235W        W92771   3.432  42.026  12.466
33236W        W92772  37.422  29.460   1.822
33237W        W92773  40.847  26.156  14.779
33238W        W92774  35.988  25.188   0.753
33239W        W92775   9.798  35.063   1.379
33240W        W92776  23.519   1.751   4.253
33241W        W92777   0.428  43.506  13.498
33242W        W92778  10.363  15.150  11.123
33243W        W92779  21.738  30.617   4.289
33244W        W92780  24.099   7.315   5.314
33245W        W92781  17.606  20.053  14.490
33246W        W92782   9.775  18.236   3.185
33247W        W92783  29.491  16.653  12.536
33248W        W92784  30.060   5.819   0.760
33249W        W92785  34.379  23.580   2.275
33250W        W92786  39.889  19.755   4.324
33251W        W92787  27.973  41.873  13.311
33252W        W92788  18.285  33.043  14.444
33253W        W92789  39.362  13.727  13.934
33254W        W92790  22.129  31.096  13.446
33255W        W92791  10.801   6.832  12.055
33256W        W92792  39.559  22.011  11.971
33257W        W92793  16.113  18.734   2.869
33258W        W92794  26.630  37.946   4.182
33259W        W92795  43.450   3.284  12.455
33260W        W92796   5.923  41.925  13.830
33261W        W92797  18.586  12.174  12.354
33262W        W92798  21.159  35.105  11.550
33263W        W92799  32.536  31.120  12.884
33264W        W92800  32.444   1.881   4.653
33265W        W92801  30.064   2.847  11.016
33266W        W92802   6.805  40.815  14.393
33267W        W92803  28.982  23.615   4.294
33268W        W92804  13.175  23.148  12.885
33269W        W92805   4.332  21.655  10.437
33270W        W92806  40.540  18.271   3.646
33271W        W92807  23.996  40.881   0.376
33272W        W92808  36.051  36.893  11.602
33273W        W92809  15.707  30.053   0.924
33274W        W92810  13.698   7.712   3.338
33275W        W92811  26.186  40.920   4.173
33276W        W92812  17.162  38.506  11.985
33277W        W92813  38.036   5.201  14.875
33278W        W92814  34.892   7.864  11.892
33279W        W92815  26.151  29.553  11.543
33280W        W92816  23.201   8.293  11.449
33281W        W92817   8.794  39.977   1.255
33282W        W92818  12.316  38.557  13.455
33283W        W92819   8.779  41.991  12.011
33284W        W92820  29.156  13.259  13.987
33285W        W92821  19.280  33.021  10.974
33286W        W92822  30.569  29.017  12.977
33287W        W92823  14.229  15.678  12.044
33288W        W92824  35.462  33.609  11.864
33289W        W92825   6.319  11.868   1.929
33290W        W92826   0.943  40.329   2.688
33291W        W92827   6.374   6.416   3.202
33292W        W92828  32.937  14.716  14.901
33293W        W92829  33.957   7.788   3.818
33294W        W92830  38.924  10.768   3.290
33295W        W92831  18.645  19.284  12.914
33296W        W92832  13.190   4.418  13.884
33297W        W92833  37.023  12.804  11.475
33298W        W92834  37.003  11.274  13.327
33299W        W92835  31.050  40.346   3.370
33300W        W92836  35.877  44.497  12.436
33301W        W92837  17.087  12.827  12.580
33302W        W92838   8.333  39.854   4.813
33303W        W92839  33.482  42.831   1.395
33304W        W92840  44.912  25.982   2.353
33305W        W92841   2.938  10.724   0.380
33306W        W92842   8.167  31.152  14.388
33307W        W92843  28.641  13.226  11.955
33308W        W92844  22.677  21.175  13.898
33309W        W92845   4.386  14.621   2.403
33310W        W92846  20.116  37.375  10.457
33311W        W92847  12.784   3.245   0.935
33312W        W92848  11.170   7.248   4.148
33313W        W92849  34.484  30.612   4.621
33314W        W92850  24.484  43.383  12.950
33315W        W92851  31.140  14.119  10.144
33316W        W92852   9.796   1.292  11.588
33317W        W92853   5.302  21.554   1.259
33318W        W92854  41.978  18.576   3.641
33319W        W92855  35.047   1.281   1.211
33320W        W92856  17.791  30.590  14.475
33321W        W92857  23.206   8.185  14.791
33322W        W92858  12.208  40.324   1.793
33323W        W92859   4.885  37.377   3.756
33324W        W92860  41.948  16.089   1.807
33325W        W92861  33.549   9.860   4.332
33326W        W92862  40.030   9.250   4.278
33327W        W92863  35.003  40.381  10.599
33328W        W92864  21.748  44.291   1.795
33329W        W92865   0.450  19.685  14.389
33330W        W92866  33.985  13.745  12.443
33331W        W92867  17.251   0.481   3.682
33332W        W92868  23.093   7.753  10.970
33333W        W92869  28.475  17.593  14.928
33334W        W92870  38.362  36.562  13.521
33335W        W92871   4.240  12.795   3.741
33336W        W92872  28.621  10.792  11.951
33337W        W92873  26.643   7.396  10.151
33338W        W92874  32.432  40.460  14.385
33339W        W92875  20.174  43.359  12.455
33340W        W92876   0.873  44.434   1.928
33341W        W92877  19.146  34.432   4.315
33342W        W92878   9.766  43.426  14.015
33343W        W92879   5.879  29.572   3.322
33344W        W92880  32.391  42.887   4.769
33345W        W92881   4.234  30.054   0.263
33346W        W92882  38.854  11.236  12.492
33347W        W92883  32.983  22.097   3.697
33348W        W92884  12.635  39.491  14.373
33349W        W92885  15.185  19.609   5.745
33350W        W92886   1.939  28.067   4.626
33351W        W92887  35.109   2.370   2.765
33352W        W92888   6.893  44.794  10.978
33353W        W92889  11.183  23.640  13.051
33354W        W92890  27.080   8.863  10.480
33355W        W92891  41.438   3.388  12.449
33356W        W92892  38.031  39.954   1.273
33357W        W92893  23.562   3.733   3.788
33358W        W92894  31.927  21.194  10.133
33359W        W92895  44.455  21.753   1.365
33360W        W92896  25.214  43.955  14.470
33361W        W92897  40.051  12.654   4.621
33362W        W92898  38.387  19.143   1.349
33363W        W92899   5.929  39.982  10.963
33364W        W92900  15.136   5.866   0.875
33365W        W92901  36.953   7.891   1.731
33366W        W92902   0.854   4.278  14.008
33367W        W92903  16.236  21.654   1.427
33368W        W92904  34.968  29.131   0.265
33369W        W92905  25.020  37.543  12.925
33370W        W92906  19.147  24.034  14.898
33371W        W92907  27.133  19.759   2.685
33372W        W92908  10.792   1.775   2.234
33373W        W92909   1.795  13.173   3.780
33374W        W92910   3.723  31.151   0.788
33375W        W92911   9.173  15.584  11.909
33376W        W92912  36.417   1.860   1.318
33377W        W92913  44.346  21.196  11.002
33378W        W92914  23.642  30.997   4.724
33379W        W92915   1.773  34.498  12.015
33380W        W92916  38.523  42.840  11.460
33381W        W92917  21.171  10.279  14.494
33382W        W92918  11.761  11.199  10.903
33383W        W92919   3.849  24.079   3.285
33384W        W92920  25.092  11.142   2.208
33385W        W92921  38.889   4.906  11.587
33386W        W92922  20.545  28.069   1.696
33387W        W92923  19.743  10.247  10.574
33388W        W92924  17.069  10.636  13.910
33389W        W92925  42.314  34.896  12.868
33390W        W92926   4.261  39.919   2.187
33391W        W92927  30.967   7.812   0.886
33392W        W92928  37.482  17.586  11.593
33393W        W92929  42.437   8.882   3.769
33394W        W92930  34.022  30.125   1.711
33395W        W92931   9.394   5.238  10.936
33396W        W92932   8.190   6.766  14.415
33397W        W92933  27.195  36.935   3.665
33398W        W92934  40.422   2.401  12.559
33399W        W92935  17.584  31.531   4.729
33400W        W92936  13.128  35.367  13.819
33401W        W92937   5.904  16.082  10.452
33402W        W92938   5.360  36.402  12.827
33403W        W92939   3.391   4.720   2.392
33404W        W92940   5.375  26.467   1.354
33405W        W92941  40.468  20.522  14.955
33406W        W92942  39.033  35.545  14.474
33407W        W92943   9.786  11.204   0.335
33408W        W92944   9.741  35.003  11.397
33409W        W92945   8.744  20.268  11.074
33410W        W92946  40.889  39.466  11.496
33411W        W92947  19.763  22.581  14.882
33412W        W92948   5.890  14.139  11.960
33413W        W92949  27.456   6.301  11.947
33414W        W92950  23.646  42.447  14.464
33415W        W92951  42.301  27.949  13.310
33416W        W92952   9.695  13.258   1.324
33417W        W92953  37.881  23.219   0.415
33418W        W92954   0.984  23.072  11.513
33419W        W92955  35.435  39.845  13.877
33420W        W92956  44.312  18.725   4.234
33421W        W92957  12.805  41.998   4.317
33422W        W92958  39.823  16.178  12.881
33423W        W92959  22.544  30.600  13.849
33424W        W92960  34.431  22.505  13.453
33425W        W92961  10.339  27.127   2.882
33426W        W92962  41.857  15.229  12.451
33427W        W92963  23.124   5.796  12.546
33428W        W92964  33.600  37.420  12.482
33429W        W92965   9.805  41.453  11.419
33430W        W92966  25.056  26.200  12.824
33431W        W92967  11.237   7.717   0.877
33432W        W92968  27.451  23.584  10.589
33433W        W92969   4.785  33.104   0.416
33434W        W92970  14.615  38.512   4.785
33435W        W92971  26.996  39.004   4.313
33436W        W92972  19.587  13.141   4.760
33437W        W92973  17.577   7.399   2.384
33438W        W92974  10.214  31.139   4.216
33439W        W92975  26.677  37.470   3.364
33440W        W92976  39.848   5.433   4.122
33441W        W92977  14.299   7.852  14.292
33442W        W92978  10.174   0.795  12.920
33443W        W92979  13.250  30.122  12.380
33444W        W92980  40.995   2.848   0.842
33445W        W92981   1.913  27.946   1.436
33446W        W92982  44.303  44.770   9.952
33447W        W92983  42.968  32.424   5.091
33448W        W92984  30.075  19.584  13.961
33449W        W92985   8.757  39.820   3.312
33450W        W92986   8.396  30.033  13.868
33451W        W92987   2.239  34.887   3.354
33452W        W92988  43.425  17.757   2.351
33453W        W92989   5.264  38.407  11.093
33454W        W92990   5.743   7.395   0.888
33455W        W92991  27.680  11.329   4.655
33456W        W92992  24.578  42.362  11.613
33457W        W92993  14.098   0.377   3.754
33458W        W92994   2.964   6.751  12.504
33459W        W92995  37.495  21.090   0.255
33460W        W92996  13.813   3.916   3.767
33461W        W92997  33.561   4.430   0.361
33462W        W92998  41.003   5.853  13.059
33463W        W92999  15.230  17.562  13.844
33464W        W93000  10.171  16.268  13.360
33465W        W93001  19.582  25.533   4.619
33466W        W93002   3.903  17.251   4.608
33467W        W93003  42.525   7.809  10.928
33468W        W93004  19.234  23.600  10.523
33469W        W93005   2.229  35.956   4.128
33470W        W93006  21.057  33.054   4.805
33471W        W93007  24.512  27.596   4.244
33472W        W93008  31.423  44.926  12.941
33473W        W93009  32.084  43.006   3.277
33474W        W93010  25.703   8.843   2.703
33475W        W93011   3.935  42.995  10.489
33476W        W93012  23.177  39.484   4.157
33477W        W93013  29.460  17.106   4.737
33478W        W93014  22.124  37.003  11.944
33479W        W93015  23.993  35.885  14.339
33480W        W93016  25.540  43.937  13.827
33481W        W93017  21.677   7.804   2.245
33482W        W93018  27.967   6.212  10.105
33483W        W93019   5.891  37.035   1.696
33484W        W93020  32.096  35.429   1.930
33485W        W93021  16.577  12.259  11.605
33486W        W93022   4.745  14.184  12.391
33487W        W93023  40.902  38.470  12.427
33488W        W93024   7.769  40.546   1.772
33489W        W93025  29.975  41.388   0.849
33490W        W93026  34.082  42.373   4.292
33491W        W93027  34.888  14.821  14.958
33492W        W93028   1.433  22.581  10.453
33493W        W93029  37.948  24.068   3.837
33494W        W93030  40.952  42.827   1.698
33495W        W93031  29.105  32.935   1.853
33496W        W93032  24.980  39.021  14.313
33497W        W93033  27.970   7.911  12.570
33498W        W93034  25.484  40.416   1.846
33499W        W93035  39.338  13.250   3.804
33500W        W93036   6.698  43.331   4.233
33501W        W93037  22.249  41.973  13.819
33502W        W93038   7.298  37.085  14.356
33503W        W93039  37.016  19.553  14.934
33504W        W93040   8.773   0.432   1.922
33505W        W93041  34.494   6.705  14.344
33506W        W93042  41.363  27.969  12.916
33507W        W93043  19.152   1.951   2.324
33508W        W93044  12.808  32.022  14.355
33509W        W93045  33.435  19.548  11.900
33510W        W93046  20.199  25.624   0.732
33511W        W93047  29.069   1.262  14.348
33512W        W93048  17.624  42.011  13.949
33513W        W93049   4.785  41.362   9.970
33514W        W93050  19.673  24.982   1.341
33515W        W93051  14.287  32.956   0.790
33516W        W93052  30.554  23.533  13.499
33517W        W93053   4.921  19.061   3.711
33518W        W93054  22.212  44.483  12.410
33519W        W93055  39.021  42.804  13.434
33520W        W93056   6.719   1.319  10.892
33521W        W93057  10.784   7.865  12.065
33522W        W93058  14.312  34.437  14.985
33523W        W93059   5.222   2.249  13.483
33524W        W93060  34.546  42.443  14.020
33525W        W93061  27.622  29.101   3.152
33526W        W93062   2.818  16.629   4.259
33527W        W93063  18.624  31.524   0.951
33528W        W93064  15.088  37.390  13.011
33529W        W93065  19.688  34.866   2.234
33530W        W93066  32.948   4.706   1.381
33531W        W93067  38.420   8.800  13.806
33532W        W93068  20.232  33.484   3.300
33533W        W93069  36.527   6.306   0.859
33534W        W93070  18.628   8.267  14.387
33535W        W93071  33.603  37.996   0.769
33536W        W93072   9.242  16.084  11.941
33537W        W93073   6.297   6.708   1.297
33538W        W93074  36.981  19.636  14.381
33539W        W93075  37.859  32.081  13.049
33540W        W93076  44.794  30.144   4.643
33541W        W93077  35.435  42.293  12.829
33542W        W93078   8.191  38.915  14.457
33543W        W93079   4.362  16.192  14.392
33544W        W93080  43.980  34.383  14.453
33545W        W93081  39.923  37.345   3.808
33546W        W93082   8.298  21.693   4.223
33547W        W93083  35.992   2.765   1.797
33548W        W93084  10.246  36.972  12.537
33549W        W93085  39.439  21.664  14.890
33550W        W93086  32.115  14.716  14.484
33551W        W93087   7.781  30.445  14.508
33552W        W93088  18.689  16.206  11.447
33553W        W93089  27.504   8.692   2.701
33554W        W93090  16.169   3.352  14.766
33555W        W93091  41.345   7.304  11.428
33556W        W93092   7.701   5.276   2.233
33557W        W93093  28.092  30.648   3.264
33558W        W93094  44.945  40.427  11.112
33559W        W93095  41.787   9.241   2.292
33560W        W93096  25.080  29.542  11.475
33561W        W93097  12.338   6.247   1.765
33562W        W93098  24.633   3.847  13.876
33563W        W93099  12.268  24.497  14.372
33564W        W93100  32.981  31.565   1.901
33565W        W93101   4.397   3.927  13.000
33566W        W93102  37.576   7.750   4.150
33567W        W93103  40.953  18.551   2.706
33568W        W93104  39.418   1.888   0.462
33569W        W93105  33.561  23.994  13.395
33570W        W93106  18.069   7.364  13.342
33571W        W93107   5.858   6.737  14.376
33572W        W93108  30.006  18.591   4.266
33573W        W93109  30.012  22.109   3.797
33574W        W93110   6.685  20.552   1.798
33575W        W93111   9.323   5.749  12.824
33576W        W93112  16.142  30.635   2.187
33577W        W93113  31.984  39.934  13.982
33578W        W93114  23.004  38.502  12.475
33579W        W93115  22.590  19.579  12.479
33580W        W93116  27.684  44.456   1.862
33581W        W93117  41.801  15.147   0.458
33582W        W93118   8.374  17.703  14.825
33583W        W93119  44.010   1.273   1.862
33584W        W93120   4.941  25.164   3.383
33585W        W93121  13.823   0.915   4.660
33586W        W93122  41.315  24.079  11.939
33587W        W93123  17.107  29.096  13.398
33588W        W93124   6.215  32.098   4.322
33589W        W93125   8.770  42.939   3.297
33590W        W93126  26.189  23.694  11.945
33591W        W93127  37.856  20.139   1.284
33592W        W93128  23.621  14.121  14.999
33593W        W93129  27.057  21.030   0.448
33594W        W93130  15.260   4.231   4.336
33595W        W93131  22.649  34.388  10.422
33596W        W93132  24.722  29.137  10.997
33597W        W93133  37.889   3.356  11.116
33598W        W93134  20.710   0.850  14.412
33599W        W93135  19.098  14.672  10.992
33600W        W93136  32.092  26.563  13.858
33601W        W93137  36.549  30.610   2.290
33602W        W93138  38.355   8.885   3.631
33603W        W93139  43.772   2.347  12.019
33604W        W93140  27.958  34.897  11.059
33605W        W93141  12.158   4.363   4.636
33606W        W93142  40.044   5.359   0.357
33607W        W93143   4.702  30.059  12.081
33608W        W93144  14.146  13.683  10.558
33609W        W93145  39.330  39.894  12.532
33610W        W93146  14.770   3.385  13.310
33611W        W93147  23.169  12.844   0.871
33612W        W93148   9.245  40.946   0.366
33613W        W93149  12.195  35.095   4.189
33614W        W93150  13.693  28.445   4.635
33615W        W93151  32.921  38.421  14.305
33616W        W93152  10.736  37.843  14.309
33617W        W93153   9.739  10.844  14.465
33618W        W93154  24.201  24.209  12.474
33619W        W93155  36.373  29.133   1.356
33620W        W93156   8.898  38.960  13.868
33621W        W93157  17.643  28.576  14.418
33622W        W93158  25.136  12.358  11.941
33623W        W93159   0.440  18.170  10.906
33624W        W93160  20.634  36.978   1.808
33625W        W93161  10.770  42.018  13.838
33626W        W93162  18.145  21.076  12.976
33627W        W93163  21.530  35.398   1.392
33628W        W93164  21.113   8.883  10.599
33629W        W93165  18.263  20.274   4.813
33630W        W93166  19.656  30.996   1.795
33631W        W93167  29.100   4.445  13.953
33632W        W93168   9.657  12.813   1.897
33633W        W93169  36.087  42.977  12.365
33634W        W93170  31.587  36.561  10.537
33635W        W93171  23.689  40.470   0.434
33636W        W93172  32.495  26.684  14.337
33637W        W93173  10.265  19.130  12.536
33638W        W93174  40.437  23.112  12.869
33639W        W93175   5.228  18.117   3.762
33640W        W93176  12.216   2.308  15.000
33641W        W93177  43.409   2.226   0.337
33642W        W93178  20.274  18.687  13.862
33643W        W93179   5.420  20.736  12.470
33644W        W93180   2.721  26.571   5.147
33645W        W93181   1.471  26.207   0.386
33646W        W93182   3.414  29.530  11.864
33647W        W93183   6.250   7.205  10.026
33648W        W93184   6.294   3.870   3.343
33649W        W93185  40.001  42.526   2.379
33650W        W93186  25.582  35.929  10.074
33651W        W93187  30.936   9.346   2.738
33652W        W93188  36.024  20.205  14.023
33653W        W93189  17.192  19.054   2.228
33654W        W93190  19.111  14.807   1.353
33655W        W93191  29.139   6.260   2.182
33656W        W93192  36.518  41.471  14.012
33657W        W93193   6.357  15.610   4.647
33658W        W93194   3.285   5.406  11.537
33659W        W93195  15.086  44.267  14.477
33660W        W93196  39.913  32.498   4.659
33661W        W93197  40.407  21.723   1.439
33662W        W93198  13.164  36.366  10.926
33663W        W93199  19.272  38.017   3.718
33664W        W93200  39.918  35.571   3.212
33665W        W93201  23.629  22.100   1.747
33666W        W93202  37.359  17.209  14.468
33667W        W93203  43.404  25.469  12.375
33668W        W93204  28.435  27.089   0.438
33669W        W93205  23.112  11.773   1.334
33670W        W93206  42.476  20.725   0.748
33671W        W93207  20.121  12.268  12.418
33672W        W93208   5.689  22.129  14.405
33673W        W93209  30.492  40.357  12.074
33674W        W93210  29.514  24.145  11.979
33675W        W93211  26.087  10.290  14.289
33676W        W93212  33.037  15.610  10.405
33677W        W93213  42.867  23.123  14.413
33678W        W93214   9.211  17.200   2.848
33679W        W93215   5.338   3.456   3.193
33680W        W93216  29.514  17.597  14.842
33681W        W93217  28.952  30.066   3.739
33682W        W93218  39.486  36.016  13.865
33683W        W93219   1.912  42.335  13.380
33684W        W93220  10.636  15.211  14.275
33685W        W93221  13.125  39.343   4.706
33686W        W93222  22.533   1.927  10.109
33687W        W93223  19.593   2.240  13.408
33688W        W93224  16.725  38.498  10.445
33689W        W93225  27.185  36.426   1.889
33690W        W93226  22.101  22.226  14.460
33691W        W93227  12.322  43.803   4.281
33692W        W93228  23.189  11.753  11.024
33693W        W93229  11.679   0.770   0.732
33694W        W93230  36.561  35.092  14.296
33695W        W93231  25.538  36.946   3.679
33696W        W93232  36.534  42.482  13.331
33697W        W93233   6.767  18.172   2.294
33698W        W93234  39.472  27.105  11.517
33699W        W93235  27.067   8.860   4.306
33700W        W93236  29.459  26.573   2.248
33701W        W93237  31.403   2.386  14.426
33702W        W93238  25.519   7.328   3.764
33703W        W93239   1.343  20.574   0.371
33704W        W93240  12.359  16.093   4.130
33705W        W93241  17.617  20.103   3.248
33706W        W93242   1.967  10.658   3.654
33707W        W93243  30.470   7.672   1.340
33708W        W93244  23.654   1.838  10.467
33709W        W93245  25.149  32.114   3.311
33710W        W93246  25.707  37.462  14.900
33711W        W93247  40.013   4.209  12.039
33712W        W93248  25.020  31.419   2.239
33713W        W93249   7.350  13.232  14.991
33714W        W93250  30.046   7.238  10.580
33715W        W93251   6.686  21.617   1.321
33716W        W93252  28.534  43.492   4.804
33717W        W93253  39.545  23.150   0.742
33718W        W93254  22.251  21.224  12.991
33719W        W93255   0.437  16.759  10.516
33720W        W93256   6.776  42.398  13.976
33721W        W93257  15.317  39.931   3.186
33722W        W93258  11.152   7.737   3.379
33723W        W93259  25.655  42.900   4.128
33724W        W93260  40.853  38.537   0.886
33725W        W93261  19.621  30.624  10.989
33726W        W93262   7.404   4.886   3.801
33727W        W93263   0.325  35.091   0.331
33728W        W93264   4.890   2.922   2.224
33729W        W93265  43.511  15.158  14.973
33730W        W93266  18.167  31.413   1.731
33731W        W93267   4.302  21.594   3.329
33732W        W93268  32.493  32.059  13.856
33733W        W93269  36.487  42.494  11.465
33734W        W93270  38.050  13.820  12.445
33735W        W93271   7.286  25.207   3.864
33736W        W93272   5.371  44.393  13.982
33737W        W93273  12.355  40.802  13.815
33738W        W93274  23.162   7.349   1.768
33739W        W93275  39.524  28.507   1.903
33740W        W93276  41.303  41.402   2.899
33741W        W93277  35.557  23.585   1.904
33742W        W93278   0.427  19.566  11.908
33743W        W93279  39.007  43.990   2.712
33744W        W93280  36.546  10.303  12.029
33745W        W93281   9.294  10.865   4.126
33746W        W93282  36.942  15.256  14.942
33747W        W93283  13.627  20.724   1.432
33748W        W93284   3.837  20.176   3.813
33749W        W93285  36.571  10.741  14.781
33750W        W93286  22.998   6.919   4.321
33751W        W93287  26.547  19.728  13.934
33752W        W93288  40.018  26.989   0.765
33753W        W93289  23.695  12.271   3.638
33754W        W93290   4.376  43.910  12.095
33755W        W93291  15.620  12.170   0.306
33756W        W93292   0.328  34.529  10.534
33757W        W93293   4.783  43.947   2.733
33758W        W93294  28.963  14.097   4.155
33759W        W93295  42.936  36.863  11.426
33760W        W93296  25.193  37.345   3.749
33761W        W93297  35.373  36.357   0.426
33762W        W93298   8.658   3.251  13.929
33763W        W93299  37.383  39.049   1.745
33764W        W93300  29.461  21.635  12.987
33765W        W93301  11.717  18.157  10.046
33766W        W93302   1.940  26.576  11.940
33767W        W93303  44.875   3.752  14.443
33768W        W93304   5.839  37.580  13.001
33769W        W93305   4.727  41.473  14.892
33770W        W93306  37.058  35.883  11.446
33771W        W93307   7.220  15.156  12.504
33772W        W93308  17.665  10.220  13.844
33773W        W93309  12.722  42.334  13.012
33774W        W93310   0.471  43.982   3.853
33775W        W93311  24.227  38.825   2.772
33776W        W93312   7.751  38.973   1.211
33777W        W93313  29.455  38.993  12.866
33778W        W93314  36.533  33.428   4.142
33779W        W93315  13.709  35.091   0.373
33780W        W93316  26.954  36.874  10.937
33781W        W93317   8.275   7.787  12.964
33782W        W93318  28.664  35.505  11.989
33783W        W93319  18.219   4.434   0.906
33784W        W93320  11.232  33.007  10.995
33785W        W93321  20.626  19.779   1.301
33786W        W93322  17.203  30.976   2.895
33787W        W93323  36.434  38.333   3.684
33788W        W93324  15.174  24.498  11.037
33789W        W93325   6.364   6.365  11.076
33790W        W93326  34.090  22.064   0.892
33791W        W93327  24.107  41.413  10.071
33792W        W93328  32.521  31.546  12.094
33793W        W93329   9.731  12.615  11.379
33794W        W93330   9.376  20.641   2.716
33795W        W93331  34.557  23.093  11.512
33796W        W93332  26.972   6.913   0.787
33797W        W93333   3.239  32.450  14.326
33798W        W93334  33.975  12.694   2.399
33799W        W93335  19.171  21.691  14.887
33800W        W93336   1.963  40.866   2.697
33801W        W93337   8.771   1.793   1.234
33802W        W93338  25.152  36.870  11.590
33803W        W93339  13.749  33.103  13.837
33804W        W93340  17.203   1.421   4.650
33805W        W93341  13.644  25.618  14.782
33806W        W93342  12.194  17.220   0.935
33807W        W93343  28.113   2.770  10.409
33808W        W93344  11.175   4.256   1.785
33809W        W93345  13.744  32.584  13.331
33810W        W93346  24.132  22.589  10.576
33811W        W93347  12.645  38.550   2.326
33812W        W93348  29.566  41.039  11.028
33813W        W93349  35.035  10.352   4.132
33814W        W93350  28.937   0.421   3.631
33815W        W93351  23.059  21.629  14.448
33816W        W93352   8.729  44.781  12.916
33817W        W93353   9.886  23.598   2.667
33818W        W93354  40.953  31.154   2.873
33819W        W93355   6.324  10.202  14.425
33820W        W93356  17.638   6.886  11.559
33821W        W93357   4.359  19.266  12.027
33822W        W93358  14.720  11.210  14.985
33823W        W93359  27.446  30.445   1.213
33824W        W93360  24.043  17.225   3.285
33825W        W93361  31.635  16.734  12.562
33826W        W93362  27.463  28.089  13.844
33827W        W93363  19.212  12.635   4.635
33828W        W93364  25.013  11.303  11.562
33829W        W93365  44.915   8.337   2.693
33830W        W93366  32.494  41.865   2.347
33831W        W93367  31.114  39.471   2.218
33832W        W93368   1.926   7.347  13.887
33833W        W93369  14.166  18.203   4.145
33834W        W93370  24.987  27.617   4.344
33835W        W93371   7.378  19.167  12.022
33836W        W93372  16.676   2.849  10.441
33837W        W93373  16.586   2.820   1.367
33838W        W93374  34.120  21.656   0.295
33839W        W93375  23.566  27.459   1.417
33840W        W93376  36.572  31.055   1.804
33841W        W93377  37.931   9.848   2.885
33842W        W93378   7.867  14.759  11.108
33843W        W93379  40.984  14.618   1.228
33844W        W93380  18.646   5.737  13.792
33845W        W93381   1.358  16.721   1.812
33846W        W93382  20.188   4.342   1.910
33847W        W93383  26.030  13.180  11.493
33848W        W93384  15.103  15.722  13.855
33849W        W93385  21.073  43.981   1.226
33850W        W93386  22.648  35.012  11.511
33851W        W93387  33.464  19.237   5.195
33852W        W93388  31.408  32.003  11.375
33853W        W93389   9.221  30.950  11.597
33854W        W93390   9.328  27.111  10.933
33855W        W93391  31.084  13.749   4.819
33856W        W93392   4.816  27.552   0.301
33857W        W93393  34.417  40.052  10.436
33858W        W93394  20.627  36.480   1.724
33859W        W93395  39.965  14.745   4.307
33860W        W93396  35.895  40.450   0.762
33861W        W93397  22.152  38.915  11.940
33862W        W93398  35.932  24.100   0.892
33863W        W93399   7.399  14.800  13.369
33864W        W93400  28.642   1.969   2.767
33865W        W93401  13.634   8.401  10.963
33866W        W93402   4.379  41.834   0.282
33867W        W93403  22.635  21.081   5.285
33868W        W93404  23.052   5.817   3.822
33869W        W93405   9.153  43.350   1.359
33870W        W93406  11.673  10.735  11.085
33871W        W93407  34.066  40.966  12.081
33872W        W93408   5.810  32.483   4.222
33873W        W93409  34.494  20.192   1.304
33874W        W93410  39.400  23.730   0.891
33875W        W93411   7.187  17.650  12.851
33876W        W93412  24.059  16.753  10.408
33877W        W93413  29.169  13.682  13.425
33878W        W93414  31.648  18.700   2.850
33879W        W93415  27.086  34.891  14.377
33880W        W93416   6.327  11.134  11.376
33881W        W93417  27.508   6.888  10.925
33882W        W93418  40.913   8.283   4.754
33883W        W93419   2.280  40.377  12.574
33884W        W93420  12.770  23.681   0.347
33885W        W93421   6.355   0.842  11.433
33886W        W93422  24.096  22.595   0.781
33887W        W93423  13.649  33.920  10.574
33888W        W93424  34.884  42.869  11.979
33889W        W93425  42.311  35.482  13.426
33890W        W93426  29.522  21.551  11.519
33891W        W93427  36.359  27.019   0.404
33892W        W93428  10.270  34.435   3.834
33893W        W93429  42.299  26.142   1.300
33894W        W93430   7.322   1.383   3.284
33895W        W93431   3.723   8.879   1.363
33896W        W93432  40.995  44.825   4.800
33897W        W93433  15.755   8.397  12.062
33898W        W93434   9.744  16.137  11.416
33899W        W93435   4.828  24.061   0.338
33900W        W93436  18.618  25.548   1.847
33901W        W93437  16.171   8.895   4.120
33902W        W93438  43.913  20.061   3.700
33903W        W93439  25.605  42.302  12.095
33904W        W93440  27.170  32.563   4.738
33905W        W93441   1.766  35.902  13.833
33906W        W93442  27.017  13.286  12.021
33907W        W93443  38.382  13.120  11.552
33908W        W93444  13.602  36.944  11.983
33909W        W93445  19.093  41.951  13.404
33910W        W93446  41.946   8.784   4.259
33911W        W93447   8.798  40.383  12.565
33912W        W93448  13.605  11.338  11.604
33913W        W93449  12.767   3.730   3.782
33914W        W93450  43.431  11.180  12.472
33915W        W93451  36.886  11.713   1.854
33916W        W93452   0.320  38.514  14.395
33917W        W93453  16.128   2.938  14.957
33918W        W93454  30.579   6.368  11.126
33919W        W93455  31.948  20.122  11.090
33920W        W93456  24.663   8.323  12.534
33921W        W93457  39.819  26.097  14.355
33922W        W93458  20.694   5.308  10.133
33923W        W93459   7.414  43.329  13.021
33924W        W93460  26.177  42.876   3.275
33925W        W93461  22.228  20.627  12.419
33926W        W93462   1.364  16.307  11.047
33927W        W93463  15.268   6.209   1.901
33928W        W93464  29.590  13.626   1.764
33929W        W93465   7.366  16.126  14.828
33930W        W93466  27.103  38.455   1.276
33931W        W93467  25.597  10.192   5.087
33932W        W93468   6.763  35.054   3.716
33933W        W93469  19.044   2.440   3.258
33934W        W93470   4.280  13.777   3.716
33935W        W93471  33.008   4.810   1.899
33936W        W93472  24.011  31.140  13.337
33937W        W93473  41.036   8.880   3.687
33938W        W93474  29.113  27.109   9.929
33939W        W93475   3.752  43.826   2.798
33940W        W93476  26.610  13.201   3.869
33941W        W93477  23.675  19.704   3.225
33942W        W93478   4.896  26.526   1.836
33943W        W93479  43.343  29.928  12.538
33944W        W93480  11.339   2.924   0.865
33945W        W93481  31.060  27.018  10.447
33946W        W93482  15.646  25.505  12.545
33947W        W93483   1.408  19.780  11.888
33948W        W93484  21.724   9.880  10.585
33949W        W93485  35.871   0.434  14.815
33950W        W93486  31.509  27.032   4.793
33951W        W93487   8.339  24.096   1.282
33952W        W93488  44.771   6.383  13.949
33953W        W93489  16.763   9.733   4.252
33954W        W93490  12.806  23.732  12.389
33955W        W93491  14.710   2.426   0.461
33956W        W93492  42.342  19.598   1.771
33957W        W93493  40.868  17.149   4.322
33958W        W93494  40.533  12.215   0.840
33959W        W93495  12.225  15.739  14.488
33960W        W93496  15.710  43.849   0.309
33961W        W93497  38.413  22.151  13.804
33962W        W93498   1.964  14.312  11.015
33963W        W93499  15.752  23.686   5.116
33964W        W93500   0.814  28.028  12.049
33965W        W93501  36.402  16.782  14.009
33966W        W93502  18.080  37.983  12.447
33967W        W93503  16.621  23.579  12.489
33968W        W93504  26.174  21.549   5.093
33969W        W93505  43.960  25.537   4.280
33970W        W93506  28.173   7.705  10.122
33971W        W93507   3.355  32.562  13.005
33972W        W93508  22.169   7.831   9.976
33973W        W93509  24.499   8.715   0.863
33974W        W93510  24.650  29.961   4.600
33975W        W93511  13.215  44.482   2.192
33976W        W93512  28.568  22.068   4.741
33977W        W93513   5.420  10.364  14.278
33978W        W93514  29.603  42.479   4.693
33979W        W93515  33.459  24.564   2.284
33980W        W93516   6.832  25.040   1.801
33981W        W93517   1.964  15.161   4.731
33982W        W93518  11.279   0.393  14.834
33983W        W93519  39.510   1.973   9.953
33984W        W93520   9.272  29.505   0.291
33985W        W93521  31.473  37.050   1.865
33986W        W93522  43.286   3.857   2.353
33987W        W93523   5.434  23.004  11.869
33988W        W93524   8.283   7.876  14.837
33989W        W93525   0.956  14.793   0.783
33990W        W93526  35.987  19.766   0.388
33991W        W93527   7.192   9.152  10.952
33992W        W93528  37.900  18.161   2.270
33993W        W93529  17.605   7.368   3.191
33994W        W93530   5.700  12.194  11.116
33995W        W93531  31.999  37.401  11.003
33996W        W93532  44.789  10.688  13.410
33997W        W93533  30.480  44.325   0.252
33998W        W93534   6.187   4.849   4.280
33999W        W93535  35.533  28.103  10.039
34000W        W93536   2.741   4.298  14.772
34001W        W93537  40.493  14.606  12.080
34002W        W93538  41.456  25.100  12.448
34003W        W93539   0.787  26.127  14.855
34004W        W93540   2.307  11.723   1.332
34005W        W93541  22.649  25.665   0.896
34006W        W93542  13.235   1.758   1.708
34007W        W93543   9.750  36.955  11.542
34008W        W93544  40.033   6.745   0.255
34009W        W93545  12.639   6.393  11.513
34010W        W93546  32.561   8.673   3.366
34011W        W93547  16.097  33.511  10.062
34012W        W93548  19.273   6.787   4.835
34013W        W93549  30.594  39.488  14.451
34014W        W93550  27.640  26.985   1.928
34015W        W93551  11.835  11.186   3.242
34016W        W93552   3.256  37.929   1.697
34017W        W93553  34.488   7.277  12.840
34018W        W93554  39.441  33.889  13.964
34019W        W93555  17.747  17.610  10.030
34020W        W93556  42.340  29.554   3.765
34021W        W93557  18.134  24.058  12.519
34022W        W93558   7.814   3.709  11.944
34023W        W93559  17.778  32.515   1.864
34024W        W93560  15.160  37.991   3.801
34025W        W93561  28.948  33.553  13.476
34026W        W93562   4.888  38.852   0.378
34027W        W93563   1.454  22.028   9.468
34028W        W93564  28.500  19.675   2.387
34029W        W93565  19.280  43.498   2.697
34030W        W93566  24.118   6.922   3.853
34031W        W93567  37.505  10.181  13.047
34032W        W93568  33.974  28.154   0.867
34033W        W93569  41.468  42.482  12.504
34034W        W93570   4.335  19.722   1.877
34035W        W93571  33.951  25.521   9.631
34036W        W93572  11.788  29.033   3.813
34037W        W93573  34.582   5.341  13.512
34038W        W93574  10.680  37.413   3.743
34039W        W93575  38.484   0.751  13.901
34040W        W93576  37.941  35.909   4.332
34041W        W93577  35.372   4.432  11.554
34042W        W93578   5.764  15.289  10.978
34043W        W93579   4.768   3.828   4.301
34044W        W93580   8.305  43.829  14.336
34045W        W93581  16.674  25.518  14.958
34046W        W93582  40.533   8.740  10.570
34047W        W93583   4.882  23.677  13.830
34048W        W93584  11.868  38.984  10.437
34049W        W93585  19.659  44.875   3.329
34050W        W93586  21.036  26.478  10.508
34051W        W93587  21.024  16.169   3.833
34052W        W93588  41.410  31.902  11.886
34053W        W93589  44.765  18.187  11.887
34054W        W93590  16.176  17.110   2.868
34055W        W93591  11.697  19.103  12.393
34056W        W93592  10.797   1.414   3.714
34057W        W93593   1.846  16.805   1.397
34058W        W93594  43.280  33.030  12.489
34059W        W93595  20.742  22.203  11.570
34060W        W93596  22.656  40.962  10.580
34061W        W93597  33.584  15.154  13.937
34062W        W93598  35.503  38.049  14.430
34063W        W93599  20.162  39.029  10.052
34064W        W93600  34.524   2.734   0.870
34065W        W93601  18.096  19.139  12.371
34066W        W93602  41.880  19.760  10.636
34067W        W93603   4.328  37.896   3.337
34068W        W93604  11.676  23.591   2.186
34069W        W93605  30.995  15.280   0.962
34070W        W93606   3.363  17.220   3.301
34071W        W93607   7.214   4.393   0.340
34072W        W93608  26.536  36.402  11.077
34073W        W93609  17.774   2.251   3.698
34074W        W93610  23.236  28.615  10.470
34075W        W93611   8.820  26.039   0.277
34076W        W93612   6.768  26.138  14.389
34077W        W93613  12.248  44.942   2.728
34078W        W93614   9.736   9.175   2.725
34079W        W93615  35.858  14.701  11.090
34080W        W93616  28.093  11.334   1.299
34081W        W93617  11.139  43.405  12.070
34082W        W93618  26.163  24.170   3.677
34083W        W93619  29.003  14.310  12.886
34084W        W93620  28.052  29.956   3.865
34085W        W93621  43.456  38.410  14.353
34086W        W93622  26.994  12.681  13.041
34087W        W93623  30.584  18.251  10.524
34088W        W93624   8.708   6.390   2.820
34089W        W93625  33.901  42.010  13.966
34090W        W93626  11.625   7.282   5.142
34091W        W93627  32.023  34.542   3.829
34092W        W93628  31.570  28.065   2.735
34093W        W93629  10.755  32.888   0.763
34094W        W93630  12.812  17.773   2.745
34095W        W93631  18.691  34.614   2.278
34096W        W93632   9.815  18.569  13.341
34097W        W93633  38.927   7.197   0.399
34098W        W93634   4.703  38.452  12.877
34099W        W93635   9.376   7.894   0.779
34100W        W93636  36.564  17.604   2.351
34101W        W93637  10.276  31.102  12.088
34102W        W93638   4.262  40.953   4.770
34103W        W93639   7.343  36.061  11.900
34104W        W93640  29.174   4.747  11.027
34105W        W93641  27.078  16.149   1.359
34106W        W93642   5.809  26.154   3.317
34107W        W93643   5.210  20.526   2.273
34108W        W93644  44.823  21.698  13.985
34109W        W93645  18.155  13.673  10.546
34110W        W93646  26.161  15.131   4.631
34111W        W93647   2.285   6.222   0.344
34112W        W93648  30.920  15.615  14.451
34113W        W93649  35.983  31.492  14.024
34114W        W93650   9.665  15.090   3.310
34115W        W93651  20.106  39.827   4.228
34116W        W93652   7.889  38.502  12.489
34117W        W93653  28.624  44.973  11.579
34118W        W93654  28.116   8.813  14.847
34119W        W93655   4.888  25.476  11.869
34120W        W93656  42.416  27.458  14.420
34121W        W93657  41.950  26.501   4.680
34122W        W93658  25.155   5.221   5.757
34123W        W93659  32.515  19.566   3.255
34124W        W93660  16.171  11.731   2.265
34125W        W93661  17.638  16.142   1.284
34126W        W93662  42.032  26.458  13.523
34127W        W93663  23.524  24.480  11.504
34128W        W93664  17.275  44.486  11.536
34129W        W93665   0.254  41.864   0.736
34130W        W93666   4.445  44.956   3.689
34131W        W93667  32.057  40.989  12.403
34132W        W93668  23.088  10.842   1.711
34133W        W93669   4.930  22.032  14.400
34134W        W93670  26.509  29.070  10.080
34135W        W93671  17.762  41.378   4.160
34136W        W93672  19.601  43.364  14.920
34137W        W93673  41.007   0.393   5.720
34138W        W93674   6.869  24.644   0.366
34139W        W93675   2.275  29.980   4.639
34140W        W93676  18.772  42.329   1.328
34141W        W93677  29.606  36.078   0.958
34142W        W93678  41.864   1.438   2.222
34143W        W93679  17.126  32.468   2.239
34144W        W93680  11.735  43.495  11.047
34145W        W93681   1.426  32.459  11.592
34146W        W93682  37.466  24.488   3.841
34147W        W93683  41.019  28.160   4.191
34148W        W93684  22.082   9.360  10.517
34149W        W93685  22.553  10.280   2.337
34150W        W93686   7.768  30.436   2.903
34151W        W93687  14.753   7.861   2.266
34152W        W93688  19.728   6.786   3.190
34153W        W93689  22.164  20.577   4.141
34154W        W93690  39.967  38.987   3.660
34155W        W93691   8.836   2.260   3.308
34156W        W93692  32.959  43.925  12.824
34157W        W93693  27.664  17.173  13.311
34158W        W93694   1.362  43.983  10.888
34159W        W93695  26.144  22.546  10.112
34160W        W93696   1.243  24.507  12.517
34161W        W93697  34.561  22.658  11.482
34162W        W93698  43.972  13.624   4.127
34163W        W93699   0.413  19.248  10.645
34164W        W93700  18.114  10.366   0.807
34165W        W93701   8.166  28.612   1.239
34166W        W93702  12.318  29.998   1.245
34167W        W93703   4.250  31.540   3.744
34168W        W93704   0.370  28.172   0.283
34169W        W93705   8.669  21.664   4.739
34170W        W93706  38.955   6.260   5.183
34171W        W93707  25.689   5.311   1.726
34172W        W93708  24.034  22.032  13.918
34173W        W93709  39.012  40.520  14.854
34174W        W93710   1.804  32.526   4.197
34175W        W93711  15.211  37.036  14.426
34176W        W93712  38.403   6.790  14.372
34177W        W93713  11.741  11.219  14.282
34178W        W93714  14.295  34.081   2.209
34179W        W93715   2.408  30.617   0.734
34180W        W93716   7.860  11.239   3.354
34181W        W93717   6.310  18.708   5.129
34182W        W93718  21.628  20.268   5.767
34183W        W93719  43.453  20.740  14.374
34184W        W93720   1.429  20.100   1.704
34185W        W93721  26.071  42.352  13.055
34186W        W93722  37.008  41.358   4.220
34187W        W93723  33.895  42.806   0.783
34188W        W93724  38.055  10.674   2.332
34189W        W93725  19.089  10.139   0.837
34190W        W93726  28.490  32.024   3.697
34191W        W93727  42.844  17.271   3.256
34192W        W93728  18.576  33.962  11.024
34193W        W93729  44.971  32.104  14.329
34194W        W93730  20.267  12.179  12.862
34195W        W93731  42.780  16.740   1.215
34196W        W93732  32.119  26.615   4.130
34197W        W93733  20.038   9.682   2.295
34198W        W93734  20.681  30.543   1.354
34199W        W93735  19.280  28.657  12.892
34200W        W93736   4.358  22.220   2.414
34201W        W93737   1.362  28.046   4.675
34202W        W93738  18.675  13.660   1.219
34203W        W93739  18.053  27.084   1.257
34204W        W93740  12.820   6.275  14.418
34205W        W93741  42.864   1.454   0.853
34206W        W93742  14.672  36.450   1.847
34207W        W93743  21.557  42.840  10.543
34208W        W93744  25.467  19.238  12.374
34209W        W93745   5.253   7.189   3.284
34210W        W93746   6.872  20.704  11.477
34211W        W93747  30.546  15.271   3.663
34212W        W93748  16.621  16.667   5.745
34213W        W93749  15.779  36.369   3.846
34214W        W93750  13.117   9.812  14.933
34215W        W93751  29.081   7.298   3.255
34216W        W93752   5.796   2.858   1.737
34217W        W93753  20.634  42.861  14.492
34218W        W93754  38.471   3.231   3.716
34219W        W93755  36.589  28.054  11.439
34220W        W93756  25.670   1.385   4.776
34221W        W93757   0.803  13.211  12.340
34222W        W93758  14.150  30.428   4.213
34223W        W93759  11.847   0.983  11.426
34224W        W93760   4.367  24.549   4.703
34225W        W93761   9.760   7.346   5.749
34226W        W93762   3.846  38.054   1.931
34227W        W93763  35.596   2.349  14.504
34228W        W93764   4.869  42.425  11.464
34229W        W93765  20.588  24.545  13.517
34230W        W93766  34.568  14.751  13.472
34231W        W93767  40.473  35.437   4.190
34232W        W93768   5.781  21.686  14.878
34233W        W93769  16.113  28.634   1.351
34234W        W93770  29.147  32.955  14.445
34235W        W93771  24.660  33.417   1.394
34236W        W93772  25.145  20.536   0.918
34237W        W93773   8.833   8.273   1.732
34238W        W93774  44.848  20.676  12.952
34239W        W93775  15.671  42.880   3.791
34240W        W93776   4.874  42.833  11.588
34241W        W93777  18.228  28.182   1.266
34242W        W93778  31.534   1.351  12.849
34243W        W93779  15.577  40.013  11.060
34244W        W93780  37.525  25.483   1.264
34245W        W93781  10.197  23.569  10.907
34246W        W93782  30.517  10.852  12.457
34247W        W93783  39.882  35.569   1.444
34248W        W93784  16.164  36.036   2.183
34249W        W93785  33.936  14.105  10.445
34250W        W93786  35.557  29.648  14.383
34251W        W93787   1.916  40.391  11.982
34252W        W93788  14.602  15.710   2.356
34253W        W93789   2.283  13.683   1.924
34254W        W93790  40.811  27.636  12.469
34255W        W93791  22.075  21.558  14.818
34256W        W93792  38.864   0.822  13.046
34257W        W93793   1.462  39.510   3.302
34258W        W93794  28.047  34.597  14.369
34259W        W93795  34.102  29.526   3.634
34260W        W93796  13.152  29.649   4.771
34261W        W93797  38.510   2.286  12.084
34262W        W93798  40.963  41.407  11.463
34263W        W93799  30.575  23.582   2.225
34264W        W93800  22.673  13.156   1.777
34265W        W93801  21.682  14.117  11.014
34266W        W93802   7.379  17.227  12.382
34267W        W93803   3.317  29.522  14.498
34268W        W93804   2.367  25.472  11.973
34269W        W93805  31.957  42.489  10.411
34270W        W93806   5.404  40.423  13.997
34271W        W93807   4.315  38.013   4.211
34272W        W93808  12.742  19.104  14.363
34273W        W93809  12.319   9.776   2.407
34274W        W93810  16.232  23.544  14.290
34275W        W93811   9.288  17.104   4.196
34276W        W93812  12.358  39.830   3.680
34277W        W93813  33.418  43.833  12.902
34278W        W93814  32.908  37.036  12.956
34279W        W93815   2.925  13.300   0.474
34280W        W93816  40.546   1.432  13.503
34281W        W93817   5.253  30.649  12.465
34282W        W93818  27.543   1.736  13.793
34283W        W93819  36.392  43.835  13.452
34284W        W93820   0.283  36.444   1.803
34285W        W93821  26.601  10.331  14.828
34286W        W93822   9.769  22.201  12.402
34287W        W93823  29.474  24.698  12.451
34288W        W93824  16.617  18.291   3.669
34289W        W93825  14.792  21.026   1.451
34290W        W93826  27.144  26.474  14.293
34291W        W93827  17.275  34.474  13.515
34292W        W93828  36.992  12.329   4.599
34293W        W93829   4.409  37.467   4.727
34294W        W93830  32.923  11.340   1.232
34295W        W93831  12.174   5.719  13.942
34296W        W93832  13.305  37.442   5.295
34297W        W93833  19.752  21.757  12.921
34298W        W93834  33.563  23.015  11.547
34299W        W93835  40.346   6.846   4.796
34300W        W93836  19.233  36.921  13.399
34301W        W93837   1.476  39.928  12.836
34302W        W93838   0.305  25.595  12.459
34303W        W93839   2.367   0.422  13.530
34304W        W93840  33.562  32.929   3.869
34305W        W93841  42.505   2.454   1.903
34306W        W93842   5.799   9.789   0.330
34307W        W93843  20.250  35.899   0.814
34308W        W93844  17.564  33.014   1.720
34309W        W93845  12.833   8.898   2.780
34310W        W93846  27.164   6.203   2.237
34311W        W93847  23.146   7.406   4.689
34312W        W93848  17.668  22.054   2.387
34313W        W93849  35.000   9.187   1.893
34314W        W93850  37.354   1.404   3.770
34315W        W93851  38.490  23.583  11.869
34316W        W93852  44.426  39.452  14.758
34317W        W93853  42.883   4.774   0.754
34318W        W93854  31.492   2.340   4.824
34319W        W93855  13.330  22.186   1.352
34320W        W93856  44.979   6.359   0.267
34321W        W93857  32.597  15.283   1.421
34322W        W93858   5.286  35.048  14.347
34323W        W93859  44.303  27.960  13.011
34324W        W93860  41.968   2.347   2.766
34325W        W93861  22.160  38.051   4.299
34326W        W93862   1.778  27.456   1.237
34327W        W93863  32.067  18.078   3.693
34328W        W93864   5.719  33.469   1.233
34329W        W93865  35.917  34.926  11.473
34330W        W93866  16.692   9.677   4.823
34331W        W93867   8.313  23.518   2.743
34332W        W93868  40.950  26.144   1.357
34333W        W93869  12.292  32.560  13.508
34334W        W93870   1.851  12.683  12.872
34335W        W93871  41.017  35.917   0.420
34336W        W93872   6.258  40.983  14.442
34337W        W93873  20.107   3.280  11.986
34338W        W93874  16.095  26.007   2.256
34339W        W93875   4.760   1.933  12.011
34340W        W93876  32.006  28.645  10.078
34341W        W93877  12.126  11.179   0.369
34342W        W93878  33.535  17.630  11.474
34343W        W93879   3.430  34.875   1.776
34344W        W93880  15.709  24.641  12.059
34345W        W93881  28.134  34.971   2.880
34346W        W93882  32.430   1.786  10.528
34347W        W93883   1.747  12.624   0.836
34348W        W93884  37.031  39.046   0.764
34349W        W93885   3.274  23.693  13.828
34350W        W93886  23.678  18.783   0.255
34351W        W93887   0.419  28.065  11.935
34352W        W93888   9.221   5.269  10.500
34353W        W93889  30.978  36.356  13.996
34354W        W93890  23.093  37.434   2.223
34355W        W93891  41.966   5.790   0.295
34356W        W93892  11.827   4.739   2.350
34357W        W93893  29.633  25.016  13.055
34358W        W93894  26.461   6.747   1.888
34359W        W93895   5.820  22.547  12.439
34360W        W93896   4.223   7.759   3.842
34361W        W93897  24.060  23.661  14.353
34362W        W93898  39.035   2.262   4.232
34363W        W93899  11.275  27.471  14.980
34364W        W93900  27.019   6.243  10.159
34365W        W93901  21.717  26.680  12.972
34366W        W93902   5.235  18.764   4.647
34367W        W93903   7.805  34.576  12.019
34368W        W93904  26.082   5.781  14.809
34369W        W93905   2.379  15.101   4.329
34370W        W93906  21.178  21.518  12.538
34371W        W93907  24.013  13.629  13.309
34372W        W93908   6.805  10.795   1.711
34373W        W93909  34.013  23.104  12.482
34374W        W93910   8.399  20.135   1.379
34375W        W93911  11.694  22.182  12.009
34376W        W93912   3.908  20.130   1.818
34377W        W93913  21.662   6.298  13.472
34378W        W93914   8.883  39.414   2.821
34379W        W93915  14.639  41.422   4.259
34380W        W93916  23.002  32.034  13.883
34381W        W93917  43.921  22.100   1.291
34382W        W93918  30.012  21.091   3.367
34383W        W93919  15.681  33.892   0.758
34384W        W93920  24.521  41.315  11.576
34385W        W93921  13.777  42.994   5.111
34386W        W93922  37.964  31.152  11.919
34387W        W93923  26.986   0.339   1.404
34388W        W93924  23.211   7.232  11.378
34389W        W93925  38.402  43.004   2.373
34390W        W93926  40.806   0.829   1.698
34391W        W93927   7.856  40.507   0.905
34392W        W93928  14.683  15.639   2.872
34393W        W93929   6.247   5.213   2.290
34394W        W93930  40.378  31.103  11.032
34395W        W93931  24.042  21.236  11.919
34396W        W93932   7.340  15.687   4.118
34397W        W93933  12.344  29.467   0.892
34398W        W93934  16.698  42.023  13.326
34399W        W93935  43.349   9.192   1.792
34400W        W93936  10.185  21.669  13.501
34401W        W93937  41.945   6.726  13.979
34402W        W93938  37.352  19.044   1.415
34403W        W93939  27.612  31.587   4.160
34404W        W93940  24.596  15.656  14.488
34405W        W93941  42.388   6.791  10.970
34406W        W93942  23.199  18.704  14.499
34407W        W93943  11.354  40.339   0.813
34408W        W93944   8.859  29.513  14.850
34409W        W93945  30.575   2.351  10.468
34410W        W93946  40.035  34.919   0.828
34411W        W93947  39.416  27.976   1.437
34412W        W93948  26.000  40.513  12.464
34413W        W93949  14.750  29.103  10.928
34414W        W93950   5.278  31.005   3.759
34415W        W93951  30.530  43.472   3.840
34416W        W93952  24.994  30.552  14.771
34417W        W93953  15.585   4.409  12.498
34418W        W93954  20.615   1.405   2.722
34419W        W93955  12.763  32.465   4.332
34420W        W93956  18.113  12.705   0.245
34421W        W93957  12.738  17.143  13.474
34422W        W93958  32.915  39.410  12.559
34423W        W93959  20.270  22.500   1.812
34424W        W93960  18.094   2.814  14.014
34425W        W93961  19.595  39.919  14.893
34426W        W93962  31.905  11.184  14.286
34427W        W93963  42.799   3.880  11.016
34428W        W93964  43.970   0.752  13.442
34429W        W93965  25.025  31.445   1.898
34430W        W93966  42.791  16.632   2.189
34431W        W93967  27.561   8.197   3.840
34432W        W93968   9.812  11.703   1.261
34433W        W93969   9.786   2.908  14.800
34434W        W93970  34.972   4.943   9.984
34435W        W93971   6.785  18.727  14.342
34436W        W93972  12.768  10.156  10.535
34437W        W93973  28.623   1.362   4.265
34438W        W93974  17.067  22.058  12.358
34439W        W93975  20.064  32.548  13.821
34440W        W93976  18.137  10.878   1.241
34441W        W93977  29.159  35.079  11.861
34442W        W93978  13.291  37.033  12.989
34443W        W93979   2.424  28.620   0.798
34444W        W93980  21.039  23.562   3.200
34445W        W93981  25.102  16.807   2.358
34446W        W93982  43.481   0.302  12.412
34447W        W93983   3.745  10.173   3.159
34448W        W93984  30.933  18.202  12.416
34449W        W93985  44.488  11.151  11.027
34450W        W93986  44.976  20.233   4.721
34451W        W93987  14.801   5.235   3.368
34452W        W93988  42.928   8.778   0.464
34453W        W93989  18.686  39.532  14.963
34454W        W93990  20.576  22.516  14.946
34455W        W93991  38.007   7.703   4.730
34456W        W93992  32.072  14.183  12.404
34457W        W93993  27.994  33.962  10.119
34458W        W93994  22.741   2.391   3.698
34459W        W93995  17.127   1.900  13.393
34460W        W93996   4.912  12.643  13.391
34461W        W93997   1.240  32.420   1.382
34462W        W93998  33.555  28.946  12.881
34463W        W93999  24.654   4.825   3.312
34464W        W94000  34.603  31.530  12.082
34465W        W94001  21.734   9.203  12.962
34466W        W94002  21.678  28.170   1.304
34467W        W94003  35.907  29.632  13.043
34468W        W94004   5.267   2.765  10.425
34469W        W94005  10.180  23.557  12.906
34470W        W94006  15.229  27.493  14.774
34471W        W94007   2.410  41.367  14.844
34472W        W94008  15.192  25.206  11.410
34473W        W94009  37.377  13.217  13.408
34474W        W94010  18.635  11.246  14.847
34475W        W94011  23.995  10.156   4.286
34476W        W94012   8.715  16.140   4.151
34477W        W94013  29.632   2.426  13.828
34478W        W94014  35.006  28.590   4.827
34479W        W94015  34.507  36.017   3.808
34480W        W94016   3.834   1.973  12.905
34481W        W94017  29.990  34.485  12.575
34482W        W94018   5.364  39.850   5.187
34483W        W94019  17.602  26.152   3.234
34484W        W94020   4.268  11.135  13.954
34485W        W94021   8.742  28.125   0.390
34486W        W94022  38.856   2.297  12.991
34487W        W94023  22.621  25.062  14.964
34488W        W94024  14.751  35.517  14.293
34489W        W94025  13.632  27.958  14.973
34490W        W94026  43.924  18.183   2.826
34491W        W94027   0.287  44.397   0.380
34492W        W94028   5.909  42.984   2.679
34493W        W94029  33.025  17.292  11.434
34494W        W94030   9.366  20.667   4.794
34495W        W94031  37.505  44.448   4.288
34496W        W94032  29.127  42.294  11.575
34497W        W94033  42.885   7.346  11.393
34498W        W94034  29.043  15.196  11.445
34499W        W94035  20.757  10.312   4.734
34500W        W94036   5.295  34.002  14.357
34501W        W94037  24.656  29.641   0.348
34502W        W94038  24.155  18.676  13.813
34503W        W94039  20.152   8.324   1.883
34504W        W94040   6.320  44.434  14.493
34505W        W94041  25.067  36.472   0.319
34506W        W94042  37.865   1.755   0.479
34507W        W94043  18.568  35.992   4.166
34508W        W94044  31.136  33.126   1.732
34509W        W94045  33.948  41.338   1.310
34510W        W94046  43.951   0.454  14.501
34511W        W94047   2.358   2.776   1.425
34512W        W94048  23.703  27.052   1.364
34513W        W94049  29.525  22.039  11.107
34514W        W94050   4.300  38.394  14.493
34515W        W94051  15.208  32.507  12.480
34516W        W94052  13.834  42.858  12.427
34517W        W94053   3.825  28.508   2.221
34518W        W94054   9.681   9.383  13.800
34519W        W94055   8.684  37.502  13.393
34520W        W94056  10.288  25.486   0.871
34521W        W94057  37.890  21.695   0.877
34522W        W94058  26.032   2.829  11.587
34523W        W94059  20.570  17.689  13.347
34524W        W94060  31.413  35.372   2.801
34525W        W94061  19.535   7.417   1.831
34526W        W94062  28.036  27.681   0.258
34527W        W94063   2.850  21.224   1.703
34528W        W94064  13.320   2.245  13.048
34529W        W94065  37.570  16.298   0.791
34530W        W94066  31.051  37.997  14.468
34531W        W94067  17.794   8.654   3.735
34532W        W94068  29.124  18.262   1.234
34533W        W94069  42.853   3.394  10.064
34534W        W94070  30.437   6.271  13.327
34535W        W94071  25.132  10.229   3.735
34536W        W94072  16.309  27.999  12.470
34537W        W94073   0.277  24.718   2.356
34538W        W94074  11.296  43.405   2.200
34539W        W94075  28.003  16.579   1.718
34540W        W94076  18.272   6.789   0.850
34541W        W94077  39.000   4.811   0.482
34542W        W94078  25.576  42.376  14.762
34543W        W94079   1.277   8.777  11.871
34544W        W94080  28.104  16.225  10.469
34545W        W94081  34.570  24.682  14.321
34546W        W94082  13.286   5.879  13.885
34547W        W94083  14.308  42.797   2.795
34548W        W94084  32.599  14.133   0.923
34549W        W94085   2.864  28.967   3.721
34550W        W94086  43.866   4.824  13.893
34551W        W94087  13.310  21.181   1.389
34552W        W94088  27.983  44.897   3.282
34553W        W94089  30.979  23.043  13.515
34554W        W94090  11.283  37.474  13.418
34555W        W94091  11.854   6.735   2.278
34556W        W94092  34.568  30.483  13.506
34557W        W94093  32.621  29.165   2.813
34558W        W94094  24.697  14.763  14.906
34559W        W94095  28.550  34.897   4.817
34560W        W94096  22.092   0.773  13.506
34561W        W94097  19.652  14.315  10.538
34562W        W94098  11.261  33.906  10.894
34563W        W94099  13.162  15.780   4.232
34564W        W94100  44.270  15.676   3.351
34565W        W94101  14.713  21.513   3.763
34566W        W94102  41.415  38.901   3.725
34567W        W94103  36.407  31.618   2.744
34568W        W94104  20.595  43.937   0.346
34569W        W94105  26.126  39.818  13.380
34570W        W94106  33.551  27.191   1.305
34571W        W94107   7.345  27.117   3.694
34572W        W94108  13.710  28.123   3.838
34573W        W94109  38.070  40.343  13.826
34574W        W94110   9.793   7.820   9.961
34575W        W94111  14.234   7.800   9.536
34576W        W94112  24.095  25.217  12.847
34577W        W94113   1.467  41.448   4.693
34578W        W94114  40.398  36.495  11.534
34579W        W94115   7.736  27.056   5.648
34580W        W94116  12.250  18.082  10.477
34581W        W94117  29.485  11.856   5.281
34582W        W94118  20.760   8.900  11.057
34583W        W94119  16.607  10.685   3.803
34584W        W94120  42.292  39.342  12.080
34585W        W94121  29.571   3.756   4.806
34586W        W94122   6.426  25.217  13.813
34587W        W94123   6.225  15.732   2.786
34588W        W94124  11.301  23.144  13.839
34589W        W94125  22.631  30.443   0.274
34590W        W94126   8.670  39.970   1.846
34591W        W94127   7.751   8.705  14.336
34592W        W94128   7.889   3.324  13.899
34593W        W94129  42.891  33.561   3.734
34594W        W94130  29.073  26.184  12.522
34595W        W94131  25.114  27.571  13.890
34596W        W94132   1.749   1.256   0.388
34597W        W94133   5.786   2.832  13.954
34598W        W94134  11.313  29.541   3.782
34599W        W94135  34.414  43.826   4.657
34600W        W94136  43.299   6.832   0.408
34601W        W94137  37.512   9.720  10.147
34602W        W94138  11.271  16.613  12.847
34603W        W94139   4.771  15.307  12.012
34604W        W94140  15.653  31.145  13.308
34605W        W94141   4.275  38.404  12.378
34606W        W94142   8.837  15.734  14.834
34607W        W94143   9.795   5.205  13.864
34608W        W94144  27.660  29.620   3.752
34609W        W94145  39.829  31.145   3.309
34610W        W94146  42.399   6.327   3.190
34611W        W94147  33.540   5.253  12.411
34612W        W94148   3.815  12.665   1.359
34613W        W94149  21.047   4.379   3.679
34614W        W94150  17.612   6.827   1.387
34615W        W94151  32.969   0.297  12.377
34616W        W94152  21.066  12.233   1.880
34617W        W94153  11.249  22.571   2.400
34618W        W94154  13.169  17.304  13.317
34619W        W94155   4.707  20.602   1.773
34620W        W94156  39.849   6.214   3.857
34621W        W94157   2.446  26.687   5.168
34622W        W94158  17.649   5.844   4.266
34623W        W94159  19.697   0.934   2.735
34624W        W94160  38.964   8.794  10.114
34625W        W94161   6.794  38.454   2.257
34626W        W94162  29.168  22.247  12.824
34627W        W94163   9.749   2.393  14.819
34628W        W94164  15.084  32.938  11.480
34629W        W94165  33.405  17.084   1.225
34630W        W94166  34.910  34.415   4.712
34631W        W94167  23.054   1.792   1.707
34632W        W94168   1.311  11.230   3.807
34633W        W94169  12.789   5.810  12.009
34634W        W94170  20.576  26.611   3.689
34635W        W94171  31.091  24.163   3.203
34636W        W94172  18.561  32.616  14.932
34637W        W94173  36.843  30.632  12.057
34638W        W94174  14.279  42.783   3.290
34639W        W94175  15.163  33.920  10.541
34640W        W94176  19.163  43.290   3.293
34641W        W94177  30.585  21.544   1.366
34642W        W94178  27.052   2.826  10.404
34643W        W94179  42.302  25.478   2.680
34644W        W94180  11.706   9.852  13.033
34645W        W94181   8.873  29.151   2.290
34646W        W94182   6.261  44.991  12.966
34647W        W94183  38.486  26.108   4.266
34648W        W94184  33.414  31.126   0.892
34649W        W94185  23.080  25.706   4.116
34650W        W94186  37.844  38.909   2.233
34651W        W94187  18.273  23.070  10.577
34652W        W94188  41.952  43.421   1.765
34653W        W94189  32.511   5.409  13.914
34654W        W94190  12.790  32.621   4.692
34655W        W94191  22.051   2.280   1.425
34656W        W94192   7.713  10.666  13.958
34657W        W94193  14.314  41.987   0.427
34658W        W94194  12.685  28.991   2.683
34659W        W94195  32.114  44.404   4.324
34660W        W94196  25.146   3.937  12.486
34661W        W94197  23.735  17.604   1.437
34662W        W94198  40.431  12.808   3.363
34663W        W94199  25.048  20.719   4.234
34664W        W94200  33.973  12.806   0.912
34665W        W94201  27.618   8.362  13.971
34666W        W94202  30.520  32.481   3.331
34667W        W94203  28.967   5.349  10.481
34668W        W94204  32.579  21.022   2.786
34669W        W94205  26.174  18.122  12.829
34670W        W94206  29.449  25.146  12.081
34671W        W94207  33.523  22.610  10.041
34672W        W94208  22.635  22.584   4.325
34673W        W94209  38.892  38.976   0.741
34674W        W94210  34.082   0.369   1.829
34675W        W94211  36.417   4.780   2.783
34676W        W94212   5.880  25.646   2.666
34677W        W94213  16.183   0.256   0.353
34678W        W94214  43.998  22.656  14.019
34679W        W94215   5.692  24.037   2.874
34680W        W94216  30.933  39.367   3.807
34681W        W94217  40.041  40.844   4.141
34682W        W94218   9.315  12.201   2.348
34683W        W94219   7.398  33.479  13.499
34684W        W94220  22.047   7.315  12.350
34685W        W94221  13.244   2.927  11.472
34686W        W94222  41.002  31.587  14.331
34687W        W94223  26.163  41.427  13.414
34688W        W94224  28.025   0.289   4.337
34689W        W94225  21.064   8.225  13.868
34690W        W94226   3.932  36.062  13.808
34691W        W94227  42.884  42.295  11.560
34692W        W94228   5.863  21.700  12.407
34693W        W94229  24.548  17.254   3.778
34694W        W94230  37.026  44.431   2.729
34695W        W94231  16.686  34.531   0.459
34696W        W94232  27.071  41.487  10.446
34697W        W94233  20.223   4.776   5.121
34698W        W94234  11.209  26.459  12.017
34699W        W94235  37.859   6.723   2.363
34700W        W94236  29.667   2.273   3.679
34701W        W94237  29.104  13.207   0.247
34702W        W94238   3.718  43.276  13.517
34703W        W94239  37.012  14.631  12.404
34704W        W94240  39.837  37.890   3.870
34705W        W94241  24.020  28.152   0.791
34706W        W94242  26.176  32.138   2.795
34707W        W94243  24.649  27.661   3.307
34708W        W94244  20.070  12.708  10.505
34709W        W94245  28.555  43.803   3.721
34710W        W94246  19.106  10.348  10.034
34711W        W94247  12.163   2.254  13.523
34712W        W94248  43.992   0.778  12.393
34713W        W94249  27.154   6.750   0.313
34714W        W94250  19.561  37.885  11.110
34715W        W94251  18.177  37.508  11.495
34716W        W94252  15.207  43.778   1.296
34717W        W94253  39.030  17.203  11.028
34718W        W94254  17.618  12.682   0.376
34719W        W94255  19.640  11.134   4.754
34720W        W94256   8.203  22.697   1.233
34721W        W94257  12.749   9.723  11.554
34722W        W94258  27.524  20.057   3.712
34723W        W94259  35.415  17.202  13.354
34724W        W94260  42.781   2.831  10.935
34725W        W94261   9.746   6.899   5.283
34726W        W94262  14.791  35.536   0.911
34727W        W94263  30.992   7.322  11.953
34728W        W94264   6.417  24.181   3.233
34729W        W94265  20.691  39.527   0.822
34730W        W94266  20.601  36.421  12.945
34731W        W94267  20.617  13.844   0.792
34732W        W94268  11.856  18.104  14.471
34733W        W94269   5.374  38.336   4.795
34734W        W94270  26.675  32.038   2.758
34735W        W94271  40.973  31.492  11.105
34736W        W94272   2.841  11.649   1.441
34737W        W94273  40.919   9.846   2.812
34738W        W94274   1.339  39.338   2.412
34739W        W94275   8.708   2.899   4.132
34740W        W94276   3.791  44.771  12.036
34741W        W94277  14.617  16.152  13.920
34742W        W94278  30.600  36.070   4.601
34743W        W94279  33.073  43.011   4.262
34744W        W94280  11.787  36.582   1.841
34745W        W94281  23.724   4.439  13.417
34746W        W94282  37.041  11.685   1.271
34747W        W94283  43.989  22.692   3.192
34748W        W94284  17.172  25.588  10.424
34749W        W94285  36.037  14.807   5.083
34750W        W94286   6.291  36.369   4.634
34751W        W94287  10.298   8.788  14.999
34752W        W94288  23.702  12.353   1.788
34753W        W94289  27.558  34.587   4.747
34754W        W94290   2.866  15.213  12.477
34755W        W94291  36.506  32.948  13.526
34756W        W94292  34.945  34.869   0.855
34757W        W94293  35.995   6.280  14.376
34758W        W94294   8.329  24.222   9.959
34759W        W94295  34.056  35.484   0.307
34760W        W94296   2.956   2.471  13.316
34761W        W94297  32.550  14.238   1.388
34762W        W94298  18.585  35.945  10.615
34763W        W94299  25.476  23.087   3.830
34764W        W94300  24.077  34.960  14.915
34765W        W94301  17.098  40.029   4.729
34766W        W94302  40.476   3.743   3.189
34767W        W94303   4.765  43.318  14.014
34768W        W94304   0.343  34.057   4.694
34769W        W94305  24.626  34.557   0.845
34770W        W94306  44.847  21.576  11.951
34771W        W94307   6.761  40.980   3.355
34772W        W94308  33.113   9.656   2.400
34773W        W94309   1.376  32.454  10.452
34774W        W94310  15.768  18.070  10.894
34775W        W94311  38.416   1.813   0.366
34776W        W94312   5.390  11.315   4.229
34777W        W94313   1.457  20.189  11.496
34778W        W94314  36.086   9.222   2.181
34779W        W94315  40.533  13.267   4.628
34780W        W94316  30.493  26.475  13.339
34781W        W94317  23.503   2.732  13.974
34782W        W94318   5.262  11.718  14.767
34783W        W94319  32.936  22.732   3.798
34784W        W94320  12.352  15.672  12.568
34785W        W94321  43.494  19.266   3.378
34786W        W94322   6.833  35.003  11.394
34787W        W94323  36.886  19.713   2.405
34788W        W94324  20.230  34.864  14.016
34789W        W94325   8.238  15.692   1.732
34790W        W94326  14.296  24.098  10.530
34791W        W94327  40.966  10.653   4.326
34792W        W94328  21.695  16.790   9.568
34793W        W94329  32.459  35.897  14.484
34794W        W94330  41.803   8.258  14.002
34795W        W94331  34.063  22.547  11.888
34796W        W94332  38.510  12.329   2.752
34797W        W94333  11.169  34.086  13.473
34798W        W94334  19.768  43.279   0.827
34799W        W94335   3.365   1.396  12.873
34800W        W94336  27.521  27.667   0.308
34801W        W94337   6.893   3.424   1.438
34802W        W94338  25.619  12.694  14.439
34803W        W94339   4.776   7.769   3.316
34804W        W94340  44.498   8.305  12.879
34805W        W94341  43.901  27.458   3.292
34806W        W94342  40.438  27.057   0.754
34807W        W94343  42.913   5.763   0.898
34808W        W94344  33.021  32.901   2.716
34809W        W94345  41.456  32.507  12.455
34810W        W94346  36.444  30.941  12.552
34811W        W94347  27.100  26.158   2.765
34812W        W94348   3.742  34.019   3.187
34813W        W94349   5.331  42.514  11.428
34814W        W94350  39.992  29.481  14.375
34815W        W94351   3.378  22.596   0.744
34816W        W94352  34.896  22.693   3.774
34817W        W94353  38.490   5.844  12.424
34818W        W94354  27.949  34.600  12.990
34819W        W94355  13.109  32.990  11.057
34820W        W94356  25.620  17.217  10.625
34821W        W94357  31.111  18.566   2.673
34822W        W94358  26.608   7.716  11.093
34823W        W94359   7.371  44.374   1.333
34824W        W94360  42.026  38.421   4.237
34825W        W94361  44.862  36.479   2.368
34826W        W94362  32.427  15.777  10.006
34827W        W94363  10.231  21.547  12.001
34828W        W94364  44.855   3.219   5.277
34829W        W94365  36.476  11.707   4.313
34830W        W94366  11.302   4.398  14.991
34831W        W94367  25.495   3.942   0.385
34832W        W94368   7.236  31.456  14.956
34833W        W94369  36.484  31.912  10.615
34834W        W94370  26.160   2.809   4.200
34835W        W94371  36.459  16.785   4.838
34836W        W94372  26.200  31.005   4.155
34837W        W94373  21.154  43.940   0.962
34838W        W94374  32.892  40.540  14.343
34839W        W94375  27.474   0.345  13.405
34840W        W94376  33.435  29.591  12.956
34841W        W94377  23.673  26.475   1.902
34842W        W94378  41.362   0.346   3.252
34843W        W94379  34.000  42.925   3.376
34844W        W94380   5.733  44.769  10.463
34845W        W94381  42.817  38.372  12.533
34846W        W94382  27.607  25.005   4.789
34847W        W94383   1.303  29.984  14.470
34848W        W94384  43.491  38.411   2.409
34849W        W94385   0.838  12.818  13.441
34850W        W94386  21.592  38.529  11.934
34851W        W94387  19.718  38.386   3.713
34852W        W94388  17.791  40.850  14.418
34853W        W94389   1.281   7.266  10.536
34854W        W94390  44.466  24.134   0.360
34855W        W94391  16.313  35.017  13.794
34856W        W94392   3.941   0.763   3.715
34857W        W94393  22.690  34.406   0.411
34858W        W94394   5.784  34.086  10.564
34859W        W94395  21.649   3.886  11.093
34860W        W94396   4.220  20.149   3.727
34861W        W94397  20.057  15.178  13.510
34862W        W94398  43.345  22.177  13.859
34863W        W94399  40.475   4.941  14.791
34864W        W94400   9.387  19.216   1.332
34865W        W94401   9.158  42.378  11.977
34866W        W94402  21.557  25.580  14.338
34867W        W94403   6.191  19.721   0.782
34868W        W94404   4.937  32.911   3.750
34869W        W94405  30.944  30.478   2.254
34870W        W94406  24.570   7.800  12.547
34871W        W94407   7.294  17.782   4.326
34872W        W94408  20.247  34.085  12.566
34873W        W94409  41.889  25.581  11.491
34874W        W94410  24.701  29.940   2.192
34875W        W94411   7.412  28.172   4.659
34876W        W94412   9.234   7.403  14.311
34877W        W94413  39.339   2.338  13.428
34878W        W94414  15.793  37.873  14.448
34879W        W94415   8.292  37.080   2.297
34880W        W94416  14.638  43.327  11.063
34881W        W94417  20.077  12.201   4.827
34882W        W94418   3.712  42.441   0.434
34883W        W94419  37.051  12.825  13.460
34884W        W94420  34.068  15.262   0.942
34885W        W94421  38.954  17.616  10.547
34886W        W94422  30.101  15.660   3.329
34887W        W94423  21.184  30.159  12.563
34888W        W94424  15.162  28.624   4.763
34889W        W94425  32.470  40.902  13.013
34890W        W94426   6.917  21.138  12.546
34891W        W94427   0.421   3.387  10.897
34892W        W94428  34.605  11.157   3.381
34893W        W94429  10.222  32.087  10.948
34894W        W94430  39.853   4.756   4.222
34895W        W94431   7.667  42.934  13.464
34896W        W94432  11.788   9.274  12.362
34897W        W94433  28.079  34.595   0.378
34898W        W94434  44.797  35.533   1.291
34899W        W94435  24.200   3.893  12.035
34900W        W94436  44.911  19.155  12.410
34901W        W94437  29.511  12.853  12.898
34902W        W94438  40.027  30.444   0.920
34903W        W94439  20.155  12.274  10.412
34904W        W94440  24.558  12.709  12.065
34905W        W94441  16.574  32.968  11.531
34906W        W94442  16.650  10.824   4.715
34907W        W94443   4.866  18.635   2.719
34908W        W94444  43.777  26.989   0.938
34909W        W94445  29.489  24.052   2.267
34910W        W94446  13.304  18.703   0.865
34911W        W94447  15.666   9.322   4.659
34912W        W94448  21.076  13.210   4.154
34913W        W94449  34.951   5.881   2.685
34914W        W94450  31.519  42.412  11.401
34915W        W94451  33.398  40.934  10.897
34916W        W94452  29.645  11.672   0.742
34917W        W94453  12.333  22.645   3.261
34918W        W94454  19.055  28.440   3.304
34919W        W94455  13.619  43.307   2.871
34920W        W94456   2.285  18.116   5.255
34921W        W94457  10.789   7.274   1.827
34922W        W94458  12.305  19.610   3.747
34923W        W94459   2.316  41.008  11.419
34924W        W94460   2.894  11.712   0.263
34925W        W94461  23.224   8.216   2.414
34926W        W94462  11.753   2.358   1.811
34927W        W94463   5.215   1.900   2.321
34928W        W94464  16.587  17.795   5.632
34929W        W94465  23.210  19.222  14.474
34930W        W94466  25.641  13.194  13.429
34931W        W94467  15.147   7.399  14.943
34932W        W94468  21.750   4.774  12.575
34933W        W94469  24.210   2.846   1.397
34934W        W94470  25.131  42.436   2.390
34935W        W94471  41.327  30.453  11.922
34936W        W94472   4.312  32.966   1.244
34937W        W94473  32.091  12.787   4.663
34938W        W94474  29.608   0.455  12.069
34939W        W94475  29.059  33.119  10.522
34940W        W94476  20.222   2.461  12.966
34941W        W94477  31.957  12.262  11.001
34942W        W94478  38.012  18.777   1.934
34943W        W94479  34.051  19.072   2.299
34944W        W94480  27.948   6.730  12.991
34945W        W94481   5.385  20.568  10.415
34946W        W94482  33.414  31.637   4.197
34947W        W94483   2.248  44.980   0.252
34948W        W94484   6.334  29.957  14.494
34949W        W94485  28.501  10.684  13.332
34950W        W94486  11.201  15.177   4.247
34951W        W94487  39.337  12.159   4.321
34952W        W94488   5.793  24.596  12.064
34953W        W94489   1.466   3.800   4.770
34954W        W94490  11.718  12.769  12.032
34955W        W94491  31.987  22.723   1.909
34956W        W94492  28.087   2.935  10.141
34957W        W94493  12.297  13.146   4.626
34958W        W94494  40.421  18.598  13.899
34959W        W94495  19.763  33.925  12.350
34960W        W94496  34.030  31.516   0.385
34961W        W94497  10.783  35.388   2.401
34962W        W94498  13.670   1.273   1.264
34963W        W94499  36.583  44.276  11.570
34964W        W94500  37.849  44.952  11.533
34965W        W94501  17.124  19.704   1.756
34966W        W94502  24.045  16.133   5.796
34967W        W94503  25.500  20.677   0.816
34968W        W94504  38.439   7.381   0.742
34969W        W94505  12.361   0.475   4.194
34970W        W94506   8.219   4.396   2.870
34971W        W94507   8.815  23.142  11.017
34972W        W94508  38.066  37.430   2.735
34973W        W94509  28.582   9.824  12.824
34974W        W94510  39.958  11.202   3.711
34975W        W94511  38.483  14.612   2.723
34976W        W94512   2.772  10.808  12.559
34977W        W94513  41.349  11.690   0.797
34978W        W94514  29.967   7.412   2.771
34979W        W94515  30.451  44.899  12.466
34980W        W94516   7.225   4.857   2.876
34981W        W94517  41.918  24.054  14.797
34982W        W94518  40.326   7.229  14.835
34983W        W94519   6.425  38.436   1.873
34984W        W94520  28.635   6.385   1.398
34985W        W94521   2.844  44.865  14.880
34986W        W94522  28.628  37.854   2.261
34987W        W94523  42.343  30.574  11.392
34988W        W94524  17.185  29.431  13.998
34989W        W94525  11.802   9.191   4.629
34990W        W94526  41.914  37.833  13.452
34991W        W94527   2.921  13.774   2.738
34992W        W94528   9.871  21.107   3.775
34993W        W94529  35.086  23.012  13.543
34994W        W94530  12.671   9.154   2.363
34995W        W94531  28.938  34.490  13.476
34996W        W94532   5.331   8.672  11.578
34997W        W94533   8.822  44.000  10.609
34998W        W94534   3.242  24.484   1.405
34999W        W94535  42.975  25.536  14.778
35000W        W94536  15.309  14.099  11.960
35001W        W94537   3.759  12.316  14.961
35002W        W94538  41.404   2.364  10.485
35003W        W94539  15.247  19.612   3.360
35004W        W94540  41.924  30.947  11.472
35005W        W94541  27.123  34.478  13.426
35006W        W94542  19.684  10.210  13.879
35007W        W94543  16.286  16.619   0.967
35008W        W94544  35.878  36.949   2.419
35009W        W94545  40.361  19.050  11.399
35010W        W94546  27.631  22.006  11.071
35011W        W94547  24.540   5.431  11.966
35012W        W94548  28.987  28.104  12.065
35013W        W94549  10.634  24.679   0.366
35014W        W94550  14.173  27.975  10.549
35015W        W94551  26.196  23.641  12.554
35016W        W94552  42.010  26.143   3.863
35017W        W94553  36.912  34.965   3.808
35018W        W94554  40.988   8.191   3.653
35019W        W94555  27.496   0.787  13.501
35020W        W94556  34.539  26.632   4.160
35021W        W94557  31.406   2.358   2.777
35022W        W94558  12.842   6.305  10.601
35023W        W94559  37.842  27.032   3.709
35024W        W94560  14.142  43.938   3.268
35025W        W94561  11.747  39.996  11.518
35026W        W94562  23.525  17.761  12.967
35027W        W94563  40.966  16.148   2.189
35028W        W94564   3.829   2.796  12.473
35029W        W94565  24.663  38.439  12.445
35030W        W94566  39.465  40.952  11.897
35031W        W94567  22.153   4.294  13.339
35032W        W94568  15.813  35.109   1.904
35033W        W94569  28.029  14.319   1.346
35034W        W94570  10.177  33.457  12.004
35035W        W94571  15.685   2.351  13.868
35036W        W94572  22.670   2.931  11.506
35037W        W94573  33.885   8.261   0.871
35038W        W94574  28.624  25.089   0.377
35039W        W94575  40.053  14.336   2.795
35040W        W94576  33.056   7.199   0.275
35041W        W94577   7.800  30.006  14.819
35042W        W94578  13.322  13.220  10.975
35043W        W94579  36.923   8.878  11.074
35044W        W94580  43.859  18.148  13.819
35045W        W94581  30.584  25.103  14.769
35046W        W94582  36.980  11.312  11.002
35047W        W94583  13.281  14.827  11.505
35048W        W94584  42.798  24.217   0.817
35049W        W94585  31.511  42.384   0.905
35050W        W94586  44.331  44.390   4.269
35051W        W94587  35.406  36.981   3.385
35052W        W94588   1.956   3.430   4.162
35053W        W94589  28.943  41.499   4.250
35054W        W94590  11.859  13.318  12.035
35055W        W94591   4.318  36.877   2.227
35056W        W94592  33.020  35.603   4.351
35057W        W94593  37.364  37.941   4.791
35058W        W94594  28.621  14.316   4.800
35059W        W94595  18.598  33.384  12.416
35060W        W94596  30.913  25.170   0.435
35061W        W94597  38.065  43.358  10.145
35062W        W94598  16.205   9.757   3.148
35063W        W94599  23.214  36.048  11.085
35064W        W94600  37.922   0.860   2.876
35065W        W94601   9.221  14.308  12.076
35066W        W94602  29.972   4.301   1.716
35067W        W94603   0.858  22.551   0.926
35068W        W94604  25.991   7.747  11.408
35069W        W94605  30.089   3.912   3.166
35070W        W94606   7.738   4.854  12.995
35071W        W94607  36.979  33.391  11.401
35072W        W94608  26.556  37.910   4.694
35073W        W94609  18.628  21.201   2.305
35074W        W94610  39.874  39.957  10.445
35075W        W94611  26.162  20.578  13.369
35076W        W94612  42.909  36.481  13.832
35077W        W94613   8.193  13.812   2.256
35078W        W94614  14.205  19.120  11.999
35079W        W94615  11.226  10.171   1.847
35080W        W94616  12.307  44.870   4.113
35081W        W94617  23.139   3.857   5.723
35082W        W94618  33.434   8.852   3.870
35083W        W94619  23.593  11.132   2.311
35084W        W94620  15.694  21.144   3.183
35085W        W94621  35.413   6.726  10.464
35086W        W94622  42.951  32.113  11.043
35087W        W94623  37.968  36.984  12.078
35088W        W94624  25.984   0.304   4.121
35089W        W94625  19.663  19.137   0.903
35090W        W94626  21.590   3.411   0.466
35091W        W94627  11.643  17.732  11.950
35092W        W94628  24.691   1.752   0.804
35093W        W94629  11.768  29.010  14.885
35094W        W94630   2.429  36.084  12.031
35095W        W94631  28.946  22.747   3.821
35096W        W94632  32.496  22.038   1.309
35097W        W94633  26.649  21.261  13.979
35098W        W94634  16.198   4.698  14.435
35099W        W94635   2.883  15.784   3.153
35100W        W94636  15.783  22.655  13.356
35101W        W94637   1.354  36.071  10.434
35102W        W94638  27.166  36.902   2.662
35103W        W94639  17.582  22.553  14.930
35104W        W94640  29.440  34.960   1.418
35105W        W94641  14.190  29.990  10.553
35106W        W94642   2.272  10.745  13.842
35107W        W94643  19.203   2.762  10.622
35108W        W94644  19.241  41.028  12.032
35109W        W94645   2.250   7.906  13.415
35110W        W94646  30.163   1.965   4.817
35111W        W94647   7.271   5.835  12.054
35112W        W94648   7.347  28.033  10.486
35113W        W94649   3.368   6.309   2.769
35114W        W94650   4.377  39.408  14.014
35115W        W94651  24.665  25.036  13.373
35116W        W94652  41.933   1.260  13.515
35117W        W94653  37.465  23.064   2.891
35118W        W94654  33.130  24.012  11.473
35119W        W94655   9.221  28.486  10.563
35120W        W94656   4.914  43.302   0.251
35121W        W94657  43.444  28.662   2.268
35122W        W94658  43.402  17.301  11.019
35123W        W94659  27.578   6.899   2.775
35124W        W94660  24.145  40.942  11.545
35125W        W94661  10.642   1.844  12.527
35126W        W94662  10.251  22.681   5.239
35127W        W94663  15.213  17.174  14.499
35128W        W94664  13.349  10.309   3.745
35129W        W94665  41.867  33.908  12.341
35130W        W94666   9.754  21.039   3.316
35131W        W94667  15.698  21.024   4.123
35132W        W94668  31.556  22.671  10.607
35133W        W94669  12.617   0.299  11.452
35134W        W94670  15.621   3.900   0.424
35135W        W94671  25.657  11.741  12.895
35136W        W94672   1.342   7.381  13.522
35137W        W94673  36.439   3.751  12.823
35138W        W94674   7.210  19.048  11.560
35139W        W94675   5.714  30.093  14.391
35140W        W94676   9.199   3.881   0.939
35141W        W94677  39.447  28.155  14.499
35142W        W94678  41.525  39.041  14.913
35143W        W94679  32.393  33.918  14.765
35144W        W94680   2.752  40.440  13.509
35145W        W94681  14.817  24.622   1.303
35146W        W94682  30.567  17.291   1.315
35147W        W94683  34.510  32.568  12.551
35148W        W94684   6.826   4.881  12.084
35149W        W94685  39.889  19.261  13.326
35150W        W94686   6.856  18.662  10.934
35151W        W94687  31.938  31.647  10.528
35152W        W94688   3.775  17.299  11.006
35153W        W94689   5.802  34.588  12.379
35154W        W94690  32.098  12.623   2.214
35155W        W94691  40.020   0.862   0.823
35156W        W94692  24.121  34.402  12.844
35157W        W94693   8.393  30.493   4.297
35158W        W94694  29.987  13.142  12.518
35159W        W94695  23.184  15.157   2.716
35160W        W94696  17.704  42.363   4.180
35161W        W94697   5.903  33.472  12.825
35162W        W94698  18.195   5.931   3.224
35163W        W94699   8.216  20.593   0.289
35164W        W94700  37.867  25.474   3.739
35165W        W94701  38.505   9.854   2.205
35166W        W94702  20.652  18.622  13.818
35167W        W94703  13.295  25.488  14.290
35168W        W94704   9.254  13.691   2.184
35169W        W94705   8.358  35.874   4.125
35170W        W94706   3.449   8.769   2.864
35171W        W94707  41.948  23.021   1.767
35172W        W94708  13.188  14.689  11.053
35173W        W94709   1.941  42.377  10.526
35174W        W94710  24.719  42.937   4.227
35175W        W94711  33.501  43.357  10.440
35176W        W94712  16.192  34.545  10.631
35177W        W94713  40.870  23.030   2.356
35178W        W94714  23.531  36.385  12.515
35179W        W94715   2.430  21.033   5.083
35180W        W94716  13.676  20.704   0.792
35181W        W94717  39.905   8.684  12.832
35182W        W94718  43.772  33.978  10.553
35183W        W94719  44.300  34.465   3.166
35184W        W94720  15.773  17.094  11.430
35185W        W94721  17.662  15.616  12.427
35186W        W94722  35.021  20.115   4.319
35187W        W94723  41.918  13.132   0.935
35188W        W94724  37.436  39.880   0.947
35189W        W94725  27.103  10.786  11.021
35190W        W94726   7.818   4.212  12.393
35191W        W94727  34.045  37.540   0.476
35192W        W94728  18.107  23.579   4.116
35193W        W94729  32.475  27.614   0.861
35194W        W94730  38.994  44.397  13.407
35195W        W94731  12.675  26.093   1.768
35196W        W94732   7.869  43.876   3.710
35197W        W94733  40.951  24.719  14.321
35198W        W94734  39.971  33.425  13.050
35199W        W94735  42.885  25.549   0.767
35200W        W94736  26.544  26.505   3.297
35201W        W94737  43.511  19.689  14.991
35202W        W94738  40.381   8.721  13.444
35203W        W94739   3.762   2.878   2.357
35204W        W94740  16.079  31.921  13.896
35205W        W94741  18.611  27.008  12.087
35206W        W94742  26.654  40.346   0.414
35207W        W94743  15.798  14.106  13.011
35208W        W94744  22.066   4.726  14.831
35209W        W94745  16.239   8.791   1.380
35210W        W94746   4.925   4.763   0.806
35211W        W94747  13.351  20.028   1.867
35212W        W94748  10.826  14.778   1.265
35213W        W94749  14.741  16.186   2.841
35214W        W94750  39.501  12.230  12.856
35215W        W94751  37.982   9.156   4.181
35216W        W94752  14.272  36.379   2.709
35217W        W94753  30.109  33.022  13.870
35218W        W94754  29.088  30.574  11.439
35219W        W94755   0.776  21.682  11.609
35220W        W94756   6.228  42.372   3.203
35221W        W94757  28.563   1.783   1.298
35222W        W94758  33.507  44.933  14.466
35223W        W94759  25.684  17.680  12.080
35224W        W94760   6.267   4.429  11.945
35225W        W94761  31.405   4.854  11.113
35226W        W94762   3.277   9.314   4.290
35227W        W94763  24.551  23.188   4.798
35228W        W94764   5.888   4.303   4.174
35229W        W94765  29.093  38.565   2.405
35230W        W94766  37.519  37.355  14.930
35231W        W94767  14.291  19.188   1.831
35232W        W94768   4.422  31.556   0.459
35233W        W94769  31.934  17.154  14.440
35234W        W94770  29.574  43.855  10.542
35235W        W94771  25.670  44.893  12.381
35236W        W94772  39.455  31.456   3.852
35237W        W94773  32.090  37.959  11.037
35238W        W94774  27.595   0.943  14.282
35239W        W94775  27.122  13.624   2.859
35240W        W94776   6.261  17.635  11.926
35241W        W94777  31.498  38.991  13.053
35242W        W94778  40.965  18.696  10.418
35243W        W94779  12.164  35.869  11.412
35244W        W94780  11.204  15.763   1.738
35245W        W94781  31.578  31.948   1.411
35246W        W94782  33.115  41.421   3.787
35247W        W94783   4.384   2.809  13.954
35248W        W94784  37.838  32.112   4.787
35249W        W94785  21.603   3.711  11.600
35250W        W94786  38.019  44.969   3.864
35251W        W94787   3.737  23.555  12.876
35252W        W94788  30.954   6.304  10.639
35253W        W94789  36.534  31.465  12.994
35254W        W94790  12.623  12.816   1.694
35255W        W94791   8.314  30.162  14.767
35256W        W94792  32.526  38.009  12.991
35257W        W94793  24.106  39.826  11.594
35258W        W94794  37.020  22.502  10.544
35259W        W94795  30.513  36.929  12.903
35260W        W94796  26.466   9.312   0.939
35261W        W94797   6.327  31.985   1.216
35262W        W94798  23.595  10.348  10.924
35263W        W94799  25.489  33.043  13.327
35264W        W94800  19.571  19.687  13.870
35265W        W94801  39.833   5.344  11.969
35266W        W94802  10.340  44.385  12.558
35267W        W94803   7.240  30.514  13.857
35268W        W94804  17.128   8.367   2.676
35269W        W94805  12.274   8.338   0.353
35270W        W94806  32.939  17.209  14.337
35271W        W94807  16.270   8.275  11.106
35272W        W94808  43.487   6.350   0.267
35273W        W94809  31.989  31.995  11.501
35274W        W94810  29.084   9.151   1.355
35275W        W94811  24.095  44.429   4.740
35276W        W94812  24.143   9.386  10.463
35277W        W94813  44.291  33.518   1.340
35278W        W94814   7.353  17.669   2.377
35279W        W94815   3.716  40.923   3.659
35280W        W94816  27.059  10.667   3.312
35281W        W94817  13.287  35.502   3.849
35282W        W94818  22.543  19.666   4.216
35283W        W94819   6.316   8.877   1.246
35284W        W94820  16.653  25.713  10.492
35285W        W94821   6.765  26.538  12.077
35286W        W94822  38.333  17.558  13.928
35287W        W94823   6.226   4.891  12.035
35288W        W94824  44.956  22.218  10.551
35289W        W94825  36.470   7.892   3.804
35290W        W94826  16.073  22.717   1.743
35291W        W94827   3.836  13.813  11.408
35292W        W94828  39.860  21.694   1.765
35293W        W94829  10.371  24.554   1.325
35294W        W94830  37.463  43.276  11.091
35295W        W94831  16.575  17.603  10.001
35296W        W94832  21.056  44.305   3.192
35297W        W94833   1.838   5.198  10.539
35298W        W94834  32.125  17.566   0.338
35299W        W94835  12.659  35.597   4.828
35300W        W94836  14.222  43.352  13.982
35301W        W94837  19.119  32.576   0.730
35302W        W94838  26.048  20.217  13.454
35303W        W94839   6.277  28.035  12.418
35304W        W94840  15.288  20.125   9.543
35305W        W94841  27.639  10.236  12.380
35306W        W94842  40.043   3.862   0.850
35307W        W94843  19.118  35.096   2.732
35308W        W94844  10.327   4.394  12.845
35309W        W94845  24.149  38.073  13.511
35310W        W94846  14.124  24.479  12.410
35311W        W94847  31.969  31.007  14.842
35312W        W94848   3.284  18.651   4.171
35313W        W94849   3.243   0.327  13.514
35314W        W94850  21.620  40.419  14.826
35315W        W94851   5.924  32.587  11.398
35316W        W94852   6.691  32.129  13.434
35317W        W94853  22.041  12.203   0.359
35318W        W94854  24.230   4.241   1.383
35319W        W94855  15.276  31.055  12.834
35320W        W94856   0.968  11.653   1.398
35321W        W94857  23.104  10.692  11.567
35322W        W94858   6.355  22.647   4.718
35323W        W94859  39.828   4.771   0.778
35324W        W94860  42.307  37.539  12.975
35325W        W94861  12.723   7.770   0.297
35326W        W94862  29.067  11.313  12.047
35327W        W94863  12.740  33.534  14.788
35328W        W94864  18.227  16.152  12.387
35329W        W94865   4.314  33.103  11.507
35330W        W94866  15.221  29.079   1.790
35331W        W94867  22.563   1.752   0.355
35332W        W94868  31.063  21.030  12.053
35333W        W94869  16.089   0.979  12.545
35334W        W94870  14.714  10.823   0.746
35335W        W94871  34.377  38.494   3.709
35336W        W94872   1.755  25.632   1.249
35337W        W94873  21.159  25.134   0.389
35338W        W94874   1.825   4.779   1.746
35339W        W94875  42.849  33.422  13.816
35340W        W94876   8.741  16.788  12.571
35341W        W94877  37.898  36.894  13.437
35342W        W94878  40.466  11.264   5.611
35343W        W94879  35.402  24.988   0.929
35344W        W94880  10.319  41.856  10.455
35345W        W94881   2.875  23.566  13.536
35346W        W94882  15.240  33.132   4.248
35347W        W94883  13.663   1.867  13.977
35348W        W94884  39.486  36.381   2.817
35349W        W94885  34.973  10.231   5.141
35350W        W94886  31.557  28.939  12.460
35351W        W94887  29.987  15.313  10.997
35352W        W94888  42.785  26.975  10.604
35353W        W94889  20.744  11.766  13.890
35354W        W94890  34.116  23.037  11.000
35355W        W94891   7.681  35.487   4.817
35356W        W94892  14.724  11.822  10.946
35357W        W94893   3.721  43.326   0.482
35358W        W94894  12.654   4.248   4.640
35359W        W94895  40.381  20.263  14.932
35360W        W94896  14.207  34.393   1.930
35361W        W94897  14.821   9.316  12.857
35362W        W94898   3.263  10.206   1.217
35363W        W94899  41.862  28.052  11.475
35364W        W94900  38.472  17.238  10.928
35365W        W94901   1.319  42.364  11.055
35366W        W94902  33.573   3.923   4.608
35367W        W94903  30.958   1.890  14.922
35368W        W94904  35.076   7.769  13.963
35369W        W94905  36.949  17.725  10.493
35370W        W94906   6.226  28.492  14.012
35371W        W94907   9.753  29.957   0.752
35372W        W94908  10.189  28.664  12.896
35373W        W94909  15.660  13.245  12.341
35374W        W94910  33.519   1.357  12.883
35375W        W94911  10.671  35.378  13.969
35376W        W94912   7.282  15.247   3.686
35377W        W94913  41.872  37.904   4.177
35378W        W94914  18.706  24.561  10.968
35379W        W94915   1.433  16.083   1.915
35380W        W94916  41.352  20.074   2.257
35381W        W94917  18.585  34.034   0.465
35382W        W94918  12.834  21.558   1.865
35383W        W94919   0.494   8.388   1.702
35384W        W94920   6.423  27.066  13.908
35385W        W94921  31.970  23.663  10.134
35386W        W94922  16.720  24.074  10.532
35387W        W94923  34.019  40.395  11.035
35388W        W94924  19.161  10.261   2.401
35389W        W94925  28.167   1.393  11.441
35390W        W94926  20.035  26.641  13.863
35391W        W94927   1.804   3.363  11.394
35392W        W94928  24.523  22.133   2.318
35393W        W94929  36.423   1.389   0.396
35394W        W94930  40.427   7.255   2.343
35395W        W94931  43.278  44.348  13.947
35396W        W94932   1.395  40.933   3.324
35397W        W94933  35.444   1.762  13.354
35398W        W94934   9.711  28.678   2.825
35399W        W94935  39.367  23.031   0.298
35400W        W94936   8.191  36.506  11.080
35401W        W94937   7.668  39.325  10.940
35402W        W94938  34.538   6.909   4.608
35403W        W94939  28.535   6.907  13.399
35404W        W94940   2.361   0.971  13.348
35405W        W94941  18.753  11.211   3.218
35406W        W94942  42.016  14.781   3.332
35407W        W94943   1.286  21.114   0.472
35408W        W94944  25.585  38.570  13.804
35409W        W94945  18.215  25.976   4.743
35410W        W94946  16.236   8.813   3.779
35411W        W94947  22.623  34.479  10.963
35412W        W94948  15.216   8.763   3.729
35413W        W94949  26.529  35.026   4.192
35414W        W94950  35.888   1.841  13.371
35415W        W94951  37.042  18.748  14.278
35416W        W94952   2.314  26.090  14.426
35417W        W94953   3.259   8.401  11.551
35418W        W94954  24.672   4.861   1.418
35419W        W94955   0.266   7.871   4.633
35420W        W94956  25.566   8.670   3.857
35421W        W94957  41.511  20.753  11.002
35422W        W94958  17.628  11.146   2.220
35423W        W94959  30.537  23.077   4.353
35424W        W94960  20.528  17.290   3.251
35425W        W94961  27.147  19.560   1.773
35426W        W94962   3.277  30.021  14.851
35427W        W94963  21.736  10.320   0.760
35428W        W94964  20.544  38.935   4.627
35429W        W94965  43.793  18.706  14.942
35430W        W94966  20.187   1.858   1.917
35431W        W94967   6.727   0.361   1.733
35432W        W94968   5.835  32.481   1.775
35433W        W94969  18.249  25.207   4.687
35434W        W94970   6.846   4.810  12.945
35435W        W94971   3.312  37.342   2.187
35436W        W94972  29.127  36.871   3.280
35437W        W94973  23.134   1.431   2.224
35438W        W94974  38.019  17.212  12.508
35439W        W94975  13.291  37.498  11.494
35440W        W94976  27.565  39.846   1.813
35441W        W94977   9.805  24.572   5.760
35442W        W94978  27.669   1.250   4.122
35443W        W94979  15.739  39.369  10.588
35444W        W94980  24.224   8.718   0.432
35445W        W94981  27.996  43.365  13.322
35446W        W94982  17.081  37.406   1.401
35447W        W94983  18.686  22.082   2.696
35448W        W94984  14.267  19.048   3.825
35449W        W94985  24.634  20.655   2.182
35450W        W94986  26.532  26.463  14.450
35451W        W94987  18.652   8.731   3.305
35452W        W94988   2.362  28.098  12.558
35453W        W94989  36.854  27.063   1.413
35454W        W94990  21.516  19.095   2.804
35455W        W94991  27.105  15.677  11.858
35456W        W94992   6.237  12.160   0.735
35457W        W94993  25.128  34.025  11.899
35458W        W94994  13.711  21.527   2.745
35459W        W94995   9.865  43.875  11.014
35460W        W94996  31.093   7.899  10.421
35461W        W94997  41.311  19.215  12.470
35462W        W94998  27.574  32.140   4.773
35463W        W94999  29.058  13.202   2.835
35464W        W95000  32.920  29.505   9.505
35465W        W95001  29.558  38.889   0.357
35466W        W95002  16.270  30.417  10.633
35467W        W95003  13.157  31.998  14.782
35468W        W95004  32.430  29.573   2.687
35469W        W95005  14.657   3.285   3.746
35470W        W95006  19.631  17.582   2.774
35471W        W95007   0.900  10.297  12.372
35472W        W95008  13.265  43.376  11.548
35473W        W95009  36.854  20.529   3.294
35474W        W95010  28.516  39.356   2.256
35475W        W95011   5.875  22.072   2.806
35476W        W95012   4.247  12.838  10.473
35477W        W95013  10.324  27.554  13.311
35478W        W95014  13.129  44.995  11.059
35479W        W95015  40.351  19.178  11.072
35480W        W95016  33.122  12.637   2.742
35481W        W95017  28.633  17.638  12.921
35482W        W95018   6.347  31.936  14.922
35483W        W95019  31.113  44.782   0.459
35484W        W95020  27.552   0.945   2.733
35485W        W95021  16.220  24.006   4.794
35486W        W95022  16.619   7.215   3.286
35487W        W95023  11.841   5.396  14.983
35488W        W95024  41.486   7.697   2.349
35489W        W95025  13.340  23.068   3.678
35490W        W95026  23.676  16.111  13.519
35491W        W95027  30.039  40.378   1.862
35492W        W95028  25.209  38.385  10.900
35493W        W95029  11.811  15.663  12.902
35494W        W95030  26.183  12.742  14.846
35495W        W95031  18.129  41.930  10.489
35496W        W95032  36.974  22.233  10.612
35497W        W95033  15.328  11.817  13.343
35498W        W95034   4.425   3.440  13.923
35499W        W95035  44.446  14.165   4.272
35500W        W95036  18.271  37.540   1.266
35501W        W95037  22.068  15.658   5.316
35502W        W95038  29.947   5.281   2.228
35503W        W95039  28.087  29.601  11.528
35504W        W95040   8.702  36.970  13.395
35505W        W95041  34.488  15.735  13.944
35506W        W95042  33.484  26.048  12.827
35507W        W95043   0.482   5.415  10.990
35508W        W95044  35.570   1.472  14.291
35509W        W95045  38.388  36.859  12.055
35510W        W95046  38.551   3.869   1.801
35511W        W95047  20.237  11.320  10.509
35512W        W95048  19.655  22.124   3.263
35513W        W95049  31.040  38.984  14.369
35514W        W95050  37.906  29.050  12.035
35515W        W95051  31.014  13.324  12.483
35516W        W95052  14.760  41.469  12.004
35517W        W95053  23.179  25.114   2.222
35518W        W95054  29.097  29.001   1.891
35519W        W95055   8.781  42.031   4.785
35520W        W95056  15.217  21.627  12.011
35521W        W95057   6.314  21.228   2.831
35522W        W95058   4.935  38.374  14.964
35523W        W95059   5.690  15.812   2.840
35524W        W95060   1.407   0.298   2.183
35525W        W95061  29.129   2.253   3.782
35526W        W95062  40.943  26.099  11.086
35527W        W95063  32.003  33.941   3.229
35528W        W95064  30.481  30.514   0.414
35529W        W95065  41.043  40.439   4.763
35530W        W95066  17.590   8.681  14.896
35531W        W95067  35.506  20.700  11.024
35532W        W95068  36.974  17.619  13.375
35533W        W95069  25.204  17.200   0.381
35534W        W95070   3.874  12.809  10.493
35535W        W95071   3.832  29.527  10.519
35536W        W95072   9.667  25.038   0.265
35537W        W95073  15.754  25.659   3.697
35538W        W95074   2.384  17.755   3.642
35539W        W95075  10.756  38.029  12.371
35540W        W95076   5.887  44.772  13.924
35541W        W95077   3.346   3.895   4.608
35542W        W95078   9.190  40.856   3.670
35543W        W95079  33.920  26.507  14.501
35544W        W95080  44.827  12.218  14.458
35545W        W95081  29.601   0.849  10.429
35546W        W95082  26.034  31.968  13.040
35547W        W95083  11.625   4.299  11.573
35548W        W95084  12.167   9.788  13.791
35549W        W95085  13.154  37.049   2.327
35550W        W95086  27.556  16.648  10.913
35551W        W95087  11.720  26.054  11.072
35552W        W95088   1.944  44.343  11.083
35553W        W95089   2.884  36.871  14.335
35554W        W95090  29.162  39.845  12.992
35555W        W95091  22.068  16.755   1.850
35556W        W95092   8.393   8.323   2.248
35557W        W95093  33.589  17.603  13.376
35558W        W95094  42.413  42.816   2.852
35559W        W95095  39.481  26.633   0.413
35560W        W95096  17.280   8.844   0.460
35561W        W95097  24.034  31.018  12.089
35562W        W95098  37.531  13.731   3.666
35563W        W95099  16.232  16.317  12.339
35564W        W95100  39.037   6.298  12.858
35565W        W95101  34.368  40.832   1.872
35566W        W95102   0.482  43.975  14.962
35567W        W95103  41.883  29.168   3.300
35568W        W95104  40.459  31.638   4.810
35569W        W95105  16.612   7.390  11.597
35570W        W95106  12.756  29.669  13.462
35571W        W95107  34.080   7.187   2.234
35572W        W95108  44.824  25.141   2.267
35573W        W95109  42.397  41.863  10.917
35574W        W95110   3.344  43.831  12.462
35575W        W95111  37.835   2.733   3.289
35576W        W95112  39.893  16.304   2.346
35577W        W95113  16.081  33.605   1.800
35578W        W95114   3.873  40.838  10.894
35579W        W95115  44.300  41.348   4.724
35580W        W95116   5.690  17.145  12.405
35581W        W95117  29.112  25.612  12.068
35582W        W95118  14.816   5.203   0.368
35583W        W95119  33.901  13.164  11.976
35584W        W95120  37.451  35.931   3.705
35585W        W95121  24.649  18.788   0.840
35586W        W95122  34.102  39.401   1.784
35587W        W95123  34.468  10.816  12.968
35588W        W95124  29.576  24.541  11.884
35589W        W95125  11.705  20.130  13.377
35590W        W95126  16.770   6.317   0.251
35591W        W95127  20.576   2.415   3.272
35592W        W95128  27.191  20.724   3.811
35593W        W95129  20.572  26.168  14.347
35594W        W95130  43.870  26.583   1.345
35595W        W95131   2.845  43.382   3.770
35596W        W95132  32.550  39.986   3.332
35597W        W95133  16.747   9.855  12.537
35598W        W95134   9.889  17.660  11.373
35599W        W95135  16.086  13.257   3.339
35600W        W95136  12.850  32.888  14.921
35601W        W95137   5.214  21.080   5.158
35602W        W95138   6.226  13.183   2.784
35603W        W95139   9.333  27.660  10.106
35604W        W95140  37.541  13.289   3.378
35605W        W95141  35.381  36.522   1.873
35606W        W95142   4.904  36.456  10.419
35607W        W95143  34.545  30.564  12.470
35608W        W95144  31.572   1.804  12.981
35609W        W95145  37.862  40.934  12.414
35610W        W95146  25.114  11.814  14.024
35611W        W95147  26.546  25.208  12.380
35612W        W95148  34.444  21.721   2.667
35613W        W95149  28.945  17.232   2.386
35614W        W95150  12.636  41.399   0.402
35615W        W95151  27.951  43.396  14.337
35616W        W95152   3.446  36.856  14.773
35617W        W95153  29.112  15.199  10.439
35618W        W95154  29.095  12.239   2.418
35619W        W95155  22.191   5.285  14.275
35620W        W95156  30.139  10.859   0.899
35621W        W95157  26.500  17.664   4.204
35622W        W95158   6.324  36.016   3.817
35623W        W95159  33.019  16.681  11.555
35624W        W95160   2.855   6.277  13.475
35625W        W95161  44.415  12.122   0.360
35626W        W95162  13.809  42.996  14.912
35627W        W95163   0.806  12.769   1.442
35628W        W95164  19.146  30.923  11.611
35629W        W95165  38.363  11.193  14.002
35630W        W95166  23.726   8.379  11.012
35631W        W95167   6.784  10.221  14.024
35632W        W95168  15.614  23.571  10.525
35633W        W95169  15.142  36.477  10.957
35634W        W95170   5.412  39.378   1.224
35635W        W95171   4.802  17.777   4.607
35636W        W95172  41.447  34.922  10.906
35637W        W95173  39.885  36.355   2.280
35638W        W95174  35.931  41.467   0.792
35639W        W95175  44.864  18.781   0.461
35640W        W95176   2.908  39.865  14.840
35641W        W95177  19.690  40.382   3.797
35642W        W95178   8.194   4.313   4.800
35643W        W95179  25.055  30.100   3.822
35644W        W95180  23.618  20.752  13.040
35645W        W95181  21.696  40.377  11.496
35646W        W95182  23.162   0.348  11.531
35647W        W95183   7.249  10.723   2.886
35648W        W95184  41.042  42.414  13.983
35649W        W95185  41.840  30.080   0.853
35650W        W95186  34.094  22.593   1.290
35651W        W95187  39.953  27.139  10.417
35652W        W95188  34.592   3.344   2.286
35653W        W95189  14.133  23.531   0.781
35654W        W95190  32.447  18.090  11.573
35655W        W95191  20.242   1.474  14.475
35656W        W95192  28.657  25.687  13.951
35657W        W95193  25.675  32.048   0.939
35658W        W95194  40.341  15.316  14.320
35659W        W95195  14.117   1.799   4.266
35660W        W95196  18.078  26.635   0.443
35661W        W95197  39.853  39.008   4.668
35662W        W95198  24.147  22.142   1.760
35663W        W95199  22.533  18.782   2.318
35664W        W95200  36.979  41.526   1.223
35665W        W95201  43.940  20.659  10.554
35666W        W95202  33.004  33.984   1.364
35667W        W95203  29.601  27.108  10.441
35668W        W95204  20.740   4.211   5.574
35669W        W95205  31.084  44.392  11.574
35670W        W95206  32.579  26.700  12.437
35671W        W95207  18.077  16.098  13.988
35672W        W95208  18.701  10.802   3.155
35673W        W95209  12.659  20.575   3.311
35674W        W95210   0.936   3.345  14.503
35675W        W95211   7.829  40.371  10.576
35676W        W95212  28.084   1.483   2.680
35677W        W95213  16.202  20.059  13.969
35678W        W95214  18.696   1.413  14.018
35679W        W95215   9.172  32.902  14.927
35680W        W95216  21.177  35.424   4.728
35681W        W95217  24.681   9.747   4.228
35682W        W95218  23.627  39.974   0.800
35683W        W95219  10.648   9.189   0.473
35684W        W95220  43.396  28.626   0.311
35685W        W95221  35.943   0.986  13.002
35686W        W95222   1.889   1.344  11.900
35687W        W95223  23.997   3.355   4.749
35688W        W95224  21.727  35.043  12.876
35689W        W95225   2.404  15.313   3.776
35690W        W95226   2.243   8.286   0.803
35691W        W95227  24.010  36.429  14.026
35692W        W95228  21.040   6.791   3.651
35693W        W95229  26.464  17.140   2.355
35694W        W95230  27.998  22.236   3.272
35695W        W95231  41.038  33.021   3.839
35696W        W95232  21.579  13.821  13.534
35697W        W95233  12.122   1.257   0.372
35698W        W95234  24.501  31.971   3.698
35699W        W95235  30.917  31.912  13.529
35700W        W95236   2.467  30.447  11.536
35701W        W95237  40.537  21.138   2.667
35702W        W95238  29.142  27.043   1.393
35703W        W95239  26.070  11.740   1.850
35704W        W95240  41.816  36.494   3.329
35705W        W95241  38.991   3.234  11.455
35706W        W95242   1.928  13.678  13.868
35707W        W95243   4.331   8.704   2.826
35708W        W95244  28.064  32.612   4.113
35709W        W95245  44.298  21.049   0.312
35710W        W95246  25.693  40.895  11.023
35711W        W95247  43.870  14.817  10.065
35712W        W95248  16.799  15.648  10.988
35713W        W95249  14.191  22.179   4.682
35714W        W95250  32.057  37.041  14.936
35715W        W95251  34.998  23.214  11.601
35716W        W95252  11.183   4.368   4.333
35717W        W95253  30.613  24.164  13.489
35718W        W95254   7.707   3.930   3.674
35719W        W95255  34.401  18.754  10.988
35720W        W95256  10.311   5.316   1.832
35721W        W95257  43.986  37.851  12.904
35722W        W95258  24.190   4.248  13.883
35723W        W95259  22.702  39.518  13.927
35724W        W95260  41.362  17.142  13.949
35725W        W95261   3.884   2.866  12.078
35726W        W95262  36.055  39.408  13.004
35727W        W95263  14.182  11.365  12.859
35728W        W95264  43.474  40.426  13.831
35729W        W95265  31.632  12.142   3.308
35730W        W95266  21.559  36.579  12.537
35731W        W95267  19.739  44.771   3.650
35732W        W95268  20.192   4.306   0.418
35733W        W95269   0.417  26.548  10.053
35734W        W95270   1.244  44.469  12.519
35735W        W95271  26.181  29.608   3.345
35736W        W95272  25.587   7.316   3.330
35737W        W95273  28.119  37.919  14.970
35738W        W95274  34.877   0.328  13.381
35739W        W95275  38.442  29.973   1.241
35740W        W95276   4.743  38.339  11.410
35741W        W95277  29.443   3.286  12.346
35742W        W95278   0.304   1.445  10.605
35743W        W95279  11.758  32.410   4.132
35744W        W95280  27.126  12.283   3.689
35745W        W95281  19.690  29.937   4.333
35746W        W95282  15.185  35.587  11.553
35747W        W95283  14.313  44.953   1.317
35748W        W95284  19.187  23.200  12.039
35749W        W95285  33.018  17.786  10.591
35750W        W95286  24.573   0.429   3.288
35751W        W95287  34.475  10.179   0.915
35752W        W95288  13.252  30.153  11.414
35753W        W95289  44.843  20.646  11.449
35754W        W95290  38.825   8.793   2.889
35755W        W95291  16.167  27.535  12.088
35756W        W95292  35.861  26.632  13.411
35757W        W95293  11.287  39.438  13.793
35758W        W95294  23.515  15.790   0.912
35759W        W95295  43.017  36.841  13.447
35760W        W95296  31.904   9.378   4.812
35761W        W95297  19.725  17.709   3.242
35762W        W95298  42.438  11.700   0.461
35763W        W95299  14.234  24.008   4.282
35764W        W95300  44.457  11.162  13.474
35765W        W95301   2.735  30.055  13.460
35766W        W95302  33.597   6.182   1.376
35767W        W95303  33.389   8.206  12.987
35768W        W95304  28.160   1.907   2.338
35769W        W95305   4.881  20.043   4.183
35770W        W95306  33.492  36.377  10.470
35771W        W95307  19.691   6.406   3.835
35772W        W95308  17.167  18.647   5.216
35773W        W95309  11.191  33.626   2.357
35774W        W95310  35.077  30.054   2.718
35775W        W95311  37.351  40.339  12.896
35776W        W95312  24.111  22.741   1.890
35777W        W95313  39.906  28.053  11.483
35778W        W95314  19.771  41.510  13.380
35779W        W95315  10.322  40.871   3.179
35780W        W95316   7.714   9.345  10.505
35781W        W95317  44.927   0.980  14.478
35782W        W95318  16.137   6.706  12.500
35783W        W95319   4.206  40.531   4.641
35784W        W95320  40.368  42.453   1.420
35785W        W95321  10.793   3.397  14.298
35786W        W95322  33.576   9.767  12.499
35787W        W95323  41.371  12.848  13.961
35788W        W95324  41.909  33.912   3.298
35789W        W95325  41.899  39.343   0.908
35790W        W95326   5.382  13.175  14.372
35791W        W95327   5.769   9.848   1.317
35792W        W95328  37.375  42.498   1.891
35793W        W95329   6.416  22.617  12.460
35794W        W95330  22.088   2.450  13.408
35795W        W95331  40.961  12.630   3.376
35796W        W95332  23.190  12.125   1.341
35797W        W95333   0.334  35.379   2.892
35798W        W95334  29.134  13.777   1.217
35799W        W95335  13.262  39.489   2.342
35800W        W95336  42.344   9.235  13.948
35801W        W95337  39.870  21.662   2.693
35802W        W95338  16.116  24.052   2.210
35803W        W95339  34.036  43.431   2.884
35804W        W95340  27.196   6.408   3.270
35805W        W95341  18.692  12.850  13.023
35806W        W95342  13.349  13.626   3.146
35807W        W95343  44.969  43.449  10.563
35808W        W95344  18.707   2.315   0.774
35809W        W95345  22.060  19.737   0.792
35810W        W95346   3.829  22.572  13.793
35811W        W95347  37.983  21.585  12.872
35812W        W95348  32.898  23.514   3.328
35813W        W95349  38.558  26.181   0.269
35814W        W95350  34.087  41.942  13.053
35815W        W95351  26.180   7.708  14.927
35816W        W95352  15.764  43.457  12.497
35817W        W95353   5.710  44.845  14.459
35818W        W95354  24.669  14.101   3.298
35819W        W95355   0.851  12.843   2.799
35820W        W95356  15.812  24.597  11.434
35821W        W95357  41.521  43.819  11.480
35822W        W95358  24.026  31.424   2.688
35823W        W95359  41.894   8.825  14.510
35824W        W95360   0.416  10.258   4.301
35825W        W95361  30.446  21.051  14.013
35826W        W95362   9.155  39.445   2.193
35827W        W95363   5.336  25.633  14.429
35828W        W95364  17.255  30.430   0.363
35829W        W95365  24.697  11.209  14.951
35830W        W95366  25.122  40.983   4.829
35831W        W95367  43.889   5.225  11.551
35832W        W95368  34.517  19.732   3.670
35833W        W95369  38.033  23.149  12.029
35834W        W95370  41.499   6.922   1.318
35835W        W95371  23.587   6.199   4.246
35836W        W95372  36.061  10.228   4.304
35837W        W95373  20.527   8.691  13.976
35838W        W95374   6.767  25.507   4.262
35839W        W95375  14.136  37.926   0.895
35840W        W95376  30.438  40.040  12.447
35841W        W95377  41.377  19.192   3.728
35842W        W95378  24.156  42.986   4.633
35843W        W95379   0.494   4.787   4.242
35844W        W95380  28.080  19.759  10.116
35845W        W95381   8.224  17.660  13.995
35846W        W95382  25.033  33.941   1.912
35847W        W95383   5.720  25.208   3.709
35848W        W95384   9.807  25.170   4.201
35849W        W95385  26.598  14.233  10.986
35850W        W95386  13.267   0.987   0.278
35851W        W95387  36.038  24.693  11.879
35852W        W95388  39.961  26.685  11.005
35853W        W95389  13.749   0.939   3.327
35854W        W95390  38.066  27.129  11.048
35855W        W95391  10.752  33.548  13.943
35856W        W95392  29.601  36.530  13.349
35857W        W95393  37.009  21.230  11.934
35858W        W95394  39.922  22.510  14.832
35859W        W95395   2.727   0.746  10.465
35860W        W95396  19.694  10.692   0.821
35861W        W95397  34.090  16.763   4.736
35862W        W95398  31.926   2.784  14.480
35863W        W95399   3.439  15.667  14.399
35864W        W95400   9.297  30.522   0.894
35865W        W95401   1.254   6.736   3.230
35866W        W95402  37.403  34.377  14.832
35867W        W95403  12.772   8.248  14.914
35868W        W95404  17.634  25.630   2.669
35869W        W95405  11.298  27.537  12.981
35870W        W95406  39.909  39.979  13.982
35871W        W95407   3.937  21.098   1.759
35872W        W95408  11.852  23.658   2.704
35873W        W95409  32.907  44.300   4.145
35874W        W95410  14.814   7.355  14.851
35875W        W95411  39.052   8.242  11.380
35876W        W95412  44.488  43.009  13.858
35877W        W95413  10.258   9.175  11.532
35878W        W95414   5.804  16.244   4.203
35879W        W95415   6.375  37.838   1.871
35880W        W95416   8.895  41.292  11.111
35881W        W95417  19.717  44.288  11.007
35882W        W95418   4.735  20.535   3.741
35883W        W95419   4.266  21.730  10.960
35884W        W95420  10.813  22.089  10.585
35885W        W95421  13.217  10.868  11.611
35886W        W95422   1.965  44.349  14.913
35887W        W95423  23.556  38.454  11.112
35888W        W95424   9.375  14.258   0.364
35889W        W95425  35.964  12.341  12.453
35890W        W95426  31.100  28.546   2.394
35891W        W95427  11.195  38.466   3.814
35892W        W95428  35.492  40.941   0.346
35893W        W95429  10.647   3.922  13.319
35894W        W95430  15.809  14.125  13.351
35895W        W95431  44.803  36.510   0.371
35896W        W95432  33.087  13.110   0.878
35897W        W95433  21.017  10.746  11.880
35898W        W95434  16.285   4.227   2.315
35899W        W95435   3.885  43.948  13.447
35900W        W95436  37.860  11.196   4.116
35901W        W95437   0.747   6.904   2.706
35902W        W95438  16.749  31.525  14.464
35903W        W95439  31.538   6.753   3.188
35904W        W95440  15.581  24.101  13.473
35905W        W95441  21.260  11.756  12.892
35906W        W95442  15.629  41.794   3.363
35907W        W95443  21.258  30.641  14.763
35908W        W95444  13.308  35.975  14.984
35909W        W95445  13.787  15.823  12.924
35910W        W95446   4.344  15.190  11.463
35911W        W95447  18.606  13.736   3.273
35912W        W95448  30.023  30.443   1.878
35913W        W95449  40.917   6.303  14.342
35914W        W95450   0.848   7.295   3.181
35915W        W95451  15.202  21.196   1.745
35916W        W95452   8.710  24.087  13.835
35917W        W95453  16.597  14.603   1.850
35918W        W95454   6.397  33.504  12.410
35919W        W95455  43.767   8.272  14.970
35920W        W95456   9.190   5.774   3.806
35921W        W95457  23.564  13.170   0.418
35922W        W95458  34.562  25.549   2.825
35923W        W95459   8.821  36.368   1.318
35924W        W95460  17.200  38.842  10.056
35925W        W95461  38.936  19.178   2.867
35926W        W95462   9.332  29.518  12.465
35927W        W95463  10.173  43.331  10.446
35928W        W95464   3.369   5.389   4.675
35929W        W95465   3.281  22.210   3.333
35930W        W95466  18.176   8.236   3.209
35931W        W95467   3.805  10.304   1.718
35932W        W95468  21.081   6.724  12.965
35933W        W95469  18.777  43.302  11.899
35934W        W95470   2.249  20.549   2.705
35935W        W95471  33.041  15.673  14.834
35936W        W95472  11.778  12.219   3.651
35937W        W95473  16.251  42.415   0.900
35938W        W95474  18.085  16.310   1.917
35939W        W95475  11.203  17.065  13.895
35940W        W95476  44.784  15.251   1.856
35941W        W95477   8.706  21.184  14.424
35942W        W95478  34.099   3.799   3.859
35943W        W95479   0.412  29.454  13.940
35944W        W95480  27.956  10.152   3.336
35945W        W95481  27.138  29.502  11.913
35946W        W95482  11.621  13.723   3.775
35947W        W95483  24.184  12.209   0.357
35948W        W95484  25.666  16.788   0.760
35949W        W95485  37.540  13.200   4.713
35950W        W95486  14.156   6.308   4.174
35951W        W95487  28.612  40.403   2.255
35952W        W95488  33.505  36.874   0.387
35953W        W95489   4.363   8.196   1.791
35954W        W95490  23.650   5.871  14.510
35955W        W95491  21.262  23.716  13.455
35956W        W95492  20.562  40.544  12.350
35957W        W95493  12.237   9.866   4.256
35958W        W95494  29.942  27.448  11.492
35959W        W95495  37.876  32.993   3.871
35960W        W95496  28.184   3.338   3.378
35961W        W95497  43.818   2.747   4.315
35962W        W95498  43.979  24.145  10.968
35963W        W95499   4.894   2.253  13.873
35964W        W95500  15.161  40.007  10.920
35965W        W95501  38.861  38.434   1.927
35966W        W95502  15.313  14.271   1.784
35967W        W95503  22.176  29.533   3.156
35968W        W95504  30.000   6.251  14.774
35969W        W95505  28.958  13.200   0.851
35970W        W95506  11.705  13.783   0.849
35971W        W95507  18.638  25.583   2.209
35972W        W95508  13.344   2.938  11.024
35973W        W95509   3.308   7.745   5.158
35974W        W95510  17.632  39.918   0.736
35975W        W95511  40.858  11.752  11.461
35976W        W95512  15.692  38.405  14.916
35977W        W95513  17.259  18.176   4.311
35978W        W95514  33.020  18.546   1.867
35979W        W95515   5.231  10.348  12.461
35980W        W95516   6.873   9.218   4.333
35981W        W95517  11.311  14.594   3.636
35982W        W95518  13.130  26.046   3.757
35983W        W95519  26.180  16.165  12.916
35984W        W95520  10.342  33.393  11.125
35985W        W95521   0.321  38.886   1.353
35986W        W95522  42.287  20.639   0.314
35987W        W95523  20.735   7.756  13.985
35988W        W95524  20.075  26.972  10.981
35989W        W95525  36.417  43.914  10.101
35990W        W95526  44.812  16.797  14.277
35991W        W95527  25.622   4.448   3.309
35992W        W95528  15.639  30.060  10.628
35993W        W95529   0.746   0.921   0.401
35994W        W95530   1.932   1.341   3.301
35995W        W95531  42.392   4.303   3.859
35996W        W95532  30.965  10.264  10.093
35997W        W95533  39.435  12.696  13.374
35998W        W95534  19.224  37.062   0.373
35999W        W95535  44.762  40.329  13.925
36000W        W95536   0.792  32.981  11.920
36001W        W95537  28.110  20.194  13.403
36002W        W95538  17.183  35.875  13.869
36003W        W95539  27.525   7.676  10.591
36004W        W95540  31.098  11.739  14.779
36005W        W95541  37.981  35.971   1.419
36006W        W95542  28.115  26.058  14.472
36007W        W95543   2.867  19.185  11.005
36008W        W95544  16.256  21.046  14.301
36009W        W95545  10.290  34.951  10.527
36010W        W95546  10.330  41.839   0.788
36011W        W95547  18.133   3.849  12.856
36012W        W95548  11.373  20.236  13.956
36013W        W95549  21.571  29.143  11.467
36014W        W95550   1.283  17.762  11.063
36015W        W95551  14.154   1.773  11.100
36016W        W95552  12.262  33.498  14.821
36017W        W95553   7.357  10.347   3.720
36018W        W95554  33.937   3.789   9.615
36019W        W95555  22.074  34.037  14.305
36020W        W95556  29.556  27.056  14.837
36021W        W95557   4.340   5.282   1.816
36022W        W95558  44.789  39.367  13.030
36023W        W95559   7.338  26.690   0.251
36024W        W95560  23.033  27.596  10.426
36025W        W95561  44.421  40.847  11.603
36026W        W95562  31.559  40.509  13.382
36027W        W95563  29.555  19.100   1.865
36028W        W95564  32.945  10.807   3.708
36029W        W95565  40.522  35.960  10.897
36030W        W95566  29.458  43.899  13.520
36031W        W95567   8.889  36.997  12.565
36032W        W95568  14.303  38.419  11.051
36033W        W95569  12.120  43.430  14.925
36034W        W95570  14.764  35.881  13.492
36035W        W95571  30.153   2.830  14.275
36036W        W95572  12.135  27.946   2.227
36037W        W95573   7.851  40.384   1.254
36038W        W95574  31.428  39.944  14.396
36039W        W95575   3.280  42.370   2.834
36040W        W95576   1.270  28.151   2.205
36041W        W95577  44.410  27.609  11.424
36042W        W95578  19.597  43.936  13.515
36043W        W95579   7.179  19.210   3.743
36044W        W95580  27.027  25.123   3.802
36045W        W95581  18.232  35.918  10.548
36046W        W95582  30.541  24.583   1.891
36047W        W95583  13.142  12.626  12.486
36048W        W95584   7.859  16.153   3.664
36049W        W95585  32.463  31.529   4.142
36050W        W95586   6.363  28.631  10.154
36051W        W95587  14.805   9.813   2.822
36052W        W95588   4.393  26.954  13.861
36053W        W95589  28.598   7.793  13.454
36054W        W95590  38.979  29.015  14.849
36055W        W95591  15.248   4.796  11.978
36056W        W95592  33.084  41.449  14.924
36057W        W95593   7.716  19.043  14.486
36058W        W95594  27.650   4.445  14.497
36059W        W95595  18.647   8.851  14.323
36060W        W95596  34.942   3.829   3.865
36061W        W95597  42.462  33.564   2.758
36062W        W95598  44.464   9.240   0.916
36063W        W95599  32.942  15.786   2.852
36064W        W95600  44.868   1.249  10.954
36065W        W95601  17.243  43.941   1.343
36066W        W95602  28.455  25.968   4.207
36067W        W95603  23.158  37.059  14.391
36068W        W95604  40.022  25.165   1.819
36069W        W95605  42.788  15.297  12.040
36070W        W95606  20.094  16.280  10.951
36071W        W95607  33.116  37.342   4.815
36072W        W95608  14.312  30.583   3.648
36073W        W95609  42.388  30.933  11.068
36074W        W95610  31.050  27.649   4.333
36075W        W95611  20.245   5.398   3.719
36076W        W95612  16.255  15.270  12.015
36077W        W95613  29.010  21.540  12.461
36078W        W95614  10.736   9.863   0.312
36079W        W95615   0.827  30.092  14.924
36080W        W95616  11.763  29.083   1.415
36081W        W95617  18.626  25.585  14.831
36082W        W95618  18.565   6.791   4.808
36083W        W95619  35.480  32.579  14.458
36084W        W95620  38.963   9.291   2.357
36085W        W95621  33.975  24.704  14.285
36086W        W95622  15.278  36.986  14.029
36087W        W95623  25.631  42.321  12.440
36088W        W95624  30.058  42.423   3.697
36089W        W95625  42.807  10.830   2.690
36090W        W95626   8.692  39.468  11.481
36091W        W95627   5.736  18.106   3.189
36092W        W95628   6.244  12.312  13.966
36093W        W95629  11.836  42.801  11.860
36094W        W95630  25.214   0.942   3.310
36095W        W95631  31.417   7.842  13.505
36096W        W95632  30.978  12.184  13.400
36097W        W95633   0.755  20.146   4.822
36098W        W95634   5.922  17.093   0.420
36099W        W95635  39.005   8.403   4.284
36100W        W95636  40.996   4.424  10.626
36101W        W95637  18.562  37.398  11.967
36102W        W95638   0.261  38.069  10.502
36103W        W95639  25.692  33.086   0.906
36104W        W95640  34.394  40.944   2.223
36105W        W95641  32.524  34.478   4.760
36106W        W95642  44.346  41.792   1.797
36107W        W95643  44.312  36.467   2.309
36108W        W95644  18.155  14.250  10.588
36109W        W95645  27.589  22.067  12.473
36110W        W95646  26.509   4.224   9.660
36111W        W95647  35.507  32.592   2.312
36112W        W95648  25.968  13.796   1.741
36113W        W95649   7.665  39.894  10.427
36114W        W95650  38.052   8.667  11.491
36115W        W95651  19.115  39.521   0.779
36116W        W95652  41.293   6.761  13.403
36117W        W95653  18.270  23.003  14.879
36118W        W95654  44.884  39.834   1.269
36119W        W95655  22.662  11.352   4.235
36120W        W95656   1.773  40.939  11.989
36121W        W95657  40.949   1.783  11.515
36122W        W95658   2.376   2.400   3.153
36123W        W95659  12.309  16.660  12.894
36124W        W95660  28.653   4.905   2.259
36125W        W95661  24.512  39.345   5.799
36126W        W95662   8.332  36.373  11.425
36127W        W95663  37.395  21.074   4.782
36128W        W95664  32.498  37.532   2.192
36129W        W95665   3.318  16.698   1.275
36130W        W95666  28.136   8.192   3.237
36131W        W95667  39.394  29.041  11.390
36132W        W95668  17.107  39.953  11.885
36133W        W95669  28.987   6.385   3.271
36134W        W95670  37.553  36.943  13.826
36135W        W95671  19.224  11.726   2.245
36136W        W95672  43.935  36.372  13.498
36137W        W95673   2.812  11.350  13.847
36138W        W95674  31.523  23.043   0.924
36139W        W95675  16.226  44.005   2.842
36140W        W95676  36.366  21.202   0.383
36141W        W95677  38.370  19.606   4.727
36142W        W95678  16.195   0.844  13.421
36143W        W95679  19.579  37.087  10.979
36144W        W95680  34.549  42.981  10.453
36145W        W95681  29.114  22.582  10.960
36146W        W95682  17.800   5.265   4.675
36147W        W95683  28.449  17.197  13.918
36148W        W95684  19.224  37.394  12.472
36149W        W95685  27.629  30.051  11.535
36150W        W95686  30.478   9.728   4.681
36151W        W95687  36.047  44.923   4.653
36152W        W95688  17.193  30.465  12.393
36153W        W95689  12.694  31.520   2.265
36154W        W95690   7.392  30.138  15.000
36155W        W95691  37.571   8.350   3.194
36156W        W95692  14.667  36.090   1.404
36157W        W95693  15.783  11.363  10.547
36158W        W95694  18.707   0.931  13.464
36159W        W95695  31.467   0.248   1.826
36160W        W95696  20.071  25.524   4.819
36161W        W95697  41.516  35.585  14.421
36162W        W95698  38.382  27.478  11.890
36163W        W95699  28.480  43.894  12.948
36164W        W95700   3.292   6.355  12.843
36165W        W95701  35.861  11.188   3.672
36166W        W95702  10.733  39.433   2.292
36167W        W95703  44.996   6.346   4.696
36168W        W95704   8.872  13.201  13.914
36169W        W95705  40.358  35.052  13.364
36170W        W95706   0.828  11.701  13.029
36171W        W95707   1.407   8.832   0.767
36172W        W95708  38.939  26.671   1.804
36173W        W95709  27.171  13.249   0.358
36174W        W95710  28.170   1.345   2.274
36175W        W95711  14.593  10.870   1.859
36176W        W95712   9.674   2.296  13.879
36177W        W95713   5.209  19.176  14.015
36178W        W95714  13.185   1.745   4.833
36179W        W95715   2.367  21.031  14.492
36180W        W95716   7.824  15.815  11.917
36181W        W95717  32.461  36.488  13.841
36182W        W95718   3.428  13.211   1.906
36183W        W95719  33.532  36.509  14.283
36184W        W95720  40.440  27.510   4.634
36185W        W95721  17.202  24.024   3.732
36186W        W95722   3.872  19.128   3.312
36187W        W95723  18.686  30.038   2.852
36188W        W95724  42.922  24.596  13.841
36189W        W95725  20.045  17.759  13.826
36190W        W95726  17.080  33.503  13.926
36191W        W95727  27.683  42.873   0.353
36192W        W95728  36.859  34.613  12.450
36193W        W95729  15.821  10.200   0.376
36194W        W95730   6.242  21.593  13.901
36195W        W95731  21.554  31.118  11.460
36196W        W95732  11.793  13.754   4.262
36197W        W95733   9.173  38.023   3.854
36198W        W95734  31.021  21.017  10.422
36199W        W95735  32.066  29.619  14.404
36200W        W95736  23.706  17.196  14.443
36201W        W95737  25.609  34.934   0.339
36202W        W95738  37.411  43.814  10.961
36203W        W95739   9.228  26.681  13.983
36204W        W95740  19.040  17.228  14.998
36205W        W95741   4.852  18.596  12.467
36206W        W95742  30.067   9.759   3.361
36207W        W95743  32.975   1.790   0.910
36208W        W95744  35.870  11.281   2.223
36209W        W95745  11.241   1.327   3.364
36210W        W95746  32.130  38.930   1.770
36211W        W95747  14.187  21.707  10.965
36212W        W95748  15.266   9.368  13.958
36213W        W95749  24.045  25.632  10.594
36214W        W95750  25.211  23.539  13.357
36215W        W95751  35.109  24.153   4.348
36216W        W95752  40.845  33.450  13.343
36217W        W95753  35.019  37.851   2.305
36218W        W95754  41.000  44.892  11.867
36219W        W95755  33.966   0.829  14.803
36220W        W95756  31.943  44.797  11.395
36221W        W95757  16.777  44.419   3.652
36222W        W95758  34.878  35.567   1.738
36223W        W95759  29.105  28.643   4.257
36224W        W95760  38.511  18.628   2.415
36225W        W95761  38.491  40.979  13.450
36226W        W95762  26.955  25.495  11.604
36227W        W95763  43.471  25.642   0.358
36228W        W95764   1.244  11.668   1.355
36229W        W95765  18.706   9.288  13.909
36230W        W95766  11.805  22.561  14.373
36231W        W95767   0.981   8.264  10.406
36232W        W95768   2.435  43.458  11.485
36233W        W95769  16.097  24.171  14.819
36234W        W95770  44.272  41.042   0.747
36235W        W95771  12.149  33.010   3.801
36236W        W95772  23.984  41.526  14.872
36237W        W95773  20.152  10.157   1.748
36238W        W95774  22.648  36.909   5.196
36239W        W95775   6.804  24.113   3.384
36240W        W95776   3.805  43.976   0.809
36241W        W95777  44.440  17.138  10.904
36242W        W95778  16.715  41.026  14.929
36243W        W95779  33.060  37.550   0.396
36244W        W95780  13.341  42.868   2.776
36245W        W95781  31.604  25.141   2.898
36246W        W95782  41.815  30.071  14.775
36247W        W95783   8.297   9.763  11.419
36248W        W95784  21.073  24.710   1.735
36249W        W95785  12.254   4.830   1.443
36250W        W95786  11.687   0.926   1.405
36251W        W95787   9.666  34.944  12.072
36252W        W95788   6.920  22.511   1.326
36253W        W95789   4.413  36.477  14.441
36254W        W95790  26.953  38.515  12.355
36255W        W95791  43.451  38.846  11.513
36256W        W95792  12.267  44.390   3.328
36257W        W95793  21.616  34.380   1.826
36258W        W95794   1.783  34.083  14.404
36259W        W95795  33.528   1.811   0.894
36260W        W95796  12.763  16.239   3.176
36261W        W95797  24.692  36.922   1.899
36262W        W95798  11.141  20.140   1.832
36263W        W95799   6.902  15.739  12.020
36264W        W95800   3.826  12.756  14.819
36265W        W95801  15.329  44.342  13.846
36266W        W95802  44.399   1.395  11.393
36267W        W95803  33.595  13.351   3.783
36268W        W95804   1.808  41.417   4.645
36269W        W95805  15.723  25.656  11.071
36270W        W95806  30.947  35.582   1.827
36271W        W95807  12.720   5.932   2.841
36272W        W95808  23.603   3.451   3.692
36273W        W95809   9.301  11.830  12.051
36274W        W95810  40.999   8.333   2.704
36275W        W95811  39.470   1.833  14.405
36276W        W95812  19.260  35.860  14.816
36277W        W95813  35.387  26.626  14.880
36278W        W95814  16.693  14.607  11.930
36279W        W95815  21.532  10.643   0.803
36280W        W95816  18.225  38.539   1.933
36281W        W95817  31.028  42.458  12.549
36282W        W95818  32.613   0.333  11.047
36283W        W95819  25.553  33.440   1.440
36284W        W95820   2.891  34.371   2.746
36285W        W95821   9.815  31.139   3.368
36286W        W95822   2.775   8.713   3.754
36287W        W95823   4.857  44.955  13.823
36288W        W95824  31.137  29.470   3.751
36289W        W95825  35.393  14.151  12.355
36290W        W95826  41.512  18.782  13.402
36291W        W95827  18.289   9.884   2.205
36292W        W95828  39.842  13.714   1.323
36293W        W95829  37.434  18.275  10.092
36294W        W95830  16.123  23.206  11.474
36295W        W95831  23.123  37.911   3.160
36296W        W95832  11.289  30.431  12.542
36297W        W95833  15.112  39.387   0.368
36298W        W95834  19.183  11.233   2.686
36299W        W95835   5.422  11.214  10.570
36300W        W95836  11.230  22.646   2.867
36301W        W95837  19.178  43.894  14.844
36302W        W95838  30.573  15.122  12.456
36303W        W95839  35.598  22.195   1.399
36304W        W95840   1.941  21.038   2.868
36305W        W95841  31.937  42.494   0.401
36306W        W95842  37.552  10.173   3.222
36307W        W95843  13.251  25.008  10.410
36308W        W95844  36.081  40.028   2.232
36309W        W95845  25.106  10.311  13.332
36310W        W95846  34.579  43.778   4.352
36311W        W95847  12.358   8.328  14.773
36312W        W95848   5.338  34.514  14.899
36313W        W95849   4.333  14.834  14.915
36314W        W95850  34.575  14.189  11.925
36315W        W95851  10.844  16.706  11.505
36316W        W95852   1.477  10.343  13.955
36317W        W95853  35.581   5.292  10.558
36318W        W95854  27.575   2.268  14.512
36319W        W95855  33.923  37.004   1.896
36320W        W95856  12.656  31.985   3.657
36321W        W95857  23.697  11.194   1.276
36322W        W95858  17.632   1.345  14.986
36323W        W95859  26.640  42.453   3.843
36324W        W95860  23.013  35.884  12.347
36325W        W95861  17.760   8.347   2.798
36326W        W95862  21.649  43.961   2.779
36327W        W95863  15.125  13.187  14.888
36328W        W95864  29.498  11.181   1.364
36329W        W95865  44.381  13.174  14.810
36330W        W95866   4.297  43.767   2.712
36331W        W95867  41.315  19.758  13.989
36332W        W95868  22.744  43.366   4.633
36333W        W95869   8.766  40.933  14.767
36334W        W95870   0.318  42.499   4.822
36335W        W95871  14.616  17.276  11.582
36336W        W95872  33.879  18.234   0.898
36337W        W95873   3.304  33.526  10.607
36338W        W95874  10.868  40.364   2.178
36339W        W95875   4.230  11.262  11.864
36340W        W95876  41.532  37.553   1.869
36341W        W95877   2.898   5.845  10.469
36342W        W95878  26.654  31.068   2.213
36343W        W95879  20.048  24.012  13.891
36344W        W95880  30.929  17.675   0.958
36345W        W95881  17.589  14.248   0.346
36346W        W95882  39.453  28.501   4.291
36347W        W95883  20.607  24.148   2.723
36348W        W95884  40.494   2.730   4.249
36349W        W95885  38.922  41.903   2.269
36350W        W95886   4.308   9.822  11.421
36351W        W95887   0.432   5.322   3.854
36352W        W95888  42.292  16.236   3.670
36353W        W95889  41.833   2.402  10.999
36354W        W95890  32.075  14.675   1.220
36355W        W95891  39.892  40.528  12.571
36356W        W95892   7.877  41.396   0.768
36357W        W95893  23.204  29.026   2.221
36358W        W95894   5.691  25.082  10.543
36359W        W95895   9.764   6.391   5.706
36360W        W95896  42.924   4.903   3.852
36361W        W95897  15.185  18.092  14.847
36362W        W95898  43.922   8.361  14.471
36363W        W95899  10.373  33.605   2.261
36364W        W95900  22.705   2.226  13.409
36365W        W95901  30.654  25.012   3.316
36366W        W95902   5.308  39.416   3.383
36367W        W95903   9.213  27.113  11.392
36368W        W95904  31.453   0.391   0.409
36369W        W95905  14.689  30.076  14.407
36370W        W95906   7.311  33.011   1.772
36371W        W95907  36.456  23.547   5.178
36372W        W95908  25.019  20.708   0.435
36373W        W95909  38.357  37.474  10.058
36374W        W95910   2.283  25.595  14.485
36375W        W95911   3.410  12.826  13.338
36376W        W95912  32.132   9.236  14.949
36377W        W95913  32.593   2.465  11.386
36378W        W95914  39.467   6.849   3.812
36379W        W95915   8.398  37.955  14.368
36380W        W95916  38.565  13.816  11.091
36381W        W95917  10.381   0.283  11.060
36382W        W95918  35.995  18.549  13.320
36383W        W95919  37.339  43.820  13.792
36384W        W95920  33.577   4.256   5.230
36385W        W95921   6.227  32.558   0.422
36386W        W95922  11.677  21.724  12.994
36387W        W95923   0.377   4.314  11.594
36388W        W95924   3.294   9.828  12.070
36389W        W95925  20.191  11.140   0.758
36390W        W95926  42.785  10.272  14.437
36391W        W95927   4.231  32.100   3.696
36392W        W95928  25.529  16.638  10.523
36393W        W95929  40.518  24.008  10.934
36394W        W95930   5.772  11.843   1.335
36395W        W95931  14.284  12.755  13.361
36396W        W95932  33.433  14.767  11.977
36397W        W95933  19.717   7.709  13.483
36398W        W95934   8.747  27.631   0.300
36399W        W95935  11.735  40.822  11.935
36400W        W95936  11.324  40.487  12.467
36401W        W95937  13.225  17.778  12.464
36402W        W95938  33.404  41.859   3.632
36403W        W95939  36.565  18.233  11.986
36404W        W95940  13.722  19.600   3.365
36405W        W95941  16.191  25.037  12.499
36406W        W95942  33.117  37.890   0.801
36407W        W95943  37.375  11.688  14.016
36408W        W95944  34.892  13.664   2.751
36409W        W95945  37.011  18.201   0.319
36410W        W95946  38.026  36.904   3.283
36411W        W95947  38.916  13.171  13.871
36412W        W95948  14.760  33.534  11.471
36413W        W95949  37.341  26.681   3.273
36414W        W95950  23.991  39.520  10.021
36415W        W95951   3.238  34.008  13.320
36416W        W95952  31.523  43.430   4.697
36417W        W95953  19.145  40.484  13.876
36418W        W95954  22.124  34.568  14.515
36419W        W95955   5.334   6.295  13.474
36420W        W95956  13.727   9.868  13.351
36421W        W95957   0.304  30.920  13.854
36422W        W95958  32.478   3.320   0.353
36423W        W95959   7.842  16.156   0.400
36424W        W95960  37.422  18.606   0.461
36425W        W95961  44.269  19.547   1.853
36426W        W95962  39.946  14.666  13.794
36427W        W95963  41.365  43.398  12.860
36428W        W95964  37.480  34.547  11.586
36429W        W95965  36.415  44.765  10.051
36430W        W95966  24.058   2.949  10.554
36431W        W95967  15.140  15.170  11.479
36432W        W95968  16.218  15.286   3.265
36433W        W95969   8.717  29.124   3.368
36434W        W95970  37.045  41.355   3.227
36435W        W95971  20.150  28.532  12.880
36436W        W95972  12.800  21.547  14.010
36437W        W95973  35.985  34.485   0.863
36438W        W95974  40.369  31.070   4.117
36439W        W95975   8.683  18.061  10.115
36440W        W95976  13.665   7.771  11.958
36441W        W95977  44.781   9.859  13.884
36442W        W95978  41.534  27.075  13.008
36443W        W95979   7.243  22.619  14.976
36444W        W95980  23.068  26.585   1.363
36445W        W95981  20.633   2.741  13.949
36446W        W95982   3.426  37.028   4.666
36447W        W95983  29.064   3.409   5.316
36448W        W95984   2.761  14.317  11.029
36449W        W95985  35.413  30.041   0.480
36450W        W95986  23.097  14.707   4.347
36451W        W95987   6.264  29.618  10.153
36452W        W95988  12.694  23.126   1.928
36453W        W95989  35.468  28.479   1.777
36454W        W95990  32.589  14.807  10.974
36455W        W95991  22.185  33.117  13.905
36456W        W95992  12.240  18.666  14.812
36457W        W95993  26.591   1.834   4.789
36458W        W95994  35.443   0.407   1.754
36459W        W95995  18.602  36.588   0.338
36460W        W95996  38.500  22.572  11.938
36461W        W95997  10.768   4.718   1.372
36462W        W95998  13.242  24.048  14.015
36463W        W95999  24.108  44.395  10.403
36464W        W96000  32.487  34.997  10.929
36465W        W96001  44.498  27.172   0.243
36466W        W96002  31.623  33.042   1.913
36467W        W96003  41.014  21.033  10.491
36468W        W96004  24.488  44.866   4.627
36469W        W96005  20.563  41.406  10.495
36470W        W96006  27.983  21.044   1.915
36471W        W96007   1.448  13.673   1.799
36472W        W96008  35.602  38.022   2.681
36473W        W96009  25.143  30.907   1.886
36474W        W96010  30.572  27.522   3.652
36475W        W96011   1.465  41.508   0.852
36476W        W96012  10.190  30.938  13.353
36477W        W96013   6.398   8.183  14.824
36478W        W96014  42.442  41.342  12.363
36479W        W96015  14.196   8.163   5.221
36480W        W96016  17.134   4.345  10.518
36481W        W96017  30.628  22.594   3.764
36482W        W96018  29.002  21.049   4.265
36483W        W96019  18.757  38.867   3.729
36484W        W96020  38.559  35.540  14.411
36485W        W96021   7.863   5.297  11.540
36486W        W96022   6.243  43.958  13.318
36487W        W96023  31.036  16.138  14.851
36488W        W96024  12.667  20.574   4.197
36489W        W96025  20.531  38.558   1.733
36490W        W96026  15.170  28.596  14.770
36491W        W96027   7.832  14.704   1.925
36492W        W96028  39.423  34.952  14.011
36493W        W96029  11.808   1.314   4.179
36494W        W96030  15.233  30.931   0.762
36495W        W96031   2.790  22.540  14.964
36496W        W96032   7.739  17.075   3.799
36497W        W96033  33.955  41.308   2.257
36498W        W96034  37.545  41.301  13.541
36499W        W96035  22.509  43.430  13.875
36500W        W96036  20.595  12.821  14.501
36501W        W96037  10.645  35.925   4.726
36502W        W96038  42.362   5.315   4.218
36503W        W96039  10.198   2.248  10.924
36504W        W96040   8.667  12.251   1.898
36505W        W96041  42.888  11.685   1.235
36506W        W96042  22.039   1.907  12.021
36507W        W96043   6.241  42.897  10.555
36508W        W96044  16.584  17.174  12.009
36509W        W96045  13.627  21.598  11.105
36510W        W96046  21.570   4.884   2.714
36511W        W96047  29.482   9.196   3.634
36512W        W96048  35.544   0.350  10.943
36513W        W96049   9.254  16.590   4.805
36514W        W96050  40.463  30.492   0.817
36515W        W96051  26.507   3.737   0.879
36516W        W96052   5.819   1.477   0.876
36517W        W96053  36.037  35.933  13.432
36518W        W96054   5.708  15.786  13.897
36519W        W96055  32.541  11.774   3.209
36520W        W96056  28.604  21.215   4.223
36521W        W96057   9.824  24.019   4.176
36522W        W96058  13.195  29.473   3.307
36523W        W96059   2.411  11.856   2.867
36524W        W96060   6.824   3.851   3.846
36525W        W96061   7.197  31.571  11.894
36526W        W96062  17.191  27.624  11.466
36527W        W96063  26.999  43.497  14.966
36528W        W96064   7.276  15.169   2.882
36529W        W96065  23.157  26.702  11.075
36530W        W96066   4.427  13.299  11.061
36531W        W96067  16.115   4.410   3.215
36532W        W96068   9.197  20.198   0.727
36533W        W96069  27.653  22.638   4.288
36534W        W96070  32.476  32.077   4.771
36535W        W96071  15.163  42.453   4.647
36536W        W96072  23.680  14.786   3.225
36537W        W96073  17.252   6.782  10.518
36538W        W96074  32.977   7.855  11.006
36539W        W96075  14.692  14.591  11.914
36540W        W96076  38.459  37.939   0.962
36541W        W96077   1.787   8.289  13.501
36542W        W96078   0.789   8.864   3.185
36543W        W96079  33.456  35.533   2.703
36544W        W96080   6.288  25.675  10.404
36545W        W96081  41.993  12.272  12.468
36546W        W96082   8.264  39.994   0.807
36547W        W96083  10.842  17.605   2.839
36548W        W96084  41.400  36.861   2.274
36549W        W96085  23.706  13.107  12.420
36550W        W96086   0.887   1.779  11.940
36551W        W96087  20.054  11.740   4.649
36552W        W96088  35.476  14.775   4.309
36553W        W96089  44.488  23.589  13.469
36554W        W96090   9.314  43.302  14.406
36555W        W96091  13.304   8.185  10.088
36556W        W96092  24.513   8.278  10.488
36557W        W96093   4.903  44.430  13.812
36558W        W96094  35.022  18.293   2.716
36559W        W96095  40.045  26.700  11.546
36560W        W96096  28.536  37.548   0.442
36561W        W96097  42.475  17.076   4.192
36562W        W96098  12.279  26.649  12.861
36563W        W96099  32.938   9.225   3.843
36564W        W96100  44.981  24.111  14.378
36565W        W96101  25.551  15.788  10.993
36566W        W96102   9.833   6.856  13.976
36567W        W96103  17.664  31.471  11.436
36568W        W96104  13.338  20.202   0.793
36569W        W96105  24.530   6.185  14.337
36570W        W96106  33.046  13.146  10.970
36571W        W96107   5.352  43.001   0.739
36572W        W96108  14.206  34.455  12.370
36573W        W96109  37.477   7.797   4.762
36574W        W96110  14.206  28.033  14.407
36575W        W96111  40.494  24.123   3.293
36576W        W96112  19.084  12.801   0.915
36577W        W96113  17.182  18.657   1.411
36578W        W96114  33.099  35.558  12.388
36579W        W96115  14.717  43.776   3.816
36580W        W96116  24.578  25.586  12.569
36581W        W96117  13.115  10.709  10.507
36582W        W96118   5.889  36.371  14.315
36583W        W96119  28.065  12.168   4.280
36584W        W96120  38.442  43.954   0.288
36585W        W96121  40.003  13.783  11.377
36586W        W96122   0.825   0.421   0.752
36587W        W96123  41.028  24.543   3.278
36588W        W96124  39.943  18.265  13.858
36589W        W96125  10.643  19.569  11.960
36590W        W96126  35.461  33.067  14.342
36591W        W96127  36.004  39.820   0.761
36592W        W96128   5.772  22.102  14.926
36593W        W96129   1.260  15.801  12.090
36594W        W96130  16.738  26.542   0.366
36595W        W96131  28.079  37.833  12.979
36596W        W96132  20.144   5.361  12.519
36597W        W96133   4.279  10.682   0.908
36598W        W96134  37.542  36.534   5.130
36599W        W96135  21.721  40.394  12.825
36600W        W96136  14.636  19.574   2.343
36601W        W96137  40.323   7.864   2.690
36602W        W96138   7.787  12.610  14.437
36603W        W96139   2.434  44.425   4.309
36604W        W96140   9.303  27.626   2.398
36605W        W96141  20.569  12.707  14.016
36606W        W96142  20.588  28.655  12.365
36607W        W96143  44.383  24.166   3.649
36608W        W96144  23.573   2.743   4.674
36609W        W96145  41.853   6.828  10.409
36610W        W96146  32.070  36.909  12.353
36611W        W96147  21.054  16.285   1.910
36612W        W96148  31.516  11.763   3.277
36613W        W96149  35.978  29.171   3.682
36614W        W96150  23.581  19.244   4.637
36615W        W96151   3.356  15.093   3.343
36616W        W96152  19.234  41.857  13.995
36617W        W96153  34.035   6.410   1.715
36618W        W96154  12.637  10.367   0.385
36619W        W96155  18.208  29.431   4.624
36620W        W96156  17.093  39.857  12.894
36621W        W96157  23.164  18.211  13.417
36622W        W96158  20.143  34.024   0.769
36623W        W96159  38.058  37.075   4.722
36624W        W96160  33.529  20.714   1.432
36625W        W96161  16.601   4.257   3.186
36626W        W96162  13.328  29.661   2.220
36627W        W96163  14.699  44.981  12.393
36628W        W96164  14.740  34.450   2.868
36629W        W96165  16.169  42.330   3.846
36630W        W96166  41.862  40.970   1.383
36631W        W96167  21.700  30.566   2.408
36632W        W96168  32.969  31.037   1.390
36633W        W96169  17.740   2.335   2.701
36634W        W96170  26.131  28.006   0.356
36635W        W96171  15.139   2.316   1.744
36636W        W96172   6.385   2.765  11.375
36637W        W96173  25.495   4.933  12.441
36638W        W96174  33.986   7.728  12.975
36639W        W96175  32.143  37.905   0.773
36640W        W96176  20.133  26.591  10.435
36641W        W96177  32.043  21.610   3.800
36642W        W96178   9.244  11.315   2.753
36643W        W96179  37.981  35.487  11.486
36644W        W96180   2.903   9.673   2.827
36645W        W96181  26.507  24.153  11.391
36646W        W96182   8.680   3.938  13.004
36647W        W96183  17.072  36.988   0.760
36648W        W96184  31.959  40.328  14.489
36649W        W96185  13.188  32.489  14.900
36650W        W96186   2.833  29.497  10.948
36651W        W96187  13.789   6.747  14.025
36652W        W96188   3.756  34.939   1.853
36653W        W96189  11.219  12.750  13.800
36654W        W96190   8.165  31.978  12.565
36655W        W96191  34.506  29.503   4.743
36656W        W96192   4.347  24.071   2.832
36657W        W96193   5.280  11.261   0.845
36658W        W96194  42.373  21.587  11.031
36659W        W96195   4.714  27.001   4.625
36660W        W96196   4.341  16.616  12.985
36661W        W96197   8.763  14.325   4.344
36662W        W96198   1.307   7.684  14.927
36663W        W96199  14.272  10.758   1.267
36664W        W96200   2.326  44.886   3.659
36665W        W96201  41.429  19.253  10.449
36666W        W96202  19.069   0.480  14.306
36667W        W96203  13.331  16.311  12.049
36668W        W96204   9.880  21.578  14.847
36669W        W96205  33.123  35.443   2.773
36670W        W96206   3.449  11.771   5.234
36671W        W96207  18.192  21.107  11.060
36672W        W96208   4.361  36.919  11.855
36673W        W96209   7.182   2.801   1.869
36674W        W96210  11.238   1.887   4.620
36675W        W96211  10.852  13.823   2.207
36676W        W96212  35.881  27.551   0.263
36677W        W96213  41.879  43.861  12.437
36678W        W96214   5.261  14.744   4.654
36679W        W96215  19.248  43.307  11.899
36680W        W96216  29.099  33.114  12.074
36681W        W96217  33.613  44.772   2.755
36682W        W96218  33.965  22.187   1.707
36683W        W96219  28.437   3.400   3.834
36684W        W96220   6.762  38.004   1.365
36685W        W96221  43.405   5.701  12.503
36686W        W96222  39.051   6.807  13.478
36687W        W96223  29.433  27.955   2.222
36688W        W96224  42.841  41.369   3.718
36689W        W96225  30.471  25.168   4.658
36690W        W96226  18.632  27.648   2.368
36691W        W96227  36.858  28.435   4.751
36692W        W96228  19.221   7.180  14.845
36693W        W96229  13.233  18.777  10.642
36694W        W96230  40.329  16.598  13.942
36695W        W96231  21.189  40.968   4.157
36696W        W96232  30.079  15.270  13.946
36697W        W96233  23.112  10.296   0.801
36698W        W96234  44.883  30.929   1.421
36699W        W96235  19.670  29.005  13.412
36700W        W96236  28.063  22.562  11.412
36701W        W96237  40.965  43.308  13.388
36702W        W96238   5.737   0.274   3.277
36703W        W96239   8.339  24.191  12.559
36704W        W96240  14.614   4.710   2.759
36705W        W96241  37.362   2.346   2.251
36706W        W96242  26.602  13.233  11.921
36707W        W96243  11.159  32.519  13.327
36708W        W96244  34.579  44.825  11.024
36709W        W96245   4.378  32.538   4.119
36710W        W96246  29.426  35.508   4.309
36711W        W96247  12.844  14.094   2.222
36712W        W96248  37.067  20.695  12.049
36713W        W96249  40.390  43.937  14.438
36714W        W96250  29.442  18.117   2.388
36715W        W96251  31.573  30.154  10.013
36716W        W96252  30.536   7.200   0.759
36717W        W96253  38.393  21.521   3.824
36718W        W96254  42.428  13.602  10.480
36719W        W96255  26.066  30.975   0.355
36720W        W96256  18.132  34.408  11.023
36721W        W96257   5.309  27.154   0.420
36722W        W96258  40.357  32.978  12.510
36723W        W96259  38.565  21.098  10.031
36724W        W96260   5.276   4.375   0.260
36725W        W96261  34.577  33.018  11.887
36726W        W96262  37.087  26.132  12.444
36727W        W96263  10.696  39.958  10.642
36728W        W96264  39.552  37.083   2.668
36729W        W96265   3.784  41.370   4.711
36730W        W96266   3.461  28.087   3.645
36731W        W96267  18.097   8.734  13.808
36732W        W96268   3.830  18.090   0.780
36733W        W96269   2.435  18.056   4.311
36734W        W96270  35.933   8.815  14.889
36735W        W96271  40.392  21.106   4.659
36736W        W96272   1.892  34.868  10.407
36737W        W96273  42.475  29.456   1.727
36738W        W96274  32.886  16.317  13.946
36739W        W96275  20.197   1.366   2.808
36740W        W96276  22.708  17.772  12.532
36741W        W96277  16.737  11.852  11.570
36742W        W96278  32.539  39.915  13.501
36743W        W96279  28.560   0.389  13.850
36744W        W96280   2.804  21.757  13.453
36745W        W96281  29.527  28.066   0.386
36746W        W96282  15.163  31.601  13.855
36747W        W96283  36.346  14.823  12.068
36748W        W96284  16.621   1.955  14.292
36749W        W96285  32.897   6.239  10.643
36750W        W96286  33.477  27.644   1.437
36751W        W96287   6.261  37.986   3.343
36752W        W96288  36.578  11.221  13.064
36753W        W96289  23.062  32.577   2.813
36754W        W96290  34.552  14.705   1.293
36755W        W96291  12.216  18.597  11.568
36756W        W96292  27.464   2.452  14.831
36757W        W96293   6.221  17.254   4.743
36758W        W96294  39.540  41.336  10.930
36759W        W96295  27.467  29.928   3.856
36760W        W96296  30.954   3.890   0.434
36761W        W96297  39.029  35.402   3.767
36762W        W96298   9.156  25.071   1.703
36763W        W96299  22.517   6.711  12.008
36764W        W96300  40.461  38.908  11.901
36765W        W96301   0.863   7.693  12.499
36766W        W96302  42.881  16.760  11.475
36767W        W96303  28.502  12.841  14.309
36768W        W96304  42.010  32.451   0.743
36769W        W96305  12.308   6.277  12.407
36770W        W96306  35.981  43.899   2.894
36771W        W96307  27.485   0.876  10.922
36772W        W96308  40.336   7.802  10.936
36773W        W96309   0.309   0.916  11.520
36774W        W96310  18.728   5.784   0.327
36775W        W96311   1.352  10.656   3.646
36776W        W96312   8.863   0.742  14.415
36777W        W96313  33.938  23.164   4.272
36778W        W96314  20.197  41.522  14.937
36779W        W96315  14.616   7.674   5.139
36780W        W96316  38.840   8.882   4.308
36781W        W96317  24.140   1.768  12.891
36782W        W96318  35.486  33.129   4.322
36783W        W96319  42.992  32.528  13.335
36784W        W96320  27.948  18.122   0.820
36785W        W96321  27.953   3.882   0.881
36786W        W96322  31.073  37.993   0.911
36787W        W96323   2.748   5.301   1.425
36788W        W96324   0.830  41.503  10.130
36789W        W96325  40.511  30.952  11.915
36790W        W96326   4.769  44.820   1.358
36791W        W96327   7.702  25.679   2.365
36792W        W96328   9.243  41.975  13.516
36793W        W96329  24.497   7.358   1.227
36794W        W96330  40.404  37.966   1.414
36795W        W96331  19.549   5.362  13.061
36796W        W96332  36.032  15.821   1.271
36797W        W96333  16.636  11.632  13.938
36798W        W96334  11.710   2.754   0.369
36799W        W96335   1.438  27.592   4.660
36800W        W96336  28.659   3.732   0.968
36801W        W96337  40.341  42.432   2.273
36802W        W96338  16.586  24.684   2.313
36803W        W96339  16.778  32.936   3.322
36804W        W96340  10.726  23.163   1.278
36805W        W96341   3.231  36.863  12.511
36806W        W96342  34.498  39.429  13.820
36807W        W96343  27.077   1.914  10.913
36808W        W96344  36.024  35.539   3.231
36809W        W96345  35.953  14.819   4.202
36810W        W96346  17.656   2.319  11.408
36811W        W96347  37.922  35.445   3.252
36812W        W96348  24.125  14.245  13.503
36813W        W96349  15.660  43.325   3.382
36814W        W96350  10.306  34.060   2.252
36815W        W96351  23.590   6.295  12.483
36816W        W96352  18.626  31.517  14.024
36817W        W96353  26.679  15.770   0.272
36818W        W96354  24.580  25.510   1.319
36819W        W96355   5.779  20.646  13.938
36820W        W96356  41.019  18.678   1.356
36821W        W96357  42.438   8.887  13.364
36822W        W96358  39.051  38.562  13.026
36823W        W96359  12.335  41.943  12.014
36824W        W96360  32.403  19.555  13.856
36825W        W96361  11.669   6.297   1.822
36826W        W96362   2.757  10.653   1.266
36827W        W96363   7.901  19.076   1.818
36828W        W96364  15.213  35.519   4.158
36829W        W96365  36.039  29.493  12.513
36830W        W96366  11.829  14.766  14.959
36831W        W96367  42.414  41.494   2.238
36832W        W96368  20.043  29.647  11.491
36833W        W96369  35.530  22.651  14.367
36834W        W96370  27.106  18.052  14.993
36835W        W96371  29.527  16.683   4.706
36836W        W96372   7.680   4.425   3.641
36837W        W96373  22.515   7.207  10.970
36838W        W96374  34.926  19.569  11.435
36839W        W96375  36.359  24.185   4.825
36840W        W96376   3.453   1.909  10.964
36841W        W96377  25.149  17.602  11.567
36842W        W96378  16.757  38.382   1.270
36843W        W96379  10.739  18.094  14.878
36844W        W96380  35.516  22.205  12.402
36845W        W96381  26.466   6.363   0.365
36846W        W96382  12.245   7.841  14.504
36847W        W96383  38.492  16.684   4.331
36848W        W96384  13.176  42.027  13.506
36849W        W96385   4.735  38.345   4.728
36850W        W96386   0.884  17.686   0.905
36851W        W96387  18.581  25.697   2.750
36852W        W96388   5.437  40.832  13.042
36853W        W96389  30.151  12.836   2.354
36854W        W96390  36.092  26.702  14.767
36855W        W96391   9.195   5.770  14.019
36856W        W96392  39.448  12.774   2.738
36857W        W96393   2.227  37.557   3.315
36858W        W96394  26.002  16.809  12.067
36859W        W96395  16.580  24.500  13.927
36860W        W96396  23.649  26.054   2.836
36861W        W96397  20.133  17.622  11.927
36862W        W96398  32.139  28.026   0.385
36863W        W96399  35.981  22.044   2.716
36864W        W96400   9.233  16.757   4.216
36865W        W96401   1.904  35.600  12.837
36866W        W96402  27.655   3.892   2.836
36867W        W96403   5.739  17.565  14.832
36868W        W96404   1.803  32.076   1.230
36869W        W96405  38.419  10.151  10.644
36870W        W96406  14.196  22.016  12.877
36871W        W96407  44.263   3.249  13.852
36872W        W96408  44.761  22.620  14.828
36873W        W96409  35.037   5.409   1.223
36874W        W96410  12.740  28.049   1.226
36875W        W96411  12.656   5.312  10.935
36876W        W96412  32.492  13.640   3.724
36877W        W96413  32.610  18.785  11.977
36878W        W96414  44.286   0.879   3.214
36879W        W96415  42.471  18.275  11.500
36880W        W96416  19.668  20.194  12.040
36881W        W96417   6.393  25.706   3.865
36882W        W96418  17.759  30.071  13.043
36883W        W96419  20.243   4.897  11.877
36884W        W96420  34.883  15.154   2.722
36885W        W96421  18.229  11.327   3.860
36886W        W96422   5.724  12.337   2.678
36887W        W96423  41.018   0.458   2.415
36888W        W96424   8.846  38.973   5.196
36889W        W96425  31.550  38.853  12.496
36890W        W96426  41.938  35.937  10.475
36891W        W96427  33.082  44.339  11.437
36892W        W96428  35.430  26.971   0.283
36893W        W96429   6.346  26.578   3.737
36894W        W96430  30.453   2.318  11.908
36895W        W96431   2.364  16.792   1.236
36896W        W96432  42.806  18.226  14.904
36897W        W96433  25.702  36.353  13.407
36898W        W96434  38.962   9.346  11.415
36899W        W96435  20.219   2.810  13.314
36900W        W96436   3.816  38.401   4.156
36901W        W96437   5.736  29.562   0.419
36902W        W96438  28.483  44.348  14.462
36903W        W96439  24.067   8.386  14.934
36904W        W96440   1.835  10.225  11.438
36905W        W96441  11.852  36.098   4.149
36906W        W96442  43.849  41.516   1.401
36907W        W96443  19.143  25.178   5.137
36908W        W96444   4.832   5.875   2.410
36909W        W96445   8.338   1.313  14.859
36910W        W96446   9.699  28.571  11.890
36911W        W96447  43.461  22.569  14.377
36912W        W96448  17.082  15.237  14.870
36913W        W96449  18.554  32.465   3.339
36914W        W96450  35.402   7.202   1.879
36915W        W96451  41.433  28.008   3.781
36916W        W96452  33.890   7.206   0.402
36917W        W96453  32.506  23.511  14.512
36918W        W96454  18.274  13.223  14.947
36919W        W96455  37.851  35.022   3.176
36920W        W96456  23.239  32.391   0.265
36921W        W96457  12.171  26.616  14.393
36922W        W96458  27.559  43.871   0.961
36923W        W96459  29.988  34.415  13.398
36924W        W96460  44.393   2.950   0.820
36925W        W96461  36.449  28.530  12.026
36926W        W96462  19.044  18.266   1.887
36927W        W96463  41.467  31.466  12.858
36928W        W96464  35.904   7.328   3.263
36929W        W96465  33.062  14.724   1.782
36930W        W96466  43.856  36.478   3.698
36931W        W96467   9.776  10.826  12.910
36932W        W96468  22.507  31.603   1.784
36933W        W96469  36.872  19.207   0.302
36934W        W96470  39.543  12.307  11.080
36935W        W96471  37.379  11.203  11.098
36936W        W96472   3.895   9.233   3.255
36937W        W96473  36.552  14.128  12.922
36938W        W96474   1.414  34.042   3.158
36939W        W96475  31.958   9.849   0.300
36940W        W96476  22.501  16.174  10.066
36941W        W96477  21.627  23.684  12.370
36942W        W96478  12.653  31.537   1.216
36943W        W96479  41.959  16.116  11.911
36944W        W96480  43.404  26.157  13.889
36945W        W96481   6.849  28.955   1.883
36946W        W96482  39.915  28.046   2.281
36947W        W96483  41.878   1.243  14.791
36948W        W96484  34.031   2.434  14.374
36949W        W96485  26.488  38.861  10.564
36950W        W96486  15.816  44.918   0.468
36951W        W96487  19.656  25.097  14.964
36952W        W96488   2.890  14.118   0.482
36953W        W96489   2.888  41.478   2.870
36954W        W96490  36.934  19.242  12.397
36955W        W96491  26.702  33.610  12.826
36956W        W96492  40.343  15.800  10.420
36957W        W96493   8.884  43.771   0.843
36958W        W96494  13.763  17.222  12.566
36959W        W96495  31.005  44.957  14.824
36960W        W96496  34.532   0.414   1.911
36961W        W96497  29.029  41.462  11.050
36962W        W96498  10.325   5.709   0.474
36963W        W96499  30.591  31.956   1.304
36964W        W96500  23.690  18.182  14.910
36965W        W96501   9.752   4.843  10.614
36966W        W96502  26.008  15.770   4.646
36967W        W96503  35.084  20.613  10.623
36968W        W96504  16.695  37.545  11.970
36969W        W96505  28.624   4.218   4.736
36970W        W96506   6.191  38.534   2.699
36971W        W96507  18.263   9.772  14.387
36972W        W96508  22.202  14.228  10.595
36973W        W96509  37.887  19.715   3.251
36974W        W96510  11.257  15.304   1.383
36975W        W96511  20.617  28.109  11.414
36976W        W96512  32.010   6.366  13.991
36977W        W96513  16.763  23.734  13.941
36978W        W96514   4.834  18.655  13.492
36979W        W96515  30.500  39.917   1.878
36980W        W96516  12.801  38.011   1.784
36981W        W96517  11.777  41.914   3.372
36982W        W96518  26.492  36.448  12.830
36983W        W96519  15.773  25.700   4.252
36984W        W96520  18.129   6.787  14.788
36985W        W96521  32.048  18.247  10.112
36986W        W96522  22.551  39.945  11.391
36987W        W96523   2.922   6.238   3.680
36988W        W96524   2.935  35.594   1.253
36989W        W96525  15.632   3.944   4.227
36990W        W96526  40.471  13.640   3.213
36991W        W96527  36.059  24.544  14.336
36992W        W96528  41.353  34.456   1.225
36993W        W96529  11.173   9.750   1.257
36994W        W96530  24.197  11.235  13.537
36995W        W96531   1.282  33.963  11.129
36996W        W96532  42.476  28.095   2.254
36997W        W96533  23.605   1.864   3.732
36998W        W96534   4.939  36.516   2.221
36999W        W96535  44.812   7.740   3.220
37000W        W96536  36.024  41.928   4.155
37001W        W96537  20.527   7.737   3.190
37002W        W96538  12.348   8.786   2.270
37003W        W96539  17.121  44.299   3.702
37004W        W96540  14.828  38.976  13.327
37005W        W96541  33.027  28.592   0.452
37006W        W96542  40.534  22.204   3.274
37007W        W96543  34.595  13.672   2.765
37008W        W96544  24.650  18.641  14.878
37009W        W96545  29.478  10.146  13.835
37010W        W96546  12.812   9.774  12.888
37011W        W96547  26.521  37.897  11.479
37012W        W96548  30.067  11.707  14.507
37013W        W96549  27.030   5.401   2.751
37014W        W96550   9.346  14.335   3.639
37015W        W96551   9.237  20.754  12.061
37016W        W96552  21.744  36.542  13.909
37017W        W96553   9.388  11.317   0.905
37018W        W96554  44.861  23.056  11.092
37019W        W96555  31.117  38.002   4.791
37020W        W96556  10.687  13.299   4.136
37021W        W96557   0.873   5.388  13.836
37022W        W96558   5.900  18.645  11.919
37023W        W96559  36.882  25.602  12.555
37024W        W96560  40.872   1.908  11.907
37025W        W96561   2.851   9.248  10.425
37026W        W96562  22.203  26.145  14.952
37027W        W96563  39.915  27.653   1.849
37028W        W96564   3.833  38.860  11.021
37029W        W96565  23.023  14.301  13.967
37030W        W96566  10.653  16.132  10.494
37031W        W96567   9.873  10.178  13.825
37032W        W96568  37.537  27.074   4.760
37033W        W96569  38.939  28.003  11.088
37034W        W96570  12.128  21.648   0.808
37035W        W96571  32.030  23.516   4.692
37036W        W96572  20.093  27.447   1.872
37037W        W96573   3.737  17.636  12.837
37038W        W96574  20.120  30.911   4.629
37039W        W96575  40.040  15.260   0.269
37040W        W96576  41.989  20.715  13.981
37041W        W96577  35.401   7.824   3.722
37042W        W96578  33.922  32.479  11.520
37043W        W96579  38.509  22.029   0.269
37044W        W96580  20.666   0.749   4.325
37045W        W96581  10.365  38.854   4.798
37046W        W96582  29.938  39.535   0.965
37047W        W96583  43.783   3.317  11.050
37048W        W96584  21.514  15.695   4.278
37049W        W96585  13.737  27.963   4.714
37050W        W96586  38.335  38.544  10.990
37051W        W96587  19.270  44.980   2.779
37052W        W96588  28.599  18.749  14.854
37053W        W96589   9.214  18.557  13.426
37054W        W96590  19.592  35.082  11.026
37055W        W96591   5.832  31.613   0.736
37056W        W96592  10.349  25.521  14.385
37057W        W96593  15.122  28.075  11.886
37058W        W96594   0.914  44.774   3.319
37059W        W96595   0.440  13.768   0.275
37060W        W96596  26.503  16.628   1.836
37061W        W96597  35.951  21.070  13.828
37062W        W96598  21.656  41.410  11.904
37063W        W96599  15.611  19.200   0.897
37064W        W96600  38.036   3.301   2.675
37065W        W96601  29.160  17.763   0.472
37066W        W96602  17.621  24.683   3.640
37067W        W96603  39.017  11.721  14.465
37068W        W96604  20.720   5.269   2.755
37069W        W96605  16.780  37.939   3.257
37070W        W96606   9.884   0.283   3.782
37071W        W96607  35.042  10.310   3.288
37072W        W96608  29.528  40.363  13.891
37073W        W96609  44.409   1.309  10.477
37074W        W96610  19.554  21.203   3.676
37075W        W96611   1.928  37.382  10.634
37076W        W96612  36.485  12.708  14.475
37077W        W96613  37.400   1.880  12.459
37078W        W96614  31.570   3.949   4.834
37079W        W96615   9.181  34.025  11.561
37080W        W96616  21.145   4.864  12.044
37081W        W96617   0.842  11.172  10.945
37082W        W96618  31.145  19.120  10.477
37083W        W96619  28.064   7.893  11.962
37084W        W96620   5.804  39.886   1.306
37085W        W96621   8.657  20.653  14.005
37086W        W96622  35.083  33.537  11.484
37087W        W96623  33.953  32.588  14.831
37088W        W96624   7.180   1.400   1.285
37089W        W96625  10.770   0.798  11.390
37090W        W96626  27.596  40.327   3.146
37091W        W96627  19.711   6.329  11.533
37092W        W96628   2.948  40.467   0.289
37093W        W96629  34.000   9.386  11.504
37094W        W96630  25.145  29.481   4.339
37095W        W96631  41.500   6.302   4.190
37096W        W96632  24.995  31.931  12.495
37097W        W96633  20.035  27.487  10.424
37098W        W96634  18.077  32.612  12.883
37099W        W96635  38.004  30.002   3.211
37100W        W96636  29.601  27.518   3.713
37101W        W96637  41.538  40.545   0.940
37102W        W96638   5.293  15.708  11.556
37103W        W96639  27.523   0.341  11.455
37104W        W96640   3.783  10.801  13.876
37105W        W96641  19.262  29.922   4.651
37106W        W96642  41.402  34.609   1.771
37107W        W96643  36.445  13.116   0.416
37108W        W96644  37.969  42.812  10.968
37109W        W96645  17.592   7.873  14.463
37110W        W96646  18.180  29.476  12.045
37111W        W96647   0.813   7.814  13.842
37112W        W96648  11.666   8.397   4.306
37113W        W96649   4.283  40.989  11.940
37114W        W96650  12.749  42.383   4.763
37115W        W96651   2.422  34.560   3.369
37116W        W96652  23.605  29.593  12.841
37117W        W96653   1.468  17.651   1.386
37118W        W96654  28.583  14.285  13.009
37119W        W96655  35.373  38.458   1.322
37120W        W96656  20.543   2.298   0.809
37121W        W96657   3.721  32.570   3.663
37122W        W96658  24.187  21.161   0.407
37123W        W96659   8.265  20.761   3.693
37124W        W96660  44.502  12.779  14.356
37125W        W96661  33.064  43.504  13.886
37126W        W96662  27.153  13.202  10.458
37127W        W96663  42.899  26.064  12.836
37128W        W96664  18.115  15.252   2.275
37129W        W96665   0.960   2.340   0.738
37130W        W96666  18.138   1.739  14.865
37131W        W96667  43.365   4.922  13.900
37132W        W96668  12.190  24.654  10.600
37133W        W96669  22.252   4.902  14.504
37134W        W96670  42.922  22.518  12.538
37135W        W96671  21.036  30.917  14.332
37136W        W96672  19.161  42.394  10.404
37137W        W96673  42.493  42.362  12.947
37138W        W96674  38.341   7.830   3.766
37139W        W96675   7.400   6.895   3.827
37140W        W96676  18.214  41.502   1.353
37141W        W96677   0.448  20.732   2.374
37142W        W96678  35.870   8.190  12.023
37143W        W96679  14.144  24.513   2.684
37144W        W96680  41.790   1.242   0.913
37145W        W96681   5.350  14.763   2.369
37146W        W96682  42.298  25.567   3.176
37147W        W96683   3.796  31.048  12.461
37148W        W96684  42.942  23.180  11.901
37149W        W96685  37.006  24.573  13.058
37150W        W96686  25.553  31.908  11.441
37151W        W96687   2.784  42.878  12.517
37152W        W96688  35.031   4.409   3.315
37153W        W96689  14.191  37.501  10.441
37154W        W96690  24.164  32.468   0.313
37155W        W96691   6.282  29.084   0.329
37156W        W96692  26.988   4.282  12.927
37157W        W96693  43.009  12.728   4.752
37158W        W96694  40.934  39.024   0.895
37159W        W96695  37.061  13.240   4.267
37160W        W96696  30.017  23.556  14.018
37161W        W96697  35.922  28.992   4.785
37162W        W96698  10.658  17.179   2.673
37163W        W96699  21.724   3.371   0.872
37164W        W96700  42.478  26.142   0.369
37165W        W96701   2.951  21.728  12.525
37166W        W96702  23.590   1.244   5.728
37167W        W96703  33.533   2.851  11.375
37168W        W96704  25.521  25.159  11.072
37169W        W96705  23.154  29.072   3.381
37170W        W96706  23.219   0.853   0.923
37171W        W96707   5.790  26.094   5.611
37172W        W96708  17.775   8.772  13.914
37173W        W96709  16.753   4.809  12.858
37174W        W96710  11.284  15.188   0.386
37175W        W96711  33.008  13.827  14.455
37176W        W96712  26.007  25.586   4.287
37177W        W96713  31.558  24.016   2.224
37178W        W96714   3.837  44.469   4.185
37179W        W96715  17.196  36.414   0.306
37180W        W96716   2.411  42.468  12.409
37181W        W96717  12.832  41.016   1.824
37182W        W96718  36.435  12.714   4.606
37183W        W96719  14.717  16.172  12.096
37184W        W96720  15.204  13.267  13.952
37185W        W96721  43.915  13.152  12.509
37186W        W96722  40.456  17.596  11.541
37187W        W96723  14.739   1.459   3.756
37188W        W96724  16.598  19.079  12.914
37189W        W96725  42.868   3.275   4.819
37190W        W96726   7.242  11.863  12.411
37191W        W96727  32.024  27.685   0.315
37192W        W96728  35.901  19.573   2.301
37193W        W96729  14.238  20.264   0.858
37194W        W96730  26.461  31.079   0.425
37195W        W96731  14.129   8.405   1.775
37196W        W96732   7.907  17.650  14.992
37197W        W96733  21.173  18.664  11.876
37198W        W96734  14.136  18.136  14.818
37199W        W96735  14.739  32.406   4.747
37200W        W96736  13.183  29.951  10.588
37201W        W96737  43.387  17.562   2.799
37202W        W96738  38.327  30.432   2.685
37203W        W96739  18.059  32.082   0.311
37204W        W96740  41.037  22.203  14.369
37205W        W96741  21.094   2.461   4.656
37206W        W96742  22.120   2.839  12.924
37207W        W96743  40.445  34.971   5.125
37208W        W96744  21.586  34.492   1.367
37209W        W96745   8.683  41.354   1.401
37210W        W96746  25.686  28.053   2.813
37211W        W96747  29.551  26.171   0.417
37212W        W96748   0.920  21.636  12.093
37213W        W96749  24.691  11.223   3.299
37214W        W96750  28.454  30.162   1.860
37215W        W96751  12.659   6.719   0.282
37216W        W96752  37.336  24.529   4.186
37217W        W96753  37.361  16.621  12.062
37218W        W96754  19.221  23.676  10.053
37219W        W96755  10.850  20.252   0.304
37220W        W96756   6.276  25.126  10.602
37221W        W96757  22.011  40.925  11.975
37222W        W96758  39.997   1.783  10.140
37223W        W96759   7.345  29.514   0.372
37224W        W96760  35.542  22.227  10.454
37225W        W96761   4.732  36.016   1.451
37226W        W96762  33.953  24.627   0.281
37227W        W96763  28.509  15.148   2.191
37228W        W96764  22.515  44.804   1.799
37229W        W96765  35.106  23.678   4.136
37230W        W96766  42.809   7.303  12.890
37231W        W96767  34.412   9.855  13.431
37232W        W96768  30.655  41.928   3.867
37233W        W96769  10.316   1.892   4.307
37234W        W96770  15.631   5.403  12.550
37235W        W96771  38.505  32.632   0.311
37236W        W96772  43.997  34.882  13.435
37237W        W96773  35.366  44.444   3.713
37238W        W96774  30.123   2.410  11.088
37239W        W96775  31.087   1.899  13.055
37240W        W96776  39.505   2.427  13.052
37241W        W96777   6.358  20.087  10.458
37242W        W96778  33.613  41.947   0.342
37243W        W96779  41.032  22.184  12.538
37244W        W96780  41.391  24.670   3.213
37245W        W96781  30.459  29.655   4.162
37246W        W96782  37.031  21.138  12.870
37247W        W96783  31.642   3.227   2.244
37248W        W96784   6.799  40.499   2.185
37249W        W96785   8.258   7.280   0.807
37250W        W96786  20.688  35.565  10.521
37251W        W96787  26.493   8.884   1.745
37252W        W96788  44.385  42.506   1.870
37253W        W96789  27.566   2.943  14.374
37254W        W96790  43.306  29.072  14.500
37255W        W96791   5.752   3.453   4.187
37256W        W96792  42.891  16.743  11.897
37257W        W96793  29.518  44.808   4.212
37258W        W96794  14.189  15.251  10.921
37259W        W96795   1.753  15.695  14.831
37260W        W96796  34.393  13.153   2.189
37261W        W96797  14.304  44.303   3.363
37262W        W96798  18.683   8.291  12.444
37263W        W96799  35.075  26.115   9.448
37264W        W96800  16.677  22.739   3.280
37265W        W96801  44.321  24.685  10.911
37266W        W96802  36.458  37.019  14.818
37267W        W96803  10.781  21.525   3.853
37268W        W96804  25.981  14.296   0.917
37269W        W96805  15.250  23.610   2.678
37270W        W96806  34.548  28.976  12.435
37271W        W96807  14.210  14.124  11.468
37272W        W96808  22.700  43.770  12.093
37273W        W96809  33.473  39.317   1.846
37274W        W96810  20.571  24.614   3.750
37275W        W96811  28.672  16.779   1.749
37276W        W96812  27.645  23.177  10.949
37277W        W96813  15.257  37.419   2.836
37278W        W96814  10.723  13.675   0.381
37279W        W96815  17.219   4.912   1.356
37280W        W96816   3.259  38.467   4.288
37281W        W96817  44.480  11.802   3.168
37282W        W96818  12.651  22.130  14.824
37283W        W96819  14.143  37.886   4.248
37284W        W96820  29.641  30.480   0.813
37285W        W96821  16.709  43.937  12.963
37286W        W96822  35.406   5.231   1.397
37287W        W96823  44.808  26.989   4.746
37288W        W96824  19.075  13.215  13.925
37289W        W96825  33.967   6.859   1.785
37290W        W96826  19.096  27.682   2.803
37291W        W96827  39.529  15.667  14.855
37292W        W96828  11.624  41.865   2.876
37293W        W96829   4.440  28.090   5.284
37294W        W96830   1.854  22.012  14.382
37295W        W96831   7.390   2.827   0.368
37296W        W96832  34.960  15.316   2.411
37297W        W96833  17.094  28.473   2.843
37298W        W96834   1.378  39.333  10.894
37299W        W96835  35.515  20.547   0.381
37300W        W96836   3.343  14.332   0.803
37301W        W96837  31.052   4.300  12.423
37302W        W96838  22.682  23.162   3.194
37303W        W96839  13.717   9.362  14.984
37304W        W96840   0.977  20.028  12.945
37305W        W96841   0.789  36.549  14.465
37306W        W96842  34.084  24.001   4.333
37307W        W96843   3.844  18.660   2.260
37308W        W96844  11.205  20.178  11.404
37309W        W96845  36.387  31.577   0.902
37310W        W96846  43.434  44.992  13.351
37311W        W96847  33.052   3.781  14.836
37312W        W96848  42.001  29.517   0.862
37313W        W96849  44.326  32.077   2.255
37314W        W96850   4.757  16.112  11.098
37315W        W96851   7.359  26.186  11.872
37316W        W96852  36.076   6.229   2.232
37317W        W96853  29.634  24.513  14.940
37318W        W96854  15.233  41.374   0.243
37319W        W96855  18.632  16.167  13.937
37320W        W96856   0.290  17.751  11.102
37321W        W96857  19.088  38.369   4.737
37322W        W96858  34.518  24.638   4.797
37323W        W96859  20.523   9.773  10.990
37324W        W96860  42.388  31.073   0.761
37325W        W96861  42.030  41.467   0.768
37326W        W96862  27.098   7.873  10.603
37327W        W96863  17.749  16.262   0.746
37328W        W96864  39.830  15.157  10.445
37329W        W96865  22.219  17.765  13.920
37330W        W96866  38.504  37.554  13.988
37331W        W96867   8.858  16.713   3.151
37332W        W96868  41.867  20.238   4.744
37333W        W96869  11.649  16.595  13.325
37334W        W96870  29.110  25.211   1.411
37335W        W96871  11.149  14.273   1.925
37336W        W96872  25.684  20.205  14.920
37337W        W96873  14.832  23.490   0.728
37338W        W96874  33.985  14.253  13.525
37339W        W96875  18.194  29.995   1.450
37340W        W96876  18.065  32.999  10.570
37341W        W96877   0.862  26.168   1.807
37342W        W96878  23.116  16.673   0.797
37343W        W96879  13.314  43.302   3.851
37344W        W96880  23.533   2.337   1.924
37345W        W96881  13.239  19.559   1.229
37346W        W96882  27.453  19.136   2.295
37347W        W96883   8.766  42.934  13.528
37348W        W96884   5.708  43.938   2.861
37349W        W96885  43.430  33.922   0.330
37350W        W96886  23.497  21.618   1.838
37351W        W96887  23.494  39.466  11.961
37352W        W96888  20.620  28.442   0.863
37353W        W96889   0.415   9.697   3.788
37354W        W96890  26.115   6.388   4.203
37355W        W96891  32.109  20.548  12.379
37356W        W96892  13.322  33.410  12.944
37357W        W96893  44.834  24.637   1.357
37358W        W96894  43.357  34.994  10.419
37359W        W96895  28.958  39.923  14.920
37360W        W96896  15.615  19.122  10.554
37361W        W96897   0.375  43.913   0.244
37362W        W96898  14.340  43.962   0.309
37363W        W96899   1.876  35.051   0.782
37364W        W96900  41.963  19.652  13.444
37365W        W96901  43.796  14.294  14.919
37366W        W96902   0.918  35.973   2.759
37367W        W96903  43.494   8.274   1.360
37368W        W96904   7.902  19.083  10.520
37369W        W96905  41.915  43.368  13.336
37370W        W96906  24.994  16.227   3.192
37371W        W96907  10.871  28.521   4.270
37372W        W96908  13.173  34.604  10.553
37373W        W96909   0.437  16.241  14.478
37374W        W96910  15.267   4.750  14.029
37375W        W96911  38.990   4.727   2.779
37376W        W96912  31.115  13.121   1.299
37377W        W96913  44.987  14.132   4.645
37378W        W96914  17.158  26.508  12.388
37379W        W96915   9.332  31.983   3.742
37380W        W96916  27.500  29.039  10.523
37381W        W96917   3.265   7.243  12.045
37382W        W96918  27.954  11.795  13.479
37383W        W96919  14.154  40.394  14.339
37384W        W96920  27.026  37.551   3.162
37385W        W96921  18.613  14.199   2.750
37386W        W96922  19.538  35.385   3.185
37387W        W96923  19.571   5.313   2.284
37388W        W96924  14.144   4.932   3.632
37389W        W96925  38.020   2.431  14.951
37390W        W96926  21.181  12.272   3.827
37391W        W96927  11.366   6.208  12.547
37392W        W96928  30.626  28.533   2.271
37393W        W96929  42.898   3.382  14.482
37394W        W96930   7.284  18.766  14.852
37395W        W96931  43.981   4.772   3.242
37396W        W96932  24.490  22.544   3.756
37397W        W96933  44.482   9.273  13.017
37398W        W96934  32.512   9.677  14.946
37399W        W96935   3.362   6.202   1.255
37400W        W96936  32.946   0.937  14.792
37401W        W96937   6.222  39.830   2.391
37402W        W96938  36.917   2.722  11.536
37403W        W96939  23.226   7.886   0.262
37404W        W96940   1.255  33.973   0.429
37405W        W96941  32.634  36.355   4.226
37406W        W96942  13.761  11.650  12.383
37407W        W96943  17.674  25.509  13.536
37408W        W96944  28.463  12.219   1.812
37409W        W96945  20.544  11.148  11.956
37410W        W96946   0.935   3.369   1.381
37411W        W96947   3.871  12.752   4.239
37412W        W96948  35.055  36.454   1.867
37413W        W96949  14.123   0.943   0.330
37414W        W96950  15.277  12.290   1.874
37415W        W96951   8.214   0.487   4.769
37416W        W96952  22.141  34.880  11.907
37417W        W96953  30.159  33.952  10.926
37418W        W96954  14.104  36.525   1.766
37419W        W96955  28.108  38.347   2.714
37420W        W96956   7.772  19.613   3.386
37421W        W96957  25.149  35.598  11.952
37422W        W96958  43.829  28.143  11.422
37423W        W96959  43.952  39.327  13.402
37424W        W96960   4.266  23.118   3.832
37425W        W96961   9.195  39.320  14.971
37426W        W96962   5.785  10.152  14.462
37427W        W96963  14.114  30.161  13.485
37428W        W96964  24.544  35.094  12.049
37429W        W96965  24.564  40.358  12.876
37430W        W96966  32.559   8.836  13.910
37431W        W96967  19.562  23.718  13.845
37432W        W96968  14.625  13.242   1.406
37433W        W96969  22.036  29.925   2.401
37434W        W96970  41.302  34.917  11.494
37435W        W96971  18.185   7.818   2.809
37436W        W96972  24.508   9.340   0.334
37437W        W96973  21.122   6.253  13.438
37438W        W96974  39.544  16.263   2.388
37439W        W96975  28.074   7.311  11.079
37440W        W96976  42.374   4.938  14.782
37441W        W96977  41.389  34.917   1.824
37442W        W96978   4.700  41.392   3.376
37443W        W96979  42.375  21.153  12.360
37444W        W96980   0.778  39.831  13.005
37445W        W96981  31.564  16.139   2.868
37446W        W96982  14.594  28.537   3.178
37447W        W96983   6.363  42.448   3.713
37448W        W96984  18.549  23.031   0.847
37449W        W96985  35.388  41.314  14.792
37450W        W96986   8.323  22.012  12.823
37451W        W96987  16.217  19.573  12.045
37452W        W96988  27.179  11.322   2.684
37453W        W96989  14.655   4.707   1.798
37454W        W96990   8.894  15.690  14.324
37455W        W96991  23.508  18.667   1.861
37456W        W96992  33.935  29.549  14.768
37457W        W96993  18.089   7.193   2.694
37458W        W96994  43.411  31.953   2.698
37459W        W96995   7.396  16.080  14.381
37460W        W96996  25.100   5.226  14.851
37461W        W96997  42.364  40.876  10.983
37462W        W96998  43.369  12.126   3.152
37463W        W96999  44.830  14.681   2.195
37464W        W97000   7.389  30.456   0.394
37465W        W97001  41.962  36.433   2.416
37466W        W97002   7.811  22.508   0.478
37467W        W97003  12.714  42.912   0.835
37468W        W97004  12.210   4.774  14.328
37469W        W97005   9.866   6.868  13.479
37470W        W97006  39.925  26.060  11.436
37471W        W97007   2.444  33.458   0.946
37472W        W97008  12.673  32.076  13.849
37473W        W97009  39.902   0.377   2.689
37474W        W97010   7.681  17.102   3.288
37475W        W97011  14.728   7.837  14.790
37476W        W97012   3.942  35.496   0.475
37477W        W97013  12.130  41.381   0.740
37478W        W97014  29.110  19.728   3.211
37479W        W97015  41.019  31.973  11.547
37480W        W97016   1.921  40.483   2.219
37481W        W97017  43.975  29.490  12.875
37482W        W97018   3.806   3.364   4.141
37483W        W97019  22.645   5.226   0.797
37484W        W97020  13.677   1.287   3.377
37485W        W97021  40.530  11.369  12.514
37486W        W97022  27.634  36.022   3.854
37487W        W97023   4.868   6.290   5.084
37488W        W97024  44.475   0.270  11.928
37489W        W97025  41.865  39.852   4.763
37490W        W97026   3.748  11.857   2.365
37491W        W97027  39.331  41.476  11.909
37492W        W97028  38.370   7.235   1.301
37493W        W97029  32.486   6.910   1.331
37494W        W97030   0.863  33.921  12.546
37495W        W97031  31.422  27.611   4.600
37496W        W97032   9.772  22.090  11.885
37497W        W97033   2.824  15.620  11.588
37498W        W97034  31.639  10.337   2.822
37499W        W97035  29.155  28.612  10.020
37500W        W97036  40.431   6.186   2.708
37501W        W97037  25.159  32.552   2.239
37502W        W97038   4.717  28.151   3.770
37503W        W97039   0.452  12.618   2.292
37504W        W97040  20.054  19.742   0.429
37505W        W97041  41.340  14.793   2.710
37506W        W97042  22.180   1.767   5.182
37507W        W97043  17.762  20.714  12.404
37508W        W97044   4.830   3.768  13.416
37509W        W97045  41.368  34.411  12.567
37510W        W97046   4.314  23.722   1.810
37511W        W97047  27.638  33.979   1.865
37512W        W97048  10.310  36.517   1.765
37513W        W97049  39.952  26.159   1.780
37514W        W97050  26.134  39.838   1.717
37515W        W97051  26.976  10.285  14.289
37516W        W97052  13.611  33.997   4.645
37517W        W97053  41.843  26.052  14.365
37518W        W97054  30.909  42.323  13.007
37519W        W97055  18.140   6.849  12.953
37520W        W97056  44.801   0.789   1.928
37521W        W97057  13.282  28.977   4.330
37522W        W97058  15.581   0.251   2.180
37523W        W97059  35.362  11.309  11.057
37524W        W97060   5.338  34.972   3.340
37525W        W97061  15.284   0.341  11.028
37526W        W97062  29.076  16.223   4.720
37527W        W97063   3.370  15.167  13.802
37528W        W97064  32.444  22.104   5.617
37529W        W97065  26.617  42.811  12.550
37530W        W97066  26.646   1.764   3.231
37531W        W97067   2.932   1.916  11.899
37532W        W97068   5.296  18.084  13.794
37533W        W97069   8.655  32.119  11.109
37534W        W97070  21.622  35.371   3.869
37535W        W97071  36.501  36.944   2.358
37536W        W97072  30.593  32.928  14.491
37537W        W97073   5.357  38.955  14.448
37538W        W97074  34.505  28.973  13.401
37539W        W97075   9.225  41.320  12.550
37540W        W97076  33.388   8.807   4.257
37541W        W97077  28.638  42.358  10.907
37542W        W97078  31.444  24.174   1.802
37543W        W97079  41.342  21.556  12.509
37544W        W97080   9.720  42.910   1.328
37545W        W97081  35.088   8.769   5.135
37546W        W97082  39.975  44.812   2.391
37547W        W97083  15.686  32.451   3.327
37548W        W97084   0.346   7.326  13.886
37549W        W97085  19.099   6.732  12.456
37550W        W97086  22.698  40.401  11.126
37551W        W97087  28.627  31.115   3.755
37552W        W97088  26.696  21.059  10.978
37553W        W97089   0.263  19.669   1.707
37554W        W97090   6.850  28.490   4.173
37555W        W97091  27.459  23.491  13.536
37556W        W97092   8.857  12.323  14.512
37557W        W97093  42.867   2.335  14.839
37558W        W97094  33.482  42.799   4.168
37559W        W97095  24.562  30.129   1.299
37560W        W97096  42.915  35.509  13.026
37561W        W97097  22.124  19.176  13.543
37562W        W97098  35.958  33.011   1.844
37563W        W97099  23.606  40.537  13.522
37564W        W97100  44.882  16.128  13.038
37565W        W97101  21.651  27.972  11.425
37566W        W97102   5.291  20.240  12.033
37567W        W97103  38.836  20.073  14.448
37568W        W97104   5.273  17.709  14.362
37569W        W97105  21.614  43.961  14.853
37570W        W97106   0.282   4.904  13.847
37571W        W97107  34.415  16.086   1.817
37572W        W97108   3.738  38.029   0.830
37573W        W97109  16.249  13.275  12.514
37574W        W97110  31.509   3.360  11.584
37575W        W97111   7.236  16.289   0.913
37576W        W97112  10.666  18.563   1.445
37577W        W97113  13.108  39.055   1.761
37578W        W97114  19.082   1.267  13.835
37579W        W97115  22.603  15.687  12.901
37580W        W97116  25.561  33.092   3.247
37581W        W97117  24.672   3.377   1.933
37582W        W97118  44.439  12.675  11.989
37583W        W97119  39.880  44.277  11.970
37584W        W97120  17.749   4.410   2.827
37585W        W97121  33.048  32.041  11.048
37586W        W97122   1.357  36.075   3.246
37587W        W97123  16.637  40.009  13.031
37588W        W97124  17.643  17.158   1.741
37589W        W97125  40.436   8.365   1.298
37590W        W97126  12.847  20.664   0.751
37591W        W97127   0.349  44.792   0.264
37592W        W97128  22.061  10.678   2.391
37593W        W97129   3.435  15.296   4.678
37594W        W97130   4.899  42.967  10.154
37595W        W97131  30.628  31.017  14.337
37596W        W97132  25.628  43.446  12.350
37597W        W97133  43.350   0.414   0.760
37598W        W97134   5.359  17.139  11.002
37599W        W97135  39.937   1.432  13.540
37600W        W97136  13.820   4.852   3.782
37601W        W97137  40.523  43.921   2.795
37602W        W97138  38.486  20.162   0.771
37603W        W97139  34.453  22.684   0.857
37604W        W97140  12.171  40.856   3.848
37605W        W97141  40.333  17.619  12.087
37606W        W97142  14.807   2.265   1.872
37607W        W97143   7.739  44.838  13.385
37608W        W97144  13.664  26.985  12.469
37609W        W97145   7.858  38.848   3.699
37610W        W97146   3.759  21.131   0.242
37611W        W97147  10.802  21.189  12.935
37612W        W97148  33.028   1.886   1.274
37613W        W97149  31.000  11.278   3.682
37614W        W97150  14.748  35.015   3.732
37615W        W97151  12.349  38.390   0.926
37616W        W97152   4.768  34.045   1.703
37617W        W97153  14.177   4.701  14.358
37618W        W97154  36.377  34.889   0.476
37619W        W97155  44.003  40.918  11.950
37620W        W97156   8.356  18.183  13.018
37621W        W97157   2.869  41.921  12.567
37622W        W97158  44.276   6.316  10.450
37623W        W97159  12.667  29.981  13.030
37624W        W97160  11.181  41.855  12.907
37625W        W97161  40.810  10.309   1.403
37626W        W97162  22.738  40.517  10.604
37627W        W97163  34.999  14.622  11.589
37628W        W97164  12.707  42.026  13.936
37629W        W97165  40.343  27.556   0.434
37630W        W97166   4.250  33.938   4.677
37631W        W97167   4.808  30.490  14.443
37632W        W97168  14.806  15.581  10.634
37633W        W97169  19.065   3.397   1.270
37634W        W97170  41.839  30.965   3.299
37635W        W97171  44.457  31.566  11.937
37636W        W97172  24.016  28.071   5.119
37637W        W97173  38.879  44.505  11.953
37638W        W97174  29.042  35.967   4.217
37639W        W97175  14.636  28.999  11.956
37640W        W97176  43.441  29.441  12.364
37641W        W97177  25.055  10.237   0.422
37642W        W97178   8.799   0.305  12.834
37643W        W97179  27.019  42.307  11.984
37644W        W97180  31.069  26.135   1.729
37645W        W97181  23.241  28.674   1.438
37646W        W97182   5.819  15.616   1.901
37647W        W97183  19.204  14.144  14.339
37648W        W97184  14.595  14.623  12.553
37649W        W97185  26.476   2.453   0.367
37650W        W97186  26.156   6.366   0.827
37651W        W97187   8.265   8.659  14.371
37652W        W97188   9.829  12.813  10.949
37653W        W97189  38.057  22.548  14.928
37654W        W97190  29.104  41.429  10.641
37655W        W97191  12.294  16.083   3.313
37656W        W97192  34.520  26.688  12.868
37657W        W97193  19.706  28.635   2.799
37658W        W97194  35.980  36.369  12.979
37659W        W97195  37.831  31.144   3.792
37660W        W97196  31.933   1.437   4.345
37661W        W97197  34.009  19.227  13.963
37662W        W97198   3.953  41.441   0.866
37663W        W97199  21.117  16.809  11.381
37664W        W97200  12.122  30.439   3.250
37665W        W97201  33.601  20.628   0.482
37666W        W97202  39.010  41.422  13.380
37667W        W97203  17.679   5.696  10.943
37668W        W97204   3.332  43.804  13.519
37669W        W97205   8.737  44.271  10.405
37670W        W97206  27.602  27.186  13.531
37671W        W97207  31.514  32.440  11.977
37672W        W97208  20.100  16.808   2.305
37673W        W97209  28.983  28.453   1.826
37674W        W97210  43.963  39.888   2.671
37675W        W97211  43.500   4.830  10.405
37676W        W97212   8.859  16.752   4.627
37677W        W97213   8.322   1.916   3.333
37678W        W97214  38.382   5.807  13.865
37679W        W97215  14.755  27.527  14.794
37680W        W97216  38.064  44.899   4.285
37681W        W97217  22.081  19.757   5.264
37682W        W97218  40.923  42.779   1.339
37683W        W97219  43.984  33.916   2.271
37684W        W97220   8.329  25.993   1.803
37685W        W97221   8.302  37.445  10.487
37686W        W97222  16.775  11.343   4.634
37687W        W97223  16.313  25.602  11.933
37688W        W97224  19.158   0.279  14.875
37689W        W97225  24.014   1.359  13.953
37690W        W97226  13.195  29.998   1.736
37691W        W97227  30.073  28.057  14.390
37692W        W97228  12.178  23.233  14.914
37693W        W97229   7.410   0.852   3.817
37694W        W97230  23.136  38.948   1.784
37695W        W97231  20.723  33.623  14.294
37696W        W97232  12.140  39.852   2.354
37697W        W97233  10.356   9.303  12.840
37698W        W97234  33.590  41.483  10.612
37699W        W97235   3.409   9.242   2.383
37700W        W97236   8.795  20.703   0.918
37701W        W97237   6.303  36.550  10.486
37702W        W97238   3.402   0.958   4.767
37703W        W97239  30.048   9.332   2.404
37704W        W97240  28.448   6.684  11.085
37705W        W97241  18.289  12.326   2.304
37706W        W97242  17.654  35.931  11.054
37707W        W97243  26.538  31.613  12.077
37708W        W97244   2.953  14.121   0.944
37709W        W97245   5.419   4.710   2.749
37710W        W97246   2.288  19.151  13.852
37711W        W97247  18.244  29.160   0.296
37712W        W97248   3.822  38.443   4.708
37713W        W97249  44.367  44.843   0.802
37714W        W97250  18.594  20.751  10.004
37715W        W97251  28.017  18.224  12.945
37716W        W97252  14.625   2.272  11.029
37717W        W97253   3.446  42.898  14.780
37718W        W97254  35.383  25.042   1.375
37719W        W97255   8.767   9.348   0.381
37720W        W97256   0.933   7.835  10.548
37721W        W97257  32.084  38.536   2.742
37722W        W97258  44.903  33.393  10.998
37723W        W97259  24.039  42.810   1.238
37724W        W97260  20.196  16.658   3.354
37725W        W97261   8.232  16.604   2.894
37726W        W97262   7.836  10.333   1.823
37727W        W97263  34.877  22.631  14.911
37728W        W97264  11.684  27.685  12.004
37729W        W97265   4.793  38.492  13.992
37730W        W97266  43.301  41.870  10.424
37731W        W97267  31.980  23.683  13.902
37732W        W97268  27.535  40.840  14.358
37733W        W97269  28.469  18.272   4.340
37734W        W97270  10.842  30.024  14.349
37735W        W97271  38.342  26.140  14.319
37736W        W97272   0.438  19.664   0.914
37737W        W97273  17.576   8.852  10.538
37738W        W97274  33.548  12.679  13.033
37739W        W97275  37.913  34.532   0.430
37740W        W97276  36.433   4.406   1.840
37741W        W97277  23.656   8.785  13.409
37742W        W97278   6.713   0.434  10.993
37743W        W97279   5.799  36.589   4.769
37744W        W97280  18.089  24.976  10.622
37745W        W97281  43.941  38.362  10.892
37746W        W97282   0.490  27.583  13.841
37747W        W97283  14.103  22.150  13.436
37748W        W97284  38.333  38.500  12.340
37749W        W97285   4.828   8.255   3.173
37750W        W97286  27.512  32.532  13.442
37751W        W97287  27.955  37.508   0.411
37752W        W97288  27.587  38.954   1.933
37753W        W97289  34.006   8.866   1.298
37754W        W97290  18.132  31.085   3.293
37755W        W97291  36.504  11.750  14.813
37756W        W97292  17.300  23.118   2.221
37757W        W97293  27.054   7.852  13.800
37758W        W97294  24.151  42.398   2.841
37759W        W97295  15.253  19.604  12.533
37760W        W97296   7.780  13.755   1.363
37761W        W97297  12.152  36.953  12.062
37762W        W97298  10.655  29.618   9.544
37763W        W97299  12.167  38.930   0.794
37764W        W97300   9.352  44.370  14.872
37765W        W97301  26.999  39.925   4.183
37766W        W97302  10.660  19.585  13.526
37767W        W97303   4.244  19.220   4.252
37768W        W97304  41.468  16.635  10.636
37769W        W97305  33.074  25.614  11.978
37770W        W97306  15.749  10.274  11.972
37771W        W97307  29.559  23.094  10.638
37772W        W97308   0.355   0.331   3.369
37773W        W97309  23.713  36.585  10.543
37774W        W97310  37.486  36.083  10.158
37775W        W97311  14.253  42.334  12.566
37776W        W97312  13.716  43.335  10.628
37777W        W97313  15.745   7.181   4.228
37778W        W97314  13.827  31.641   0.886
37779W        W97315  43.378   4.851   0.888
37780W        W97316  30.627   1.416  12.913
37781W        W97317  16.688  27.040   3.631
37782W        W97318  39.532  24.642  12.091
37783W        W97319   6.858  42.365   1.722
37784W        W97320  39.373  41.857  13.882
37785W        W97321  24.567  41.323   2.341
37786W        W97322  36.947  37.442  11.600
37787W        W97323  14.193  43.870   0.774
37788W        W97324  26.515  26.041  10.408
37789W        W97325  12.810   0.473   2.400
37790W        W97326  11.179  10.198  14.296
37791W        W97327  14.177  25.977   0.468
37792W        W97328   5.850  29.949   1.279
37793W        W97329  15.154  20.606  12.357
37794W        W97330  41.501  39.452  14.503
37795W        W97331  36.066  24.072  14.345
37796W        W97332  21.652   1.800   2.851
37797W        W97333   6.817  23.670  13.942
37798W        W97334  42.853   6.191   1.747
37799W        W97335  25.983  23.734   2.853
37800W        W97336   0.312  31.580  11.550
37801W        W97337  11.271  11.218  14.929
37802W        W97338  15.699   6.901  11.951
37803W        W97339  41.376   5.919  12.884
37804W        W97340  28.671   1.302  14.858
37805W        W97341   0.413  25.596  14.430
37806W        W97342   6.330   8.821   5.115
37807W        W97343  38.940  16.698  12.437
37808W        W97344  25.628  36.977  11.902
37809W        W97345  39.041  27.515   3.293
37810W        W97346  36.355  18.143   0.401
37811W        W97347  26.683  44.857   1.340
37812W        W97348  11.756  22.645  10.143
37813W        W97349  22.672  14.130  10.942
37814W        W97350   0.807  21.118  11.892
37815W        W97351  41.987  38.047  12.559
37816W        W97352  41.988   0.253  12.422
37817W        W97353   4.360   7.718  12.829
37818W        W97354  22.063  30.053   4.120
37819W        W97355   4.796   4.790   3.280
37820W        W97356  25.210   6.213  14.917
37821W        W97357  36.078  36.088  11.472
37822W        W97358  28.594  26.624  13.924
37823W        W97359  16.213  17.214  10.416
37824W        W97360   1.746  41.871   5.187
37825W        W97361  29.068   0.858   2.887
37826W        W97362  31.123  34.025  13.389
37827W        W97363   7.224  34.924  11.106
37828W        W97364  36.054  36.426   2.838
37829W        W97365  20.739   6.846   3.240
37830W        W97366  25.552  44.756  14.922
37831W        W97367   0.744  24.590   9.535
37832W        W97368  10.342  26.156   0.437
37833W        W97369   8.216  11.762   1.766
37834W        W97370  30.948  28.466   1.316
37835W        W97371   2.862   5.805   3.835
37836W        W97372  44.497  32.521   4.275
37837W        W97373   0.787  24.091   2.327
37838W        W97374   2.901   8.187   4.201
37839W        W97375  27.080   7.230  10.568
37840W        W97376  36.523   5.318  14.928
37841W        W97377  10.196  32.022   0.788
37842W        W97378  10.168  38.499  10.435
37843W        W97379  44.986  23.656   3.221
37844W        W97380  36.537  28.092   2.792
37845W        W97381  25.498   5.724   1.407
37846W        W97382  16.779  25.485   2.402
37847W        W97383   8.340  13.267  11.435
37848W        W97384   6.386  11.842  14.385
37849W        W97385  11.331  19.559  12.448
37850W        W97386  11.848   3.766   3.638
37851W        W97387  30.961   1.833  10.887
37852W        W97388  36.914   5.798   4.702
37853W        W97389   4.914   6.907   1.409
37854W        W97390  19.196  11.752  13.455
37855W        W97391  25.571  21.696  13.871
37856W        W97392  29.168  19.617   0.433
37857W        W97393  28.627   8.363  13.348
37858W        W97394  13.776  24.072   2.214
37859W        W97395   7.214  30.972  14.934
37860W        W97396  18.623  23.021   4.334
37861W        W97397  27.065   6.856  13.307
37862W        W97398   2.409  34.005  11.946
37863W        W97399  40.871   4.306  14.804
37864W        W97400  41.991  24.718  12.497
37865W        W97401  20.164  10.747  14.309
37866W        W97402  43.490   5.690  14.492
37867W        W97403   7.669  25.009  14.973
37868W        W97404  23.710  42.337   3.284
37869W        W97405   7.258  19.040   0.379
37870W        W97406  36.948   9.294   0.305
37871W        W97407   9.364  36.844  14.510
37872W        W97408  17.144   2.349  13.333
37873W        W97409  20.134  40.026   0.829
37874W        W97410  19.119   7.304   4.155
37875W        W97411   5.330  27.146   9.461
37876W        W97412   4.846  28.009  14.007
37877W        W97413   7.364   2.903  13.419
37878W        W97414  44.838  36.010   0.940
37879W        W97415   6.295   2.386   0.266
37880W        W97416  29.535   1.432  11.914
37881W        W97417  28.583   5.368  13.366
37882W        W97418  17.145  39.941  13.352
37883W        W97419  42.814  24.163   5.145
37884W        W97420  43.349   7.317  13.458
37885W        W97421  11.809   9.720   1.726
37886W        W97422   0.746   3.855   2.213
37887W        W97423   1.419  34.022  13.369
37888W        W97424  11.812  24.062  13.794
37889W        W97425  39.003  30.427  10.997
37890W        W97426  20.670  27.456  13.307
37891W        W97427  18.553  20.548  13.467
37892W        W97428  32.634  41.445   1.765
37893W        W97429  23.218  28.976  13.376
37894W        W97430  34.535  24.223  11.586
37895W        W97431  12.781  10.271  11.875
37896W        W97432  42.319  39.974  10.968
37897W        W97433  37.374  29.140  10.947
37898W        W97434  28.478  14.332  12.374
37899W        W97435  27.630   1.806   3.160
37900W        W97436  36.366   7.256  14.812
37901W        W97437  44.961  29.139  13.501
37902W        W97438  12.198  28.610   1.340
37903W        W97439  41.027   3.936   4.820
37904W        W97440  41.024  10.838   3.305
37905W        W97441  15.135  39.386  11.086
37906W        W97442  11.631  18.051  10.942
37907W        W97443   2.920  19.569   4.793
37908W        W97444  44.997  41.431  10.967
37909W        W97445  10.144  13.724   2.301
37910W        W97446  33.975  10.763  11.490
37911W        W97447   9.178  14.119  12.473
37912W        W97448  40.877  18.732  13.343
37913W        W97449  35.963  27.138   2.871
37914W        W97450   0.910  36.957  11.033
37915W        W97451  33.503   5.227  14.765
37916W        W97452  11.698  21.248  14.501
37917W        W97453  42.471  20.704   1.840
37918W        W97454  26.030  33.948  13.377
37919W        W97455  41.881  19.270   2.282
37920W        W97456  35.533   8.374   3.718
37921W        W97457  16.596  33.921  13.892
37922W        W97458  43.299  38.546  14.876
37923W        W97459  26.179  32.608   3.789
37924W        W97460  29.566   1.450   2.308
37925W        W97461  18.242  43.515   0.769
37926W        W97462   8.395   5.719  14.326
37927W        W97463  16.615  22.130  14.966
37928W        W97464  37.363  12.254  11.125
37929W        W97465  41.307  38.381  12.052
37930W        W97466  40.506  43.983   4.147
37931W        W97467  37.043  27.988   2.730
37932W        W97468   8.700  25.199   3.184
37933W        W97469  33.442  22.235   4.181
37934W        W97470  44.806   9.175   9.580
37935W        W97471   7.784  36.019  14.852
37936W        W97472  38.348  38.367  10.615
37937W        W97473  16.747  37.016  14.408
37938W        W97474  23.702  26.660  14.465
37939W        W97475  19.094  22.598   2.875
37940W        W97476  15.222   1.237  11.008
37941W        W97477  19.085  35.540   9.995
37942W        W97478  20.073  23.700   2.202
37943W        W97479   4.298   2.949  13.446
37944W        W97480  23.569  23.663  11.972
37945W        W97481  22.611  40.384   0.881
37946W        W97482  34.041  42.293  11.114
37947W        W97483  39.919  41.978  14.427
37948W        W97484  37.471  11.703  14.761
37949W        W97485   2.397  20.760  12.427
37950W        W97486  42.001  41.799   2.387
37951W        W97487   3.757  25.013   5.190
37952W        W97488  35.558   2.928   3.808
37953W        W97489  44.932  20.582   3.355
37954W        W97490   4.229  43.464  13.398
37955W        W97491  40.940  25.141   2.294
37956W        W97492  17.739  37.992   4.801
37957W        W97493  11.820  15.274  14.392
37958W        W97494  35.517   4.832   4.711
37959W        W97495  40.382   7.800   2.327
37960W        W97496  17.270  29.617   1.915
37961W        W97497   0.855  17.189   3.149
37962W        W97498  41.030  43.339  14.797
37963W        W97499   2.280  22.226   0.479
37964W        W97500  16.764  34.024   2.259
37965W        W97501  17.611  42.497   3.386
37966W        W97502  22.559  32.541   2.706
37967W        W97503  21.106  24.645  11.430
37968W        W97504   0.368  24.167   3.743
37969W        W97505  30.162   5.832   4.298
37970W        W97506  42.956   2.738   3.698
37971W        W97507  18.560  40.851   1.744
37972W        W97508  29.527  20.744   2.254
37973W        W97509  27.467   7.223  12.000
37974W        W97510   2.414  30.492  13.478
37975W        W97511  36.993  44.440   4.828
37976W        W97512   9.869  43.805   2.250
37977W        W97513  43.481   1.480   0.806
37978W        W97514  14.161  11.179   2.679
37979W        W97515  44.917   3.855  14.031
37980W        W97516  36.470  38.974   0.290
37981W        W97517  40.037  32.581  14.888
37982W        W97518  38.394  44.926   3.234
37983W        W97519  34.381  39.976   1.232
37984W        W97520  11.739  44.328   4.132
37985W        W97521  28.016  26.017   2.223
37986W        W97522   6.816  21.028   1.801
37987W        W97523  25.690  30.433  13.380
37988W        W97524   3.748  32.537  12.934
37989W        W97525  38.875  14.170  11.949
37990W        W97526   0.308   4.208   3.261
37991W        W97527   9.327  34.427   3.850
37992W        W97528  17.202  37.058   1.809
37993W        W97529  13.319  13.258  12.431
37994W        W97530  42.328  14.118   9.463
37995W        W97531  12.721  27.180   4.763
37996W        W97532  39.820  42.797  11.385
37997W        W97533   3.458  26.675  13.014
37998W        W97534  38.496  27.527  12.870
37999W        W97535  44.402   8.680   2.345
38000W        W97536  24.131  21.049   0.958
38001W        W97537  41.819  39.808   3.727
38002W        W97538  31.909  23.510  14.800
38003W        W97539  21.574  13.670   4.253
38004W        W97540  26.587  34.884  12.084
38005W        W97541  24.557  14.201   2.186
38006W        W97542  44.480  42.349  14.437
38007W        W97543  28.083  23.564   0.808
38008W        W97544   1.962  28.173   5.162
38009W        W97545  37.836   9.665   0.455
38010W        W97546  21.146   8.321   0.308
38011W        W97547   5.895  14.830   1.342
38012W        W97548  28.120  40.994   1.263
38013W        W97549  44.828   0.750   3.318
38014W        W97550  29.639  39.433  12.023
38015W        W97551   6.380  37.360  10.419
38016W        W97552   3.872   3.725   1.724
38017W        W97553   1.401  31.413   0.315
38018W        W97554   0.309  12.654  13.372
38019W        W97555   4.916   9.776  10.137
38020W        W97556  35.553  41.908  11.474
38021W        W97557   6.902  34.078  12.521
38022W        W97558  32.979   1.936  10.533
38023W        W97559  25.090  28.973   0.399
38024W        W97560   6.254  39.946   4.179
38025W        W97561  29.105  32.024   0.777
38026W        W97562  11.832  27.950   1.702
38027W        W97563   2.865  33.462  10.579
38028W        W97564  39.947   2.792   3.223
38029W        W97565   6.827  31.426  10.633
38030W        W97566   3.916   8.837  14.865
38031W        W97567  15.322   4.329  13.450
38032W        W97568  22.165  19.770   4.736
38033W        W97569  36.033  13.617   4.350
38034W        W97570  20.258  30.642   0.765
38035W        W97571  13.299  19.659   5.183
38036W        W97572  30.926   9.873  13.385
38037W        W97573  41.886  18.121   2.373
38038W        W97574  10.167  29.928   2.885
38039W        W97575  29.482  26.085  12.939
38040W        W97576  10.210   0.896   4.297
38041W        W97577  27.133  41.475   1.248
38042W        W97578  24.998  39.314   0.730
38043W        W97579   3.243  25.095   2.185
38044W        W97580  43.304   1.237  13.407
38045W        W97581  15.095  29.554  12.578
38046W        W97582  23.021   7.291   3.249
38047W        W97583  23.111  14.678   4.656
38048W        W97584  28.479  20.755  13.799
38049W        W97585  41.044  26.521  11.456
38050W        W97586  14.666  12.164   3.730
38051W        W97587  39.352  22.058   4.770
38052W        W97588   3.926  41.969  13.349
38053W        W97589  16.271  21.174  10.913
38054W        W97590  29.083  19.238  12.550
38055W        W97591  43.420  17.220  14.031
38056W        W97592  21.233  41.397   1.353
38057W        W97593  42.358   3.730  11.997
38058W        W97594   6.768  12.190   2.379
38059W        W97595   3.856   6.245  10.929
38060W        W97596   8.871  15.245   3.294
38061W        W97597  31.979   7.899   1.332
38062W        W97598  22.542  21.215  10.506
38063W        W97599  44.482  22.080  12.055
38064W        W97600  40.438  38.852   3.208
38065W        W97601   9.766  37.920   3.706
38066W        W97602  31.019  20.152   4.646
38067W        W97603  26.504  10.304  14.464
38068W        W97604  35.028   7.242   2.199
38069W        W97605  19.583   1.765   1.414
38070W        W97606  30.647  34.031  11.432
38071W        W97607   2.418  32.541  13.901
38072W        W97608  26.529  40.933   2.699
38073W        W97609  22.021  22.234   1.263
38074W        W97610  19.660  10.266   3.382
38075W        W97611  17.281  28.103   4.322
38076W        W97612  20.177  43.292   4.190
38077W        W97613  20.049   7.298   1.362
38078W        W97614   3.955   4.327   3.224
38079W        W97615  32.122  13.608  11.467
38080W        W97616  15.201  16.763   4.257
38081W        W97617   4.414   5.358  14.987
38082W        W97618  26.519  20.072  14.297
38083W        W97619  38.411  38.398  12.059
38084W        W97620  22.068  21.674  10.419
38085W        W97621  11.205  11.818  14.391
38086W        W97622  41.834  17.738  12.071
38087W        W97623  36.483  25.494   4.305
38088W        W97624   4.285   7.224  12.463
38089W        W97625  41.985  14.686   3.816
38090W        W97626  30.019  23.079   4.124
38091W        W97627  40.994  15.649   4.183
38092W        W97628  38.410  15.304   0.872
38093W        W97629  13.619  16.244   2.899
38094W        W97630  44.264  32.629  13.970
38095W        W97631  41.390  27.534  13.041
38096W        W97632  23.506  31.077  14.367
38097W        W97633   4.721  27.034  12.843
38098W        W97634  23.518   8.734   1.412
38099W        W97635  18.562  39.952  12.987
38100W        W97636  10.727  27.017  13.894
38101W        W97637  20.273   5.844   3.177
38102W        W97638   7.801  28.461   4.192
38103W        W97639  27.613  29.973  10.437
38104W        W97640  10.755   5.776  14.435
38105W        W97641   4.744  29.050   3.312
38106W        W97642  30.516   5.290   0.788
38107W        W97643  40.808  17.258   1.751
38108W        W97644  42.484  11.657  12.872
38109W        W97645  23.662  39.003   2.712
38110W        W97646  17.237  24.672  12.349
38111W        W97647  42.959   1.462   1.398
38112W        W97648  34.108   5.398  12.414
38113W        W97649   5.929  18.198  10.931
38114W        W97650  30.962   0.302  10.584
38115W        W97651  29.607  18.283   2.706
38116W        W97652  43.408   3.435  12.076
38117W        W97653  43.930   8.397   4.774
38118W        W97654   6.205  26.053   0.742
38119W        W97655  44.824  31.038  10.493
38120W        W97656  10.748   1.790  13.493
38121W        W97657   2.298  20.117  11.868
38122W        W97658  40.825  42.976  11.942
38123W        W97659  19.658  34.552  14.416
38124W        W97660  39.539  19.106  10.917
38125W        W97661  40.961  14.747  10.102
38126W        W97662  39.495  21.248  14.361
38127W        W97663  35.376  29.974  11.885
38128W        W97664  25.128  28.005  14.010
38129W        W97665  15.269   2.416   0.777
38130W        W97666  44.841   5.907  12.516
38131W        W97667  31.577  20.768  13.322
38132W        W97668  16.187   9.352   4.122
38133W        W97669   2.280  10.783  12.554
38134W        W97670   2.452   7.880  10.561
38135W        W97671   3.899   9.813  13.048
38136W        W97672  13.700  20.226  10.432
38137W        W97673  13.128  13.130   5.257
38138W        W97674  39.478   8.269  10.455
38139W        W97675  39.507  33.424  11.902
38140W        W97676  31.513   8.870  13.386
38141W        W97677  20.216  42.455   2.259
38142W        W97678  11.743  11.651  12.939
38143W        W97679  43.887  42.890   3.761
38144W        W97680  14.652  30.437   0.881
38145W        W97681  21.750  40.436   1.822
38146W        W97682  34.026  25.162  11.397
38147W        W97683   7.376  32.610  13.428
38148W        W97684  41.299  40.934   3.812
38149W        W97685   7.313  27.619  10.123
38150W        W97686  17.104  20.204  14.275
38151W        W97687  37.082  39.981   1.896
38152W        W97688  17.654  24.723   0.346
38153W        W97689  44.477   8.385  14.285
38154W        W97690  17.099   3.311   4.308
38155W        W97691  27.002  41.513  12.433
38156W        W97692  32.117  44.348   3.242
38157W        W97693  39.937  43.290   2.886
38158W        W97694  41.849  23.153   4.289
38159W        W97695  14.273   1.462   2.400
38160W        W97696  42.845  36.346   3.205
38161W        W97697  31.058  17.096  11.032
38162W        W97698  16.594  24.600   2.731
38163W        W97699  25.482   5.781  11.400
38164W        W97700  43.388   3.395   0.338
38165W        W97701  22.690   1.895   2.406
38166W        W97702  16.801  30.416   1.421
38167W        W97703  23.693   9.362  14.317
38168W        W97704  33.496  37.053  14.424
38169W        W97705   9.682  22.544  13.062
38170W        W97706  13.309  36.971  13.892
38171W        W97707   2.724  21.195   0.317
38172W        W97708   0.811  13.322  10.098
38173W        W97709  23.640  39.450   4.156
38174W        W97710  25.096  44.481   3.369
38175W        W97711  14.247  18.733  11.470
38176W        W97712  23.532  15.107  10.548
38177W        W97713  16.644  18.092   1.324
38178W        W97714  16.286  38.540   0.292
38179W        W97715  34.983  22.229   4.149
38180W        W97716  38.480  31.029   0.935
38181W        W97717  17.114  28.618   2.254
38182W        W97718   0.371  11.171   2.271
38183W        W97719  24.063  32.941   5.090
38184W        W97720  17.163  42.524   1.782
38185W        W97721   0.777  41.005  11.583
38186W        W97722  29.102  24.150  12.568
38187W        W97723  39.992   5.707  11.602
38188W        W97724   6.208   1.954  11.487
38189W        W97725  19.576  13.258  11.000
38190W        W97726  38.879  11.255   0.292
38191W        W97727  28.010   1.414  12.007
38192W        W97728  24.123   5.430   0.390
38193W        W97729  10.156  32.570  11.377
38194W        W97730   1.761  22.721   4.796
38195W        W97731  20.695  27.964   3.751
38196W        W97732  20.131  42.423   3.333
38197W        W97733  37.832  19.535   0.312
38198W        W97734  14.641  36.044   0.835
38199W        W97735  14.308  37.931  13.890
38200W        W97736  42.822  39.495  13.540
38201W        W97737   7.226  21.099  14.020
38202W        W97738  17.559  28.527  11.127
38203W        W97739  18.553  34.023   4.134
38204W        W97740   8.184  21.136   3.679
38205W        W97741  27.125  13.281  13.906
38206W        W97742  28.597  18.623   3.192
38207W        W97743  11.669  25.146  13.328
38208W        W97744   2.868  43.944  10.515
38209W        W97745  26.071  25.165   0.758
38210W        W97746  28.993  24.634   1.768
38211W        W97747  14.211  36.057  10.453
38212W        W97748  17.307  39.459  12.052
38213W        W97749  44.807  12.699  13.408
38214W        W97750   3.871   5.211   3.770
38215W        W97751  40.034  20.551  12.899
38216W        W97752  44.315  19.536  12.085
38217W        W97753   3.277  13.806   3.328
38218W        W97754  21.146   5.234   5.590
38219W        W97755  15.634   2.431   3.266
38220W        W97756  26.057  21.063   4.144
38221W        W97757   1.253   0.455   2.785
38222W        W97758  39.873   1.336   3.356
38223W        W97759  38.535  20.213  14.966
38224W        W97760  19.538  31.128   2.871
38225W        W97761  33.545  29.113  13.812
38226W        W97762  28.103  38.077   4.351
38227W        W97763   3.881  29.151  14.942
38228W        W97764  43.918  17.565  12.470
38229W        W97765  16.681  23.584   0.377
38230W        W97766  24.656  40.019  14.925
38231W        W97767  11.171   0.450  13.003
38232W        W97768  41.937  17.662   3.226
38233W        W97769   0.358  10.866  12.863
38234W        W97770  18.188   6.769  10.614
38235W        W97771  26.650  33.929   2.769
38236W        W97772  21.123  44.489   2.819
38237W        W97773  19.086  34.955   4.729
38238W        W97774   6.754  35.372   4.132
38239W        W97775   5.815  15.805  12.963
38240W        W97776  38.538  22.047  14.817
38241W        W97777  37.573  44.298  12.017
38242W        W97778  30.157  21.681   2.189
38243W        W97779   9.816  16.309  14.397
38244W        W97780  43.010  15.322  14.788
38245W        W97781  23.711   7.737   1.839
38246W        W97782   7.245  11.627   4.344
38247W        W97783  14.721  33.928  12.837
38248W        W97784  16.628  27.495  10.644
38249W        W97785   0.791  15.101   4.760
38250W        W97786  33.903  19.255   1.432
38251W        W97787  14.739   8.180   4.345
38252W        W97788  18.651  26.158  12.954
38253W        W97789  24.227   8.181   3.296
38254W        W97790  38.363  43.790   2.828
38255W        W97791   6.314   1.433  14.470
38256W        W97792  37.991  13.652  13.993
38257W        W97793  22.655  34.479  12.440
38258W        W97794   5.705  21.552  11.394
38259W        W97795   7.357  44.260  14.471
38260W        W97796  32.499  43.503   0.944
38261W        W97797  21.238  33.086  12.041
38262W        W97798  14.203  43.428   0.767
38263W        W97799  14.807  26.508  14.285
38264W        W97800   9.723   5.712  13.840
38265W        W97801   6.695  32.921   4.778
38266W        W97802  37.980  41.361  12.451
38267W        W97803  33.426  36.525   2.316
38268W        W97804  29.635  37.860   0.921
38269W        W97805  31.440  38.447   2.177
38270W        W97806   5.893   6.315   1.886
38271W        W97807  17.128  15.242  11.604
38272W        W97808  19.655  31.568  13.377
38273W        W97809  38.338  25.974  11.050
38274W        W97810   5.776  33.394   4.673
38275W        W97811  34.392   2.441   0.255
38276W        W97812   4.431  21.526  14.811
38277W        W97813  10.813  19.669   4.296
38278W        W97814  37.472  19.094   2.828
38279W        W97815  26.553   2.434   0.846
38280W        W97816   7.234  24.536   3.279
38281W        W97817  19.549  24.703  11.386
38282W        W97818  29.012  11.811  11.020
38283W        W97819  28.184  15.318   3.679
38284W        W97820  40.894  28.008  12.986
38285W        W97821  12.264  33.431  10.496
38286W        W97822   4.217  28.931   2.701
38287W        W97823  36.470  28.943   2.719
38288W        W97824  19.551  13.297   1.360
38289W        W97825  15.631   8.370  11.510
38290W        W97826  27.140  27.461  12.512
38291W        W97827  30.054  14.830  11.867
38292W        W97828  30.647  43.471  11.378
38293W        W97829   4.886  22.607   3.774
38294W        W97830   6.200   7.368  11.374
38295W        W97831  25.628  19.122   3.156
38296W        W97832  36.379  14.612  12.981
38297W        W97833   1.898  19.566  10.513
38298W        W97834  42.300   5.246  13.450
38299W        W97835  19.213  22.070  11.046
38300W        W97836  36.550  37.862  13.539
38301W        W97837  28.057  36.018  11.984
38302W        W97838  18.752  39.858  13.970
38303W        W97839  38.482  29.083  14.282
38304W        W97840  26.568  43.989  10.559
38305W        W97841  37.922   0.979  13.004
38306W        W97842   8.340  42.516  11.530
38307W        W97843  22.202  36.918   0.260
38308W        W97844  30.998  17.063  13.547
38309W        W97845  34.011  31.631   2.371
38310W        W97846  29.085  25.538   0.242
38311W        W97847  20.082   4.425  10.068
38312W        W97848  37.057  37.449   3.858
38313W        W97849   5.857  44.458   3.714
38314W        W97850  20.065  19.243   1.781
38315W        W97851  41.396  31.537  14.866
38316W        W97852  14.727  30.587  10.034
38317W        W97853   5.279  42.935  11.535
38318W        W97854  17.729  38.526  10.982
38319W        W97855  40.908  19.698  11.422
38320W        W97856   8.853  17.762  14.393
38321W        W97857  15.755  44.939  13.379
38322W        W97858  35.024  17.103   2.746
38323W        W97859   7.811  15.162   4.165
38324W        W97860   6.769  20.178   0.370
38325W        W97861  39.455  18.716   3.825
38326W        W97862   8.355   2.890  13.384
38327W        W97863  11.129  19.570   3.678
38328W        W97864   3.219  43.956   0.284
38329W        W97865  44.323  13.700   9.522
38330W        W97866   5.864  20.090   4.353
38331W        W97867  28.139  21.513  12.422
38332W        W97868   7.320  16.302  11.091
38333W        W97869   0.852  43.924   1.882
38334W        W97870  34.040  34.030  11.898
38335W        W97871   2.390   6.912  11.003
38336W        W97872  42.893  37.958  11.461
38337W        W97873  28.621  29.505  12.080
38338W        W97874   8.224  15.257  12.488
38339W        W97875  42.494  33.127  11.864
38340W        W97876  22.688  14.316   1.706
38341W        W97877  14.713  12.119  13.530
38342W        W97878  17.086  10.806   0.920
38343W        W97879  20.171  29.162   3.162
38344W        W97880  10.796  28.053  13.040
38345W        W97881  29.057  27.544   3.199
38346W        W97882  10.817  29.922   5.108
38347W        W97883   3.909  22.703  14.867
38348W        W97884  33.453   6.685  12.495
38349W        W97885  21.744  39.452   1.286
38350W        W97886   2.838   1.852   2.897
38351W        W97887  22.515  42.285   0.370
38352W        W97888  27.664  27.998   4.749
38353W        W97889  24.686  32.496   3.825
38354W        W97890  18.610  33.453   2.202
38355W        W97891  13.782   8.236   3.868
38356W        W97892  28.543   1.913  11.868
38357W        W97893  41.385  41.860   3.344
38358W        W97894  21.054  19.150   9.457
38359W        W97895  20.595  21.019   4.129
38360W        W97896  38.880   0.871  14.895
38361W        W97897  20.767  26.646  13.312
38362W        W97898  33.882  40.327   2.394
38363W        W97899   8.891  16.171  11.108
38364W        W97900   0.858  26.583  12.014
38365W        W97901  14.606  13.207   2.197
38366W        W97902  13.821  22.720   0.287
38367W        W97903   4.866  11.820   0.834
38368W        W97904   2.754   7.800   1.695
38369W        W97905  16.207   9.174  11.937
38370W        W97906  10.356   9.754  11.423
38371W        W97907   8.837   0.886   0.290
38372W        W97908   4.834  24.010   3.277
38373W        W97909   3.450   0.811  11.976
38374W        W97910   4.812  37.851  12.013
38375W        W97911  24.549   4.857   2.799
38376W        W97912   2.456  21.126   4.716
38377W        W97913  13.698  23.591   4.283
38378W        W97914   0.255   5.776   2.345
38379W        W97915  37.970  22.666   4.830
38380W        W97916  27.994   0.973   2.832
38381W        W97917  27.043   0.448   1.714
38382W        W97918  19.748   4.725  14.326
38383W        W97919  36.423  35.022  10.553
38384W        W97920  36.069  30.984  12.077
38385W        W97921  24.092  39.029  11.941
38386W        W97922   1.474  22.077  12.388
38387W        W97923   7.695   0.784  12.940
38388W        W97924  27.976  13.256   3.708
38389W        W97925  39.813  24.517   3.203
38390W        W97926  40.004   2.415   2.283
38391W        W97927  14.693   0.857   4.633
38392W        W97928   7.204  20.716  13.406
38393W        W97929  17.237  35.434  11.400
38394W        W97930  23.229  18.788   1.268
38395W        W97931  44.362  37.563   1.215
38396W        W97932  41.999   3.226   1.258
38397W        W97933  35.088  41.319   4.716
38398W        W97934   1.918  27.043   5.239
38399W        W97935  37.481  29.072  13.792
38400W        W97936  35.490  10.271   4.836
38401W        W97937  41.949  44.456  11.036
38402W        W97938  40.441  39.939   1.859
38403W        W97939   9.337   3.275  11.886
38404W        W97940  37.539  33.081  13.492
38405W        W97941  35.931  15.611   0.816
38406W        W97942  40.377   9.371   0.768
38407W        W97943   9.226   5.761  13.319
38408W        W97944  31.992  22.201  12.957
38409W        W97945  22.593  25.109  11.956
38410W        W97946  25.002  17.785  12.403
38411W        W97947   1.279  11.815  14.305
38412W        W97948  13.627   6.353   4.152
38413W        W97949  12.719   4.246   0.780
38414W        W97950  38.991   1.315   1.846
38415W        W97951   7.820  29.012   0.379
38416W        W97952  21.095  22.198   3.707
38417W        W97953  37.552  17.290   2.772
38418W        W97954   3.222   9.167   3.664
38419W        W97955  21.077   3.348   3.647
38420W        W97956  26.605  29.583   3.340
38421W        W97957  44.819  37.000  10.907
38422W        W97958   1.258   2.727  13.849
38423W        W97959  22.558   9.280   2.324
38424W        W97960  35.532  32.113  10.157
38425W        W97961   7.372   3.890  11.522
38426W        W97962  29.102  18.742   4.757
38427W        W97963   4.929  44.001   0.338
38428W        W97964  12.151   8.183  12.408
38429W        W97965  28.480  31.081  12.351
38430W        W97966  35.933   5.250  12.527
38431W        W97967  42.005  27.971   2.804
38432W        W97968  35.550  15.119   0.333
38433W        W97969  13.822  14.309   4.803
38434W        W97970  39.324  23.670   1.317
38435W        W97971  10.786  22.168  12.925
38436W        W97972  37.082  25.662   3.765
38437W        W97973  43.985  43.816   0.385
38438W        W97974  24.158  15.197  11.042
38439W        W97975  31.962  26.568   0.813
38440W        W97976  17.699  20.171   3.775
38441W        W97977  37.552  23.040   3.262
38442W        W97978  38.327  36.865   0.265
38443W        W97979  42.903  25.688  11.115
38444W        W97980   3.780   3.420  11.434
38445W        W97981   2.399  43.351  14.767
38446W        W97982  24.042  43.512   4.677
38447W        W97983   3.336  34.519   3.708
38448W        W97984  34.506   7.413   2.802
38449W        W97985  22.659  21.199  13.006
38450W        W97986  14.673  39.824  11.109
38451W        W97987  14.802  30.922   1.419
38452W        W97988  37.502   4.904   4.652
38453W        W97989  19.193  36.023  10.525
38454W        W97990  19.533  30.556  12.485
38455W        W97991  12.324  37.420  12.039
38456W        W97992   8.320  43.876  13.989
38457W        W97993  11.862  19.263  11.447
38458W        W97994   4.910  38.048  10.456
38459W        W97995  20.112  18.711   0.374
38460W        W97996   2.292  22.234  12.513
38461W        W97997   5.810  38.923  13.515
38462W        W97998  26.584   2.729   0.849
38463W        W97999  11.849  37.362   3.814
38464W        W98000  14.233  26.016   3.277
38465W        W98001  42.777   6.289   3.815
38466W        W98002  33.083  31.607  14.989
38467W        W98003  38.558   8.728   1.312
38468W        W98004  25.090  43.824  13.318
38469W        W98005  22.609   8.186  12.463
38470W        W98006  18.601  42.862  12.865
38471W        W98007  36.067   6.211   4.753
38472W        W98008  17.150   2.271   2.738
38473W        W98009  38.029  38.008  14.405
38474W        W98010  27.036  33.034   2.788
38475W        W98011  42.980  34.110   4.707
38476W        W98012   7.263  10.799  13.355
38477W        W98013   5.372  11.759   3.213
38478W        W98014  42.365  35.076   1.802
38479W        W98015  44.351  44.311   2.675
38480W        W98016   6.745   5.266  10.543
38481W        W98017  28.605   2.264  10.573
38482W        W98018  13.202  29.467  14.282
38483W        W98019  27.197  36.347   4.325
38484W        W98020   6.712  18.233  13.457
38485W        W98021  39.927  29.496   0.931
38486W        W98022   3.734  31.622  12.456
38487W        W98023   3.720  44.991  10.419
38488W        W98024  27.603  17.681   5.671
38489W        W98025  21.553   0.308  13.806
38490W        W98026  22.067  33.431   2.391
38491W        W98027  11.145  23.121   0.326
38492W        W98028   5.931   9.656   2.200
38493W        W98029   9.887  40.356   3.149
38494W        W98030  18.770   8.237  13.923
38495W        W98031  33.570  24.974   1.288
38496W        W98032  29.609  25.097   0.351
38497W        W98033  34.410  18.208  13.877
38498W        W98034   5.308   2.395  12.553
38499W        W98035   7.341  13.154   2.400
38500W        W98036  42.457  42.284   0.255
38501W        W98037   0.829  20.716  14.405
38502W        W98038  36.471  42.824   2.879
38503W        W98039  33.533   0.280   3.197
38504W        W98040  27.023  41.917   3.211
38505W        W98041  31.402  26.095   1.220
38506W        W98042  37.019  21.637  13.534
38507W        W98043  24.525  13.620  13.332
38508W        W98044  31.606   0.338   4.680
38509W        W98045  30.645  21.647   2.291
38510W        W98046  25.633  22.672   4.808
38511W        W98047  19.707  32.629  12.462
38512W        W98048  23.543   3.260   1.325
38513W        W98049   2.469  42.784  13.040
38514W        W98050  14.153  12.635   0.911
38515W        W98051   0.909   4.374   1.846
38516W        W98052  36.567  10.748   2.225
38517W        W98053  25.075   5.896   1.909
38518W        W98054  23.527  13.346  11.060
38519W        W98055  43.911   8.769  11.538
38520W        W98056  40.963  18.141   4.828
38521W        W98057  36.066   2.458   0.903
38522W        W98058  32.461  39.378   0.353
38523W        W98059  10.663  22.110   1.743
38524W        W98060  18.664   0.770   3.291
38525W        W98061  23.667  34.072   2.415
38526W        W98062   7.812   2.899   4.123
38527W        W98063  28.135   1.916  14.378
38528W        W98064  32.542  42.521   3.174
38529W        W98065  26.173  16.639  14.414
38530W        W98066   9.772  25.478   3.359
38531W        W98067  26.495  43.515  12.359
38532W        W98068  31.972  14.644   3.381
38533W        W98069  37.072  12.159   0.742
38534W        W98070  17.748   3.363  13.467
38535W        W98071   5.219   7.276   4.674
38536W        W98072   0.794  38.547  12.011
38537W        W98073  20.122  10.279   4.758
38538W        W98074  28.591  36.946   3.632
38539W        W98075  23.135  19.195   1.315
38540W        W98076  44.858  18.711  14.025
38541W        W98077  20.648  41.874  12.464
38542W        W98078   6.817  22.593  14.453
38543W        W98079  35.085  24.105   2.870
38544W        W98080  18.769  38.948  11.060
38545W        W98081   1.944  39.821  13.325
38546W        W98082  40.356  24.679   2.365
38547W        W98083  13.238  21.557  11.594
38548W        W98084  23.693  21.154  13.027
38549W        W98085   7.224  40.429  12.028
38550W        W98086  28.987  26.459  10.631
38551W        W98087  13.326  42.865   2.399
38552W        W98088  36.379  31.414   3.859
38553W        W98089  13.742  24.643  14.408
38554W        W98090  34.407   5.362   0.746
38555W        W98091  20.711  34.590   1.763
38556W        W98092  37.365   2.412   0.269
38557W        W98093  37.890  14.618   2.299
38558W        W98094  33.038   0.398  14.476
38559W        W98095  23.594   8.198  13.364
38560W        W98096  41.368   7.851  11.498
38561W        W98097  35.913   9.788  12.350
38562W        W98098  29.015  21.038   1.932
38563W        W98099  28.177  41.538  11.598
38564W        W98100  35.366  30.509  14.312
38565W        W98101  32.522  15.803   2.790
38566W        W98102   9.779  30.143   2.303
38567W        W98103  41.806   6.773   0.834
38568W        W98104  26.996  34.470  11.055
38569W        W98105  42.362   2.401  10.990
38570W        W98106   4.384  25.649  10.625
38571W        W98107  23.084   1.438   3.166
38572W        W98108  12.177  42.342  10.478
38573W        W98109  27.539  32.434   1.797
38574W        W98110  18.647  29.602  13.957
38575W        W98111   4.439  35.926   4.602
38576W        W98112  22.619  25.619   1.811
38577W        W98113  24.002  31.537   1.376
38578W        W98114  25.525   8.253   1.252
38579W        W98115   8.263  25.107  11.943
38580W        W98116   9.885  14.714   3.746
38581W        W98117  22.595   9.166  10.104
38582W        W98118  41.890  15.642   2.700
38583W        W98119   1.915  19.648   3.685
38584W        W98120  18.075  30.606  13.399
38585W        W98121   4.820  35.949   3.779
38586W        W98122   7.882  18.103  10.093
38587W        W98123   8.883  32.974  14.883
38588W        W98124  36.365  33.567  10.439
38589W        W98125  44.864  40.965   3.719
38590W        W98126  13.645  17.212   4.281
38591W        W98127   9.662  30.960   2.823
38592W        W98128   7.378  32.983  13.445
38593W        W98129  34.918  12.795  11.968
38594W        W98130   6.254  41.875   4.784
38595W        W98131  19.599  16.693  13.474
38596W        W98132  27.482  44.783   4.614
38597W        W98133  36.949  37.857  11.536
38598W        W98134  35.563  20.129  13.425
38599W        W98135  24.179   8.893  14.856
38600W        W98136  44.822  22.646   0.439
38601W        W98137  28.035   4.709  12.484
38602W        W98138  32.914  29.061  10.968
38603W        W98139  24.561  40.367  10.989
38604W        W98140   3.298  16.084   1.805
38605W        W98141  20.766  25.088   3.277
38606W        W98142  35.908  34.446  13.331
38607W        W98143  21.108   5.700   4.642
38608W        W98144   4.705  10.191  11.556
38609W        W98145  32.943  10.193   2.728
38610W        W98146  10.209  43.470   0.735
38611W        W98147  28.464  19.555   2.884
38612W        W98148  36.393  15.770   3.815
38613W        W98149   1.786   4.352   3.681
38614W        W98150  20.106  38.341  13.030
38615W        W98151   6.776  26.024   1.371
38616W        W98152   6.738   9.652  14.839
38617W        W98153  39.842  31.917   2.256
38618W        W98154  22.623  29.430   1.798
38619W        W98155  11.183  35.553   0.478
38620W        W98156   9.772   6.916   0.962
38621W        W98157  28.988  11.326   4.334
38622W        W98158   8.656  37.918  14.458
38623W        W98159  23.723   2.817   3.869
38624W        W98160   4.766  26.180   4.344
38625W        W98161  39.328  23.160   4.323
38626W        W98162  28.509  12.726  10.604
38627W        W98163   8.388   4.727   4.223
38628W        W98164   6.352  17.635   2.230
38629W        W98165   3.342  16.703   4.765
38630W        W98166  24.501   1.899  11.530
38631W        W98167  14.662  17.280  11.954
38632W        W98168  35.088   2.834   3.747
38633W        W98169  44.493  18.228   3.853
38634W        W98170  23.645   0.384   4.127
38635W        W98171   0.287   6.294   1.413
38636W        W98172  14.131  35.924   2.839
38637W        W98173  30.542  42.806   3.735
38638W        W98174   4.848  29.525  10.615
38639W        W98175   3.866  38.435   1.414
38640W        W98176   8.398  41.472   0.254
38641W        W98177   7.297  42.030  13.924
38642W        W98178  29.441   3.731  12.533
38643W        W98179  36.967  13.337  11.057
38644W        W98180   8.233  35.548  14.497
38645W        W98181  25.092  22.172   2.344
38646W        W98182  27.967  26.578  11.417
38647W        W98183   9.682   2.272   2.863
38648W        W98184  18.742  32.636   4.625
38649W        W98185  37.554  38.542  11.374
38650W        W98186   2.316  25.472   3.277
38651W        W98187  27.489  43.284  11.008
38652W        W98188  29.024  33.035  10.926
38653W        W98189  11.689   7.693  12.477
38654W        W98190  29.518   3.943  13.863
38655W        W98191  33.442  29.619   4.243
38656W        W98192  17.143  16.257   4.165
38657W        W98193  20.713  27.966  10.503
38658W        W98194  37.522   0.970  12.839
38659W        W98195  22.088  44.946   0.302
38660W        W98196  30.917  41.395   0.290
38661W        W98197  43.284  23.510   0.801
38662W        W98198  42.849   8.702   4.291
38663W        W98199  29.114  10.761  14.879
38664W        W98200  44.953  17.184  13.403
38665W        W98201  41.387  35.388  10.451
38666W        W98202  19.615  25.557   0.893
38667W        W98203  16.318   0.397   4.249
38668W        W98204  38.940  11.708   9.921
38669W        W98205  11.760  32.492   2.765
38670W        W98206  28.491  26.648   0.391
38671W        W98207  42.393  36.425   2.325
38672W        W98208  12.270   7.699   2.310
38673W        W98209  36.506  40.497   0.349
38674W        W98210   0.469  14.773   2.295
38675W        W98211  33.002   5.870  12.926
38676W        W98212  16.597  33.533  13.978
38677W        W98213  20.030  18.611   2.377
38678W        W98214  24.223  17.799   0.480
38679W        W98215  41.530  27.584  12.566
38680W        W98216   2.792  20.690   0.772
38681W        W98217  23.503  22.103  12.856
38682W        W98218  31.604   4.829  11.492
38683W        W98219  36.478  16.739   0.435
38684W        W98220  44.985  32.902   3.665
38685W        W98221   4.242  20.099   1.210
38686W        W98222  41.499   4.378   4.336
38687W        W98223  28.485  19.725  11.440
38688W        W98224  41.473  33.995  10.410
38689W        W98225  11.300  20.690  11.108
38690W        W98226  30.985  31.146  10.999
38691W        W98227  35.440  27.139  11.122
38692W        W98228  22.054  39.496  10.437
38693W        W98229  34.895  30.462   3.731
38694W        W98230  40.405   5.251   2.237
38695W        W98231  17.775  36.878  14.473
38696W        W98232  16.258  34.566   2.416
38697W        W98233  44.924   5.349  13.847
38698W        W98234  41.818  18.280   4.833
38699W        W98235  36.896  23.706   1.421
38700W        W98236  33.552  35.041   3.806
38701W        W98237   3.226   4.438   1.359
38702W        W98238  28.609   6.196   4.136
38703W        W98239  37.047   1.954   1.861
38704W        W98240   7.900  37.361  12.427
38705W        W98241   2.949   1.749   0.790
38706W        W98242  17.303  10.280   5.231
38707W        W98243  31.133   2.900   3.648
38708W        W98244   2.724   5.359  14.340
38709W        W98245  40.348  41.930   4.679
38710W        W98246  31.904  22.249  10.905
38711W        W98247  32.465   3.287   2.753
38712W        W98248  22.207  21.079   4.122
38713W        W98249  26.195   7.391  11.086
38714W        W98250  20.142  34.927   1.256
38715W        W98251  30.582  23.131  12.901
38716W        W98252  41.536  21.630   3.315
38717W        W98253  37.995  26.489   2.356
38718W        W98254   1.941  20.216  11.986
38719W        W98255  13.606  34.997  13.479
38720W        W98256   7.235  29.608  14.449
38721W        W98257   0.376  38.982  10.465
38722W        W98258   5.266   3.864   1.318
38723W        W98259   1.327   9.270   4.149
38724W        W98260  44.848  28.457   3.660
38725W        W98261   7.232  21.531   0.766
38726W        W98262  32.542  17.306   3.736
38727W        W98263  33.029  13.722  12.541
38728W        W98264   9.811  43.479  14.846
38729W        W98265  29.626  32.109  12.557
38730W        W98266  38.570  25.677   2.381
38731W        W98267  19.241  23.008  14.012
38732W        W98268   0.389  21.074   4.171
38733W        W98269  19.598  20.064   0.282
38734W        W98270   6.710  34.883  12.528
38735W        W98271  26.203  23.149   2.816
38736W        W98272  29.148  40.850  13.838
38737W        W98273  12.119   9.217   0.261
38738W        W98274   9.275  32.022  11.473
38739W        W98275   3.327   4.447  10.924
38740W        W98276  41.874  31.034  10.453
38741W        W98277  42.344   1.940   0.889
38742W        W98278  26.464  35.485   0.382
38743W        W98279  42.518  42.323  14.013
38744W        W98280  11.250   7.785  13.349
38745W        W98281  26.177  17.718  14.286
38746W        W98282  22.568   4.874  13.475
38747W        W98283  43.813   7.793  14.915
38748W        W98284  42.402  25.180   1.450
38749W        W98285  26.525  44.906   1.870
38750W        W98286   2.796  34.396  11.982
38751W        W98287  16.575  27.593   3.150
38752W        W98288  20.532  14.290   0.904
38753W        W98289  10.797  10.791   3.178
38754W        W98290  22.053  23.725   4.262
38755W        W98291  17.152  12.680   3.176
38756W        W98292  25.491  40.033   3.195
38757W        W98293  36.984  32.606   2.311
38758W        W98294  27.974  42.491  11.449
38759W        W98295  31.008  21.697   3.837
38760W        W98296  26.549  32.099  10.992
38761W        W98297  19.580  44.831  14.822
38762W        W98298   9.845   5.435   1.755
38763W        W98299  11.769   5.237  11.089
38764W        W98300   6.324  21.587  13.318
38765W        W98301  23.508  12.813  14.379
38766W        W98302  32.577  20.105   3.644
38767W        W98303   1.483  33.396  12.937
38768W        W98304   5.395  22.203  10.450
38769W        W98305  18.220  27.657   0.752
38770W        W98306  31.964  14.817  13.481
38771W        W98307   0.393   3.362   3.680
38772W        W98308  18.163  21.046  12.094
38773W        W98309  35.393  34.525  14.443
38774W        W98310   7.398  17.560  13.946
38775W        W98311  31.004  44.293   3.282
38776W        W98312  31.450  26.974   2.846
38777W        W98313  32.929  16.110  10.445
38778W        W98314   5.773  26.960   1.896
38779W        W98315  23.004  36.995   5.638
38780W        W98316  34.463  19.081   2.299
38781W        W98317  11.159  20.122   2.259
38782W        W98318  12.340  14.621   2.366
38783W        W98319  41.815  15.660  13.844
38784W        W98320   2.420   2.377  11.521
38785W        W98321  11.643  36.055  13.911
38786W        W98322  27.140  41.425   3.185
38787W        W98323  24.535  29.548  13.328
38788W        W98324  17.219  10.786   0.438
38789W        W98325   3.722  42.841  10.094
38790W        W98326  30.083   9.765   1.446
38791W        W98327  23.237  36.889   2.878
38792W        W98328  33.497  44.339  13.882
38793W        W98329  29.520  14.810  14.411
38794W        W98330  15.682   4.277   4.629
38795W        W98331  34.957  25.696   1.790
38796W        W98332  38.893   6.749  14.792
38797W        W98333   4.253  24.055  12.466
38798W        W98334  44.955   6.805  13.992
38799W        W98335  24.698  24.636   3.682
38800W        W98336  13.685  40.313   4.776
38801W        W98337  18.266  25.568  11.024
38802W        W98338  29.463   7.895  13.931
38803W        W98339  32.134   6.678  10.437
38804W        W98340  44.831  25.115   3.215
38805W        W98341  11.639  10.185   0.916
38806W        W98342  41.978  40.522  14.310
38807W        W98343  14.814   9.722   2.377
38808W        W98344  32.969   0.417  12.092
38809W        W98345  25.508  15.111   2.336
38810W        W98346  18.651  44.310   4.772
38811W        W98347   0.466   4.714   3.630
38812W        W98348  32.080  23.550  10.447
38813W        W98349  42.376  17.615   2.369
38814W        W98350  23.644  42.409   0.887
38815W        W98351  23.212  33.557   3.257
38816W        W98352  19.537  38.914  12.341
38817W        W98353  35.943   2.448   5.156
38818W        W98354  19.669  40.857   4.734
38819W        W98355  34.913   0.304   0.349
38820W        W98356  27.121  34.562   1.264
38821W        W98357  27.162  15.578   4.280
38822W        W98358  40.538  10.879  13.023
38823W        W98359  23.635   3.724   0.771
38824W        W98360  38.499  36.090  12.871
38825W        W98361  35.437   7.901  12.005
38826W        W98362   3.717  44.279  14.313
38827W        W98363  42.959  16.617   0.945
38828W        W98364  28.606  20.701   9.945
38829W        W98365  42.919  17.732  11.554
38830W        W98366   9.281  43.842  14.978
38831W        W98367   2.735  10.734  13.373
38832W        W98368  35.427  25.659  11.595
38833W        W98369  33.525  21.668  14.915
38834W        W98370  29.432  36.920  14.794
38835W        W98371  14.195  38.911  13.455
38836W        W98372   7.184  15.744  11.383
38837W        W98373  15.757   3.304  11.926
38838W        W98374  11.188  23.702   3.323
38839W        W98375  10.679   9.697  11.129
38840W        W98376  20.744  20.240  10.610
38841W        W98377  36.036  15.621  10.481
38842W        W98378  36.061  32.437   4.205
38843W        W98379  29.622  37.945  12.459
38844W        W98380  21.729  33.517  13.494
38845W        W98381  17.643  32.454  14.872
38846W        W98382  41.873  21.221   1.926
38847W        W98383  19.072  44.387   2.747
38848W        W98384  31.035  20.751  12.848
38849W        W98385   2.924  22.080  10.592
38850W        W98386   0.924   6.266   0.279
38851W        W98387  22.537  20.667  12.447
38852W        W98388  13.835  40.996   4.785
38853W        W98389  22.144  31.425  12.437
38854W        W98390  38.877  40.901  13.463
38855W        W98391  29.173  10.372   2.371
38856W        W98392   6.221  24.675  13.541
38857W        W98393  39.994  25.647  14.015
38858W        W98394  30.003  42.297  12.410
38859W        W98395  13.718  14.110  11.865
38860W        W98396  44.264  15.300  11.096
38861W        W98397  10.295  20.577  12.554
38862W        W98398  29.546  29.542   5.157
38863W        W98399   5.435   5.265  12.911
38864W        W98400  38.477  38.964  14.406
38865W        W98401  39.521  34.545   2.358
38866W        W98402  43.934  13.302   4.277
38867W        W98403  28.092   9.291  12.829
38868W        W98404   8.173  12.762   3.723
38869W        W98405   3.754  19.052   1.789
38870W        W98406   8.272  39.992   3.802
38871W        W98407  35.105  34.908   3.844
38872W        W98408   7.396  34.607   2.222
38873W        W98409  38.527  17.783  12.439
38874W        W98410  31.050  19.663  10.434
38875W        W98411  33.929  20.720  11.950
38876W        W98412  20.255  42.432   4.643
38877W        W98413  16.761  16.657  11.486
38878W        W98414  27.977  29.618   1.777
38879W        W98415  30.067  27.135   1.852
38880W        W98416  38.479  31.964   1.222
38881W        W98417  35.452  30.526   1.874
38882W        W98418  21.250  43.469   4.789
38883W        W98419  32.000  38.837  13.489
38884W        W98420  32.005  30.039   3.322
38885W        W98421  37.023  29.555  13.927
38886W        W98422  16.789  31.499  11.979
38887W        W98423   4.383   3.322  14.997
38888W        W98424  18.183  35.442   4.281
38889W        W98425  27.134  34.564   3.796
38890W        W98426   6.911   5.753  12.072
38891W        W98427  18.092  14.660  14.818
38892W        W98428  29.170  16.104  12.540
38893W        W98429  21.123  34.596   1.788
38894W        W98430  10.726  36.560  12.853
38895W        W98431  41.834  40.548  13.351
38896W        W98432  21.714   8.285  13.327
38897W        W98433   5.384  27.523  11.002
38898W        W98434  32.488  30.121   1.746
38899W        W98435   6.904  21.232   0.940
38900W        W98436   3.757  32.915   4.186
38901W        W98437  16.782   3.956   3.865
38902W        W98438  27.961  39.536  14.972
38903W        W98439   4.267  34.987  13.918
38904W        W98440  41.393   1.261   0.316
38905W        W98441  17.747   1.358   4.355
38906W        W98442  39.403  23.063   3.192
38907W        W98443  44.006   8.374  10.408
38908W        W98444  37.446   8.836   0.753
38909W        W98445   3.281  30.920   4.304
38910W        W98446  35.578  29.093   1.304
38911W        W98447  37.353  35.602  11.002
38912W        W98448  32.405  12.622  12.516
38913W        W98449  35.971  25.043   4.306
38914W        W98450   8.785   4.776   4.785
38915W        W98451  23.228  24.689   1.247
38916W        W98452  29.923  19.661   3.371
38917W        W98453   8.198  38.835   1.284
38918W        W98454   1.271   7.219   3.858
38919W        W98455  38.493  12.361  12.991
38920W        W98456  40.500  31.587   1.854
38921W        W98457  17.229  27.631  14.848
38922W        W98458  41.507   6.907   3.865
38923W        W98459   6.859  31.450  13.510
38924W        W98460   6.700  12.163  13.045
38925W        W98461  27.953  10.363  13.384
38926W        W98462  41.297  36.016  12.501
38927W        W98463  27.034  17.664  13.025
38928W        W98464  39.382  44.781  11.450
38929W        W98465  44.357  30.951  13.028
38930W        W98466   4.215  10.156   1.708
38931W        W98467  29.947  20.643  14.430
38932W        W98468  39.517  25.093  13.392
38933W        W98469  22.042  20.256   2.277
38934W        W98470  10.349   8.229  13.964
38935W        W98471  19.205  38.501  11.957
38936W        W98472   7.341  35.493   0.310
38937W        W98473   8.292  38.048   2.226
38938W        W98474  30.501  36.452   2.844
38939W        W98475  39.992  24.165  11.469
38940W        W98476  34.090  18.568   2.694
38941W        W98477  21.692  29.056  14.928
38942W        W98478  28.166  43.967  12.380
38943W        W98479   1.456  33.497   1.255
38944W        W98480  14.115   6.744   0.328
38945W        W98481  35.996  36.936  12.075
38946W        W98482  36.431  31.905  12.344
38947W        W98483  12.811  15.124   4.606
38948W        W98484  36.049  29.456  14.450
38949W        W98485  44.836  12.615  11.993
38950W        W98486  33.384  10.208  14.373
38951W        W98487  16.220  38.067   3.301
38952W        W98488  25.561  26.030  14.500
38953W        W98489   8.394  27.541   0.343
38954W        W98490   2.472  28.536  10.434
38955W        W98491  43.485  41.945   1.370
38956W        W98492  25.022  38.873   1.450
38957W        W98493   5.931  27.493  11.387
38958W        W98494  14.198  11.703  11.106
38959W        W98495  16.687   4.387  11.085
38960W        W98496   1.311   1.333   3.665
38961W        W98497   8.208  30.138   2.301
38962W        W98498  25.989  34.584   2.314
38963W        W98499  21.198  27.613   1.899
38964W        W98500  23.039  44.288   0.354
38965W        W98501  24.011  11.776  10.917
38966W        W98502   7.831   1.958  13.036
38967W        W98503   1.733   5.858   2.701
38968W        W98504  20.745  22.180  10.541
38969W        W98505  35.039   8.374   3.858
38970W        W98506   6.809  17.672   4.757
38971W        W98507  24.724  20.261   2.750
38972W        W98508   2.464   1.757   1.889
38973W        W98509  19.230   9.807   2.712
38974W        W98510  41.439   4.746   4.710
38975W        W98511  27.124  36.349  14.471
38976W        W98512   1.365  34.087   2.230
38977W        W98513  40.337   1.813   2.228
38978W        W98514   5.723  23.025  12.955
38979W        W98515  34.511   8.388   0.802
38980W        W98516  40.029  15.672  11.928
38981W        W98517   7.765  39.062  14.015
38982W        W98518   3.741  14.206  12.010
38983W        W98519   6.810   3.713  12.455
38984W        W98520  27.646   1.289   0.795
38985W        W98521  28.572  35.431  12.910
38986W        W98522  10.248  40.002  10.105
38987W        W98523  13.796  14.260  10.600
38988W        W98524  12.205  27.164   3.199
38989W        W98525  14.331  38.328   3.859
38990W        W98526  11.746  23.170   4.796
38991W        W98527  10.633  36.411  13.504
38992W        W98528   0.388  34.871  13.792
38993W        W98529  39.057  19.644   1.935
38994W        W98530  15.308  28.551   4.353
38995W        W98531   7.849   1.341  11.871
38996W        W98532  44.372   6.814   3.348
38997W        W98533  43.337  42.327   1.803
38998W        W98534  18.575  10.878   2.379
38999W        W98535  22.614  30.489  10.605
39000W        W98536   7.793  43.903   0.911
39001W        W98537  11.679   2.337   3.178
39002W        W98538   3.371   4.711   0.838
39003W        W98539  29.488  17.093   2.782
39004W        W98540   4.826   7.757   3.720
39005W        W98541  11.324  22.069   4.335
39006W        W98542  14.778  29.038  12.853
39007W        W98543  27.197  29.666   1.804
39008W        W98544  44.447  20.205   4.321
39009W        W98545  10.207  38.474   1.377
39010W        W98546  20.040  14.729   4.327
39011W        W98547  20.143   0.886   9.921
39012W        W98548  17.223  18.683  11.103
39013W        W98549  10.740   5.748  10.007
39014W        W98550  30.572   4.365   0.386
39015W        W98551  31.962  42.800   3.690
39016W        W98552  25.085  19.229  11.405
39017W        W98553  13.126   0.747  13.434
39018W        W98554  37.996  19.706   3.825
39019W        W98555  35.432  15.758  11.000
39020W        W98556  33.093  25.556   1.257
39021W        W98557   0.879  41.398   3.728
39022W        W98558  43.844  10.740   3.283
39023W        W98559   4.360  40.976   1.894
39024W        W98560  44.765  17.629   1.894
39025W        W98561  42.898  22.177   0.856
39026W        W98562   8.832   1.865   3.843
39027W        W98563  38.954  17.095  14.882
39028W        W98564  30.962  11.137   1.721
39029W        W98565  43.792  22.998   1.791
39030W        W98566  36.377  26.130  14.437
39031W        W98567  28.436  11.792   1.845
39032W        W98568   6.323  32.059  11.464
39033W        W98569  36.027  24.047  10.614
39034W        W98570  42.353  22.169   1.700
39035W        W98571  25.681  30.945   3.315
39036W        W98572  30.510  35.986  12.066
39037W        W98573  26.124  41.451   3.276
39038W        W98574   2.801  39.009  10.405
39039W        W98575  28.462  42.957   0.307
39040W        W98576  43.331   8.811   2.181
39041W        W98577  21.565  32.895   3.683
39042W        W98578   2.261  42.020  10.538
39043W        W98579   2.470  37.945  11.024
39044W        W98580  42.527  20.135  14.470
39045W        W98581   2.918  27.147   2.716
39046W        W98582  23.688   2.464   9.980
39047W        W98583  17.232  15.153  13.365
39048W        W98584  34.014  15.753  14.463
39049W        W98585  22.701  42.284   1.797
39050W        W98586  13.328   2.899   3.814
39051W        W98587  13.132  23.695  13.453
39052W        W98588  44.290  20.567   4.665
39053W        W98589  24.676  22.092   4.785
39054W        W98590  19.690  25.046  12.997
39055W        W98591  26.467  11.284  14.382
39056W        W98592  11.293   6.215  10.103
39057W        W98593  12.317  39.930  12.921
39058W        W98594  17.172   4.913  11.609
39059W        W98595  20.537  30.068   0.357
39060W        W98596  35.441  33.551  11.422
39061W        W98597  32.530  25.981  12.034
39062W        W98598  11.176  15.696   2.263
39063W        W98599  16.116  31.466  13.329
39064W        W98600  13.165  26.578   0.957
39065W        W98601  15.236  18.572  13.943
39066W        W98602  33.604  29.456  11.006
39067W        W98603  11.679   0.868  12.888
39068W        W98604  14.290  23.684  11.606
39069W        W98605  37.952  12.733  14.361
39070W        W98606  44.378  27.953   1.867
39071W        W98607  12.319  40.869   2.267
39072W        W98608  30.001  44.264   4.712
39073W        W98609  24.538  43.473   1.424
39074W        W98610  15.146   6.876  12.846
39075W        W98611  13.224  14.316  10.423
39076W        W98612  28.003  22.156  14.020
39077W        W98613  23.628  28.179   3.345
39078W        W98614   1.432   9.845   0.315
39079W        W98615  23.636  17.735   0.865
39080W        W98616  41.829   7.874   2.842
39081W        W98617  43.821  38.934  13.411
39082W        W98618  26.956  38.070  12.440
39083W        W98619   7.211  39.003   4.764
39084W        W98620  13.253   0.927  12.037
39085W        W98621  21.078  19.594  12.500
39086W        W98622  24.031  30.458  10.950
39087W        W98623  26.597  41.358  14.300
39088W        W98624  30.086  18.577  14.330
39089W        W98625  18.235  40.008   1.713
39090W        W98626  26.691  22.644   3.155
39091W        W98627  20.577   3.379  11.478
39092W        W98628   5.895  28.002   0.920
39093W        W98629  37.990   3.782   5.291
39094W        W98630  13.232   1.787  14.981
39095W        W98631  15.612   1.356   0.380
39096W        W98632   7.718  32.937   1.704
39097W        W98633  18.275  20.211  12.921
39098W        W98634  19.544  44.910  13.527
39099W        W98635   8.376  34.487  12.935
39100W        W98636  36.951  13.197   0.270
39101W        W98637  27.624  23.734   4.324
39102W        W98638  19.551  23.242   0.824
39103W        W98639  20.586  30.506   1.753
39104W        W98640  12.320  23.699  10.926
39105W        W98641  24.064  16.810   2.790
39106W        W98642  14.205   9.644  12.941
39107W        W98643  32.425  30.959  10.582
39108W        W98644  12.343  40.866  11.967
39109W        W98645   7.767  41.810   1.818
39110W        W98646   3.852  23.222  12.532
39111W        W98647  37.451  34.373   2.888
39112W        W98648  42.338  16.717   4.690
39113W        W98649  18.210   6.793   0.303
39114W        W98650  34.386  20.161   2.767
39115W        W98651  31.097  26.550  10.090
39116W        W98652  35.496  10.859   3.250
39117W        W98653  20.598  37.930   1.379
39118W        W98654   0.814   4.884  11.929
39119W        W98655  30.026  23.667   0.838
39120W        W98656  17.602  39.381  10.625
39121W        W98657  36.396  41.390   9.928
39122W        W98658   8.314  34.897  13.052
39123W        W98659  31.456  42.910   3.841
39124W        W98660  22.555  29.579  10.546
39125W        W98661   0.398  33.624  10.620
39126W        W98662   6.222   4.879   1.224
39127W        W98663  38.021  41.949  13.800
39128W        W98664   3.900  29.063  11.413
39129W        W98665  11.274  40.405   1.411
39130W        W98666  38.834   3.798  12.389
39131W        W98667   7.380  39.365  11.868
39132W        W98668  34.960  37.550   2.721
39133W        W98669   3.354   0.324   2.887
39134W        W98670   2.278  31.524  13.056
39135W        W98671  32.632  28.947   3.789
39136W        W98672  12.219  32.067  12.403
39137W        W98673  26.956  16.135  13.964
39138W        W98674  19.536   9.255   4.764
39139W        W98675   2.332  36.975   3.822
39140W        W98676  28.579   5.432   2.196
39141W        W98677  26.985   7.277   0.414
39142W        W98678   8.867  11.849   2.869
39143W        W98679   1.327  21.585  13.461
39144W        W98680  32.464  39.322   4.250
39145W        W98681   6.285  16.639   2.696
39146W        W98682  15.641  21.086  11.857
39147W        W98683  22.084  23.040  11.388
39148W        W98684  12.353  12.136  13.412
39149W        W98685  19.060   9.775   0.942
39150W        W98686   3.734  42.363  12.955
39151W        W98687  34.865  16.569  10.957
39152W        W98688  40.448   5.926   2.672
39153W        W98689  38.826  30.933  12.550
39154W        W98690  23.218  28.009   2.221
39155W        W98691   0.250   7.202  13.354
39156W        W98692   4.885  30.518  11.895
39157W        W98693   4.867  20.666  14.919
39158W        W98694  27.122  20.110  14.928
39159W        W98695  34.988  32.615  13.368
39160W        W98696  20.128  41.515   2.293
39161W        W98697  23.062  16.135  11.124
39162W        W98698  10.150  13.237   4.713
39163W        W98699  36.408  19.140   4.126
39164W        W98700  32.100   5.302  11.029
39165W        W98701  27.141  25.583   0.256
39166W        W98702   7.760  43.872   0.337
39167W        W98703  38.852  40.050   2.823
39168W        W98704  26.956  32.494   0.777
39169W        W98705   6.875  44.385  14.924
39170W        W98706  11.207  31.640  10.598
39171W        W98707   5.235   5.395  12.522
39172W        W98708  26.078  27.042  13.046
39173W        W98709  39.385   5.786   0.891
39174W        W98710  12.318   2.377   2.695
39175W        W98711  36.992  35.042  11.931
39176W        W98712  18.717  33.080   1.212
39177W        W98713  34.488  21.703  13.521
39178W        W98714  40.919   4.809   1.397
39179W        W98715  37.976  39.832  14.973
39180W        W98716  36.080  38.905  11.029
39181W        W98717  38.006  28.180  14.321
39182W        W98718   1.482  21.720   0.318
39183W        W98719  19.041   4.265  11.999
39184W        W98720  26.986  13.265  11.016
39185W        W98721  16.615   3.840  11.428
39186W        W98722  26.122  34.539  14.326
39187W        W98723  36.841   3.919   3.750
39188W        W98724   1.372  35.489  14.419
39189W        W98725  28.639   3.940  13.435
39190W        W98726  32.991   7.730   2.314
39191W        W98727  20.166  34.952   4.611
39192W        W98728  21.536   7.743  13.457
39193W        W98729  35.430  14.135  11.108
39194W        W98730  28.590  32.542   2.811
39195W        W98731  35.517  39.931   4.213
39196W        W98732  33.407  17.750   2.870
39197W        W98733   8.854  29.471   3.807
39198W        W98734   5.789   5.718  10.516
39199W        W98735  21.626  11.243  13.496
39200W        W98736   1.321  44.309   4.317
39201W        W98737   2.238  43.373   4.134
39202W        W98738  27.514  43.875   1.893
39203W        W98739   3.339  13.165   4.341
39204W        W98740  36.869  28.066  14.451
39205W        W98741  32.957  22.645   2.900
39206W        W98742  38.887  13.109   3.169
39207W        W98743  10.309   9.794   3.218
39208W        W98744  38.350  18.767   0.310
39209W        W98745   4.442   4.207   4.115
39210W        W98746   3.791  14.621  13.005
39211W        W98747  18.118   7.275  12.369
39212W        W98748  35.080   4.229   0.904
39213W        W98749  38.852  33.082   0.375
39214W        W98750  39.524  18.256   1.857
39215W        W98751  40.445  22.694  11.603
39216W        W98752  29.974   4.390  10.556
39217W        W98753  11.206  32.032  14.353
39218W        W98754  26.134  21.114   1.790
39219W        W98755  39.358   2.337   4.794
39220W        W98756   7.364  13.180   0.837
39221W        W98757  23.637  32.079  14.919
39222W        W98758  25.550  42.930  10.103
39223W        W98759  39.327  32.583  10.509
39224W        W98760  17.111  40.325  12.092
39225W        W98761   5.289  24.080   3.676
39226W        W98762  25.705  26.684   2.680
39227W        W98763  43.953  12.316   2.230
39228W        W98764  11.337  25.207   0.453
39229W        W98765   1.938  11.774   3.353
39230W        W98766  44.307   4.714  14.988
39231W        W98767  12.849  25.987  14.006
39232W        W98768  12.117  27.543   3.288
39233W        W98769   5.875  43.291  13.409
39234W        W98770  27.605  13.175  10.968
39235W        W98771  16.752  12.140  11.112
39236W        W98772  29.126  23.164   1.730
39237W        W98773   5.691  21.069  14.818
39238W        W98774   8.202  39.976   4.144
39239W        W98775  36.442  41.972  11.029
39240W        W98776  10.661  26.556  13.516
39241W        W98777  20.718  29.033  13.540
39242W        W98778  35.900  13.241  11.537
39243W        W98779  41.970  31.473   4.663
39244W        W98780  30.457  40.932   0.733
39245W        W98781  21.672  21.593   5.706
39246W        W98782   0.802  33.565  10.508
39247W        W98783  13.269  15.128  11.587
39248W        W98784  10.879  17.686  11.924
39249W        W98785  39.406  31.645  11.598
39250W        W98786  38.895   8.219   1.839
39251W        W98787  15.298   8.815   0.384
39252W        W98788  26.646  15.736  11.518
39253W        W98789  35.398  39.463  10.629
39254W        W98790  13.243   9.195   1.395
39255W        W98791  17.788  13.750  12.054
39256W        W98792  40.340  22.222   2.246
39257W        W98793  33.459  33.480   1.411
39258W        W98794  18.787  28.930  11.089
39259W        W98795   9.274  15.231   2.346
39260W        W98796   8.367   6.378   2.268
39261W        W98797   0.365  22.049   3.819
39262W        W98798   9.654  38.984  11.420
39263W        W98799  38.001  40.930   1.229
39264W        W98800  26.570  13.218   4.324
39265W        W98801  21.151  40.485  13.325
39266W        W98802  37.960  32.553  13.036
39267W        W98803   9.861  44.959  11.414
39268W        W98804  10.190  42.778  13.051
39269W        W98805  20.217  34.407  11.497
39270W        W98806  18.233  11.140  13.899
39271W        W98807   2.906   5.346  13.475
39272W        W98808   0.836  32.941   3.637
39273W        W98809  20.124  22.623   1.343
39274W        W98810  11.653  32.000  12.341
39275W        W98811   3.267   7.686   2.250
39276W        W98812  13.117  42.935  11.069
39277W        W98813  35.104  13.240   2.332
39278W        W98814  26.488  10.379   1.381
39279W        W98815  13.139  11.780   1.844
39280W        W98816  15.306   8.164  14.332
39281W        W98817  16.165  43.973   3.823
39282W        W98818  18.228  37.429   2.249
39283W        W98819  17.232  22.177   0.369
39284W        W98820  25.491   1.364  10.484
39285W        W98821  12.208  26.631   3.735
39286W        W98822  25.077  38.503  13.030
39287W        W98823  24.085  14.250   0.808
39288W        W98824  25.036   6.407   3.319
39289W        W98825  35.542  31.497  11.116
39290W        W98826  14.336   1.921  11.964
39291W        W98827   8.900  20.126   2.375
39292W        W98828  23.600  14.781   3.828
39293W        W98829  35.906   9.227  12.060
39294W        W98830  12.226  19.154   0.849
39295W        W98831  42.002   7.798  14.488
39296W        W98832  17.607  36.404  11.079
39297W        W98833  39.343   2.402  13.868
39298W        W98834  18.554  18.774   1.825
39299W        W98835   2.813  27.582   0.807
39300W        W98836  33.550  33.436   5.246
39301W        W98837   2.907  32.975  11.094
39302W        W98838  38.901  10.660  14.862
39303W        W98839  38.390  34.955   0.442
39304W        W98840  42.458  23.189   3.360
39305W        W98841  17.297  38.930  11.438
39306W        W98842  14.590   1.249   1.214
39307W        W98843  40.524  38.988  11.049
39308W        W98844   2.252  11.269   9.672
39309W        W98845  25.125   0.764   4.606
39310W        W98846  10.647  13.719  12.495
39311W        W98847  21.095  28.142  11.491
39312W        W98848   2.262  37.056  12.401
39313W        W98849  22.589  19.777   1.248
39314W        W98850  38.406  33.946  13.897
39315W        W98851  35.922  21.540   2.360
39316W        W98852  36.057   4.357  13.380
39317W        W98853  41.032   0.273  10.639
39318W        W98854  19.710  11.858   3.292
39319W        W98855  14.773  10.712   2.670
39320W        W98856  32.479  11.786  11.379
39321W        W98857   3.882  20.532  13.365
39322W        W98858  17.298   7.279   2.210
39323W        W98859  42.509   2.233  10.631
39324W        W98860  40.958  20.132   4.733
39325W        W98861   1.835  18.279  14.453
39326W        W98862   6.861  30.024  14.789
39327W        W98863   3.846  25.689  11.872
39328W        W98864  15.120  16.158  12.535
39329W        W98865  31.477  14.640   1.904
39330W        W98866  17.606  10.291   0.925
39331W        W98867   7.807   0.344   1.759
39332W        W98868   3.216  32.519  14.836
39333W        W98869  37.085   0.766   1.246
39334W        W98870  42.502  37.038  11.070
39335W        W98871  32.560  20.034   2.229
39336W        W98872  23.185  35.002   0.843
39337W        W98873  19.140  44.317   1.744
39338W        W98874  27.496  41.831   3.640
39339W        W98875   1.795  36.403   5.183
39340W        W98876  38.885  34.482  11.453
39341W        W98877  14.239  11.182   0.476
39342W        W98878  29.550  15.283  13.401
39343W        W98879  24.031  28.641  10.947
39344W        W98880   4.891  31.919  10.920
39345W        W98881  35.871   4.224   4.174
39346W        W98882  15.716  30.068   2.781
39347W        W98883  33.101   6.853   2.380
39348W        W98884   6.822  34.970  13.916
39349W        W98885  11.361  18.650   1.801
39350W        W98886  16.576  31.488   3.250
39351W        W98887  14.811  40.360  14.984
39352W        W98888  28.031   9.310   1.904
39353W        W98889  13.286   0.782   1.374
39354W        W98890  21.625  21.036   1.302
39355W        W98891  15.749   4.805  11.129
39356W        W98892  38.439  19.039   2.183
39357W        W98893   1.285  38.942  10.491
39358W        W98894  43.815   2.912   1.768
39359W        W98895  27.685  44.782  14.481
39360W        W98896  15.774  39.560  12.394
39361W        W98897   3.850  24.167   4.606
39362W        W98898   1.768  36.494  11.581
39363W        W98899  10.748  34.421   3.358
39364W        W98900  25.996  22.164  12.351
39365W        W98901  14.267  34.028  14.855
39366W        W98902   5.822  36.396  11.065
39367W        W98903  22.150  44.756  10.506
39368W        W98904   7.353  23.118   0.840
39369W        W98905  39.929  16.659   4.122
39370W        W98906  20.556  21.669  14.876
39371W        W98907  12.152  23.594   2.242
39372W        W98908  43.425   8.863  10.543
39373W        W98909   8.340  14.673  10.458
39374W        W98910  14.201  42.907  11.581
39375W        W98911  35.376  24.643   2.731
39376W        W98912   7.381  39.386   2.663
39377W        W98913  15.123   7.371  13.937
39378W        W98914   2.279   7.312   3.665
39379W        W98915  34.089  17.119  13.943
39380W        W98916  23.682  16.096   4.180
39381W        W98917  27.034  37.072  13.321
39382W        W98918   3.449  33.454   1.894
39383W        W98919  43.852  12.167  10.902
39384W        W98920  28.052  41.500  11.009
39385W        W98921   4.893  12.232   3.698
39386W        W98922  15.766  16.774   4.673
39387W        W98923  30.940  16.592  14.384
39388W        W98924  27.521  14.592  13.473
39389W        W98925  39.940   8.885   4.807
39390W        W98926   3.773  13.814  12.950
39391W        W98927  43.957   0.427   0.258
39392W        W98928   0.336  30.039  10.956
39393W        W98929  12.332  37.085  14.347
39394W        W98930  27.978  11.742  14.428
39395W        W98931  10.754  32.532   3.312
39396W        W98932  15.299  24.507   3.159
39397W        W98933   9.841  26.121   0.413
39398W        W98934  40.943  13.700   4.803
39399W        W98935   0.948  31.019   3.726
39400W        W98936  23.087  37.408   3.323
39401W        W98937  20.093  33.967   2.889
39402W        W98938  24.127  29.517  14.936
39403W        W98939  18.703  30.527   5.153
39404W        W98940  14.736  42.465   4.769
39405W        W98941  25.476  44.767   2.689
39406W        W98942   5.781   9.263  14.980
39407W        W98943  15.126   8.270  10.609
39408W        W98944   4.248  28.517   9.949
39409W        W98945  39.858  31.016  14.932
39410W        W98946  15.099   5.313  12.515
39411W        W98947  34.445  35.890  11.608
39412W        W98948  39.316  42.420   4.156
39413W        W98949  42.889  12.734  10.003
39414W        W98950  15.659  41.344  12.874
39415W        W98951  32.063  16.236  14.876
39416W        W98952  11.214  26.580   3.838
39417W        W98953   1.821  43.947  14.031
39418W        W98954  28.657  12.640   0.366
39419W        W98955  22.528   0.305  13.375
39420W        W98956  26.030  44.768  13.829
39421W        W98957  28.061  37.933  13.806
39422W        W98958  28.505  44.918  14.464
39423W        W98959  35.009  18.737   4.221
39424W        W98960  11.639  25.141  12.824
39425W        W98961  25.084  30.448   0.322
39426W        W98962  15.762  40.007  10.055
39427W        W98963  35.524   2.467   0.428
39428W        W98964  41.367  15.323  12.554
39429W        W98965  43.905  17.173   3.323
39430W        W98966  43.869  16.072   3.720
39431W        W98967  40.474  12.199   1.901
39432W        W98968   6.263   7.341  14.827
39433W        W98969  32.117  20.230  12.402
39434W        W98970  28.634  17.756   4.346
39435W        W98971  32.571  15.795  10.478
39436W        W98972  24.608   3.895  10.510
39437W        W98973   8.787  22.067  12.902
39438W        W98974  32.982  35.573   3.666
39439W        W98975  25.492  13.304   4.712
39440W        W98976  26.504  25.184  11.395
39441W        W98977   4.338  14.288  10.445
39442W        W98978  33.016  35.868   2.319
39443W        W98979   9.161  24.084  14.373
39444W        W98980  23.622  41.951  11.058
39445W        W98981  22.693   2.338   2.684
39446W        W98982  16.634  34.988   0.473
39447W        W98983  31.513  23.159  10.947
39448W        W98984  29.502   8.231   1.276
39449W        W98985  24.540   8.656  13.893
39450W        W98986  40.980  34.402  14.367
39451W        W98987  35.439  44.468  13.941
39452W        W98988  37.429  32.518  12.962
39453W        W98989   5.874  25.490   4.635
39454W        W98990  13.648  31.552   3.206
39455W        W98991  33.396  35.107  11.090
39456W        W98992  43.771  35.875  13.848
39457W        W98993  34.921  21.198  12.004
39458W        W98994   3.784  27.973   0.912
39459W        W98995  21.237  38.513  12.479
39460W        W98996  40.925  11.134   1.308
39461W        W98997  25.164  20.624  13.894
39462W        W98998  27.647  37.875   2.719
39463W        W98999  36.370   8.223   3.816
39464W        W99000   5.306  22.659  11.464
39465W        W99001  18.576   5.266   1.212
39466W        W99002  24.054  16.249   2.311
39467W        W99003   7.893  36.399   4.813
39468W        W99004  33.556  40.548   2.866
39469W        W99005  44.832  43.433   3.329
39470W        W99006  21.224  35.856   1.817
39471W        W99007  16.715  17.177   2.290
39472W        W99008   2.928  39.498  14.448
39473W        W99009  44.446  29.588   5.112
39474W        W99010  15.166  39.322  11.928
39475W        W99011  31.431   4.931   0.320
39476W        W99012  15.809  44.939   4.780
39477W        W99013  21.658  25.594   0.960
39478W        W99014  38.448  38.935  11.597
39479W        W99015  19.698  41.411   1.350
39480W        W99016  22.650   7.813  14.313
39481W        W99017  33.022  34.093  12.928
39482W        W99018   2.954  14.655  13.403
39483W        W99019  31.079   3.740  11.400
39484W        W99020  21.024  35.938  13.049
39485W        W99021  44.322  38.391   2.260
39486W        W99022  33.885   6.801  13.414
39487W        W99023  33.545   9.731   1.885
39488W        W99024  43.983  30.028  14.958
39489W        W99025  19.742  31.458   1.715
39490W        W99026  25.219   3.348   3.743
39491W        W99027  28.036  14.161   5.262
39492W        W99028  10.253  15.664   1.842
39493W        W99029   1.813  26.984   2.182
39494W        W99030  23.985  23.118   1.398
39495W        W99031   3.742  21.716  10.529
39496W        W99032  36.913  28.960  12.015
39497W        W99033  18.054  32.035  13.447
39498W        W99034  19.711  29.642  12.078
39499W        W99035   3.860  23.230  13.895
39500W        W99036  22.655  17.279   0.301
39501W        W99037   1.820   7.347   0.360
39502W        W99038  42.441  34.869  14.001
39503W        W99039  42.955  36.041  12.455
39504W        W99040  17.085  32.110   3.368
39505W        W99041  20.107  12.758  12.393
39506W        W99042   9.389  30.032  13.914
39507W        W99043  18.126  37.525  12.850
39508W        W99044  22.091  21.068  14.786
39509W        W99045   6.758  20.178  12.426
39510W        W99046   6.918  30.110  13.056
39511W        W99047  37.484  14.677  11.920
39512W        W99048  31.576  44.929  12.411
39513W        W99049  19.608  35.399  11.096
39514W        W99050  34.001  10.647  12.455
39515W        W99051  19.156  32.977  12.477
39516W        W99052  25.509  44.438  12.516
39517W        W99053  44.861   0.276  11.605
39518W        W99054  23.490  15.100   1.447
39519W        W99055  36.398  18.588  10.452
39520W        W99056  28.930  35.524   2.849
39521W        W99057  34.994   7.265  12.506
39522W        W99058  34.473  36.942  11.950
39523W        W99059  25.980  26.462   2.751
39524W        W99060  16.185  34.897   3.662
39525W        W99061  36.884  28.140   1.923
39526W        W99062   7.909   2.911   0.366
39527W        W99063  18.657  33.561  10.893
39528W        W99064  12.710   3.316  11.501
39529W        W99065  16.133   5.340  12.490
39530W        W99066  12.349  32.443   4.254
39531W        W99067  12.204  26.503  12.395
39532W        W99068   9.787  10.252   1.390
39533W        W99069  25.663   8.177  12.850
39534W        W99070  37.337  29.030   0.373
39535W        W99071  27.681  33.600  10.913
39536W        W99072  20.224  29.522   2.777
39537W        W99073  27.499  29.002   1.900
39538W        W99074  22.718   4.746   2.810
39539W        W99075  14.108  25.492  10.427
39540W        W99076  20.659  23.162   0.427
39541W        W99077  21.144  17.688   2.835
39542W        W99078  12.349   8.822   5.135
39543W        W99079   7.802  36.542  12.829
39544W        W99080  12.194  15.104  13.499
39545W        W99081  14.602  38.063   3.343
39546W        W99082   0.892  40.895  14.371
39547W        W99083  38.922  34.972   3.783
39548W        W99084   3.394  11.341   3.737
39549W        W99085   6.874  41.372  11.014
39550W        W99086  12.313   0.437   1.738
39551W        W99087  21.174  10.318  13.798
39552W        W99088  44.443  26.024   4.622
39553W        W99089  35.507   0.261   4.697
39554W        W99090  41.390  44.950  13.936
39555W        W99091  36.512  16.149   4.318
39556W        W99092  19.126   2.780  11.085
39557W        W99093  43.496  21.729   4.337
39558W        W99094  10.151   1.424   2.392
39559W        W99095  40.497  22.667   0.407
39560W        W99096   0.457  42.293  10.436
39561W        W99097  10.309  44.425   1.912
39562W        W99098  42.973  16.604   4.226
39563W        W99099   0.831  23.514  10.117
39564W        W99100   3.293  23.112  11.063
39565W        W99101  24.205  37.538   1.372
39566W        W99102  37.525  11.774   5.189
39567W        W99103  25.158  44.790  11.529
39568W        W99104   6.340  25.023   0.414
39569W        W99105  26.555  34.432   4.228
39570W        W99106  29.628  23.699   3.723
39571W        W99107   9.659  39.906  13.430
39572W        W99108  26.120   8.306   4.320
39573W        W99109   2.817  34.494  12.468
39574W        W99110  41.514  11.151  11.064
39575W        W99111  17.102  25.516  13.432
39576W        W99112  27.580  38.048  12.025
39577W        W99113  33.460   7.700   3.306
39578W        W99114  10.175  33.119  11.035
39579W        W99115   1.338  14.109  11.105
39580W        W99116  31.983  42.488   1.335
39581W        W99117  36.582   7.759   1.275
39582W        W99118  35.582   6.428  14.979
39583W        W99119   9.238  21.640  11.009
39584W        W99120  34.959  11.842   0.325
39585W        W99121  39.939  26.648  13.893
39586W        W99122   4.722  15.259  12.380
39587W        W99123  32.026  15.645   3.855
39588W        W99124   9.827  27.474   2.316
39589W        W99125  38.971   8.850  14.857
39590W        W99126  15.208  21.163   2.259
39591W        W99127  15.679  44.929   4.181
39592W        W99128  36.463  33.526  12.998
39593W        W99129  28.057  29.992   2.820
39594W        W99130  42.882  36.356  13.412
39595W        W99131   8.218  20.092   2.835
39596W        W99132   3.711  28.005   2.328
39597W        W99133   4.901  18.174  14.398
39598W        W99134   6.259  28.469  10.517
39599W        W99135  33.478  42.010   1.860
39600W        W99136  27.111  15.751  14.278
39601W        W99137   0.764  28.455  10.426
39602W        W99138   7.739  42.393   3.640
39603W        W99139   7.827  43.308  11.039
39604W        W99140  10.161  34.015   5.295
39605W        W99141  15.110  18.593   2.332
39606W        W99142  36.556  18.069  14.858
39607W        W99143   5.801  38.350   4.242
39608W        W99144  19.100  16.307  10.503
39609W        W99145  33.025  16.698   0.870
39610W        W99146  41.023   5.436  13.853
39611W        W99147  32.585  40.417   1.224
39612W        W99148  33.951  10.156  12.481
39613W        W99149  26.558  18.551   0.884
39614W        W99150  33.575  19.590  13.543
39615W        W99151   4.877   9.314  14.942
39616W        W99152  19.759  20.125  13.406
39617W        W99153  29.134  14.825   4.758
39618W        W99154   1.382  22.045  11.012
39619W        W99155  38.933   2.294   2.316
39620W        W99156  11.771  32.474   0.263
39621W        W99157   3.933  13.652  14.026
39622W        W99158  19.240   8.732   1.231
39623W        W99159  37.920  13.262   2.855
39624W        W99160  13.613  33.448   3.220
39625W        W99161  15.745  26.985   1.777
39626W        W99162  41.388  18.611   0.396
39627W        W99163  11.268  43.930  10.579
39628W        W99164   7.363  37.471  14.866
39629W        W99165  30.951  23.169   3.763
39630W        W99166  32.611  13.118   4.749
39631W        W99167   2.281   2.862  13.377
39632W        W99168  12.234  22.996  13.455
39633W        W99169   6.225  40.467  10.072
39634W        W99170  30.917  18.587  14.913
39635W        W99171  29.462   9.248   1.741
39636W        W99172  31.986  16.686   0.836
39637W        W99173   0.353  25.600   0.317
39638W        W99174  39.009  37.581   2.888
39639W        W99175   2.407  31.143  12.031
39640W        W99176  24.137  30.122  11.449
39641W        W99177  44.865   6.354  13.346
39642W        W99178  44.890  32.427   3.274
39643W        W99179  39.895  38.333   2.340
39644W        W99180   0.834  28.036   0.817
39645W        W99181  44.315  20.042  10.952
39646W        W99182  35.095   3.956  12.932
39647W        W99183  26.651   1.359   3.366
39648W        W99184  44.447  21.598  13.020
39649W        W99185  43.304  27.446   0.941
39650W        W99186  13.607  11.197  10.527
39651W        W99187  13.271  37.397  12.002
39652W        W99188  37.853   0.774   2.415
39653W        W99189  21.067  26.592   1.333
39654W        W99190  24.063  39.468   4.688
39655W        W99191  14.206   6.689   1.933
39656W        W99192  35.006  17.289  10.064
39657W        W99193  28.618  27.516   1.741
39658W        W99194   6.743   9.291   1.377
39659W        W99195  25.971  38.440   4.796
39660W        W99196  40.320   7.205  13.425
39661W        W99197   2.851  37.497   1.793
39662W        W99198  42.899  44.011  12.579
39663W        W99199   5.826  43.505  10.581
39664W        W99200  32.559  34.419  14.486
39665W        W99201   9.648  42.478   4.643
39666W        W99202  42.002  27.584  11.482
39667W        W99203  36.923  18.280   0.856
39668W        W99204  30.485   6.854  11.035
39669W        W99205  32.402  29.533  13.314
39670W        W99206  28.453  11.720   3.681
39671W        W99207  29.669  32.449  14.867
39672W        W99208   5.804  42.971   3.854
39673W        W99209  29.515   7.196  10.119
39674W        W99210  11.740  24.083  12.848
39675W        W99211  32.548   4.406   0.477
39676W        W99212  31.099  36.892  14.465
39677W        W99213  20.707  15.268  10.604
39678W        W99214   4.351  30.985  11.007
39679W        W99215  29.124  28.989  14.458
39680W        W99216  35.862  17.670   0.929
39681W        W99217  24.192  44.318  11.857
39682W        W99218  37.436  41.333   0.469
39683W        W99219  42.338  37.892  12.476
39684W        W99220   8.205  20.161  11.386
39685W        W99221  32.068   6.922  12.399
39686W        W99222  43.356  21.559  10.531
39687W        W99223  11.746  31.138   1.772
39688W        W99224   5.432  12.682  11.539
39689W        W99225  10.845  40.365  10.159
39690W        W99226  35.425  24.145   3.302
39691W        W99227   8.191  13.118   4.705
39692W        W99228  38.866  42.407  14.827
39693W        W99229   3.944   3.828   4.745
39694W        W99230  20.080   0.986   0.944
39695W        W99231  14.651  15.312   4.284
39696W        W99232  18.083  29.527  11.558
39697W        W99233  22.560  23.072   0.370
39698W        W99234  24.094  10.718  12.883
39699W        W99235  44.977   8.781   3.733
39700W        W99236  43.279  18.123   4.689
39701W        W99237  24.202  43.921   0.874
39702W        W99238  17.225  26.536   2.804
39703W        W99239   5.383  29.014   2.769
39704W        W99240   8.225  36.846   4.352
39705W        W99241  10.316  17.083  14.498
39706W        W99242  21.170  20.126  10.444
39707W        W99243  25.540  26.516   4.793
39708W        W99244   1.741  29.612  10.437
39709W        W99245  18.227  40.538   2.850
39710W        W99246  12.803  23.582  11.548
39711W        W99247  41.032   7.411   1.234
39712W        W99248  14.310  30.085   1.428
39713W        W99249  42.439   6.362   1.241
39714W        W99250  39.379  11.240   0.441
39715W        W99251  22.232  19.042   1.319
39716W        W99252   4.745  29.664  12.849
39717W        W99253   7.281  20.532  10.925
39718W        W99254   3.224   6.227  13.800
39719W        W99255  28.136  26.603  12.441
39720W        W99256  38.483   3.732   1.336
39721W        W99257  44.803  11.799   0.255
39722W        W99258  20.644   9.733   4.113
39723W        W99259  36.427  29.120  14.336
39724W        W99260  39.036  13.338  12.507
39725W        W99261  30.594   6.189  11.468
39726W        W99262  28.024  27.088   2.687
39727W        W99263  15.181  42.893  11.948
39728W        W99264  39.044  30.917  10.905
39729W        W99265  30.133  10.379   4.776
39730W        W99266   2.447  43.448  12.051
39731W        W99267  35.078   9.357  13.835
39732W        W99268   1.898  20.234   0.764
39733W        W99269   1.423  42.808   0.898
39734W        W99270  16.636   1.433   3.180
39735W        W99271  26.500  33.130   3.633
39736W        W99272  24.192  38.334   2.817
39737W        W99273  25.605  17.125   1.303
39738W        W99274  24.086  29.468   3.194
39739W        W99275  18.580  42.840  14.763
39740W        W99276   6.188  31.563   4.280
39741W        W99277  40.327  10.271   0.437
39742W        W99278  43.373  17.716   0.251
39743W        W99279  24.541  25.686   0.938
39744W        W99280  41.477  43.815   3.783
39745W        W99281   0.449  41.452  12.580
39746W        W99282  30.636  29.493   2.682
39747W        W99283  30.603  36.052   1.739
39748W        W99284   7.380  34.393   1.261
39749W        W99285   3.305   9.385  14.372
39750W        W99286  14.267  14.624  11.581
39751W        W99287  25.143  36.494   5.660
39752W        W99288  29.491  19.601  13.990
39753W        W99289  14.606  19.250  12.059
39754W        W99290  11.713   5.263  14.304
39755W        W99291  17.654  12.343  12.440
39756W        W99292  10.741  25.126   4.297
39757W        W99293  10.837  29.615   1.821
39758W        W99294   5.378  26.471  10.534
39759W        W99295  29.655  13.351   2.784
39760W        W99296  40.952  24.054  12.404
39761W        W99297  24.508   4.701  12.562
39762W        W99298  31.445  39.543  13.860
39763W        W99299  31.466   7.828   1.887
39764W        W99300  36.995  21.754  11.978
39765W        W99301   1.788  12.639   5.122
39766W        W99302  17.713  43.930   2.807
39767W        W99303  13.789  42.787   3.214
39768W        W99304   1.243  19.534   5.220
39769W        W99305  16.135  26.103  13.545
39770W        W99306  40.952  38.059  14.295
39771W        W99307  15.139  32.013   1.386
39772W        W99308  19.110  16.695  10.948
39773W        W99309  36.853  40.861  12.985
39774W        W99310  16.702  33.944   1.310
39775W        W99311   9.759  12.855   0.869
39776W        W99312  25.013   9.831   4.599
39777W        W99313  42.882  16.092   0.946
39778W        W99314  42.358  39.882   3.375
39779W        W99315   1.851  21.676  11.941
39780W        W99316  32.071  19.643   3.377
39781W        W99317   5.420   4.365   2.376
39782W        W99318   2.748  16.250   0.330
39783W        W99319  30.508  29.492   0.845
39784W        W99320  28.143  37.348  12.960
39785W        W99321   0.260  40.337  13.920
39786W        W99322   9.869  31.008   4.738
39787W        W99323  31.897  26.109   1.926
39788W        W99324  19.086  30.961  14.297
39789W        W99325  33.529   2.837   1.934
39790W        W99326   5.299   8.270  12.479
39791W        W99327  42.465  37.026  10.529
39792W        W99328  26.633  12.763   2.394
39793W        W99329  40.875  40.049   2.663
39794W        W99330  24.020  24.211  13.943
39795W        W99331  44.878  39.516   0.831
39796W        W99332  40.545  41.406  11.966
39797W        W99333  12.767  22.076  14.367
39798W        W99334   2.734   2.899  14.916
39799W        W99335   4.740  27.649  11.407
39800W        W99336  38.883  41.350   4.146
39801W        W99337  15.656  13.691  14.017
39802W        W99338  44.479  19.040  13.493
39803W        W99339  25.215  23.170   1.388
39804W        W99340  11.312   8.840   2.746
39805W        W99341  22.055   5.872   3.334
39806W        W99342  41.028  13.839   2.807
39807W        W99343  16.755  38.955   2.295
39808W        W99344  32.010  29.658   0.914
39809W        W99345  12.216  32.505   1.440
39810W        W99346  40.941  37.072   3.259
39811W        W99347  31.948   1.410   1.907
39812W        W99348   9.182  19.139   3.189
39813W        W99349  43.810  23.050   4.215
39814W        W99350   8.175  30.994  12.930
39815W        W99351   4.361  42.861  11.013
39816W        W99352  12.216  34.867  12.064
39817W        W99353   7.182  13.682  13.882
39818W        W99354  36.062   4.906  11.545
39819W        W99355   8.205  29.572   2.270
39820W        W99356   6.905   7.253  12.908
39821W        W99357  13.829   1.480  12.370
39822W        W99358  44.774  39.812   0.922
39823W        W99359  41.993   6.885  12.385
39824W        W99360  39.330  17.610  12.537
39825W        W99361  39.404   4.394  13.541
39826W        W99362  23.538  34.386   2.259
39827W        W99363   5.208   4.919  11.474
39828W        W99364  40.876  37.407  10.123
39829W        W99365  42.943  44.329  12.363
39830W        W99366  16.265  13.786   2.687
39831W        W99367  33.444  19.711  10.900
39832W        W99368  11.835  29.655   2.239
39833W        W99369   2.782  37.457  11.378
39834W        W99370  31.056  10.322  13.474
39835W        W99371  21.664   4.725   3.780
39836W        W99372  18.077  20.542   3.657
39837W        W99373  39.460  19.086   4.717
39838W        W99374  20.601  42.998  11.075
39839W        W99375  37.047  39.829  11.395
39840W        W99376  22.501  43.398   0.727
39841W        W99377  24.541  22.102   3.672
39842W        W99378   9.856  40.817   0.465
39843W        W99379  18.544  26.508  11.594
39844W        W99380  26.097  31.036  13.922
39845W        W99381  18.246   9.267   4.280
39846W        W99382  11.248   1.478  12.436
39847W        W99383  31.955  41.997   0.825
39848W        W99384  40.471  36.418  14.395
39849W        W99385   9.159  27.054   2.688
39850W        W99386  13.224  13.684   2.419
39851W        W99387  27.678  37.475  12.408
39852W        W99388  23.510  17.748   4.253
39853W        W99389  19.724  43.974  13.915
39854W        W99390  23.126  15.678   3.207
39855W        W99391  27.544  29.492  11.057
39856W        W99392  22.077   7.256  12.943
39857W        W99393   5.289  41.917   1.432
39858W        W99394  43.486  27.100  11.517
39859W        W99395  44.264  33.460  14.468
39860W        W99396  40.304  31.989  14.460
39861W        W99397   5.272  19.678   2.717
39862W        W99398   1.440   1.827   1.912
39863W        W99399  31.941  43.328  11.902
39864W        W99400  25.173  42.338  10.507
39865W        W99401  42.344  12.278  13.821
39866W        W99402  15.206  29.986   2.880
39867W        W99403  36.529   2.266   0.877
39868W        W99404  12.834  35.530   3.378
39869W        W99405  32.978  38.913   0.484
39870W        W99406  18.786  31.496  12.975
39871W        W99407   5.351  12.261   4.738
39872W        W99408  19.114  12.663  11.585
39873W        W99409  23.164  20.646  12.883
39874W        W99410  21.747   8.701  13.957
39875W        W99411  11.632  14.099   0.805
39876W        W99412  29.527   7.833  10.909
39877W        W99413  44.804   6.420  11.937
39878W        W99414  28.517   7.828   1.822
39879W        W99415  25.669  31.151  12.414
39880W        W99416  20.037  12.715  11.559
39881W        W99417  29.464  44.957  12.545
39882W        W99418  22.141   0.771   1.775
39883W        W99419  22.600  24.167  14.867
39884W        W99420   6.858  22.067   1.344
39885W        W99421  32.974  33.881   4.238
39886W        W99422  30.089  14.214   0.925
39887W        W99423  35.008  27.454  13.331
39888W        W99424  22.199  17.198  12.003
39889W        W99425  33.380  22.530   1.757
39890W        W99426  32.454   4.327   1.890
39891W        W99427  23.173   6.754  14.336
39892W        W99428   5.744  37.085  10.567
39893W        W99429  30.036   8.266   4.197
39894W        W99430  33.889  32.483  13.992
39895W        W99431  40.412  21.087  13.028
39896W        W99432   9.834  25.679   5.141
39897W        W99433  28.601   9.834  11.041
39898W        W99434   4.234   9.667   3.193
39899W        W99435  21.056  33.457  11.105
39900W        W99436   1.315  32.094   2.822
39901W        W99437   3.789  26.606   5.314
39902W        W99438   0.280  33.885  14.312
39903W        W99439  28.541  21.092  13.945
39904W        W99440  18.127  33.564   1.860
39905W        W99441  23.728  38.507  14.465
39906W        W99442  22.504  11.274   1.709
39907W        W99443  32.898  23.714  10.409
39908W        W99444   8.165  27.557  10.117
39909W        W99445  13.735   5.918   2.677
39910W        W99446  14.159  17.150   3.322
39911W        W99447  13.664  36.484  10.637
39912W        W99448  26.494  13.206  11.524
39913W        W99449  34.615  27.007   1.244
39914W        W99450   7.415  44.861  11.120
39915W        W99451  33.530  11.349  12.419
39916W        W99452  22.524  20.262   1.344
39917W        W99453  43.892   9.644  12.493
39918W        W99454  25.997  34.890   4.816
39919W        W99455  17.104   2.885   2.846
39920W        W99456   2.744  32.104   1.754
39921W        W99457  18.778  11.295  13.905
39922W        W99458  41.460  36.533   4.675
39923W        W99459  40.417  19.755   1.271
39924W        W99460  42.860  36.562   2.713
39925W        W99461  40.850  41.367   2.185
39926W        W99462   8.701  37.405   0.826
39927W        W99463  10.139  30.011   4.674
39928W        W99464  41.843   6.349   0.327
39929W        W99465   2.919  38.533  13.978
39930W        W99466   6.823  41.846  13.392
39931W        W99467   5.202  18.256  14.512
39932W        W99468  12.311  18.755   4.615
39933W        W99469  24.568  44.796   1.326
39934W        W99470  35.396  21.703  14.803
39935W        W99471  15.296   7.212   1.819
39936W        W99472  42.504  36.435  14.763
39937W        W99473  36.552   7.804  13.977
39938W        W99474  42.845   2.274  10.897
39939W        W99475   2.740  31.901  14.789
39940W        W99476   5.842  15.683   3.841
39941W        W99477  25.214  35.527   3.260
39942W        W99478  37.986  30.061   3.641
39943W        W99479  36.382  19.258  12.884
39944W        W99480   5.867  40.840  11.421
39945W        W99481  35.423   0.364   0.862
39946W        W99482   8.888  44.819   0.760
39947W        W99483  21.559   8.177   2.735
39948W        W99484  32.013  19.044   3.245
39949W        W99485  30.998  17.091  11.395
39950W        W99486   3.838  34.047   0.280
39951W        W99487  10.241  14.227  10.524
39952W        W99488  31.050  39.832  13.873
39953W        W99489  43.879  35.945   3.160
39954W        W99490  27.139  26.568   1.810
39955W        W99491  16.185  20.053   2.216
39956W        W99492  30.968  23.555  12.350
39957W        W99493   1.815  35.074   1.323
39958W        W99494  12.266   4.746   4.245
39959W        W99495  41.907  33.125  13.901
39960W        W99496  13.183  18.127  13.865
39961W        W99497  15.233  43.849  12.091
39962W        W99498  37.384   0.468  12.421
39963W        W99499  29.133  38.076   4.338
39964W        W99500  26.461  39.002   0.830
39965W        W99501   9.774   1.905   0.348
39966W        W99502  14.666  28.568  11.882
39967W        W99503  27.062  38.883   9.955
39968W        W99504  21.631   8.736   0.782
39969W        W99505  24.977   3.805   5.176
39970W        W99506  18.272  10.360  12.021
39971W        W99507  35.460  15.280  12.967
39972W        W99508  40.037  33.008  12.879
39973W        W99509  42.879  27.072  13.043
39974W        W99510   4.932   7.727   2.862
39975W        W99511   2.297   4.415   4.726
39976W        W99512  19.100  39.365  12.874
39977W        W99513  36.346  35.894   3.651
39978W        W99514  12.666   3.843  13.818
39979W        W99515  22.610  11.842   1.285
39980W        W99516  15.127  11.650  12.027
39981W        W99517   2.373  14.725  11.609
39982W        W99518  33.413  42.295  14.982
39983W        W99519  44.279   5.773  11.089
39984W        W99520  20.670   5.769  14.989
39985W        W99521   8.217  21.209   1.793
39986W        W99522  17.273  41.426   2.351
39987W        W99523  26.680  33.598   4.348
39988W        W99524  38.426  16.202  11.868
39989W        W99525  42.892   8.876   1.324
39990W        W99526  43.004  15.659   0.385
39991W        W99527  34.518  34.872  11.567
39992W        W99528  43.017  14.214  13.499
39993W        W99529  41.855  35.912  10.065
39994W        W99530  41.042   2.376   4.254
39995W        W99531  31.545  21.667   1.326
39996W        W99532   3.822   0.772  13.806
39997W        W99533  36.019   2.392   4.709
39998W        W99534  23.658  40.955  11.410
39999W        W99535  10.289  34.403  12.470
40000W        W99536  20.135   8.318  12.015
40001W        W99537   9.243   7.309   9.457
40002W        W99538  22.101   2.721  10.508
40003W        W99539   0.284  28.084  12.498
40004W        W99540  10.838   0.784  14.968
40005W        W99541   7.340   5.808   4.763
40006W        W99542  36.926  21.095  13.323
40007W        W99543   6.423  34.112  12.366
40008W        W99544  27.499  15.692  13.317
40009W        W99545  22.008  24.131   4.611
40010W        W99546   7.721   0.283  13.365
40011W        W99547  28.937   8.258  12.944
40012W        W99548  22.732   2.931  10.088
40013W        W99549  19.656  18.784   3.830
40014W        W99550  31.534  18.070  13.509
40015W        W99551  42.443  14.798  14.792
40016W        W99552  17.209  42.950  10.965
40017W        W99553  44.842  44.854  12.422
40018W        W99554  31.919  15.314  10.989
40019W        W99555   5.318  22.566   1.719
40020W        W99556   5.859  34.921  10.527
40021W        W99557   1.835   7.910  12.897
40022W        W99558  21.703  29.923   3.200
40023W        W99559  11.847  26.154  10.076
40024W        W99560   3.809   7.289  14.916
40025W        W99561  16.571  37.905   1.909
40026W        W99562  23.598   5.439  14.291
40027W        W99563  27.084  23.084  13.797
40028W        W99564  38.824   5.718  12.905
40029W        W99565  20.609  31.909  10.416
40030W        W99566  14.276  27.472  10.952
40031W        W99567  44.002  16.242   1.880
40032W        W99568   6.749  28.097   3.193
40033W        W99569  34.517  38.333   0.434
40034W        W99570  28.969  42.792  12.970
40035W        W99571  27.946  21.513   0.816
40036W        W99572   3.428  12.284   2.754
40037W        W99573  35.550   8.681   1.394
40038W        W99574  32.485  16.105   3.167
40039W        W99575  28.511  11.279  14.968
40040W        W99576  15.104  31.151  13.396
40041W        W99577  19.596  18.191   1.833
40042W        W99578   3.460  30.619  13.813
40043W        W99579  20.587  30.651  14.851
40044W        W99580  39.461  25.022   2.346
40045W        W99581  19.160   7.260   0.823
40046W        W99582   9.350  42.343  13.982
40047W        W99583  27.142  41.945  12.529
40048W        W99584  32.449  22.182  14.961
40049W        W99585  33.030   2.359   4.330
40050W        W99586  43.846  25.117  14.843
40051W        W99587  35.984  28.667  10.531
40052W        W99588  44.261   8.769  12.559
40053W        W99589  27.118  39.522  12.964
40054W        W99590  17.599   2.261   1.217
40055W        W99591  13.689  18.565  14.923
40056W        W99592  11.652  14.260   1.716
40057W        W99593  43.944   5.897  14.904
40058W        W99594   3.745  18.161   4.781
40059W        W99595   5.874  35.433  13.468
40060W        W99596  19.213  32.404   2.417
40061W        W99597  33.060  34.017   1.890
40062W        W99598  39.900  21.670  10.603
40063W        W99599   0.347  13.686   4.839
40064W        W99600  35.908   0.323   3.730
40065W        W99601  16.794  40.498  11.876
40066W        W99602  12.734  44.445   3.191
40067W        W99603  36.357  12.711  14.763
40068W        W99604  28.058  26.521   1.727
40069W        W99605  32.581  10.844   4.694
40070W        W99606  25.153  10.291  10.495
40071W        W99607  11.823  43.849  11.566
40072W        W99608  31.419  15.596  11.903
40073W        W99609   0.438  35.554  11.108
40074W        W99610  42.481  38.506   4.751
40075W        W99611  36.037  42.977   1.921
40076W        W99612   4.732   0.454  10.566
40077W        W99613  19.563  14.783   0.849
40078W        W99614   7.319  32.964   2.701
40079W        W99615  36.997  38.981   1.835
40080W        W99616  16.253   2.736   0.738
40081W        W99617  25.151   8.828   5.167
40082W        W99618  33.959  44.939  11.552
40083W        W99619  28.966  31.930  10.950
40084W        W99620  15.740  28.614   3.795
40085W        W99621  37.530  40.872   3.211
40086W        W99622  44.437  36.484   1.216
40087W        W99623  29.437  28.539  11.466
40088W        W99624   6.404  37.581   2.851
40089W        W99625  17.558  29.172   1.437
40090W        W99626  41.367  34.110  12.564
40091W        W99627  34.539  38.932  13.908
40092W        W99628   0.755  26.055   0.868
40093W        W99629  39.481   1.792   2.699
40094W        W99630   1.901  12.331  13.946
40095W        W99631  22.188  30.548  10.914
40096W        W99632  12.803  14.252   1.328
40097W        W99633  12.673  18.103  12.849
40098W        W99634   2.264  24.115   2.683
40099W        W99635  36.537   8.803  13.023
40100W        W99636  27.170  11.274   0.847
40101W        W99637   6.232   3.362  11.010
40102W        W99638  18.085  40.943   3.387
40103W        W99639  33.975  30.600   0.451
40104W        W99640  20.731   3.868  13.366
40105W        W99641  19.641  21.719   0.465
40106W        W99642   9.372  39.379  13.893
40107W        W99643   4.400  17.099   3.225
40108W        W99644  35.100  44.788   4.180
40109W        W99645  18.144  33.439  13.037
40110W        W99646  41.331  42.002   1.705
40111W        W99647  38.521  30.144  14.932
40112W        W99648  44.486  42.347  11.959
40113W        W99649  22.024  19.734  14.798
40114W        W99650  37.864  13.744   3.336
40115W        W99651  10.229  20.650   2.335
40116W        W99652  17.181  10.286   1.386
40117W        W99653  27.965  36.086   1.933
40118W        W99654   6.354  21.617  14.975
40119W        W99655  29.553  13.716   4.673
40120W        W99656  34.874  14.199  11.518
40121W        W99657  34.039  21.130   3.355
40122W        W99658  20.632  28.472   0.365
40123W        W99659  10.362  38.875   5.111
40124W        W99660   2.372  23.217   1.793
40125W        W99661  34.011  12.361  13.037
40126W        W99662   3.455   2.301  12.401
40127W        W99663  33.100   7.758  13.408
40128W        W99664  38.933  13.764  12.560
40129W        W99665  44.446  22.107  10.976
40130W        W99666   5.342  11.761   3.742
40131W        W99667  35.437  14.591   0.376
40132W        W99668  16.170  44.380  14.370
40133W        W99669  21.667   2.322   0.822
40134W        W99670  24.222  34.552   4.311
40135W        W99671  18.685  43.288   4.687
40136W        W99672  25.081  32.402   4.260
40137W        W99673  22.214   8.258   3.363
40138W        W99674   9.826  30.467   4.244
40139W        W99675  16.735  24.012   3.348
40140W        W99676  30.004   5.325   0.470
40141W        W99677  32.068   8.832  11.083
40142W        W99678  15.184   1.397   4.172
40143W        W99679   0.421  29.105   3.864
40144W        W99680  14.727  34.518   0.908
40145W        W99681  40.804  39.516   1.397
40146W        W99682  17.277  18.113  12.026
40147W        W99683  16.161   0.422   1.748
40148W        W99684  37.572   9.687   2.416
40149W        W99685  17.645   8.750   2.336
40150W        W99686  37.421  19.746  10.910
40151W        W99687  35.501  15.628  12.970
40152W        W99688  44.421  18.779   2.697
40153W        W99689  16.272  36.447  11.923
40154W        W99690  43.842  38.399  12.410
40155W        W99691  29.141  27.050  14.878
40156W        W99692  37.985  36.439   4.689
40157W        W99693   0.982  15.249  12.015
40158W        W99694   6.297   3.443   4.717
40159W        W99695  38.957  44.445  11.049
40160W        W99696  36.414  21.130  10.928
40161W        W99697  40.024  26.669  10.596
40162W        W99698  39.424   4.275   4.125
40163W        W99699   0.480  44.868  12.017
40164W        W99700  15.121  19.054  11.446
40165W        W99701  36.578  39.927  13.530
40166W        W99702  44.278   0.251   1.220
40167W        W99703  33.471  44.424  10.933
40168W        W99704  17.207  41.802  11.584
40169W        W99705   2.934  21.636   3.173
40170W        W99706   1.793   1.345   3.773
40171W        W99707  25.638  34.433  13.855
40172W        W99708  40.987  32.921   1.386
40173W        W99709  19.682  26.652  11.022
40174W        W99710   7.294  21.238   5.223
40175W        W99711   5.850  12.731  13.907
40176W        W99712  25.116  17.143   2.279
40177W        W99713  35.989  31.079  13.548
40178W        W99714  23.732  15.661   4.230
40179W        W99715  33.997  17.637  14.964
40180W        W99716  24.084   2.420  11.110
40181W        W99717   2.755  16.084  14.287
40182W        W99718   2.797  34.901   4.211
40183W        W99719   1.303  14.318  11.979
40184W        W99720  14.594  15.117   0.756
40185W        W99721  14.104  33.085  12.869
40186W        W99722   8.753  25.602   4.239
40187W        W99723  44.989  13.676  14.777
40188W        W99724  11.245  24.507  13.799
40189W        W99725  17.611   8.354  14.466
40190W        W99726  39.401  14.833   4.174
40191W        W99727  29.014  25.152  11.914
40192W        W99728   4.856   3.277   4.299
40193W        W99729  28.112   6.199   0.295
40194W        W99730  32.048  41.301   0.920
40195W        W99731  23.050  22.091   2.730
40196W        W99732  31.086   0.749  13.925
40197W        W99733  12.663  43.295  10.932
40198W        W99734   1.263  41.314  12.383
40199W        W99735  28.604  19.047   3.680
40200W        W99736   6.182  20.639   2.825
40201W        W99737  40.539   0.793  14.853
40202W        W99738  28.066  20.702  13.041
40203W        W99739  17.697  44.847  11.912
40204W        W99740   4.234  32.422  14.892
40205W        W99741   2.818  37.948  13.000
40206W        W99742   7.359   5.721  14.466
40207W        W99743   5.342   8.752  13.818
40208W        W99744  10.297   5.745  14.853
40209W        W99745  35.500  32.893  12.990
40210W        W99746   7.741  25.075  13.319
40211W        W99747  23.683   6.906  12.008
40212W        W99748  24.089  12.758   1.927
40213W        W99749  12.706  15.721   1.737
40214W        W99750   3.899  35.107   4.638
40215W        W99751  27.524   2.777   2.809
40216W        W99752  35.857  24.639   0.377
40217W        W99753  13.785   6.749  14.275
40218W        W99754   7.182  28.100   3.854
40219W        W99755   2.360   9.818   9.569
40220W        W99756   6.425   9.770  14.010
40221W        W99757  43.490   3.883   3.632
40222W        W99758  11.750  14.261  12.362
40223W        W99759  25.517  12.637   3.866
40224W        W99760  22.652  14.111   0.940
40225W        W99761  41.339  30.632   3.854
40226W        W99762   3.421   9.723  11.474
40227W        W99763  10.751   1.423   3.162
40228W        W99764  22.509  26.065   2.360
40229W        W99765  30.052  33.520  12.040
40230W        W99766  19.264  21.739  13.849
40231W        W99767  37.948   6.695  11.040
40232W        W99768  28.654  31.919   2.692
40233W        W99769  22.613  25.057   9.943
40234W        W99770  13.192  10.724  14.502
40235W        W99771  23.627  44.763   4.748
40236W        W99772  30.066  11.360   2.867
40237W        W99773  24.977  28.182   1.761
40238W        W99774   8.266  11.267   0.838
40239W        W99775  23.212  43.793   0.868
40240W        W99776   9.164  22.726  11.460
40241W        W99777  26.192  39.552  11.889
40242W        W99778  22.679  34.447   5.167
40243W        W99779  33.597  16.213   1.902
40244W        W99780  28.636  27.006  11.460
40245W        W99781  18.551  17.782  13.919
40246W        W99782  39.820  33.451   3.367
40247W        W99783  39.478  10.662   2.736
40248W        W99784  26.678  34.519   3.855
40249W        W99785  10.709  12.713   1.251
40250W        W99786  16.277   6.311  11.893
40251W        W99787  37.030  39.879   1.319
40252W        W99788  27.454  29.645  14.378
40253W        W99789   1.358  34.534  11.107
40254W        W99790  18.648  11.228   1.345
40255W        W99791   1.292  44.272   2.345
40256W        W99792  26.568  44.440  12.497
40257W        W99793  29.558  19.138  11.860
40258W        W99794  26.593   5.900  12.886
40259W        W99795  41.944   1.352   3.322
40260W        W99796  12.202  26.690  12.022
40261W        W99797   0.459  16.660   2.797
40262W        W99798   1.748  22.074  11.536
40263W        W99799  27.052  30.034   0.816
40264W        W99800   5.699   6.359  10.577
40265W        W99801  14.762  17.600  11.859
40266W        W99802   7.238   2.917   4.737
40267W        W99803  14.700  31.495  11.575
40268W        W99804  42.027  23.530  11.412
40269W        W99805  37.465  24.205   2.720
40270W        W99806  10.355  18.086  10.961
40271W        W99807   4.417  42.789   0.865
40272W        W99808  13.187  14.707   0.398
40273W        W99809  12.821  32.588  13.964
40274W        W99810  21.187  23.569   4.121
40275W        W99811  42.840  13.619  10.980
40276W        W99812  30.995   0.751   4.776
40277W        W99813  16.611  35.510  14.458
40278W        W99814  34.948  42.286  11.986
40279W        W99815  40.504  11.314   9.492
40280W        W99816  17.596  42.923  13.464
40281W        W99817   3.242   9.816  13.949
40282W        W99818  38.973  13.239  10.013
40283W        W99819  41.449   9.726  10.140
40284W        W99820  22.520   8.389   1.250
40285W        W99821  26.137  24.624  10.989
40286W        W99822  42.437  33.380   3.219
40287W        W99823   5.751   0.352  13.937
40288W        W99824  30.461   8.749  10.953
40289W        W99825  31.992   1.894   4.173
40290W        W99826  11.278   9.314  13.431
40291W        W99827  21.737  18.143   2.232
40292W        W99828  28.465  24.100  14.948
40293W        W99829   1.254  15.625  13.914
40294W        W99830  22.245  29.171  11.423
40295W        W99831  40.548  10.750  13.307
40296W        W99832  29.444  26.510   1.715
40297W        W99833  32.947  40.982   0.815
40298W        W99834  19.567  12.644  14.833
40299W        W99835  40.342  41.968   2.267
40300W        W99836  32.049  19.765  13.001
40301W        W99837  42.845  44.800   4.827
40302W        W99838  10.695  20.120   3.307
40303W        W99839  44.378  36.576  12.001
40304W        W99840  44.352  42.385   2.371
40305W        W99841   8.844  33.603   0.410
40306W        W99842   8.738  38.960   0.775
40307W        W99843   6.418  36.430   2.208
40308W        W99844  19.210   8.758   2.899
40309W        W99845  27.552  13.330   4.153
40310W        W99846   7.252   4.420  13.396
40311W        W99847  22.619   6.265  12.520
40312W        W99848  10.822   4.830   1.798
40313W        W99849  35.014  22.508  11.037
40314W        W99850  16.249  18.778  11.943
40315W        W99851  37.081   8.294   3.210
40316W        W99852   0.374  19.257  12.529
40317W        W99853  30.603  19.050   4.251
40318W        W99854  28.003  17.229  11.563
40319W        W99855  13.609  19.697  13.987
40320W        W99856   3.400  12.222  13.864
40321W        W99857  26.068   7.842   3.267
40322W        W99858   1.918   4.865  12.349
40323W        W99859  44.422  39.967   4.600
40324W        W99860  30.958  30.621  12.485
40325W        W99861  32.548   0.863   4.777
40326W        W99862  19.219  39.394  13.817
40327W        W99863   2.349  20.686  11.057
40328W        W99864  10.712  42.865   5.318
40329W        W99865  31.103  41.816  11.025
40330W        W99866   4.248  31.622  14.895
40331W        W99867  40.322  17.567  14.380
40332W        W99868   6.764  42.483   2.307
40333W        W99869  25.515  27.099  14.279
40334W        W99870  36.521  27.134   4.782
40335W        W99871   6.398  33.028   2.668
40336W        W99872  12.317  14.704   4.222
40337W        W99873   3.329  11.826   0.331
40338W        W99874  44.809  10.177  13.533
40339W        W99875  40.379  40.308  13.005
40340W        W99876  43.355  10.349  14.941
40341W        W99877  27.992  15.147  10.918
40342W        W99878  24.186  15.086   4.797
40343W        W99879  10.757   8.337   2.184
40344W        W99880  43.847   7.376  14.823
40345W        W99881   6.378  13.193   1.738
40346W        W99882   2.802   5.259   0.372
40347W        W99883  23.567  28.004  14.824
40348W        W99884   1.972  25.216   1.701
40349W        W99885  26.598  42.952  13.840
40350W        W99886  27.479   9.187   2.337
40351W        W99887  31.444  27.951   4.221
40352W        W99888   0.299  30.588  14.433
40353W        W99889  44.840  23.984  14.972
40354W        W99890  11.287  24.598   0.373
40355W        W99891  12.234  16.666   4.249
40356W        W99892  35.463  12.745   1.703
40357W        W99893  23.599  41.940   2.329
40358W        W99894  39.902   4.437   0.288
40359W        W99895  36.082  16.075  12.022
40360W        W99896  24.637  39.877  14.338
40361W        W99897  30.414   4.395  11.062
40362W        W99898  14.834  41.806   1.244
40363W        W99899   4.323   5.927  13.981
40364W        W99900   7.785  36.871   0.425
40365W        W99901  31.545   2.764   2.711
40366W        W99902   4.387  32.971  13.943
40367W        W99903  40.950  12.263   0.291
40368W        W99904  17.630   7.679   3.186
40369W        W99905  19.236   9.216  10.425
40370W        W99906  42.825  19.239   2.304
40371W        W99907  17.693  11.364  13.044
40372W        W99908  14.216   7.717   0.920
40373W        W99909  21.723  22.728  12.917
40374W        W99910  38.539  21.575  11.562
40375W        W99911  13.343  40.859  13.010
40376W        W99912  13.225  11.313  11.066
40377W        W99913  35.590  21.753   1.249
40378W        W99914   2.960  39.988  10.514
40379W        W99915  42.470   1.766  11.451
40380W        W99916  30.490  16.247   0.368
40381W        W99917   0.493  34.070  13.916
40382W        W99918   2.334  26.183  11.861
40383W        W99919   3.283  32.614   1.435
40384W        W99920  17.071  37.886  12.025
40385W        W99921   4.322  29.175   4.166
40386W        W99922  21.165   4.817  12.986
40387W        W99923  44.772  10.183  11.593
40388W        W99924  10.367  42.305  12.851
40389W        W99925   7.184  16.758  13.366
40390W        W99926  17.580  42.016   3.298
40391W        W99927  33.442  41.977   3.295
40392W        W99928  18.120  24.611   2.410
40393W        W99929  29.643  10.656   3.314
40394W        W99930   4.426  40.357   0.323
40395W        W99931  40.376  36.515  14.839
40396W        W99932  34.458  19.152   3.855
40397W        W99933  25.630  34.385  14.949
40398W        W99934   9.664  21.533   2.873
40399W        W99935   3.381  17.607   3.825
40400W        W99936  32.056   5.212  14.848
40401W        W99937   8.770  36.021   3.769
40402W        W99938  42.856  43.432  13.817
40403W        W99939  19.042  34.970   0.758
40404W        W99940  28.119   4.232   2.202
40405W        W99941  32.110  44.953   1.863
40406W        W99942   1.761   0.336  14.877
40407W        W99943  38.835  38.987   2.227
40408W        W99944  35.063   3.302  13.498
40409W        W99945  21.028   8.325   2.884
40410W        W99946  28.985  33.923   4.785
40411W        W99947  24.160  19.712   9.979
40412W        W99948  35.975  24.228  11.900
40413W        W99949  35.039  41.412   3.691
40414W        W99950   2.279  41.819  11.419
40415W        W99951  43.994  38.378   0.774
40416W        W99952  33.070  20.718   3.284
40417W        W99953  39.460  29.051  12.375
40418W        W99954  36.919   1.959   2.731
40419W        W99955  29.022  24.104   1.424
40420W        W99956  30.438   8.782  10.616
40421W        W99957  18.734  34.423   0.814
40422W        W99958  11.792   2.957   4.681
40423W        W99959  42.499   2.791   0.864
40424W        W99960  18.619   9.868   0.728
40425W        W99961   6.291   4.397  14.381
40426W        W99962  11.219  20.053  11.955
40427W        W99963  33.586  15.772  13.433
40428W        W99964  22.021  27.505  12.885
40429W        W99965  34.105  40.894  11.010
40430W        W99966  29.438  39.477   3.674
40431W        W99967  35.065  44.347   4.263
40432W        W99968  35.590  28.611  10.502
40433W        W99969  26.473  17.561   5.694
40434W        W99970  42.286  24.000   4.197
40435W        W99971   0.344  34.943   3.274
40436W        W99972   1.883  28.001  13.484
40437W        W99973   8.798  14.183   2.882
40438W        W99974  23.701  10.346  14.819
40439W        W99975  40.044  43.294  12.561
40440W        W99976  21.020  37.372  12.512
40441W        W99977  39.812  20.758  12.023
40442W        W99978   8.733  38.444  10.643
40443W        W99979  21.614   1.895  14.327
40444W        W99980   6.839   1.450  12.829
40445W        W99981  23.144  34.942  13.812
40446W        W99982   7.202   7.828   0.393
40447W        W99983  24.611  19.142   3.363
40448W        W99984  25.006  36.866   3.804
40449W        W99985  26.206  41.498   0.363
40450W        W99986  32.055   2.895   3.744
40451W        W99987  17.253   7.887   3.340
40452W        W99988  41.302  16.572   1.865
40453W        W99989   6.862  15.251  13.057
40454W        W99990  27.564  12.715   4.837
40455W        W99991   6.283  11.662  11.899
40456W        W99992  42.841  25.076   2.208
40457W        W99993  35.044   5.436  14.921
40458W        W99994   5.910  43.511   4.785
40459W        W99995   0.259   2.946   3.853
40460W        W99996  13.748  12.281  12.916
40461W        W99997  22.720  26.974  10.077
40462W        W99998  16.170  38.463  11.880
40463W        W99999  23.205  22.743  11.914
40464W        W    0   3.939  31.132  13.973
40465W        W    1  22.048  37.386  13.357
40466W        W    2   5.346   3.313  12.930
40467W        W    3  25.981  31.055   3.267
40468W        W    4  31.030  13.840   1.257
40469W        W    5  39.884  16.686   3.241
40470W        W    6  28.161  20.180  10.438
40471W        W    7  35.472  22.062  12.008
40472W        W    8  23.685  22.166   2.265
40473W        W    9   4.376   9.821   2.707
40474W        W   10  44.981  34.447  10.966
40475W        W   11  21.179   4.786  12.373
40476W        W   12   4.766  24.629   0.942
40477W        W   13  42.942  18.221   3.268
40478W        W   14   5.281  33.594  12.014
40479W        W   15  27.673  29.065  13.370
40480W        W   16   3.817  16.641   4.616
40481W        W   17  39.855   9.754  14.841
40482W        W   18   3.835  34.564  12.445
40483W        W   19  31.040  34.989   1.732
40484W        W   20  35.430  12.355  13.513
40485W        W   21  22.534   4.801   1.711
40486W        W   22  41.372  39.989   4.601
40487W        W   23  37.351  29.560   4.834
40488W        W   24  34.593  26.107  14.930
40489W        W   25  26.632  11.359  10.427
40490W        W   26  44.780  19.094  14.344
40491W        W   27   7.198   2.939   3.755
40492W        W   28  31.459  11.819  12.903
40493W        W   29  30.070  17.173  13.404
40494W        W   30  24.487  30.431   4.672
40495W        W   31  32.010  25.660  11.516
40496W        W   32   1.898  17.579   4.277
40497W        W   33  38.016  23.084  11.122
40498W        W   34  12.657  24.117   4.189
40499W        W   35  16.585  28.086  10.451
40500W        W   36  42.894   7.906  13.057
40501W        W   37  29.920  23.514  12.507
40502W        W   38   2.230  25.055  14.289
40503W        W   39  38.873   9.675  10.924
40504W        W   40  40.894   1.858  13.877
40505W        W   41  41.892   3.785  12.530
40506W        W   42   5.717  33.083   2.381
40507W        W   43  27.506  32.949  11.867
40508W        W   44  35.395  17.757  14.878
40509W        W   45  35.401  33.882  10.948
40510W        W   46  39.413  21.754   0.780
40511W        W   47  10.729  13.144  12.089
40512W        W   48  24.044  17.098  13.420
40513W        W   49   1.975  24.616   0.334
40514W        W   50  38.847  44.313   3.210
40515W        W   51  19.605   9.692  13.322
40516W        W   52   7.266  19.181   4.803
40517W        W   53  34.376  11.720  10.931
40518W        W   54  31.980  32.471  14.420
40519W        W   55  44.975  16.313   9.439
40520W        W   56   5.916  31.006  14.474
40521W        W   57  26.648  28.594  14.359
40522W        W   58  22.511  23.113   4.619
40523W        W   59  19.091  27.555   1.375
40524W        W   60  29.999  20.672  10.610
40525W        W   61  40.391  13.660   2.679
40526W        W   62   7.407  11.752  14.964
40527W        W   63   8.675  41.804   4.170
40528W        W   64  24.982  36.044   0.944
40529W        W   65  38.933   9.790   2.792
40530W        W   66  38.072   8.393   2.241
40531W        W   67  13.168  44.322  14.331
40532W        W   68  12.344  37.521  14.396
40533W        W   69  40.011   3.863   2.296
40534W        W   70  13.833   6.808   9.927
40535W        W   71  31.454  16.274  10.899
40536W        W   72   7.758  22.737   1.236
40537W        W   73   2.254   9.361   1.856
40538W        W   74  43.950  33.911  13.326
40539W        W   75  31.123  32.978  10.922
40540W        W   76  28.109  35.070   1.341
40541W        W   77   0.428  41.813   2.802
40542W        W   78  16.809  34.969   2.290
40543W        W   79   0.377  29.012  10.633
40544W        W   80  21.078  24.643  14.922
40545W        W   81  19.672  40.395   3.315
40546W        W   82  17.596  36.991   2.817
40547W        W   83  20.677  17.631  14.299
40548W        W   84  20.576   3.955   4.812
40549W        W   85  37.496   7.710  11.488
40550W        W   86  41.856  11.834   3.775
40551W        W   87   0.804  34.440   2.316
40552W        W   88  32.474  14.269  11.908
40553W        W   89  28.680  13.316  14.991
40554W        W   90  38.842   7.740  13.399
40555W        W   91  26.955  20.165   3.796
40556W        W   92  23.675  29.998   4.133
40557W        W   93   6.308  31.076   2.194
40558W        W   94   6.718   9.728   4.710
40559W        W   95  20.116   6.356  11.925
40560W        W   96   3.759  31.569  13.890
40561W        W   97  30.549  33.594  12.069
40562W        W   98  15.310   2.372  13.893
40563W        W   99   6.273  39.936   4.733
40564W        W  100   5.229  27.649  12.932
40565W        W  101  40.311  32.036   4.253
40566W        W  102  40.800   3.261  14.839
40567W        W  103  34.552  20.672   3.267
40568W        W  104  35.994  43.307  10.085
40569W        W  105  41.436  11.141   3.214
40570W        W  106  17.069  13.817   2.717
40571W        W  107   9.287   0.802   4.742
40572W        W  108  26.106  37.453  11.515
40573W        W  109  12.834   3.293   4.697
40574W        W  110  17.129  17.301   0.900
40575W        W  111  37.399  18.605  12.082
40576W        W  112  25.126  28.587  12.458
40577W        W  113  30.985  44.409   4.802
40578W        W  114   6.718   9.665  11.906
40579W        W  115  13.127  26.020  10.913
40580W        W  116  42.022  35.866  14.491
40581W        W  117  41.355  12.826  11.937
40582W        W  118   9.266  16.074  12.344
40583W        W  119  16.699   7.184   2.767
40584W        W  120   9.296  14.597  14.812
40585W        W  121  34.607   8.818  12.033
40586W        W  122  41.386  29.662  11.913
40587W        W  123  43.394   1.774  10.519
40588W        W  124  32.393   4.447  10.631
40589W        W  125  33.523  42.928  14.459
40590W        W  126  34.559  25.516   2.380
40591W        W  127  30.937  14.094  11.405
40592W        W  128  10.171  11.266  12.034
40593W        W  129  16.179  22.511   1.345
40594W        W  130  41.796  24.513  11.120
40595W        W  131  33.021  38.970   0.743
40596W        W  132  17.580  14.120  11.396
40597W        W  133  24.616  32.125   5.187
40598W        W  134  33.581  34.545   1.731
40599W        W  135  14.260  37.573   0.802
40600W        W  136  44.374  11.668  14.938
40601W        W  137   9.737  33.619  13.999
40602W        W  138   4.729  23.664   3.162
40603W        W  139  38.915   2.267  12.397
40604W        W  140  43.797  32.914   1.778
40605W        W  141   3.954  10.250   0.362
40606W        W  142  31.643  13.211  14.028
40607W        W  143  44.334  19.063  12.491
40608W        W  144  26.977  42.469  12.871
40609W        W  145  13.678  25.170  11.591
40610W        W  146   4.332  38.567  13.941
40611W        W  147  21.061  44.277   2.245
40612W        W  148  25.201  10.761  13.970
40613W        W  149  19.761   6.346  11.087
40614W        W  150  43.927  36.043  14.437
40615W        W  151  31.429  15.772  10.951
40616W        W  152  24.644  17.301   9.605
40617W        W  153   8.194  11.187  14.395
40618W        W  154  21.191  39.548   4.738
40619W        W  155  40.499  26.041   3.632
40620W        W  156  43.921  12.735  13.499
40621W        W  157  12.225  38.961  14.855
40622W        W  158   6.705  27.085   3.191
40623W        W  159  43.390  40.404   4.301
40624W        W  160  12.650   9.336  12.947
40625W        W  161  12.159   7.229  13.008
40626W        W  162  19.671   3.457  10.954
40627W        W  163  41.428   9.784   0.389
40628W        W  164  15.818  43.942  13.478
40629W        W  165  13.243  23.665  12.831
40630W        W  166  39.811   8.813   5.261
40631W        W  167   9.387  14.752  10.445
40632W        W  168  35.871  27.459   1.777
40633W        W  169   7.857  44.839   1.876
40634W        W  170   2.961  34.990   2.384
40635W        W  171   5.365  34.013   3.217
40636W        W  172  34.523  40.872  11.510
40637W        W  173   4.437   5.879   1.740
40638W        W  174  35.558  18.075   4.615
40639W        W  175   7.206  18.739  10.626
40640W        W  176  39.357  17.179  12.931
40641W        W  177  21.528  42.840   3.731
40642W        W  178  40.962   5.244   1.348
40643W        W  179  30.642  22.675  11.017
40644W        W  180  24.087  16.609   5.642
40645W        W  181  14.290   9.750  11.126
40646W        W  182  23.173  44.330  12.019
40647W        W  183  22.129  35.052   1.244
40648W        W  184  32.061   8.813  11.550
40649W        W  185   5.765  39.365   1.808
40650W        W  186  23.007  17.643   0.289
40651W        W  187   6.839   5.426   0.350
40652W        W  188  15.308  15.163  13.337
40653W        W  189   5.230  32.902   0.347
40654W        W  190  26.632   5.338  11.419
40655W        W  191   1.364  25.051  13.931
40656W        W  192  18.677   3.836   2.344
40657W        W  193   9.355   9.206  13.837
40658W        W  194  23.087   0.466  12.865
40659W        W  195   4.314  35.981  13.916
40660W        W  196  28.627  29.159  11.540
40661W        W  197  43.843   0.335   1.717
40662W        W  198  10.866  44.477  13.964
40663W        W  199  25.697   4.925  13.415
40664W        W  200   6.778  19.634   2.245
40665W        W  201  43.344  20.541  12.498
40666W        W  202  17.725   4.298   4.190
40667W        W  203  32.435  13.158   0.370
40668W        W  204  16.620  32.972  12.349
40669W        W  205   6.191  36.889  12.917
40670W        W  206  32.956  33.979   3.279
40671W        W  207  25.104   8.761   3.319
40672W        W  208  15.612  20.733  14.948
40673W        W  209  40.985   1.800  14.825
40674W        W  210  13.210  13.232  11.863
40675W        W  211  24.508   7.272   4.145
40676W        W  212  23.070  37.900   4.170
40677W        W  213  35.403  31.585  12.971
40678W        W  214  33.534  43.377   3.259
40679W        W  215  34.925  43.803  10.583
40680W        W  216  33.011   8.216   1.387
40681W        W  217   3.368  33.990  14.407
40682W        W  218   8.837   8.808   1.818
40683W        W  219  31.934   1.377  13.038
40684W        W  220  13.714  27.121  10.965
40685W        W  221  37.363   5.884  14.438
40686W        W  222  31.583  34.385   0.823
40687W        W  223  40.517  18.149  10.514
40688W        W  224  42.427  17.123  13.893
40689W        W  225   7.709  18.659   3.350
40690W        W  226  30.912  44.505  10.161
40691W        W  227  24.998  43.325   0.916
40692W        W  228  28.579  10.356  13.340
40693W        W  229   3.832   5.740   4.783
40694W        W  230  43.843   2.760  14.287
40695W        W  231  27.081  29.641  12.933
40696W        W  232   4.765  21.205  10.098
40697W        W  233  36.005  43.271   5.129
40698W        W  234  27.508  26.963  11.855
40699W        W  235   5.307   7.694   4.129
40700W        W  236  19.665   3.740   1.319
40701W        W  237   1.309  36.555  10.413
40702W        W  238   2.467  40.358   0.394
40703W        W  239  39.822   4.258  13.947
40704W        W  240  37.483  22.739   1.226
40705W        W  241  38.522  23.549  10.640
40706W        W  242  17.556  31.148  14.774
40707W        W  243   6.783  39.049  14.917
40708W        W  244  24.480  41.353   3.685
40709W        W  245  24.175   4.815  14.490
40710W        W  246  18.135  25.139  14.335
40711W        W  247   5.421  10.278  13.440
40712W        W  248  37.541   6.361   1.855
40713W        W  249  30.543  38.506  12.478
40714W        W  250   5.799  43.415   1.346
40715W        W  251  38.851  18.055   3.157
40716W        W  252  39.843  39.808   4.669
40717W        W  253  35.432  13.622   2.701
40718W        W  254  33.130  26.542   3.215
40719W        W  255  29.155  30.589   2.205
40720W        W  256  37.978   5.887   2.882
40721W        W  257  17.798   7.827  11.032
40722W        W  258  17.132  18.113   4.659
40723W        W  259   8.233  22.071  13.482
40724W        W  260   7.896   5.814   4.757
40725W        W  261  12.782  37.851  12.506
40726W        W  262  25.490  11.695   2.890
40727W        W  263  14.103  33.062  12.494
40728W        W  264  11.312  29.425  13.445
40729W        W  265  33.040  14.833   4.781
40730W        W  266  32.072  17.782  10.525
40731W        W  267  43.972  15.732  11.059
40732W        W  268  22.244   6.717  11.909
40733W        W  269  43.296   3.348   4.646
40734W        W  270  31.422  42.023  13.899
40735W        W  271  39.829  22.050   3.711
40736W        W  272  18.166  13.120   1.417
40737W        W  273  44.433  36.043   0.765
40738W        W  274  43.420  28.602  13.002
40739W        W  275  36.432  40.914  12.055
40740W        W  276   4.941   4.239  11.485
40741W        W  277  44.897  24.675   0.937
40742W        W  278  18.790   1.347  10.557
40743W        W  279  29.624  18.207  12.882
40744W        W  280  18.785  12.262  12.865
40745W        W  281  25.005  34.103   0.351
40746W        W  282   2.280  36.349   1.428
40747W        W  283  26.683  43.484   1.775
40748W        W  284   4.410  14.643  12.839
40749W        W  285   9.167   9.179  11.399
40750W        W  286  27.690  24.175  12.572
40751W        W  287   9.199   0.275   4.777
40752W        W  288  39.022  12.227   4.760
40753W        W  289  35.953  26.022   0.811
40754W        W  290  38.926  43.777   1.411
40755W        W  291   2.358  21.050   9.972
40756W        W  292  40.420  10.336  11.540
40757W        W  293   0.917  44.788  14.819
40758W        W  294  10.164  12.767   2.329
40759W        W  295  12.125  23.016   4.602
40760W        W  296  28.585  43.465  14.986
40761W        W  297   5.759   6.834  10.601
40762W        W  298  30.159   3.869  11.038
40763W        W  299   7.796  33.891  10.491
40764W        W  300  21.531  14.615  13.905
40765W        W  301  41.484  23.147  12.571
40766W        W  302   6.794   2.453  14.283
40767W        W  303   8.766   5.769   2.663
40768W        W  304  38.557  35.023  14.441
40769W        W  305  20.260   9.284  12.079
40770W        W  306   4.920  40.431   0.847
40771W        W  307   9.678  38.998   3.234
40772W        W  308  35.594  10.147  11.949
40773W        W  309  22.079  22.117  10.490
40774W        W  310  12.193   7.740   9.670
40775W        W  311  31.476  44.888   0.803
40776W        W  312  21.553   1.407  14.388
40777W        W  313  25.528  38.422   1.747
40778W        W  314   9.207  16.227   0.244
40779W        W  315  30.162   4.764  10.538
40780W        W  316  16.140  42.361  12.418
40781W        W  317  15.216  32.520  13.879
40782W        W  318  14.649  16.582   1.378
40783W        W  319  41.900  21.753   4.598
40784W        W  320  39.408  38.364   2.190
40785W        W  321   0.970   8.749  11.522
40786W        W  322  41.416  14.818  14.842
40787W        W  323   1.809  26.952  14.779
40788W        W  324  13.230  22.529   9.926
40789W        W  325  32.905  31.528  10.417
40790W        W  326  37.577   9.660   2.892
40791W        W  327  44.310   0.433   0.439
40792W        W  328  12.190  21.160  12.515
40793W        W  329  19.770  24.043  14.795
40794W        W  330  21.659  10.329   2.839
40795W        W  331  34.546  23.525   4.726
40796W        W  332  39.810  15.277   2.250
40797W        W  333   7.803  40.908  14.955
40798W        W  334  27.689  24.596   1.842
40799W        W  335  40.812   3.862  14.859
40800W        W  336  39.350  31.078  12.485
40801W        W  337   1.822  43.456  12.915
40802W        W  338  37.458  21.071   2.793
40803W        W  339  18.596  42.344   4.288
40804W        W  340  38.365   4.444  10.445
40805W        W  341  37.925  24.562  14.832
40806W        W  342  30.044   1.789  14.477
40807W        W  343   1.870   0.320   0.886
40808W        W  344  37.936  13.681   0.453
40809W        W  345  17.216  12.690   9.963
40810W        W  346  10.330   8.396   1.411
40811W        W  347  33.608   1.331  14.401
40812W        W  348   1.399   6.832  13.032
40813W        W  349  33.957  12.631  14.362
40814W        W  350  41.836  33.974  14.775
40815W        W  351  26.170  26.691  13.053
40816W        W  352  31.112  43.970  13.406
40817W        W  353  37.555  41.451  14.023
40818W        W  354  12.305   1.278   2.276
40819W        W  355  17.611  10.210   4.791
40820W        W  356  38.002  23.217  13.901
40821W        W  357  18.557  15.160  13.842
40822W        W  358  41.996  33.620  12.894
40823W        W  359  18.118  22.726  11.961
40824W        W  360   3.718  19.045  11.937
40825W        W  361  43.803   1.341   4.183
40826W        W  362   5.212  26.058   0.867
40827W        W  363  22.170   3.379  14.839
40828W        W  364  43.485  41.528   4.166
40829W        W  365  24.696  11.311   2.240
40830W        W  366  35.920  43.300  14.883
40831W        W  367   9.844  12.775  10.612
40832W        W  368  23.629  15.680  12.484
40833W        W  369  27.034  32.396  14.935
40834W        W  370  21.517  24.030  12.963
40835W        W  371  21.597   1.394   3.864
40836W        W  372  44.366  31.991   3.154
40837W        W  373  27.941  34.542  12.377
40838W        W  374  38.549  34.958  13.342
40839W        W  375  16.261  23.520  12.541
40840W        W  376  19.229  16.711  12.910
40841W        W  377  26.466  29.611   4.238
40842W        W  378   8.762  43.948   2.355
40843W        W  379   9.679  27.061   3.274
40844W        W  380  17.770   1.307  12.558
40845W        W  381  15.095  31.472   1.785
40846W        W  382  26.091  33.466   1.710
40847W        W  383  18.186  44.990   1.925
40848W        W  384  41.852   0.397   3.818
40849W        W  385  43.444  36.943  10.982
40850W        W  386  41.926  18.579  14.297
40851W        W  387  19.556   4.375   1.380
40852W        W  388  18.763  14.733   2.264
40853W        W  389  26.619  12.637   1.383
40854W        W  390   3.295   9.674   1.361
40855W        W  391  20.268   3.862  13.389
40856W        W  392   2.725  24.692  11.995
40857W        W  393  25.153  27.146   1.796
40858W        W  394  37.901  23.663   3.738
40859W        W  395  25.625  30.011   3.699
40860W        W  396  31.958  11.187  13.010
40861W        W  397  35.979  40.846  10.961
40862W        W  398   0.272   5.288   4.785
40863W        W  399   4.330  38.338   0.411
40864W        W  400   0.934   3.879  13.449
40865W        W  401  42.972   1.916   2.721
40866W        W  402   1.806  13.176  11.931
40867W        W  403  28.034  11.351  10.962
40868W        W  404   3.891  33.120  12.986
40869W        W  405  22.652  18.114  13.308
40870W        W  406  40.799  21.590   1.231
40871W        W  407   1.278  22.216  11.436
40872W        W  408  32.000  44.837   2.385
40873W        W  409  28.043  38.873   2.849
40874W        W  410  43.279  22.645   4.647
40875W        W  411   7.367  30.948   3.327
40876W        W  412   9.261  14.795   3.863
40877W        W  413   6.689  19.123   1.234
40878W        W  414  20.187  30.012   2.771
40879W        W  415   1.796  33.468   2.720
40880W        W  416  37.906  27.673  12.908
40881W        W  417  23.546   6.909   0.402
40882W        W  418  34.450  29.547  12.418
40883W        W  419  26.624  37.911  14.276
40884W        W  420  19.692  11.240   4.310
40885W        W  421   1.966  30.024   1.852
40886W        W  422  37.461   3.330  14.391
40887W        W  423   5.284  25.564   4.233
40888W        W  424  28.538  15.759   4.129
40889W        W  425   4.421  40.395  13.892
40890W        W  426  28.671  37.538  12.840
40891W        W  427   8.282   9.167   0.915
40892W        W  428  21.204  42.905   3.213
40893W        W  429  17.194  43.913  10.942
40894W        W  430  25.079  37.009   1.792
40895W        W  431   1.362  30.646  13.015
40896W        W  432  43.919  17.243  11.421
40897W        W  433  28.019  31.642   4.279
40898W        W  434  15.729  16.125  14.911
40899W        W  435  24.120   0.381   3.860
40900W        W  436  22.610  32.923   1.771
40901W        W  437  42.924  22.098  10.496
40902W        W  438  31.472  43.369  11.967
40903W        W  439  23.723   4.282  13.866
40904W        W  440  16.156  35.075  13.426
40905W        W  441  29.560   7.888  12.829
40906W        W  442   7.784   0.891  10.477
40907W        W  443  41.298  39.409   1.365
40908W        W  444  14.627   7.698   0.380
40909W        W  445  29.146   5.320  13.500
40910W        W  446  20.076  35.535  10.552
40911W        W  447  33.433   1.789  13.314
40912W        W  448   6.260  17.107   2.876
40913W        W  449   2.822  38.513  12.924
40914W        W  450  18.735  17.659  14.411
40915W        W  451  37.994  32.125   1.321
40916W        W  452  33.008   9.662  14.352
40917W        W  453  15.189  22.572  14.401
40918W        W  454   0.797  38.937   5.245
40919W        W  455  31.623  32.529  12.365
40920W        W  456  42.842  21.602  10.940
40921W        W  457  10.712  11.626  13.885
40922W        W  458  30.090   8.719   2.360
40923W        W  459  29.622   8.707  10.128
40924W        W  460  23.565  37.926   2.829
40925W        W  461  23.691  41.297  12.001
40926W        W  462  39.832   5.436   1.908
40927W        W  463  12.135  43.481  11.526
40928W        W  464   6.395   3.725  14.025
40929W        W  465  14.241  19.065   2.327
40930W        W  466  23.691  27.057   0.869
40931W        W  467  17.081  18.784  10.461
40932W        W  468  13.192   5.709   2.769
40933W        W  469  37.933  38.346  11.541
40934W        W  470  17.277  17.722  10.110
40935W        W  471  18.765  42.822  13.339
40936W        W  472  28.544  39.493   3.747
40937W        W  473  39.493   8.162   1.348
40938W        W  474   8.900   5.332  14.487
40939W        W  475  34.448  14.145   0.363
40940W        W  476  40.839  20.191   2.331
40941W        W  477  27.993  25.161  10.068
40942W        W  478  15.756  28.017   0.788
40943W        W  479  22.633  39.449   0.800
40944W        W  480  41.867  22.140   4.705
40945W        W  481  11.258  30.557   3.169
40946W        W  482   3.816  16.781   3.159
40947W        W  483   6.334  39.433  11.043
40948W        W  484  11.359   7.414  13.010
40949W        W  485  16.674   1.762  10.961
40950W        W  486  31.590  12.636  11.081
40951W        W  487  10.700  19.703  12.960
40952W        W  488   0.941  15.261  10.634
40953W        W  489  43.858  21.605  14.486
40954W        W  490  40.497   6.701  11.459
40955W        W  491  31.995  14.106   3.737
40956W        W  492  26.477  12.764   4.800
40957W        W  493  15.722  43.938  14.956
40958W        W  494  13.151  35.528  14.985
40959W        W  495  16.692  27.542   1.221
40960W        W  496  41.932  38.446  11.436
40961W        W  497  28.067  29.649   1.306
40962W        W  498  38.857  14.180  10.007
40963W        W  499  35.871  42.490   1.707
40964W        W  500  38.063  32.553  14.954
40965W        W  501  32.940  11.732  14.504
40966W        W  502  11.832   2.916  11.414
40967W        W  503  44.961   6.795  11.909
40968W        W  504   7.296  24.523  13.001
40969W        W  505  12.841  40.871  10.410
40970W        W  506  29.482  30.933  10.946
40971W        W  507  41.843  37.974  11.910
40972W        W  508  33.581   2.914  13.503
40973W        W  509  38.025  16.566  10.557
40974W        W  510  15.187  20.636   0.478
40975W        W  511  20.658  40.533  11.490
40976W        W  512  27.066  31.099  10.919
40977W        W  513  16.229   8.654  11.406
40978W        W  514  39.316  42.416   2.806
40979W        W  515  36.360  33.124   1.845
40980W        W  516  20.152  39.336   4.681
40981W        W  517   3.228  28.980   3.382
40982W        W  518  27.137  21.723   1.923
40983W        W  519  32.963  12.709   1.369
40984W        W  520  24.183  14.261   4.601
40985W        W  521  17.759  21.596  13.464
40986W        W  522  20.593  34.041   0.388
40987W        W  523  38.900  27.173  12.432
40988W        W  524  31.966  21.139   4.663
40989W        W  525   3.795  12.231  13.995
40990W        W  526   6.286  36.367   1.734
40991W        W  527  16.165  19.202   2.259
40992W        W  528  19.574  17.305   4.703
40993W        W  529  16.645   6.749  13.825
40994W        W  530   3.358  18.560  13.374
40995W        W  531  31.138  29.948   1.702
40996W        W  532  33.936  26.617   4.232
40997W        W  533   3.850   5.934   2.893
40998W        W  534  37.542  24.666   3.228
40999W        W  535  31.415  22.675   5.200
41000W        W  536   4.356  20.621  13.337
41001W        W  537  10.286  44.910  14.427
41002W        W  538   0.449  23.233  11.434
41003W        W  539  44.497   4.888   2.326
41004W        W  540  12.627  33.077  11.388
41005W        W  541  43.829  13.294   0.342
41006W        W  542  17.731  14.649  11.513
41007W        W  543  11.369   2.318   2.355
41008W        W  544  42.438  19.264  11.461
41009W        W  545  32.987  37.967  13.322
41010W        W  546  32.080  38.846   3.796
41011W        W  547   7.799  13.135  13.885
41012W        W  548  43.308  21.212  14.492
41013W        W  549   1.427  19.105   1.758
41014W        W  550   9.339  23.588  11.899
41015W        W  551  30.538  41.521   4.176
41016W        W  552  38.922  25.708   1.839
41017W        W  553  19.197   3.447  11.514
41018W        W  554  31.088  18.589  13.890
41019W        W  555  33.603  41.788  11.078
41020W        W  556   0.759  30.141  10.925
41021W        W  557  39.056  16.207   3.723
41022W        W  558  12.685  25.147   3.380
41023W        W  559  34.997  16.568   2.387
41024W        W  560  44.755  20.213   1.270
41025W        W  561  29.613  12.733   4.775
41026W        W  562  19.147  34.871  10.513
41027W        W  563  16.627  42.873  12.996
41028W        W  564  27.586  42.495   0.875
41029W        W  565   6.371  13.653  12.885
41030W        W  566   9.708  38.559   0.269
41031W        W  567  20.749   8.185  13.991
41032W        W  568   3.383  20.760   4.131
41033W        W  569  26.571  23.197   4.805
41034W        W  570  28.636   8.718  14.481
41035W        W  571  40.025  22.589   2.213
41036W        W  572  43.820  23.227   0.887
41037W        W  573  26.559  29.516   4.777
41038W        W  574  21.087  20.756  14.006
41039W        W  575  41.913  37.419   3.264
41040W        W  576   8.264  13.674   3.716
41041W        W  577  25.092   3.954   2.357
41042W        W  578  30.430  42.402  13.453
41043W        W  579   4.831   8.311   4.630
41044W        W  580  19.748  42.015   4.254
41045W        W  581   2.855  37.975  11.992
41046W        W  582  37.041  33.119  13.834
41047W        W  583  36.438  11.622   0.269
41048W        W  584  41.319  14.717  14.385
41049W        W  585  24.118   2.282   9.977
41050W        W  586  37.511  24.037   3.319
41051W        W  587  15.579  44.274   2.296
41052W        W  588  38.893  22.015   1.412
41053W        W  589  37.544  38.372   1.793
41054W        W  590  14.247  26.468  14.924
41055W        W  591  43.440  14.773  11.399
41056W        W  592  23.201  25.566   0.300
41057W        W  593   8.679   9.747   2.406
41058W        W  594  32.504  16.177  14.486
41059W        W  595  37.556  25.476  10.565
41060W        W  596  34.016  30.065  12.378
41061W        W  597  22.189   9.834  10.999
41062W        W  598  32.407  15.681  12.932
41063W        W  599  17.190  44.471  12.341
41064W        W  600   8.163  24.087   4.735
41065W        W  601  17.236  44.911   2.408
41066W        W  602  11.367  39.856  12.978
41067W        W  603  37.582  29.055  14.295
41068W        W  604  23.549  18.260  13.849
41069W        W  605  32.441  42.982  13.867
41070W        W  606  12.180   9.750  11.412
41071W        W  607  43.437   5.344  11.128
41072W        W  608  34.566  34.533  11.544
41073W        W  609  27.083   6.372  11.948
41074W        W  610  29.957   7.883   0.376
41075W        W  611  36.959  17.173  13.527
41076W        W  612  23.078  19.598   4.290
41077W        W  613  17.643  30.453   2.887
41078W        W  614  37.949   7.251  10.466
41079W        W  615  34.879  40.891  12.510
41080W        W  616  24.077  31.965  12.574
41081W        W  617  10.250   4.753  14.440
41082W        W  618  16.658  23.106   3.195
41083W        W  619  41.835  10.365  13.008
41084W        W  620  43.995  39.872   2.329
41085W        W  621  14.297  25.707   4.210
41086W        W  622  18.663   2.418   2.239
41087W        W  623   2.749  10.746   3.209
41088W        W  624  13.296  39.868  10.945
41089W        W  625  11.318  35.885   2.221
41090W        W  626  24.718  16.776  10.047
41091W        W  627   5.846  22.101  12.355
41092W        W  628  43.361  43.276   2.237
41093W        W  629  32.635   4.302  13.399
41094W        W  630  30.514  24.575  11.392
41095W        W  631  37.458  44.925   0.319
41096W        W  632   6.872  12.167  11.965
41097W        W  633  19.539  18.673  11.123
41098W        W  634   6.743  32.552  12.489
41099W        W  635  42.299   7.891   1.780
41100W        W  636   8.795  11.338  13.043
41101W        W  637  21.629  33.558   0.445
41102W        W  638   4.885   0.296  14.809
41103W        W  639   4.285  21.585  12.356
41104W        W  640  11.731  39.509  13.002
41105W        W  641  11.760   0.344   0.766
41106W        W  642  11.142  35.069   0.342
41107W        W  643   4.804   6.404  10.960
41108W        W  644  32.410   0.464   0.824
41109W        W  645  25.683  15.763  13.936
41110W        W  646  13.269  11.299  12.426
41111W        W  647  25.649  12.197  14.815
41112W        W  648   7.218  21.543   1.335
41113W        W  649  42.961   8.263   2.713
41114W        W  650  35.587  11.796  11.121
41115W        W  651  37.908  15.627   2.726
41116W        W  652  25.985   4.778  10.528
41117W        W  653  34.603  22.188   0.439
41118W        W  654  39.370   8.257  14.466
41119W        W  655  29.489   9.852   1.881
41120W        W  656  28.672   4.416   1.445
41121W        W  657  39.347  35.530   4.164
41122W        W  658  16.662   2.327   2.795
41123W        W  659  11.793  40.379   3.770
41124W        W  660  34.107  39.450   0.430
41125W        W  661  39.506  33.989   1.811
41126W        W  662  39.406  22.535  14.311
41127W        W  663  11.279  11.660  13.431
41128W        W  664  10.840   4.801   0.886
41129W        W  665  23.214  29.065   1.886
41130W        W  666  27.518   7.341  13.521
41131W        W  667  40.503   4.908   3.767
41132W        W  668  20.708  43.488   1.786
41133W        W  669   0.381  21.244  10.594
41134W        W  670  26.697  37.393   1.769
41135W        W  671  25.666  23.126  12.860
41136W        W  672   0.391   1.389   2.704
41137W        W  673   8.266  12.182  12.074
41138W        W  674  40.492  31.068   0.818
41139W        W  675  13.769  15.649  14.505
41140W        W  676  42.875   4.231  12.063
41141W        W  677  15.296  23.225  12.851
41142W        W  678  22.087  27.991   1.393
41143W        W  679  35.881  31.606   2.414
41144W        W  680  21.137  27.461  13.891
41145W        W  681  11.645  33.400   0.836
41146W        W  682   4.235  42.329   1.360
41147W        W  683  30.455   3.833   3.235
41148W        W  684   5.341  44.870   0.795
41149W        W  685   6.757  15.115  11.421
41150W        W  686  21.146   5.934  14.432
41151W        W  687  13.305  41.357  13.407
41152W        W  688  30.162   0.488   3.264
41153W        W  689   5.888   8.748  10.628
41154W        W  690  13.649  42.033   4.339
41155W        W  691  20.602   9.765   0.400
41156W        W  692  33.071  38.345   0.273
41157W        W  693   5.926  29.663   2.731
41158W        W  694   9.725   1.337  13.990
41159W        W  695   9.375   4.863   2.790
41160W        W  696  17.727  19.592  12.941
41161W        W  697  32.531  34.893   3.185
41162W        W  698  25.699  33.449   3.381
41163W        W  699   8.705  10.343   4.784
41164W        W  700   6.370  24.617  10.539
41165W        W  701  39.919  35.455  14.335
41166W        W  702  41.390   2.344  12.017
41167W        W  703  17.200  34.039   4.708
41168W        W  704   5.233  26.096   2.224
41169W        W  705   7.826  18.585  13.450
41170W        W  706  37.359  21.550   4.178
41171W        W  707   7.305  20.623   1.425
41172W        W  708  41.394  17.608   3.832
41173W        W  709  29.056  31.047  11.081
41174W        W  710  24.541   2.372  11.055
41175W        W  711  39.469   0.844  11.508
41176W        W  712  12.297  36.402   0.791
41177W        W  713  35.065  40.434  10.982
41178W        W  714  32.426  36.871  11.493
41179W        W  715  22.618  14.834   3.318
41180W        W  716  25.562  24.165   3.815
41181W        W  717  43.953   3.299   1.232
41182W        W  718  13.737  29.565  11.092
41183W        W  719  13.224   7.740  11.942
41184W        W  720  43.381   5.765  13.844
41185W        W  721   2.720   1.388   1.913
41186W        W  722   8.827  25.658  14.775
41187W        W  723  41.833  23.124  12.995
41188W        W  724   4.792  27.154   1.824
41189W        W  725  26.524  27.595  10.477
41190W        W  726  13.685  15.205   4.141
41191W        W  727  19.089  25.538  10.420
41192W        W  728  13.604   6.805  12.407
41193W        W  729  18.126  27.683   2.676
41194W        W  730  17.116   5.262  13.388
41195W        W  731  36.000   2.872  13.815
41196W        W  732  20.547  38.891   2.288
41197W        W  733   7.280   7.300  11.878
41198W        W  734  25.107   3.243  12.869
41199W        W  735  22.252  18.546  14.769
41200W        W  736  40.968  10.298   0.758
41201W        W  737  44.409  23.995  14.351
41202W        W  738   2.272   3.382  12.914
41203W        W  739  27.579  22.686  11.889
41204W        W  740   6.272  44.993   3.358
41205W        W  741  24.228  38.868   2.366
41206W        W  742  42.337  42.509  12.368
41207W        W  743   0.403   1.249   0.908
41208W        W  744  26.005  44.894   0.885
41209W        W  745   9.234  34.009  14.907
41210W        W  746   2.832   4.387   0.928
41211W        W  747  20.760  10.693  12.376
41212W        W  748  30.065   8.702  12.016
41213W        W  749  32.901   3.228   2.400
41214W        W  750  21.750   8.672   5.302
41215W        W  751  17.239  35.471  13.314
41216W        W  752  21.101  23.553   0.383
41217W        W  753  23.634  38.047  13.864
41218W        W  754  12.116   4.320   3.271
41219W        W  755   7.684   3.422   9.996
41220W        W  756   5.802   3.777   4.269
41221W        W  757  41.461  38.980   1.771
41222W        W  758  17.605  17.104   3.749
41223W        W  759  13.175  42.421   3.808
41224W        W  760  29.575  11.338   4.295
41225W        W  761  25.487  22.677   1.398
41226W        W  762  10.676  23.602  12.493
41227W        W  763   8.892  39.010   3.745
41228W        W  764  38.009  26.110  12.919
41229W        W  765  21.134  26.027  12.023
41230W        W  766  19.193  23.240   1.798
41231W        W  767  12.199  26.564   5.722
41232W        W  768  16.172  35.894  12.842
41233W        W  769  17.182   0.833  13.031
41234W        W  770  28.471   1.388   0.840
41235W        W  771  30.603  22.664  13.535
41236W        W  772  21.052  38.457  12.043
41237W        W  773  13.732  33.121   3.319
41238W        W  774  31.927  44.803  14.965
41239W        W  775  16.270  10.258   4.130
41240W        W  776  16.222  38.549   3.729
41241W        W  777   8.326  39.026   2.391
41242W        W  778  10.159  42.367   2.741
41243W        W  779  40.398   4.808   9.924
41244W        W  780  21.650   8.828   4.164
41245W        W  781  18.158  23.601   2.798
41246W        W  782  25.107  12.749  10.406
41247W        W  783   0.392  15.100   2.191
41248W        W  784  12.164  16.617   1.765
41249W        W  785   7.225   2.876   0.882
41250W        W  786  35.548  40.964   3.747
41251W        W  787   7.885  16.615   2.814
41252W        W  788  30.045  17.280   2.320
41253W        W  789  43.471  32.476  14.407
41254W        W  790   8.718   5.296  14.986
41255W        W  791  30.062  40.434  10.988
41256W        W  792  33.418  11.167  13.374
41257W        W  793  34.446  38.445   4.339
41258W        W  794  12.199  39.052   1.889
41259W        W  795  10.818  14.689   2.805
41260W        W  796  22.054  28.083   0.285
41261W        W  797  17.675  33.566  12.500
41262W        W  798  31.011  30.463   4.833
41263W        W  799  40.527   8.389  14.322
41264W        W  800  30.504  12.664  13.317
41265W        W  801  25.545  42.904   2.236
41266W        W  802  22.068  24.157  14.380
41267W        W  803   2.822  43.818  11.461
41268W        W  804  31.564  20.142  10.562
41269W        W  805   9.838  24.020   4.753
41270W        W  806  40.020  17.631  13.900
41271W        W  807  39.326   5.231  14.348
41272W        W  808  14.671  42.857  12.453
41273W        W  809   7.242  39.912   2.851
41274W        W  810  33.042  22.202  10.550
41275W        W  811  32.585  16.300   2.677
41276W        W  812  41.313  37.062  11.943
41277W        W  813  23.133  17.574  12.554
41278W        W  814  41.912   0.772  12.437
41279W        W  815  28.049  39.422   3.649
41280W        W  816   5.196  43.769  12.836
41281W        W  817   5.863  10.353   1.776
41282W        W  818  39.421  15.180  10.453
41283W        W  819  19.776  14.236   3.666
41284W        W  820  19.586  31.139   2.189
41285W        W  821  35.402  44.383  11.088
41286W        W  822  26.050  35.487  10.535
41287W        W  823   8.808  26.096  11.980
41288W        W  824  25.179  38.554   3.149
41289W        W  825   9.869  27.559   4.806
41290W        W  826  41.977  30.164  11.581
41291W        W  827  38.971  27.541   4.817
41292W        W  828  36.394  18.267   0.915
41293W        W  829  38.489   0.452   4.710
41294W        W  830  41.002   1.829  12.418
41295W        W  831  24.568  12.274   1.882
41296W        W  832   1.421  29.611  11.448
41297W        W  833  11.836  29.434   1.258
41298W        W  834  39.412  34.378  13.005
41299W        W  835   5.716  16.207   0.765
41300W        W  836  15.207   2.469   4.165
41301W        W  837  13.168  34.994   2.854
41302W        W  838  28.117  41.346   1.282
41303W        W  839  40.864  23.683   3.302
41304W        W  840  35.095   5.707  13.911
41305W        W  841  22.568  12.297   4.800
41306W        W  842  34.440  29.662  11.481
41307W        W  843   8.175   3.937   1.726
41308W        W  844  29.586   0.297  10.066
41309W        W  845  29.549   5.891   0.765
41310W        W  846  20.578  40.386  13.490
41311W        W  847   6.210  34.424   0.450
41312W        W  848  44.413  28.455   1.773
41313W        W  849  42.801   0.751   4.830
41314W        W  850  38.868   7.686  14.367
41315W        W  851  37.366  39.497   1.930
41316W        W  852  31.028  10.192  11.007
41317W        W  853  38.325   1.284  13.807
41318W        W  854  12.226  19.604   3.344
41319W        W  855  30.070  42.865   3.748
41320W        W  856  19.677  28.023   2.766
41321W        W  857  10.229   9.718   2.725
41322W        W  858  32.530  26.032  14.368
41323W        W  859   6.773  31.967  14.461
41324W        W  860  13.192  34.059  12.053
41325W        W  861  44.325  19.740   0.429
41326W        W  862  28.608   9.883   4.354
41327W        W  863  35.596  42.020   4.290
41328W        W  864  31.956  40.824   2.893
41329W        W  865  20.274   6.273   0.411
41330W        W  866  18.106   3.872   4.749
41331W        W  867  16.686  25.167   3.206
41332W        W  868  16.238   0.831   1.442
41333W        W  869   7.867  30.595   5.178
41334W        W  870   9.736  32.947   4.711
41335W        W  871  13.350  24.569   3.841
41336W        W  872  37.462  15.324   0.905
41337W        W  873  42.428  24.108  14.807
41338W        W  874  44.803  32.573   0.770
41339W        W  875   0.878  18.142  12.510
41340W        W  876   2.720  40.875  10.596
41341W        W  877   9.860  29.624  11.868
41342W        W  878   9.881   9.194  11.414
41343W        W  879   7.810  34.532   1.343
41344W        W  880  33.597  16.297  13.924
41345W        W  881  33.478  12.337  13.538
41346W        W  882  17.296  37.864   0.891
41347W        W  883  16.082   9.393   2.865
41348W        W  884  39.939  29.976   3.672
41349W        W  885   6.774  44.340  13.519
41350W        W  886  41.374  10.723   4.619
41351W        W  887  20.569  15.166  13.335
41352W        W  888  13.661   2.422   2.363
41353W        W  889  43.431  25.075  10.514
41354W        W  890   8.764  22.201   3.682
41355W        W  891  16.649  35.973  14.027
41356W        W  892   9.801  10.349   2.820
41357W        W  893   3.229  27.992  11.547
41358W        W  894  19.082  33.084   3.163
41359W        W  895   8.835   5.381   3.322
41360W        W  896  27.518  40.403  11.424
41361W        W  897  27.641  29.952   4.676
41362W        W  898  43.872  12.611  12.855
41363W        W  899  15.208  26.606   0.916
41364W        W  900  16.237  43.967   1.301
41365W        W  901  37.571  34.496   3.191
41366W        W  902  15.718  28.124   1.312
41367W        W  903  44.823  26.066   0.284
41368W        W  904  21.045  32.901  11.112
41369W        W  905  39.953  13.650   0.739
41370W        W  906   6.224   6.748   0.416
41371W        W  907  21.139  16.242   0.328
41372W        W  908   9.752  17.216   2.790
41373W        W  909  16.292   2.466   2.726
41374W        W  910  16.161  28.577  11.929
41375W        W  911  39.046  20.645   2.799
41376W        W  912  10.705  10.661  14.810
41377W        W  913  40.807  39.905  11.106
41378W        W  914  44.431  40.835  14.979
41379W        W  915   1.864   4.772   4.245
41380W        W  916  23.522  41.350   3.202
41381W        W  917  21.634  13.328   4.636
41382W        W  918  40.944  13.756   5.575
41383W        W  919  24.013  36.944  11.965
41384W        W  920  16.094  29.004   0.299
41385W        W  921   4.774   5.289   4.832
41386W        W  922  14.699  36.852  11.428
41387W        W  923  19.656  11.648   1.912
41388W        W  924  37.502   0.464  13.937
41389W        W  925   4.412  14.269   0.334
41390W        W  926  39.538  31.134  13.357
41391W        W  927   3.326  19.610  11.475
41392W        W  928  41.030   4.361   4.737
41393W        W  929  28.945  37.052  14.940
41394W        W  930   2.465  44.891  14.395
41395W        W  931   1.922  19.552   2.816
41396W        W  932  39.417  33.885  12.372
41397W        W  933  15.633  20.757  14.003
41398W        W  934  33.013  44.766  14.441
41399W        W  935   1.252   3.259   2.869
41400W        W  936  35.940  22.224  10.624
41401W        W  937   0.487  27.112  13.441
41402W        W  938  32.438  16.771  14.431
41403W        W  939  40.941  19.664   2.358
41404W        W  940  44.259  31.104   2.662
41405W        W  941  12.228   9.707   2.891
41406W        W  942  40.851  27.198  13.024
41407W        W  943  26.162   9.385   3.745
41408W        W  944  41.338   9.324  12.903
41409W        W  945  19.065  22.066  12.550
41410W        W  946   8.357  37.519  14.461
41411W        W  947  33.066  28.181   1.409
41412W        W  948  38.957  44.310  14.456
41413W        W  949  12.742  43.481   3.759
41414W        W  950   7.748  22.133  14.509
41415W        W  951  37.457  15.805  11.968
41416W        W  952  19.733   7.842  10.444
41417W        W  953  27.623  12.738   2.706
41418W        W  954  23.091  39.817   1.775
41419W        W  955   9.168  32.632   0.369
41420W        W  956  39.837  20.203   4.677
41421W        W  957   4.774  39.954  14.811
41422W        W  958  18.573  40.890  12.935
41423W        W  959   7.298  15.162  14.778
41424W        W  960   8.734  18.166   0.745
41425W        W  961  24.721  21.211  13.498
41426W        W  962  37.018  32.007   2.275
41427W        W  963  23.513  35.105   5.186
41428W        W  964  21.235  14.824  14.361
41429W        W  965  36.024  10.785  10.961
41430W        W  966  27.646  14.763   4.341
41431W        W  967  44.374  29.963   2.828
41432W        W  968  44.939   7.847   4.680
41433W        W  969   9.879  38.025   2.334
41434W        W  970  29.121   8.250   2.285
41435W        W  971  31.919   6.780   3.341
41436W        W  972  43.912  22.076  12.388
41437W        W  973   2.770  44.877  12.418
41438W        W  974  27.098  27.459  12.841
41439W        W  975  23.608  22.678   4.284
41440W        W  976  27.022  24.161   0.740
41441W        W  977   4.307   0.884   3.381
41442W        W  978   0.955  31.452   3.700
41443W        W  979  41.502  28.120  11.908
41444W        W  980  27.589  17.727  11.997
41445W        W  981  29.548  37.553  11.029
41446W        W  982  14.744  22.551   2.305
41447W        W  983  11.269   2.883   2.773
41448W        W  984  10.705  24.037   2.832
41449W        W  985  36.953  11.810  11.033
41450W        W  986  39.406  20.705  14.420
41451W        W  987  27.189  33.534   0.432
41452W        W  988  26.184  38.396  13.525
41453W        W  989  17.257  11.353  12.081
41454W        W  990  13.301  11.370   1.295
41455W        W  991   7.233   1.402   4.708
41456W        W  992  14.180  20.713   4.324
41457W        W  993  15.139   0.258  11.427
41458W        W  994   5.913  18.647  13.884
41459W        W  995   1.937  16.804   2.244
41460W        W  996   9.792  41.508  14.015
41461W        W  997  24.167  26.486   3.862
41462W        W  998  33.007   7.720  10.615
41463W        W  999  14.301  15.145   3.180
41464W        W 1000  36.554  38.569   0.483
41465W        W 1001   6.237  44.960   2.851
41466W        W 1002  42.360  27.560  14.002
41467W        W 1003  26.702   9.717  14.371
41468W        W 1004  34.998  18.094  14.280
41469W        W 1005  12.747  23.183  14.383
41470W        W 1006  16.567  21.632   1.704
41471W        W 1007  16.229  39.453  14.865
41472W        W 1008  41.927  23.548  13.943
41473W        W 1009  32.913  25.656   0.289
41474W        W 1010  29.945  21.552  10.553
41475W        W 1011  21.634  25.694  13.959
41476W        W 1012  27.610  30.593   2.238
41477W        W 1013  15.189  35.085  12.391
41478W        W 1014  39.340   8.813   0.292
41479W        W 1015  36.373  24.604  14.860
41480W        W 1016  35.876  36.463  13.847
41481W        W 1017  44.474  16.757  14.979
41482W        W 1018  41.473  23.541   4.621
41483W        W 1019  33.489  40.373  13.853
41484W        W 1020  32.451  39.950  10.628
41485W        W 1021  35.552  23.697  13.985
41486W        W 1022  43.502   1.441  14.942
41487W        W 1023  12.183  32.424   0.951
41488W        W 1024  14.665   8.258   3.275
41489W        W 1025   9.790  28.485   1.871
41490W        W 1026  29.060   3.272   0.800
41491W        W 1027  44.957  41.887  12.839
41492W        W 1028   3.332  31.094  13.437
41493W        W 1029  38.327  19.683   3.642
41494W        W 1030  29.994   9.693   4.801
41495W        W 1031  26.515   5.360   4.688
41496W        W 1032  39.881  33.590   4.214
41497W        W 1033  35.448  31.588   0.301
41498W        W 1034  41.323  34.880   4.823
41499W        W 1035  38.958  12.221   0.927
41500W        W 1036  16.663  38.064   4.171
41501W        W 1037  10.143   7.729  11.129
41502W        W 1038   3.372  40.838  11.375
41503W        W 1039  39.526  26.957   3.160
41504W        W 1040   3.852  18.169   3.360
41505W        W 1041  13.250  17.235   0.263
41506W        W 1042  27.587   2.758  14.845
41507W        W 1043  44.448   4.820  12.573
41508W        W 1044  13.133   4.210   2.684
41509W        W 1045  18.591   4.866   1.331
41510W        W 1046  16.215  28.120  11.531
41511W        W 1047  34.443   4.917   2.340
41512W        W 1048  28.569  20.643   0.410
41513W        W 1049  29.955  41.820   1.785
41514W        W 1050  28.162  20.262   4.684
41515W        W 1051  27.684  42.783  11.989
41516W        W 1052  11.797  17.558   2.395
41517W        W 1053  31.031  24.501  13.534
41518W        W 1054  19.675  31.642   3.300
41519W        W 1055  22.606  37.987   2.205
41520W        W 1056  39.353  18.279  12.494
41521W        W 1057  17.231  28.057   1.771
41522W        W 1058  18.274   7.326   2.322
41523W        W 1059  13.796  38.351  13.484
41524W        W 1060  38.830   2.823   2.348
41525W        W 1061  21.096  25.490   0.287
41526W        W 1062  14.651  28.459   3.665
41527W        W 1063  15.594  41.003   0.742
41528W        W 1064  34.053  22.250   0.267
41529W        W 1065   4.280   5.715   0.327
41530W        W 1066   3.413  38.443   1.418
41531W        W 1067  26.546  30.563   4.217
41532W        W 1068   5.851   3.884  11.046
41533W        W 1069  22.127   9.330  14.466
41534W        W 1070  17.690  36.934   3.858
41535W        W 1071   9.243   1.953  10.061
41536W        W 1072  28.983   2.323   2.383
41537W        W 1073  29.089  25.196   2.382
41538W        W 1074  12.116  28.519  13.530
41539W        W 1075  21.757  35.444   0.826
41540W        W 1076  33.452  44.407  12.361
41541W        W 1077  20.629  22.064   1.232
41542W        W 1078  37.995   6.407   4.166
41543W        W 1079  21.518  15.672  12.548
41544W        W 1080   2.854  43.452  11.122
41545W        W 1081  19.223   1.415  11.118
41546W        W 1082  35.072  17.713   1.914
41547W        W 1083  22.167  33.108  14.969
41548W        W 1084  12.652  19.746   2.789
41549W        W 1085  20.226  37.002   4.353
41550W        W 1086  37.860   4.251   1.424
41551W        W 1087  21.135  44.880  13.311
41552W        W 1088  29.644  41.491   0.777
41553W        W 1089   9.804  25.646   2.727
41554W        W 1090  15.728  34.906   2.783
41555W        W 1091  34.540  39.502  14.511
41556W        W 1092  16.660  10.300  12.369
41557W        W 1093  31.565  15.305  12.869
41558W        W 1094  18.683  43.337   4.124
41559W        W 1095  43.837  18.256  10.473
41560W        W 1096  44.292   0.453   1.820
41561W        W 1097  14.721  14.680   0.907
41562W        W 1098  15.154  44.804   4.825
41563W        W 1099  31.963  27.582   3.342
41564W        W 1100  43.957  33.037  10.475
41565W        W 1101  15.122   8.375   0.467
41566W        W 1102   5.387   0.958  13.973
41567W        W 1103  18.676   5.716  11.974
41568W        W 1104   7.393  35.889   0.314
41569W        W 1105  15.579   1.456   3.292
41570W        W 1106  43.476   1.858  12.580
41571W        W 1107   8.168  13.603  13.940
41572W        W 1108   7.785  37.936  13.364
41573W        W 1109  33.430  43.323   0.865
41574W        W 1110  25.632   3.926  12.367
41575W        W 1111  22.555  39.396  12.026
41576W        W 1112   9.166   4.249   2.304
41577W        W 1113   7.758  10.643   1.380
41578W        W 1114   3.852   4.434   0.252
41579W        W 1115  21.652   2.424  14.418
41580W        W 1116  18.156   8.824  12.029
41581W        W 1117  28.946  42.807  13.913
41582W        W 1118   7.738  22.014  11.094
41583W        W 1119  27.686   0.484   1.716
41584W        W 1120  34.495  18.060   2.712
41585W        W 1121  31.960  16.152  11.921
41586W        W 1122  33.903  15.617  14.829
41587W        W 1123  33.952  12.792   0.333
41588W        W 1124  31.037  36.582   3.252
41589W        W 1125  24.685   1.887  10.408
41590W        W 1126  44.266  33.509  11.604
41591W        W 1127  26.531  17.782  14.428
41592W        W 1128   6.183  29.006  14.016
41593W        W 1129  19.135   3.913   1.446
41594W        W 1130  38.991  23.064   1.335
41595W        W 1131  38.387  31.994  14.784
41596W        W 1132  37.525  13.808   3.212
41597W        W 1133  20.693  26.616  12.414
41598W        W 1134  29.082  25.633  11.518
41599W        W 1135  28.442  28.959   3.678
41600W        W 1136   7.414  27.078  13.877
41601W        W 1137   6.876  11.728   3.280
41602W        W 1138  35.425  41.965  12.555
41603W        W 1139   9.299  21.578   4.325
41604W        W 1140  24.541  15.296  11.070
41605W        W 1141  20.238  21.198  11.587
41606W        W 1142  37.057  17.272   0.822
41607W        W 1143  18.084  10.727  14.906
41608W        W 1144  12.214  33.945   1.817
41609W        W 1145   6.897  39.809  10.589
41610W        W 1146  23.035  15.823   0.765
41611W        W 1147  34.552   4.803  14.911
41612W        W 1148  31.542   5.765   2.845
41613W        W 1149  16.084  16.602   4.133
41614W        W 1150  15.285  32.061  14.293
41615W        W 1151  19.634  40.341  11.049
41616W        W 1152  30.494  32.938   4.154
41617W        W 1153   0.305  40.372  14.852
41618W        W 1154   8.187  29.075   1.280
41619W        W 1155  27.640  18.241   3.869
41620W        W 1156  38.424  22.719   0.384
41621W        W 1157   1.367  23.646  10.432
41622W        W 1158  28.658   2.963   3.186
41623W        W 1159  37.062  12.144  13.441
41624W        W 1160  10.141   6.403  13.964
41625W        W 1161   1.955  33.119  14.279
41626W        W 1162  12.195  34.066  12.999
41627W        W 1163  14.768  31.136  14.786
41628W        W 1164  19.676  16.585   0.349
41629W        W 1165  41.003  14.824  10.481
41630W        W 1166  41.020  36.415   0.334
41631W        W 1167   2.315  31.949   5.189
41632W        W 1168  21.190  10.764   0.878
41633W        W 1169  37.944  33.572   4.190
41634W        W 1170  28.094  20.714   0.938
41635W        W 1171   7.313  30.153   0.343
41636W        W 1172   2.838   2.279   0.851
41637W        W 1173  42.354  19.228   1.852
41638W        W 1174  10.829   7.884  13.811
41639W        W 1175   6.377  43.403   0.866
41640W        W 1176   8.678   7.691  10.440
41641W        W 1177   4.330  28.929  11.885
41642W        W 1178  30.921   6.687   1.872
41643W        W 1179  36.972   8.783   4.624
41644W        W 1180  30.492  42.289   3.218
41645W        W 1181  18.614   3.280   4.148
41646W        W 1182  42.864  21.646  14.438
41647W        W 1183  28.458   3.941  11.105
41648W        W 1184   7.721  26.460  12.867
41649W        W 1185  43.902  32.397  11.030
41650W        W 1186  15.784  35.984  13.833
41651W        W 1187  32.903  23.045   3.828
41652W        W 1188  10.147  12.147   0.430
41653W        W 1189  12.640  37.027   4.782
41654W        W 1190  31.643  40.431  13.918
41655W        W 1191  41.974  37.530   0.356
41656W        W 1192   2.380  41.427   2.261
41657W        W 1193  14.228  15.137   2.819
41658W        W 1194  37.998  27.168   0.334
41659W        W 1195  11.226   6.848  11.606
41660W        W 1196  14.651  10.662  10.961
41661W        W 1197  28.549   4.303  12.920
41662W        W 1198  27.553  10.336  14.847
41663W        W 1199  20.611  34.469  11.023
41664W        W 1200  26.485  17.576  11.900
41665W        W 1201  40.387  31.136  14.024
41666W        W 1202  29.146  38.022  13.846
41667W        W 1203  10.791  11.626   1.798
41668W        W 1204  17.604  13.148   4.661
41669W        W 1205  14.215  21.724  14.804
41670W        W 1206  25.577  35.538  10.032
41671W        W 1207  43.469   3.446   2.781
41672W        W 1208  39.062  43.306   1.420
41673W        W 1209  42.995  31.040  13.369
41674W        W 1210  44.401  33.035  10.479
41675W        W 1211  34.611  14.724   3.714
41676W        W 1212  12.815  19.545  13.342
41677W        W 1213  12.746  25.979  14.855
41678W        W 1214  33.952   6.910   4.293
41679W        W 1215  23.192  42.412   1.865
41680W        W 1216  16.171   1.758  10.996
41681W        W 1217  12.635  28.636   3.365
41682W        W 1218  20.530  27.683  10.455
41683W        W 1219   4.438   0.462   1.214
41684W        W 1220  43.435  39.343   0.908
41685W        W 1221  25.136  37.974   1.283
41686W        W 1222   9.166   8.235  11.123
41687W        W 1223  38.053  37.047   0.925
41688W        W 1224  26.554   2.734  11.604
41689W        W 1225  31.040  22.684   0.298
41690W        W 1226  23.024  35.512   0.866
41691W        W 1227  18.164  34.457   2.683
41692W        W 1228  42.967  10.636   2.311
41693W        W 1229  24.040  29.942   2.334
41694W        W 1230  24.228  30.460   0.778
41695W        W 1231  43.014  16.612   1.842
41696W        W 1232  28.485  33.488  14.367
41697W        W 1233  42.517   9.373  12.444
41698W        W 1234  28.952  11.367   2.346
41699W        W 1235  12.790  11.280  13.386
41700W        W 1236  19.711   2.776  11.023
41701W        W 1237  40.837  43.314   2.358
41702W        W 1238  34.066   6.371   2.855
41703W        W 1239   2.302  16.606   9.963
41704W        W 1240  10.212  23.718   2.792
41705W        W 1241  28.646  38.060  14.029
41706W        W 1242  11.625  22.168   0.285
41707W        W 1243  41.507   1.305   4.224
41708W        W 1244  14.155  34.958   2.738
41709W        W 1245  39.916  18.666  13.473
41710W        W 1246  27.565   1.826  13.466
41711W        W 1247  26.082  43.396  13.324
41712W        W 1248  35.494  12.319   0.365
41713W        W 1249   2.932   8.716   1.738
41714W        W 1250  42.525   7.775   3.823
41715W        W 1251  15.671  32.123   4.199
41716W        W 1252   9.266  26.123  13.993
41717W        W 1253  21.057  16.135  14.879
41718W        W 1254  32.015  35.425   3.342
41719W        W 1255   5.291   6.325  12.957
41720W        W 1256   1.294  37.568   0.335
41721W        W 1257  42.521  16.152   0.801
41722W        W 1258  21.181  17.304  12.950
41723W        W 1259   4.300  19.147   3.708
41724W        W 1260  16.077  12.782   2.673
41725W        W 1261  35.065  42.018  11.948
41726W        W 1262  27.482  33.461   4.667
41727W        W 1263   2.725  36.056   4.201
41728W        W 1264  10.295   3.277  13.877
41729W        W 1265  12.218  16.260  12.091
41730W        W 1266  12.129  12.664   4.777
41731W        W 1267  36.896  11.829  12.909
41732W        W 1268  32.479  26.174  13.383
41733W        W 1269  38.044  36.553  11.868
41734W        W 1270  37.374  31.038  10.424
41735W        W 1271  21.184  11.822  10.627
41736W        W 1272  32.442  11.222   4.628
41737W        W 1273  35.598  30.635   3.196
41738W        W 1274  38.035  12.829  11.081
41739W        W 1275  39.498  26.159  14.299
41740W        W 1276  14.754  10.806   2.392
41741W        W 1277  14.220   2.248   0.769
41742W        W 1278  39.964  34.498   4.676
41743W        W 1279   4.886   6.371   2.860
41744W        W 1280  44.433  44.478   0.748
41745W        W 1281   4.284  14.761  11.397
41746W        W 1282  36.864  43.900   3.197
41747W        W 1283  43.889  18.557  11.879
41748W        W 1284  20.700  14.655  12.402
41749W        W 1285  17.774  38.885  11.969
41750W        W 1286  10.699  22.730   3.668
41751W        W 1287  14.660  44.462  10.420
41752W        W 1288  29.587  39.523   0.742
41753W        W 1289   1.447  15.253   1.294
41754W        W 1290   6.787  14.817  14.896
41755W        W 1291  25.674   5.730   3.351
41756W        W 1292  40.438  41.881  14.008
41757W        W 1293  23.697  37.382   0.459
41758W        W 1294  31.456   8.830   4.251
41759W        W 1295  20.033  29.112  11.545
41760W        W 1296  37.877  18.743  10.508
41761W        W 1297  35.074  26.107  11.411
41762W        W 1298  13.804  17.577  13.488
41763W        W 1299  41.403  26.138   1.813
41764W        W 1300  32.974  35.958  13.492
41765W        W 1301  30.153  13.691   3.253
41766W        W 1302  11.752  21.516   3.734
41767W        W 1303  43.477  29.579   4.306
41768W        W 1304  12.624  26.092   2.208
41769W        W 1305  20.229  26.143  14.276
41770W        W 1306  33.461  38.401   3.721
41771W        W 1307  19.672  12.694  12.392
41772W        W 1308   8.718  44.846  10.433
41773W        W 1309  32.898   5.245   0.732
41774W        W 1310  21.709  10.826  11.600
41775W        W 1311   0.762  43.322   3.248
41776W        W 1312   3.223  11.145   0.259
41777W        W 1313  16.260  40.457   0.805
41778W        W 1314  21.673  42.406  14.021
41779W        W 1315  24.008  44.421   2.402
41780W        W 1316   9.151   4.857  10.579
41781W        W 1317   1.447  24.617  13.982
41782W        W 1318  35.924   1.385  11.868
41783W        W 1319  31.016  22.178   4.799
41784W        W 1320  22.081   1.777  11.088
41785W        W 1321   7.679   7.213   4.599
41786W        W 1322  17.687  30.545   4.757
41787W        W 1323  35.374  36.497  12.825
41788W        W 1324  16.644   8.172   4.739
41789W        W 1325  28.540  27.183   1.257
41790W        W 1326  20.037  36.359   3.149
41791W        W 1327  14.241  36.459   1.359
41792W        W 1328   8.178  38.947   4.304
41793W        W 1329   0.364  25.025   2.219
41794W        W 1330  33.587  25.044   0.890
41795W        W 1331   5.298  20.212   2.700
41796W        W 1332   6.817   2.911  12.455
41797W        W 1333  43.433  22.999  11.467
41798W        W 1334   8.396  12.146  14.349
41799W        W 1335  18.748  12.766   2.207
41800W        W 1336  44.891  11.650   0.731
41801W        W 1337  18.069   0.777   4.223
41802W        W 1338  30.907  28.662  14.822
41803W        W 1339  32.596  41.316  13.342
41804W        W 1340  36.370  25.089   4.755
41805W        W 1341  30.494   2.435   0.784
41806W        W 1342  43.306  30.508   0.787
41807W        W 1343  40.528   9.196   0.325
41808W        W 1344  29.539  13.254   1.871
41809W        W 1345  28.019  29.161   2.300
41810W        W 1346  22.124  44.298  13.888
41811W        W 1347  35.589  30.454   0.911
41812W        W 1348  20.190   0.809   2.198
41813W        W 1349  34.121  15.207  10.967
41814W        W 1350   5.247  29.067   1.723
41815W        W 1351  24.565  44.839   4.261
41816W        W 1352   6.918  13.673  10.525
41817W        W 1353  10.800   0.966  10.457
41818W        W 1354  37.938   2.439  13.379
41819W        W 1355  22.724  14.304   3.246
41820W        W 1356  24.992  43.943   2.787
41821W        W 1357  14.114  34.409  12.845
41822W        W 1358   1.377  10.299  14.275
41823W        W 1359  34.935  27.481  14.987
41824W        W 1360   3.812  27.650   3.844
41825W        W 1361  34.489  23.116   1.260
41826W        W 1362   9.345  36.477  12.449
41827W        W 1363  28.159  38.566   3.229
41828W        W 1364   9.795   5.384  13.012
41829W        W 1365   5.226  41.925  10.414
41830W        W 1366  16.597  44.992  12.880
41831W        W 1367  31.908  11.245   1.846
41832W        W 1368  19.127  44.273   0.269
41833W        W 1369  32.484  15.811   3.630
41834W        W 1370  17.098  23.735  11.910
41835W        W 1371  41.855  35.077   0.299
41836W        W 1372   7.864   3.811  14.443
41837W        W 1373  19.042  39.419   3.260
41838W        W 1374  14.801  38.892  11.967
41839W        W 1375  18.082  24.093  14.481
41840W        W 1376  24.630   3.941   3.228
41841W        W 1377  18.265  44.973  12.056
41842W        W 1378   3.728  18.724  13.529
41843W        W 1379   4.858   4.385  12.031
41844W        W 1380  29.146  30.149   4.667
41845W        W 1381  38.422  21.615  14.976
41846W        W 1382   4.766   6.715  14.959
41847W        W 1383   6.217   0.301  14.418
41848W        W 1384  36.876  37.538  14.813
41849W        W 1385  43.398  14.826  12.572
41850W        W 1386   5.723   9.688  14.845
41851W        W 1387   4.253  44.272   0.886
41852W        W 1388  22.601  40.412  13.543
41853W        W 1389  27.568  37.559  13.057
41854W        W 1390  14.187  21.750   0.287
41855W        W 1391  28.042  33.556   0.415
41856W        W 1392   4.823   8.189  13.797
41857W        W 1393  40.844  25.511   3.849
41858W        W 1394  29.972  34.383   2.715
41859W        W 1395  32.943   0.779  12.465
41860W        W 1396   3.861  10.787   1.314
41861W        W 1397  39.544   1.393  11.999
41862W        W 1398  24.642  24.216   3.824
41863W        W 1399  25.550  34.015   1.824
41864W        W 1400  28.457   6.738   4.118
41865W        W 1401  13.754  14.729   3.646
41866W        W 1402   2.860  28.940  12.506
41867W        W 1403   1.440  12.230  10.045
41868W        W 1404  35.858  41.466   2.251
41869W        W 1405  23.004   3.439   2.344
41870W        W 1406  17.650  43.451   1.388
41871W        W 1407  18.288  34.918   0.890
41872W        W 1408  42.464  40.531   1.930
41873W        W 1409  44.410  33.921  14.338
41874W        W 1410  36.984  44.846   9.530
41875W        W 1411  13.259  27.048  13.337
41876W        W 1412  43.477  37.528   4.812
41877W        W 1413   1.843   7.814   3.284
41878W        W 1414  14.770  30.018   3.204
41879W        W 1415  17.740  10.362  14.290
41880W        W 1416  44.325  36.436  12.427
41881W        W 1417   8.664  25.208   9.501
41882W        W 1418   1.471  24.996  12.039
41883W        W 1419  42.471  38.895  11.498
41884W        W 1420  28.161  36.022   2.678
41885W        W 1421   6.215   3.790  14.893
41886W        W 1422  18.605   7.740  14.857
41887W        W 1423   8.406  25.503   1.882
41888W        W 1424  27.449   2.290   2.758
41889W        W 1425   3.793  15.172  14.820
41890W        W 1426  35.887  16.582   0.883
41891W        W 1427  26.968   5.717  12.536
41892W        W 1428   3.718  44.501   3.326
41893W        W 1429  16.616  32.956   2.182
41894W        W 1430   4.215  17.594  13.906
41895W        W 1431  28.534  43.806  14.899
41896W        W 1432  35.467  33.946  12.040
41897W        W 1433  16.129  37.003   1.221
41898W        W 1434  37.565  29.465   3.655
41899W        W 1435   3.413   1.756   2.730
41900W        W 1436   4.803  35.460   1.240
41901W        W 1437  12.648   2.847   0.294
41902W        W 1438  38.982  30.483   4.666
41903W        W 1439  33.477  12.624   0.427
41904W        W 1440  16.616  21.627   1.257
41905W        W 1441   4.237  38.912   1.758
41906W        W 1442  10.736   2.948  12.565
41907W        W 1443  10.830   3.342  14.867
41908W        W 1444  14.802   3.301   5.210
41909W        W 1445   2.264  24.502  11.568
41910W        W 1446  24.502  30.442   0.941
41911W        W 1447  20.646   6.866   3.802
41912W        W 1448  39.875  34.028  12.341
41913W        W 1449  39.977  40.968  14.024
41914W        W 1450  36.873  20.549  14.775
41915W        W 1451  11.703   6.297  12.339
41916W        W 1452  40.532  14.134   4.149
41917W        W 1453  26.021  34.971  11.410
41918W        W 1454  15.304  38.356  14.021
41919W        W 1455  31.899  13.341   4.164
41920W        W 1456   8.275   6.920  13.407
41921W        W 1457   6.390  20.094   4.208
41922W        W 1458  14.821   0.749  10.094
41923W        W 1459  13.154   1.800   3.654
41924W        W 1460  29.558   1.347  12.370
41925W        W 1461  33.455  22.548  12.992
41926W        W 1462   5.235   3.395   2.367
41927W        W 1463  29.479  12.164  12.528
41928W        W 1464   6.676  10.752   2.755
41929W        W 1465  28.938  22.227   2.251
41930W        W 1466  19.218   6.746  12.908
41931W        W 1467  20.149  30.464  12.972
41932W        W 1468  36.869   3.899   0.880
41933W        W 1469  19.697  29.918   1.378
41934W        W 1470   2.324   8.677   2.266
41935W        W 1471  34.517  23.513  14.900
41936W        W 1472  10.704   4.290   2.297
41937W        W 1473  23.490  32.481  14.994
41938W        W 1474  38.480  29.020  13.868
41939W        W 1475   9.819  21.021   4.243
41940W        W 1476  14.327  19.661   5.305
41941W        W 1477  13.633   8.780   1.741
41942W        W 1478  44.432  34.959   0.766
41943W        W 1479  22.134   7.787  11.934
41944W        W 1480  44.403   2.778  13.051
41945W        W 1481  32.005  23.664   3.670
41946W        W 1482  34.381  35.936   0.899
41947W        W 1483   4.348   6.802   4.837
41948W        W 1484  16.262  26.630   3.688
41949W        W 1485   9.154  24.991  14.911
41950W        W 1486  35.531   6.720   3.292
41951W        W 1487  44.810   0.823  12.852
41952W        W 1488  32.034  11.269  13.485
41953W        W 1489  30.445   8.690   4.337
41954W        W 1490  41.296   8.892   4.677
41955W        W 1491  39.530  18.761   0.863
41956W        W 1492   4.844  13.177   2.890
41957W        W 1493   6.314  13.319   1.449
41958W        W 1494  12.622  43.976   1.776
41959W        W 1495  19.637  23.722   0.751
41960W        W 1496  22.736  44.478  13.494
41961W        W 1497  16.269  35.930   2.841
41962W        W 1498   8.218  42.954  12.092
41963W        W 1499  39.318  34.483  14.904
41964W        W 1500  39.390   9.253   2.788
41965W        W 1501  11.813  43.429   1.239
41966W        W 1502   8.405  17.280   2.820
41967W        W 1503  13.666  39.402  14.764
41968W        W 1504  12.815  20.719  14.775
41969W        W 1505  13.795  18.560   0.878
41970W        W 1506  27.523   9.747  14.826
41971W        W 1507  19.246   1.850   1.832
41972W        W 1508   1.933  32.045  10.953
41973W        W 1509   7.219  13.786   0.882
41974W        W 1510  24.559  30.501  12.071
41975W        W 1511  44.295  40.542  11.393
41976W        W 1512  41.896  17.267   2.811
41977W        W 1513   0.809  29.490   3.369
41978W        W 1514   0.749  30.132   2.411
41979W        W 1515  29.130  14.195  11.017
41980W        W 1516  34.486  34.543   0.881
41981W        W 1517  31.566  17.163   1.431
41982W        W 1518  24.188  30.119   2.792
41983W        W 1519  20.217  35.511   2.767
41984W        W 1520  17.224   6.839  12.378
41985W        W 1521   4.428  41.950   1.353
41986W        W 1522  33.510  15.127  12.349
41987W        W 1523   4.242   4.915   4.806
41988W        W 1524  19.542  12.127   4.235
41989W        W 1525  35.077   0.875  12.018
41990W        W 1526  26.100  10.248   1.715
41991W        W 1527  41.492  39.368   0.808
41992W        W 1528   3.458  11.291   4.745
41993W        W 1529  25.188  12.637   2.239
41994W        W 1530  36.061  26.089  10.481
41995W        W 1531  11.161  22.514  11.101
41996W        W 1532  17.089  40.428  10.890
41997W        W 1533  15.628   5.836   1.827
41998W        W 1534  42.284  13.185  14.764
41999W        W 1535   7.235   3.881   0.909
42000W        W 1536  23.586   5.277  13.445
42001W        W 1537  26.081  10.308  12.908
42002W        W 1538  29.588  23.630  14.328
42003W        W 1539   1.380  38.369   4.148
42004W        W 1540  28.587  31.071   1.920
42005W        W 1541   2.243   4.798  13.404
42006W        W 1542  20.738  21.757   2.369
42007W        W 1543  37.949  13.707   3.775
42008W        W 1544   4.258  23.548  11.575
42009W        W 1545  36.482   5.356   4.349
42010W        W 1546  33.419   9.711  13.377
42011W        W 1547  31.557  35.505  11.939
42012W        W 1548  38.506  15.256  11.080
42013W        W 1549   6.822  26.126   4.640
42014W        W 1550  25.583  31.514  10.545
42015W        W 1551  30.563  31.461  11.882
42016W        W 1552  38.965  40.474   0.760
42017W        W 1553   7.892  21.188   0.935
42018W        W 1554  35.601  11.153   2.197
42019W        W 1555  37.015   8.659  12.860
42020W        W 1556  10.685  37.866  12.830
42021W        W 1557  39.519   3.365  12.455
42022W        W 1558  13.128  19.613  10.907
42023W        W 1559   4.893  31.919  14.910
42024W        W 1560  21.208  16.754  14.993
42025W        W 1561   0.931  34.505  11.491
42026W        W 1562  10.213  41.936   5.191
42027W        W 1563  15.656  31.574  14.900
42028W        W 1564  39.879  37.072  11.486
42029W        W 1565  23.695  15.794  15.000
42030W        W 1566  29.168   4.803   0.818
42031W        W 1567  28.648  20.033   3.327
42032W        W 1568  36.047  40.477  11.439
42033W        W 1569  28.963  40.881  14.970
42034W        W 1570  43.896  20.661   0.468
42035W        W 1571   0.988  14.601   0.389
42036W        W 1572  29.637  32.512   1.764
42037W        W 1573  43.473  18.668   0.337
42038W        W 1574   3.778  38.350   0.318
42039W        W 1575   2.309  11.327  14.922
42040W        W 1576   1.312  24.580   3.262
42041W        W 1577  31.597  11.831   1.855
42042W        W 1578   9.665  23.210   9.653
42043W        W 1579   4.928   1.323   1.448
42044W        W 1580  24.987   7.760   4.179
42045W        W 1581  41.947   4.448   1.785
42046W        W 1582  20.565  25.164   1.825
42047W        W 1583  17.214  20.708   1.867
42048W        W 1584  10.781  18.783  12.833
42049W        W 1585  28.024   6.728   3.716
42050W        W 1586   2.389  13.727  11.511
42051W        W 1587   1.899   5.700   3.288
42052W        W 1588   0.445  44.471  13.938
42053W        W 1589  32.997  29.515  13.313
42054W        W 1590  36.990   6.818   2.670
42055W        W 1591  24.160  37.922   1.859
42056W        W 1592   9.243  33.041  13.851
42057W        W 1593   8.681  42.519  11.916
42058W        W 1594  21.087   8.364  11.896
42059W        W 1595  39.395  43.016   5.289
42060W        W 1596  28.510  19.279  12.029
42061W        W 1597  35.452   8.672  12.008
42062W        W 1598  11.742  26.150   9.622
42063W        W 1599  21.702  40.928   1.865
42064W        W 1600  13.296  19.088  12.363
42065W        W 1601   8.218   8.205  10.918
42066W        W 1602  37.402  24.042   0.846
42067W        W 1603  38.471   6.857  14.851
42068W        W 1604  14.823  39.436   2.399
42069W        W 1605  19.598   4.924  13.431
42070W        W 1606  16.294  37.546  12.410
42071W        W 1607   7.902   2.964   1.860
42072W        W 1608   7.198  22.207   1.329
42073W        W 1609  19.598  23.542  11.549
42074W        W 1610  27.169  19.655  10.504
42075W        W 1611  29.494  27.158   0.904
42076W        W 1612  38.882  14.664  14.463
42077W        W 1613  16.105  21.685   3.270
42078W        W 1614   2.373  11.341  12.534
42079W        W 1615   7.317   5.279   0.285
42080W        W 1616  44.305  30.653  13.054
42081W        W 1617   1.431  37.949   1.402
42082W        W 1618  17.764   5.384  12.862
42083W        W 1619  40.545  31.411   0.292
42084W        W 1620   5.420  23.067  11.381
42085W        W 1621   8.167   0.844  12.881
42086W        W 1622  27.658   5.210   0.346
42087W        W 1623  26.966  37.416  11.886
42088W        W 1624   9.693  10.145   4.163
42089W        W 1625  18.172  12.702  12.494
42090W        W 1626  10.315   3.448   1.756
42091W        W 1627  18.699  34.879  10.511
42092W        W 1628   6.774  28.152   4.693
42093W        W 1629  29.583  15.086   1.437
42094W        W 1630  24.570  11.321  13.344
42095W        W 1631  18.192   0.947  11.404
42096W        W 1632  12.638  36.961  14.373
42097W        W 1633  24.186  33.532   4.330
42098W        W 1634  42.316  42.983   4.662
42099W        W 1635  37.963  28.002   0.883
42100W        W 1636   2.800   8.229  14.975
42101W        W 1637  37.421   2.429   5.730
42102W        W 1638  21.591  14.796  11.095
42103W        W 1639  27.499   4.360  11.511
42104W        W 1640  14.142  30.077   4.330
42105W        W 1641  15.229  27.945  14.295
42106W        W 1642   5.297  14.746   0.425
42107W        W 1643  26.588  22.233   3.807
42108W        W 1644  44.791   4.706   1.880
42109W        W 1645  42.992   0.947   0.393
42110W        W 1646  43.348  18.571   1.353
42111W        W 1647  21.080  29.582  14.951
42112W        W 1648  18.267  35.033  14.824
42113W        W 1649  36.453   8.833  11.889
42114W        W 1650  36.558  22.172  11.894
42115W        W 1651  33.480  35.555  12.045
42116W        W 1652  36.939  31.551   4.160
42117W        W 1653  38.839  42.455  12.389
42118W        W 1654  10.766   9.687  13.813
42119W        W 1655  23.570  38.366  11.514
42120W        W 1656  25.476  40.854  14.386
42121W        W 1657  10.255  14.818  13.049
42122W        W 1658  43.313  17.214   0.823
42123W        W 1659  12.322  18.199  11.079
42124W        W 1660  37.545  44.422   2.829
42125W        W 1661  23.198  15.794   3.791
42126W        W 1662   7.787  29.046  12.047
42127W        W 1663  34.411   8.385  13.984
42128W        W 1664  30.071  29.561   2.777
42129W        W 1665  23.569  29.929   0.405
42130W        W 1666  14.309   7.189  11.465
42131W        W 1667  28.105  24.000  12.917
42132W        W 1668  39.544  12.224  11.525
42133W        W 1669  28.524  34.120  13.525
42134W        W 1670   7.375   1.379  13.853
42135W        W 1671   4.749  33.962   4.282
42136W        W 1672   2.248   5.805  11.420
42137W        W 1673  22.085  20.600  10.951
42138W        W 1674  34.470  33.977  10.630
42139W        W 1675  10.815   1.802   0.418
42140W        W 1676  15.269   9.655  10.422
42141W        W 1677   5.361  41.019  13.930
42142W        W 1678  19.164   1.808   1.451
42143W        W 1679  19.248   3.236  12.535
42144W        W 1680  32.127   8.219   4.620
42145W        W 1681  10.366  19.662  13.396
42146W        W 1682   1.892  25.568  13.369
42147W        W 1683   6.391  34.601   3.181
42148W        W 1684  24.565  43.992   4.265
42149W        W 1685  28.179  22.075   3.644
42150W        W 1686  37.567  33.557   3.676
42151W        W 1687  17.801  37.879  10.938
42152W        W 1688  31.963  22.140  13.802
42153W        W 1689  24.714   4.730  11.862
42154W        W 1690   1.419  30.947  13.320
42155W        W 1691  35.446  16.108  11.573
42156W        W 1692  21.168  14.782  12.446
42157W        W 1693  44.422   6.247   3.684
42158W        W 1694  28.944  39.389  12.838
42159W        W 1695  30.639  39.513  12.579
42160W        W 1696   3.416   9.687   1.847
42161W        W 1697   8.885  21.038   3.370
42162W        W 1698   9.319  29.541  13.808
42163W        W 1699  12.266  29.928   3.852
42164W        W 1700   1.895  34.475   3.702
42165W        W 1701  35.884  42.027  10.515
42166W        W 1702  42.506   3.727   3.288
42167W        W 1703  29.508  44.460   2.370
42168W        W 1704  40.344  16.239  11.430
42169W        W 1705  19.553  29.661   3.220
42170W        W 1706  36.455  13.323   1.913
42171W        W 1707   3.309  22.193  14.024
42172W        W 1708  26.018  33.901  11.581
42173W        W 1709  28.523  39.820  12.905
42174W        W 1710   7.785  33.877   4.672
42175W        W 1711   0.401   4.766  12.343
42176W        W 1712  26.630  19.271  12.046
42177W        W 1713  28.026  21.545  10.406
42178W        W 1714  15.326  36.576  10.593
42179W        W 1715  15.623  23.152   0.815
42180W        W 1716  44.359  44.961   1.346
42181W        W 1717  34.032  19.612  13.509
42182W        W 1718  11.176   9.268  11.538
42183W        W 1719  38.392  18.149   4.182
42184W        W 1720   6.311  36.552   2.880
42185W        W 1721   0.893   0.448   4.281
42186W        W 1722  31.575   4.849   1.324
42187W        W 1723  19.265   0.949   2.807
42188W        W 1724  23.590  10.314   4.687
42189W        W 1725   7.809  23.593  12.943
42190W        W 1726  29.538  16.192   1.421
42191W        W 1727   8.778  37.520  14.030
42192W        W 1728  30.608  43.415   0.375
42193W        W 1729   2.799   0.976   2.235
42194W        W 1730  10.644  32.069  12.367
42195W        W 1731   2.410  17.752   1.932
42196W        W 1732   2.449  32.887  12.984
42197W        W 1733  28.130   7.355  14.798
42198W        W 1734   5.320  36.572   4.750
42199W        W 1735  18.749  34.963  11.065
42200W        W 1736  41.328   8.781  10.939
42201W        W 1737  35.049  43.432  13.810
42202W        W 1738  27.500  44.979   2.780
42203W        W 1739  38.980   4.760  10.028
42204W        W 1740  19.157  22.650  12.414
42205W        W 1741  20.144  29.474  13.412
42206W        W 1742  31.024  29.057   2.291
42207W        W 1743  23.563  16.687   3.743
42208W        W 1744  37.402  30.481  13.796
42209W        W 1745  38.949  41.510  12.404
42210W        W 1746   2.291  27.648   3.674
42211W        W 1747  23.063  26.206  12.429
42212W        W 1748  15.820  18.556   0.246
42213W        W 1749   7.353   5.791  13.880
42214W        W 1750  41.536  10.855   1.395
42215W        W 1751  40.312   6.705   1.711
42216W        W 1752   0.399  43.911   4.693
42217W        W 1753  28.021   2.795   2.828
42218W        W 1754  41.862  39.526   3.790
42219W        W 1755  22.132  43.961  10.490
42220W        W 1756  29.940  33.065   0.852
42221W        W 1757  12.834  31.503  13.798
42222W        W 1758  36.066   6.845  12.897
42223W        W 1759  11.201  36.972   0.310
42224W        W 1760  13.345  25.109  14.486
42225W        W 1761  19.285  20.079   0.762
42226W        W 1762  29.978  18.078   1.415
42227W        W 1763  39.515  34.402   0.926
42228W        W 1764  18.169   3.831  12.422
42229W        W 1765  14.141  44.473   3.848
42230W        W 1766   6.286   1.433   0.259
42231W        W 1767  38.559  25.118   3.385
42232W        W 1768  18.278  26.697   2.833
42233W        W 1769  40.851  13.616   9.491
42234W        W 1770  18.277   6.276  12.860
42235W        W 1771  16.649  39.998  10.970
42236W        W 1772   8.176   6.844  12.962
42237W        W 1773  34.441   8.885   3.265
42238W        W 1774  23.228  28.465  10.991
42239W        W 1775   3.774  24.521   3.824
42240W        W 1776  21.248  14.657  14.813
42241W        W 1777  29.096  32.977   0.960
42242W        W 1778  22.216   9.873   1.401
42243W        W 1779   6.686  14.774   1.323
42244W        W 1780  32.607  37.450  11.950
42245W        W 1781  37.969  40.846  11.924
42246W        W 1782  21.719  31.404   1.889
42247W        W 1783  29.100   6.362  13.331
42248W        W 1784   6.293  28.640  11.400
42249W        W 1785  24.111   9.232   2.219
42250W        W 1786   9.804  39.530   4.231
42251W        W 1787  33.057  19.765   2.811
42252W        W 1788  37.860  40.972  13.474
42253W        W 1789   9.824  14.691   1.734
42254W        W 1790   9.807  25.131   2.255
42255W        W 1791  39.515   9.281   3.226
42256W        W 1792  24.026  16.633  11.113
42257W        W 1793   2.335   5.780   0.245
42258W        W 1794  29.951  37.050   0.729
42259W        W 1795   5.387  40.535  12.947
42260W        W 1796  26.493  12.143  14.365
42261W        W 1797  43.814  36.445   3.344
42262W        W 1798  13.151   5.223  11.975
42263W        W 1799  12.762   8.701  13.961
42264W        W 1800  36.364  21.170  13.528
42265W        W 1801  29.062  42.458   3.178
42266W        W 1802   5.398   2.955   1.267
42267W        W 1803   1.762  38.846   1.449
42268W        W 1804  11.305   0.325   4.742
42269W        W 1805   0.344  12.699   2.818
42270W        W 1806  11.204  44.943   4.684
42271W        W 1807   5.197   6.880   2.276
42272W        W 1808   9.383   9.159  14.400
42273W        W 1809   9.779  32.054   4.812
42274W        W 1810  34.564  25.080   9.541
42275W        W 1811  42.337   3.865  10.542
42276W        W 1812  33.899  42.811  12.070
42277W        W 1813   4.394   6.848   1.372
42278W        W 1814   4.234  15.630  14.847
42279W        W 1815  43.849  19.658   3.860
42280W        W 1816  28.648  27.134   4.678
42281W        W 1817   8.381  31.120  11.067
42282W        W 1818  30.546   8.676   3.375
42283W        W 1819   2.391  22.549  12.826
42284W        W 1820   0.305   2.233  13.341
42285W        W 1821  22.028   7.879   3.241
42286W        W 1822  23.090   2.341  14.491
42287W        W 1823  30.003  32.507  10.909
42288W        W 1824  22.616  34.422  11.555
42289W        W 1825  33.877  35.892   0.783
42290W        W 1826  32.105  42.813   0.332
42291W        W 1827  40.981   5.332  14.432
42292W        W 1828  21.167  25.162   3.240
42293W        W 1829  19.722   9.322   0.343
42294W        W 1830  39.523  26.138  11.452
42295W        W 1831  27.188  14.278  13.350
42296W        W 1832  25.984  44.478   1.926
42297W        W 1833   8.309  29.492   1.825
42298W        W 1834  18.284  18.760   4.142
42299W        W 1835  39.464  17.782  11.056
42300W        W 1836  36.465  42.370   2.283
42301W        W 1837  20.716   4.438  14.794
42302W        W 1838   4.332  24.639   3.352
42303W        W 1839  14.757  10.255   1.892
42304W        W 1840  18.103  13.225   4.323
42305W        W 1841  36.875  40.824  10.979
42306W        W 1842   8.883   9.310  13.548
42307W        W 1843  35.499  14.804  10.576
42308W        W 1844  12.855  11.149   0.276
42309W        W 1845  10.638   5.397   5.595
42310W        W 1846  28.937  35.964   1.792
42311W        W 1847   3.920  37.337  13.435
42312W        W 1848   5.929  12.691   0.307
42313W        W 1849  21.715  21.188   5.276
42314W        W 1850  27.619  21.216  13.450
42315W        W 1851   0.869  22.722   4.132
42316W        W 1852  23.984  37.063   0.826
42317W        W 1853   6.765  32.532  10.564
42318W        W 1854  29.042  38.334   4.127
42319W        W 1855  39.928   3.843   4.141
42320W        W 1856  33.563  10.201   3.685
42321W        W 1857  29.427  41.011   1.271
42322W        W 1858  10.824  24.494   2.391
42323W        W 1859  40.457   1.324   2.195
42324W        W 1860  44.419  22.018  14.845
42325W        W 1861   2.238  16.147  14.430
42326W        W 1862  24.671   8.186   5.315
42327W        W 1863  44.782   1.298   0.287
42328W        W 1864  35.870  12.288  14.495
42329W        W 1865  31.482  27.183  12.848
42330W        W 1866   8.245  44.313  10.418
42331W        W 1867  27.069  15.132  13.521
42332W        W 1868  19.757   9.247   5.122
42333W        W 1869  17.686   2.776  13.901
42334W        W 1870   5.437   8.654  11.042
42335W        W 1871   8.717  11.186   3.740
42336W        W 1872  36.072  21.648  10.633
42337W        W 1873  37.900  29.586   0.471
42338W        W 1874   3.370  35.484  13.432
42339W        W 1875   4.926  39.315  13.057
42340W        W 1876  33.091  40.493   4.193
42341W        W 1877  20.609  10.180  11.374
42342W        W 1878  25.097   3.460  11.427
42343W        W 1879   1.275   4.867  14.448
42344W        W 1880  20.261   9.284  13.964
42345W        W 1881  27.605  26.541  11.898
42346W        W 1882  18.281  15.728  14.287
42347W        W 1883  14.223  20.680   4.824
42348W        W 1884   9.354  32.513  14.934
42349W        W 1885  17.071  44.895  14.329
42350W        W 1886  24.550  20.250   1.219
42351W        W 1887  23.118  34.056   3.214
42352W        W 1888   3.766   3.770   3.869
42353W        W 1889  11.228  40.434  14.832
42354W        W 1890  24.078   2.923  13.894
42355W        W 1891  29.489  16.308   2.798
42356W        W 1892  42.804  42.777  14.983
42357W        W 1893  38.388  13.111  13.000
42358W        W 1894  14.117  42.999   2.280
42359W        W 1895  22.210  42.002  14.389
42360W        W 1896  19.074  40.812   4.752
42361W        W 1897  23.117  44.435   4.330
42362W        W 1898  26.141  31.140   4.637
42363W        W 1899  22.687   3.241  10.579
42364W        W 1900  31.097  25.629   0.383
42365W        W 1901  21.045  44.370  13.857
42366W        W 1902  23.026  25.480  13.517
42367W        W 1903   8.178  13.223  10.567
42368W        W 1904  24.086  27.120   1.837
42369W        W 1905  36.422   3.417  12.416
42370W        W 1906  15.613  26.695   2.292
42371W        W 1907  26.570  10.291  13.926
42372W        W 1908   7.871  24.591   1.920
42373W        W 1909  21.533  24.585   4.256
42374W        W 1910  42.956   5.348   0.298
42375W        W 1911  33.974  32.915  11.498
42376W        W 1912  39.482  24.078  12.841
42377W        W 1913  15.171   3.936   0.246
42378W        W 1914  27.543  36.512   2.745
42379W        W 1915  44.986   2.893  12.433
42380W        W 1916   4.306  12.120  12.447
42381W        W 1917  19.588  27.944  12.370
42382W        W 1918  27.531   0.795   1.835
42383W        W 1919  16.305  37.020   2.725
42384W        W 1920  27.001   7.724  13.516
42385W        W 1921  25.614  33.989   5.127
42386W        W 1922  12.856  19.070  14.943
42387W        W 1923   8.708  15.817   0.416
42388W        W 1924   6.345  11.137   3.714
42389W        W 1925  24.532   9.651  10.419
42390W        W 1926  24.609  23.996   4.757
42391W        W 1927  10.831  31.637  10.952
42392W        W 1928   7.270  38.991   0.307
42393W        W 1929  34.545  37.537  12.396
42394W        W 1930  23.652   5.917   0.279
42395W        W 1931  10.221  28.466  14.491
42396W        W 1932  12.330  26.981   4.775
42397W        W 1933  33.887  38.868  13.542
42398W        W 1934   3.798  22.518   0.844
42399W        W 1935  16.315  27.053   3.732
42400W        W 1936   9.242   4.939   3.698
42401W        W 1937  30.628  32.055   4.821
42402W        W 1938   6.827  41.502  10.507
42403W        W 1939  22.229  29.428  13.821
42404W        W 1940   4.832  38.531   2.378
42405W        W 1941  13.147  20.053   3.304
42406W        W 1942  30.565  26.634   3.163
42407W        W 1943  29.588  28.124   1.771
42408W        W 1944   3.256   4.340   0.430
42409W        W 1945  22.144  14.118  10.909
42410W        W 1946   2.398  44.927   3.242
42411W        W 1947   3.844   2.289  10.536
42412W        W 1948   3.224  21.630  14.951
42413W        W 1949  20.612  16.290   3.688
42414W        W 1950  34.117   6.190   3.372
42415W        W 1951  31.037  15.251   3.159
42416W        W 1952  40.808  13.656  13.523
42417W        W 1953  33.413  36.384  14.798
42418W        W 1954  14.764  12.632   1.737
42419W        W 1955  24.633  33.479   2.679
42420W        W 1956   6.351  38.347  14.818
42421W        W 1957  38.045  42.515   0.738
42422W        W 1958  30.926  40.816   1.855
42423W        W 1959  11.294   9.733  14.844
42424W        W 1960  16.747   1.461  13.906
42425W        W 1961  13.711  23.726   1.821
42426W        W 1962   6.783  26.539   0.855
42427W        W 1963  28.483  41.941   3.838
42428W        W 1964  33.069  40.916  13.318
42429W        W 1965  30.969   1.759  13.924
42430W        W 1966  23.175  24.071   3.674
42431W        W 1967  34.864  34.385  10.003
42432W        W 1968  44.423  35.473  10.520
42433W        W 1969   8.767   8.344  12.371
42434W        W 1970   9.386  27.023   2.322
42435W        W 1971  20.730  19.171   2.843
42436W        W 1972   0.283  17.110  13.324
42437W        W 1973  25.206  36.039  14.431
42438W        W 1974  19.672  38.394   9.931
42439W        W 1975  33.411  11.246  13.945
42440W        W 1976  25.662  37.522   0.382
42441W        W 1977  29.138  20.648  10.950
42442W        W 1978  44.479   5.829  11.976
42443W        W 1979  26.581  42.007   4.287
42444W        W 1980   9.390  34.427  13.794
42445W        W 1981  13.224  40.871  11.374
42446W        W 1982  26.207  19.642  12.864
42447W        W 1983  18.717  40.545  10.992
42448W        W 1984  38.517  21.245   3.695
42449W        W 1985  20.540  12.703  11.934
42450W        W 1986   5.821  11.228   4.769
42451W        W 1987  29.050  19.558  14.421
42452W        W 1988  39.464  16.135   0.947
42453W        W 1989  30.132   5.243   0.738
42454W        W 1990  34.510  43.840  14.287
42455W        W 1991  20.033  11.348   1.300
42456W        W 1992  37.076  11.760   0.381
42457W        W 1993  36.513  43.372  12.425
42458W        W 1994   8.774  22.523  14.323
42459W        W 1995  17.557  25.651   3.251
42460W        W 1996  39.887  29.457  10.603
42461W        W 1997  19.209  18.610  14.885
42462W        W 1998  13.624  10.352  14.275
42463W        W 1999   7.804  36.433  12.417
42464W        W 2000  36.946  34.427  11.074
42465W        W 2001  13.164  32.933  10.599
42466W        W 2002  30.629  19.090  11.051
42467W        W 2003  43.462  12.746   0.920
42468W        W 2004  35.874  44.907   0.432
42469W        W 2005  21.209  39.999  11.986
42470W        W 2006   9.207  32.885  10.471
42471W        W 2007   3.726  12.176   2.901
42472W        W 2008   5.315  43.819   0.779
42473W        W 2009  21.020   8.750   1.880
42474W        W 2010  23.672  25.671  13.827
42475W        W 2011   2.428  35.502  13.808
42476W        W 2012  27.146   8.401  12.452
42477W        W 2013  22.041   5.377   3.364
42478W        W 2014  25.577  18.118  13.465
42479W        W 2015  28.171  39.991  13.795
42480W        W 2016  16.747   8.279   3.320
42481W        W 2017  12.637  38.450   1.736
42482W        W 2018   1.310  36.064  12.027
42483W        W 2019   7.280  20.156  12.409
42484W        W 2020   7.719  23.597   1.894
42485W        W 2021  42.328  44.296  12.434
42486W        W 2022   8.193   1.452  13.008
42487W        W 2023  33.433  35.973   4.252
42488W        W 2024  15.617  42.907   4.803
42489W        W 2025  23.550  23.042  11.374
42490W        W 2026  39.971  11.858  11.514
42491W        W 2027  10.704   9.159   4.218
42492W        W 2028  41.877  25.212  10.131
42493W        W 2029   8.164   4.216   1.796
42494W        W 2030  28.102  23.021  13.371
42495W        W 2031  10.182  27.619   2.410
42496W        W 2032   1.370  42.472  10.441
42497W        W 2033  10.182  32.530   1.223
42498W        W 2034  15.790  15.090   1.823
42499W        W 2035   4.853  14.220  10.001
42500W        W 2036   7.275  29.505  10.526
42501W        W 2037  17.702   7.374   1.927
42502W        W 2038  32.398  34.516  14.917
42503W        W 2039  17.069   7.867   4.601
42504W        W 2040   1.775  37.076   2.268
42505W        W 2041  33.959  22.704   2.348
42506W        W 2042  35.011  25.963  13.538
42507W        W 2043   4.390  16.207  12.530
42508W        W 2044  40.953  24.118  11.414
42509W        W 2045  39.865  42.008  11.378
42510W        W 2046  38.943   9.852   2.188
42511W        W 2047  43.769  26.101  14.454
42512W        W 2048  27.615  23.703  13.003
42513W        W 2049  17.181  28.598  12.989
42514W        W 2050  10.151  26.115   2.339
42515W        W 2051  32.578   5.843  14.957
42516W        W 2052  25.633   1.806  11.395
42517W        W 2053  28.116  42.361   4.300
42518W        W 2054  17.592  44.851  14.318
42519W        W 2055  10.367  17.090  11.018
42520W        W 2056  32.515  36.430  10.935
42521W        W 2057  41.878  36.485   1.303
42522W        W 2058  30.144  37.889   3.786
42523W        W 2059  12.325  33.018  11.069
42524W        W 2060  37.516  31.083  11.054
42525W        W 2061  34.429   7.330   4.352
42526W        W 2062  37.570  40.455  13.455
42527W        W 2063  44.355  41.506   1.411
42528W        W 2064  34.062  44.924   3.384
42529W        W 2065   9.779  42.381   1.701
42530W        W 2066  16.239  10.801   3.167
42531W        W 2067  20.576  16.081   2.386
42532W        W 2068  31.450  30.109   5.763
42533W        W 2069  12.769  16.208  10.420
42534W        W 2070  27.540  17.275  13.887
42535W        W 2071  24.513  23.511   4.752
42536W        W 2072  30.420  39.449   0.854
42537W        W 2073  12.811  44.759   4.793
42538W        W 2074  44.420  11.277   4.292
42539W        W 2075  40.309  20.209   0.319
42540W        W 2076  22.599  30.931   4.236
42541W        W 2077   9.860  25.114   4.706
42542W        W 2078  24.662   6.900  14.921
42543W        W 2079  26.608   1.336  13.006
42544W        W 2080  32.949  43.900  11.867
42545W        W 2081  14.773  21.732   0.936
42546W        W 2082   4.220  15.259   2.188
42547W        W 2083  24.110  38.521  10.148
42548W        W 2084   3.913  10.764  13.052
42549W        W 2085   4.842  18.730   4.204
42550W        W 2086  41.792  36.847   1.758
42551W        W 2087  12.357  24.085   3.239
42552W        W 2088  42.350  37.886  13.977
42553W        W 2089  24.154  12.301   2.363
42554W        W 2090  37.554  39.332  13.417
42555W        W 2091  13.815  30.084   3.381
42556W        W 2092  13.679  17.204   1.450
42557W        W 2093  15.708  38.937   1.760
42558W        W 2094  27.589  27.077   3.223
42559W        W 2095  21.060  25.502  12.559
42560W        W 2096  18.627  30.496   1.242
42561W        W 2097  41.521  39.012   2.683
42562W        W 2098  19.145   4.365   0.472
42563W        W 2099   7.400  18.172   4.177
42564W        W 2100   3.334  24.619   4.115
42565W        W 2101   5.805  28.464  10.967
42566W        W 2102  21.644  25.113  14.361
42567W        W 2103  24.559   1.771  10.946
42568W        W 2104  12.807  32.057   0.419
42569W        W 2105  16.221   4.831   1.884
42570W        W 2106   6.412   3.313   3.676
42571W        W 2107  43.771  38.325   4.177
42572W        W 2108  35.376  24.627  14.989
42573W        W 2109  13.317  14.142   3.185
42574W        W 2110  42.392  35.362  10.894
42575W        W 2111  44.790  15.200   4.802
42576W        W 2112  38.435  36.086  13.402
42577W        W 2113  40.001  10.159   0.946
42578W        W 2114  11.760  18.106  14.881
42579W        W 2115  20.051  33.515  13.410
42580W        W 2116  18.226  19.564  12.410
42581W        W 2117  42.334  26.596   0.482
42582W        W 2118  42.357  16.156   2.409
42583W        W 2119   5.292  24.533   3.271
42584W        W 2120   8.168  21.594   3.206
42585W        W 2121  22.091  29.447  13.388
42586W        W 2122  36.858  43.842  10.943
42587W        W 2123   8.875  17.280   0.250
42588W        W 2124  12.776  34.568  10.479
42589W        W 2125  44.328  25.470   2.821
42590W        W 2126  29.075  23.601  13.500
42591W        W 2127   6.792  28.064   0.951
42592W        W 2128  10.224  38.564  12.022
42593W        W 2129  27.582  18.587   1.449
42594W        W 2130   9.785  12.762  14.962
42595W        W 2131   4.267  40.525   4.239
42596W        W 2132  12.182  23.112  13.908
42597W        W 2133   0.453  15.584  12.052
42598W        W 2134   2.425  40.537  10.539
42599W        W 2135  12.691  35.919   3.209
42600W        W 2136  34.892   5.798   3.348
42601W        W 2137  25.192  35.577   4.740
42602W        W 2138  28.490  22.049   1.762
42603W        W 2139  23.000  43.340   2.737
42604W        W 2140   1.735  44.824  14.348
42605W        W 2141  31.407  28.000   1.911
42606W        W 2142  27.953  14.777  13.426
42607W        W 2143  29.923  12.833  11.376
42608W        W 2144  37.514  32.999   3.690
42609W        W 2145  23.675  27.626  12.380
42610W        W 2146   4.900  12.333   4.835
42611W        W 2147  21.618  33.424  12.399
42612W        W 2148   6.289  13.708   0.798
42613W        W 2149  42.845   3.911  14.465
42614W        W 2150  10.140  32.137  10.140
42615W        W 2151  11.320   3.742  12.516
42616W        W 2152  40.486  32.404   0.826
42617W        W 2153  25.030   2.432  12.506
42618W        W 2154   8.300  31.949   2.811
42619W        W 2155  15.817   6.329  13.043
42620W        W 2156   7.902  15.592  10.928
42621W        W 2157   5.829  28.673   3.772
42622W        W 2158  15.108  25.119  13.317
42623W        W 2159  26.473   8.178  13.477
42624W        W 2160   0.315  21.063  14.406
42625W        W 2161  16.581  34.475  11.867
42626W        W 2162  38.447   3.315   0.428
42627W        W 2163  41.952  10.656   0.942
42628W        W 2164   1.447  16.150  10.507
42629W        W 2165  43.394  26.558   2.322
42630W        W 2166  40.435  40.988  13.510
42631W        W 2167  12.770  19.763   2.419
42632W        W 2168  16.267  43.001   4.327
42633W        W 2169  29.553  28.942  12.085
42634W        W 2170  19.160  13.149   2.219
42635W        W 2171   0.324  14.752   4.164
42636W        W 2172   1.367  14.592  12.438
42637W        W 2173  25.658  16.611   3.843
42638W        W 2174  11.158  34.947  13.984
42639W        W 2175  25.986  10.861   4.304
42640W        W 2176  23.513  25.211  14.348
42641W        W 2177   5.850   0.975   0.935
42642W        W 2178  30.977  36.011   1.438
42643W        W 2179  23.697   8.406   0.433
42644W        W 2180  26.635  37.875  10.989
42645W        W 2181  42.827   0.479  13.951
42646W        W 2182  28.512  42.517  14.357
42647W        W 2183  27.541  41.299  14.299
42648W        W 2184  26.200  25.686  11.924
42649W        W 2185  44.293  44.481  13.526
42650W        W 2186  17.701  24.521  12.033
42651W        W 2187  19.664  21.177  14.402
42652W        W 2188   0.771   2.872  12.518
42653W        W 2189   3.435  39.450  10.470
42654W        W 2190  12.287  15.110   3.160
42655W        W 2191  16.633  13.159  14.825
42656W        W 2192   0.399  17.116  11.043
42657W        W 2193  35.868  19.663   4.136
42658W        W 2194  35.421  24.533  14.478
42659W        W 2195  42.453  31.501   4.700
42660W        W 2196  38.347  26.994  13.477
42661W        W 2197  17.274   5.420   1.746
42662W        W 2198   9.332  30.480   4.168
42663W        W 2199   6.922  10.152   0.302
42664W        W 2200  30.510   5.286   1.444
42665W        W 2201   8.314  41.008  12.050
42666W        W 2202  12.195   0.441  14.774
42667W        W 2203  21.188  14.665   5.196
42668W        W 2204  37.372  31.149   1.710
42669W        W 2205  26.042  31.622   1.288
42670W        W 2206  12.294   2.881  10.489
42671W        W 2207  33.585  21.538   3.190
42672W        W 2208   1.834   2.367  12.411
42673W        W 2209  18.739   2.781   1.860
42674W        W 2210   9.813  32.562  11.993
42675W        W 2211  14.728  26.511   2.788
42676W        W 2212  19.704  32.946   4.122
42677W        W 2213  29.003  34.057   0.380
42678W        W 2214  16.697  24.981  12.979
42679W        W 2215  20.045  13.167  11.490
42680W        W 2216  17.660  36.425   2.391
42681W        W 2217  44.833  15.582   2.801
42682W        W 2218  12.697  20.711  13.835
42683W        W 2219  31.083  11.750   2.249
42684W        W 2220   0.439  17.249   2.868
42685W        W 2221   0.307  40.429  12.502
42686W        W 2222  44.850  10.258   2.295
42687W        W 2223  24.230  41.826  12.393
42688W        W 2224   5.193  21.207  13.319
42689W        W 2225  39.418  24.665  12.410
42690W        W 2226  43.904  24.015  13.888
42691W        W 2227  32.137  12.750   3.167
42692W        W 2228   3.412  10.281   5.125
42693W        W 2229  17.143  40.859   1.853
42694W        W 2230  33.011   6.375  11.032
42695W        W 2231  34.984  44.931  11.393
42696W        W 2232   0.415  37.409   3.227
42697W        W 2233  17.775  10.668   3.712
42698W        W 2234   7.760  37.991  12.844
42699W        W 2235  38.557   7.275   0.426
42700W        W 2236   3.770   8.240  10.625
42701W        W 2237  29.461   8.771  13.331
42702W        W 2238   2.887  16.246   2.867
42703W        W 2239  38.042  44.309  11.940
42704W        W 2240  16.717  17.755  10.502
42705W        W 2241  31.539  41.400   1.902
42706W        W 2242  34.460  26.140  13.048
42707W        W 2243  39.511  26.083   3.672
42708W        W 2244  34.370  24.041  14.780
42709W        W 2245  40.458  25.146   1.294
42710W        W 2246  23.502  36.094   0.730
42711W        W 2247  38.355  35.000  13.917
42712W        W 2248  31.459  44.298  14.381
42713W        W 2249  35.862  44.981  14.808
42714W        W 2250  21.575   6.218   1.844
42715W        W 2251   6.390  40.801   1.820
42716W        W 2252  17.120   8.799  14.383
42717W        W 2253  17.181   5.210  13.010
42718W        W 2254  41.963  39.038  11.081
42719W        W 2255   3.417  35.581  12.577
42720W        W 2256   3.326  34.866   4.628
42721W        W 2257  12.141  15.702   4.707
42722W        W 2258  34.902  19.566   3.162
42723W        W 2259  17.271  21.650  11.597
42724W        W 2260  18.139  31.953   9.976
42725W        W 2261  40.859  17.596  12.507
42726W        W 2262   8.766  42.492   2.273
42727W        W 2263  25.162  30.520  11.435
42728W        W 2264  41.527  10.722  10.974
42729W        W 2265  22.043  39.407   3.157
42730W        W 2266  33.556  43.915   4.741
42731W        W 2267   7.287  31.137   0.434
42732W        W 2268  11.140  28.642   3.221
42733W        W 2269  24.665  32.401  11.402
42734W        W 2270  44.949  37.931   1.714
42735W        W 2271  28.600  20.701   3.657
42736W        W 2272  22.504  35.077  10.897
42737W        W 2273  30.557  33.618   2.875
42738W        W 2274  34.492  29.080  12.998
42739W        W 2275  30.925  19.597  14.906
42740W        W 2276  43.008   4.708   1.427
42741W        W 2277  43.931   8.739  13.466
42742W        W 2278  34.060  35.005  10.081
42743W        W 2279  33.043   1.745  14.994
42744W        W 2280  21.024  32.583   0.441
42745W        W 2281  14.775  32.485  10.908
42746W        W 2282  20.133  38.426   0.842
42747W        W 2283  17.237  40.484  13.809
42748W        W 2284   7.262  22.174  11.495
42749W        W 2285  41.514   7.278   3.366
42750W        W 2286  12.183   9.313  11.453
42751W        W 2287  36.057  38.346   1.214
42752W        W 2288   4.729  33.962   3.224
42753W        W 2289  42.785  22.006  11.980
42754W        W 2290   3.712  29.153   0.286
42755W        W 2291  28.510  33.517  11.561
42756W        W 2292  41.884  15.257  13.061
42757W        W 2293  30.630  37.059  12.410
42758W        W 2294  28.670   4.426   2.808
42759W        W 2295  37.385  28.186   3.287
42760W        W 2296   9.733  40.418  13.820
42761W        W 2297  22.687  22.186  13.470
42762W        W 2298   3.824  28.179   1.330
42763W        W 2299   9.765  10.641   1.843
42764W        W 2300  11.793  26.032  10.609
42765W        W 2301   4.329   0.462  10.612
42766W        W 2302  21.720  12.637   4.790
42767W        W 2303   9.837   2.371   3.665
42768W        W 2304  17.234  34.060   0.322
42769W        W 2305  29.954   6.779   2.889
42770W        W 2306  14.275  39.934  11.080
42771W        W 2307  29.101  26.094  14.454
42772W        W 2308  20.631  19.218  13.475
42773W        W 2309  13.269  35.889  10.515
42774W        W 2310  30.081  36.059  13.505
42775W        W 2311  36.577   6.390   4.835
42776W        W 2312  40.872  29.124   1.360
42777W        W 2313  26.573  27.687  14.788
42778W        W 2314  16.162  25.584   0.242
42779W        W 2315  39.398  38.021  11.440
42780W        W 2316  22.187   7.727  14.277
42781W        W 2317  38.973  37.059  14.393
42782W        W 2318  29.568   9.743   2.273
42783W        W 2319  42.465  32.899  14.327
42784W        W 2320  30.537   6.260   2.226
42785W        W 2321   1.949   8.211  12.061
42786W        W 2322  31.905  15.085  12.536
42787W        W 2323   9.667  35.594   2.324
42788W        W 2324  20.618  37.065   1.412
42789W        W 2325  39.903   6.879  12.870
42790W        W 2326  36.460   6.425  13.970
42791W        W 2327  16.752   2.906  14.813
42792W        W 2328  35.560   2.875   2.764
42793W        W 2329   7.695   7.689   0.826
42794W        W 2330  29.542  17.800   1.348
42795W        W 2331   8.392  36.450  14.957
42796W        W 2332   1.275  44.782  12.085
42797W        W 2333  15.113  17.728   2.300
42798W        W 2334  12.357  32.465   4.665
42799W        W 2335  16.696  12.259   0.314
42800W        W 2336  12.361  27.469   0.333
42801W        W 2337  17.113  41.026   3.779
42802W        W 2338  14.248  40.442   1.434
42803W        W 2339  25.981  29.975   2.699
42804W        W 2340  37.878  28.536   1.925
42805W        W 2341  27.544  27.558   1.814
42806W        W 2342  36.397  41.387   5.084
42807W        W 2343  12.217  40.886  14.363
42808W        W 2344  37.574  12.330   1.391
42809W        W 2345  24.130  36.077   1.322
42810W        W 2346  36.554   1.916  13.491
42811W        W 2347  26.656  17.761   5.148
42812W        W 2348   8.810   7.328   5.089
42813W        W 2349   6.719   7.693   1.844
42814W        W 2350  25.007  18.134   3.305
42815W        W 2351  21.256  12.205  14.780
42816W        W 2352  11.656  29.531  11.601
42817W        W 2353  39.013  34.373   0.345
42818W        W 2354   5.310  27.113  12.361
42819W        W 2355   7.897   7.183  14.848
42820W        W 2356  42.871  34.912  11.855
42821W        W 2357  42.978  20.630  12.061
42822W        W 2358  27.570  12.312  13.055
42823W        W 2359  28.468   1.795   4.318
42824W        W 2360  22.708  15.662  13.378
42825W        W 2361  27.582  20.161   4.257
42826W        W 2362  40.007  22.187  13.323
42827W        W 2363   0.782  42.967   5.093
42828W        W 2364  29.527  18.077   0.909
42829W        W 2365  11.838  38.553  10.919
42830W        W 2366  44.384  18.790   5.086
42831W        W 2367   5.342  17.177   3.273
42832W        W 2368  14.750  31.984   2.817
42833W        W 2369  15.655  27.125   1.359
42834W        W 2370  29.558  14.234  12.862
42835W        W 2371  26.004  36.094   4.119
42836W        W 2372  28.656   0.834   2.724
42837W        W 2373  43.963  44.939  11.409
42838W        W 2374  28.945   0.878   1.266
42839W        W 2375   0.817  24.687  13.879
42840W        W 2376  20.544  26.670   0.869
42841W        W 2377  34.483  33.045  12.872
42842W        W 2378  11.221   2.929   3.775
42843W        W 2379  43.882  42.821  14.013
42844W        W 2380  34.864  33.609  10.109
42845W        W 2381  40.441   2.951   5.613
42846W        W 2382  31.592  30.083   4.706
42847W        W 2383  24.192  44.957  13.392
42848W        W 2384  27.989   6.845  11.423
42849W        W 2385  43.919  32.392   4.675
42850W        W 2386  28.038   5.401   3.870
42851W        W 2387  44.839   7.842   0.358
42852W        W 2388  25.508  39.377  11.593
42853W        W 2389  30.533  32.455   4.315
42854W        W 2390   0.887   1.385   0.943
42855W        W 2391  22.594   7.304  14.387
42856W        W 2392  30.102  12.277   0.348
42857W        W 2393  16.303  18.142  11.537
42858W        W 2394  24.667   7.228  10.930
42859W        W 2395   1.270  43.464   1.243
42860W        W 2396  28.649   1.327   2.849
42861W        W 2397  41.373  38.008  14.794
42862W        W 2398  17.561  17.072  12.567
42863W        W 2399  17.572  44.826   1.412
42864W        W 2400  13.194   4.916   1.261
42865W        W 2401  24.213  26.003   3.782
42866W        W 2402   9.183  29.521   4.326
42867W        W 2403  29.930   8.845  11.044
42868W        W 2404  22.629  18.111   9.615
42869W        W 2405  28.086  12.759   3.827
42870W        W 2406  19.061  32.097   4.815
42871W        W 2407  18.212  44.891  14.379
42872W        W 2408  20.609  40.869  13.333
42873W        W 2409  41.374  38.918  12.893
42874W        W 2410   2.387  11.129   5.797
42875W        W 2411  32.905  31.031   3.670
42876W        W 2412  26.204  29.931   0.254
42877W        W 2413  26.955  18.734  12.962
42878W        W 2414  18.647  30.584  11.032
42879W        W 2415   7.690   9.289  11.450
42880W        W 2416  21.023  29.977   4.157
42881W        W 2417  27.471  37.555  13.336
42882W        W 2418   2.879  11.146   2.742
42883W        W 2419  23.717   6.803   4.174
42884W        W 2420  14.621  28.553   0.873
42885W        W 2421   2.963  34.957   0.792
42886W        W 2422  25.521  13.824  13.396
42887W        W 2423  32.074  15.221   2.689
42888W        W 2424  35.006  40.539  13.048
42889W        W 2425  31.903  28.466  10.407
42890W        W 2426  42.505  18.742  13.342
42891W        W 2427   9.166   7.345   2.382
42892W        W 2428  21.025  10.751   2.699
42893W        W 2429  32.912  37.964  12.023
42894W        W 2430  24.065   3.230   0.244
42895W        W 2431  42.406  30.528  12.901
42896W        W 2432  31.560  40.902   2.732
42897W        W 2433   0.748  24.977  11.946
42898W        W 2434  19.140  30.147  11.443
42899W        W 2435  13.160  26.570  11.549
42900W        W 2436  36.545   8.755  14.446
42901W        W 2437  38.920  16.139   0.823
42902W        W 2438  28.645  38.516  12.061
42903W        W 2439  31.517  16.694  10.468
42904W        W 2440  32.629  36.485   2.895
42905W        W 2441  35.557  35.954  13.019
42906W        W 2442  20.662  22.078  14.450
42907W        W 2443  37.955  21.570   3.189
42908W        W 2444  40.355  31.957   2.807
42909W        W 2445   6.794  26.485  11.107
42910W        W 2446   9.331  11.251   3.332
42911W        W 2447  25.160  25.544   2.814
42912W        W 2448  19.183  17.244   0.308
42913W        W 2449  11.827  30.987  10.906
42914W        W 2450  32.073  40.495  13.928
42915W        W 2451  10.240  33.000  12.842
42916W        W 2452  26.688  44.466   3.664
42917W        W 2453  15.162  29.109  11.876
42918W        W 2454  30.064  14.251   3.713
42919W        W 2455  26.537   8.397   4.837
42920W        W 2456  28.983   3.713  12.835
42921W        W 2457  44.801  33.063  10.899
42922W        W 2458   3.740  10.328  13.517
42923W        W 2459   8.292  21.641   0.309
42924W        W 2460  30.004   1.356  10.996
42925W        W 2461  25.076   0.377  11.970
42926W        W 2462   4.330  15.160   4.268
42927W        W 2463  20.688   5.709  13.449
42928W        W 2464  21.548   6.359   4.670
42929W        W 2465   5.372  25.069   1.357
42930W        W 2466  37.048  26.669  12.887
42931W        W 2467  20.761   7.348  10.949
42932W        W 2468   2.859  15.220   0.382
42933W        W 2469  22.593  34.004   3.279
42934W        W 2470  33.437  41.467  13.016
42935W        W 2471  15.305  33.470  12.425
42936W        W 2472  27.522  40.927   3.327
42937W        W 2473  22.125  15.128   3.838
42938W        W 2474  40.395  35.884   0.341
42939W        W 2475  38.890   9.336   2.820
42940W        W 2476  34.933  40.462   2.828
42941W        W 2477  30.508  12.672   1.775
42942W        W 2478  30.536  22.548   0.891
42943W        W 2479  27.178  42.882   1.375
42944W        W 2480  22.590  42.816   1.349
42945W        W 2481  25.652   1.419  11.894
42946W        W 2482   4.777  20.138   9.992
42947W        W 2483  44.493  25.014   2.371
42948W        W 2484   4.335   2.921  10.919
42949W        W 2485  27.175  29.060   0.437
42950W        W 2486   0.465  37.573  12.517
42951W        W 2487  42.793  26.513   0.947
42952W        W 2488  42.886  36.591  13.058
42953W        W 2489  32.596  11.687  12.370
42954W        W 2490  12.357  39.933   1.357
42955W        W 2491  25.504  10.167   4.146
42956W        W 2492   0.771  37.962   0.945
42957W        W 2493  33.471  32.968  14.445
42958W        W 2494  20.730  41.823   4.824
42959W        W 2495  36.392   1.381  14.882
42960W        W 2496   7.179  11.692  11.859
42961W        W 2497  35.585  18.714  13.380
42962W        W 2498  19.078  27.484   3.368
42963W        W 2499  35.534  43.305  14.882
42964W        W 2500   3.939   5.330   1.217
42965W        W 2501  34.968  29.967   1.351
42966W        W 2502  19.630   6.716   9.920
42967W        W 2503   9.722   9.736   1.410
42968W        W 2504  29.990  15.304  11.975
42969W        W 2505  43.311   6.210  14.781
42970W        W 2506  44.893  44.435  10.007
42971W        W 2507  35.975  37.075   4.672
42972W        W 2508   4.287   7.411   4.660
42973W        W 2509  33.621  19.677  12.432
42974W        W 2510  33.927  32.906  11.919
42975W        W 2511  38.837  36.858   0.753
42976W        W 2512  40.491  22.128   0.784
42977W        W 2513  33.084   6.794  14.479
42978W        W 2514   1.842  14.621  11.023
42979W        W 2515  42.031  38.888   2.773
42980W        W 2516   9.168  41.414  13.515
42981W        W 2517  19.618  44.949  14.029
42982W        W 2518  44.282  12.787   0.889
42983W        W 2519  39.482   9.207   0.478
42984W        W 2520   0.972  28.523  10.987
42985W        W 2521  38.961  34.894  10.488
42986W        W 2522  44.277  32.416   3.690
42987W        W 2523  27.977  19.110   1.879
42988W        W 2524  42.848  19.552   1.717
42989W        W 2525  28.554  24.676  10.417
42990W        W 2526  34.381  42.021   3.206
42991W        W 2527  33.084  11.130  13.876
42992W        W 2528  19.192  41.959   2.343
42993W        W 2529  41.490  23.699  12.400
42994W        W 2530  34.430  42.841  12.078
42995W        W 2531  44.492  29.959   4.829
42996W        W 2532   0.823  31.635  14.862
42997W        W 2533  33.399  43.813   4.191
42998W        W 2534   4.828  26.165  12.563
42999W        W 2535  24.056  36.460   2.770
43000W        W 2536   5.422  15.783  14.299
43001W        W 2537  30.510  28.562   3.291
43002W        W 2538  19.250  34.995   3.828
43003W        W 2539  19.727  18.744   0.432
43004W        W 2540   3.389   6.812   4.838
43005W        W 2541  43.370  44.941  12.416
43006W        W 2542  40.859  20.701   4.707
43007W        W 2543  30.037  37.564  14.281
43008W        W 2544  31.957   9.226  12.929
43009W        W 2545  27.138  17.232   2.809
43010W        W 2546   0.874  32.000  12.435
43011W        W 2547  43.373  18.586   3.719
43012W        W 2548  23.215  39.412   3.755
43013W        W 2549  14.815  44.264  13.001
43014W        W 2550  13.321  32.963   3.724
43015W        W 2551  35.538  35.026  10.541
43016W        W 2552  21.179  22.237   4.649
43017W        W 2553  36.910  11.729   3.740
43018W        W 2554   3.349  20.666   2.220
43019W        W 2555  11.128   2.295  12.943
43020W        W 2556  13.140  42.517  12.974
43021W        W 2557  10.310  20.035  13.877
43022W        W 2558  24.655  28.959  11.547
43023W        W 2559  13.808  43.946  14.486
43024W        W 2560  22.629   0.784   2.880
43025W        W 2561  15.292  22.669  10.586
43026W        W 2562  30.144  42.488   0.441
43027W        W 2563   3.281  16.710   0.807
43028W        W 2564  42.487  39.988   0.283
43029W        W 2565   0.868  32.923   4.785
43030W        W 2566   5.909  36.377  12.535
43031W        W 2567   9.853   9.731  12.536
43032W        W 2568   5.430  27.112  11.999
43033W        W 2569  13.243  29.142   0.779
43034W        W 2570  17.233  22.133   0.961
43035W        W 2571  24.055  42.953   3.336
43036W        W 2572  40.992  19.571   1.445
43037W        W 2573  11.270  14.728   2.879
43038W        W 2574  42.301  17.726  14.032
43039W        W 2575  30.444  17.258  11.128
43040W        W 2576  19.182  34.999  13.375
43041W        W 2577  10.256  19.576   4.345
43042W        W 2578  32.042  25.054   1.912
43043W        W 2579   8.714  34.407  13.049
43044W        W 2580  17.086  16.269  13.843
43045W        W 2581  43.968  35.444   3.857
43046W        W 2582  32.574  13.767   3.381
43047W        W 2583  12.661  42.927  13.042
43048W        W 2584  15.653   9.776  10.454
43049W        W 2585  24.621  38.969   3.792
43050W        W 2586  27.943  32.000   1.706
43051W        W 2587  19.146  38.028  13.387
43052W        W 2588   9.357   7.372   3.734
43053W        W 2589  10.828  24.992  11.893
43054W        W 2590  11.713  26.506  10.098
43055W        W 2591  33.509  36.941   4.190
43056W        W 2592   8.190   6.227   3.376
43057W        W 2593  36.444  35.389   3.234
43058W        W 2594  15.730  11.207   2.901
43059W        W 2595   0.926  43.804   1.220
43060W        W 2596  37.536  38.072   2.353
43061W        W 2597  26.196  18.620   2.706
43062W        W 2598   2.803  10.187  10.119
43063W        W 2599  10.656  34.878   0.423
43064W        W 2600  15.682  41.824   1.787
43065W        W 2601  37.390  18.290   4.795
43066W        W 2602   0.974   7.818  13.348
43067W        W 2603  23.719  41.407  12.427
43068W        W 2604  43.307  14.117   1.380
43069W        W 2605  14.327   5.855   0.921
43070W        W 2606  39.334  16.664   4.227
43071W        W 2607  24.724  36.930   2.741
43072W        W 2608   4.249  24.704  11.925
43073W        W 2609  16.624  28.952   1.265
43074W        W 2610   0.798  32.615  13.052
43075W        W 2611   5.249  35.042  12.845
43076W        W 2612  32.902  43.983   3.670
43077W        W 2613  38.395  11.667  13.918
43078W        W 2614  30.961  17.147   4.244
43079W        W 2615  13.749   1.847  13.060
43080W        W 2616   8.819  18.762   2.703
43081W        W 2617  12.847  35.892  13.397
43082W        W 2618  18.084   3.279  11.598
43083W        W 2619  24.662   6.219   3.216
43084W        W 2620  17.639   9.787  14.430
43085W        W 2621   4.436   4.339  13.520
43086W        W 2622   2.448  10.806  11.601
43087W        W 2623  40.407  14.713  13.843
43088W        W 2624   8.851  24.581   5.571
43089W        W 2625  29.934  28.054  13.940
43090W        W 2626  18.288  24.009   4.279
43091W        W 2627  25.195  37.342  12.021
43092W        W 2628  40.521   7.720   1.774
43093W        W 2629  31.004  28.525   0.939
43094W        W 2630  29.632  37.871   1.334
43095W        W 2631  41.514  32.461  13.471
43096W        W 2632  10.650  44.381  14.820
43097W        W 2633   4.752  27.988   1.811
43098W        W 2634  35.476   2.889   1.747
43099W        W 2635  20.569  16.293  10.465
43100W        W 2636  28.161  13.774  14.808
43101W        W 2637  12.837  20.594  12.892
43102W        W 2638  13.749  16.073  13.870
43103W        W 2639   3.817   0.912   2.245
43104W        W 2640  34.587  22.722   4.189
43105W        W 2641  22.525   1.409   5.210
43106W        W 2642   6.322  35.379  11.529
43107W        W 2643   7.180  39.036  12.841
43108W        W 2644  44.305  21.157  10.011
43109W        W 2645  28.522  19.589   3.365
43110W        W 2646  41.882  11.644  12.428
43111W        W 2647  25.594   1.274   0.844
43112W        W 2648  44.415  16.090   4.268
43113W        W 2649  35.102   3.835   0.756
43114W        W 2650  36.411  22.105  10.945
43115W        W 2651   1.386  31.127  14.855
43116W        W 2652  23.701  38.509   9.921
43117W        W 2653  22.049   0.826   4.207
43118W        W 2654  27.643   2.952   3.633
43119W        W 2655  23.684  30.473  14.820
43120W        W 2656  13.612  35.054   3.804
43121W        W 2657  18.212  36.848  14.766
43122W        W 2658  33.573  15.585  10.005
43123W        W 2659  18.194  24.500  14.998
43124W        W 2660  32.034  19.255   0.884
43125W        W 2661  19.217   1.930   4.765
43126W        W 2662  30.931  39.526  10.606
43127W        W 2663  38.050   0.263   1.702
43128W        W 2664  42.291  16.140  12.514
43129W        W 2665  10.243   5.778   1.780
43130W        W 2666  25.611  16.653  10.964
43131W        W 2667  24.131  24.629  11.378
43132W        W 2668  35.544   3.250   0.457
43133W        W 2669  22.689  28.161   4.813
43134W        W 2670   8.276   6.874  11.563
43135W        W 2671  31.587  33.949   4.819
43136W        W 2672  37.524  17.559   0.329
43137W        W 2673  44.483  20.038   4.701
43138W        W 2674  44.917  35.502  12.959
43139W        W 2675  39.479  44.836  12.944
43140W        W 2676   9.242  35.500   1.800
43141W        W 2677  25.667  34.513  11.870
43142W        W 2678  18.146  27.542   3.832
43143W        W 2679  33.507   1.354   0.767
43144W        W 2680  28.096  27.068  13.866
43145W        W 2681  19.138   9.807  14.418
43146W        W 2682  33.493  30.654  11.890
43147W        W 2683  35.379  36.012  10.913
43148W        W 2684   5.437  25.067  10.540
43149W        W 2685  23.177  18.206  13.880
43150W        W 2686  37.410  18.691  13.423
43151W        W 2687  11.131  37.449   3.646
43152W        W 2688  19.680  42.489  13.349
43153W        W 2689   2.459   5.691  10.412
43154W        W 2690   7.353  33.943   2.836
43155W        W 2691   6.418  35.957  11.051
43156W        W 2692  41.382  29.943   2.902
43157W        W 2693  19.731  27.956   0.386
43158W        W 2694  29.118  28.141  12.984
43159W        W 2695  10.143  19.645   2.372
43160W        W 2696  14.701  14.131   4.272
43161W        W 2697  10.323  36.367  11.418
43162W        W 2698  31.100  36.454  14.325
43163W        W 2699  22.149   8.260  14.979
43164W        W 2700  26.128  22.177  11.518
43165W        W 2701  35.382   9.720  14.484
43166W        W 2702  35.019  29.978  11.537
43167W        W 2703  29.567  36.879  14.361
43168W        W 2704   9.199   7.712   0.444
43169W        W 2705   3.949  10.346  10.595
43170W        W 2706  41.787   7.312   0.960
43171W        W 2707  26.666  42.960  10.572
43172W        W 2708  44.977  35.578  14.474
43173W        W 2709  36.966   9.750   4.811
43174W        W 2710  21.590  37.462   3.339
43175W        W 2711  39.838  18.202   2.394
43176W        W 2712  11.220  31.568   1.260
43177W        W 2713  40.913  26.149  13.356
43178W        W 2714  24.203   8.261   0.278
43179W        W 2715  43.363   0.921  11.550
43180W        W 2716  29.017  24.725   2.226
43181W        W 2717  11.244  14.788   4.209
43182W        W 2718  19.197  10.334   4.128
43183W        W 2719  10.376  18.268  10.430
43184W        W 2720  20.573  24.156  14.986
43185W        W 2721  11.317   3.274   2.772
43186W        W 2722  12.359  27.480   4.225
43187W        W 2723  19.636   9.346  12.028
43188W        W 2724  26.154  14.698  11.470
43189W        W 2725   3.829  19.760   4.341
43190W        W 2726  24.683   2.353   0.820
43191W        W 2727  12.262  13.788  13.396
43192W        W 2728  17.634  40.869  12.997
43193W        W 2729  42.884  37.830  13.052
43194W        W 2730  22.607  31.102  11.082
43195W        W 2731  34.379  43.276  14.843
43196W        W 2732  39.359   4.270  14.802
43197W        W 2733  13.773  37.056  12.378
43198W        W 2734   5.880  17.289   4.682
43199W        W 2735  40.465  31.406   4.243
43200W        W 2736  25.638  10.818   2.227
43201W        W 2737   9.670  27.515  11.935
43202W        W 2738  29.950  42.281  14.912
43203W        W 2739  13.308   4.319  12.522
43204W        W 2740  40.311  26.061  12.095
43205W        W 2741  38.825   1.380   0.926
43206W        W 2742   0.850   7.195  13.888
43207W        W 2743   4.271  25.597  11.478
43208W        W 2744  17.576   2.845   0.382
43209W        W 2745   9.778   0.791   1.729
43210W        W 2746  17.265   5.702  14.765
43211W        W 2747   8.180  15.748  12.953
43212W        W 2748  34.545  28.108   0.289
43213W        W 2749  38.438   8.175  12.414
43214W        W 2750   1.757  21.228   1.905
43215W        W 2751  14.664  25.187   1.786
43216W        W 2752   0.843   1.410   1.231
43217W        W 2753  28.516   5.410   0.924
43218W        W 2754  23.644   6.390  11.393
43219W        W 2755  37.448   8.210  11.094
43220W        W 2756   3.347  41.391   1.298
43221W        W 2757  15.148   7.861  12.971
43222W        W 2758  19.243   5.296   0.380
43223W        W 2759  44.457  23.026   1.766
43224W        W 2760   9.238   7.194  12.415
43225W        W 2761  14.782   1.279  10.404
43226W        W 2762  28.681   8.847  14.971
43227W        W 2763  34.049  16.672  12.384
43228W        W 2764  17.617  22.504   3.329
43229W        W 2765  12.138  27.038   9.514
43230W        W 2766   4.773  12.687   2.750
43231W        W 2767  29.067   5.842  12.941
43232W        W 2768  23.631   7.399  12.570
43233W        W 2769  24.231   8.664   9.559
43234W        W 2770   7.176  27.678   4.775
43235W        W 2771  17.772  17.761   4.266
43236W        W 2772  16.632   8.769   3.334
43237W        W 2773  14.652  12.303   2.738
43238W        W 2774  18.224  40.860   4.176
43239W        W 2775  19.716   7.232   3.849
43240W        W 2776  26.567  41.982   1.823
43241W        W 2777  13.138  31.087   4.341
43242W        W 2778  37.465   8.725   0.353
43243W        W 2779  26.121  25.026  10.545
43244W        W 2780   8.882  14.662  13.379
43245W        W 2781  43.003  24.513   1.304
43246W        W 2782  33.551   6.183   5.154
43247W        W 2783  19.047  31.896  10.620
43248W        W 2784   7.791   5.836  11.448
43249W        W 2785  43.003  44.894  13.385
43250W        W 2786  12.651  34.935  12.950
43251W        W 2787  40.311  14.318  11.872
43252W        W 2788   2.725  14.594  14.972
43253W        W 2789   2.238  43.313   0.356
43254W        W 2790   4.769   5.298   1.249
43255W        W 2791  23.006   6.393   4.158
43256W        W 2792  17.119  28.598  13.352
43257W        W 2793  36.575  32.112  11.922
43258W        W 2794   6.784  30.552   4.130
43259W        W 2795   8.361  15.127   4.227
43260W        W 2796   1.762  11.743  13.809
43261W        W 2797  10.237  35.381   3.699
43262W        W 2798  33.571  19.167   2.362
43263W        W 2799   1.281   2.323  10.553
43264W        W 2800   4.421   0.392   0.325
43265W        W 2801  23.536  43.871   3.866
43266W        W 2802  41.390   4.709  14.909
43267W        W 2803  26.086  20.247   0.876
43268W        W 2804   6.334  22.182   3.857
43269W        W 2805  32.530   1.738   4.225
43270W        W 2806  18.632   3.256   0.411
43271W        W 2807  31.408  26.532   0.868
43272W        W 2808  37.482   8.661  12.518
43273W        W 2809   9.267  26.182   0.868
43274W        W 2810  34.110   8.780  14.291
43275W        W 2811  16.622  31.055  12.985
43276W        W 2812  12.230  20.668  13.811
43277W        W 2813  16.120   9.155   2.246
43278W        W 2814   7.367  42.909   0.773
43279W        W 2815  32.141  14.114  14.362
43280W        W 2816  11.857  17.658   3.699
43281W        W 2817  43.516  32.395   2.216
43282W        W 2818  39.383  36.901  10.609
43283W        W 2819  13.264   6.904   2.729
43284W        W 2820  20.216  11.200   3.718
43285W        W 2821  44.867  19.764   0.296
43286W        W 2822  38.871   5.339  11.953
43287W        W 2823  22.623  18.636   1.344
43288W        W 2824  19.564  13.767   1.346
43289W        W 2825  43.870  27.161   5.746
43290W        W 2826  14.732  11.636  12.982
43291W        W 2827  31.010  35.913  11.952
43292W        W 2828  30.924   4.366   1.387
43293W        W 2829  15.242   3.718  14.916
43294W        W 2830  22.217  15.238  13.381
43295W        W 2831  14.242  30.143  11.513
43296W        W 2832  31.066   2.825   4.351
43297W        W 2833  38.830   4.245   2.728
43298W        W 2834  44.496  23.562  12.933
43299W        W 2835  37.012  23.174   2.301
43300W        W 2836  11.629  14.213  12.860
43301W        W 2837  37.519  27.990   1.881
43302W        W 2838   6.214   9.658   2.273
43303W        W 2839  26.094  14.614   2.803
43304W        W 2840  36.570  39.808  12.530
43305W        W 2841  14.755  43.403   1.934
43306W        W 2842  19.230  27.532   3.661
43307W        W 2843  26.038  36.024  12.926
43308W        W 2844  10.203  40.456  14.966
43309W        W 2845  22.566  14.098   0.305
43310W        W 2846  33.380  17.178   3.342
43311W        W 2847  43.945  14.125   0.244
43312W        W 2848   4.244   9.380   1.350
43313W        W 2849   7.736   7.835  14.512
43314W        W 2850   0.253  15.149  12.398
43315W        W 2851  37.061  37.911   1.405
43316W        W 2852  22.532   1.973   3.723
43317W        W 2853  24.566  33.516   2.338
43318W        W 2854  33.382  13.264  12.997
43319W        W 2855  21.249  12.717  13.957
43320W        W 2856   5.272   2.278  13.984
43321W        W 2857  15.751  40.851  12.374
43322W        W 2858  33.131  14.274   0.385
43323W        W 2859  22.522  29.940  12.910
43324W        W 2860  16.086  30.596   1.749
43325W        W 2861  44.977   2.762  11.876
43326W        W 2862  42.406   0.938  11.091
43327W        W 2863  42.816  37.413   0.877
43328W        W 2864  44.945   8.701  10.528
43329W        W 2865  25.634  33.017   2.391
43330W        W 2866  44.278   6.799  11.989
43331W        W 2867  11.853  13.642   0.295
43332W        W 2868  33.470  17.066  11.978
43333W        W 2869  42.358  39.542  11.107
43334W        W 2870  11.866  25.660   2.776
43335W        W 2871   6.800   6.746  14.837
43336W        W 2872  11.309  26.958  12.064
43337W        W 2873  16.256  20.716   1.801
43338W        W 2874  22.042  21.040   3.846
43339W        W 2875  24.010   2.915   4.316
43340W        W 2876  10.215  24.200  13.466
43341W        W 2877  41.924  21.031  11.488
43342W        W 2878  42.993   3.854   4.163
43343W        W 2879  40.851  31.581  13.865
43344W        W 2880  37.955  29.651  13.419
43345W        W 2881  23.716  42.364   2.704
43346W        W 2882  28.636  36.585   0.249
43347W        W 2883   1.873  16.232  14.930
43348W        W 2884  25.071  44.419  13.422
43349W        W 2885  25.098  30.161   3.172
43350W        W 2886  22.233  22.195  13.455
43351W        W 2887  36.374   7.820   0.332
43352W        W 2888  12.202  22.100   1.276
43353W        W 2889  34.872  14.800  13.367
43354W        W 2890  10.148   4.732  12.869
43355W        W 2891   4.804  35.026   3.835
43356W        W 2892   4.927   9.755   3.761
43357W        W 2893  23.583  21.211  11.890
43358W        W 2894  29.156  44.909  10.580
43359W        W 2895   0.350  10.214   0.445
43360W        W 2896   9.392  33.983  11.122
43361W        W 2897  31.027  16.643   1.882
43362W        W 2898   4.272  44.421   4.165
43363W        W 2899  29.603  16.625   1.284
43364W        W 2900  36.897  43.475  14.471
43365W        W 2901   5.351  40.845  14.796
43366W        W 2902  20.693  24.992   4.703
43367W        W 2903   3.882  14.251   2.239
43368W        W 2904   5.793  40.316   2.820
43369W        W 2905  25.201  36.487  12.023
43370W        W 2906  43.480  39.341   4.755
43371W        W 2907  30.448  36.512  11.118
43372W        W 2908  30.570  14.113  14.977
43373W        W 2909  40.399  33.118  10.451
43374W        W 2910  18.647   5.695  10.006
43375W        W 2911   3.449  39.434  12.047
43376W        W 2912  43.388  40.929  11.867
43377W        W 2913   3.263  42.890   3.830
43378W        W 2914  17.556   1.249   2.701
43379W        W 2915  16.698  21.758   0.859
43380W        W 2916  44.892  20.241  11.007
43381W        W 2917  31.570  37.074  14.305
43382W        W 2918   1.834  15.591   3.222
43383W        W 2919  11.144  28.532   2.665
43384W        W 2920  15.118   3.883   2.890
43385W        W 2921  10.748   2.291   3.182
43386W        W 2922  12.360  31.014  12.956
43387W        W 2923   8.217  11.731   1.269
43388W        W 2924  36.990  23.599  14.780
43389W        W 2925  17.095  35.921  11.437
43390W        W 2926  29.031  18.600  12.949
43391W        W 2927   3.218   5.899   2.288
43392W        W 2928  31.546  38.054  13.475
43393W        W 2929   5.703  30.067   2.319
43394W        W 2930   4.367   6.772   4.124
43395W        W 2931   1.457  25.693   2.298
43396W        W 2932  34.080  29.497   0.298
43397W        W 2933  27.016   2.286  12.572
43398W        W 2934  30.057  41.028   1.250
43399W        W 2935  24.567   3.806  13.510
43400W        W 2936   0.814  18.693  14.791
43401W        W 2937   7.246  38.983   0.895
43402W        W 2938  33.101  34.977  11.873
43403W        W 2939  41.910  30.611   3.168
43404W        W 2940  41.789  28.438   2.217
43405W        W 2941  38.474  28.051  10.600
43406W        W 2942  24.682  27.510  10.484
43407W        W 2943  16.195  10.269   3.747
43408W        W 2944  36.520  31.563  11.557
43409W        W 2945  10.305  32.464  14.918
43410W        W 2946  37.355  32.406   3.362
43411W        W 2947  27.164  16.141  11.505
43412W        W 2948  27.489  44.925  11.594
43413W        W 2949  35.097   2.930  11.405
43414W        W 2950  17.184  23.176   0.305
43415W        W 2951  28.013  42.377  12.028
43416W        W 2952  38.355  40.819  12.051
43417W        W 2953   0.834  31.559   4.340
43418W        W 2954   2.285   7.336   4.132
43419W        W 2955  33.446   7.883  12.548
43420W        W 2956  22.581  20.693   4.153
43421W        W 2957  30.023  27.068   0.839
43422W        W 2958  43.344   9.822   2.694
43423W        W 2959  31.628   5.205  14.815
43424W        W 2960   4.837  44.878   1.739
43425W        W 2961  12.220  25.051   2.815
43426W        W 2962   8.661  32.592  11.528
43427W        W 2963   1.859  20.058  11.433
43428W        W 2964  26.982   0.292   0.792
43429W        W 2965  40.420  12.763   9.928
43430W        W 2966  37.486  36.357   1.353
43431W        W 2967  24.090   3.316  12.453
43432W        W 2968   5.194  35.951  11.458
43433W        W 2969   2.370  39.454   1.403
43434W        W 2970  34.081  14.753  13.041
43435W        W 2971  17.754  39.378   4.204
43436W        W 2972  14.142  11.705   3.259
43437W        W 2973  23.241   4.893   2.736
43438W        W 2974  20.572  18.667   4.211
43439W        W 2975  18.257   2.804  14.799
43440W        W 2976  32.547  25.478   3.268
43441W        W 2977  12.852   9.729   9.995
43442W        W 2978  42.019  29.963   1.794
43443W        W 2979  41.371   5.420  14.991
43444W        W 2980  20.174  31.408   4.123
43445W        W 2981  42.805  43.784   1.216
43446W        W 2982   0.809  11.257   1.777
43447W        W 2983  19.192  41.367  14.999
43448W        W 2984   6.294  10.138   5.159
43449W        W 2985  40.527  37.428  11.490
43450W        W 2986  11.290  34.382   0.952
43451W        W 2987  18.147  22.014  12.032
43452W        W 2988   3.824  32.905  11.934
43453W        W 2989  16.187  17.614  11.917
43454W        W 2990  33.533  42.299  13.001
43455W        W 2991  26.182  10.153  13.894
43456W        W 2992  38.003  16.111  13.036
43457W        W 2993  43.289  14.326  11.525
43458W        W 2994  26.570   3.915  12.866
43459W        W 2995  20.712  29.464  14.488
43460W        W 2996  40.378  10.236  12.560
43461W        W 2997  44.307  36.926   3.275
43462W        W 2998  11.730  19.181  10.066
43463W        W 2999  28.635  40.353   0.307
43464W        W 3000  43.964  21.031   1.739
43465W        W 3001  29.093   9.361  13.956
43466W        W 3002  29.929  40.911  10.596
43467W        W 3003   7.882  31.135  14.502
43468W        W 3004  30.072  12.287   1.813
43469W        W 3005  42.857  29.133   3.772
43470W        W 3006   3.294  28.478   0.436
43471W        W 3007  11.828  19.101  12.868
43472W        W 3008  19.059  18.619  10.570
43473W        W 3009  13.602   0.768   3.717
43474W        W 3010  41.360  14.273   4.288
43475W        W 3011  31.643  21.061  12.388
43476W        W 3012  37.004   9.220   0.946
43477W        W 3013  37.371  40.979   4.333
43478W        W 3014  31.471  38.852  11.073
43479W        W 3015  41.987  34.599  14.790
43480W        W 3016   2.816  35.099  10.623
43481W        W 3017  35.516  44.916   4.670
43482W        W 3018   9.665  31.954   4.181
43483W        W 3019  35.878  36.891  14.318
43484W        W 3020  33.388   6.306  12.420
43485W        W 3021   1.863  40.324   3.696
43486W        W 3022  35.550  20.674  11.604
43487W        W 3023   4.890  11.179  10.976
43488W        W 3024  29.647   4.288   0.823
43489W        W 3025  30.465  36.528  14.312
43490W        W 3026  22.560  37.488  14.389
43491W        W 3027  37.837  25.058  14.922
43492W        W 3028  20.696   5.222   2.408
43493W        W 3029  38.074  32.105   5.257
43494W        W 3030   9.752   0.338  12.535
43495W        W 3031  11.240   5.343  13.384
43496W        W 3032  18.282  40.000  12.498
43497W        W 3033  40.988  22.996   4.352
43498W        W 3034  15.323  38.846   4.742
43499W        W 3035  30.605  23.579   3.344
43500W        W 3036   6.790  17.699  10.901
43501W        W 3037   5.817  11.790   2.280
43502W        W 3038   5.413  27.178  13.535
43503W        W 3039  23.651  43.472  10.550
43504W        W 3040  30.601  36.966   1.727
43505W        W 3041  19.137  31.032   3.221
43506W        W 3042  10.643  24.033   1.713
43507W        W 3043  27.078  39.349  12.484
43508W        W 3044  38.033   5.434  11.560
43509W        W 3045  24.517   7.199  13.482
43510W        W 3046  34.426  40.344   0.922
43511W        W 3047  22.087  27.688   2.896
43512W        W 3048  33.974  16.110   3.283
43513W        W 3049  35.468   8.318  13.483
43514W        W 3050  44.369  40.530  11.015
43515W        W 3051  38.351   9.713   0.354
43516W        W 3052  15.270   8.362   2.722
43517W        W 3053   2.367  12.192  14.376
43518W        W 3054  24.489   1.437   2.332
43519W        W 3055  29.497  17.738   0.965
43520W        W 3056  37.951  41.911  13.492
43521W        W 3057   8.863   6.806   9.639
43522W        W 3058   8.333  29.029   0.466
43523W        W 3059  34.056  41.478   4.294
43524W        W 3060  30.569   6.837  14.937
43525W        W 3061   3.369  39.915  13.455
43526W        W 3062  16.699  18.609   2.327
43527W        W 3063  34.525  22.112  11.372
43528W        W 3064  11.688  35.034   0.454
43529W        W 3065  44.345  40.838  14.025
43530W        W 3066   7.762   9.292   3.660
43531W        W 3067  11.271  34.885  12.499
43532W        W 3068  37.431   8.195  12.887
43533W        W 3069  42.779  40.497  13.811
43534W        W 3070  44.982   4.910   1.443
43535W        W 3071  44.813  15.785   4.818
43536W        W 3072  29.102   3.404   3.713
43537W        W 3073  44.799   5.790   1.811
43538W        W 3074  32.955  35.079   1.911
43539W        W 3075   8.197  24.164   0.422
43540W        W 3076  29.145  18.658  13.369
43541W        W 3077   7.181  32.082  11.382
43542W        W 3078  10.367  33.411  10.561
43543W        W 3079  31.988   4.427  11.461
43544W        W 3080  20.241   3.949  11.869
43545W        W 3081  18.559  36.474  12.966
43546W        W 3082  28.018  35.014  12.477
43547W        W 3083  33.626  13.240  13.389
43548W        W 3084  28.531  10.646  11.549
43549W        W 3085  42.013  10.819   1.228
43550W        W 3086  34.042  18.083  12.887
43551W        W 3087  10.805  36.044  10.461
43552W        W 3088  12.806  12.226   4.321
43553W        W 3089  24.603   7.770   3.259
43554W        W 3090   5.365  25.975  14.920
43555W        W 3091  29.601  28.957  14.775
43556W        W 3092  40.030  21.055   3.864
43557W        W 3093  17.740  28.140  14.978
43558W        W 3094   5.301  35.906   0.278
43559W        W 3095  40.042  37.016  13.920
43560W        W 3096  31.467  43.486  14.943
43561W        W 3097  21.214   8.344   0.930
43562W        W 3098  40.819   4.722   4.284
43563W        W 3099  43.888   9.288  13.850
43564W        W 3100   5.891  24.523  11.110
43565W        W 3101   2.392  43.372   3.675
43566W        W 3102  20.575  15.322   2.272
43567W        W 3103  23.512   2.833   4.226
43568W        W 3104  19.114   8.852   0.830
43569W        W 3105  27.462   5.328   4.618
43570W        W 3106  31.071  39.510   1.263
43571W        W 3107   3.292  16.770   3.145
43572W        W 3108  13.167  21.712   1.321
43573W        W 3109  32.138  43.867   0.771
43574W        W 3110  16.150  30.447   4.292
43575W        W 3111  21.085  16.593  12.045
43576W        W 3112  36.467  24.163  13.472
43577W        W 3113  44.390  40.036   4.142
43578W        W 3114  38.948  34.984   0.352
43579W        W 3115  31.104  22.019  13.379
43580W        W 3116  18.128   8.253   4.799
43581W        W 3117   2.307  13.134  11.883
43582W        W 3118  33.438  34.062   3.155
43583W        W 3119   9.658  23.095   1.820
43584W        W 3120  18.258  17.068  14.328
43585W        W 3121  15.241  27.119   1.248
43586W        W 3122  22.079  16.278   0.351
43587W        W 3123  10.351   6.366  11.043
43588W        W 3124  10.798  25.618   9.651
43589W        W 3125  38.568  38.979  11.976
43590W        W 3126   0.912  43.767  11.611
43591W        W 3127   3.341  17.612  12.061
43592W        W 3128  16.119  21.113   3.635
43593W        W 3129   2.266   9.236   2.846
43594W        W 3130  35.014  27.023  13.397
43595W        W 3131  31.921  30.631   1.749
43596W        W 3132  18.146  10.316  13.316
43597W        W 3133  23.590  35.028   2.806
43598W        W 3134   0.367  14.770  10.577
43599W        W 3135  15.614  34.488  14.867
43600W        W 3136  19.610  21.106  12.897
43601W        W 3137  32.556  29.448   3.340
43602W        W 3138   8.677  15.297   4.175
43603W        W 3139  21.641  40.441  12.393
43604W        W 3140   8.812   8.781   2.694
43605W        W 3141  11.765  42.510   1.818
43606W        W 3142  25.528  20.645  10.585
43607W        W 3143   4.325  25.008  10.977
43608W        W 3144  30.971  26.170   0.440
43609W        W 3145  44.874  35.918   3.147
43610W        W 3146  18.681  30.909   2.212
43611W        W 3147  39.886  32.096   1.728
43612W        W 3148  34.396  28.472   9.956
43613W        W 3149  10.647   4.318  12.878
43614W        W 3150  27.681   0.814  11.593
43615W        W 3151  40.450  34.926   4.353
43616W        W 3152  26.527  22.609   0.943
43617W        W 3153  34.878   7.875  11.038
43618W        W 3154  12.854  18.738  14.333
43619W        W 3155   6.335  22.243   2.746
43620W        W 3156  34.546   3.801   4.242
43621W        W 3157  22.063   8.768   3.238
43622W        W 3158   6.353  20.075   3.381
43623W        W 3159  33.924  23.630  14.409
43624W        W 3160  34.980  20.644  13.449
43625W        W 3161  23.699  33.490   5.270
43626W        W 3162  13.787  14.223  12.560
43627W        W 3163  22.679  25.158  13.038
43628W        W 3164  37.555  11.293   2.773
43629W        W 3165  32.906  31.425   2.267
43630W        W 3166  29.444  34.890  12.934
43631W        W 3167  22.055  39.437   2.832
43632W        W 3168  21.554  27.972   3.258
43633W        W 3169  36.521   5.326  10.993
43634W        W 3170   7.830  21.753  11.946
43635W        W 3171  19.575  22.584  13.976
43636W        W 3172   2.895   0.302  10.489
43637W        W 3173  17.774  19.579  10.516
43638W        W 3174  38.040  12.783  14.826
43639W        W 3175   1.788   7.764   0.864
43640W        W 3176  29.607  23.632  14.892
43641W        W 3177  23.731  12.766  10.979
43642W        W 3178  42.976  16.231  12.548
43643W        W 3179  25.181  16.101   0.929
43644W        W 3180  22.233  27.597   1.893
43645W        W 3181   1.781  43.474  13.795
43646W        W 3182  42.950  32.490  14.765
43647W        W 3183  26.556  18.671  14.801
43648W        W 3184  33.571  35.364  13.034
43649W        W 3185  26.631  33.957   2.393
43650W        W 3186   5.362   0.412   4.340
43651W        W 3187   3.453   0.458  11.404
43652W        W 3188   0.960  15.786   5.133
43653W        W 3189  26.697   3.804   0.323
43654W        W 3190  32.435  35.951  13.845
43655W        W 3191  40.034   3.399  12.945
43656W        W 3192  42.359  37.919  10.897
43657W        W 3193  43.386  29.640   2.273
43658W        W 3194  18.707  38.480  12.854
43659W        W 3195  32.416  41.320   1.380
43660W        W 3196  24.065  27.187   3.247
43661W        W 3197  31.972  29.494  13.517
43662W        W 3198  28.666  25.058   2.217
43663W        W 3199  10.231  27.123  13.918
43664W        W 3200  38.070  11.848  14.414
43665W        W 3201  36.976  14.111  10.980
43666W        W 3202  34.950  28.596  14.010
43667W        W 3203  14.600   7.806   3.731
43668W        W 3204  17.307  25.681   0.818
43669W        W 3205   1.371   3.835  10.624
43670W        W 3206  36.409  28.031   0.414
43671W        W 3207  21.208  26.116  10.591
43672W        W 3208  36.471   2.432   5.164
43673W        W 3209  43.982   3.347   0.337
43674W        W 3210   2.876  13.671  12.954
43675W        W 3211  35.518  21.518   0.425
43676W        W 3212  12.231   0.287   2.292
43677W        W 3213  26.635  11.792  14.479
43678W        W 3214  43.496  26.604  11.611
43679W        W 3215  19.118  23.165  14.805
43680W        W 3216  14.280  25.091  12.422
43681W        W 3217  28.142  30.417  10.489
43682W        W 3218  29.591  36.578   4.813
43683W        W 3219  35.917  10.661   1.392
43684W        W 3220  12.807   7.908   3.301
43685W        W 3221  30.491   3.923   0.906
43686W        W 3222  29.462  27.646  13.366
43687W        W 3223  29.976  38.564   1.889
43688W        W 3224   7.295  19.726   0.343
43689W        W 3225  26.180  33.055   0.935
43690W        W 3226  29.571  35.001  12.539
43691W        W 3227  13.713   6.913  14.925
43692W        W 3228  13.342  18.178   1.858
43693W        W 3229  38.832  32.107  10.610
43694W        W 3230  23.621  19.774  10.463
43695W        W 3231   8.757   4.247  11.588
43696W        W 3232   4.785  31.945   3.734
43697W        W 3233  20.716  26.578  10.471
43698W        W 3234   7.786   8.237   4.781
43699W        W 3235  27.554  22.153   3.238
43700W        W 3236  44.447   0.848   2.393
43701W        W 3237  27.940  20.185   0.386
43702W        W 3238  29.050  30.599  12.432
43703W        W 3239  35.013  41.412   4.206
43704W        W 3240  11.822  25.188  10.997
43705W        W 3241   8.787  33.997  14.015
43706W        W 3242  31.927   6.744   0.754
43707W        W 3243  22.741  38.544   3.683
43708W        W 3244  22.609  41.483  14.426
43709W        W 3245  22.098   3.223   2.679
43710W        W 3246   8.744  13.675  10.910
43711W        W 3247  18.711  35.455  10.568
43712W        W 3248   3.926  25.705  13.881
43713W        W 3249  30.549  13.193   2.794
43714W        W 3250  11.696  44.471   3.317
43715W        W 3251  26.038  21.518   2.862
43716W        W 3252   7.412  11.183  10.987
43717W        W 3253  33.405  28.484   3.150
43718W        W 3254  21.249  32.040   0.834
43719W        W 3255  31.405  12.738   1.387
43720W        W 3256  40.979  22.729   0.336
43721W        W 3257  13.722   8.281  14.804
43722W        W 3258   8.356  42.494  14.767
43723W        W 3259  38.430  42.510   0.329
43724W        W 3260   2.740  24.176   3.309
43725W        W 3261  34.065  39.008  13.945
43726W        W 3262  43.772  43.941  10.416
43727W        W 3263  18.630  14.249  12.879
43728W        W 3264  18.071  17.786  14.299
43729W        W 3265   1.365  29.538  12.833
43730W        W 3266  34.583  11.726   1.792
43731W        W 3267   8.750  35.872  11.498
43732W        W 3268   4.790  10.371   1.423
43733W        W 3269  37.949  10.753   0.273
43734W        W 3270  33.420   1.814   1.753
43735W        W 3271  27.089  16.764   2.181
43736W        W 3272   9.747  19.180  14.910
43737W        W 3273  10.809  31.440  13.490
43738W        W 3274  31.490  25.056   3.358
43739W        W 3275   6.913  40.378   4.194
43740W        W 3276  25.669  36.557   2.894
43741W        W 3277  14.151   9.731   1.449
43742W        W 3278   5.895   8.396   1.750
43743W        W 3279  40.387  11.240   1.419
43744W        W 3280  24.562  43.476  14.305
43745W        W 3281   1.892  44.459   4.170
43746W        W 3282  36.424  20.585  13.395
43747W        W 3283  38.832  40.988  11.466
43748W        W 3284  42.315   8.812  14.456
43749W        W 3285  41.792  21.137  12.480
43750W        W 3286  18.655  32.470  11.482
43751W        W 3287  20.110  24.670  11.597
43752W        W 3288  36.925  30.092  13.918
43753W        W 3289  40.798  35.412  10.501
43754W        W 3290   8.174  13.189   0.956
43755W        W 3291   2.263   3.304  12.442
43756W        W 3292  23.153  42.376  10.556
43757W        W 3293  12.305   0.338  13.987
43758W        W 3294   0.757   5.439  10.998
43759W        W 3295  28.976  10.274  10.609
43760W        W 3296  15.121  20.204   2.352
43761W        W 3297   5.381  20.248   3.863
43762W        W 3298  20.229  13.274  10.644
43763W        W 3299  43.422  32.564   0.377
43764W        W 3300  17.276  37.342   1.812
43765W        W 3301  14.695  36.364   3.677
43766W        W 3302  40.018  40.857   3.680
43767W        W 3303   4.263  33.912  10.506
43768W        W 3304  41.505  24.703   2.713
43769W        W 3305  26.645  14.683   1.358
43770W        W 3306  23.100  27.604  14.406
43771W        W 3307  17.301  26.502  10.097
43772W        W 3308  26.028  14.259  12.857
43773W        W 3309  40.980  14.741  13.328
43774W        W 3310  17.575  35.952  14.346
43775W        W 3311  42.291  23.553   4.285
43776W        W 3312  22.009  19.689  13.041
43777W        W 3313   0.425  30.531   1.934
43778W        W 3314  14.661  18.790   4.708
43779W        W 3315  40.976  31.973   1.335
43780W        W 3316  34.465  14.333   0.732
43781W        W 3317  38.936  27.059  14.918
43782W        W 3318  32.971   8.740  10.558
43783W        W 3319  18.149   2.349   0.303
43784W        W 3320   6.853  16.212  11.081
43785W        W 3321   8.892   4.921   1.863
43786W        W 3322  34.460   8.212   2.184
43787W        W 3323   7.217   6.780  11.952
43788W        W 3324  22.528  24.197   4.681
43789W        W 3325  25.130  43.773   0.836
43790W        W 3326  33.093  39.468   4.795
43791W        W 3327   4.259  18.202  10.462
43792W        W 3328  26.688  13.764   4.789
43793W        W 3329   0.878  23.225   5.582
43794W        W 3330  16.761  32.446   1.448
43795W        W 3331   7.859  17.134   4.783
43796W        W 3332  21.235   8.265   5.296
43797W        W 3333   2.848  38.507   3.387
43798W        W 3334  14.594  20.604  12.938
43799W        W 3335  38.857  42.829  10.498
43800W        W 3336  43.848  34.924   1.760
43801W        W 3337   3.777  41.428  14.925
43802W        W 3338  26.954  43.315  11.858
43803W        W 3339  36.586  38.557   2.728
43804W        W 3340  29.060  43.387   0.325
43805W        W 3341  34.503   8.229  11.917
43806W        W 3342  34.095  35.534   4.682
43807W        W 3343  41.872  37.428   0.871
43808W        W 3344  14.618  21.556   1.309
43809W        W 3345  30.142  28.083  13.369
43810W        W 3346  24.013   2.743  11.467
43811W        W 3347  26.990  44.433  10.467
43812W        W 3348  15.195   0.430  13.545
43813W        W 3349  26.559  34.923  14.977
43814W        W 3350   1.799  22.633   2.338
43815W        W 3351  28.666  44.776  14.950
43816W        W 3352  22.595  13.643  12.018
43817W        W 3353  28.539  12.800   1.272
43818W        W 3354  42.352  14.213   0.473
43819W        W 3355  19.187  15.636  10.423
43820W        W 3356  32.557   7.770  10.404
43821W        W 3357  40.814   4.826  11.517
43822W        W 3358  32.437  28.118  13.869
43823W        W 3359   6.753  19.191  12.416
43824W        W 3360   9.711  19.670   2.299
43825W        W 3361  41.509  11.712   3.320
43826W        W 3362  41.793   6.860  13.496
43827W        W 3363   3.384  38.968  13.911
43828W        W 3364  28.659  43.952   4.677
43829W        W 3365  24.609  29.990   2.767
43830W        W 3366  40.471  12.752  14.321
43831W        W 3367  42.310  38.406  11.037
43832W        W 3368  11.319  24.481   0.966
43833W        W 3369   4.711  17.673   3.848
43834W        W 3370  27.670  26.524   4.307
43835W        W 3371  41.314  30.143   4.813
43836W        W 3372  30.152  15.645   4.644
43837W        W 3373  34.942   0.329   9.956
43838W        W 3374  40.031  25.169   3.652
43839W        W 3375   1.448  12.808   1.373
43840W        W 3376  24.721   4.218   2.899
43841W        W 3377  16.231  31.057  12.953
43842W        W 3378  12.284  25.059   1.799
43843W        W 3379  23.129  21.742  12.460
43844W        W 3380   1.248  17.179   0.279
43845W        W 3381  25.519  39.349  12.009
43846W        W 3382   2.858  23.540   2.672
43847W        W 3383  44.428  10.771   3.246
43848W        W 3384  40.498  20.768   2.873
43849W        W 3385   2.924  42.408  12.933
43850W        W 3386   5.431  40.001   2.247
43851W        W 3387   9.314  15.306  13.979
43852W        W 3388  39.551  26.058  11.030
43853W        W 3389   5.338  30.595  10.548
43854W        W 3390  31.134  13.636   0.356
43855W        W 3391   8.268  28.566  14.476
43856W        W 3392   0.987  25.076   1.345
43857W        W 3393  25.128  25.983  10.939
43858W        W 3394  10.199  34.016  14.505
43859W        W 3395  38.960  28.449  14.885
43860W        W 3396  30.917  33.380   2.322
43861W        W 3397   1.913   8.345  14.814
43862W        W 3398  41.404   7.375  13.335
43863W        W 3399   9.167  26.160  12.357
43864W        W 3400  22.724   1.953  11.498
43865W        W 3401  13.328  35.395   4.724
43866W        W 3402  10.242  33.953   3.184
43867W        W 3403  32.982  22.594  13.400
43868W        W 3404  31.013  28.118   0.936
43869W        W 3405  42.411   9.767  11.421
43870W        W 3406  25.530  39.397  14.837
43871W        W 3407  25.702   7.840   5.255
43872W        W 3408  23.690   6.370  14.025
43873W        W 3409   1.447   7.274  14.018
43874W        W 3410  13.348   9.816   9.469
43875W        W 3411  38.331  38.384  14.275
43876W        W 3412   2.876  44.906  10.902
43877W        W 3413  22.648  41.403  13.004
43878W        W 3414   4.884  14.604   2.339
43879W        W 3415  32.436   5.420  14.314
43880W        W 3416  20.067  16.243  11.582
43881W        W 3417  31.034  13.206   0.321
43882W        W 3418  34.895  21.532   4.813
43883W        W 3419   7.374  30.423  10.437
43884W        W 3420  18.550  22.108  14.024
43885W        W 3421  14.296  40.883  11.062
43886W        W 3422  33.075  16.758   4.683
43887W        W 3423   5.721  16.735   4.257
43888W        W 3424  25.652  15.596   0.908
43889W        W 3425   0.296   0.911   1.314
43890W        W 3426  17.099   4.414  11.945
43891W        W 3427   8.724  26.128   2.900
43892W        W 3428  36.462   4.204   1.411
43893W        W 3429   3.813   9.654  11.477
43894W        W 3430   0.303  13.129   5.256
43895W        W 3431  27.623  31.131   3.710
43896W        W 3432  13.599  33.515   1.749
43897W        W 3433  17.213  24.582  10.458
43898W        W 3434  11.132  38.517  11.030
43899W        W 3435  41.324  31.918  13.972
43900W        W 3436  22.123  15.169   4.636
43901W        W 3437  19.677  12.761   1.237
43902W        W 3438  34.884  22.744  10.154
43903W        W 3439  32.988  31.921  13.384
43904W        W 3440   1.873   4.294  10.975
43905W        W 3441  15.163  15.176   3.804
43906W        W 3442  20.112  15.740  13.433
43907W        W 3443  39.844  24.511  11.441
43908W        W 3444  36.590  18.116  12.840
43909W        W 3445  13.169  28.151   4.606
43910W        W 3446  22.685  33.918   5.131
43911W        W 3447  10.775   8.803   2.721
43912W        W 3448  43.308  19.243  12.838
43913W        W 3449   0.817   6.887   3.176
43914W        W 3450   8.257  26.510   2.209
43915W        W 3451  41.817  33.537   0.332
43916W        W 3452  43.002  29.979  11.429
43917W        W 3453  12.307  26.961   0.413
43918W        W 3454  22.745  26.560  12.411
43919W        W 3455  38.062  19.619   4.123
43920W        W 3456  38.491  41.297   2.297
43921W        W 3457  30.506   7.719  13.020
43922W        W 3458   6.223  42.328  13.483
43923W        W 3459  30.558  33.476  10.917
43924W        W 3460   5.220  18.649  14.812
43925W        W 3461  16.289  34.871   1.219
43926W        W 3462  34.572   2.915   1.859
43927W        W 3463   1.283   5.785  13.503
43928W        W 3464   9.355  18.276  11.925
43929W        W 3465  25.119   0.808  11.442
43930W        W 3466  12.351  14.768   3.271
43931W        W 3467  12.620  11.756  13.858
43932W        W 3468  28.599  35.408   4.167
43933W        W 3469  35.011  23.142  14.417
43934W        W 3470   2.945  21.598   0.443
43935W        W 3471  29.588  30.029   2.878
43936W        W 3472  10.230  21.528  10.438
43937W        W 3473  21.553  32.080   2.338
43938W        W 3474  41.905  10.712  14.807
43939W        W 3475  39.414  41.335   1.378
43940W        W 3476  12.641  10.209   1.297
43941W        W 3477  19.126   9.228   1.386
43942W        W 3478  18.092  18.201  14.949
43943W        W 3479  11.188  35.394  14.022
43944W        W 3480  39.438  21.671   0.463
43945W        W 3481  40.023  19.153   2.812
43946W        W 3482  44.935  29.538  10.929
43947W        W 3483  29.108  40.831  11.605
43948W        W 3484  32.616  23.669  12.904
43949W        W 3485  12.652  42.450   0.426
43950W        W 3486  39.016   1.339  13.507
43951W        W 3487  31.058  24.171  12.057
43952W        W 3488  20.711  39.528   1.786
43953W        W 3489  17.251  15.636   0.358
43954W        W 3490  28.451  11.670  11.524
43955W        W 3491  29.585  15.691  12.516
43956W        W 3492  36.057  14.251  12.368
43957W        W 3493   7.690  13.648   1.793
43958W        W 3494   8.791  38.828  11.884
43959W        W 3495  39.895   2.355   3.755
43960W        W 3496  25.078   2.448   2.798
43961W        W 3497   0.894  12.159   2.708
43962W        W 3498  31.546  22.009  11.607
43963W        W 3499  28.634   2.462   3.762
43964W        W 3500  31.945   9.872  13.336
43965W        W 3501   0.796  33.454   4.708
43966W        W 3502  41.534   5.347  10.625
43967W        W 3503  15.779  32.131   4.631
43968W        W 3504  19.187  18.273  13.838
43969W        W 3505  24.193   7.382   0.292
43970W        W 3506  42.368  12.228  12.564
43971W        W 3507  20.193  42.008  12.573
43972W        W 3508  10.370  18.773  12.967
43973W        W 3509  14.599  28.586  14.894
43974W        W 3510  35.477  21.246  11.580
43975W        W 3511   0.789   1.307  10.606
43976W        W 3512  31.097  30.025  11.526
43977W        W 3513  17.692  19.728   4.183
43978W        W 3514  17.146  24.210   4.207
43979W        W 3515  34.375  34.614   3.709
43980W        W 3516  39.354  17.743  14.403
43981W        W 3517  28.567  31.598   0.952
43982W        W 3518  31.512   5.236  11.955
43983W        W 3519  30.067  22.039  13.528
43984W        W 3520  13.200   1.895  10.922
43985W        W 3521   4.828   4.281   3.360
43986W        W 3522  13.618  23.493   2.670
43987W        W 3523  19.154  39.839   4.320
43988W        W 3524   3.363  39.434   1.299
43989W        W 3525  15.254   9.851  13.430
43990W        W 3526  33.394  40.381  12.465
43991W        W 3527  26.000  11.731  14.363
43992W        W 3528  14.268  22.737   1.785
43993W        W 3529   7.341  23.503  11.003
43994W        W 3530  44.957  36.043  10.991
43995W        W 3531  13.788  34.040   1.803
43996W        W 3532  26.694  34.906   1.215
43997W        W 3533   7.190   1.327   3.781
43998W        W 3534   1.396  34.542   0.879
43999W        W 3535  32.993  17.646   3.275
44000W        W 3536  28.638   4.912   3.765
44001W        W 3537  14.274  10.275  12.398
44002W        W 3538  43.961  16.090   5.321
44003W        W 3539   5.756  35.462  14.305
44004W        W 3540  34.614  20.238   2.401
44005W        W 3541  16.709  25.576  11.866
44006W        W 3542   4.253  10.759  12.534
44007W        W 3543  16.177  30.030  14.962
44008W        W 3544   2.865  14.164   5.246
44009W        W 3545  10.708  31.491  10.625
44010W        W 3546  28.961   7.777   1.918
44011W        W 3547  15.247  15.161   4.204
44012W        W 3548   6.402  24.500   2.710
44013W        W 3549   0.971  34.047   2.325
44014W        W 3550  29.645  41.412  10.437
44015W        W 3551  16.211  18.590  12.850
44016W        W 3552   9.669  39.861   3.268
44017W        W 3553  21.697   0.312  12.895
44018W        W 3554  20.679   0.390  11.027
44019W        W 3555  42.010   0.253  13.910
44020W        W 3556  28.562   6.338  12.418
44021W        W 3557  31.507  16.598  14.811
44022W        W 3558  14.795   2.929   4.152
44023W        W 3559  28.120   2.244  13.340
44024W        W 3560  40.024  37.845   0.904
44025W        W 3561  26.171   7.821  12.447
44026W        W 3562  25.175  22.151  14.418
44027W        W 3563  11.750  26.467   3.801
44028W        W 3564  29.993  21.031  11.480
44029W        W 3565   2.243  36.458  11.609
44030W        W 3566  32.436  38.884  12.410
44031W        W 3567   5.755  23.046  12.079
44032W        W 3568  31.586  11.256  14.967
44033W        W 3569  13.222   9.360  13.418
44034W        W 3570  30.942  39.872   0.925
44035W        W 3571  44.958  15.583   3.312
44036W        W 3572  25.616  29.581  13.346
44037W        W 3573  26.205   7.858   1.721
44038W        W 3574  10.302  23.513   9.936
44039W        W 3575  43.408  20.260   3.181
44040W        W 3576   8.853  41.414  13.359
44041W        W 3577  18.161  18.642   3.253
44042W        W 3578  25.587  18.668  10.068
44043W        W 3579  31.943  30.053  12.419
44044W        W 3580  37.832   4.943   2.867
44045W        W 3581  18.719  30.943  14.336
44046W        W 3582   2.758  14.209   2.389
44047W        W 3583  32.902  15.208  13.354
44048W        W 3584  11.835  39.392   9.959
44049W        W 3585  35.026  30.526  10.429
44050W        W 3586  18.597  33.126  10.471
44051W        W 3587  30.557  11.275   0.808
44052W        W 3588  24.042  12.670  14.289
44053W        W 3589  25.595  25.154   1.308
44054W        W 3590  12.653  39.852   0.267
44055W        W 3591   8.710   5.356  11.470
44056W        W 3592  25.999  24.532  10.485
44057W        W 3593   8.315  30.978  14.856
44058W        W 3594  35.457   7.791   2.900
44059W        W 3595  32.124  35.964   2.253
44060W        W 3596  11.173  30.632   2.403
44061W        W 3597   7.184  18.120   3.694
44062W        W 3598  13.330  22.676   1.432
44063W        W 3599   8.774  11.768   5.201
44064W        W 3600  21.216  21.590   1.306
44065W        W 3601  15.782  42.919  12.082
44066W        W 3602  36.365  36.427   4.798
44067W        W 3603   6.727  38.029  11.098
44068W        W 3604  10.633  27.519  13.314
44069W        W 3605  28.590  38.007  10.421
44070W        W 3606  42.371   2.390  13.001
44071W        W 3607  14.654  34.915   1.776
44072W        W 3608   3.763   1.379   0.277
44073W        W 3609  15.142  29.642   3.254
44074W        W 3610  28.491  32.106   2.259
44075W        W 3611   2.829  20.557  11.502
44076W        W 3612   9.353  10.715  14.858
44077W        W 3613  37.041  44.847  10.414
44078W        W 3614  26.596  26.523  12.402
44079W        W 3615  35.061   8.289  10.962
44080W        W 3616  10.223  19.696   1.756
44081W        W 3617  13.669  14.724   3.378
44082W        W 3618  38.473  35.924  12.401
44083W        W 3619  20.271  19.209   0.274
44084W        W 3620   4.894  23.621  10.597
44085W        W 3621   3.425   8.893   4.680
44086W        W 3622  44.342  39.557  10.916
44087W        W 3623  34.506  37.965  12.370
44088W        W 3624   6.899  12.760  11.077
44089W        W 3625  39.960  20.203   0.290
44090W        W 3626  32.024   5.205  13.828
44091W        W 3627  12.680  37.355   3.849
44092W        W 3628  30.609  13.775  14.853
44093W        W 3629  25.560   3.777  14.006
44094W        W 3630  34.900  39.471  12.054
44095W        W 3631  21.654  44.293  10.035
44096W        W 3632  26.010  43.929  11.973
44097W        W 3633  13.731  13.326  14.796
44098W        W 3634  27.518  38.570   4.770
44099W        W 3635  25.069   6.310  11.565
44100W        W 3636  29.165  38.010   3.770
44101W        W 3637  14.725  14.132   2.722
44102W        W 3638  33.538  13.143  14.948
44103W        W 3639  28.525  15.170   2.703
44104W        W 3640  27.198  12.308  11.398
44105W        W 3641  31.931   4.358   0.296
44106W        W 3642  22.101   3.418  12.464
44107W        W 3643  40.311  24.693  13.919
44108W        W 3644  10.230  44.357  12.957
44109W        W 3645  41.887  30.112  12.964
44110W        W 3646   8.895  14.300  13.861
44111W        W 3647  14.167   3.833   5.295
44112W        W 3648  24.529  29.170   1.415
44113W        W 3649  35.593  17.735   2.344
44114W        W 3650  32.578  20.206   3.254
44115W        W 3651  42.409  44.787  10.498
44116W        W 3652  20.193  19.199  13.891
44117W        W 3653  40.364  12.624   2.703
44118W        W 3654  30.992  17.680   2.316
44119W        W 3655   9.290   3.816   4.794
44120W        W 3656  26.078  20.734  14.483
44121W        W 3657  22.534  42.406   3.268
44122W        W 3658  22.691   3.408   1.240
44123W        W 3659  25.563  17.675   1.884
44124W        W 3660  29.974  34.541   4.224
44125W        W 3661  22.056  40.970   3.639
44126W        W 3662  19.662  28.515  11.051
44127W        W 3663  39.455  11.742   2.687
44128W        W 3664  32.965  15.696   0.388
44129W        W 3665   4.754  13.800  11.861
44130W        W 3666  10.636  13.209   2.376
44131W        W 3667   0.316  44.931  12.503
44132W        W 3668   6.829  37.440   3.241
44133W        W 3669  34.458  25.641   9.509
44134W        W 3670  25.602  41.880   0.847
44135W        W 3671  19.043  31.089  13.386
44136W        W 3672  38.074  22.610   0.421
44137W        W 3673  25.205  27.564   1.219
44138W        W 3674   2.773  22.089  14.857
44139W        W 3675  12.682  40.004   2.882
44140W        W 3676  20.668  17.623  10.939
44141W        W 3677  31.597   5.852  13.853
44142W        W 3678  32.930   6.683  12.013
44143W        W 3679  42.976  20.154   1.358
44144W        W 3680  20.203  21.170   0.466
44145W        W 3681  15.323   0.980   2.181
44146W        W 3682  15.109  29.060   0.911
44147W        W 3683  36.941  23.600   3.852
44148W        W 3684  39.814  33.008  10.943
44149W        W 3685  31.139  32.450  13.476
44150W        W 3686  33.528  21.686   1.274
44151W        W 3687   7.287   4.221   4.123
44152W        W 3688  12.181  12.847  12.887
44153W        W 3689  12.774  27.117  10.919
44154W        W 3690  42.776  42.876  11.401
44155W        W 3691   8.343  24.034  12.013
44156W        W 3692   0.977  20.267   1.823
44157W        W 3693  12.156  38.987  11.902
44158W        W 3694  37.568  43.478  13.515
44159W        W 3695  39.061  43.911  12.980
44160W        W 3696  18.256   9.199   2.410
44161W        W 3697  13.223  39.369  14.832
44162W        W 3698  11.221  23.219   3.721
44163W        W 3699  13.175  29.007   1.416
44164W        W 3700   6.292  20.747   3.631
44165W        W 3701  11.185  41.971   0.258
44166W        W 3702  17.572  43.905   4.202
44167W        W 3703  18.709  13.288   3.664
44168W        W 3704  26.487  13.767   2.688
44169W        W 3705  37.534   1.962  11.956
44170W        W 3706   8.765   7.301   4.812
44171W        W 3707  33.887  42.324   2.872
44172W        W 3708  35.547   1.299  12.434
44173W        W 3709  41.360   4.883   4.340
44174W        W 3710  37.853  12.202   4.136
44175W        W 3711  28.515  37.412  11.860
44176W        W 3712   1.886  42.838  12.371
44177W        W 3713  13.259  37.858  10.508
44178W        W 3714  31.503  41.521   1.275
44179W        W 3715  11.151   6.364  11.392
44180W        W 3716  21.561  26.594  10.953
44181W        W 3717  41.857  40.948  14.380
44182W        W 3718   7.406  22.026  10.482
44183W        W 3719  26.519   7.754  12.426
44184W        W 3720  10.745   2.911   0.818
44185W        W 3721   2.961  35.086   3.350
44186W        W 3722  37.525  22.007   3.730
44187W        W 3723  18.291  37.353  12.409
44188W        W 3724   6.406  32.950   4.796
44189W        W 3725  37.870  13.228  13.896
44190W        W 3726  36.942   6.864  11.006
44191W        W 3727   2.303  17.604  11.085
44192W        W 3728  19.771  41.482  12.419
44193W        W 3729  18.710  44.280  12.008
44194W        W 3730  40.017  13.809   4.691
44195W        W 3731   3.771   8.213  13.806
44196W        W 3732  38.411  16.244  14.865
44197W        W 3733  26.094  15.710  10.996
44198W        W 3734  29.608   0.977   3.645
44199W        W 3735  37.353   9.818   3.660
44200W        W 3736  39.895  38.997  14.911
44201W        W 3737   3.711  29.134  11.107
44202W        W 3738  32.094  26.577  12.466
44203W        W 3739  43.367  33.882  10.418
44204W        W 3740   5.302  41.315  12.937
44205W        W 3741  10.179   5.398  13.063
44206W        W 3742  37.029  13.174   0.929
44207W        W 3743  21.171   0.889   0.865
44208W        W 3744   1.866  37.506  11.554
44209W        W 3745  40.443  17.186  12.038
44210W        W 3746  37.921  34.456  14.812
44211W        W 3747  23.208   7.736   3.277
44212W        W 3748  41.441  39.963   4.187
44213W        W 3749  21.755  30.546  11.435
44214W        W 3750   7.786  22.115   0.453
44215W        W 3751   0.455  24.104   2.221
44216W        W 3752  39.484  23.646   2.375
44217W        W 3753  29.992  24.528  14.904
44218W        W 3754  14.320  21.686   4.349
44219W        W 3755  43.480  32.893  11.025
44220W        W 3756  13.706  33.059   1.441
44221W        W 3757  19.244  41.798   3.188
44222W        W 3758   9.283  25.516   4.608
44223W        W 3759  18.264   5.252  10.472
44224W        W 3760  22.713  37.378   3.348
44225W        W 3761  25.495   0.892  11.487
44226W        W 3762  24.590  18.700  12.909
44227W        W 3763  17.266  21.572  13.347
44228W        W 3764   3.792   1.745   1.761
44229W        W 3765  26.476  18.592   0.360
44230W        W 3766  11.182  22.636  14.398
44231W        W 3767  16.235   9.813  14.431
44232W        W 3768  22.009  19.273  13.836
44233W        W 3769   0.261  43.765  13.932
44234W        W 3770  21.584  37.996  10.549
44235W        W 3771   7.402  44.811  11.460
44236W        W 3772  12.843  19.777  14.803
44237W        W 3773  44.980  14.724   0.468
44238W        W 3774  25.102   8.194   0.263
44239W        W 3775  22.092  29.607  12.448
44240W        W 3776  31.603  22.594  10.010
44241W        W 3777   6.221  26.649   1.217
44242W        W 3778  36.359  20.216  14.489
44243W        W 3779  27.005  35.085   2.205
44244W        W 3780  30.973   0.912   3.777
44245W        W 3781  39.554   7.794  13.373
44246W        W 3782  20.255  18.624   1.320
44247W        W 3783  12.800  33.396   2.759
44248W        W 3784  39.501  29.441  10.478
44249W        W 3785  39.394  20.531  12.952
44250W        W 3786  24.653   0.937  14.948
44251W        W 3787   4.321  11.253  14.980
44252W        W 3788  15.310  22.008   0.847
44253W        W 3789  25.702  23.178   4.623
44254W        W 3790   0.311   3.428  12.879
44255W        W 3791  16.290  20.699   0.810
44256W        W 3792  23.238  21.687   1.274
44257W        W 3793  18.154  43.283  11.080
44258W        W 3794  38.836  30.613   1.395
44259W        W 3795  22.698  43.874   2.725
44260W        W 3796   7.207  18.283  13.053
44261W        W 3797  19.225  29.648   3.786
44262W        W 3798  12.812   9.215   1.746
44263W        W 3799  18.189  11.680   3.284
44264W        W 3800  26.090  18.633   0.769
44265W        W 3801  27.613   9.690  10.511
44266W        W 3802  24.107  16.577  13.866
44267W        W 3803  24.504  14.793   3.186
44268W        W 3804  30.414   7.702  13.526
44269W        W 3805   1.786  12.182   1.240
44270W        W 3806   3.869  29.155  14.460
44271W        W 3807   6.421  37.422   1.252
44272W        W 3808   8.218  10.807   0.484
44273W        W 3809  22.678  16.217   4.640
44274W        W 3810  20.188  17.095   4.818
44275W        W 3811  22.101  19.269   3.868
44276W        W 3812  36.913  10.832   2.802
44277W        W 3813  40.504   1.334  12.353
44278W        W 3814  27.994  31.907   2.854
44279W        W 3815  13.764  43.962  11.948
44280W        W 3816  31.543  20.530  11.468
44281W        W 3817   0.924  14.226   2.747
44282W        W 3818  12.258  14.187   2.281
44283W        W 3819   9.311  23.063   3.831
44284W        W 3820  27.040  24.105  14.862
44285W        W 3821  36.021   9.206  10.442
44286W        W 3822  27.502  24.499   2.256
44287W        W 3823  39.397  18.092   4.221
44288W        W 3824  38.470  38.063  13.515
44289W        W 3825  31.077  14.246  14.801
44290W        W 3826   1.754  27.012  10.586
44291W        W 3827  17.731  27.660  13.005
44292W        W 3828   0.419   4.367  11.866
44293W        W 3829   7.695  17.572   0.410
44294W        W 3830  15.251  41.519   3.850
44295W        W 3831   5.410  28.967   4.798
44296W        W 3832  29.650  41.928   2.401
44297W        W 3833  36.545  44.773   4.135
44298W        W 3834  14.715  21.713   2.301
44299W        W 3835   5.231  18.765  14.329
44300W        W 3836  40.461  34.934   3.666
44301W        W 3837   8.857   9.783  13.474
44302W        W 3838  37.034  26.487  12.342
44303W        W 3839  29.456  33.584  13.793
44304W        W 3840  42.944   0.278  12.467
44305W        W 3841  25.489  32.971   2.750
44306W        W 3842   2.358  14.308  11.446
44307W        W 3843  31.006   9.661   1.751
44308W        W 3844  20.666  40.462  13.896
44309W        W 3845   7.675  41.409  12.391
44310W        W 3846  40.839   9.812  11.077
44311W        W 3847  44.010  11.740  11.425
44312W        W 3848  14.724  32.455   2.222
44313W        W 3849   8.384  41.852  10.606
44314W        W 3850  18.271  23.194   0.298
44315W        W 3851  23.731  41.405   3.761
44316W        W 3852  40.944  23.496   1.710
44317W        W 3853  22.652   7.323   2.820
44318W        W 3854  26.014  33.088  12.999
44319W        W 3855  14.608  15.761  11.422
44320W        W 3856  24.093   2.962   1.839
44321W        W 3857   0.905  10.728   4.746
44322W        W 3858  20.697  26.019  10.471
44323W        W 3859  10.663  12.689  11.436
44324W        W 3860   2.794  25.125   1.443
44325W        W 3861  17.071  14.286  14.409
44326W        W 3862  22.236  17.255  13.333
44327W        W 3863  32.024  24.711   1.402
44328W        W 3864  44.431  21.052  14.891
44329W        W 3865  38.824  43.859  11.981
44330W        W 3866  30.922   8.342  10.490
44331W        W 3867  12.192  20.271  11.399
44332W        W 3868  43.940   9.256  14.763
44333W        W 3869  22.097  42.797  11.106
44334W        W 3870  39.470   2.782  14.383
44335W        W 3871  32.005  31.566   0.305
44336W        W 3872   6.782  36.020  12.872
44337W        W 3873  25.991  33.511  13.025
44338W        W 3874   0.784  40.004  12.028
44339W        W 3875  26.143  13.645   2.821
44340W        W 3876  13.184  12.163  13.989
44341W        W 3877  11.243  10.830  13.419
44342W        W 3878  11.683  26.625  12.506
44343W        W 3879  17.641   1.422  11.091
44344W        W 3880  21.694  25.146   2.740
44345W        W 3881   2.323   0.486  13.814
44346W        W 3882  22.057  39.434  12.070
44347W        W 3883  44.303  20.115  14.978
44348W        W 3884  37.956   1.237  13.852
44349W        W 3885   0.802   1.313   2.763
44350W        W 3886  23.534  44.386  11.523
44351W        W 3887  43.426   4.707   2.780
44352W        W 3888  38.505  31.090   1.729
44353W        W 3889  14.238  37.438  11.882
44354W        W 3890   2.736   6.693  10.528
44355W        W 3891  23.987  31.524   4.695
44356W        W 3892  43.294  23.724  11.533
44357W        W 3893  43.829  30.153  13.319
44358W        W 3894  10.142  33.011   0.383
44359W        W 3895  38.567   5.800   4.340
44360W        W 3896   5.802   6.899   3.711
44361W        W 3897  28.946  23.585  12.893
44362W        W 3898  38.382   7.855  11.941
44363W        W 3899  43.460  28.018   2.332
44364W        W 3900  17.650   9.180   0.279
44365W        W 3901   3.910  39.835   0.772
44366W        W 3902   7.207  18.584   4.819
44367W        W 3903  12.130  27.157   3.794
44368W        W 3904   1.834  36.900   1.748
44369W        W 3905  13.334  28.011   2.854
44370W        W 3906  41.499  15.599   2.408
44371W        W 3907   8.660  10.670   1.802
44372W        W 3908   7.264   9.325   0.812
44373W        W 3909   8.825  24.180  13.010
44374W        W 3910  10.871   8.736  13.791
44375W        W 3911  38.524  23.550   0.404
44376W        W 3912  17.749  18.619  10.936
44377W        W 3913  22.200  29.598  14.947
44378W        W 3914  16.773  10.267   3.381
44379W        W 3915  35.475  37.366   0.312
44380W        W 3916  35.381   9.331  14.891
44381W        W 3917  17.150   6.745   4.724
44382W        W 3918   8.389  10.798   3.721
44383W        W 3919  29.579  32.966   4.176
44384W        W 3920  20.622   0.312  12.991
44385W        W 3921  18.666  11.290  10.924
44386W        W 3922  36.888  35.007   0.411
44387W        W 3923  30.594  11.200   1.806
44388W        W 3924  27.569  42.906  14.780
44389W        W 3925   5.777  29.107  12.843
44390W        W 3926  20.155   4.751  10.511
44391W        W 3927  21.179  28.132  12.561
44392W        W 3928  43.477   7.834  13.898
44393W        W 3929  20.109  19.576  14.942
44394W        W 3930  21.150  10.321  12.022
44395W        W 3931  27.057  17.573   4.268
44396W        W 3932  12.197  10.383  14.481
44397W        W 3933  30.946   6.356  13.539
44398W        W 3934  11.641  30.119  11.473
44399W        W 3935   3.856  17.708  14.981
44400W        W 3936   9.664  18.154   4.235
44401W        W 3937  17.790   6.917  12.437
44402W        W 3938  27.687  12.274   2.881
44403W        W 3939  17.204  31.472  10.938
44404W        W 3940  22.126  20.653   1.245
44405W        W 3941   1.894  12.194  12.845
44406W        W 3942   5.863   5.745   1.716
44407W        W 3943   0.427  26.530  14.931
44408W        W 3944  30.634   5.395  10.510
44409W        W 3945  35.577   9.189   2.318
44410W        W 3946  11.280  43.958  11.889
44411W        W 3947  37.420   8.238   2.810
44412W        W 3948  25.568  36.472  10.141
44413W        W 3949  39.427  26.989   1.713
44414W        W 3950  18.658  42.345  12.503
44415W        W 3951  43.281  28.583  14.276
44416W        W 3952  15.602   0.871   1.277
44417W        W 3953   8.766  39.429  12.558
44418W        W 3954  29.604  22.702  14.440
44419W        W 3955  36.468  10.357  11.411
44420W        W 3956  18.187  15.208  14.398
44421W        W 3957  33.570  13.224   2.731
44422W        W 3958  15.817  16.135   1.701
44423W        W 3959  27.482  19.639  13.005
44424W        W 3960  39.551  39.430   0.916
44425W        W 3961   8.897  11.782  14.946
44426W        W 3962  12.643  18.646   0.915
44427W        W 3963  21.533  25.211   3.790
44428W        W 3964   7.886  23.670  12.526
44429W        W 3965   9.768  16.786  14.417
44430W        W 3966   7.769  42.491   4.258
44431W        W 3967  31.609  41.316   4.211
44432W        W 3968  26.971  28.993  14.435
44433W        W 3969  23.515  41.908  12.548
44434W        W 3970  11.177  32.487  14.006
44435W        W 3971  40.964   8.397   1.223
44436W        W 3972  36.442  34.430   0.440
44437W        W 3973  14.233  39.876  13.538
44438W        W 3974   3.293  27.607   3.263
44439W        W 3975  36.927  25.483   4.657
44440W        W 3976   0.817  27.450   2.303
44441W        W 3977  32.557  39.902   2.789
44442W        W 3978   3.431  36.425  12.925
44443W        W 3979   3.887  19.555   1.218
44444W        W 3980   2.944   3.315  12.857
44445W        W 3981  31.580  32.504   3.301
44446W        W 3982  40.422  27.091   1.724
44447W        W 3983  34.436   3.934   2.300
44448W        W 3984  20.123  23.036  14.444
44449W        W 3985  24.567   7.409   0.420
44450W        W 3986  22.604  21.748  11.027
44451W        W 3987   4.292  34.030  13.922
44452W        W 3988  16.292  38.384  10.519
44453W        W 3989  17.622  14.808   2.817
44454W        W 3990  38.898  26.031   9.960
44455W        W 3991  27.950  40.506  10.598
44456W        W 3992  40.881  41.517  11.006
44457W        W 3993  32.637  21.072  13.477
44458W        W 3994  26.012  35.890   0.861
44459W        W 3995  36.475   1.428  14.390
44460W        W 3996  20.200  28.070   3.247
44461W        W 3997  14.273  42.351  13.822
44462W        W 3998  44.805  16.230   5.610
44463W        W 3999  39.503  28.477   0.359
44464W        W 4000   7.337  26.193  13.442
44465W        W 4001   2.906  35.417  11.061
44466W        W 4002  13.766   5.740  12.509
44467W        W 4003   3.903  38.977  12.888
44468W        W 4004  13.155  16.654   0.848
44469W        W 4005  24.978  34.477  11.911
44470W        W 4006  27.691  36.525   3.722
44471W        W 4007  19.759   1.838   3.353
44472W        W 4008  38.819  34.404   2.898
44473W        W 4009  41.381   4.795  14.511
44474W        W 4010   0.448  37.002   0.371
44475W        W 4011  12.784  18.646  12.996
44476W        W 4012  10.741   1.782  11.529
44477W        W 4013  28.603  33.520   4.147
44478W        W 4014  31.593  31.014   3.649
44479W        W 4015  40.498   0.484   1.353
44480W        W 4016  37.540  34.876  13.007
44481W        W 4017   5.692  44.863   2.696
44482W        W 4018  29.627  38.964   3.669
44483W        W 4019  17.086   3.917  10.643
44484W        W 4020  40.421  23.234  13.815
44485W        W 4021  13.738   1.770  11.480
44486W        W 4022  24.678  23.226   1.747
44487W        W 4023  33.592  30.415   1.736
44488W        W 4024  35.546   2.965   1.309
44489W        W 4025   8.313  16.777  10.936
44490W        W 4026  28.018  41.957  11.407
44491W        W 4027   7.795  22.125  13.328
44492W        W 4028  32.523   7.400  10.440
44493W        W 4029   6.327   4.943   5.081
44494W        W 4030   4.942  31.065   0.858
44495W        W 4031  34.082   8.195  13.897
44496W        W 4032  34.452  41.487   3.201
44497W        W 4033   9.250  13.122  14.381
44498W        W 4034   2.793  13.201  14.897
44499W        W 4035   7.859  21.713  14.840
44500W        W 4036  38.527  21.084  12.835
44501W        W 4037   6.323  14.608  14.390
44502W        W 4038   3.459  31.641  13.347
44503W        W 4039  40.870  30.118   1.717
44504W        W 4040  36.898  28.180   3.280
44505W        W 4041  36.046  34.038   2.790
44506W        W 4042  44.451   3.400  10.915
44507W        W 4043  24.548  24.103  11.536
44508W        W 4044  36.908  29.994  12.570
44509W        W 4045  23.580  29.132  10.513
44510W        W 4046  43.443   2.962  10.888
44511W        W 4047  30.604  17.255   3.167
44512W        W 4048  23.223  35.940   3.269
44513W        W 4049  42.912  36.962   2.199
44514W        W 4050  19.263   4.702   4.690
44515W        W 4051  26.504  35.110   2.219
44516W        W 4052  21.638  11.764  14.510
44517W        W 4053  24.620  37.009   0.765
44518W        W 4054  36.971  38.436   4.659
44519W        W 4055   8.770  12.182   3.278
44520W        W 4056  15.598  40.406   4.122
44521W        W 4057  11.654  35.079  14.452
44522W        W 4058   9.674  12.632  12.012
44523W        W 4059   3.790  38.855  11.990
44524W        W 4060  40.503  11.665   1.307
44525W        W 4061  21.526  26.004   2.663
44526W        W 4062  30.483   5.724  13.970
44527W        W 4063   2.301  39.510   1.891
44528W        W 4064   7.208  22.090   0.480
44529W        W 4065  44.989  34.439   4.310
44530W        W 4066  17.650  34.058  10.527
44531W        W 4067  10.733  14.643  11.408
44532W        W 4068  14.108  31.437  10.908
44533W        W 4069  28.477  10.798  12.915
44534W        W 4070  42.377  21.515  12.457
44535W        W 4071   9.239  32.039  12.366
44536W        W 4072  10.632  10.350  12.517
44537W        W 4073  41.384  39.974  14.917
44538W        W 4074  12.305  24.086   0.251
44539W        W 4075   8.860  34.943  10.557
44540W        W 4076  37.538  24.109   3.672
44541W        W 4077  36.450  25.055  11.563
44542W        W 4078   7.388   7.368   0.805
44543W        W 4079  16.208   9.699   2.843
44544W        W 4080  31.491  32.946   0.960
44545W        W 4081  38.008  34.475   4.743
44546W        W 4082  40.482  44.823  14.296
44547W        W 4083   9.846  22.608   0.371
44548W        W 4084  24.142  25.530  12.949
44549W        W 4085  32.055  15.232   4.116
44550W        W 4086  36.863  32.634  14.931
44551W        W 4087  38.474  21.151  14.372
44552W        W 4088  39.005  34.953   2.825
44553W        W 4089  21.045  25.627   3.760
44554W        W 4090  26.466  29.142   4.272
44555W        W 4091  21.690  31.915  14.836
44556W        W 4092  37.471  23.672  13.804
44557W        W 4093  40.308   1.953  11.963
44558W        W 4094  18.775  16.117  13.454
44559W        W 4095  17.556  36.538  13.332
44560W        W 4096  33.887  32.091  14.842
44561W        W 4097   1.850   4.716  11.515
44562W        W 4098  33.468  24.632  11.455
44563W        W 4099  25.017  14.664   3.168
44564W        W 4100  27.967  11.641   3.287
44565W        W 4101  26.114  43.408  14.877
44566W        W 4102  24.998  34.003  13.436
44567W        W 4103   6.789   8.656  10.408
44568W        W 4104  14.133  21.095  11.051
44569W        W 4105   3.221  34.464   2.880
44570W        W 4106  43.993  21.557  11.021
44571W        W 4107  11.805  17.666   4.836
44572W        W 4108   1.787  18.748  12.970
44573W        W 4109  12.653  35.539  13.532
44574W        W 4110  23.167  18.122   1.701
44575W        W 4111  17.800  35.982   3.683
44576W        W 4112  38.873  26.562  14.878
44577W        W 4113  43.421   6.234  13.803
44578W        W 4114  39.055  25.962  13.373
44579W        W 4115  39.835  21.250   4.736
44580W        W 4116  32.580  10.349  11.972
44581W        W 4117  19.251   6.206   3.352
44582W        W 4118  17.753   4.726   1.851
44583W        W 4119  19.591  28.063   4.316
44584W        W 4120  34.927  44.370   0.916
44585W        W 4121  41.345  14.768   3.288
44586W        W 4122  12.827  28.027  14.292
44587W        W 4123  44.761   9.342  11.471
44588W        W 4124  10.682   3.437  12.973
44589W        W 4125   4.237  33.510  13.470
44590W        W 4126  35.579  36.503  11.457
44591W        W 4127  35.510  27.475   1.840
44592W        W 4128  26.618  13.327   3.240
44593W        W 4129  41.478  33.406   1.364
44594W        W 4130  21.095  36.417  13.009
44595W        W 4131  20.141  11.792  10.550
44596W        W 4132   2.814  18.183   4.647
44597W        W 4133  29.514  19.187   4.657
44598W        W 4134  10.155   5.385   3.177
44599W        W 4135  42.476  44.810  12.932
44600W        W 4136  37.921  25.963  12.377
44601W        W 4137  28.604  41.490  14.332
44602W        W 4138  38.389  11.201   0.302
44603W        W 4139   4.932  18.596   2.411
44604W        W 4140  42.519  34.500  14.907
44605W        W 4141  34.435  17.274   3.841
44606W        W 4142  35.914  15.744  12.476
44607W        W 4143   3.254  15.143  14.970
44608W        W 4144  13.148  34.059   1.276
44609W        W 4145  39.001   2.885   4.187
44610W        W 4146  44.846  38.926   3.149
44611W        W 4147  12.240  16.758   2.408
44612W        W 4148  38.877   6.345  13.473
44613W        W 4149  23.594  25.591  13.045
44614W        W 4150  27.579  14.338  12.853
44615W        W 4151  31.980  34.540  11.453
44616W        W 4152  26.485  28.034  12.528
44617W        W 4153  39.946   9.781  13.842
44618W        W 4154  43.896  21.556   0.872
44619W        W 4155  11.194  13.798  14.913
44620W        W 4156   9.271  16.184  12.868
44621W        W 4157  20.642  11.638  12.050
44622W        W 4158  37.420   0.761  13.542
44623W        W 4159   8.396   9.267   0.327
44624W        W 4160   3.336  20.201   4.300
44625W        W 4161  26.175  37.501  11.941
44626W        W 4162  15.733   5.688   5.225
44627W        W 4163  40.046   2.794   4.187
44628W        W 4164  36.432   6.788   3.736
44629W        W 4165  18.640  39.814   1.445
44630W        W 4166  28.993  21.746  11.484
44631W        W 4167  38.957  23.584  13.439
44632W        W 4168   5.790  21.700   3.738
44633W        W 4169   5.859  17.134  11.980
44634W        W 4170  23.099  25.565   0.923
44635W        W 4171  43.321  15.741  13.938
44636W        W 4172  15.262  39.533   3.862
44637W        W 4173  20.736  12.716  11.500
44638W        W 4174   7.766  31.077   3.782
44639W        W 4175  29.072  16.805   1.878
44640W        W 4176  43.837  12.339   2.900
44641W        W 4177  31.102  27.070   0.873
44642W        W 4178  21.663  26.194  14.511
44643W        W 4179  23.173  37.870  10.589
44644W        W 4180  28.569  37.914  14.281
44645W        W 4181  10.225   2.967  14.430
44646W        W 4182  38.020  19.747  13.313
44647W        W 4183  21.660  14.199  12.947
44648W        W 4184  20.236  43.932  12.903
44649W        W 4185  21.045   5.833  12.456
44650W        W 4186  22.116  36.931   2.689
44651W        W 4187  33.467  12.652   2.838
44652W        W 4188   3.877   0.860   4.747
44653W        W 4189  22.235  26.617   3.278
44654W        W 4190   6.847  29.558  11.990
44655W        W 4191  15.248  10.222   4.742
44656W        W 4192  39.953  10.321   1.768
44657W        W 4193   6.269  10.275   2.690
44658W        W 4194  37.361  28.458  12.548
44659W        W 4195  24.585  23.111   3.842
44660W        W 4196   9.772  18.611   0.940
44661W        W 4197  42.925  32.036   0.470
44662W        W 4198  34.611  21.040   1.446
44663W        W 4199   6.786  19.725   0.457
44664W        W 4200  20.698  37.469   0.310
44665W        W 4201  38.416  16.677  11.401
44666W        W 4202  29.433  33.008   0.476
44667W        W 4203  27.687  29.552   3.174
44668W        W 4204   0.848   0.764  13.035
44669W        W 4205  30.577  19.075  13.853
44670W        W 4206  19.264  13.333  14.863
44671W        W 4207  28.619  38.437   2.827
44672W        W 4208  40.423  39.956  13.458
44673W        W 4209  41.481  28.539   2.845
44674W        W 4210   0.749  29.174  14.496
44675W        W 4211   1.474  40.369   4.710
44676W        W 4212   7.311  19.631   4.659
44677W        W 4213  39.903   4.885  14.780
44678W        W 4214   1.880  15.664   1.803
44679W        W 4215  18.626  24.176   4.116
44680W        W 4216   0.881  17.199  11.438
44681W        W 4217  32.622  12.208   4.791
44682W        W 4218   6.300  32.501  10.060
44683W        W 4219  40.388  34.888   2.289
44684W        W 4220  40.524  34.108  12.573
44685W        W 4221   7.838  43.971  10.966
44686W        W 4222  40.333  12.175   4.683
44687W        W 4223  41.437  32.432  14.503
44688W        W 4224  36.553  32.583  11.858
44689W        W 4225  17.280  38.389  11.483
44690W        W 4226  20.065  12.159  11.496
44691W        W 4227  28.529  37.086  11.123
44692W        W 4228   5.745   4.423  14.334
44693W        W 4229   5.892  29.069  14.461
44694W        W 4230   6.351  35.967   2.275
44695W        W 4231  33.955   2.725   5.203
44696W        W 4232   5.415  15.773  12.086
44697W        W 4233  10.260  29.109   0.910
44698W        W 4234   5.764  32.130  10.474
44699W        W 4235  12.809  36.530  13.797
44700W        W 4236  20.198   4.795  12.875
44701W        W 4237  12.292  12.293  13.042
44702W        W 4238  14.757  20.150   1.712
44703W        W 4239  37.029  40.460   2.849
44704W        W 4240   1.887  23.111   4.633
44705W        W 4241  28.066  44.824   4.210
44706W        W 4242   4.813  17.097  10.980
44707W        W 4243  14.179  41.447  13.827
44708W        W 4244  35.996  30.565   1.896
44709W        W 4245  37.007  16.733   3.737
44710W        W 4246  16.193  16.187  13.365
44711W        W 4247  23.128   0.962  13.967
44712W        W 4248   8.660   4.324   2.780
44713W        W 4249  21.688   7.197  14.908
44714W        W 4250  43.439  27.134  12.581
44715W        W 4251  35.934  18.573   4.763
44716W        W 4252  20.203  39.529  13.951
44717W        W 4253  23.060  23.238   1.261
44718W        W 4254  23.148  30.996   4.279
44719W        W 4255  15.117   2.433  14.952
44720W        W 4256   0.970  21.134   3.153
44721W        W 4257  37.060  12.816  12.432
44722W        W 4258   4.821  21.073  12.573
44723W        W 4259  36.059  11.790  13.030
44724W        W 4260   9.677  25.676  12.863
44725W        W 4261   2.409  24.638   2.257
44726W        W 4262  42.000  33.086  14.861
44727W        W 4263  22.129  40.317  11.967
44728W        W 4264  26.107   9.890  14.809
44729W        W 4265  24.708  42.395   4.725
44730W        W 4266   7.667   6.689  14.772
44731W        W 4267  36.553   5.432  12.523
44732W        W 4268   7.899  18.699  10.969
44733W        W 4269  15.714  22.624   3.354
44734W        W 4270   8.860  38.351  13.361
44735W        W 4271   9.323  32.923  10.896
44736W        W 4272  21.576  18.284  10.103
44737W        W 4273   8.756  25.675   5.241
44738W        W 4274  38.899   5.850  14.409
44739W        W 4275  38.560  11.165   2.821
44740W        W 4276  40.951  16.673  11.593
44741W        W 4277  43.469  32.075   9.963
44742W        W 4278  34.062   2.868   1.900
44743W        W 4279   8.833  14.727  11.039
44744W        W 4280  32.938  37.073  12.370
44745W        W 4281  32.973  33.532   0.899
44746W        W 4282  44.937  30.996   4.237
44747W        W 4283   2.847  15.643  12.473
44748W        W 4284   3.887   9.336   4.735
44749W        W 4285  40.533  35.518  14.450
44750W        W 4286  32.106  16.225   1.901
44751W        W 4287  30.528  39.819  11.065
44752W        W 4288  29.463  41.484   0.313
44753W        W 4289  36.498  29.434   5.279
44754W        W 4290  44.911   9.369   9.967
44755W        W 4291  19.734  36.533  13.503
44756W        W 4292  44.765  44.993  13.820
44757W        W 4293   3.751  24.498  14.771
44758W        W 4294  28.655  38.944   2.305
44759W        W 4295  38.888  26.469   3.250
44760W        W 4296  44.309  38.952   3.800
44761W        W 4297  11.831  30.589   4.142
44762W        W 4298  22.548   1.856  13.894
44763W        W 4299  24.518   3.303  14.799
44764W        W 4300  11.663   4.842  10.948
44765W        W 4301  13.226  32.490   2.868
44766W        W 4302  31.570  41.354   3.765
44767W        W 4303  23.565  13.689   4.261
44768W        W 4304  11.781  32.937  14.330
44769W        W 4305   4.368  44.933   4.769
44770W        W 4306  17.713   3.953  12.969
44771W        W 4307  25.094  36.982  11.974
44772W        W 4308  32.971   4.701  11.010
44773W        W 4309  16.205   1.463   2.392
44774W        W 4310  13.222   0.810   4.661
44775W        W 4311  40.944  25.217  14.960
44776W        W 4312  36.538  26.095   1.386
44777W        W 4313  30.965  33.123   4.151
44778W        W 4314   0.466  26.671  13.014
44779W        W 4315  33.905  37.906   4.659
44780W        W 4316  15.133  11.199  14.309
44781W        W 4317   6.286  39.389   2.205
44782W        W 4318   9.661  44.360   2.666
44783W        W 4319  36.071  24.120  12.994
44784W        W 4320  28.451  43.468   2.410
44785W        W 4321  14.749  26.692  13.547
44786W        W 4322  11.285  40.830  12.455
44787W        W 4323   1.871  35.929  11.934
44788W        W 4324  42.811  13.136   2.795
44789W        W 4325  40.369  25.029   3.631
44790W        W 4326   1.446  17.772  14.969
44791W        W 4327  15.585   4.310   5.200
44792W        W 4328  15.219  43.460  13.469
44793W        W 4329  44.005  38.497  13.053
44794W        W 4330  28.935  28.474   4.732
44795W        W 4331  41.520   0.261  11.952
44796W        W 4332  22.734  20.135   2.889
44797W        W 4333  30.538  25.963   1.740
44798W        W 4334  43.921   3.886  13.462
44799W        W 4335  31.431  43.881  11.927
44800W        W 4336  36.589  17.760  10.934
44801W        W 4337  17.646  28.173  11.992
44802W        W 4338  10.366  17.783   2.294
44803W        W 4339  35.907  15.218  13.007
44804W        W 4340  30.039  31.623   2.856
44805W        W 4341  31.054  23.697   3.374
44806W        W 4342   1.832  28.514  10.513
44807W        W 4343   7.850  33.385  13.361
44808W        W 4344  40.966  39.435   3.869
44809W        W 4345  28.941  30.575   1.349
44810W        W 4346  10.270  21.706   4.675
44811W        W 4347   0.288  26.001  14.931
44812W        W 4348   3.775  40.946  13.491
44813W        W 4349  22.504  32.924  11.867
44814W        W 4350   4.382   9.204  10.594
44815W        W 4351  15.280  30.636   1.219
44816W        W 4352   5.281  41.296   1.439
44817W        W 4353   3.365  12.167  14.929
44818W        W 4354  33.596  20.084  12.550
44819W        W 4355   1.412  21.040   0.776
44820W        W 4356  31.607   4.275   3.293
44821W        W 4357  44.807  35.510  11.440
44822W        W 4358  11.738   7.285   4.613
44823W        W 4359  41.904  17.720  10.999
44824W        W 4360  14.308  16.181   4.661
44825W        W 4361  11.843  40.997  11.512
44826W        W 4362  31.960  29.533  12.364
44827W        W 4363  39.319  10.164  10.551
44828W        W 4364  21.243  38.863  13.042
44829W        W 4365  28.932  18.130   1.878
44830W        W 4366  44.364  25.027   2.735
44831W        W 4367   0.832   0.478  13.956
44832W        W 4368  42.807  32.457   4.728
44833W        W 4369   1.831  37.049   3.857
44834W        W 4370   3.896  17.148  10.026
44835W        W 4371  44.868  19.553   0.762
44836W        W 4372  12.338  31.628   0.359
44837W        W 4373  25.627  36.062   5.763
44838W        W 4374  19.772   2.347  12.554
44839W        W 4375  16.652  29.958  11.872
44840W        W 4376  25.023  34.499   0.264
44841W        W 4377  15.649  18.065   0.296
44842W        W 4378   5.350  29.147   0.262
44843W        W 4379  10.702  21.641  13.500
44844W        W 4380   0.439  27.643  14.847
44845W        W 4381  21.243  29.142  13.931
44846W        W 4382   6.243  17.138   0.819
44847W        W 4383  20.596  34.493  11.400
44848W        W 4384   1.403  20.054  10.560
44849W        W 4385  11.192  31.112  11.856
44850W        W 4386  24.710  31.081   3.256
44851W        W 4387  24.039  18.786   1.450
44852W        W 4388   1.850  24.185  11.606
44853W        W 4389  15.629  32.546  12.422
44854W        W 4390  37.922   9.752   1.812
44855W        W 4391  15.797  36.976   2.838
44856W        W 4392  11.667  15.683  14.321
44857W        W 4393   8.859  36.387   5.120
44858W        W 4394   9.698  43.357   2.877
44859W        W 4395  24.509  27.998  13.898
44860W        W 4396  20.098  27.093  13.022
44861W        W 4397   7.768   4.737   1.226
44862W        W 4398  11.216  20.672  12.867
44863W        W 4399  21.263  25.995   2.226
44864W        W 4400  32.489  10.640   2.294
44865W        W 4401  44.435  29.528  14.471
44866W        W 4402  15.090  30.481   4.206
44867W        W 4403  42.523  37.448  11.384
44868W        W 4404  35.979   7.769   1.840
44869W        W 4405  27.081  34.454   2.801
44870W        W 4406  17.119  37.559  13.793
44871W        W 4407  41.952  34.386  12.442
44872W        W 4408  27.623  16.577  13.475
44873W        W 4409   2.830  28.574  12.982
44874W        W 4410  29.537   8.852  11.586
44875W        W 4411   4.217   5.751   2.220
44876W        W 4412  33.085  15.294   4.334
44877W        W 4413  19.234  11.148   4.776
44878W        W 4414  15.220  17.746   4.139
44879W        W 4415  33.492  44.409  14.961
44880W        W 4416  38.410   6.707   1.375
44881W        W 4417  39.389  31.042   0.739
44882W        W 4418  26.001   7.832   4.350
44883W        W 4419   5.787  15.755  11.533
44884W        W 4420  17.611  12.361  14.354
44885W        W 4421  13.807  12.661   4.186
44886W        W 4422  15.205  44.491  10.557
44887W        W 4423  19.608  24.047   1.910
44888W        W 4424  32.138  15.671   4.221
44889W        W 4425  14.790   7.678   1.930
44890W        W 4426  21.676  26.490  13.897
44891W        W 4427  12.753  40.863   4.345
44892W        W 4428   8.701  17.265  13.962
44893W        W 4429  20.585  21.593  12.360
44894W        W 4430  10.294  29.153   2.400
44895W        W 4431  30.569  23.548  13.040
44896W        W 4432  37.879  16.231  11.606
44897W        W 4433  23.720  23.077  14.788
44898W        W 4434  37.508  20.565   4.607
44899W        W 4435  15.765   0.484   1.779
44900W        W 4436  32.069   4.427  13.413
44901W        W 4437  41.982  37.013   2.785
44902W        W 4438  44.761  11.237  11.875
44903W        W 4439  32.084  27.094   4.322
44904W        W 4440  18.787  22.630   4.296
44905W        W 4441  23.067  15.821  11.578
44906W        W 4442  38.392  13.777   0.759
44907W        W 4443  44.378  25.172   4.177
44908W        W 4444  10.222  32.886  11.448
44909W        W 4445  14.102   8.263  10.109
44910W        W 4446  24.657  35.424   2.709
44911W        W 4447   8.281  30.931  11.895
44912W        W 4448  15.150  19.187   3.740
44913W        W 4449  12.658  10.332   3.331
44914W        W 4450  32.521  40.807  11.538
44915W        W 4451  41.520  36.918   1.750
44916W        W 4452   8.320   9.653   9.959
44917W        W 4453  21.166   2.423  12.456
44918W        W 4454  29.169  40.812  12.029
44919W        W 4455  27.602  21.090   4.224
44920W        W 4456  35.575  31.592   2.731
44921W        W 4457  37.497   6.833   1.837
44922W        W 4458  43.273  34.945   2.703
44923W        W 4459  25.161  34.961   4.688
44924W        W 4460   5.331   5.373   2.852
44925W        W 4461  44.376  39.355  11.577
44926W        W 4462  15.689  30.019  14.008
44927W        W 4463  39.428  42.979  11.416
44928W        W 4464   1.790  33.572  11.088
44929W        W 4465  33.441  29.032   1.396
44930W        W 4466   9.670  24.568  11.952
44931W        W 4467  12.308  39.468   0.744
44932W        W 4468   8.250  40.346  12.911
44933W        W 4469  37.456  35.942  11.374
44934W        W 4470  34.094  27.058  12.350
44935W        W 4471  42.516   6.885  12.900
44936W        W 4472   1.803   3.774  13.001
44937W        W 4473  12.676  19.664  10.461
44938W        W 4474  17.128   5.737  13.522
44939W        W 4475   5.427  19.122   3.692
44940W        W 4476  44.322  35.917  14.020
44941W        W 4477  37.952  37.847  14.913
44942W        W 4478  12.806  33.386  10.974
44943W        W 4479  31.034  25.577  13.868
44944W        W 4480  30.956  18.187  14.940
44945W        W 4481  19.208  44.857   4.662
44946W        W 4482  12.225  19.667   1.871
44947W        W 4483  38.896   6.695  12.539
44948W        W 4484  24.183  41.927  14.802
44949W        W 4485   3.329  37.466   4.599
44950W        W 4486  40.335  18.740  13.534
44951W        W 4487   8.360  37.352  14.788
44952W        W 4488   2.334  14.785   3.733
44953W        W 4489   6.355  15.722  10.025
44954W        W 4490  32.437  12.279  10.486
44955W        W 4491  43.899  15.254  11.387
44956W        W 4492  32.052   3.441   1.834
44957W        W 4493   9.722  20.710   1.709
44958W        W 4494  15.257  41.436   1.787
44959W        W 4495  13.209  31.896   2.200
44960W        W 4496  14.234   6.189  14.941
44961W        W 4497   5.856  10.296   2.381
44962W        W 4498  22.138  28.183   3.838
44963W        W 4499  36.880  15.091   3.865
44964W        W 4500   3.778  40.911   4.733
44965W        W 4501  13.292  20.066   2.687
44966W        W 4502  27.600  36.053  14.877
44967W        W 4503  43.456   9.680   4.701
44968W        W 4504   4.710  41.402  12.885
44969W        W 4505  23.590  17.181  13.495
44970W        W 4506  24.149  34.973  13.817
44971W        W 4507  20.694  34.888   3.671
44972W        W 4508  32.437   8.177   4.771
44973W        W 4509  39.820  11.799  13.396
44974W        W 4510  35.542  44.809  11.398
44975W        W 4511  39.507  21.039  12.902
44976W        W 4512  33.534  27.041  13.476
44977W        W 4513  37.517   7.778   2.283
44978W        W 4514  21.601  26.666   0.374
44979W        W 4515  31.527  29.499   1.889
44980W        W 4516  29.174  42.965   4.122
44981W        W 4517  20.273   4.295   0.804
44982W        W 4518  44.000  11.241  14.319
44983W        W 4519  25.034  32.427  14.495
44984W        W 4520  37.384  15.285   2.894
44985W        W 4521  20.739  26.641   1.896
44986W        W 4522   2.381  23.668  12.382
44987W        W 4523  38.013  23.240   3.218
44988W        W 4524  28.129  38.977  10.964
44989W        W 4525  18.564  29.585   2.391
44990W        W 4526  25.681  31.524  11.507
44991W        W 4527  43.930  10.744   5.786
44992W        W 4528  37.876  26.111  14.877
44993W        W 4529  25.659  23.177  10.509
44994W        W 4530   9.876  31.611   4.640
44995W        W 4531  13.319  22.101  11.085
44996W        W 4532  10.177  34.567   2.265
44997W        W 4533  39.478  26.178   1.866
44998W        W 4534  43.398  16.748  11.904
44999W        W 4535  38.923  42.829  14.370
45000W        W 4536  21.193  15.805   0.331
45001W        W 4537  33.548   3.295   3.855
45002W        W 4538  28.049  42.518   3.673
45003W        W 4539   8.255   4.786   0.828
45004W        W 4540  30.422  27.147  14.501
45005W        W 4541   8.183   5.804   1.745
45006W        W 4542   3.782  29.647  11.977
45007W        W 4543  26.488   6.892  14.315
45008W        W 4544  35.064  40.879   0.858
45009W        W 4545  12.291  40.040  11.412
45010W        W 4546  22.595  26.554   3.773
45011W        W 4547   6.316  22.054   0.956
45012W        W 4548   1.862  16.597   3.683
45013W        W 4549  11.165  27.611   2.899
45014W        W 4550   6.777  16.594   0.330
45015W        W 4551   4.878   7.408  12.541
45016W        W 4552   3.344   0.410  12.579
45017W        W 4553  21.259  32.401  13.061
45018W        W 4554  14.708  24.489  13.934
45019W        W 4555  35.996  44.293  11.552
45020W        W 4556  19.073  17.285   4.153
45021W        W 4557  13.106  28.131   3.314
45022W        W 4558  12.242  32.072   3.638
45023W        W 4559  22.088  19.671  14.463
45024W        W 4560  28.096  20.611   1.929
45025W        W 4561  12.756  11.223  12.940
45026W        W 4562  29.608   4.373  14.800
45027W        W 4563  33.063  32.019   3.252
45028W        W 4564   3.264   4.804   3.637
45029W        W 4565  37.850   8.270   1.803
45030W        W 4566  33.381  13.778   1.915
45031W        W 4567  12.291  34.034  12.462
45032W        W 4568  26.667  38.875   3.776
45033W        W 4569  11.186  24.997  13.798
45034W        W 4570   0.333  31.479   4.117
45035W        W 4571   4.388  24.638  13.974
45036W        W 4572  31.130  24.184   4.739
45037W        W 4573  30.481   4.918   5.117
45038W        W 4574  30.048   7.823   4.346
45039W        W 4575  24.990   6.194  10.452
45040W        W 4576  31.451  21.570  13.824
45041W        W 4577   6.188  26.026  14.976
45042W        W 4578   4.935  16.666   1.732
45043W        W 4579  10.165   2.726   3.790
45044W        W 4580  21.653  38.336   2.766
45045W        W 4581  14.656   9.175  11.115
45046W        W 4582  34.980   1.828  11.420
45047W        W 4583  37.058  38.991  11.075
45048W        W 4584  37.520  12.125  13.533
45049W        W 4585  24.613  32.918   1.444
45050W        W 4586  33.491  12.728  13.321
45051W        W 4587  23.559  11.275  10.428
45052W        W 4588   3.782  22.170  11.476
45053W        W 4589  33.463  37.341  13.818
45054W        W 4590   1.431  21.232   4.194
45055W        W 4591   6.378  35.048   3.227
45056W        W 4592  30.102  15.134  11.425
45057W        W 4593   4.220  41.945  11.540
45058W        W 4594   5.690  24.043   2.408
45059W        W 4595  17.071  24.612  11.903
45060W        W 4596   7.339  42.471   2.677
45061W        W 4597  18.272  41.379  12.399
45062W        W 4598  34.874  19.694  10.118
45063W        W 4599   8.869  11.184   1.293
45064W        W 4600  39.442  24.664   1.355
45065W        W 4601  20.079  15.157  14.469
45066W        W 4602  10.729   3.844  13.961
45067W        W 4603  20.696  17.799  12.531
45068W        W 4604  13.219  18.588  11.967
45069W        W 4605  28.982  27.950   2.388
45070W        W 4606  30.909  25.117   1.316
45071W        W 4607  15.306  39.356  11.490
45072W        W 4608   7.675  15.716   4.154
45073W        W 4609  15.129  10.854  13.967
45074W        W 4610  44.470  11.153   2.187
45075W        W 4611   7.894   8.400  11.436
45076W        W 4612  38.497  24.020  13.908
45077W        W 4613  23.120  11.779   0.376
45078W        W 4614  14.588  42.974  10.959
45079W        W 4615  29.144   8.689  14.031
45080W        W 4616  32.013   3.757   3.319
45081W        W 4617  18.748  25.146   2.838
45082W        W 4618  17.658  23.219  12.551
45083W        W 4619  34.005   5.328  10.491
45084W        W 4620  17.559  20.108   4.135
45085W        W 4621   9.645   8.837   4.113
45086W        W 4622  16.656  11.790   4.652
45087W        W 4623  22.688  11.699   0.380
45088W        W 4624  22.746  33.615  14.363
45089W        W 4625  21.209   0.279  14.873
45090W        W 4626  39.011  13.603  12.894
45091W        W 4627  21.074   2.447   3.254
45092W        W 4628   8.816   1.379   4.599
45093W        W 4629  30.055  16.679  12.831
45094W        W 4630  32.471  22.186  12.981
45095W        W 4631  39.328  35.401   2.355
45096W        W 4632  31.559  21.105  11.955
45097W        W 4633  19.718  38.333   2.287
45098W        W 4634  43.324  18.651   1.774
45099W        W 4635   9.647  36.974  10.555
45100W        W 4636  19.269  24.566   3.653
45101W        W 4637  11.236  19.243   3.377
45102W        W 4638  27.483  35.459  14.978
45103W        W 4639  43.398  29.534   0.843
45104W        W 4640   6.290  28.665   0.810
45105W        W 4641  13.636  16.761  11.570
45106W        W 4642  14.319  26.682   2.255
45107W        W 4643  12.202  26.087   3.735
45108W        W 4644  32.129  38.487  10.569
45109W        W 4645   8.406   1.879   4.636
45110W        W 4646  10.362  37.915   3.256
45111W        W 4647  42.453  35.981  11.119
45112W        W 4648  29.091  33.591   2.756
45113W        W 4649  19.244  41.340   0.439
45114W        W 4650   4.854  14.146  11.969
45115W        W 4651  41.495   6.220   1.278
45116W        W 4652  36.881  32.608  10.570
45117W        W 4653  12.713  12.611   2.796
45118W        W 4654  10.811   5.411   3.187
45119W        W 4655  18.242  18.750  13.342
45120W        W 4656  26.189  25.621   1.903
45121W        W 4657  28.675  28.548   0.331
45122W        W 4658  32.525  40.321  12.511
45123W        W 4659  27.597  32.010   1.335
45124W        W 4660   9.775   4.307  13.415
45125W        W 4661  22.102   0.310  10.554
45126W        W 4662  43.278  37.032   0.839
45127W        W 4663   1.339  16.308  12.429
45128W        W 4664  40.525  16.115  14.466
45129W        W 4665  29.129  32.122  12.344
45130W        W 4666  22.135  16.312  10.913
45131W        W 4667  12.663  34.051   3.152
45132W        W 4668  42.793  40.540  12.012
45133W        W 4669  32.587  22.043   5.310
45134W        W 4670   9.733  39.880  12.391
45135W        W 4671   0.471  31.644   2.793
45136W        W 4672  36.488  13.119  12.550
45137W        W 4673  44.360  19.671   2.321
45138W        W 4674  39.846  23.668  12.866
45139W        W 4675   2.416   4.314  11.921
45140W        W 4676  17.226   0.344  12.045
45141W        W 4677  25.993   5.834   4.224
45142W        W 4678   5.373  44.498   2.831
45143W        W 4679  10.875  38.450   0.851
45144W        W 4680  17.194  35.457   4.234
45145W        W 4681  44.900  10.659  13.804
45146W        W 4682  19.097  39.037  14.882
45147W        W 4683  32.406  19.083  12.915
45148W        W 4684  21.722  39.968   3.650
45149W        W 4685  38.373   8.827  14.952
45150W        W 4686  25.535  36.559  14.001
45151W        W 4687  25.176  17.653   4.778
45152W        W 4688   9.763  26.208  11.474
45153W        W 4689  41.419   3.354  10.955
45154W        W 4690  17.690  29.539   2.754
45155W        W 4691   6.901  30.091   1.220
45156W        W 4692  14.834   4.364   3.638
45157W        W 4693  41.500  44.959  11.922
45158W        W 4694  11.825  38.848  13.918
45159W        W 4695  39.340   5.895   4.296
45160W        W 4696  38.973  29.141   4.647
45161W        W 4697  36.009  39.820   4.745
45162W        W 4698  42.513   5.707   1.400
45163W        W 4699  21.615  43.821  11.499
45164W        W 4700  18.626  25.210   4.153
45165W        W 4701   2.819  41.406  14.939
45166W        W 4702  16.167   4.400  12.356
45167W        W 4703  29.545   8.313  13.448
45168W        W 4704  11.153  25.669  10.446
45169W        W 4705  11.192  29.645  10.902
45170W        W 4706  30.145   7.909  10.425
45171W        W 4707  40.844  43.439   3.237
45172W        W 4708   3.819  38.018  11.973
45173W        W 4709  38.064   6.260  10.953
45174W        W 4710  12.745  36.542   1.228
45175W        W 4711  26.189   7.741   1.380
45176W        W 4712  21.118  44.320  11.599
45177W        W 4713   3.324  42.467  14.932
45178W        W 4714  35.508  36.986  11.088
45179W        W 4715  28.951  29.644  11.570
45180W        W 4716  17.092  16.665   4.137
45181W        W 4717  41.390  23.190  14.802
45182W        W 4718  27.556  25.012  11.559
45183W        W 4719   4.232  38.372   4.722
45184W        W 4720  23.989   1.294  13.425
45185W        W 4721  12.144  12.264   4.669
45186W        W 4722   5.859  39.844   4.264
45187W        W 4723  12.214   8.384  12.953
45188W        W 4724   9.379  16.168   2.712
45189W        W 4725  17.221  17.567  11.862
45190W        W 4726  35.406   5.908   3.155
45191W        W 4727  15.188  19.177  10.953
45192W        W 4728  36.480  28.096  13.833
45193W        W 4729  19.735  17.700  13.029
45194W        W 4730   6.260  44.759   0.445
45195W        W 4731  33.535  31.581  14.293
45196W        W 4732  17.079  17.145   1.744
45197W        W 4733   6.243  16.102   0.479
45198W        W 4734  34.040  32.085  10.589
45199W        W 4735  21.586  35.895   2.818
45200W        W 4736  13.126  29.137  10.921
45201W        W 4737  40.387   1.748  12.861
45202W        W 4738  37.867  39.393  12.036
45203W        W 4739  26.114  33.468  12.346
45204W        W 4740  28.972  38.341   3.679
45205W        W 4741  16.642  12.290   1.758
45206W        W 4742  39.545  36.023   2.340
45207W        W 4743   0.988  13.753   1.767
45208W        W 4744  12.158  13.146   1.762
45209W        W 4745  39.052  20.620  14.931
45210W        W 4746  12.344  31.073   1.722
45211W        W 4747  15.800  37.412  14.929
45212W        W 4748  13.206   0.951   0.743
45213W        W 4749  25.482  16.704  14.415
45214W        W 4750  28.977  35.514  10.958
45215W        W 4751  15.687   1.914   2.813
45216W        W 4752  14.785   3.836  14.336
45217W        W 4753   2.347  41.023   0.886
45218W        W 4754  14.750  40.945  13.528
45219W        W 4755  27.458  35.362   1.790
45220W        W 4756  19.711  38.959   2.386
45221W        W 4757  23.004  41.398   3.817
45222W        W 4758  10.732  10.148  14.432
45223W        W 4759   9.353   7.681  14.430
45224W        W 4760  27.986  38.904  13.443
45225W        W 4761  13.309  30.555   3.175
45226W        W 4762   8.353  19.129   4.243
45227W        W 4763  32.081  32.083  10.916
45228W        W 4764  34.941   4.302   1.373
45229W        W 4765  27.183  25.510  14.002
45230W        W 4766  28.949   3.894  14.441
45231W        W 4767  31.900   5.744   4.293
45232W        W 4768  44.970  31.994   2.834
45233W        W 4769   2.226   5.932   1.339
45234W        W 4770  31.516  17.585   0.319
45235W        W 4771  35.005   8.853  14.965
45236W        W 4772   2.810  19.697   0.442
45237W        W 4773  40.004  40.466   0.299
45238W        W 4774  44.940  29.955   0.371
45239W        W 4775  29.510  34.061   4.660
45240W        W 4776  31.899  19.188  12.403
45241W        W 4777  43.400  33.397   2.315
45242W        W 4778  44.310  43.887  13.339
45243W        W 4779   7.857  17.748  14.278
45244W        W 4780  27.653  37.080   2.385
45245W        W 4781   7.898  24.047   5.210
45246W        W 4782   7.713  42.894   5.207
45247W        W 4783  23.655  40.888   2.852
45248W        W 4784  22.106   2.272  12.006
45249W        W 4785  31.121  14.803   1.332
45250W        W 4786  19.623  22.561   2.795
45251W        W 4787  16.307  40.411  14.295
45252W        W 4788   5.732  14.646  11.939
45253W        W 4789  18.617  11.863   5.165
45254W        W 4790  23.151   6.250   5.243
45255W        W 4791  42.835   7.190   3.181
45256W        W 4792  20.545  14.651   2.203
45257W        W 4793  37.938  30.638   2.810
45258W        W 4794  26.490  16.210  11.119
45259W        W 4795   2.875  10.846   2.320
45260W        W 4796  17.563  36.094  12.096
45261W        W 4797  23.496   1.434   4.261
45262W        W 4798  10.681  44.901  13.472
45263W        W 4799  30.533  28.180   3.220
45264W        W 4800  22.235  40.443  14.029
45265W        W 4801  29.155   5.248  12.371
45266W        W 4802  10.710  10.297  10.982
45267W        W 4803  40.388   6.278   1.265
45268W        W 4804  17.246  31.032  13.426
45269W        W 4805  42.807  31.561  13.830
45270W        W 4806  29.538  26.026   4.837
45271W        W 4807  10.315  38.549   0.340
45272W        W 4808   4.798  27.167  11.547
45273W        W 4809  11.335  35.985   3.652
45274W        W 4810   2.795   8.668  12.469
45275W        W 4811  38.344  14.783  13.989
45276W        W 4812  43.424  26.556  10.419
45277W        W 4813  30.954  37.457  10.456
45278W        W 4814  43.472   8.160   3.682
45279W        W 4815  24.074  16.155   5.238
45280W        W 4816   0.459  29.091   4.610
45281W        W 4817  17.249  35.105   1.307
45282W        W 4818  22.217  20.535  12.014
45283W        W 4819  21.720  10.141  13.481
45284W        W 4820   5.222  43.285  13.534
45285W        W 4821  25.500  35.519   1.883
45286W        W 4822   6.208  13.143  14.342
45287W        W 4823   1.904  27.523  10.124
45288W        W 4824  24.661  31.132   3.700
45289W        W 4825  21.132  29.593   4.234
45290W        W 4826  27.060  28.992  11.968
45291W        W 4827  28.434   1.790  14.363
45292W        W 4828  13.722  10.676  11.895
45293W        W 4829   8.354  38.847  12.908
45294W        W 4830  13.760  41.947  14.286
45295W        W 4831  12.312   1.855  13.511
45296W        W 4832  18.692  42.380   0.276
45297W        W 4833  23.570  38.060   5.239
45298W        W 4834   7.865  27.017   9.593
45299W        W 4835  41.911  20.685  12.457
45300W        W 4836  32.434   4.265   0.965
45301W        W 4837  37.836   4.780   1.443
45302W        W 4838  28.123  33.601  14.501
45303W        W 4839   6.361  36.009   4.297
45304W        W 4840   1.794  34.388   2.179
45305W        W 4841  30.590   3.721   4.247
45306W        W 4842  21.713  30.522   2.772
45307W        W 4843  18.062  20.657   0.957
45308W        W 4844  38.445  27.948  12.411
45309W        W 4845  24.019  30.128  14.017
45310W        W 4846  35.487  10.799  11.037
45311W        W 4847  28.062  33.559  11.892
45312W        W 4848  41.918  35.393  11.074
45313W        W 4849   5.298  13.201   2.777
45314W        W 4850  20.131  16.168   2.731
45315W        W 4851  42.003   2.359   1.931
45316W        W 4852  25.588   8.895  10.942
45317W        W 4853   1.918   2.750  11.100
45318W        W 4854  28.485  10.733  14.901
45319W        W 4855  13.304  15.234   1.897
45320W        W 4856  40.822  39.546   1.801
45321W        W 4857  35.454  12.653  14.791
45322W        W 4858   0.349  33.952   2.813
45323W        W 4859  30.448  42.479   2.860
45324W        W 4860  24.112  34.952   1.919
45325W        W 4861  21.672  36.360  13.032
45326W        W 4862  40.320  25.963  13.481
45327W        W 4863  36.875   7.752   1.378
45328W        W 4864  41.292  15.598   3.815
45329W        W 4865  28.952   9.363   3.240
45330W        W 4866  37.429  20.110  12.891
45331W        W 4867  35.882  43.427  10.453
45332W        W 4868  39.446  29.510  14.801
45333W        W 4869  29.056  29.005  10.986
45334W        W 4870  34.549   8.764   3.679
45335W        W 4871  23.672  39.314  11.119
45336W        W 4872  37.914  43.276  11.406
45337W        W 4873   8.352  21.179  14.506
45338W        W 4874  27.632  38.409   1.324
45339W        W 4875   7.391  39.920  14.867
45340W        W 4876   6.371  43.460   4.199
45341W        W 4877  30.910  35.527   2.346
45342W        W 4878   0.290   3.852  10.487
45343W        W 4879  22.598  39.374   4.608
45344W        W 4880  20.574   5.292   4.788
45345W        W 4881  36.094   2.450   2.671
45346W        W 4882   8.227  39.334   0.475
45347W        W 4883  39.883  16.658   1.920
45348W        W 4884  40.851  12.758   2.320
45349W        W 4885  32.104  17.649   1.360
45350W        W 4886  10.804  38.423  12.083
45351W        W 4887  30.508  42.857  10.947
45352W        W 4888   4.795   1.889  12.552
45353W        W 4889  21.218   3.336  12.540
45354W        W 4890  27.060  41.984  14.832
45355W        W 4891  24.703  13.308  14.903
45356W        W 4892  27.589  44.896  13.792
45357W        W 4893  44.303  41.844  10.552
45358W        W 4894  23.100   9.774   2.816
45359W        W 4895  31.908  38.339  14.806
45360W        W 4896   0.367  42.909  13.942
45361W        W 4897   1.821  21.553  12.468
45362W        W 4898  22.508  28.974  11.954
45363W        W 4899   1.851  28.019  11.978
45364W        W 4900  22.665  43.910   0.743
45365W        W 4901  11.217  31.949  14.922
45366W        W 4902  10.673   5.691  12.924
45367W        W 4903  15.293   7.821   4.194
45368W        W 4904  11.177  30.925  13.878
45369W        W 4905   1.773  23.548   5.612
45370W        W 4906  12.726  33.985  11.425
45371W        W 4907   4.868  23.163  13.398
45372W        W 4908  29.063   6.185   1.863
45373W        W 4909  30.148   9.225   4.315
45374W        W 4910  36.011  42.790   4.140
45375W        W 4911  44.427  37.482   3.866
45376W        W 4912   3.334  41.508  10.446
45377W        W 4913  34.043   3.818  10.113
45378W        W 4914  15.692  41.838  11.004
45379W        W 4915  29.997   1.289   2.191
45380W        W 4916  33.433  34.500  13.871
45381W        W 4917  29.932  23.193   3.687
45382W        W 4918  31.447  43.499  14.386
45383W        W 4919  15.168  41.536  14.842
45384W        W 4920   6.794  39.973   1.918
45385W        W 4921  30.956  22.647   0.965
45386W        W 4922   8.353  22.062  14.463
45387W        W 4923   2.794  11.748  10.005
45388W        W 4924  31.603  12.832   4.170
45389W        W 4925   1.379  26.956   2.704
45390W        W 4926  14.332   3.858   4.114
45391W        W 4927  42.832  32.053   3.801
45392W        W 4928  14.778  44.952  11.397
45393W        W 4929  31.412  40.998   2.402
45394W        W 4930  39.431  18.777  10.489
45395W        W 4931  14.612  14.174  12.578
45396W        W 4932  20.065  15.112   0.881
45397W        W 4933  41.989  19.774  13.890
45398W        W 4934  23.576  35.604   3.731
45399W        W 4935   6.897  41.859   1.276
45400W        W 4936  39.829  19.555  14.350
45401W        W 4937  16.568  17.601   0.911
45402W        W 4938   8.274  26.075  14.987
45403W        W 4939  44.992   9.740  10.493
45404W        W 4940   7.697  38.520   3.690
45405W        W 4941  41.431  37.888  11.023
45406W        W 4942  30.413  19.629  12.017
45407W        W 4943  21.048  11.707   1.262
45408W        W 4944  11.737  31.956   4.708
45409W        W 4945  32.119   6.807  12.068
45410W        W 4946  30.571  40.368  12.507
45411W        W 4947  24.536   6.912   4.331
45412W        W 4948  10.199  17.624   4.744
45413W        W 4949   1.923  37.933  10.421
45414W        W 4950  36.407  22.237   4.640
45415W        W 4951  28.069   5.225   2.872
45416W        W 4952  42.461   4.446  11.412
45417W        W 4953  38.847  38.406   3.156
45418W        W 4954  23.609  10.689  10.577
45419W        W 4955  42.406   8.164   3.642
45420W        W 4956  16.568   5.933   4.702
45421W        W 4957  12.205  18.122  11.394
45422W        W 4958  38.493   6.771  11.888
45423W        W 4959  32.990  13.126   2.830
45424W        W 4960   4.901   2.841  10.481
45425W        W 4961  19.154  44.391  11.886
45426W        W 4962  15.578  23.162  12.482
45427W        W 4963  41.451  40.478   2.330
45428W        W 4964   3.393  44.469   2.203
45429W        W 4965  23.502  23.610  14.279
45430W        W 4966  14.789   0.376   1.294
45431W        W 4967  30.164  22.624   1.372
45432W        W 4968  10.874  21.079  13.901
45433W        W 4969   6.215  30.477  11.514
45434W        W 4970  17.596  26.974  14.437
45435W        W 4971   0.801  26.179   9.557
45436W        W 4972   2.466  43.399  13.329
45437W        W 4973   1.940  42.389   2.394
45438W        W 4974   6.285  27.962  10.509
45439W        W 4975  21.718  25.054  11.056
45440W        W 4976   2.390   4.320   4.331
45441W        W 4977  26.000  16.643   0.867
45442W        W 4978  16.226  42.307  13.531
45443W        W 4979   9.286  16.105   1.860
45444W        W 4980  12.775  35.539  12.897
45445W        W 4981  28.619   1.900  11.397
45446W        W 4982   2.756  28.041  11.585
45447W        W 4983   2.867  20.183   4.801
45448W        W 4984  39.368  18.788  13.038
45449W        W 4985   1.838   6.923   1.356
45450W        W 4986  16.249  33.462  12.559
45451W        W 4987  34.509  27.950   2.389
45452W        W 4988  27.657  27.952   0.903
45453W        W 4989  40.829  29.479   0.371
45454W        W 4990  40.548  32.436  11.518
45455W        W 4991  17.700  32.394  12.561
45456W        W 4992  28.439  23.612   3.305
45457W        W 4993  14.200  35.977  13.968
45458W        W 4994  39.994  41.361   1.931
45459W        W 4995  40.434  39.017  14.339
45460W        W 4996  15.181  16.190  13.870
45461W        W 4997  20.269   0.464   4.180
45462W        W 4998  29.972  31.434  14.457
45463W        W 4999   3.769   9.889   0.904
45464W        W 5000  10.825  32.990  14.861
45465W        W 5001  31.418   1.454   4.640
45466W        W 5002  20.660  39.024   4.342
45467W        W 5003  26.103  30.012   2.338
45468W        W 5004  10.831  39.452  11.881
45469W        W 5005  23.014  25.060   4.138
45470W        W 5006  34.419  26.962  13.982
45471W        W 5007  20.039  14.768   3.822
45472W        W 5008  13.277  23.545  10.565
45473W        W 5009  18.737  42.795   3.268
45474W        W 5010  22.744  35.475   3.372
45475W        W 5011  21.028   2.919  11.917
45476W        W 5012   7.810  17.692   1.392
45477W        W 5013  15.309  15.677  14.452
45478W        W 5014   5.761  16.140   4.634
45479W        W 5015   5.417  44.298   0.746
45480W        W 5016  26.183  25.098   1.430
45481W        W 5017  37.367   6.359  14.353
45482W        W 5018  32.541  19.694  10.627
45483W        W 5019  34.959  22.501  11.856
45484W        W 5020  10.327  15.311  14.766
45485W        W 5021   1.874  23.649   1.802
45486W        W 5022  28.621  37.469   3.758
45487W        W 5023  29.654  14.301  12.347
45488W        W 5024  34.552  18.749  13.454
45489W        W 5025  37.441  10.188   3.674
45490W        W 5026  35.064   4.756   2.809
45491W        W 5027  37.038  24.131   0.827
45492W        W 5028   2.288   5.351   3.319
45493W        W 5029   9.643  20.073   3.194
45494W        W 5030  29.434  25.675  13.474
45495W        W 5031  17.694   8.351  13.392
45496W        W 5032   7.676  13.791   0.251
45497W        W 5033  42.918  11.787   1.881
45498W        W 5034  42.359   2.861  10.906
45499W        W 5035   7.259  34.001  11.987
45500W        W 5036  22.621  41.999  14.455
45501W        W 5037  41.802  13.111  11.492
45502W        W 5038  37.375  22.569   0.892
45503W        W 5039   1.348   3.810   2.255
45504W        W 5040  11.787   1.375  10.501
45505W        W 5041  26.993  15.577   3.263
45506W        W 5042  24.057  44.769   0.246
45507W        W 5043  15.315  41.534   0.835
45508W        W 5044   9.374  30.081  12.513
45509W        W 5045  31.051  18.579  14.463
45510W        W 5046  32.566  39.502  13.808
45511W        W 5047  44.337  25.158   3.749
45512W        W 5048  22.610  44.936   3.279
45513W        W 5049  10.263  25.468   3.853
45514W        W 5050  42.007  21.666  14.414
45515W        W 5051  16.217   1.831  11.993
45516W        W 5052  24.643  38.563   2.857
45517W        W 5053  17.078   0.750   1.402
45518W        W 5054  39.524  15.787   3.152
45519W        W 5055  11.779   0.937  11.119
45520W        W 5056  27.175   2.306  11.005
45521W        W 5057   6.358  18.663  13.897
45522W        W 5058   6.847   6.353   2.879
45523W        W 5059  41.803  36.557  14.982
45524W        W 5060  39.432  31.539  11.918
45525W        W 5061  12.299   5.400   1.314
45526W        W 5062  10.720  17.637  14.841
45527W        W 5063  18.720  35.876   9.965
45528W        W 5064  18.688  15.789   2.816
45529W        W 5065  20.656   8.264   2.319
45530W        W 5066  32.611  24.479  11.890
45531W        W 5067  23.161  15.105  14.827
45532W        W 5068   6.813  27.512   1.744
45533W        W 5069  39.338   2.229   1.780
45534W        W 5070  37.519   4.825  13.849
45535W        W 5071  11.185  25.678   0.303
45536W        W 5072   7.713  35.070   4.300
45537W        W 5073  15.217   4.787   3.252
45538W        W 5074  19.560   1.296   0.809
45539W        W 5075  23.668   4.702   0.923
45540W        W 5076   2.841   1.350  14.502
45541W        W 5077   0.884  14.310  13.041
45542W        W 5078   2.816   8.264  10.446
45543W        W 5079   3.748  37.452   4.702
45544W        W 5080   8.706  15.654   4.125
45545W        W 5081  15.296  12.190  12.492
45546W        W 5082   3.409  24.123  11.882
45547W        W 5083   8.682  37.913   0.337
45548W        W 5084  28.983  42.025   1.735
45549W        W 5085  24.538  35.597  14.297
45550W        W 5086   9.682  31.470  14.925
45551W        W 5087  23.221  43.790   4.257
45552W        W 5088  23.018  41.409   1.372
45553W        W 5089  17.711  27.532   3.792
45554W        W 5090  27.000  40.502   2.896
45555W        W 5091  15.126   2.893  12.867
45556W        W 5092  30.418  39.330  13.320
45557W        W 5093   1.752   7.694   3.799
45558W        W 5094   5.771  28.020  12.400
45559W        W 5095  29.935  44.843  12.526
45560W        W 5096   6.219  14.650  13.794
45561W        W 5097  27.951  12.250  14.830
45562W        W 5098  17.234  17.119   2.793
45563W        W 5099   1.838  30.515   0.409
45564W        W 5100  18.293  30.437  14.461
45565W        W 5101  11.666  21.586  12.438
45566W        W 5102  35.873  40.856   1.226
45567W        W 5103  14.713  33.902   1.224
45568W        W 5104  33.439  32.896   0.778
45569W        W 5105  23.005  37.055   1.334
45570W        W 5106  26.579  26.957  13.492
45571W        W 5107  29.950  19.095   2.415
45572W        W 5108   8.657  16.617  14.948
45573W        W 5109  33.492  36.847   1.416
45574W        W 5110  11.771  22.013  14.296
45575W        W 5111  42.845  39.003   1.382
45576W        W 5112  30.457  30.481   0.846
45577W        W 5113   2.333  10.280   2.863
45578W        W 5114  41.021  44.804  13.406
45579W        W 5115   5.877  36.956   0.468
45580W        W 5116  31.504   4.239   0.250
45581W        W 5117   4.320   0.909   2.401
45582W        W 5118   2.347  30.540  10.892
45583W        W 5119  22.052  30.616   1.421
45584W        W 5120  10.799   5.828   1.321
45585W        W 5121  35.934  21.756   3.238
45586W        W 5122  31.646  27.452  12.416
45587W        W 5123  29.442   0.763   3.157
45588W        W 5124  44.460  28.986  11.428
45589W        W 5125  35.943  37.075   1.857
45590W        W 5126  15.585  31.075   0.243
45591W        W 5127   2.794  44.894   0.818
45592W        W 5128  12.698  37.012  12.862
45593W        W 5129  39.457   3.447  13.053
45594W        W 5130  43.362   8.768  13.841
45595W        W 5131   4.234  12.697  10.982
45596W        W 5132   5.424  19.123   0.286
45597W        W 5133  16.211   6.329   2.740
45598W        W 5134  27.453  24.644  13.013
45599W        W 5135   2.777  34.531  13.803
45600W        W 5136  33.887  29.639   1.820
45601W        W 5137  21.241  31.635  11.512
45602W        W 5138  14.295  15.117  13.469
45603W        W 5139   9.225  28.585   0.802
45604W        W 5140  11.697   6.755  14.905
45605W        W 5141  44.979  28.640  14.355
45606W        W 5142  12.673  27.941  13.328
45607W        W 5143  30.470  33.032   1.243
45608W        W 5144  43.920  26.105   2.312
45609W        W 5145   0.764   6.344  12.517
45610W        W 5146  28.113  30.988   3.248
45611W        W 5147  44.787   9.284  13.356
45612W        W 5148   2.231  35.436  10.641
45613W        W 5149  32.635  17.123  13.851
45614W        W 5150   8.193  32.123  13.516
45615W        W 5151  13.116  33.430   3.701
45616W        W 5152  13.815   6.237  13.813
45617W        W 5153  10.330  17.743   1.728
45618W        W 5154  30.938  21.190   1.835
45619W        W 5155  12.851  16.275  13.396
45620W        W 5156  30.517  25.217   1.344
45621W        W 5157   0.388   6.702   2.815
45622W        W 5158  28.516  41.469  11.490
45623W        W 5159  34.911  38.040  14.366
45624W        W 5160  25.017  34.906  13.394
45625W        W 5161  37.042  27.473  12.949
45626W        W 5162  13.647   5.906  11.950
45627W        W 5163  31.632  17.745   1.245
45628W        W 5164   6.737  41.012  11.543
45629W        W 5165  15.598  23.597   3.315
45630W        W 5166  34.067  40.498  10.484
45631W        W 5167  10.786   4.892  12.092
45632W        W 5168  27.149  10.305   1.261
45633W        W 5169  13.794  34.961  11.054
45634W        W 5170  44.867  42.499   0.893
45635W        W 5171  27.672  11.844  11.986
45636W        W 5172  29.053   9.679  11.036
45637W        W 5173  38.054   3.339  13.538
45638W        W 5174   6.704  22.574   2.346
45639W        W 5175  20.243   1.801  11.021
45640W        W 5176  28.030  43.830  13.955
45641W        W 5177  31.018  32.561   2.215
45642W        W 5178  22.743  29.447  13.321
45643W        W 5179  25.125   4.780   3.783
45644W        W 5180  43.482  37.023  10.436
45645W        W 5181  41.313  29.124  11.960
45646W        W 5182  33.923  33.933  10.617
45647W        W 5183  23.986  43.847  14.814
45648W        W 5184  35.910  26.118   4.714
45649W        W 5185   3.237   9.731   4.117
45650W        W 5186  16.154  37.062  13.938
45651W        W 5187  33.558   3.750   0.374
45652W        W 5188  15.761   2.470  12.407
45653W        W 5189  24.125  15.620   0.427
45654W        W 5190  34.929  26.061   0.347
45655W        W 5191  11.740  27.048   5.729
45656W        W 5192   9.864  22.599  13.976
45657W        W 5193  23.231   1.805  13.059
45658W        W 5194   7.906  12.343   4.200
45659W        W 5195  32.625  29.628  10.991
45660W        W 5196  12.855  10.704   3.682
45661W        W 5197  11.259  27.095   2.259
45662W        W 5198  44.823  14.687   3.776
45663W        W 5199  44.320  15.171  12.825
45664W        W 5200   3.722  37.353   3.669
45665W        W 5201  10.323   1.259  11.978
45666W        W 5202  42.965  33.882  11.107
45667W        W 5203  21.583  12.640   1.809
45668W        W 5204  23.546  29.062  14.369
45669W        W 5205  37.393  13.668   2.383
45670W        W 5206  23.496  34.423  11.888
45671W        W 5207  42.965   6.376   4.240
45672W        W 5208  10.175  34.375  13.006
45673W        W 5209   3.854  26.597  10.421
45674W        W 5210  19.695  37.467   1.823
45675W        W 5211  13.811  29.089   4.697
45676W        W 5212  25.013  30.920   3.276
45677W        W 5213  25.627  18.095   1.826
45678W        W 5214  14.615  44.937   3.217
45679W        W 5215  29.154  21.694   3.735
45680W        W 5216  26.526  10.289   3.215
45681W        W 5217  42.443  17.196   0.243
45682W        W 5218  35.108  34.978   0.295
45683W        W 5219  18.685  20.158  10.996
45684W        W 5220  44.322  37.892   4.207
45685W        W 5221  35.905  33.040  10.486
45686W        W 5222  25.647  28.487   3.170
45687W        W 5223   2.926  35.000  11.424
45688W        W 5224  44.326  33.396   3.284
45689W        W 5225  12.131   8.364   4.668
45690W        W 5226  20.760   5.782   0.452
45691W        W 5227   4.286  27.471  12.842
45692W        W 5228  44.826  29.172   1.923
45693W        W 5229  17.585  33.473   1.922
45694W        W 5230  43.367  16.248  13.807
45695W        W 5231  20.267   8.182   3.804
45696W        W 5232   2.397   2.820  11.438
45697W        W 5233   2.428  42.524  11.378
45698W        W 5234  13.834  41.532  10.642
45699W        W 5235   3.939  22.248  14.313
45700W        W 5236  14.829   4.864   0.253
45701W        W 5237  11.643  16.792  14.313
45702W        W 5238  25.604  11.728  12.404
45703W        W 5239  31.149   0.254   1.412
45704W        W 5240  20.605  42.480  14.296
45705W        W 5241   6.859  12.340  13.470
45706W        W 5242  10.249   0.349  12.887
45707W        W 5243  22.699  39.471   1.296
45708W        W 5244  25.063  43.996   0.290
45709W        W 5245  12.200  29.487   0.476
45710W        W 5246  18.743  41.000   0.448
45711W        W 5247   7.394  42.988   2.822
45712W        W 5248  13.780  33.592   4.611
45713W        W 5249  32.519   2.904  11.515
45714W        W 5250  32.435  26.081   1.288
45715W        W 5251   1.841  13.769   2.707
45716W        W 5252  37.016  42.451   2.336
45717W        W 5253  19.692  15.189   2.192
45718W        W 5254   0.985  15.139  13.030
45719W        W 5255  30.081  41.389   4.119
45720W        W 5256  37.015  27.481   0.393
45721W        W 5257  11.700   1.786  10.601
45722W        W 5258   9.317   6.786   0.313
45723W        W 5259  21.185  11.801   3.676
45724W        W 5260   4.395  37.578   2.862
45725W        W 5261  11.739  18.788   1.386
45726W        W 5262  39.813  20.181  12.508
45727W        W 5263  36.417  37.426  12.899
45728W        W 5264  18.769  29.424   5.295
45729W        W 5265  29.928  30.162   1.695
45730W        W 5266  33.103  25.193  11.938
45731W        W 5267  20.245  18.135  10.537
45732W        W 5268  18.557  24.070  10.579
45733W        W 5269  33.617  12.682   5.284
45734W        W 5270  35.994  40.482   3.780
45735W        W 5271  34.547  26.107   5.616
45736W        W 5272   2.838  28.104  13.002
45737W        W 5273  44.402  12.651   4.339
45738W        W 5274  11.802   7.756   1.222
45739W        W 5275  29.591  38.463  12.978
45740W        W 5276   3.406  12.130   0.292
45741W        W 5277  16.074  39.523   2.400
45742W        W 5278  12.838  37.066  11.399
45743W        W 5279  24.077  44.430  12.342
45744W        W 5280  10.249  30.025   2.314
45745W        W 5281  25.659  38.499   3.349
45746W        W 5282  26.599  32.018  13.024
45747W        W 5283  14.300   6.365   1.238
45748W        W 5284  32.454  41.483  14.367
45749W        W 5285  29.608  22.104  11.924
45750W        W 5286   1.950  39.846  12.902
45751W        W 5287  23.081   3.853   3.804
45752W        W 5288  17.708  16.110  13.903
45753W        W 5289  21.206  34.894   2.192
45754W        W 5290  32.420  32.584   0.324
45755W        W 5291   9.745  11.207  12.903
45756W        W 5292  35.888  16.211  13.505
45757W        W 5293   5.322  13.153  10.543
45758W        W 5294  19.138   3.372   0.938
45759W        W 5295  36.420  12.181   3.331
45760W        W 5296  28.002   2.722   0.792
45761W        W 5297  41.836  44.885  14.013
45762W        W 5298  43.874  20.098   3.236
45763W        W 5299  20.212  18.741  11.422
45764W        W 5300   5.297  35.388   3.242
45765W        W 5301  26.151  10.221  10.509
45766W        W 5302  11.367  15.103   3.237
45767W        W 5303  31.403  11.169  13.473
45768W        W 5304  34.599   4.849   5.293
45769W        W 5305  11.283  33.554   1.236
45770W        W 5306   7.809   9.825   2.797
45771W        W 5307  41.810  10.667   2.834
45772W        W 5308  23.005   8.674  13.422
45773W        W 5309  14.787  18.750   2.692
45774W        W 5310  12.691  34.512  14.406
45775W        W 5311  30.487  13.265   0.380
45776W        W 5312  27.611  16.800   1.377
45777W        W 5313  36.444   4.321   4.721
45778W        W 5314   3.253  37.019   3.332
45779W        W 5315  43.319   2.249   4.277
45780W        W 5316  29.068   9.668   1.419
45781W        W 5317  21.185  37.008  13.051
45782W        W 5318  37.956  43.881   3.148
45783W        W 5319  12.823   4.294  12.528
45784W        W 5320  31.063  43.356  14.483
45785W        W 5321   9.776  39.485   3.641
45786W        W 5322  19.592  16.154   2.275
45787W        W 5323   3.399  32.609   4.644
45788W        W 5324   2.386   9.239  14.770
45789W        W 5325  36.001   7.330   4.610
45790W        W 5326  10.816  31.048  13.042
45791W        W 5327  21.528   9.749  13.897
45792W        W 5328  38.500  34.589   1.790
45793W        W 5329   1.303  12.629   1.894
45794W        W 5330   0.942  36.484  12.863
45795W        W 5331  12.205  20.525  12.910
45796W        W 5332  38.822   1.469  12.421
45797W        W 5333  20.550  41.381   3.255
45798W        W 5334  13.806   3.796   3.197
45799W        W 5335  19.055  31.484   0.875
45800W        W 5336  27.148  16.787   1.352
45801W        W 5337  25.192  19.600   1.377
45802W        W 5338  35.516  15.823   3.383
45803W        W 5339  42.503  33.586  14.343
45804W        W 5340   3.353   9.378  14.792
45805W        W 5341  13.761  12.350  13.975
45806W        W 5342  31.509  44.301   0.964
45807W        W 5343  33.087  22.128   0.412
45808W        W 5344  37.455  10.200   0.731
45809W        W 5345  40.854  11.165  12.417
45810W        W 5346   9.285  15.806   3.772
45811W        W 5347  38.953  36.456  12.440
45812W        W 5348  14.625  14.775   3.854
45813W        W 5349  43.921  11.711   3.290
45814W        W 5350   0.808  15.657   0.841
45815W        W 5351  23.094  20.605  13.405
45816W        W 5352  20.709  25.098   1.430
45817W        W 5353   1.758  25.154  11.108
45818W        W 5354  15.672  10.205   1.218
45819W        W 5355   8.375  40.023   0.290
45820W        W 5356  28.987  39.970   1.296
45821W        W 5357   9.672   0.756  12.876
45822W        W 5358  33.535  41.044   1.253
45823W        W 5359  32.931  28.060  10.626
45824W        W 5360  36.929   9.722  13.316
45825W        W 5361  16.594  31.963   4.670
45826W        W 5362   7.844  10.284  14.965
45827W        W 5363  17.771  22.738  12.088
45828W        W 5364  37.997  37.406   1.793
45829W        W 5365  17.678  43.861   1.348
45830W        W 5366  40.405   7.667   3.162
45831W        W 5367  15.153  27.532   0.340
45832W        W 5368  37.363   5.838  13.946
45833W        W 5369  15.238  39.063   4.334
45834W        W 5370   5.301  28.550  13.879
45835W        W 5371  13.665  40.939   1.334
45836W        W 5372  12.125  27.003  10.465
45837W        W 5373  26.461  35.906   4.178
45838W        W 5374  26.117  21.143   0.930
45839W        W 5375  21.662  19.647  13.913
45840W        W 5376   4.314   4.330   4.739
45841W        W 5377   6.418   2.428  12.510
45842W        W 5378   0.343  13.663   1.894
45843W        W 5379  33.020   1.953   2.809
45844W        W 5380  37.557  35.865   1.714
45845W        W 5381  17.631  17.778   0.755
45846W        W 5382   1.874  42.790  10.900
45847W        W 5383  42.950   5.735   1.451
45848W        W 5384   1.318   2.854   4.605
45849W        W 5385  37.398   9.161  10.406
45850W        W 5386  27.134   4.309   0.347
45851W        W 5387  13.673  43.877   1.291
45852W        W 5388  42.351   7.279   1.857
45853W        W 5389  12.354  36.482  12.843
45854W        W 5390  17.133  25.472   3.795
45855W        W 5391   5.270  23.598   4.264
45856W        W 5392  24.607  23.727  14.490
45857W        W 5393  26.204  37.994   0.293
45858W        W 5394  42.362  40.353   4.199
45859W        W 5395  41.986   7.269  13.983
45860W        W 5396  38.518   6.792  11.005
45861W        W 5397  13.660  37.028   1.707
45862W        W 5398  33.499  31.097  13.485
45863W        W 5399  11.297  17.626   3.387
45864W        W 5400  30.944   2.780  13.325
45865W        W 5401   3.300  33.407   3.837
45866W        W 5402  12.790  26.579   2.763
45867W        W 5403   2.863   3.832   2.812
45868W        W 5404  28.523  16.760   3.651
45869W        W 5405  15.096  27.580  11.498
45870W        W 5406  21.656  28.047   4.213
45871W        W 5407  20.563  37.547   1.855
45872W        W 5408  20.155   2.727   4.823
45873W        W 5409  18.225  38.831  14.286
45874W        W 5410   0.809  33.012  14.008
45875W        W 5411  22.128   3.215  13.862
45876W        W 5412  12.295  15.215   1.888
45877W        W 5413  13.665  29.126   1.424
45878W        W 5414  27.137  12.753   4.343
45879W        W 5415  44.784  15.801  11.501
45880W        W 5416   5.207  19.075   2.792
45881W        W 5417  28.597  13.272  10.520
45882W        W 5418  22.609   0.853  11.602
45883W        W 5419   9.807   8.202  12.061
45884W        W 5420  14.161  19.750   1.930
45885W        W 5421  17.616  41.481   1.856
45886W        W 5422  41.811  13.665   4.299
45887W        W 5423  41.880  37.422   3.863
45888W        W 5424  31.611  32.430  10.949
45889W        W 5425  39.062  38.500   4.649
45890W        W 5426  30.947  24.107  11.104
45891W        W 5427   1.857  21.756  14.825
45892W        W 5428  36.589   6.339  12.552
45893W        W 5429  43.451   0.346   4.184
45894W        W 5430   1.393  36.932  12.405
45895W        W 5431  20.181  29.993   2.368
45896W        W 5432  11.243  16.243   0.360
45897W        W 5433  26.167  14.722   0.293
45898W        W 5434  37.892   3.789  12.900
45899W        W 5435  34.541   1.251  10.129
45900W        W 5436   8.787   1.304   1.928
45901W        W 5437  15.309  20.564   3.319
45902W        W 5438  23.096  25.487   2.768
45903W        W 5439  37.917  17.784  13.377
45904W        W 5440  24.519  37.085   3.247
45905W        W 5441  30.132  24.544  13.959
45906W        W 5442   7.820   6.218   1.906
45907W        W 5443  18.157   7.203   0.410
45908W        W 5444  42.949  29.123  12.090
45909W        W 5445  23.176   1.818  13.896
45910W        W 5446   5.276  40.384  11.396
45911W        W 5447  42.458  17.235   3.827
45912W        W 5448  14.168  42.289  14.302
45913W        W 5449  12.611  34.592   2.288
45914W        W 5450   8.741  18.622  13.809
45915W        W 5451  19.100  15.218  11.464
45916W        W 5452  44.875  24.631  13.942
45917W        W 5453   7.912  37.460   5.269
45918W        W 5454   4.763  35.882   1.935
45919W        W 5455  16.211   5.370   3.269
45920W        W 5456  30.431  30.996   3.249
45921W        W 5457   0.937  24.020  13.316
45922W        W 5458   8.329  30.989  11.378
45923W        W 5459  35.384   0.323  13.347
45924W        W 5460  25.194  27.597   3.184
45925W        W 5461  29.503  14.229  10.561
45926W        W 5462  19.199  29.433  13.533
45927W        W 5463  42.966  26.073   2.199
45928W        W 5464  28.461  29.487  10.438
45929W        W 5465   9.395  16.746  11.501
45930W        W 5466  43.350   8.362   0.367
45931W        W 5467  18.281  22.595   4.248
45932W        W 5468   5.384  28.678   3.730
45933W        W 5469  13.685   2.265  11.978
45934W        W 5470  36.076   4.913  13.478
45935W        W 5471  17.097  42.343  14.809
45936W        W 5472  29.115  44.408  13.387
45937W        W 5473  31.999  34.467   4.229
45938W        W 5474  23.176  24.035   0.774
45939W        W 5475  24.716  44.489   2.735
45940W        W 5476  30.938  21.688   1.366
45941W        W 5477  39.047  42.965  12.504
45942W        W 5478  34.575   9.760   1.313
45943W        W 5479  18.086  10.726  12.933
45944W        W 5480  15.719  34.994  11.956
45945W        W 5481  14.806  36.437   0.400
45946W        W 5482  17.150  19.775   2.214
45947W        W 5483  27.133   9.657  11.571
45948W        W 5484   0.490   0.898   0.314
45949W        W 5485  29.428  38.971  11.002
45950W        W 5486  42.364  36.518   3.287
45951W        W 5487  33.463   9.232  10.930
45952W        W 5488   9.374  29.467  12.880
45953W        W 5489  40.456  18.583   1.320
45954W        W 5490  16.275  28.478  12.571
45955W        W 5491  35.927  35.584   4.819
45956W        W 5492  33.114  10.227   0.785
45957W        W 5493  37.937   1.342   0.353
45958W        W 5494  11.669  42.335  13.343
45959W        W 5495  25.186  21.073   0.442
45960W        W 5496  38.424  21.733   0.957
45961W        W 5497  13.667  30.461  13.010
45962W        W 5498  21.204  30.010   2.772
45963W        W 5499  18.073   6.291  14.803
45964W        W 5500   0.742  18.577   2.313
45965W        W 5501  33.468  41.532  12.353
45966W        W 5502  18.174  31.918  14.277
45967W        W 5503  27.088  29.132  10.899
45968W        W 5504  22.636  12.776   2.403
45969W        W 5505  28.025  16.790   4.283
45970W        W 5506  34.519  41.916   2.304
45971W        W 5507   6.785   5.215   3.770
45972W        W 5508   3.778   6.427   1.271
45973W        W 5509  30.071  12.683  14.886
45974W        W 5510  27.464   6.730  14.358
45975W        W 5511   3.355  31.001   0.894
45976W        W 5512  24.495  22.647  12.482
45977W        W 5513  34.467  40.411   2.749
45978W        W 5514  39.330   6.751   4.745
45979W        W 5515  21.117  37.439  11.967
45980W        W 5516  13.274  41.380  11.443
45981W        W 5517  34.036   1.942   4.602
45982W        W 5518  31.457  20.241  11.008
45983W        W 5519   2.266  38.327   1.913
45984W        W 5520  20.766  29.493   0.919
45985W        W 5521  25.510  22.114  12.542
45986W        W 5522  18.720  12.835   4.254
45987W        W 5523  24.481  29.993  14.783
45988W        W 5524  28.968  22.703   1.844
45989W        W 5525  40.421  11.334  14.834
45990W        W 5526  26.995  38.375   2.183
45991W        W 5527   1.348  12.789   2.760
45992W        W 5528  26.110  35.937   1.763
45993W        W 5529  14.668   7.355  12.983
45994W        W 5530  25.196  25.499   3.677
45995W        W 5531  25.209  11.848  10.969
45996W        W 5532   1.450  41.805  13.916
45997W        W 5533  24.491  22.233  10.028
45998W        W 5534   7.883   2.955   2.733
45999W        W 5535  30.931  43.282  14.021
46000W        W 5536  18.139  27.035  12.416
46001W        W 5537   8.896  25.115  10.462
46002W        W 5538  38.513   5.355  12.935
46003W        W 5539  13.763  33.552   2.741
46004W        W 5540  15.117   9.332   1.264
46005W        W 5541  44.398  11.300   0.958
46006W        W 5542  14.273  31.555   2.885
46007W        W 5543  34.606  28.034  10.961
46008W        W 5544  44.273  13.779   0.812
46009W        W 5545  25.045   9.207   0.872
46010W        W 5546   0.478   0.348  13.525
46011W        W 5547  41.899  24.195  13.808
46012W        W 5548  16.184  34.602   4.642
46013W        W 5549  28.623  42.879  12.842
46014W        W 5550  32.439  17.078  14.432
46015W        W 5551  42.002   0.872  14.872
46016W        W 5552  12.690   3.715   1.747
46017W        W 5553  10.647   2.230  12.830
46018W        W 5554  36.919  40.527   0.244
46019W        W 5555  34.588  19.545   4.825
46020W        W 5556  21.042  22.009  11.929
46021W        W 5557   8.778  15.101   0.472
46022W        W 5558  19.120   6.698   3.236
46023W        W 5559   2.911  15.763  14.817
46024W        W 5560  29.537  18.764   2.205
46025W        W 5561  34.498  40.839   3.730
46026W        W 5562   3.942  20.056  14.840
46027W        W 5563  27.100  10.775   4.346
46028W        W 5564  34.450   4.791   3.693
46029W        W 5565  28.938   3.374  14.329
46030W        W 5566   5.896  21.564   2.242
46031W        W 5567  26.157   2.434   4.329
46032W        W 5568  21.543  28.487   2.199
46033W        W 5569  11.724  44.956   1.234
46034W        W 5570  18.099  25.201  11.112
46035W        W 5571   2.367  42.931  10.487
46036W        W 5572  31.112  15.104  10.439
46037W        W 5573  34.461  27.188   3.764
46038W        W 5574   4.886  16.208  12.841
46039W        W 5575   1.302  30.101  10.473
46040W        W 5576  37.433  16.617  10.055
46041W        W 5577   5.863   8.674   0.295
46042W        W 5578  11.343  11.262   0.965
46043W        W 5579  42.360   6.764   1.233
46044W        W 5580   9.772  39.827   1.803
46045W        W 5581  14.243  44.843   3.191
46046W        W 5582  30.161   2.345  10.449
46047W        W 5583  35.077   9.802   1.723
46048W        W 5584  33.422  14.201   4.631
46049W        W 5585   5.871  32.523  12.848
46050W        W 5586  36.928   7.309  10.600
46051W        W 5587   7.899  26.050  11.380
46052W        W 5588   1.434  28.436  12.986
46053W        W 5589   9.229   8.707   3.741
46054W        W 5590   7.413  17.196   1.355
46055W        W 5591  29.517  17.202  12.436
46056W        W 5592   3.915  34.916   2.772
46057W        W 5593  34.955  41.432   1.217
46058W        W 5594  17.770  15.137   2.192
46059W        W 5595  14.686  30.110   1.330
46060W        W 5596   9.169  12.282   3.680
46061W        W 5597   9.301  41.458  11.977
46062W        W 5598  25.067  31.627   1.306
46063W        W 5599  21.522  39.046   3.275
46064W        W 5600   2.753   7.793  13.925
46065W        W 5601  18.626  43.957   3.165
46066W        W 5602  22.252  10.374  13.488
46067W        W 5603  39.965   0.300   4.335
46068W        W 5604  42.795   4.272  11.039
46069W        W 5605  28.557  11.830   0.763
46070W        W 5606  15.614   4.300   2.240
46071W        W 5607   0.905   3.252  13.335
46072W        W 5608  38.025  41.355   2.794
46073W        W 5609   5.782  14.610  12.399
46074W        W 5610  18.570  38.978   9.927
46075W        W 5611   7.886  40.506   3.325
46076W        W 5612  38.452  30.423   1.373
46077W        W 5613  35.055   5.421  11.546
46078W        W 5614  27.984  42.795  11.467
46079W        W 5615  23.062   9.789  12.908
46080W        W 5616  20.095  28.080   0.733
46081W        W 5617  32.061  41.905   0.481
46082W        W 5618   2.284   4.908   2.206
46083W        W 5619   2.363  26.486   2.368
46084W        W 5620  24.704  15.200  14.292
46085W        W 5621  34.497  15.602   3.780
46086W        W 5622   7.244  10.234   3.376
46087W        W 5623  30.942  22.709   4.276
46088W        W 5624   4.742  17.787  12.439
46089W        W 5625  21.595  17.726   5.232
46090W        W 5626  40.313   6.748   0.950
46091W        W 5627  20.645  26.680  14.357
46092W        W 5628  12.200  25.053  14.431
46093W        W 5629   7.680  42.434   2.194
46094W        W 5630   4.239  32.637  11.401
46095W        W 5631  32.975  20.240  14.361
46096W        W 5632  29.619  42.833   1.228
46097W        W 5633  39.360  29.980   3.794
46098W        W 5634   3.726  24.622   2.249
46099W        W 5635  24.141  38.832  12.501
46100W        W 5636  44.439  20.662  10.500
46101W        W 5637  36.559   7.375  13.400
46102W        W 5638  15.257  35.545   0.252
46103W        W 5639  14.330   9.328  13.448
46104W        W 5640   8.324  32.013   0.790
46105W        W 5641  15.302  38.540  14.350
46106W        W 5642  25.630  29.594   4.204
46107W        W 5643  33.020  26.062   1.338
46108W        W 5644   7.247  16.163  11.895
46109W        W 5645  27.540   1.823   1.373
46110W        W 5646  10.146  41.810   4.344
46111W        W 5647   0.936  32.635   1.794
46112W        W 5648  11.317  20.550  14.496
46113W        W 5649   2.468  36.545   2.203
46114W        W 5650   3.872  18.608  14.886
46115W        W 5651  41.889  33.422  14.862
46116W        W 5652  36.412  25.170  12.934
46117W        W 5653   6.803   8.722   3.343
46118W        W 5654  38.058   9.798   3.162
46119W        W 5655  42.857   6.834   2.296
46120W        W 5656  32.601  26.009   9.652
46121W        W 5657   3.275  20.578  11.987
46122W        W 5658   8.823  33.426   1.818
46123W        W 5659  28.153   7.365   4.207
46124W        W 5660  39.449  43.434   3.732
46125W        W 5661  10.199  29.487   0.785
46126W        W 5662   9.229   6.234  12.553
46127W        W 5663   7.905   5.214  11.048
46128W        W 5664  31.039  33.568   3.632
46129W        W 5665  36.869  34.611   1.259
46130W        W 5666  31.077  24.720  14.422
46131W        W 5667  16.806  15.229   0.830
46132W        W 5668  14.699  17.080  12.414
46133W        W 5669  42.861  11.704  14.323
46134W        W 5670  32.634  23.031   3.866
46135W        W 5671  42.847  34.498  14.345
46136W        W 5672   9.303  32.978   3.222
46137W        W 5673   7.741  12.706  10.908
46138W        W 5674  32.513   9.266   4.152
46139W        W 5675  20.561  40.305  12.030
46140W        W 5676   4.295  17.152   2.723
46141W        W 5677  16.163  31.012   4.664
46142W        W 5678  38.894   0.768   2.754
46143W        W 5679  38.863  40.360   1.853
46144W        W 5680   9.307  31.124  13.844
46145W        W 5681   4.877  32.010   0.934
46146W        W 5682  31.137  27.175   9.984
46147W        W 5683  23.660  37.981  14.360
46148W        W 5684  19.107  25.538  14.315
46149W        W 5685  28.932  20.128  14.786
46150W        W 5686  41.401  22.510  11.580
46151W        W 5687   9.290  37.964   1.236
46152W        W 5688  33.601  39.550   3.705
46153W        W 5689  31.477   5.313   0.935
46154W        W 5690  27.008  22.009   3.152
46155W        W 5691   0.375  42.835  11.016
46156W        W 5692  36.555  26.579  10.425
46157W        W 5693  19.691   1.269  10.434
46158W        W 5694  18.624  10.267  13.000
46159W        W 5695  40.927  12.749   4.284
46160W        W 5696  11.224   7.277  12.092
46161W        W 5697  29.972   4.397  12.991
46162W        W 5698   0.263   5.208  13.354
46163W        W 5699  17.286  35.428   2.890
46164W        W 5700  43.493  24.130  12.003
46165W        W 5701  14.815  32.464   0.769
46166W        W 5702   5.708  19.055  12.961
46167W        W 5703  26.658  10.641  14.818
46168W        W 5704  42.880  39.372  11.455
46169W        W 5705  40.542  29.612   0.773
46170W        W 5706   2.399  36.049  13.939
46171W        W 5707  38.076   0.891  14.289
46172W        W 5708  15.621  22.036  11.042
46173W        W 5709  41.004  25.155   2.699
46174W        W 5710  26.958  24.112  11.068
46175W        W 5711  32.616   0.863  11.411
46176W        W 5712  39.962  32.966  14.017
46177W        W 5713   3.952  13.729  11.929
46178W        W 5714   0.971  21.047  14.981
46179W        W 5715  25.622  26.201   3.236
46180W        W 5716  14.813  25.476   0.333
46181W        W 5717  32.593  43.349  13.027
46182W        W 5718   1.281  19.097   0.929
46183W        W 5719  24.203  20.239  11.993
46184W        W 5720  35.378  30.506   4.624
46185W        W 5721  29.562  16.583  14.375
46186W        W 5722  19.205  30.496  14.897
46187W        W 5723   2.778  19.546  12.986
46188W        W 5724   5.334  31.566  13.342
46189W        W 5725  20.255  22.011   2.411
46190W        W 5726  27.089  15.700   3.869
46191W        W 5727  36.870   5.410  11.127
46192W        W 5728   3.768  21.183  10.532
46193W        W 5729  17.751  21.249  13.491
46194W        W 5730   5.858  12.171   1.307
46195W        W 5731  32.588  25.033  14.284
46196W        W 5732  21.231  27.172   0.264
46197W        W 5733  41.382   4.385  10.463
46198W        W 5734  44.398  21.217   2.770
46199W        W 5735   9.392  34.959  12.556
46200W        W 5736  14.793  31.407   4.321
46201W        W 5737   3.856   7.219   4.206
46202W        W 5738  34.372  42.852  14.779
46203W        W 5739  37.438  11.157   3.690
46204W        W 5740  36.416  27.489  11.922
46205W        W 5741  24.057   2.315  12.398
46206W        W 5742  36.444  39.023  13.966
46207W        W 5743   9.648  19.088  10.946
46208W        W 5744  23.133   8.224  13.057
46209W        W 5745  31.550   1.794  11.966
46210W        W 5746   9.218  14.597   2.186
46211W        W 5747  14.831  38.404   0.791
46212W        W 5748  39.864  41.320   3.254
46213W        W 5749  30.001  27.005  12.920
46214W        W 5750  20.618  40.439   0.272
46215W        W 5751  40.817  12.312   3.722
46216W        W 5752  13.138  18.240   0.905
46217W        W 5753  20.590  16.316   3.331
46218W        W 5754   1.336   0.775  11.449
46219W        W 5755  10.174  41.310  12.421
46220W        W 5756  43.839  41.041   0.965
46221W        W 5757  31.404  29.160   4.632
46222W        W 5758  33.569   7.778  10.617
46223W        W 5759  10.821  16.180   1.431
46224W        W 5760  42.968  35.422   2.350
46225W        W 5761  29.996  36.365   1.421
46226W        W 5762   1.435  38.819  12.456
46227W        W 5763   3.802  14.643   4.221
46228W        W 5764  41.424  26.056  11.880
46229W        W 5765   5.290  23.710  11.422
46230W        W 5766  20.269  21.132  13.462
46231W        W 5767  14.786  26.579   4.283
46232W        W 5768  44.922   3.885   1.277
46233W        W 5769  39.391  39.000  12.569
46234W        W 5770   9.658  30.046   2.737
46235W        W 5771  39.855  13.732  13.529
46236W        W 5772  37.425  34.430   3.637
46237W        W 5773   9.760  43.805  11.907
46238W        W 5774   8.852   5.277   3.685
46239W        W 5775  17.230  43.449  10.024
46240W        W 5776   3.224   6.777  12.471
46241W        W 5777   0.914  33.887   3.369
46242W        W 5778  16.779  19.759   2.771
46243W        W 5779  22.641   5.827   2.406
46244W        W 5780   8.745  28.444   3.757
46245W        W 5781  21.142   3.820   1.798
46246W        W 5782  35.562  26.540   1.235
46247W        W 5783   3.729   1.306  14.005
46248W        W 5784   1.374   2.752  14.933
46249W        W 5785  20.152  15.230   3.237
46250W        W 5786  22.171   8.893   1.768
46251W        W 5787  14.180  41.950   2.693
46252W        W 5788  30.644  14.683   2.781
46253W        W 5789  44.391  34.933  12.464
46254W        W 5790   2.870  23.589   1.778
46255W        W 5791  30.020  32.027   2.398
46256W        W 5792   7.870  19.124   4.179
46257W        W 5793   3.265  33.613   2.689
46258W        W 5794   4.430   2.243   2.407
46259W        W 5795  39.928  22.542   0.823
46260W        W 5796  43.423   4.891   0.295
46261W        W 5797   0.421  35.946  12.493
46262W        W 5798   0.936  33.056   1.236
46263W        W 5799  22.575  36.074  12.876
46264W        W 5800  44.409  44.935   4.612
46265W        W 5801  20.244  20.658  10.063
46266W        W 5802  29.659  33.422  13.459
46267W        W 5803  37.432  34.007   3.263
46268W        W 5804  15.233   0.974   3.745
46269W        W 5805   4.360   4.699  13.445
46270W        W 5806  37.944  23.728   3.208
46271W        W 5807  42.006  34.495   3.289
46272W        W 5808  12.165  36.411   1.800
46273W        W 5809  34.439  34.396   1.445
46274W        W 5810  23.623  41.799   2.729
46275W        W 5811  36.469  10.718   1.872
46276W        W 5812  39.537   5.740   3.744
46277W        W 5813   6.389  13.724   0.399
46278W        W 5814   2.816  23.132   3.683
46279W        W 5815  14.245  23.129   2.816
46280W        W 5816  44.403  27.067  14.843
46281W        W 5817  44.274  22.184  13.977
46282W        W 5818  40.375   3.290  11.019
46283W        W 5819  39.481  24.175   1.346
46284W        W 5820  20.117  19.145   3.668
46285W        W 5821   3.413  42.498  14.329
46286W        W 5822  17.765  21.067  14.469
46287W        W 5823  14.140  42.385   0.761
46288W        W 5824  16.568  44.451  12.043
46289W        W 5825   0.296  39.389   3.841
46290W        W 5826  21.656  15.700   2.341
46291W        W 5827   6.204  38.384   3.673
46292W        W 5828  38.888  41.990  12.570
46293W        W 5829   3.754  33.014   0.868
46294W        W 5830  27.603  24.009   0.383
46295W        W 5831  38.835  19.724  13.867
46296W        W 5832  14.150  24.541   3.183
46297W        W 5833  12.854  28.549   2.683
46298W        W 5834  30.431  41.473   0.893
46299W        W 5835  26.509  14.696  14.473
46300W        W 5836  32.957   1.346   4.283
46301W        W 5837  36.464  30.512  10.420
46302W        W 5838  41.822  44.261  10.084
46303W        W 5839   6.913  22.566   4.316
46304W        W 5840  11.348  39.365   0.811
46305W        W 5841  37.510  21.729   4.824
46306W        W 5842  13.143  11.796  11.903
46307W        W 5843  31.049  17.265  14.937
46308W        W 5844  40.018  32.105   4.835
46309W        W 5845  29.104  18.225  12.499
46310W        W 5846  12.721  41.445   1.385
46311W        W 5847   3.722  34.374  13.495
46312W        W 5848  43.826  44.297  13.321
46313W        W 5849  15.689  11.297   4.201
46314W        W 5850  16.782  23.241  14.934
46315W        W 5851  30.487  20.673   0.382
46316W        W 5852  20.200  25.159  14.797
46317W        W 5853  44.809  44.455   4.738
46318W        W 5854   6.852  41.862   4.305
46319W        W 5855  28.081   4.340   4.308
46320W        W 5856  43.908  28.964  12.878
46321W        W 5857   4.923  42.992   5.204
46322W        W 5858   5.913   4.218   3.280
46323W        W 5859  42.021  14.742   4.116
46324W        W 5860  34.390  31.986   3.711
46325W        W 5861  16.240  11.813   1.319
46326W        W 5862  16.746   8.788  14.008
46327W        W 5863  39.397  14.721  13.353
46328W        W 5864  37.431  33.475   2.268
46329W        W 5865  29.543  33.964  12.064
46330W        W 5866  39.910  24.141  12.499
46331W        W 5867  19.256  39.503   1.334
46332W        W 5868  19.773  37.490  11.588
46333W        W 5869  37.909   2.744  14.505
46334W        W 5870  10.732  10.223  13.418
46335W        W 5871   3.291  14.616  13.866
46336W        W 5872  17.557   6.802  13.345
46337W        W 5873   7.176   5.353  13.463
46338W        W 5874  36.544  19.199  14.467
46339W        W 5875  20.625   9.823  13.053
46340W        W 5876  38.020   0.947   1.380
46341W        W 5877  26.686  30.437  13.396
46342W        W 5878   2.349  43.834   0.899
46343W        W 5879  34.885   3.800   4.762
46344W        W 5880  42.428  17.077  14.837
46345W        W 5881  19.047  28.962  13.541
46346W        W 5882  10.355  41.950  13.810
46347W        W 5883  41.301  35.590   2.250
46348W        W 5884  21.533   9.385  14.837
46349W        W 5885  10.293  22.233  11.572
46350W        W 5886  13.180  27.597   9.981
46351W        W 5887  40.387  35.871  14.337
46352W        W 5888  26.158  12.747  14.023
46353W        W 5889  35.986  25.148  13.923
46354W        W 5890  28.528  14.272  14.852
46355W        W 5891   7.323   3.897   3.250
46356W        W 5892  22.166   0.800  14.893
46357W        W 5893  32.105  27.656  13.310
46358W        W 5894  27.618  23.210   1.858
46359W        W 5895  25.082  34.890  11.463
46360W        W 5896   8.195  18.584   4.253
46361W        W 5897  32.889   7.394  13.859
46362W        W 5898  21.586   7.359  11.043
46363W        W 5899  29.156  12.173  12.529
46364W        W 5900  43.478  20.606  11.376
46365W        W 5901  20.691  15.691  14.891
46366W        W 5902  26.502  27.467  13.523
46367W        W 5903  24.590  11.213   4.799
46368W        W 5904  39.391  12.268   4.648
46369W        W 5905  18.114  31.022   3.777
46370W        W 5906  10.147  29.467   3.791
46371W        W 5907  14.151  25.618   2.881
46372W        W 5908   0.430  10.869  12.578
46373W        W 5909  23.235  17.738   4.708
46374W        W 5910   7.768  44.382  14.891
46375W        W 5911  42.878  37.002  12.883
46376W        W 5912   0.286  13.348   1.374
46377W        W 5913   8.341  19.674  14.495
46378W        W 5914   9.868  40.470  10.946
46379W        W 5915  14.199  44.428   1.786
46380W        W 5916  36.867  32.055   3.834
46381W        W 5917  16.759  36.375  11.058
46382W        W 5918   2.309  43.412   1.857
46383W        W 5919  10.723  43.865   0.320
46384W        W 5920  34.926  10.230   2.340
46385W        W 5921  31.962  43.455  12.886
46386W        W 5922  30.574   3.733  11.873
46387W        W 5923  14.760  34.387  10.626
46388W        W 5924  34.107  36.027  10.524
46389W        W 5925  11.347  32.573   2.229
46390W        W 5926  27.032  29.565  11.457
46391W        W 5927   0.360  41.537   3.644
46392W        W 5928   6.314  40.015  10.510
46393W        W 5929  31.407  43.790  14.939
46394W        W 5930  37.904   5.924   4.175
46395W        W 5931  24.558  28.676   0.859
46396W        W 5932  13.674  13.646   3.218
46397W        W 5933  36.082  32.961   4.761
46398W        W 5934  34.592  16.800   3.281
46399W        W 5935  35.109  44.849  12.521
46400W        W 5936  30.540  15.168   3.349
46401W        W 5937  25.513  13.833  10.589
46402W        W 5938   9.225  39.526   0.845
46403W        W 5939  23.698  25.989   1.280
46404W        W 5940  10.656  43.292  13.836
46405W        W 5941  37.891   6.890   1.710
46406W        W 5942  24.551  41.421  14.789
46407W        W 5943   8.379  22.742   3.749
46408W        W 5944  12.624  11.818   0.886
46409W        W 5945   2.236   2.348  14.900
46410W        W 5946  24.008  44.338   4.130
46411W        W 5947  21.736  31.139  13.476
46412W        W 5948  15.160   4.794  13.502
46413W        W 5949  37.941   4.275  12.025
46414W        W 5950   7.400  35.919   0.916
46415W        W 5951  14.234  13.238  13.878
46416W        W 5952  40.878  25.609   1.882
46417W        W 5953  19.554  35.518  10.607
46418W        W 5954  33.518  42.334  10.926
46419W        W 5955  30.638  42.845   1.754
46420W        W 5956  33.974   2.357  12.960
46421W        W 5957  37.520  19.148   3.778
46422W        W 5958  18.698  39.539   3.153
46423W        W 5959  12.613   4.890  12.991
46424W        W 5960  24.572  28.612   3.148
46425W        W 5961  32.925   3.870   0.797
46426W        W 5962   4.814   4.366   0.852
46427W        W 5963  22.518  13.253  11.040
46428W        W 5964   2.300   6.272   3.736
46429W        W 5965  11.636  29.984  13.955
46430W        W 5966   5.849  16.289  13.441
46431W        W 5967  35.509  22.232  14.927
46432W        W 5968  42.953  41.836   0.856
46433W        W 5969  18.209   7.709  14.425
46434W        W 5970  39.846  17.630  12.456
46435W        W 5971  11.847  25.006  14.389
46436W        W 5972   4.894   4.911  10.925
46437W        W 5973  14.304  17.785   3.378
46438W        W 5974   3.350   6.704  12.061
46439W        W 5975   7.846  17.800  12.409
46440W        W 5976  40.345  21.140   5.125
46441W        W 5977  13.260  34.510   3.155
46442W        W 5978   5.870  20.152  12.928
46443W        W 5979  34.004  22.599   3.316
46444W        W 5980   4.893  38.370  11.901
46445W        W 5981   5.248   3.235  11.506
46446W        W 5982  23.999  16.741   0.311
46447W        W 5983   8.763  32.528   2.687
46448W        W 5984  23.084  21.674   0.842
46449W        W 5985  30.952  18.288  13.321
46450W        W 5986  14.753  39.383   4.115
46451W        W 5987  37.533  11.339   1.726
46452W        W 5988  24.617   6.383   2.271
46453W        W 5989  30.526  10.374  10.575
46454W        W 5990  41.861  13.729   0.294
46455W        W 5991   0.490  11.710   2.288
46456W        W 5992  12.701   0.767   4.816
46457W        W 5993  17.115  15.690  13.926
46458W        W 5994   8.868  13.233  14.414
46459W        W 5995   1.803  23.169   5.264
46460W        W 5996  35.419   2.877  14.777
46461W        W 5997  24.651  42.436   0.745
46462W        W 5998  43.846  16.604  11.037
46463W        W 5999  16.708  32.530   0.247
46464W        W 6000  34.032  14.706  14.322
46465W        W 6001  33.075  36.074   0.259
46466W        W 6002  41.461  29.621  13.503
46467W        W 6003  34.978  27.591  12.518
46468W        W 6004  16.087  30.567  12.865
46469W        W 6005  32.446  25.591   2.831
46470W        W 6006  19.537  10.796   1.895
46471W        W 6007  41.966  41.397  14.947
46472W        W 6008   3.297  43.796  10.589
46473W        W 6009  10.197  13.691  12.007
46474W        W 6010  41.895  14.589   1.698
46475W        W 6011  28.073  16.760   3.149
46476W        W 6012  20.602   2.938  11.502
46477W        W 6013  15.091   8.875  13.375
46478W        W 6014  25.576  31.591   0.816
46479W        W 6015   0.376  15.222   3.855
46480W        W 6016  23.725   7.314   0.850
46481W        W 6017  22.670  10.753   1.316
46482W        W 6018  35.975  25.639  14.413
46483W        W 6019  23.528  10.793  11.921
46484W        W 6020  34.906  44.952  14.770
46485W        W 6021  21.177   6.765  13.791
46486W        W 6022  36.426  37.987  14.515
46487W        W 6023  17.150  12.830   4.276
46488W        W 6024   1.257   8.362   1.702
46489W        W 6025  31.082  38.560  14.852
46490W        W 6026  28.147  14.107  14.344
46491W        W 6027  24.202   5.201   3.209
46492W        W 6028  11.668  32.077  11.124
46493W        W 6029   9.257  40.860   4.670
46494W        W 6030  44.338  40.818  13.475
46495W        W 6031  39.456   8.321  11.915
46496W        W 6032  22.111   2.347  10.902
46497W        W 6033  25.085  18.084   5.138
46498W        W 6034  33.933  20.196   3.227
46499W        W 6035  43.878  28.943  12.069
46500W        W 6036  16.774  41.011   0.454
46501W        W 6037  26.043  11.746  13.480
46502W        W 6038  20.075   2.303  11.603
46503W        W 6039  20.743  29.052   4.228
46504W        W 6040   3.265   7.181   0.335
46505W        W 6041  32.598  35.096   4.243
46506W        W 6042  22.027  44.489  11.912
46507W        W 6043  21.125  23.012   3.699
46508W        W 6044  38.076  19.550  12.993
46509W        W 6045  30.987  16.736   2.223
46510W        W 6046   3.835  43.940  13.857
46511W        W 6047  30.956  30.929  13.977
46512W        W 6048  43.971  32.095  12.992
46513W        W 6049  39.330  13.674   0.966
46514W        W 6050  40.835  32.557   2.248
46515W        W 6051   6.706   2.756   1.870
46516W        W 6052   8.302   7.378  11.569
46517W        W 6053  43.393  33.488   0.840
46518W        W 6054  32.631  26.456   5.787
46519W        W 6055  39.441  28.567  10.426
46520W        W 6056   3.296  12.763  14.448
46521W        W 6057  44.997  30.059   3.649
46522W        W 6058  28.489  18.169  12.936
46523W        W 6059  16.157  35.057  10.979
46524W        W 6060   6.275  29.134   1.256
46525W        W 6061  12.739  39.838   1.842
46526W        W 6062  16.239  12.313   3.301
46527W        W 6063  27.449   3.383  12.929
46528W        W 6064   3.866  41.888   4.624
46529W        W 6065  37.049  38.365  10.962
46530W        W 6066   4.839  39.018   5.091
46531W        W 6067  32.554   2.949  13.540
46532W        W 6068   4.431  10.326  12.896
46533W        W 6069  22.570  18.637  12.538
46534W        W 6070  24.611  40.980  11.070
46535W        W 6071   0.359   6.707  13.356
46536W        W 6072   8.730  24.983  11.046
46537W        W 6073  27.644  17.176  12.397
46538W        W 6074  18.688  15.822   3.642
46539W        W 6075  13.820  39.392   0.310
46540W        W 6076  30.124  35.399   3.814
46541W        W 6077   8.759  32.582   0.815
46542W        W 6078   8.192  32.616   1.843
46543W        W 6079  23.030  23.009   0.953
46544W        W 6080  39.991   3.434   2.759
46545W        W 6081  25.659   6.846   4.146
46546W        W 6082  30.051  26.503   4.824
46547W        W 6083  21.619  37.350   1.782
46548W        W 6084  22.533  40.347   9.979
46549W        W 6085  33.443  43.003  11.611
46550W        W 6086   5.745  37.401  14.501
46551W        W 6087  28.616  40.942   2.899
46552W        W 6088  25.520  39.057  10.122
46553W        W 6089   5.924  36.471  14.883
46554W        W 6090   5.306  14.112   3.634
46555W        W 6091  31.644  13.188  12.406
46556W        W 6092  16.774  34.584  13.467
46557W        W 6093  18.183  31.984   3.678
46558W        W 6094  26.460   4.822  14.875
46559W        W 6095  14.234  23.008  10.108
46560W        W 6096   3.349   9.229   4.791
46561W        W 6097  35.530  24.505   0.949
46562W        W 6098  17.576  14.643  13.316
46563W        W 6099  43.804  44.835  10.519
46564W        W 6100   3.361   6.333  10.642
46565W        W 6101  29.621   2.948   2.879
46566W        W 6102  26.666  43.800  12.519
46567W        W 6103  18.271  24.132   3.818
46568W        W 6104   3.459   2.388  11.524
46569W        W 6105  33.484  43.866  12.405
46570W        W 6106  21.074  41.846  13.518
46571W        W 6107  32.595  26.651   3.667
46572W        W 6108   2.234   3.361   3.641
46573W        W 6109  38.011  12.706  13.318
46574W        W 6110  36.396   6.197  10.522
46575W        W 6111   8.804   4.299  11.862
46576W        W 6112   3.383  24.700   5.228
46577W        W 6113  32.520  38.885   4.707
46578W        W 6114  18.726  39.413   4.709
46579W        W 6115   0.942  29.454  10.414
46580W        W 6116  35.957  34.434   2.382
46581W        W 6117  30.135  10.851   0.277
46582W        W 6118   7.669  23.490  13.973
46583W        W 6119   6.350  17.129  13.809
46584W        W 6120  30.923  32.017   3.713
46585W        W 6121  26.592   4.892   5.098
46586W        W 6122  35.055   2.355   0.260
46587W        W 6123   5.913  15.755  14.451
46588W        W 6124   8.721  10.344  14.945
46589W        W 6125  43.323  19.717   4.647
46590W        W 6126  35.484  27.569  12.410
46591W        W 6127  35.975  27.548  12.886
46592W        W 6128  42.840  26.024  11.445
46593W        W 6129  10.676  34.879   2.726
46594W        W 6130   2.834  44.271   0.279
46595W        W 6131  13.245  10.240  13.485
46596W        W 6132  31.039  27.093  12.075
46597W        W 6133  37.385  16.258  13.416
46598W        W 6134  18.162  21.713  13.417
46599W        W 6135  38.348  44.274   2.869
46600W        W 6136  33.915  17.755   4.748
46601W        W 6137   5.809  36.585   3.280
46602W        W 6138  30.533  23.079  14.438
46603W        W 6139   0.847   9.299   4.701
46604W        W 6140   2.261  44.369  14.803
46605W        W 6141  20.533   8.181   1.842
46606W        W 6142  20.608  41.012  11.544
46607W        W 6143  12.798  26.457  13.051
46608W        W 6144  17.556   4.317  13.024
46609W        W 6145  17.564  22.659  13.352
46610W        W 6146  28.095  23.527   2.192
46611W        W 6147   1.451  41.887   3.738
46612W        W 6148  39.022  44.938  10.587
46613W        W 6149  25.986  44.418  11.407
46614W        W 6150  39.454  41.877  12.547
46615W        W 6151  35.918  43.494  13.436
46616W        W 6152  34.401  20.666   1.312
46617W        W 6153  40.409   8.252  11.864
46618W        W 6154  37.996  41.986   3.838
46619W        W 6155  14.657  29.428   3.703
46620W        W 6156   8.779  13.331  11.411
46621W        W 6157  31.427  35.572  14.866
46622W        W 6158  31.472   4.302  13.804
46623W        W 6159   6.402  22.198  12.993
46624W        W 6160   6.259  39.485  13.909
46625W        W 6161  43.416  11.177  13.862
46626W        W 6162   0.464  27.582   1.271
46627W        W 6163  35.864  17.188  14.322
46628W        W 6164   3.813  40.378  12.539
46629W        W 6165  19.172  18.723   4.741
46630W        W 6166  39.532  34.563   1.433
46631W        W 6167  32.591  23.117  14.870
46632W        W 6168  31.563  16.608  14.444
46633W        W 6169  42.463  29.647  14.770
46634W        W 6170  32.471  12.225   0.780
46635W        W 6171  43.821  35.413   1.327
46636W        W 6172  37.362   9.180  13.529
46637W        W 6173   0.889  32.607   0.735
46638W        W 6174  36.422  22.695  10.022
46639W        W 6175  19.066  43.855   3.153
46640W        W 6176  38.428  13.770  12.967
46641W        W 6177   8.335  41.032  14.361
46642W        W 6178  22.717  11.307  12.018
46643W        W 6179  17.621   5.439  11.955
46644W        W 6180  25.969  20.678   4.667
46645W        W 6181   0.372  20.684  10.412
46646W        W 6182   1.842  14.249   4.234
46647W        W 6183  40.045  18.628  14.904
46648W        W 6184  22.055  18.077   2.266
46649W        W 6185  44.901   8.391   1.386
46650W        W 6186  15.297   5.782  14.923
46651W        W 6187   5.338  10.842   1.919
46652W        W 6188  26.135  39.544  10.598
46653W        W 6189  21.257  27.010  10.999
46654W        W 6190  37.403   9.217  14.406
46655W        W 6191  31.617  36.433  13.381
46656W        W 6192  18.576  43.406  12.978
46657W        W 6193  28.137  20.080  14.843
46658W        W 6194   6.843  41.846  13.001
46659W        W 6195   0.822  26.605  14.833
46660W        W 6196  33.980   6.715  14.983
46661W        W 6197  28.982  23.151   3.325
46662W        W 6198  17.303  44.860  13.477
46663W        W 6199  42.929  25.515   3.819
46664W        W 6200   9.724  36.363  12.052
46665W        W 6201   5.930  13.665   0.332
46666W        W 6202   4.721   8.816   1.243
46667W        W 6203  14.607  25.106  14.404
46668W        W 6204   3.830  34.077   4.258
46669W        W 6205  28.680  13.634   3.160
46670W        W 6206  23.087  36.011  12.060
46671W        W 6207  20.060  23.018   3.228
46672W        W 6208  15.656   1.280   4.314
46673W        W 6209  37.366  40.877   3.702
46674W        W 6210  12.248  20.064  11.979
46675W        W 6211  35.970   7.715   4.232
46676W        W 6212   1.439  19.163   3.768
46677W        W 6213   6.350   7.232   2.903
46678W        W 6214  23.191  24.188  11.917
46679W        W 6215   0.856   7.694  11.020
46680W        W 6216   1.245  27.625  14.822
46681W        W 6217  27.044  29.589   4.790
46682W        W 6218  17.695  13.759  14.283
46683W        W 6219  40.345  41.833  14.979
46684W        W 6220   2.863  42.795   4.275
46685W        W 6221  34.521  28.544   0.320
46686W        W 6222  26.499  34.101  10.594
46687W        W 6223  37.398  21.200  11.509
46688W        W 6224  25.587  15.104  14.513
46689W        W 6225  19.727  32.087   2.859
46690W        W 6226  30.104  17.267  10.581
46691W        W 6227  16.628  32.892  13.381
46692W        W 6228  36.439  30.991  10.589
46693W        W 6229  15.329  18.206   3.196
46694W        W 6230   1.784  13.681  11.540
46695W        W 6231  28.532  16.077  10.525
46696W        W 6232  30.527  40.462   0.851
46697W        W 6233  35.382  29.584   1.276
46698W        W 6234  38.055  40.520  11.905
46699W        W 6235  33.459  21.614  13.989
46700W        W 6236  10.237  16.315   1.787
46701W        W 6237  27.686  31.089   1.410
46702W        W 6238  11.289   6.368   2.662
46703W        W 6239  18.671  40.860  12.368
46704W        W 6240  23.577   4.739   3.765
46705W        W 6241  13.346  25.537   3.753
46706W        W 6242  25.130  25.668   1.309
46707W        W 6243  24.672  26.986  14.440
46708W        W 6244  23.584  37.967  14.973
46709W        W 6245  15.821  26.010   2.790
46710W        W 6246  37.350   1.842   4.803
46711W        W 6247  29.582  12.806   1.903
46712W        W 6248  27.012  22.648  11.546
46713W        W 6249  23.633  40.431  10.563
46714W        W 6250  39.977  17.252  11.607
46715W        W 6251  20.095  27.648  11.865
46716W        W 6252  26.083  25.495   0.392
46717W        W 6253  29.519  11.272   3.249
46718W        W 6254  10.259   9.724  11.029
46719W        W 6255  29.565  18.142  13.391
46720W        W 6256  18.769  36.054  14.811
46721W        W 6257  18.053  32.447  10.997
46722W        W 6258   9.794  19.663  11.427
46723W        W 6259  34.398  20.647   0.834
46724W        W 6260  18.283  33.973   4.203
46725W        W 6261  23.589  40.047  12.086
46726W        W 6262  11.716  38.397   9.967
46727W        W 6263   1.362  34.080  12.906
46728W        W 6264   6.424  20.532   0.875
46729W        W 6265  10.758  34.481   0.786
46730W        W 6266  17.571  22.055  10.629
46731W        W 6267  43.006  42.509   0.796
46732W        W 6268  23.736  24.638   3.187
46733W        W 6269  12.725  44.959  10.997
46734W        W 6270  14.330  35.106   3.695
46735W        W 6271   3.752   5.798   2.345
46736W        W 6272   2.451   1.880   5.305
46737W        W 6273  21.164  28.641   1.886
46738W        W 6274  42.022  40.013  13.874
46739W        W 6275   9.709  39.352   2.722
46740W        W 6276  32.575  19.575  11.592
46741W        W 6277  16.121  22.599  12.825
46742W        W 6278  12.205  23.540  12.042
46743W        W 6279  33.001  35.864   0.952
46744W        W 6280  39.933  27.511  11.409
46745W        W 6281  12.748   5.753   0.740
46746W        W 6282  14.700   1.739  11.457
46747W        W 6283  42.862  22.055   0.246
46748W        W 6284   6.424   3.793   3.656
46749W        W 6285  43.876  15.324   4.125
46750W        W 6286   7.231   1.885   1.426
46751W        W 6287  11.645  17.179  13.799
46752W        W 6288  20.189  36.502   4.805
46753W        W 6289  21.592   6.833   3.832
46754W        W 6290  43.467  20.718  12.922
46755W        W 6291  25.564   6.899   2.818
46756W        W 6292   3.215  32.607  12.389
46757W        W 6293  39.913   8.349   3.360
46758W        W 6294  12.344  32.632   3.305
46759W        W 6295   0.941  21.535  10.445
46760W        W 6296   3.273  11.344  12.408
46761W        W 6297   2.233  23.596  11.450
46762W        W 6298  22.660  31.418   0.910
46763W        W 6299  30.040  15.743   2.325
46764W        W 6300  27.184   9.305  12.879
46765W        W 6301   7.200   0.364   2.796
46766W        W 6302  21.237  21.515   5.778
46767W        W 6303  22.086  30.922  10.492
46768W        W 6304  37.555  36.408  10.543
46769W        W 6305  21.027  18.201   9.969
46770W        W 6306  40.336  19.256  10.560
46771W        W 6307  20.566  25.981   0.476
46772W        W 6308  24.047  16.297  14.778
46773W        W 6309   1.760  37.392   3.805
46774W        W 6310  18.746  14.340  11.126
46775W        W 6311  26.977  43.857   4.658
46776W        W 6312  40.982  28.144  12.349
46777W        W 6313   5.249  20.097   4.665
46778W        W 6314  39.881   4.706  11.604
46779W        W 6315  20.656  44.350   2.320
46780W        W 6316  17.730  43.415  11.860
46781W        W 6317  27.497  25.169  13.942
46782W        W 6318  37.015  43.817   1.738
46783W        W 6319  42.962  38.984  11.484
46784W        W 6320  25.518  37.469   4.167
46785W        W 6321   0.439  30.033  13.402
46786W        W 6322  13.198  29.621  14.790
46787W        W 6323   3.240  44.972   1.898
46788W        W 6324  29.531   6.397  11.556
46789W        W 6325  17.128  19.205   1.291
46790W        W 6326  22.011  10.813  12.367
46791W        W 6327  15.794  25.586  13.035
46792W        W 6328  36.004  13.705   2.182
46793W        W 6329  22.721  31.077   2.238
46794W        W 6330  14.130  22.719  13.544
46795W        W 6331  38.421  24.690  14.780
46796W        W 6332  11.179  37.501  11.103
46797W        W 6333   5.256  40.485  12.072
46798W        W 6334  24.543  15.696  10.595
46799W        W 6335   7.398  26.109   2.281
46800W        W 6336  31.455  35.108  12.871
46801W        W 6337  42.495  30.652  10.460
46802W        W 6338  35.106  26.547  13.468
46803W        W 6339  34.095  27.610   3.217
46804W        W 6340  43.893  38.888   1.764
46805W        W 6341  21.752  14.239   4.806
46806W        W 6342  11.258   6.373  11.895
46807W        W 6343  28.438  26.081  11.508
46808W        W 6344  26.700  33.892  13.391
46809W        W 6345  29.152  22.571  14.393
46810W        W 6346  35.551  21.230  10.004
46811W        W 6347   3.416  35.456   2.699
46812W        W 6348  37.050  21.203  14.995
46813W        W 6349  12.174   7.791  14.909
46814W        W 6350  34.582  39.876   2.334
46815W        W 6351  24.161  42.383  11.005
46816W        W 6352  31.525  37.930  12.847
46817W        W 6353  29.106  33.566   1.283
46818W        W 6354  16.759   2.937  12.409
46819W        W 6355  40.366  36.516   3.774
46820W        W 6356  10.858  31.503  14.819
46821W        W 6357   1.966   8.246   0.373
46822W        W 6358  29.432  25.689  10.048
46823W        W 6359   4.931  29.604   9.960
46824W        W 6360  21.149   0.794  14.864
46825W        W 6361  29.058  30.482  14.811
46826W        W 6362  32.935  15.580  13.934
46827W        W 6363  40.032  34.595  12.001
46828W        W 6364  21.658  15.586   0.935
46829W        W 6365   9.279  32.023  13.043
46830W        W 6366   9.653  12.743  13.507
46831W        W 6367  44.793  10.217   3.870
46832W        W 6368  33.105  33.883   0.430
46833W        W 6369  17.727  27.448  10.556
46834W        W 6370   7.804  17.218  12.546
46835W        W 6371  23.127  28.657  14.457
46836W        W 6372  39.877  25.126  12.365
46837W        W 6373   2.887  35.457   3.247
46838W        W 6374   5.302  13.281   4.694
46839W        W 6375  30.538  27.615   0.829
46840W        W 6376  34.509  15.595   1.765
46841W        W 6377  31.957  11.288  14.818
46842W        W 6378  10.672  22.724   1.878
46843W        W 6379  38.879   0.425  10.620
46844W        W 6380  30.455   6.829  10.535
46845W        W 6381  41.877  15.147  12.028
46846W        W 6382  27.164  35.468  12.880
46847W        W 6383  29.591   3.865   4.250
46848W        W 6384  10.650  20.262   4.696
46849W        W 6385   4.287  19.703   1.423
46850W        W 6386  30.593  37.457  11.561
46851W        W 6387  15.768  30.161  13.416
46852W        W 6388   0.936  15.784   9.930
46853W        W 6389  11.727  38.514  14.351
46854W        W 6390  12.815  23.217  11.511
46855W        W 6391  18.682  33.895   1.860
46856W        W 6392   7.891   0.853  11.059
46857W        W 6393  30.568  44.393  10.625
46858W        W 6394  16.615  39.315  12.070
46859W        W 6395   3.293  30.981  13.796
46860W        W 6396   9.843  28.172   4.232
46861W        W 6397  23.009  42.480  14.827
46862W        W 6398  24.712   1.846   2.763
46863W        W 6399  16.297  39.490   4.262
46864W        W 6400  17.745  23.497   2.190
46865W        W 6401  25.674  23.601  11.862
46866W        W 6402   2.832  34.109   3.177
46867W        W 6403   3.812  25.213  14.306
46868W        W 6404   2.778   2.335   4.336
46869W        W 6405  12.693   8.194   2.776
46870W        W 6406   2.730  44.005  11.046
46871W        W 6407   6.861  38.393  13.312
46872W        W 6408  29.611   7.342  13.886
46873W        W 6409   7.330  39.406   1.867
46874W        W 6410   3.795  11.782   1.838
46875W        W 6411  16.672  32.392  13.461
46876W        W 6412  26.489  12.648  12.432
46877W        W 6413  14.177  38.934   1.343
46878W        W 6414   5.254  24.061   1.742
46879W        W 6415   4.309  34.476   0.727
46880W        W 6416  27.538  38.038  13.383
46881W        W 6417   2.304  43.959   4.189
46882W        W 6418  32.399  16.607   3.154
46883W        W 6419   1.381  33.613  13.390
46884W        W 6420  27.131  13.746  14.838
46885W        W 6421  37.478  10.231  12.531
46886W        W 6422  41.303  21.742  13.473
46887W        W 6423  11.365  10.641  14.836
46888W        W 6424  41.027  38.420  13.407
46889W        W 6425   0.771  16.101   4.837
46890W        W 6426  36.384  22.174   2.717
46891W        W 6427   1.939   5.882   0.453
46892W        W 6428  44.902  27.051   4.253
46893W        W 6429  42.411  28.614   1.356
46894W        W 6430  32.107   9.883  10.562
46895W        W 6431  33.986  21.738   1.308
46896W        W 6432  34.012  28.060   2.861
46897W        W 6433  24.027  41.862   4.353
46898W        W 6434  12.697  40.335  10.992
46899W        W 6435   2.292  22.732   2.688
46900W        W 6436  37.042  38.039   0.763
46901W        W 6437  21.202  12.162  11.881
46902W        W 6438  10.263  18.756   2.669
46903W        W 6439   7.191  29.424   3.682
46904W        W 6440  43.296   4.442  10.896
46905W        W 6441  27.139  34.978  11.441
46906W        W 6442  36.580   6.241   3.861
46907W        W 6443  14.261  15.727   0.334
46908W        W 6444  28.547  38.488   0.456
46909W        W 6445  40.375   4.420   4.114
46910W        W 6446  43.408  25.579   1.306
46911W        W 6447  39.372   6.825  11.519
46912W        W 6448  17.254   0.295  14.362
46913W        W 6449  30.506  38.071  10.891
46914W        W 6450  17.067  18.704  13.937
46915W        W 6451   1.248  36.001   1.826
46916W        W 6452  12.345   5.930   2.343
46917W        W 6453  44.307  35.512  12.490
46918W        W 6454  25.678  19.219  11.927
46919W        W 6455  29.498   7.411   0.366
46920W        W 6456  23.719  32.043  11.983
46921W        W 6457  11.326  44.418  10.472
46922W        W 6458  34.462  26.560  11.476
46923W        W 6459  29.494   6.712  14.289
46924W        W 6460  21.555   1.245  12.901
46925W        W 6461  31.541  43.987   1.238
46926W        W 6462  34.543  37.983   2.245
46927W        W 6463  11.306  27.089   0.476
46928W        W 6464  23.209  29.478   0.264
46929W        W 6465  28.462  11.333   4.707
46930W        W 6466   4.860  41.390   1.900
46931W        W 6467  12.306  20.657  11.995
46932W        W 6468  38.349  30.046   3.183
46933W        W 6469  40.841  18.203  10.992
46934W        W 6470  28.625  28.123   1.719
46935W        W 6471  18.776  43.924  14.853
46936W        W 6472   6.849   9.306   2.710
46937W        W 6473  18.055   2.277  10.466
46938W        W 6474  13.728   6.882   3.683
46939W        W 6475  25.041  38.908  11.119
46940W        W 6476  39.520  30.521   4.665
46941W        W 6477  42.922  37.919  13.962
46942W        W 6478  24.212  24.049  11.608
46943W        W 6479  18.252   3.376  11.886
46944W        W 6480   0.399   0.293  11.091
46945W        W 6481  26.657  33.586   4.645
46946W        W 6482  43.812  14.741   1.736
46947W        W 6483  25.613  38.480  10.951
46948W        W 6484  26.697  25.613  10.539
46949W        W 6485  37.401  44.373   3.279
46950W        W 6486  20.656  14.237   4.754
46951W        W 6487  27.190  36.880  12.367
46952W        W 6488  15.136   5.713  11.894
46953W        W 6489   1.773  29.450  14.435
46954W        W 6490  15.239  29.027   0.405
46955W        W 6491  35.974  36.368   0.747
46956W        W 6492  35.565  28.979   1.727
46957W        W 6493  18.118  34.877   3.721
46958W        W 6494  14.239  11.348   1.784
46959W        W 6495  19.740  16.696  13.958
46960W        W 6496  18.658  19.561  14.506
46961W        W 6497  33.568  33.561  11.051
46962W        W 6498   0.486  41.497   4.244
46963W        W 6499   3.829  14.713  11.956
46964W        W 6500  12.778  42.966   1.823
46965W        W 6501  11.294  42.411   3.322
46966W        W 6502  29.623  14.160   2.253
46967W        W 6503  26.567   1.952  11.543
46968W        W 6504   9.298  43.833   0.305
46969W        W 6505  39.997  37.053   4.757
46970W        W 6506  39.343   1.888  13.515
46971W        W 6507  16.094  25.492  14.900
46972W        W 6508  38.019   2.872   2.373
46973W        W 6509  24.509   0.755   2.833
46974W        W 6510   9.755   4.401  12.858
46975W        W 6511  22.013  27.005  13.332
46976W        W 6512  35.494  21.141  13.398
46977W        W 6513  19.266  17.704   4.158
46978W        W 6514  16.711  35.928   0.464
46979W        W 6515  44.442  32.631  12.568
46980W        W 6516  29.569  44.446  12.835
46981W        W 6517   0.907  27.558   1.295
46982W        W 6518  37.025  40.320  11.014
46983W        W 6519  24.591  30.539   2.384
46984W        W 6520  21.595  21.601   0.352
46985W        W 6521  26.181  44.756  11.571
46986W        W 6522  33.963  13.172   1.322
46987W        W 6523  37.353   8.861  10.553
46988W        W 6524  22.650  11.767   3.302
46989W        W 6525   5.859  16.587   1.899
46990W        W 6526  30.084  35.959  12.375
46991W        W 6527   2.410  26.957   4.807
46992W        W 6528  33.380  24.486  14.366
46993W        W 6529  32.502  27.130  12.092
46994W        W 6530  34.870  20.099   2.252
46995W        W 6531  17.217  26.191   0.734
46996W        W 6532   0.806  19.059   0.357
46997W        W 6533  32.999  15.211  13.041
46998W        W 6534  33.923  17.125   0.884
46999W        W 6535  41.466  28.569  13.400
47000W        W 6536  34.904  12.290  14.807
47001W        W 6537  17.256  39.922   1.716
47002W        W 6538   0.978  38.327  11.067
47003W        W 6539  29.601  34.515   2.252
47004W        W 6540  31.084  35.902   2.694
47005W        W 6541   1.390  32.043  12.514
47006W        W 6542  37.060  22.624  12.022
47007W        W 6543  17.708  27.073   4.187
47008W        W 6544   9.385  17.774   4.741
47009W        W 6545  24.657  31.038  13.914
47010W        W 6546  38.519  14.239   3.290
47011W        W 6547   7.833  44.300   4.788
47012W        W 6548   9.682  23.514   1.426
47013W        W 6549  12.666  17.628   0.891
47014W        W 6550  43.513  16.663   2.711
47015W        W 6551  37.026   3.879  14.491
47016W        W 6552  10.755  37.512   2.772
47017W        W 6553   4.799   2.930   4.178
47018W        W 6554  29.609  32.412  10.500
47019W        W 6555   0.922  44.437   2.759
47020W        W 6556  10.758  20.244  13.815
47021W        W 6557  35.102  29.594   0.270
47022W        W 6558   5.358  35.018   4.657
47023W        W 6559  29.546  10.329  10.068
47024W        W 6560  22.607  34.974  12.933
47025W        W 6561  37.511  15.675   4.671
47026W        W 6562  26.023   0.852   2.671
47027W        W 6563  20.612  37.065  11.481
47028W        W 6564  14.713  29.655   0.272
47029W        W 6565  11.791  14.790  11.516
47030W        W 6566  42.780   3.328   0.750
47031W        W 6567  26.676  34.520   0.263
47032W        W 6568  25.065  35.075   4.302
47033W        W 6569  34.924   0.766   0.452
47034W        W 6570  15.311  10.232   3.176
47035W        W 6571  21.726   0.907   1.806
47036W        W 6572  15.655  32.409   2.790
47037W        W 6573  12.198  31.424  10.589
47038W        W 6574  40.347  20.548   4.787
47039W        W 6575  41.967  24.169   4.296
47040W        W 6576  38.018  19.206  12.847
47041W        W 6577  41.346  29.965  14.827
47042W        W 6578  18.724  39.544   2.179
47043W        W 6579  30.963  40.345   1.789
47044W        W 6580   9.671  35.566  12.011
47045W        W 6581  24.046  16.275  14.350
47046W        W 6582  42.787  16.264  13.443
47047W        W 6583   7.719  44.352   2.183
47048W        W 6584  35.466  35.103   4.799
47049W        W 6585   9.713  31.492  12.567
47050W        W 6586  43.866  28.525   4.162
47051W        W 6587  17.263  41.910  10.594
47052W        W 6588  14.263  17.152   0.756
47053W        W 6589  19.119  32.088   0.769
47054W        W 6590  24.509  32.910   3.208
47055W        W 6591  38.844  13.186   2.855
47056W        W 6592  35.514   8.399   0.833
47057W        W 6593  19.648   7.899   4.790
47058W        W 6594  24.521  13.339  10.422
47059W        W 6595   0.968  17.559   4.212
47060W        W 6596  42.376  30.549   4.800
47061W        W 6597  20.631  41.002  14.988
47062W        W 6598  18.736  41.347   4.320
47063W        W 6599  38.911  40.982   1.257
47064W        W 6600  26.458   6.256  14.509
47065W        W 6601   6.676  14.243   0.761
47066W        W 6602  17.656   5.704   1.218
47067W        W 6603  41.018  16.169  11.538
47068W        W 6604  24.205  24.545   2.298
47069W        W 6605  10.743   1.286  11.876
47070W        W 6606  22.046  12.221  13.441
47071W        W 6607   1.315  11.646   5.668
47072W        W 6608  41.794  14.293   1.268
47073W        W 6609  30.600  21.038   0.775
47074W        W 6610  30.470  35.370   0.867
47075W        W 6611  16.792   2.809   4.665
47076W        W 6612  44.958  34.611  13.495
47077W        W 6613  33.624  27.967   2.417
47078W        W 6614  11.279  41.433  10.508
47079W        W 6615  37.878  41.822  14.887
47080W        W 6616  11.270  14.755  14.027
47081W        W 6617  22.029  26.690  14.773
47082W        W 6618   6.402  10.157  12.904
47083W        W 6619   7.763  24.573   0.469
47084W        W 6620  41.917  33.463  12.472
47085W        W 6621  22.109  37.582   1.848
47086W        W 6622  22.094   2.359   5.084
47087W        W 6623   1.374  18.231   3.836
47088W        W 6624  22.038  10.728  14.980
47089W        W 6625  33.599   4.837   3.379
47090W        W 6626  13.720   0.301   4.263
47091W        W 6627  28.617  24.593   4.140
47092W        W 6628   7.772  10.814   2.198
47093W        W 6629  26.600  11.702  10.454
47094W        W 6630  32.506  44.951  12.037
47095W        W 6631  36.052   5.925   3.841
47096W        W 6632  12.708  36.476   3.339
47097W        W 6633   0.432  18.125   2.799
47098W        W 6634  13.831  17.737  14.389
47099W        W 6635  37.950  22.521   3.719
47100W        W 6636   4.321  21.734  11.579
47101W        W 6637   9.822   1.883   3.325
47102W        W 6638  14.258  12.851  14.285
47103W        W 6639   1.440  12.329   3.376
47104W        W 6640  15.237  29.973   4.606
47105W        W 6641   6.248  17.612   4.331
47106W        W 6642  35.478   1.466   3.160
47107W        W 6643  19.772   4.404   2.856
47108W        W 6644  34.096  35.998   2.748
47109W        W 6645  31.047  14.640  12.053
47110W        W 6646   3.897  23.125  10.565
47111W        W 6647   3.941  19.128  10.604
47112W        W 6648  23.646  22.632   3.318
47113W        W 6649  40.351  25.127   4.735
47114W        W 6650   4.759  23.699   3.763
47115W        W 6651  13.269  44.833  13.445
47116W        W 6652  15.085   2.923   1.745
47117W        W 6653  42.369  19.134  11.011
47118W        W 6654  25.680  16.214   1.788
47119W        W 6655  42.948  38.888   0.872
47120W        W 6656  34.379  23.095  11.068
47121W        W 6657  16.581  20.132  12.041
47122W        W 6658  18.169  40.345   0.389
47123W        W 6659  41.949  20.718   1.751
47124W        W 6660   0.423  21.041   2.833
47125W        W 6661  36.411  30.647   0.740
47126W        W 6662   0.323  33.131   4.340
47127W        W 6663  12.146  39.522   3.801
47128W        W 6664   8.363  22.014  11.036
47129W        W 6665  40.443  12.305  13.881
47130W        W 6666   0.256  11.155  12.009
47131W        W 6667  24.512   6.821   3.708
47132W        W 6668  31.985  19.231  14.012
47133W        W 6669  35.061  20.594   3.818
47134W        W 6670  23.112   3.870   2.239
47135W        W 6671  14.213   6.875   4.254
47136W        W 6672  15.619  37.997   3.845
47137W        W 6673  21.698  24.121  10.492
47138W        W 6674   8.169  32.016  13.945
47139W        W 6675  40.485   8.225  12.456
47140W        W 6676  33.074   4.751  11.548
47141W        W 6677  43.437  32.103  13.850
47142W        W 6678  38.434  35.483   4.135
47143W        W 6679  44.798  34.071  11.960
47144W        W 6680  11.170  41.491   4.790
47145W        W 6681  38.919  14.229   5.182
47146W        W 6682   7.766  42.404  11.952
47147W        W 6683  44.330  17.066  14.828
47148W        W 6684  29.143  33.990  11.542
47149W        W 6685   6.373  37.846   2.229
47150W        W 6686  38.044   1.287   0.884
47151W        W 6687  10.819  41.295  11.558
47152W        W 6688  40.379   0.863  12.841
47153W        W 6689  42.979   2.394  14.407
47154W        W 6690   1.341  29.986  13.865
47155W        W 6691  13.704  21.143   4.821
47156W        W 6692  31.549  18.590  10.642
47157W        W 6693  42.849  24.120   0.281
47158W        W 6694  25.570   2.334   1.747
47159W        W 6695  33.510  11.271  11.129
47160W        W 6696  11.730   5.423  13.929
47161W        W 6697   0.751   0.909   3.721
47162W        W 6698  36.448  27.127  12.478
47163W        W 6699  32.014  19.094   2.902
47164W        W 6700   6.241  11.697  12.528
47165W        W 6701  40.519  32.025   3.161
47166W        W 6702   2.748  43.450  12.932
47167W        W 6703  20.532  35.514  11.500
47168W        W 6704  18.229  41.929  13.795
47169W        W 6705  16.735  26.629  11.552
47170W        W 6706  42.426   9.753  11.043
47171W        W 6707  23.622  27.010  10.595
47172W        W 6708  39.826  34.434  11.064
47173W        W 6709  28.622  43.498   1.368
47174W        W 6710  22.175  32.445   4.208
47175W        W 6711   6.407  43.516  12.466
47176W        W 6712  29.570  37.383   3.653
47177W        W 6713  35.462  17.175   2.784
47178W        W 6714  27.961  13.824  12.004
47179W        W 6715   0.474  29.650   3.639
47180W        W 6716  32.109  30.435  11.558
47181W        W 6717  18.570  10.231   2.868
47182W        W 6718  31.996   8.242   0.423
47183W        W 6719  14.126  10.269  14.370
47184W        W 6720  10.726  38.553   4.769
47185W        W 6721  30.017  15.665   0.320
47186W        W 6722  36.912   7.330   1.352
47187W        W 6723  33.093  28.572   0.819
47188W        W 6724  35.491  22.677   4.187
47189W        W 6725  36.857   9.182   2.339
47190W        W 6726  15.278  13.317   3.334
47191W        W 6727  28.150  28.652   2.289
47192W        W 6728  36.958  23.015  13.315
47193W        W 6729   2.802   8.735  11.515
47194W        W 6730  37.464   3.438   2.897
47195W        W 6731  27.506  20.266   2.720
47196W        W 6732   2.735  32.455  11.415
47197W        W 6733   9.331  11.168   4.280
47198W        W 6734  40.437  26.568   3.843
47199W        W 6735  44.342   6.280   4.797
47200W        W 6736  44.411  27.087   2.377
47201W        W 6737   6.186  10.806  10.479
47202W        W 6738  32.593  19.200   2.216
47203W        W 6739  13.231  36.403   3.798
47204W        W 6740  24.709  14.139   4.759
47205W        W 6741  41.967   8.405  14.349
47206W        W 6742  12.319  33.021   0.805
47207W        W 6743  21.535  12.304  11.414
47208W        W 6744   7.197  12.791   2.724
47209W        W 6745  26.138  19.752   3.183
47210W        W 6746   6.222  11.203   2.763
47211W        W 6747  33.086  27.586  13.319
47212W        W 6748  40.903  34.455   4.296
47213W        W 6749  44.771   9.861   4.225
47214W        W 6750  16.621  18.699  14.321
47215W        W 6751  32.943  35.421   2.190
47216W        W 6752  11.275  41.505  12.878
47217W        W 6753  35.937  18.548  12.886
47218W        W 6754  16.227  42.516  13.823
47219W        W 6755  31.968  41.512  12.407
47220W        W 6756  32.605  41.526   4.120
47221W        W 6757  12.837  25.481  12.957
47222W        W 6758  10.668  34.905   1.415
47223W        W 6759  20.678  31.454  12.952
47224W        W 6760  10.765  19.574  14.489
47225W        W 6761  39.914  31.071   1.845
47226W        W 6762   7.193  21.659  10.974
47227W        W 6763  28.645  16.081   4.287
47228W        W 6764   0.329  33.490  11.433
47229W        W 6765  32.512  42.363   3.853
47230W        W 6766   9.368   8.285   1.875
47231W        W 6767   0.746  15.751  12.506
47232W        W 6768  36.996  21.728   4.133
47233W        W 6769  26.492  37.925   1.268
47234W        W 6770   0.867  13.146   4.227
47235W        W 6771   6.702   5.903  12.493
47236W        W 6772  27.486  26.155  14.352
47237W        W 6773  21.091  14.787   3.228
47238W        W 6774  20.529  30.145  13.858
47239W        W 6775  12.317  35.011  11.074
47240W        W 6776   1.869  38.376   3.738
47241W        W 6777   4.414  27.587   4.689
47242W        W 6778  44.345  25.038  12.935
47243W        W 6779  18.112  16.745  10.931
47244W        W 6780   6.852  33.429  14.395
47245W        W 6781   1.807  41.878  13.423
47246W        W 6782  44.816  44.274   4.164
47247W        W 6783  15.115  24.593  14.772
47248W        W 6784  41.014  25.623  13.420
47249W        W 6785  17.126  25.983  14.441
47250W        W 6786  32.013  39.525  14.473
47251W        W 6787   4.751  22.018   0.784
47252W        W 6788  41.839   4.330   3.758
47253W        W 6789  18.074  38.393   1.440
47254W        W 6790  31.942  28.454   2.360
47255W        W 6791  35.914  42.913   2.726
47256W        W 6792  17.656  14.760   0.309
47257W        W 6793   3.423  37.390  13.364
47258W        W 6794  30.109  24.079   1.438
47259W        W 6795   0.305  15.161  13.914
47260W        W 6796  27.078   8.800   5.269
47261W        W 6797  10.189   4.423   5.096
47262W        W 6798  39.919  24.186  12.860
47263W        W 6799  40.356  25.213  13.043
47264W        W 6800  28.074  24.188   4.714
47265W        W 6801   0.464   1.884  12.375
47266W        W 6802  28.999  44.490  10.429
47267W        W 6803  35.562  18.291   2.866
47268W        W 6804  25.177   4.400   1.797
47269W        W 6805  28.936   9.334   0.272
47270W        W 6806   9.767  25.643   4.271
47271W        W 6807  32.612  15.322  13.994
47272W        W 6808  14.212  36.938  11.057
47273W        W 6809  27.125   1.865  11.511
47274W        W 6810  32.928   3.863   0.449
47275W        W 6811  12.223  12.265   3.159
47276W        W 6812   9.326   2.909  12.425
47277W        W 6813   0.796   9.335   2.280
47278W        W 6814   6.357   0.770   3.329
47279W        W 6815  42.867  24.122   4.816
47280W        W 6816  42.366  25.107  14.307
47281W        W 6817   7.788  14.720   0.952
47282W        W 6818  17.154   8.356   3.782
47283W        W 6819  24.204  23.219  10.556
47284W        W 6820  32.627   9.342   1.766
47285W        W 6821  20.540  44.982   0.265
47286W        W 6822  40.416   5.875   0.374
47287W        W 6823  37.844  22.241  10.438
47288W        W 6824   5.378  14.100  12.453
47289W        W 6825  21.536  25.068  10.638
47290W        W 6826  34.036  40.843  12.562
47291W        W 6827  42.885  21.048  14.928
47292W        W 6828  32.044  15.812   1.830
47293W        W 6829  18.093   3.394   3.682
47294W        W 6830   4.887   3.848  11.512
47295W        W 6831  40.398   0.436   5.235
47296W        W 6832  15.611  17.690   3.340
47297W        W 6833  14.740  14.251  10.529
47298W        W 6834  35.562  18.545   0.301
47299W        W 6835  16.307  28.495   2.401
47300W        W 6836  24.046  32.617  14.937
47301W        W 6837  35.580  26.957   1.327
47302W        W 6838   4.770   4.379   1.858
47303W        W 6839  35.544  37.395   4.286
47304W        W 6840  33.418   5.881  14.897
47305W        W 6841  25.620  26.190   1.445
47306W        W 6842  22.190  41.374   3.269
47307W        W 6843  14.660  13.164  11.578
47308W        W 6844  30.033  29.919  12.444
47309W        W 6845  27.158  37.355  10.020
47310W        W 6846  19.222  42.945  12.073
47311W        W 6847  43.848  21.620   4.748
47312W        W 6848  31.137  17.154  14.352
47313W        W 6849  41.521  17.088   4.644
47314W        W 6850  35.018  12.654  14.294
47315W        W 6851  24.716   9.680  12.464
47316W        W 6852   1.831  36.919  14.979
47317W        W 6853  39.439  30.000   1.442
47318W        W 6854  16.745  41.509   0.382
47319W        W 6855  15.735  29.102   4.165
47320W        W 6856  33.520  15.314   4.754
47321W        W 6857  26.673  35.365  10.048
47322W        W 6858  36.426  11.229   9.979
47323W        W 6859  40.399  30.468   1.376
47324W        W 6860  15.701  14.769   5.234
47325W        W 6861   9.785  42.349   3.687
47326W        W 6862  34.053  13.698   4.600
47327W        W 6863   7.866  17.659   3.781
47328W        W 6864  36.017  39.318  14.909
47329W        W 6865  28.553   6.324   0.245
47330W        W 6866  42.298   1.274  10.479
47331W        W 6867  44.385   3.879   3.373
47332W        W 6868   3.927  15.714  11.933
47333W        W 6869  29.940  42.443  11.516
47334W        W 6870  13.309  14.275   0.956
47335W        W 6871  36.895  19.696  13.521
47336W        W 6872  19.174  10.204   1.775
47337W        W 6873   3.947  12.349  12.934
47338W        W 6874  18.227  12.320   0.467
47339W        W 6875  19.614  14.300   2.667
47340W        W 6876  15.800   4.409  13.808
47341W        W 6877  44.505  31.558   3.703
47342W        W 6878  13.799   3.300  11.530
47343W        W 6879  22.110  35.031   3.348
47344W        W 6880   4.423  37.047   4.642
47345W        W 6881  31.555  29.087  10.970
47346W        W 6882  33.500   2.797  12.872
47347W        W 6883   7.794  15.276   2.802
47348W        W 6884   3.806  31.106   3.188
47349W        W 6885   5.216  12.717  12.849
47350W        W 6886  42.394  10.796  11.552
47351W        W 6887  35.994  38.441  12.990
47352W        W 6888  40.032  19.149  14.383
47353W        W 6889   0.267  28.995  14.459
47354W        W 6890  36.072  31.080   3.271
47355W        W 6891  36.962  30.156   1.917
47356W        W 6892  14.328   0.440  13.963
47357W        W 6893  19.607  19.054   4.720
47358W        W 6894  33.939  15.750   1.365
47359W        W 6895  30.072   4.315  12.513
47360W        W 6896  36.498  39.857   1.739
47361W        W 6897  43.298  27.176  12.889
47362W        W 6898  39.853  12.177   0.910
47363W        W 6899  14.618  44.389   1.890
47364W        W 6900  22.240  26.528  11.039
47365W        W 6901  36.096  15.748  13.478
47366W        W 6902  27.561   8.718   0.338
47367W        W 6903  42.002  10.644   3.646
47368W        W 6904  40.364  21.074   0.905
47369W        W 6905   7.392  30.452  13.500
47370W        W 6906  34.964  36.842   4.680
47371W        W 6907  43.302  14.143  12.475
47372W        W 6908   2.359   8.339  13.348
47373W        W 6909  37.032  12.707  14.379
47374W        W 6910  36.062   1.774  12.060
47375W        W 6911  30.981  29.137   4.140
47376W        W 6912   8.237  10.838   1.782
47377W        W 6913  22.684   2.418   4.185
47378W        W 6914  31.012   1.813   2.271
47379W        W 6915  33.572   8.371   1.313
47380W        W 6916  34.408  24.582   2.832
47381W        W 6917  13.222  10.775   0.956
47382W        W 6918  28.455   7.298  14.351
47383W        W 6919  26.997   1.365   0.926
47384W        W 6920  21.249  19.178  10.445
47385W        W 6921  43.964  24.689   0.283
47386W        W 6922  16.638  15.242  13.493
47387W        W 6923   0.284  37.989   3.381
47388W        W 6924   4.718  39.423   1.346
47389W        W 6925  10.352   0.372   1.264
47390W        W 6926  12.647  36.484  10.449
47391W        W 6927   9.651  18.567  12.836
47392W        W 6928  13.140  36.086   0.244
47393W        W 6929  23.117  14.669   3.319
47394W        W 6930  13.251  11.151   4.135
47395W        W 6931  39.017  22.627  13.506
47396W        W 6932  25.117  27.462   4.660
47397W        W 6933   7.877  24.011  13.951
47398W        W 6934   6.746  30.026   4.263
47399W        W 6935  34.958  19.214  14.324
47400W        W 6936  18.217  15.296   1.408
47401W        W 6937  42.919  16.692  10.513
47402W        W 6938   6.839  14.167   4.837
47403W        W 6939  19.647  13.678  11.599
47404W        W 6940  22.570  43.999   1.776
47405W        W 6941  36.375  44.938   9.438
47406W        W 6942   8.669  24.703   3.857
47407W        W 6943  12.814   2.413  12.045
47408W        W 6944  23.726  34.041   0.400
47409W        W 6945  18.772   5.262   0.797
47410W        W 6946  39.487  25.532  10.974
47411W        W 6947  25.587   2.957   1.785
47412W        W 6948   4.409  40.537  11.903
47413W        W 6949  27.513   5.690   3.192
47414W        W 6950  11.692   8.360   3.181
47415W        W 6951   4.252  38.036  13.455
47416W        W 6952  21.586   7.411   1.797
47417W        W 6953   1.778  11.641  11.399
47418W        W 6954  15.095  17.707   3.265
47419W        W 6955  22.010   5.767  13.792
47420W        W 6956  38.951  39.557  12.578
47421W        W 6957  37.945   1.289  13.439
47422W        W 6958   1.289  17.268   4.793
47423W        W 6959   4.251   3.856  10.644
47424W        W 6960  37.580   2.965  14.447
47425W        W 6961  28.570  42.485  13.037
47426W        W 6962  22.132   1.737  14.902
47427W        W 6963  25.666  42.390  13.482
47428W        W 6964  29.560  38.839   4.705
47429W        W 6965  34.536  43.834   2.896
47430W        W 6966   7.851  18.051   5.266
47431W        W 6967  17.210  18.214   3.257
47432W        W 6968   5.430  40.822   4.737
47433W        W 6969   3.376  26.522   0.874
47434W        W 6970  27.530  38.474  13.057
47435W        W 6971  27.601  33.539   3.286
47436W        W 6972  30.041  32.610  13.919
47437W        W 6973  26.511  34.509   4.597
47438W        W 6974  16.717  14.126  14.982
47439W        W 6975  29.469  27.019  11.030
47440W        W 6976  33.874  23.641  10.978
47441W        W 6977  26.186  31.126  12.031
47442W        W 6978  34.417   1.777   1.428
47443W        W 6979  32.930  15.330   4.630
47444W        W 6980   6.831  35.566  12.341
47445W        W 6981  20.613   5.763   4.185
47446W        W 6982  34.461   7.727  11.967
47447W        W 6983  33.525  39.048   0.744
47448W        W 6984  44.396  10.151   0.878
47449W        W 6985   6.240  10.244  14.813
47450W        W 6986  12.127  38.933   3.760
47451W        W 6987  17.608  26.648   2.707
47452W        W 6988   4.380  34.614   3.182
47453W        W 6989  43.914  28.155   2.837
47454W        W 6990  26.552  29.066   1.789
47455W        W 6991  44.365  15.600  13.018
47456W        W 6992  34.454  16.584  12.037
47457W        W 6993   8.863  29.651  11.597
47458W        W 6994  20.110  19.164   5.752
47459W        W 6995  12.277  39.357   4.702
47460W        W 6996  43.995   8.362   0.287
47461W        W 6997  33.001  38.330   4.688
47462W        W 6998  17.181  41.789   2.663
47463W        W 6999  32.520   8.806   2.721
47464W        W 7000   1.350  41.830  14.782
47465W        W 7001  19.045  19.632   0.369
47466W        W 7002  32.026  26.148   0.440
47467W        W 7003  19.094   2.956   3.867
47468W        W 7004  33.916  43.487   0.340
47469W        W 7005  27.156  40.479  12.411
47470W        W 7006  19.743  34.399  10.430
47471W        W 7007  19.638  23.514  13.487
47472W        W 7008  16.699  43.800   0.464
47473W        W 7009  40.463  24.040   2.221
47474W        W 7010  17.754  21.601  10.601
47475W        W 7011  35.520   4.221  12.432
47476W        W 7012  27.531  16.077  12.381
47477W        W 7013  22.132  14.112  11.984
47478W        W 7014  15.657  11.710  12.023
47479W        W 7015   0.294  18.179  11.965
47480W        W 7016  26.041  43.437  11.582
47481W        W 7017  39.363   6.213   3.767
47482W        W 7018  22.183  42.504  11.429
47483W        W 7019  37.888  30.958  12.920
47484W        W 7020  17.716  40.447   3.804
47485W        W 7021   1.883  24.112  14.817
47486W        W 7022  28.165  12.672   1.236
47487W        W 7023  22.217   1.844   1.778
47488W        W 7024  30.149  23.038   2.687
47489W        W 7025  20.201  27.171   3.285
47490W        W 7026  39.895  19.546  12.449
47491W        W 7027  34.606   2.732   1.383
47492W        W 7028   3.850  11.306  11.860
47493W        W 7029  41.881  42.290  11.894
47494W        W 7030  24.045  19.687  12.016
47495W        W 7031  35.573  40.345  11.497
47496W        W 7032   1.264  43.436   4.641
47497W        W 7033  23.610  29.467   4.802
47498W        W 7034   6.192   3.923   0.813
47499W        W 7035  18.779  41.937  12.956
47500W        W 7036  33.617  18.570   3.315
47501W        W 7037  40.429  19.612  14.909
47502W        W 7038  40.468   8.358  11.080
47503W        W 7039  33.129   3.924  12.927
47504W        W 7040  32.030  19.227  13.454
47505W        W 7041   6.377  39.393  12.023
47506W        W 7042  44.916  10.155   1.913
47507W        W 7043  35.493   8.288   2.831
47508W        W 7044  19.158  28.011   0.795
47509W        W 7045  28.147  24.058   1.401
47510W        W 7046  35.600   5.316  13.049
47511W        W 7047  22.566  11.175  14.511
47512W        W 7048  10.646  12.352   4.656
47513W        W 7049  34.081  17.168   4.598
47514W        W 7050  21.575  37.422  10.919
47515W        W 7051   2.377  42.290  11.926
47516W        W 7052  11.294   0.790   0.411
47517W        W 7053  27.448  41.501   2.331
47518W        W 7054   0.382  33.976  13.467
47519W        W 7055   7.175  32.088   1.367
47520W        W 7056  35.415  36.374   3.733
47521W        W 7057  10.853  32.498  13.389
47522W        W 7058  21.186  19.189  11.923
47523W        W 7059  21.232  34.048  11.494
47524W        W 7060  24.164  19.279  13.515
47525W        W 7061  40.431  22.745   2.368
47526W        W 7062   5.336  44.263   4.664
47527W        W 7063  14.291  39.502   4.655
47528W        W 7064   9.815  27.682  13.359
47529W        W 7065  37.556  44.422   4.716
47530W        W 7066   3.782  10.693  11.880
47531W        W 7067  38.367  24.223  11.376
47532W        W 7068  20.656  17.154  10.978
47533W        W 7069  42.008  33.394   5.092
47534W        W 7070   5.213   3.246  14.512
47535W        W 7071  40.892   7.369   4.200
47536W        W 7072   8.313  26.019  13.427
47537W        W 7073  40.318  15.129  10.976
47538W        W 7074   3.408   7.832  14.414
47539W        W 7075  26.677  40.049   4.222
47540W        W 7076  17.737  15.683   2.268
47541W        W 7077  28.589  11.306   2.413
47542W        W 7078  40.451  22.208   1.930
47543W        W 7079  36.055  35.491  11.080
47544W        W 7080  30.427  19.547   4.338
47545W        W 7081   7.335   8.347  14.889
47546W        W 7082   4.296  30.506  12.979
47547W        W 7083  10.256   6.389   2.304
47548W        W 7084  22.691   6.719  14.900
47549W        W 7085  24.148  40.853   4.737
47550W        W 7086  13.301  25.596  10.999
47551W        W 7087  13.612  27.081   1.863
47552W        W 7088   3.856  34.958   0.450
47553W        W 7089  14.293  36.944   1.264
47554W        W 7090  22.049   4.937  12.890
47555W        W 7091  27.567  15.295  11.873
47556W        W 7092  24.132  43.484  13.831
47557W        W 7093  13.762  23.135  12.978
47558W        W 7094  42.800  18.205   4.145
47559W        W 7095  25.655   1.772  14.487
47560W        W 7096   0.253  16.308  10.986
47561W        W 7097   1.314  40.406   3.376
47562W        W 7098  31.042  39.875  14.779
47563W        W 7099   2.811  12.835  10.015
47564W        W 7100  19.104   9.306  12.499
47565W        W 7101  22.679  28.089   3.765
47566W        W 7102   2.274  13.264   9.673
47567W        W 7103  40.493   9.851  14.877
47568W        W 7104  30.560   9.798  14.772
47569W        W 7105  29.173  34.041  13.441
47570W        W 7106  12.845  28.034   4.619
47571W        W 7107  30.994  35.448  14.292
47572W        W 7108  34.552  18.748   3.782
47573W        W 7109  31.468  24.581  13.992
47574W        W 7110   2.329  27.641   5.280
47575W        W 7111  29.059  14.272   2.217
47576W        W 7112  14.287  27.032   2.320
47577W        W 7113   5.695  38.421  10.603
47578W        W 7114  20.583  39.438  11.129
47579W        W 7115  16.748  38.327  14.336
47580W        W 7116  34.991  11.700   4.199
47581W        W 7117  27.690  34.961  13.308
47582W        W 7118   8.767  30.041  14.290
47583W        W 7119   7.379  30.031  12.973
47584W        W 7120   1.871  28.118   2.701
47585W        W 7121  11.804   0.952   3.836
47586W        W 7122  35.854   3.394   2.338
47587W        W 7123   7.793   6.854  11.081
47588W        W 7124  32.520  10.731  12.348
47589W        W 7125  30.494  27.454   3.342
47590W        W 7126  33.446   8.321   4.707
47591W        W 7127  22.179  28.147  12.838
47592W        W 7128  44.913  16.702  12.939
47593W        W 7129  36.485  24.033  10.523
47594W        W 7130   2.293   3.717   1.755
47595W        W 7131   7.286  14.726  11.009
47596W        W 7132  41.041  25.605  12.039
47597W        W 7133  18.780  12.713  14.348
47598W        W 7134   5.831  44.499   1.734
47599W        W 7135  19.603   2.825  12.398
47600W        W 7136   7.687  34.484  12.383
47601W        W 7137   6.189  16.155   3.200
47602W        W 7138  20.655   7.193  12.540
47603W        W 7139   6.403  18.714   4.213
47604W        W 7140   0.834   6.218   2.780
47605W        W 7141  15.313  24.527   1.925
47606W        W 7142  33.046  40.801  14.412
47607W        W 7143  35.575  33.968  13.376
47608W        W 7144  32.569  21.678   0.895
47609W        W 7145  15.650  37.880   1.733
47610W        W 7146  37.449  27.547  13.806
47611W        W 7147  17.620  18.684   2.728
47612W        W 7148  20.115  44.875   3.715
47613W        W 7149  30.539   4.781  10.160
47614W        W 7150  43.931  34.876   4.622
47615W        W 7151  25.179  24.060   1.371
47616W        W 7152  10.178  26.201  12.951
47617W        W 7153  33.420  18.718  10.525
47618W        W 7154  31.580  13.108  13.011
47619W        W 7155  41.964   4.310  11.559
47620W        W 7156  27.454  16.637   0.401
47621W        W 7157  13.810  21.612   0.335
47622W        W 7158  23.561  42.994  12.558
47623W        W 7159  13.704  11.323  12.352
47624W        W 7160   7.201   5.859   3.815
47625W        W 7161   2.373   2.407  10.604
47626W        W 7162  41.895  13.798   4.832
47627W        W 7163  29.603  29.562  11.096
47628W        W 7164   0.296   4.815  12.033
47629W        W 7165   7.331  24.604   2.211
47630W        W 7166  26.517  17.685   9.561
47631W        W 7167  20.080  11.291  11.575
47632W        W 7168  35.548  36.503   3.250
47633W        W 7169  35.373  38.995   4.308
47634W        W 7170  41.897  24.042  10.568
47635W        W 7171  28.494  22.703  11.046
47636W        W 7172  39.319  20.079   0.406
47637W        W 7173   0.760   7.337  10.644
47638W        W 7174  20.232  31.629   3.205
47639W        W 7175  26.117  34.044  11.075
47640W        W 7176  19.209  15.219  13.481
47641W        W 7177  19.184  35.910   0.328
47642W        W 7178  17.099   8.329   0.748
47643W        W 7179   9.862  20.694  12.441
47644W        W 7180  25.004  39.321  13.389
47645W        W 7181  19.625  15.288   0.289
47646W        W 7182  11.138  25.182   3.302
47647W        W 7183  34.881  13.346  13.825
47648W        W 7184  32.105  34.583  14.837
47649W        W 7185  17.159   8.747   1.223
47650W        W 7186  11.811  15.270  12.005
47651W        W 7187  40.017  39.481  12.989
47652W        W 7188  25.704  34.885   0.871
47653W        W 7189  17.782  41.333  12.851
47654W        W 7190   2.347  12.791  12.981
47655W        W 7191  17.668  12.163   4.276
47656W        W 7192  30.597  27.633  12.414
47657W        W 7193  28.165  13.759   4.244
47658W        W 7194  30.003  30.482  13.805
47659W        W 7195  26.972  26.975  12.579
47660W        W 7196   4.291  15.814  10.433
47661W        W 7197  19.701  23.504  10.583
47662W        W 7198  27.553   7.344  10.559
47663W        W 7199  43.322  33.068   4.245
47664W        W 7200  23.210  25.679   2.279
47665W        W 7201  22.574  22.504   3.207
47666W        W 7202  16.778   4.893  12.429
47667W        W 7203  11.281  32.498  10.926
47668W        W 7204   0.319  12.197  14.929
47669W        W 7205  42.347  30.002  14.394
47670W        W 7206  22.116  25.059  11.547
47671W        W 7207  18.790  40.509   3.848
47672W        W 7208  26.523  39.031  13.537
47673W        W 7209  11.138  21.112  14.365
47674W        W 7210  14.729  12.228  13.803
47675W        W 7211  42.404  26.650   0.782
47676W        W 7212  29.462  14.624   1.764
47677W        W 7213   3.831  18.264   0.279
47678W        W 7214  35.396  26.149   2.249
47679W        W 7215   7.387   1.356   2.314
47680W        W 7216  41.297  15.641  10.106
47681W        W 7217  34.096  34.602   3.253
47682W        W 7218  14.211  38.563   2.769
47683W        W 7219   1.411   3.416  12.384
47684W        W 7220  34.994  16.309   0.898
47685W        W 7221  15.237  34.925  13.458
47686W        W 7222  11.765  25.702   0.305
47687W        W 7223  42.940  43.836  13.916
47688W        W 7224   7.242   7.863  13.877
47689W        W 7225  32.562  34.064  12.018
47690W        W 7226  34.865  44.001   4.156
47691W        W 7227  37.528  34.046   4.701
47692W        W 7228  13.217   0.381  13.904
47693W        W 7229  29.663  34.480   4.627
47694W        W 7230  30.028  11.848   3.828
47695W        W 7231  31.091  16.305   0.284
47696W        W 7232  18.094  39.025  10.639
47697W        W 7233  23.153  37.383  14.848
47698W        W 7234  36.530  34.577  14.847
47699W        W 7235  21.027  20.184  14.354
47700W        W 7236  20.614  19.143   2.389
47701W        W 7237  32.135   3.387  13.950
47702W        W 7238   1.355  12.238  14.422
47703W        W 7239  32.566   9.365   0.280
47704W        W 7240  38.475  31.516   1.388
47705W        W 7241   8.731  11.624  11.410
47706W        W 7242  39.413  36.416   3.294
47707W        W 7243   1.867   9.799   1.801
47708W        W 7244  23.050  38.002   0.459
47709W        W 7245   7.262   1.878  11.552
47710W        W 7246  39.529  30.115   2.708
47711W        W 7247  25.021  36.434  11.400
47712W        W 7248   9.357   1.332  11.970
47713W        W 7249  40.047  35.014   3.308
47714W        W 7250   2.429  21.515  12.008
47715W        W 7251  17.582  35.392   1.918
47716W        W 7252   1.421  14.273   2.758
47717W        W 7253  20.607  13.184   1.435
47718W        W 7254  31.008  34.874   0.323
47719W        W 7255  26.061   8.694  10.563
47720W        W 7256  42.507  38.504   1.927
47721W        W 7257  24.560  36.439  13.483
47722W        W 7258  24.604   3.296   3.748
47723W        W 7259   0.826  19.678   1.746
47724W        W 7260  39.319  19.745  10.888
47725W        W 7261  10.280  12.718  12.934
47726W        W 7262  32.596  33.504  11.608
47727W        W 7263  36.054  40.386   1.920
47728W        W 7264  38.393  12.711   4.625
47729W        W 7265  39.040  23.172   1.762
47730W        W 7266  41.999   6.909   4.617
47731W        W 7267  24.068  15.098  11.862
47732W        W 7268  17.788   7.712  10.555
47733W        W 7269  23.650  14.824  12.570
47734W        W 7270  39.862   2.797   0.356
47735W        W 7271  22.998  27.004  11.473
47736W        W 7272  23.031  22.195  10.523
47737W        W 7273  16.317  20.698  14.352
47738W        W 7274   3.376   3.223  13.475
47739W        W 7275   1.906  42.388  12.085
47740W        W 7276   4.216  19.040   3.208
47741W        W 7277  29.643  44.349  12.573
47742W        W 7278  29.981   3.336   0.264
47743W        W 7279  14.718  30.006   2.374
47744W        W 7280  37.348  12.842  10.099
47745W        W 7281   0.977  43.786   0.296
47746W        W 7282  13.349  28.636  13.331
47747W        W 7283  41.042  21.117  11.090
47748W        W 7284   5.295  15.279   1.443
47749W        W 7285  21.118  16.311  14.408
47750W        W 7286  12.129  23.002  12.372
47751W        W 7287  44.968  18.724   3.351
47752W        W 7288  31.022  28.466  12.955
47753W        W 7289   8.172  25.148   1.851
47754W        W 7290   3.850  19.736  13.477
47755W        W 7291  35.427  27.194   4.324
47756W        W 7292  36.038  18.743   5.246
47757W        W 7293   2.468   8.841  10.493
47758W        W 7294  25.029  32.604   1.267
47759W        W 7295  37.035  33.616  12.406
47760W        W 7296  34.035   7.285  12.925
47761W        W 7297  21.592   8.723  13.373
47762W        W 7298  13.111   7.357  14.349
47763W        W 7299  44.367  17.763   2.694
47764W        W 7300  34.593   2.843   3.692
47765W        W 7301  38.347  25.010  11.412
47766W        W 7302  40.904  42.878  10.090
47767W        W 7303  27.124  12.216   1.723
47768W        W 7304  11.349  10.831   2.854
47769W        W 7305  28.563  20.119   0.422
47770W        W 7306  42.991  43.786   2.687
47771W        W 7307   0.943  11.819   0.256
47772W        W 7308  43.475  34.935  14.389
47773W        W 7309  23.132  35.954  12.979
47774W        W 7310  28.548   4.944  11.567
47775W        W 7311  25.216  35.538   3.745
47776W        W 7312  34.956   1.243   5.118
47777W        W 7313   8.707  19.229  14.452
47778W        W 7314  36.936  43.887  13.358
47779W        W 7315  14.701   9.230   1.858
47780W        W 7316  12.642  31.499  13.050
47781W        W 7317   8.712  14.145   4.608
47782W        W 7318  35.877  33.955   3.707
47783W        W 7319  23.152  22.192   4.270
47784W        W 7320  39.512  19.611   1.233
47785W        W 7321  32.584  24.036   4.304
47786W        W 7322  25.588  17.123  11.592
47787W        W 7323  18.726  13.831  12.928
47788W        W 7324  36.365  10.799  11.054
47789W        W 7325  37.843   2.856   2.900
47790W        W 7326   1.891   7.737  12.091
47791W        W 7327  21.086  41.024   3.315
47792W        W 7328  40.963  29.434  13.865
47793W        W 7329  38.369  39.972  14.383
47794W        W 7330   3.417  16.749  14.495
47795W        W 7331  35.854  41.384  14.781
47796W        W 7332   0.862  24.020   9.960
47797W        W 7333  40.452  37.541   4.831
47798W        W 7334   4.242  24.568  10.508
47799W        W 7335  31.437  43.930   3.299
47800W        W 7336  35.442   7.411   0.351
47801W        W 7337  27.671  31.003  12.936
47802W        W 7338   6.910   6.707   1.257
47803W        W 7339  18.546  26.472   3.220
47804W        W 7340  17.636  29.521   2.325
47805W        W 7341  14.685  19.765  14.793
47806W        W 7342  37.839  32.121  10.910
47807W        W 7343   0.470  30.576  12.404
47808W        W 7344  40.975  21.724  14.424
47809W        W 7345  16.643   7.744  14.436
47810W        W 7346   0.925  41.852  11.077
47811W        W 7347  34.964   0.368   0.814
47812W        W 7348   2.249  21.571   3.705
47813W        W 7349  24.084  36.883  12.845
47814W        W 7350  21.757  35.106   0.257
47815W        W 7351  40.805   0.294   5.156
47816W        W 7352   6.328  36.072  12.939
47817W        W 7353  27.546   6.885  11.968
47818W        W 7354  18.711  38.884   1.699
47819W        W 7355   3.806   1.291  10.431
47820W        W 7356  34.113  22.715  13.850
47821W        W 7357  18.788   8.828  10.146
47822W        W 7358  15.141   9.714  14.813
47823W        W 7359  15.135  10.682  14.883
47824W        W 7360  10.860  16.663   1.844
47825W        W 7361  39.501   7.755  12.902
47826W        W 7362  39.818   9.231  14.461
47827W        W 7363  29.108  22.583  14.971
47828W        W 7364  11.184  32.444   0.964
47829W        W 7365  43.395  34.396  12.828
47830W        W 7366   1.348   0.909  13.022
47831W        W 7367  10.156  10.246  12.000
47832W        W 7368  40.306  26.638   0.396
47833W        W 7369   6.704  16.794  14.365
47834W        W 7370   8.295   7.832   1.249
47835W        W 7371  23.593  35.006   4.728
47836W        W 7372  44.261  13.656   2.719
47837W        W 7373  16.212  12.802  11.582
47838W        W 7374   0.448  33.488   3.367
47839W        W 7375  20.600  12.832   3.861
47840W        W 7376  20.033  40.009   3.805
47841W        W 7377  21.513  40.849  14.407
47842W        W 7378  16.277  39.049  12.073
47843W        W 7379  14.719  40.391   0.952
47844W        W 7380   2.265  31.146   2.752
47845W        W 7381  14.599  20.142   3.716
47846W        W 7382  14.753   1.471  11.045
47847W        W 7383  32.114  23.125  10.543
47848W        W 7384   0.301   2.786   3.176
47849W        W 7385  10.278  23.039   3.153
47850W        W 7386  34.020  40.812  14.454
47851W        W 7387   2.295   2.846  14.359
47852W        W 7388   4.910   3.922  12.563
47853W        W 7389  43.810  23.606  11.017
47854W        W 7390  43.321   0.320  13.442
47855W        W 7391  16.702  29.445  11.507
47856W        W 7392  28.675  29.975  13.962
47857W        W 7393   3.246   4.912  11.515
47858W        W 7394  14.675   6.839  10.016
47859W        W 7395  40.312  14.195   2.845
47860W        W 7396  17.069  37.022  11.420
47861W        W 7397  17.796  11.647   0.859
47862W        W 7398  31.047  41.901   0.275
47863W        W 7399   8.284   9.198  12.524
47864W        W 7400  19.200  32.534  13.404
47865W        W 7401  32.602   2.330   2.298
47866W        W 7402  21.041  12.342   3.345
47867W        W 7403   6.301   3.905  12.009
47868W        W 7404  11.866   8.372  14.996
47869W        W 7405  11.754  36.476   4.123
47870W        W 7406  39.023  27.656   0.750
47871W        W 7407  15.773   5.751  13.867
47872W        W 7408  19.133  26.531  12.508
47873W        W 7409   1.394  37.064   2.694
47874W        W 7410   3.267  20.558  10.889
47875W        W 7411  41.389  40.305   3.870
47876W        W 7412   0.982  42.982   2.368
47877W        W 7413   1.795   1.397   4.668
47878W        W 7414   6.871  24.494   4.825
47879W        W 7415  41.002   3.846   0.956
47880W        W 7416   2.441  23.026   1.325
47881W        W 7417  33.934  15.637  12.902
47882W        W 7418  32.098  30.926   4.774
47883W        W 7419  16.754   6.812   2.325
47884W        W 7420   1.283   8.342   2.349
47885W        W 7421  10.190  31.901  14.923
47886W        W 7422  16.776  18.058   1.907
47887W        W 7423  39.398   4.748   2.250
47888W        W 7424  32.572  23.106  11.021
47889W        W 7425  35.483   3.719  13.513
47890W        W 7426  33.387  16.101   3.740
47891W        W 7427  27.639  39.457  14.882
47892W        W 7428  18.712  18.545  14.373
47893W        W 7429   4.237  23.606   3.279
47894W        W 7430  32.122  28.128  13.822
47895W        W 7431  32.533  22.559   4.236
47896W        W 7432  17.106  22.238   3.242
47897W        W 7433  43.976  14.687   2.793
47898W        W 7434   9.152  28.106   0.768
47899W        W 7435  44.341  26.117  12.878
47900W        W 7436  33.611  27.147   4.731
47901W        W 7437  34.964  19.679  10.409
47902W        W 7438  31.597  16.208   1.217
47903W        W 7439   9.320  24.688   2.692
47904W        W 7440  37.578  16.296   4.785
47905W        W 7441  20.681   3.311  14.870
47906W        W 7442  43.887  17.726   0.790
47907W        W 7443   2.902  27.044   3.381
47908W        W 7444   1.359   7.902   4.332
47909W        W 7445  13.212  13.793  13.026
47910W        W 7446  19.163  22.628  13.839
47911W        W 7447  16.620  38.017   1.367
47912W        W 7448   2.760  22.202  14.465
47913W        W 7449  19.231   8.900   2.332
47914W        W 7450  30.560  25.706  14.420
47915W        W 7451   1.836   9.687  10.597
47916W        W 7452   2.251   5.380  14.788
47917W        W 7453  37.443  10.855   3.635
47918W        W 7454  29.551   3.387   0.392
47919W        W 7455  32.009  41.918  11.426
47920W        W 7456  37.359  22.220   4.170
47921W        W 7457  26.489   6.418   3.764
47922W        W 7458  38.003  26.487   3.252
47923W        W 7459  32.514  11.344  10.969
47924W        W 7460  36.508  30.593  12.429
47925W        W 7461  29.992  12.184   1.429
47926W        W 7462  23.719  38.374  14.783
47927W        W 7463  20.705  36.453   0.832
47928W        W 7464   6.916  25.048  11.496
47929W        W 7465   7.367  33.405   0.395
47930W        W 7466   3.845  22.033  11.961
47931W        W 7467   7.216  40.953   1.749
47932W        W 7468  10.635  40.014   1.273
47933W        W 7469  26.564  31.593   3.338
47934W        W 7470  22.086  21.751  12.362
47935W        W 7471  38.466  25.553   1.910
47936W        W 7472  41.338  42.029  14.866
47937W        W 7473  15.319  16.180   4.617
47938W        W 7474  11.286  36.020  14.958
47939W        W 7475  37.529  17.272  10.969
47940W        W 7476  13.316   8.188   0.898
47941W        W 7477  22.682   3.284   0.245
47942W        W 7478  26.590  18.106   1.815
47943W        W 7479  27.129  16.247   3.194
47944W        W 7480  32.412   9.243   3.634
47945W        W 7481  26.991  37.865  11.583
47946W        W 7482  39.966   5.195  12.943
47947W        W 7483  20.247  34.542  13.515
47948W        W 7484   9.227  33.013   1.276
47949W        W 7485  39.898  44.880   4.218
47950W        W 7486   8.658  41.935   1.263
47951W        W 7487  44.913  43.825  13.002
47952W        W 7488  35.022  36.482  11.564
47953W        W 7489  36.415  36.082  10.018
47954W        W 7490   4.886  26.457  14.023
47955W        W 7491  32.616  18.631  11.388
47956W        W 7492  37.987  36.472  14.378
47957W        W 7493   6.298  34.604  12.858
47958W        W 7494  22.595  12.639  10.114
47959W        W 7495  12.843  25.637  14.897
47960W        W 7496  31.146  22.221  14.930
47961W        W 7497  22.173  19.124   3.259
47962W        W 7498  44.818  12.361  12.021
47963W        W 7499  23.546   1.331   4.692
47964W        W 7500  29.012   3.458   1.323
47965W        W 7501   5.786  24.574  10.574
47966W        W 7502  26.508  12.690  11.411
47967W        W 7503  23.700  14.107   0.821
47968W        W 7504  26.504  35.454  14.976
47969W        W 7505  41.537  36.464   3.301
47970W        W 7506  29.095  16.571  10.435
47971W        W 7507   4.793  26.184  13.980
47972W        W 7508  26.670   6.761  11.423
47973W        W 7509  21.605   2.267  13.028
47974W        W 7510  27.573  42.435  13.033
47975W        W 7511   4.314  21.175   4.619
47976W        W 7512  12.191  32.115  11.904
47977W        W 7513   5.775  15.294   3.197
47978W        W 7514  30.495   9.687  12.988
47979W        W 7515  16.763  23.490  14.395
47980W        W 7516   5.699  15.185   4.177
47981W        W 7517  42.319  30.940  12.035
47982W        W 7518  32.553  24.655  13.882
47983W        W 7519  15.752  38.479   2.415
47984W        W 7520   6.221  30.587   3.371
47985W        W 7521  34.894  26.540  12.340
47986W        W 7522  39.828  13.279  13.797
47987W        W 7523  30.954  41.533  12.361
47988W        W 7524  26.518  43.401  14.820
47989W        W 7525  10.876  30.572  10.050
47990W        W 7526  17.237   1.854  12.419
47991W        W 7527  16.719  16.178  14.772
47992W        W 7528  39.830   5.901   4.642
47993W        W 7529  24.630   5.299  10.453
47994W        W 7530  37.519  19.092  13.026
47995W        W 7531  22.662  33.391  13.918
47996W        W 7532   6.258  10.691  12.442
47997W        W 7533  10.197  31.074  10.955
47998W        W 7534  21.149  38.076  12.467
47999W        W 7535  18.697  14.755   1.708
48000W        W 7536  11.860  28.529  14.412
48001W        W 7537  44.779  29.171  10.559
48002W        W 7538  43.285  25.479   3.169
48003W        W 7539  38.023  39.468  11.040
48004W        W 7540  39.871   0.798   4.639
48005W        W 7541  24.223   0.960  10.416
48006W        W 7542  24.604  18.148   0.791
48007W        W 7543   5.297  14.792   4.345
48008W        W 7544  20.748   8.773  12.485
48009W        W 7545  17.761  20.623   0.339
48010W        W 7546  14.312  36.469  12.441
48011W        W 7547   1.749  19.045   3.821
48012W        W 7548   5.279  42.800   4.130
48013W        W 7549  21.562  29.424  13.032
48014W        W 7550  18.544  33.551  13.389
48015W        W 7551  37.490   2.885   0.439
48016W        W 7552  23.118  35.005  14.803
48017W        W 7553  40.877  25.035   3.163
48018W        W 7554  16.077  32.540  10.922
48019W        W 7555  35.100  20.570   0.866
48020W        W 7556   8.844  24.480  12.533
48021W        W 7557  24.178  16.293   2.680
48022W        W 7558   0.302  42.791  11.398
48023W        W 7559  38.471  36.513   4.127
48024W        W 7560   1.839  34.522  12.896
48025W        W 7561  42.370  34.402   0.962
48026W        W 7562  12.857  22.651   4.634
48027W        W 7563  15.635   9.262  13.060
48028W        W 7564   4.885  20.224   5.258
48029W        W 7565  31.952  11.249   4.724
48030W        W 7566   9.881  19.554  12.362
48031W        W 7567   9.205   2.938   0.262
48032W        W 7568  29.922  19.067   0.357
48033W        W 7569   6.199  31.137  14.276
48034W        W 7570  16.665  39.815  11.987
48035W        W 7571   4.380  26.465  12.936
48036W        W 7572   3.912  18.769  12.913
48037W        W 7573   8.871  10.798  12.406
48038W        W 7574  36.379  19.044   3.186
48039W        W 7575  32.981  15.197  13.940
48040W        W 7576   9.226  23.530  11.030
48041W        W 7577  22.714  42.482  12.043
48042W        W 7578  40.519   5.906   2.344
48043W        W 7579  42.485  23.736  12.423
48044W        W 7580  38.988  23.624  10.975
48045W        W 7581  23.696  27.034   0.364
48046W        W 7582  25.178   4.882   3.346
48047W        W 7583  30.022   3.376  12.830
48048W        W 7584  30.638  17.611   2.686
48049W        W 7585  22.664  15.763   4.634
48050W        W 7586  13.696  23.576  14.808
48051W        W 7587  32.548   2.461   0.755
48052W        W 7588  44.427  26.684   5.255
48053W        W 7589  20.047  37.453  14.372
48054W        W 7590  23.051   3.391  10.519
48055W        W 7591  14.189  19.649   0.478
48056W        W 7592  30.592   3.219   3.643
48057W        W 7593  28.641  18.206  10.516
48058W        W 7594  31.470  23.681   1.235
48059W        W 7595  13.615  24.066   4.665
48060W        W 7596  23.182   7.240  12.893
48061W        W 7597   9.750  18.287  14.018
48062W        W 7598  43.921   8.708   2.763
48063W        W 7599  26.635   9.337  10.952
48064W        W 7600  34.884  26.461   1.862
48065W        W 7601  34.525  21.181  13.799
48066W        W 7602  18.647  34.008  12.980
48067W        W 7603  20.615   5.721  13.828
48068W        W 7604  37.914  33.057  14.420
48069W        W 7605  12.256   8.832  13.544
48070W        W 7606  19.109  36.462   2.738
48071W        W 7607  35.582  34.605   1.318
48072W        W 7608  43.889  36.946   2.793
48073W        W 7609  38.358  13.209   3.692
48074W        W 7610   9.775   2.926  12.376
48075W        W 7611  17.279  35.527   0.410
48076W        W 7612  31.077  44.384  10.412
48077W        W 7613   6.344  18.663   0.792
48078W        W 7614   3.418   7.822  13.870
48079W        W 7615  12.818   2.743   2.245
48080W        W 7616  15.091   2.723  11.988
48081W        W 7617  22.587  27.666  12.457
48082W        W 7618  18.222   3.888   3.267
48083W        W 7619  23.507  18.765  12.941
48084W        W 7620  40.440  28.653  13.498
48085W        W 7621  15.786  26.030   0.308
48086W        W 7622  34.952  10.731  13.455
48087W        W 7623  30.113  18.149   3.674
48088W        W 7624  31.473  27.683   1.794
48089W        W 7625   0.301  22.520  14.350
48090W        W 7626  25.653  10.181   9.982
48091W        W 7627  18.185  10.221   2.706
48092W        W 7628  16.714   3.915   0.777
48093W        W 7629  26.978  24.480   0.434
48094W        W 7630  35.004  35.524   4.667
48095W        W 7631   1.977  11.147  14.015
48096W        W 7632   2.931  17.120  11.111
48097W        W 7633   2.942  38.043   0.332
48098W        W 7634  37.992   7.675   1.813
48099W        W 7635  13.255   9.290  11.550
48100W        W 7636  22.129  35.427   1.750
48101W        W 7637   6.243  13.237  11.119
48102W        W 7638  12.748  12.793   1.431
48103W        W 7639  35.603  25.021   0.356
48104W        W 7640  21.703  12.325  12.551
48105W        W 7641  18.589  17.675   3.308
48106W        W 7642  30.096  41.967  13.864
48107W        W 7643  31.964  28.597   1.277
48108W        W 7644  18.775   7.181  12.049
48109W        W 7645  12.281   2.754  14.977
48110W        W 7646   6.338  36.589  12.535
48111W        W 7647  30.098   3.712  11.374
48112W        W 7648  12.160  20.728  10.529
48113W        W 7649   8.730  39.983  14.989
48114W        W 7650  24.534   9.255  14.408
48115W        W 7651   5.400   6.313  10.893
48116W        W 7652  38.526  16.670   1.769
48117W        W 7653   2.360  15.090  13.351
48118W        W 7654  34.386  39.835   1.880
48119W        W 7655  33.893   8.673  10.528
48120W        W 7656  26.094   5.698  14.406
48121W        W 7657  31.120  10.705  11.973
48122W        W 7658   1.856  17.288  14.824
48123W        W 7659  42.948  33.951  14.396
48124W        W 7660  17.090   6.427  11.529
48125W        W 7661  39.857  35.957  12.889
48126W        W 7662  41.948  23.086   2.405
48127W        W 7663   4.401   9.756  11.013
48128W        W 7664  39.364   4.450  14.315
48129W        W 7665  10.795  38.387  12.980
48130W        W 7666  13.289  38.890  14.830
48131W        W 7667  20.583   6.738   0.824
48132W        W 7668  12.725  12.732  12.479
48133W        W 7669   5.211   2.240   2.336
48134W        W 7670  16.204  29.952  13.491
48135W        W 7671  21.734  13.132   3.841
48136W        W 7672  34.092  39.358   2.283
48137W        W 7673   0.436  18.293   1.824
48138W        W 7674  36.591  20.709  10.972
48139W        W 7675  18.582   1.763  11.594
48140W        W 7676  36.953   3.848   5.697
48141W        W 7677  30.574  39.380   3.303
48142W        W 7678  38.476  13.826   2.753
48143W        W 7679  16.122  43.357   4.756
48144W        W 7680  23.023  31.923   1.815
48145W        W 7681  16.169   0.253   2.366
48146W        W 7682   4.803   3.846   0.359
48147W        W 7683  40.838  11.738  14.459
48148W        W 7684  17.790  10.696   4.330
48149W        W 7685  35.432  42.421  10.405
48150W        W 7686  10.655  20.061  12.994
48151W        W 7687   0.419   6.697   4.697
48152W        W 7688   0.257  16.764   3.686
48153W        W 7689  23.159   1.297  14.405
48154W        W 7690  27.059  18.765  14.360
48155W        W 7691  15.316  13.261   0.967
48156W        W 7692  17.782  44.320  14.408
48157W        W 7693   3.804  39.489   0.440
48158W        W 7694  27.162  33.122  13.494
48159W        W 7695  13.721  41.027   2.275
48160W        W 7696  12.213  31.919  13.342
48161W        W 7697   8.749  19.153   4.184
48162W        W 7698   5.439  11.786  11.382
48163W        W 7699  27.523  43.332   4.661
48164W        W 7700  44.435  31.924  12.560
48165W        W 7701  42.318  19.699  11.591
48166W        W 7702  14.675   0.448   3.244
48167W        W 7703   3.412  12.634  11.598
48168W        W 7704  12.701   7.739  14.793
48169W        W 7705  35.363  35.104   0.381
48170W        W 7706  38.069  14.593  11.070
48171W        W 7707  30.931   1.899  11.505
48172W        W 7708  44.378  21.231   0.857
48173W        W 7709  38.892  35.960   0.818
48174W        W 7710   6.366   8.359   1.702
48175W        W 7711  11.689  35.882   2.180
48176W        W 7712   8.775  31.418   2.748
48177W        W 7713  26.955   5.224  10.504
48178W        W 7714  42.005   1.950  11.976
48179W        W 7715  27.982  11.226   4.332
48180W        W 7716  10.820  43.839   2.411
48181W        W 7717  16.242  35.966   0.340
48182W        W 7718  30.455  15.222  10.636
48183W        W 7719   4.781  42.892   0.447
48184W        W 7720   1.449  38.461  11.488
48185W        W 7721  17.120  12.172   0.824
48186W        W 7722  11.248  20.705  13.512
48187W        W 7723  40.858  15.686   1.736
48188W        W 7724   0.924  40.977   2.684
48189W        W 7725   4.343  12.292   1.913
48190W        W 7726  18.591  12.270   3.652
48191W        W 7727   0.444  20.667   1.904
48192W        W 7728  20.139  11.838   3.654
48193W        W 7729  33.993  33.925   2.405
48194W        W 7730   3.339   7.878  14.891
48195W        W 7731   1.802  41.032  13.358
48196W        W 7732   7.406  42.475  13.443
48197W        W 7733  20.737  33.038   1.728
48198W        W 7734  19.686  15.815  12.885
48199W        W 7735  40.865  10.229   3.828
48200W        W 7736  36.479   0.883  13.330
48201W        W 7737   7.257  20.039   2.750
48202W        W 7738   3.869   0.289   3.642
48203W        W 7739  43.860  26.617   3.216
48204W        W 7740   8.247  16.684   4.341
48205W        W 7741  21.138  15.681   1.235
48206W        W 7742  31.416  31.599   3.153
48207W        W 7743  29.524  30.561   2.346
48208W        W 7744  10.207  44.423  11.931
48209W        W 7745  12.275  30.512  10.456
48210W        W 7746  11.792  40.868   1.236
48211W        W 7747  27.453   4.939   2.754
48212W        W 7748  19.056   6.399   4.180
48213W        W 7749  36.382  44.426   3.357
48214W        W 7750  21.662  19.257   5.184
48215W        W 7751   5.339  18.123   4.349
48216W        W 7752  42.281  43.810   3.838
48217W        W 7753  32.492  27.639  11.007
48218W        W 7754  32.049  24.039   0.312
48219W        W 7755  36.037  19.561  14.774
48220W        W 7756  26.681  40.465   2.333
48221W        W 7757  42.368  11.244  12.008
48222W        W 7758  38.406  20.529   1.890
48223W        W 7759  22.193  33.004   5.665
48224W        W 7760  21.521  21.120  11.019
48225W        W 7761  20.255  41.942  14.996
48226W        W 7762  17.242  16.681  12.026
48227W        W 7763  13.278  11.323   4.712
48228W        W 7764   2.460  19.072  11.374
48229W        W 7765  37.521  39.896   1.219
48230W        W 7766  22.214   6.755   1.899
48231W        W 7767  14.763  18.548  10.922
48232W        W 7768   4.773  42.434  10.518
48233W        W 7769   9.710  38.923   0.288
48234W        W 7770  37.496  42.456   0.434
48235W        W 7771  43.331   8.174  10.949
48236W        W 7772  31.069  29.050   4.830
48237W        W 7773  43.447   5.417   3.246
48238W        W 7774   6.199  16.089   2.721
48239W        W 7775  41.521  33.559  10.565
48240W        W 7776  37.531  42.782   1.362
48241W        W 7777   9.750  17.299   1.830
48242W        W 7778  35.576  34.040  12.501
48243W        W 7779  33.924  11.162   2.697
48244W        W 7780   7.333  32.024   2.329
48245W        W 7781  24.169  31.999   3.351
48246W        W 7782  15.704   1.322  14.318
48247W        W 7783  17.251   7.186  10.580
48248W        W 7784  14.755  29.466  14.288
48249W        W 7785  24.519  18.722  11.995
48250W        W 7786   4.701   3.418   2.894
48251W        W 7787  37.513   5.264  11.606
48252W        W 7788  44.473  43.855   1.761
48253W        W 7789  27.466  41.816  12.877
48254W        W 7790  17.758  27.039   1.416
48255W        W 7791  10.812  42.962   3.671
48256W        W 7792  12.713  16.652  13.832
48257W        W 7793  24.080  17.100   5.278
48258W        W 7794  40.485  40.526   3.258
48259W        W 7795  15.683  32.139  10.112
48260W        W 7796  17.716  42.468   1.419
48261W        W 7797  24.607   2.946   3.289
48262W        W 7798  17.653  25.177  11.011
48263W        W 7799  29.984  14.338  13.797
48264W        W 7800  31.622  18.602  13.047
48265W        W 7801   1.770  40.050  11.094
48266W        W 7802  21.116  27.053  13.029
48267W        W 7803   9.376  10.357   3.188
48268W        W 7804   7.227  23.088  11.532
48269W        W 7805  27.537   4.430  14.874
48270W        W 7806  13.310  19.054  13.524
48271W        W 7807  43.424  20.764   2.366
48272W        W 7808  16.568   4.906   4.160
48273W        W 7809  11.748   8.302   9.955
48274W        W 7810  10.371  21.108  10.535
48275W        W 7811   7.907  29.055  12.840
48276W        W 7812  25.175   9.247  12.534
48277W        W 7813  29.924   9.160  14.795
48278W        W 7814  38.939  30.627  10.613
48279W        W 7815  41.529  35.099  10.463
48280W        W 7816  26.571  14.150  12.577
48281W        W 7817  15.204  37.356  10.615
48282W        W 7818  43.349  43.296   3.754
48283W        W 7819  34.403  40.399   4.226
48284W        W 7820  40.360   5.750  10.912
48285W        W 7821  27.078  43.937  13.502
48286W        W 7822  25.016  19.605   5.223
48287W        W 7823  39.917   8.338  14.304
48288W        W 7824  23.224  38.356  13.965
48289W        W 7825  21.139  18.270  11.399
48290W        W 7826   4.208  27.947   9.968
48291W        W 7827  44.786  39.475   0.403
48292W        W 7828  10.170  31.027  12.448
48293W        W 7829  19.152  26.120   2.407
48294W        W 7830  21.559  13.658  14.948
48295W        W 7831  12.120  29.054   4.778
48296W        W 7832  11.725  11.178  12.862
48297W        W 7833  30.959   7.855  11.542
48298W        W 7834  13.618  24.000  12.963
48299W        W 7835   5.218  31.605   3.851
48300W        W 7836  32.625  16.193   2.357
48301W        W 7837  34.101  44.426   0.332
48302W        W 7838   5.859  19.591   1.446
48303W        W 7839  43.016  19.715  11.579
48304W        W 7840  12.328  34.408  11.860
48305W        W 7841  10.335   6.753   0.744
48306W        W 7842  18.287  28.681   4.784
48307W        W 7843  12.619  10.802   5.309
48308W        W 7844  43.367  38.836  11.900
48309W        W 7845  10.719  28.931   1.391
48310W        W 7846  29.542  28.096   1.357
48311W        W 7847   1.876  34.062  11.071
48312W        W 7848  26.501  41.447   3.181
48313W        W 7849  33.518   5.748   1.373
48314W        W 7850  11.226  15.297  11.587
48315W        W 7851   0.399   1.406  13.798
48316W        W 7852  20.565  29.104   1.800
48317W        W 7853  35.385   8.834   3.704
48318W        W 7854  36.956   6.779   3.733
48319W        W 7855  31.086   5.409  13.897
48320W        W 7856  38.977  25.117   4.723
48321W        W 7857  18.546  14.729  14.009
48322W        W 7858   4.286  27.550   3.258
48323W        W 7859   6.222  26.545   5.718
48324W        W 7860  43.924  29.567   4.664
48325W        W 7861   4.259   6.895  12.556
48326W        W 7862  35.388  38.841  11.114
48327W        W 7863  28.589  16.096   0.881
48328W        W 7864  15.588  12.856  14.022
48329W        W 7865  30.420  26.532   1.773
48330W        W 7866  13.738  29.933   1.211
48331W        W 7867  22.116  14.202   1.862
48332W        W 7868  20.265  36.590  11.957
48333W        W 7869  31.903  32.467   3.169
48334W        W 7870  30.082  38.536   1.401
48335W        W 7871  24.979  18.648   3.834
48336W        W 7872  29.452   3.288   1.263
48337W        W 7873  24.973  22.530  11.440
48338W        W 7874   5.822  43.905   2.276
48339W        W 7875  19.692  32.595  10.623
48340W        W 7876   9.351  10.231   1.895
48341W        W 7877  30.458   7.726  10.944
48342W        W 7878  17.103   1.858   0.365
48343W        W 7879  41.450   1.264   2.890
48344W        W 7880  34.553   9.679  14.967
48345W        W 7881   0.319  44.322  11.033
48346W        W 7882   2.356  37.576  11.519
48347W        W 7883  29.637  11.842   0.433
48348W        W 7884  31.925  11.835   4.647
48349W        W 7885  30.532  19.108  12.427
48350W        W 7886   7.171  37.900  11.986
48351W        W 7887  32.391   5.422  11.922
48352W        W 7888  20.711  33.018  11.986
48353W        W 7889  32.493  22.222   2.293
48354W        W 7890  22.532  31.961   2.665
48355W        W 7891  17.692  31.922  11.595
48356W        W 7892  21.161  44.795   3.823
48357W        W 7893  30.102  18.662   0.895
48358W        W 7894  40.820  10.184   1.752
48359W        W 7895   5.725  21.108   0.874
48360W        W 7896  10.250  29.953  13.440
48361W        W 7897  17.788  40.996   2.391
48362W        W 7898  15.132   0.773   3.267
48363W        W 7899  35.500  40.327   3.288
48364W        W 7900   7.897   3.329   2.879
48365W        W 7901  30.106  11.807  13.442
48366W        W 7902  38.957  38.890   5.257
48367W        W 7903   7.232  34.937   3.384
48368W        W 7904   3.733  26.692   9.951
48369W        W 7905  37.890   5.417  13.372
48370W        W 7906  27.660  41.416  13.325
48371W        W 7907  44.299  23.640   0.407
48372W        W 7908  25.530  19.592   5.142
48373W        W 7909  38.449  28.623   0.465
48374W        W 7910   8.822  27.601  12.990
48375W        W 7911  23.552  13.778  12.508
48376W        W 7912  32.472  24.637   4.220
48377W        W 7913  40.469  26.649   0.815
48378W        W 7914  21.525  42.461   1.920
48379W        W 7915  37.876   9.812  12.482
48380W        W 7916   0.920  14.651  14.480
48381W        W 7917  21.650  15.284  13.521
48382W        W 7918   9.794   2.872  10.941
48383W        W 7919  13.317   8.318  11.891
48384W        W 7920  31.451  42.362  11.986
48385W        W 7921   7.204  21.098   4.610
48386W        W 7922   0.477  25.159   1.399
48387W        W 7923  37.537   4.858   3.242
48388W        W 7924  38.018  17.084  11.094
48389W        W 7925  39.493   5.902  13.422
48390W        W 7926   2.316  25.107   3.171
48391W        W 7927   9.174  41.002  11.068
48392W        W 7928  39.884   9.262  14.799
48393W        W 7929  12.169   9.152   4.621
48394W        W 7930   0.403   4.366  10.888
48395W        W 7931  39.315  26.659  12.005
48396W        W 7932  25.626  23.168   4.310
48397W        W 7933  33.957  18.602   4.335
48398W        W 7934  18.140  21.593  11.077
48399W        W 7935   7.203  17.784  12.405
48400W        W 7936   3.927  11.195  14.457
48401W        W 7937  31.509  12.210   1.906
48402W        W 7938  17.758   9.186   1.253
48403W        W 7939  20.236  20.690   5.249
48404W        W 7940  43.475  25.183   2.700
48405W        W 7941  24.983  16.279   5.270
48406W        W 7942  43.425  10.718   0.266
48407W        W 7943  28.516  11.302   0.425
48408W        W 7944  10.749  39.551   1.389
48409W        W 7945  18.121   5.859  10.464
48410W        W 7946  25.024  10.280  11.419
48411W        W 7947  26.156  44.406  10.426
48412W        W 7948   7.258  30.125  10.963
48413W        W 7949   4.872  22.697   0.822
48414W        W 7950  17.641  14.757   4.602
48415W        W 7951  12.613  15.664   3.304
48416W        W 7952  35.915  19.132  11.090
48417W        W 7953  23.217  38.569   2.897
48418W        W 7954  21.709  36.930  12.396
48419W        W 7955  37.542  26.997   1.900
48420W        W 7956  17.666  36.401  10.432
48421W        W 7957  22.076   7.747   2.236
48422W        W 7958  18.738  28.154   2.871
48423W        W 7959  13.822  30.098   0.944
48424W        W 7960  11.687   7.804  11.947
48425W        W 7961   5.715  30.138  10.889
48426W        W 7962  34.865  14.259   9.957
48427W        W 7963   9.283  22.112   4.764
48428W        W 7964  27.643  21.088  14.403
48429W        W 7965   7.314  41.533   4.617
48430W        W 7966  13.700  23.011   2.265
48431W        W 7967  15.671  39.011   5.197
48432W        W 7968   1.279  15.294   4.274
48433W        W 7969  43.415  10.289   9.612
48434W        W 7970  40.339  42.492   3.384
48435W        W 7971  44.310  35.412  13.799
48436W        W 7972  19.238  41.840   4.775
48437W        W 7973   3.873  16.316  14.798
48438W        W 7974   7.417   7.282   1.898
48439W        W 7975  36.459  20.745  10.598
48440W        W 7976  34.951  14.223  14.988
48441W        W 7977  42.406  18.747  14.427
48442W        W 7978   0.865  15.755   4.751
48443W        W 7979  41.882   4.735  14.380
48444W        W 7980  25.586  35.046  10.948
48445W        W 7981   2.238  14.285  14.762
48446W        W 7982  34.400  14.256  10.443
48447W        W 7983  29.997   3.771   1.697
48448W        W 7984  37.032  26.971  10.634
48449W        W 7985   3.271  31.428   2.302
48450W        W 7986  42.862  30.572  13.393
48451W        W 7987   8.667  19.164  12.520
48452W        W 7988  13.189  18.620  13.444
48453W        W 7989  37.392   7.256  11.008
48454W        W 7990  42.296  18.622   4.237
48455W        W 7991  35.438  14.605  12.962
48456W        W 7992  44.281  33.576   2.328
48457W        W 7993   1.475  32.426  12.581
48458W        W 7994   3.717  38.881   2.899
48459W        W 7995   4.871  11.181   0.744
48460W        W 7996  36.417  16.661   2.249
48461W        W 7997  19.689   8.824   0.249
48462W        W 7998   0.798  20.762   2.734
48463W        W 7999  27.147  25.677   3.720
48464W        W 8000   1.833  29.435   3.765
48465W        W 8001  12.645  24.977  10.977
48466W        W 8002  44.283  35.508   2.860
48467W        W 8003  27.107  28.975  10.421
48468W        W 8004  25.532   4.268   9.991
48469W        W 8005  15.098  17.656   3.704
48470W        W 8006   6.879  22.619  14.919
48471W        W 8007  10.373  37.569  13.542
48472W        W 8008  20.573  14.806   1.378
48473W        W 8009   8.733   3.399   2.328
48474W        W 8010  41.790  42.369   1.757
48475W        W 8011  22.194  30.995  12.975
48476W        W 8012  28.507  43.801   2.407
48477W        W 8013  32.118  40.349  12.417
48478W        W 8014   4.349  26.517   0.333
48479W        W 8015  44.276  10.370  12.845
48480W        W 8016  23.698   5.341   9.628
48481W        W 8017   7.810  14.603  10.420
48482W        W 8018  26.459  13.123   0.927
48483W        W 8019  19.263  37.986  12.881
48484W        W 8020  20.174  18.175   1.257
48485W        W 8021  20.568  13.198   4.311
48486W        W 8022  44.932  19.064   2.258
48487W        W 8023  29.170  21.704   3.332
48488W        W 8024  39.926  43.317  14.789
48489W        W 8025  41.959  24.685   0.279
48490W        W 8026  26.116  42.482  12.563
48491W        W 8027  36.583  42.471  12.364
48492W        W 8028  10.826  11.314   3.842
48493W        W 8029  33.450  29.649   1.320
48494W        W 8030  23.718   9.365  13.969
48495W        W 8031  44.395   0.860   0.856
48496W        W 8032  15.246  17.752  13.407
48497W        W 8033   7.778  15.635  12.348
48498W        W 8034  22.080   3.398   5.182
48499W        W 8035  27.472  43.012   3.214
48500W        W 8036   9.226   1.361  13.531
48501W        W 8037  10.842  29.538   4.806
48502W        W 8038  20.700  11.745   0.747
48503W        W 8039  23.580  38.026   4.211
48504W        W 8040  11.142  12.747   2.880
48505W        W 8041  25.969  41.005   1.727
48506W        W 8042  44.388  10.371  12.544
48507W        W 8043  14.622  13.789   4.179
48508W        W 8044   5.343  35.098   4.217
48509W        W 8045  40.414   2.327   4.689
48510W        W 8046  18.122  36.453  13.971
48511W        W 8047  42.283  10.856   2.418
48512W        W 8048  35.432  35.410   1.705
48513W        W 8049  36.397  15.680   1.367
48514W        W 8050  29.615  39.548  14.327
48515W        W 8051  34.502  12.747  12.339
48516W        W 8052   8.322  14.257   2.192
48517W        W 8053  13.629  16.235  11.451
48518W        W 8054  38.337  43.835  11.526
48519W        W 8055  16.663  40.809   2.718
48520W        W 8056  26.110  33.920   2.898
48521W        W 8057  39.013   2.323  13.852
48522W        W 8058  15.119  30.106   0.770
48523W        W 8059  30.146  17.693   3.721
48524W        W 8060  13.124   5.317  13.025
48525W        W 8061   1.363  10.806   2.790
48526W        W 8062  15.583  30.421  12.885
48527W        W 8063  27.154  32.103  13.375
48528W        W 8064  10.205  23.024   0.389
48529W        W 8065  13.677   2.729   1.336
48530W        W 8066  33.982  31.502  12.921
48531W        W 8067  35.413   5.301  13.307
48532W        W 8068  35.507   1.480   2.676
48533W        W 8069  14.758  34.530  14.378
48534W        W 8070  34.008  26.636  13.936
48535W        W 8071  44.356  20.762   3.655
48536W        W 8072  11.210  11.256  11.103
48537W        W 8073  38.826  36.391   4.186
48538W        W 8074  35.949  25.615   4.730
48539W        W 8075  27.171  16.316  12.941
48540W        W 8076   7.725   6.789  11.548
48541W        W 8077  21.636  28.015   2.683
48542W        W 8078   6.738  37.889   3.747
48543W        W 8079   4.208  34.480   2.782
48544W        W 8080  29.514  41.298  13.938
48545W        W 8081   3.407  10.718  14.427
48546W        W 8082  36.442  21.253   0.962
48547W        W 8083  27.687  10.677   3.785
48548W        W 8084   9.824  16.120   4.290
48549W        W 8085  27.492  19.144  12.579
48550W        W 8086  41.950  14.289  10.482
48551W        W 8087  44.994  39.498   2.828
48552W        W 8088  40.913  32.102  14.285
48553W        W 8089   6.877  43.396  12.417
48554W        W 8090   1.854   5.861  10.601
48555W        W 8091  26.184  18.250   1.858
48556W        W 8092  34.988  11.832   1.432
48557W        W 8093  10.826  11.861   1.394
48558W        W 8094  40.023   5.798   1.903
48559W        W 8095  15.708  18.599  14.351
48560W        W 8096  41.447  20.692   2.260
48561W        W 8097  43.457  29.639  11.876
48562W        W 8098  22.038   8.828   4.714
48563W        W 8099  20.166  38.346   4.795
48564W        W 8100  19.066   5.314   1.857
48565W        W 8101  10.793  35.040   4.294
48566W        W 8102  11.174  28.614  14.934
48567W        W 8103  42.954  18.286   4.607
48568W        W 8104  35.037   3.401   1.730
48569W        W 8105  17.566  39.429  12.888
48570W        W 8106  34.048  20.127   1.303
48571W        W 8107  37.475  10.688  13.843
48572W        W 8108  24.586  10.152   1.931
48573W        W 8109  26.642  26.656  10.466
48574W        W 8110  34.470   5.303   3.753
48575W        W 8111  44.502  32.475   2.400
48576W        W 8112   0.878  38.906  12.966
48577W        W 8113  30.528  37.988  14.005
48578W        W 8114  40.804   7.240  12.466
48579W        W 8115  21.216  17.616  13.909
48580W        W 8116  13.774  39.890   4.248
48581W        W 8117  14.635  17.689   0.928
48582W        W 8118  43.809   4.298   4.794
48583W        W 8119  37.031   5.861   3.148
48584W        W 8120  21.689  24.672  13.808
48585W        W 8121  23.636  39.461  12.372
48586W        W 8122   4.447  41.792  14.832
48587W        W 8123   2.411  21.692   1.760
48588W        W 8124   8.825  11.270   2.818
48589W        W 8125  20.129   7.334  12.021
48590W        W 8126  16.598  42.519  12.876
48591W        W 8127  32.937  34.938  14.334
48592W        W 8128  30.054  22.156   4.746
48593W        W 8129  26.680  23.649  12.926
48594W        W 8130  38.325  39.497  14.952
48595W        W 8131  33.588  20.570   3.290
48596W        W 8132   7.839  16.224   4.237
48597W        W 8133   0.768   5.260   0.421
48598W        W 8134  18.148  18.781   2.365
48599W        W 8135  23.567  32.462  14.343
48600W        W 8136  21.661  35.420  12.562
48601W        W 8137   1.951  44.427  11.882
48602W        W 8138  11.349  34.100   4.195
48603W        W 8139   1.357  25.612  13.903
48604W        W 8140  27.527  35.915  14.345
48605W        W 8141  43.899  29.952   1.813
48606W        W 8142  36.953  30.041  12.039
48607W        W 8143  10.253  41.857   1.727
48608W        W 8144  35.920  30.575   3.723
48609W        W 8145  34.587   6.903  11.978
48610W        W 8146  33.049  32.572  13.988
48611W        W 8147  15.616  19.678  11.542
48612W        W 8148  10.203   2.257  13.877
48613W        W 8149   6.849  23.601  12.842
48614W        W 8150  31.548   8.326  12.491
48615W        W 8151  28.667  41.341  10.909
48616W        W 8152  13.606  31.077  14.461
48617W        W 8153  31.515   2.809   0.776
48618W        W 8154  40.454  33.011   0.893
48619W        W 8155  36.073  36.350  10.948
48620W        W 8156   6.246  12.189  10.959
48621W        W 8157  34.543  34.017   2.863
48622W        W 8158  38.964  18.057   0.339
48623W        W 8159  43.401  34.967   0.808
48624W        W 8160  13.810  28.145   4.246
48625W        W 8161   7.183  21.580  10.552
48626W        W 8162  15.162   5.372   4.290
48627W        W 8163  24.108  31.128   0.334
48628W        W 8164  38.944  38.006  14.333
48629W        W 8165  27.945  35.982   5.130
48630W        W 8166   4.419  34.379  12.494
48631W        W 8167  13.284  11.330  14.424
48632W        W 8168  20.257  14.165   1.292
48633W        W 8169  20.700  33.613   0.362
48634W        W 8170  19.658   9.794   3.747
48635W        W 8171  25.071  18.055   2.301
48636W        W 8172  14.199  39.510  14.476
48637W        W 8173  40.518   1.928   4.329
48638W        W 8174  43.806  31.992   0.463
48639W        W 8175  19.741   8.829  14.914
48640W        W 8176   5.816  41.839   3.843
48641W        W 8177  16.668  15.769   1.827
48642W        W 8178  13.124  43.441  14.993
48643W        W 8179  31.462   0.389   4.277
48644W        W 8180   3.806  15.777   3.201
48645W        W 8181  29.617  24.159  10.578
48646W        W 8182   1.881  10.864  10.551
48647W        W 8183   3.891  15.802  14.312
48648W        W 8184  36.996   0.948   1.804
48649W        W 8185  32.956  40.911   2.730
48650W        W 8186  16.194  35.046  10.633
48651W        W 8187   6.201  15.177   2.327
48652W        W 8188  25.554  36.939  13.396
48653W        W 8189  37.346  10.820   0.779
48654W        W 8190  20.135  21.728   3.716
48655W        W 8191   6.307  29.116   2.733
48656W        W 8192   5.307  24.000   9.627
48657W        W 8193  39.546  40.024  10.934
48658W        W 8194  30.124  17.260  12.888
48659W        W 8195   6.878  44.804   4.289
48660W        W 8196  25.478  24.111   0.451
48661W        W 8197  20.761  28.936  10.920
48662W        W 8198  18.555  10.286  11.862
48663W        W 8199  33.476  26.662   9.564
48664W        W 8200  14.185  29.168  13.003
48665W        W 8201  26.102   6.280   2.728
48666W        W 8202  21.201   0.269   1.357
48667W        W 8203  28.599  31.009  13.899
48668W        W 8204  20.609  41.845  13.843
48669W        W 8205  11.214  11.654   1.341
48670W        W 8206  18.604  21.665   3.749
48671W        W 8207  11.256  42.394  14.906
48672W        W 8208  24.053  19.627   1.779
48673W        W 8209   8.313   0.940   2.789
48674W        W 8210  12.204  36.428  14.001
48675W        W 8211  33.874  16.214  13.931
48676W        W 8212  20.555  21.165  11.947
48677W        W 8213  28.611  17.679  11.022
48678W        W 8214  12.834  10.866   5.660
48679W        W 8215  41.514  23.571  10.949
48680W        W 8216  24.154  27.468  14.401
48681W        W 8217  36.094   4.840   0.762
48682W        W 8218  13.664  34.989  13.004
48683W        W 8219   5.381  37.450  10.896
48684W        W 8220  18.632  35.488   4.730
48685W        W 8221   3.956   9.687  13.510
48686W        W 8222  44.820  21.616  14.433
48687W        W 8223   9.820  26.599   3.386
48688W        W 8224  42.832  17.291   0.329
48689W        W 8225  33.544  17.697   3.216
48690W        W 8226  43.848   4.411   0.412
48691W        W 8227   7.228   5.807   4.213
48692W        W 8228  27.565  40.944  14.968
48693W        W 8229  37.838   0.273  13.815
48694W        W 8230  38.834  13.824  11.564
48695W        W 8231  19.285  41.835   1.841
48696W        W 8232  22.552  24.663  13.514
48697W        W 8233  38.549  40.831  13.960
48698W        W 8234   5.270  15.592  10.031
48699W        W 8235  12.238  14.109   1.816
48700W        W 8236  18.681   4.328  14.839
48701W        W 8237   0.400  14.234  14.009
48702W        W 8238  41.007   7.673  14.029
48703W        W 8239  21.258  23.988   3.155
48704W        W 8240  24.641  32.545   4.792
48705W        W 8241  15.239   4.759   1.451
48706W        W 8242  11.779  43.987   1.876
48707W        W 8243  12.323  28.619  14.326
48708W        W 8244  19.683  39.957  14.464
48709W        W 8245   5.713  40.974  12.010
48710W        W 8246  25.113  36.550   9.633
48711W        W 8247  21.594  19.753  13.027
48712W        W 8248  25.574  43.844   4.289
48713W        W 8249  12.130  15.720  13.403
48714W        W 8250  21.100  29.008   0.949
48715W        W 8251   6.258  11.797  13.004
48716W        W 8252  11.696  12.641  13.310
48717W        W 8253  37.078  28.024  10.476
48718W        W 8254  21.705  23.131   0.476
48719W        W 8255  21.089  18.655   9.451
48720W        W 8256  29.071  21.641   0.910
48721W        W 8257  22.131   1.469   2.322
48722W        W 8258  24.044  18.562   0.476
48723W        W 8259  41.007   5.745   0.828
48724W        W 8260  37.062   2.836   3.757
48725W        W 8261  10.791  22.011  14.856
48726W        W 8262  22.098  33.405  10.927
48727W        W 8263  23.116  44.421   2.676
48728W        W 8264  39.063  40.932   0.727
48729W        W 8265   8.315  13.242   1.698
48730W        W 8266  23.713  25.981   1.763
48731W        W 8267  15.108   0.388   2.699
48732W        W 8268   2.241  29.956  13.397
48733W        W 8269  27.998   9.718  13.893
48734W        W 8270   0.316  44.979  11.468
48735W        W 8271  28.479  23.503   0.245
48736W        W 8272  22.560   8.763  11.533
48737W        W 8273  27.043  25.122  11.077
48738W        W 8274  36.908  23.728   4.666
48739W        W 8275  23.723   5.272  14.973
48740W        W 8276  22.171   8.207   1.256
48741W        W 8277  20.666  13.839   3.354
48742W        W 8278  10.819  33.924   0.770
48743W        W 8279   7.824  43.969  12.054
48744W        W 8280  26.495  10.362   2.723
48745W        W 8281   9.802  29.475   4.747
48746W        W 8282  32.542   1.465   1.227
48747W        W 8283  25.472   7.247  13.515
48748W        W 8284  38.396   4.446  11.010
48749W        W 8285  37.528  42.353  14.405
48750W        W 8286  38.552  10.328  12.873
48751W        W 8287  36.941  26.665   0.267
48752W        W 8288  29.650  35.475   1.387
48753W        W 8289   8.229  18.228   1.435
48754W        W 8290   6.214  31.109  11.085
48755W        W 8291  31.429  15.243  11.477
48756W        W 8292   0.916  36.500   3.357
48757W        W 8293   1.247  15.698   4.655
48758W        W 8294  12.665   4.745  11.117
48759W        W 8295  14.212  30.422   4.674
48760W        W 8296   7.392  22.099   2.745
48761W        W 8297   6.850  24.490  13.334
48762W        W 8298  10.207  39.039  10.578
48763W        W 8299  25.003  34.575   3.166
48764W        W 8300  31.083  20.736   3.369
48765W        W 8301  22.167  21.623   0.818
48766W        W 8302   5.726   4.784  13.865
48767W        W 8303   6.875  41.924   3.284
48768W        W 8304  21.089  31.581  12.561
48769W        W 8305  12.782   4.212   1.401
48770W        W 8306  39.846   1.397   4.626
48771W        W 8307   4.715  22.630   5.084
48772W        W 8308  27.176  35.050  10.579
48773W        W 8309  31.122   4.808   1.275
48774W        W 8310  28.084  22.592  14.414
48775W        W 8311  12.127  15.192   0.912
48776W        W 8312  41.969  40.541  10.592
48777W        W 8313   6.333   2.895  11.096
48778W        W 8314  18.191  40.966  12.961
48779W        W 8315  36.009  34.420  14.459
48780W        W 8316  23.128   5.388  12.985
48781W        W 8317  37.417  35.880  12.339
48782W        W 8318  30.608  12.669   0.914
48783W        W 8319   9.363  22.695  12.999
48784W        W 8320  14.245   5.763   3.826
48785W        W 8321  25.092  36.046   2.260
48786W        W 8322  28.511  39.930  14.806
48787W        W 8323   2.286   4.843   4.205
48788W        W 8324  35.378  19.733  14.405
48789W        W 8325  26.994  28.467   3.311
48790W        W 8326  28.524   4.729   4.284
48791W        W 8327  22.105  30.048  14.921
48792W        W 8328  42.484  34.566  13.399
48793W        W 8329  18.169  22.057   4.267
48794W        W 8330  40.013   2.243  13.889
48795W        W 8331  37.337   3.842  12.578
48796W        W 8332   7.755  20.706   4.230
48797W        W 8333  41.799   9.704   1.873
48798W        W 8334  21.641  39.912   3.330
48799W        W 8335  44.480   1.968  11.379
48800W        W 8336  26.200  19.767  14.008
48801W        W 8337   4.338  37.855  11.385
48802W        W 8338  33.072   0.351   1.402
48803W        W 8339   3.361  14.617  11.089
48804W        W 8340  37.398  40.968   1.800
48805W        W 8341   7.705  19.585  12.420
48806W        W 8342  23.061  30.627  12.939
48807W        W 8343  36.534  21.127  11.425
48808W        W 8344  20.042  20.659  12.491
48809W        W 8345  20.195  43.329   3.629
48810W        W 8346  42.994   2.302  12.910
48811W        W 8347  22.552  33.487  14.810
48812W        W 8348  14.308   0.950   1.789
48813W        W 8349   5.326   1.269   3.279
48814W        W 8350  41.353   6.387   0.402
48815W        W 8351  41.917  13.727  11.857
48816W        W 8352   7.856  17.664  12.060
48817W        W 8353  44.300  17.675  11.975
48818W        W 8354  34.374  43.015  13.396
48819W        W 8355  12.362  38.403   3.810
48820W        W 8356  31.533   3.903   0.435
48821W        W 8357  21.690  17.172  13.024
48822W        W 8358  41.398  11.670  13.947
48823W        W 8359  24.514   7.884   0.466
48824W        W 8360   3.883  35.071   4.118
48825W        W 8361  28.552  14.313   0.817
48826W        W 8362  43.370  31.022  13.939
48827W        W 8363  44.348  17.580  14.473
48828W        W 8364  36.098  38.924  13.355
48829W        W 8365  10.145  30.418  12.428
48830W        W 8366  24.057   1.732  12.379
48831W        W 8367  21.213   7.902  11.398
48832W        W 8368  18.740  26.145  13.802
48833W        W 8369  19.745  17.641   2.313
48834W        W 8370  23.194  20.715   1.759
48835W        W 8371   2.779   0.842  12.001
48836W        W 8372   2.267  11.668   4.638
48837W        W 8373  11.760   3.279  12.577
48838W        W 8374  22.009  44.267   0.323
48839W        W 8375  24.697  43.899  14.281
48840W        W 8376   0.797  22.513  14.421
48841W        W 8377  37.539  30.555  11.934
48842W        W 8378  12.290  10.811   0.460
48843W        W 8379  34.592  44.314   2.315
48844W        W 8380  24.593  33.125  12.353
48845W        W 8381  19.211  37.942   4.697
48846W        W 8382  12.699  12.147   3.237
48847W        W 8383  19.586   7.824   3.703
48848W        W 8384   6.408  21.538  11.106
48849W        W 8385  14.785  41.416   1.413
48850W        W 8386  41.894   2.298   4.179
48851W        W 8387   3.247  21.203  11.554
48852W        W 8388  25.969   3.272   0.944
48853W        W 8389   4.387  11.185   0.276
48854W        W 8390  16.667  15.288  14.969
48855W        W 8391  34.909  33.029   2.707
48856W        W 8392  23.985  10.727  10.515
48857W        W 8393  22.013  42.413  12.896
48858W        W 8394  28.110   9.664  13.532
48859W        W 8395  36.894  14.135  11.605
48860W        W 8396  40.961  19.137  12.982
48861W        W 8397  28.445  36.961   4.165
48862W        W 8398  42.833   1.272   4.810
48863W        W 8399  35.059  33.411  13.888
48864W        W 8400  13.258  20.191   4.135
48865W        W 8401  31.408  43.942   3.846
48866W        W 8402  34.370  29.521  11.114
48867W        W 8403  18.787  20.040   0.757
48868W        W 8404   5.380  22.131  13.331
48869W        W 8405  40.339  19.258  11.942
48870W        W 8406  31.082  36.377   4.647
48871W        W 8407   6.849  24.138  14.774
48872W        W 8408  25.532  37.019   0.395
48873W        W 8409  17.669  36.939   0.379
48874W        W 8410   8.766  10.191  13.834
48875W        W 8411  29.121  37.450   4.775
48876W        W 8412  17.569  12.685  11.547
48877W        W 8413   7.262   9.338  12.579
48878W        W 8414   2.242   3.238  10.525
48879W        W 8415  20.713  22.111   1.834
48880W        W 8416  18.281  36.421   2.709
48881W        W 8417  24.119   3.440  13.921
48882W        W 8418  17.559   0.468   1.371
48883W        W 8419  43.863  33.937   1.392
48884W        W 8420  38.521  35.931   4.346
48885W        W 8421  19.638  29.121   1.885
48886W        W 8422  29.098  25.073   9.992
48887W        W 8423  34.987   3.800  14.997
48888W        W 8424  36.443  18.768   4.230
48889W        W 8425  15.690  12.855  13.325
48890W        W 8426  18.680  13.782   2.664
48891W        W 8427  10.681  27.064  14.784
48892W        W 8428  34.893  19.148   1.414
48893W        W 8429  34.554  35.049  10.635
48894W        W 8430  37.497  35.513  14.963
48895W        W 8431  27.512   2.472   4.213
48896W        W 8432   9.291   6.187   2.767
48897W        W 8433  19.280  16.099   3.856
48898W        W 8434   9.224  29.524   3.164
48899W        W 8435  25.063   0.946   0.249
48900W        W 8436  22.582   8.840  12.503
48901W        W 8437   8.364  27.164  14.451
48902W        W 8438   8.254   0.876  11.112
48903W        W 8439  34.045  21.645   2.332
48904W        W 8440  30.414  14.753   2.337
48905W        W 8441  12.151  18.193   0.282
48906W        W 8442  38.928  20.552  13.043
48907W        W 8443  24.985  44.491  13.910
48908W        W 8444  39.359   2.280  14.312
48909W        W 8445   7.417  14.750   0.268
48910W        W 8446  40.035   9.678  11.444
48911W        W 8447   9.355  37.346   4.677
48912W        W 8448   6.766   2.323   4.198
48913W        W 8449  38.411  29.930   1.868
48914W        W 8450  19.683  15.150  14.783
48915W        W 8451  12.624  34.867   0.392
48916W        W 8452  38.445  32.136  14.455
48917W        W 8453  21.212   2.850   2.417
48918W        W 8454  19.109  32.485   2.864
48919W        W 8455   7.178  19.180  13.537
48920W        W 8456   1.425  20.713  11.440
48921W        W 8457  28.512   0.257  13.458
48922W        W 8458   6.839   3.843   0.866
48923W        W 8459  29.511  44.360   4.250
48924W        W 8460  36.560   7.348   9.922
48925W        W 8461   7.879   6.710   4.279
48926W        W 8462   7.746  41.341  10.952
48927W        W 8463   0.751  16.244  14.379
48928W        W 8464  28.673  41.786   0.810
48929W        W 8465   1.355   3.394   2.401
48930W        W 8466  28.532  14.330   5.280
48931W        W 8467  15.708  23.086   4.253
48932W        W 8468  12.294  29.156   2.778
48933W        W 8469  11.854   7.702   3.769
48934W        W 8470  16.702  44.921   3.637
48935W        W 8471  25.584  42.015   4.310
48936W        W 8472  12.651  31.515   1.919
48937W        W 8473  44.771  28.005   2.404
48938W        W 8474  39.362  14.161  13.881
48939W        W 8475  44.908  24.544   2.289
48940W        W 8476  13.641  33.939   0.749
48941W        W 8477  14.646  32.437  12.994
48942W        W 8478  36.059   4.355   2.341
48943W        W 8479   8.731  41.464  12.901
48944W        W 8480  38.444  19.148  14.482
48945W        W 8481   8.797   6.776   1.297
48946W        W 8482   3.432  13.161  12.346
48947W        W 8483  16.160  36.015  10.497
48948W        W 8484  38.470  16.094  10.445
48949W        W 8485  38.932  36.509  14.956
48950W        W 8486  33.550  43.353  10.068
48951W        W 8487  43.019  23.137  12.841
48952W        W 8488  16.669   7.312   4.207
48953W        W 8489   6.779  34.458   0.285
48954W        W 8490  35.092  15.777   0.430
48955W        W 8491   5.697   4.399   2.371
48956W        W 8492  24.069  21.068  14.383
48957W        W 8493   4.321   5.917  14.873
48958W        W 8494  24.482  11.742  10.527
48959W        W 8495  40.859  19.103   3.836
48960W        W 8496   8.773   5.909   1.706
48961W        W 8497  44.861  35.073   3.243
48962W        W 8498  42.803  40.878   0.440
48963W        W 8499   3.425   3.834   4.130
48964W        W 8500  35.387   9.879   2.343
48965W        W 8501  18.214  14.166  12.987
48966W        W 8502   2.926  43.867  14.419
48967W        W 8503  43.923  10.734   1.226
48968W        W 8504   2.284  21.149   3.793
48969W        W 8505  24.063   6.229   5.650
48970W        W 8506  31.948  19.077   4.146
48971W        W 8507  19.604  17.178  13.353
48972W        W 8508   9.861  19.042   1.868
48973W        W 8509  22.185  21.665   9.660
48974W        W 8510  41.019  34.082   0.331
48975W        W 8511  27.102  31.510   0.432
48976W        W 8512  14.691  10.252   2.411
48977W        W 8513  41.470  17.138  12.027
48978W        W 8514  20.054  10.293  13.043
48979W        W 8515  15.168   9.285  14.458
48980W        W 8516  28.500  26.957  10.563
48981W        W 8517  29.033  11.255  14.431
48982W        W 8518  21.529   6.714   4.140
48983W        W 8519   8.258   8.284  13.506
48984W        W 8520  30.029  28.157   2.378
48985W        W 8521  27.044  17.748  14.970
48986W        W 8522  14.172  23.112  13.493
48987W        W 8523   1.826  25.023   2.662
48988W        W 8524  39.935   6.849  11.002
48989W        W 8525   4.730  39.979  13.911
48990W        W 8526  29.425  41.442  13.504
48991W        W 8527   6.426  28.982  10.542
48992W        W 8528  36.415  42.911  11.409
48993W        W 8529  23.718  21.741  13.858
48994W        W 8530   8.186  14.683   2.903
48995W        W 8531  35.062  35.941   2.195
48996W        W 8532  15.777  18.608  11.556
48997W        W 8533  36.382   3.709   9.561
48998W        W 8534  21.072   2.364   2.749
48999W        W 8535   4.763  44.782  10.994
49000W        W 8536   2.293  18.107   4.822
49001W        W 8537  31.645   8.752  11.067
49002W        W 8538   9.222  11.212  13.376
49003W        W 8539   2.395  33.571  10.435
49004W        W 8540  39.818  29.994  14.421
49005W        W 8541  29.481   7.828   3.800
49006W        W 8542  37.960  30.466   2.391
49007W        W 8543  32.490  32.072  11.551
49008W        W 8544  13.279   7.243   3.650
49009W        W 8545  28.985   3.933  14.855
49010W        W 8546  29.662  42.953  11.584
49011W        W 8547   5.293  42.966  14.807
49012W        W 8548  11.843  14.203   1.394
49013W        W 8549  35.382   6.321  12.070
49014W        W 8550  25.576  24.146  11.609
49015W        W 8551  31.606   2.892  14.990
49016W        W 8552  41.855  39.001  12.349
49017W        W 8553  12.842  14.111   0.945
49018W        W 8554  35.528   2.254  12.045
49019W        W 8555  42.504  26.173   4.243
49020W        W 8556  33.495  21.264   5.210
49021W        W 8557  26.531  18.070   2.667
49022W        W 8558  16.671   0.886  12.473
49023W        W 8559  15.312  14.183  13.991
49024W        W 8560  33.952   0.908  11.114
49025W        W 8561  44.338  18.238  12.028
49026W        W 8562  10.374  24.668  11.903
49027W        W 8563  41.035  39.009   2.297
49028W        W 8564  31.516   9.749   2.258
49029W        W 8565  14.230   0.427   1.856
49030W        W 8566  12.680  28.135   2.200
49031W        W 8567   9.728  37.474   0.834
49032W        W 8568  15.271  26.185  13.474
49033W        W 8569   7.673  33.436  14.920
49034W        W 8570  42.338  43.467  12.554
49035W        W 8571  31.932  25.182   0.428
49036W        W 8572  15.784  38.919  12.059
49037W        W 8573  37.076   3.427   3.809
49038W        W 8574   6.334  44.871   1.245
49039W        W 8575  36.056  30.419  14.344
49040W        W 8576  17.096  34.462  13.909
49041W        W 8577  10.173  35.882  11.106
49042W        W 8578  32.940   1.888   3.277
49043W        W 8579  43.441  18.219  14.986
49044W        W 8580  30.038   9.668  11.873
49045W        W 8581  24.058  35.074   1.436
49046W        W 8582   3.381  17.291  12.397
49047W        W 8583  11.350  29.549  14.018
49048W        W 8584  31.147  19.722  13.364
49049W        W 8585   5.206  36.408   3.753
49050W        W 8586   1.959  24.135   3.181
49051W        W 8587  11.286  31.983   0.374
49052W        W 8588  33.427   2.317   0.808
49053W        W 8589   6.234  29.016   3.852
49054W        W 8590  27.560   8.688   2.326
49055W        W 8591  35.551  14.174   0.918
49056W        W 8592  26.654  31.626   4.712
49057W        W 8593  18.669  34.957  11.572
49058W        W 8594  43.969  35.930   1.406
49059W        W 8595   2.751  40.819  13.967
49060W        W 8596  42.339  30.641  14.900
49061W        W 8597   3.769   4.792  11.473
49062W        W 8598  39.464  39.960   2.695
49063W        W 8599   0.455   4.376  13.418
49064W        W 8600  29.176   3.923   4.620
49065W        W 8601  30.584  20.591   1.721
49066W        W 8602  17.788  34.083   1.814
49067W        W 8603  43.897  30.135   3.720
49068W        W 8604  40.044  38.524  13.357
49069W        W 8605  28.089   1.412  14.900
49070W        W 8606  37.915  33.123  12.408
49071W        W 8607  40.372  10.338  13.436
49072W        W 8608  20.221  23.150  12.522
49073W        W 8609  29.930  30.563   0.877
49074W        W 8610  30.059  38.972   1.312
49075W        W 8611  30.998  40.325   4.677
49076W        W 8612  14.705   5.297   1.793
49077W        W 8613  34.976  18.567   0.807
49078W        W 8614  36.998  13.686  12.932
49079W        W 8615  14.781  38.543  10.421
49080W        W 8616   9.853   3.359  10.955
49081W        W 8617  25.198  22.118   2.852
49082W        W 8618  13.827  24.715  12.474
49083W        W 8619  14.162  34.910   4.144
49084W        W 8620  26.599  27.677  12.478
49085W        W 8621  24.621  24.608   3.351
49086W        W 8622  34.090  17.208  11.918
49087W        W 8623  27.163  26.178   4.290
49088W        W 8624  39.420  24.684   4.186
49089W        W 8625  13.152  36.572   1.365
49090W        W 8626  18.569  23.494  11.887
49091W        W 8627  15.300  44.009  14.907
49092W        W 8628   2.840   1.314   4.814
49093W        W 8629  41.020   8.781   0.442
49094W        W 8630  43.900  38.531   3.662
49095W        W 8631  40.926  40.381   1.914
49096W        W 8632  22.150  33.409   5.160
49097W        W 8633  38.885  42.518   3.686
49098W        W 8634   2.430  21.181   2.894
49099W        W 8635  26.541  20.171  14.806
49100W        W 8636  18.590   3.317   3.703
49101W        W 8637  35.923  33.413  13.427
49102W        W 8638  26.648  15.705  10.931
49103W        W 8639  32.960  26.073  14.023
49104W        W 8640   6.835   6.751  11.074
49105W        W 8641  43.981  26.578  14.432
49106W        W 8642  10.774  27.135   0.464
49107W        W 8643  42.862  39.536  11.928
49108W        W 8644  41.845  31.934  12.368
49109W        W 8645  32.964  21.200  12.577
49110W        W 8646  17.644  43.901  12.562
49111W        W 8647  39.950  24.221  11.863
49112W        W 8648  18.694  33.462  14.496
49113W        W 8649  42.377  16.694   0.733
49114W        W 8650  39.859  37.451   0.284
49115W        W 8651  10.156  40.047  11.018
49116W        W 8652  26.011  39.441  12.507
49117W        W 8653  35.468  12.764   0.311
49118W        W 8654  43.005   5.862  10.091
49119W        W 8655  26.139  34.477  12.386
49120W        W 8656  42.017  18.683   1.700
49121W        W 8657  33.909   2.911   4.695
49122W        W 8658  17.680  12.245  10.901
49123W        W 8659  41.398   1.365  11.422
49124W        W 8660   8.376  23.669  11.077
49125W        W 8661  35.911  41.318  13.802
49126W        W 8662   2.792   8.177   2.386
49127W        W 8663   3.250  33.562   4.317
49128W        W 8664  13.765  12.289   4.174
49129W        W 8665   3.816  31.404   2.339
49130W        W 8666  20.119  26.483  12.868
49131W        W 8667  24.059  17.675   2.860
49132W        W 8668   3.307  12.176   4.661
49133W        W 8669   8.890   7.883  14.492
49134W        W 8670   4.251  26.468  13.315
49135W        W 8671  11.763  44.327  11.504
49136W        W 8672  13.232  41.013   2.323
49137W        W 8673  29.543  33.977   1.818
49138W        W 8674  29.960  19.770  14.791
49139W        W 8675  20.709  40.363   3.228
49140W        W 8676  24.993   7.706  11.892
49141W        W 8677  20.708  33.923   3.260
49142W        W 8678  29.653  43.841   4.739
49143W        W 8679   7.667  42.434  14.398
49144W        W 8680   3.349  18.247  13.055
49145W        W 8681  43.849   8.777   0.249
49146W        W 8682  23.216  28.641   1.863
49147W        W 8683  40.869   2.779   5.129
49148W        W 8684  20.619  20.143   4.627
49149W        W 8685  14.784  24.488   2.255
49150W        W 8686  11.190  39.999   2.186
49151W        W 8687   6.323  22.146   4.132
49152W        W 8688  34.052  29.584  12.028
49153W        W 8689  17.214  13.785  14.324
49154W        W 8690  36.928   2.363   1.882
49155W        W 8691  30.565  44.794  11.577
49156W        W 8692  14.267  23.566  14.018
49157W        W 8693  10.748  20.582   4.719
49158W        W 8694  33.953  15.266  11.500
49159W        W 8695  44.000  16.575  14.386
49160W        W 8696  39.351   6.697   2.797
49161W        W 8697   2.243  18.670  11.104
49162W        W 8698  23.617  15.117   0.764
49163W        W 8699  21.116  42.837  13.827
49164W        W 8700   4.280   1.896   2.367
49165W        W 8701  23.092   9.720   0.933
49166W        W 8702  25.000  44.295  14.406
49167W        W 8703  19.599  28.964   4.263
49168W        W 8704   9.863  34.514   0.879
49169W        W 8705  27.106  16.078   3.817
49170W        W 8706  31.134  38.958  10.421
49171W        W 8707  18.277  32.500  11.884
49172W        W 8708  24.502  29.026   4.113
49173W        W 8709  31.643  24.140  13.820
49174W        W 8710  35.008  30.958  11.002
49175W        W 8711  31.486  24.651   3.337
49176W        W 8712  22.619  15.121   4.781
49177W        W 8713   4.274  35.528   3.797
49178W        W 8714  36.537  17.162   3.238
49179W        W 8715  16.077   2.767  11.060
49180W        W 8716  39.855  39.970  14.990
49181W        W 8717  22.192  44.409   2.222
49182W        W 8718  18.123   6.347   1.217
49183W        W 8719  44.968  19.574  11.527
49184W        W 8720  35.910  44.909  11.465
49185W        W 8721  38.855  44.402  12.530
49186W        W 8722  30.566  39.426   1.884
49187W        W 8723  17.659  36.553   1.433
49188W        W 8724   6.819  16.697   1.230
49189W        W 8725  23.054  33.123  10.645
49190W        W 8726  30.555  11.771  11.926
49191W        W 8727  20.201  31.485  14.947
49192W        W 8728   2.788  16.653  14.329
49193W        W 8729  29.667  21.603   0.815
49194W        W 8730  28.553  25.591   4.618
49195W        W 8731  14.141  14.650  11.034
49196W        W 8732  12.810   3.751  14.477
49197W        W 8733  41.021  43.771  13.398
49198W        W 8734   6.212  32.465   4.725
49199W        W 8735  32.561  26.680   0.851
49200W        W 8736  41.811   0.919   1.407
49201W        W 8737  37.851  41.802   4.148
49202W        W 8738  24.596  14.593  13.797
49203W        W 8739  26.695  39.548   2.780
49204W        W 8740  30.513  34.987  14.031
49205W        W 8741  34.417  11.711  11.433
49206W        W 8742   1.800  44.790   2.265
49207W        W 8743  40.391  19.256  13.404
49208W        W 8744  37.454  34.993   2.754
49209W        W 8745   0.490  25.971  14.382
49210W        W 8746  22.690   8.779  11.011
49211W        W 8747   7.856  34.437  13.307
49212W        W 8748  27.653  22.121   1.757
49213W        W 8749  40.046  34.591   2.846
49214W        W 8750  16.803  17.653  13.992
49215W        W 8751  20.072  18.704  14.804
49216W        W 8752  43.952  32.050   0.883
49217W        W 8753  32.598  24.584   3.708
49218W        W 8754  34.478  29.654   4.327
49219W        W 8755  37.411   1.948   0.305
49220W        W 8756  19.597  37.407  11.923
49221W        W 8757   7.417  17.146   4.699
49222W        W 8758  27.059  20.233   4.115
49223W        W 8759  29.494  43.471  14.452
49224W        W 8760  20.040  30.474  13.387
49225W        W 8761  43.436  26.612   3.276
49226W        W 8762   5.901  23.009   4.761
49227W        W 8763  40.396  17.185  10.617
49228W        W 8764  10.355  21.236   0.830
49229W        W 8765   1.893   0.848  11.402
49230W        W 8766  42.798  16.314  11.017
49231W        W 8767  16.777  20.651   1.853
49232W        W 8768   0.894   0.266  14.985
49233W        W 8769  25.668  21.577  12.482
49234W        W 8770  43.498  27.130   4.243
49235W        W 8771  28.159  44.867   2.180
49236W        W 8772  24.494  38.063  11.610
49237W        W 8773  37.882  11.635   3.338
49238W        W 8774  40.999  25.481  13.003
49239W        W 8775  42.460  14.693  12.381
49240W        W 8776  21.548  11.633  11.567
49241W        W 8777  41.364   4.289  13.969
49242W        W 8778  41.533   2.262  14.297
49243W        W 8779   3.847   1.953   1.313
49244W        W 8780   7.755  33.601   4.185
49245W        W 8781  20.242  36.903  10.943
49246W        W 8782  37.054  20.240  13.935
49247W        W 8783  44.275  41.837  11.442
49248W        W 8784  30.561   1.920   0.921
49249W        W 8785  36.513  16.691  12.937
49250W        W 8786  32.013   9.272   3.841
49251W        W 8787  34.558   8.180  12.496
49252W        W 8788  21.547  26.615  10.642
49253W        W 8789   6.275  37.079   1.369
49254W        W 8790  33.473  20.570  14.786
49255W        W 8791  31.628  29.173   1.451
49256W        W 8792   3.946  21.117  11.019
49257W        W 8793  37.071  17.784   3.670
49258W        W 8794  13.599  24.223   0.783
49259W        W 8795  29.551   4.274  11.584
49260W        W 8796  39.424   2.929  13.519
49261W        W 8797  44.796  37.926   4.126
49262W        W 8798  34.088  18.196  13.955
49263W        W 8799  34.395   9.715  11.040
49264W        W 8800  27.162  35.857  11.574
49265W        W 8801  41.425  13.200   4.720
49266W        W 8802   3.938  43.443   0.747
49267W        W 8803   6.359  23.703  10.028
49268W        W 8804  23.641  18.260   3.197
49269W        W 8805  21.144  30.464   3.181
49270W        W 8806   8.680  41.043   4.671
49271W        W 8807  13.606  39.054   2.700
49272W        W 8808  27.052  25.704   2.806
49273W        W 8809   1.880  32.416  11.564
49274W        W 8810  17.286  22.009  11.051
49275W        W 8811  42.975   7.393  14.414
49276W        W 8812  29.560  33.561   0.914
49277W        W 8813  18.790   4.783   5.219
49278W        W 8814  24.136  36.525  12.416
49279W        W 8815  35.476  13.324   1.258
49280W        W 8816  23.229   6.305   3.723
49281W        W 8817  32.891   5.360   0.401
49282W        W 8818   2.798  42.506  11.939
49283W        W 8819  43.380  37.956  14.802
49284W        W 8820   6.324  12.621   3.256
49285W        W 8821  44.268  21.194   1.405
49286W        W 8822   0.404  41.988  13.805
49287W        W 8823  22.174  22.533  14.454
49288W        W 8824   7.730  10.338  10.936
49289W        W 8825  40.525  42.885   0.375
49290W        W 8826  38.516   3.317  13.946
49291W        W 8827  23.081  20.077  12.380
49292W        W 8828  26.697  37.834  14.894
49293W        W 8829  41.928   2.879   0.747
49294W        W 8830  10.198  19.637   2.665
49295W        W 8831  42.483   7.808   1.340
49296W        W 8832  30.982   9.227   0.482
49297W        W 8833  30.558  41.029   2.417
49298W        W 8834  12.780  32.478  12.083
49299W        W 8835  42.996   7.768  13.466
49300W        W 8836   9.165  39.047   3.299
49301W        W 8837  33.045  28.972  12.443
49302W        W 8838   8.298  43.347  14.463
49303W        W 8839  22.173  13.324  13.794
49304W        W 8840  10.312   7.270   0.306
49305W        W 8841   3.763  24.072  13.992
49306W        W 8842   7.875  27.461  11.986
49307W        W 8843  25.167  37.946  13.519
49308W        W 8844   9.270  41.415  13.960
49309W        W 8845  33.971  35.944  11.582
49310W        W 8846  15.806   4.377  13.319
49311W        W 8847  27.573   6.827  13.408
49312W        W 8848  32.520  27.017   2.791
49313W        W 8849  27.645  19.615  12.412
49314W        W 8850  24.181  34.543  11.035
49315W        W 8851  31.964  37.376   2.271
49316W        W 8852  43.509  34.867  14.858
49317W        W 8853  43.306  34.112   2.820
49318W        W 8854  23.075  24.666   0.759
49319W        W 8855  25.113  40.303  12.542
49320W        W 8856   4.368  28.487   4.237
49321W        W 8857  30.979  28.620  13.465
49322W        W 8858   9.336  42.813   2.768
49323W        W 8859  43.287  22.214   1.776
49324W        W 8860  11.734  31.909   2.770
49325W        W 8861   5.745  42.307  12.973
49326W        W 8862  37.034  17.229   0.267
49327W        W 8863   8.748  22.050   4.772
49328W        W 8864  26.028  32.399   2.226
49329W        W 8865  26.648  12.233  11.375
49330W        W 8866   3.935  13.167  14.908
49331W        W 8867  42.787  24.485   4.205
49332W        W 8868  17.643  12.625   1.312
49333W        W 8869   3.320  32.002   1.372
49334W        W 8870  29.147  33.608   2.354
49335W        W 8871  11.257  36.084   4.804
49336W        W 8872  35.526   7.875  13.465
49337W        W 8873  40.907  39.529   3.280
49338W        W 8874  36.882  31.447   0.391
49339W        W 8875  29.084   4.840   1.348
49340W        W 8876  20.647  13.742  12.047
49341W        W 8877  43.958  21.149  13.425
49342W        W 8878  13.652   7.365   5.666
49343W        W 8879   8.793   1.807  13.358
49344W        W 8880  43.314  26.000  14.371
49345W        W 8881  24.560  13.142  13.414
49346W        W 8882  38.017   6.385   3.334
49347W        W 8883  13.126   3.721   2.875
49348W        W 8884   4.362  18.180   0.945
49349W        W 8885   5.363  36.550   0.315
49350W        W 8886   2.808  13.175  11.482
49351W        W 8887   1.315   6.803   4.276
49352W        W 8888  13.715  22.602  11.943
49353W        W 8889   2.297  38.485  12.826
49354W        W 8890   8.248  42.422  13.902
49355W        W 8891  14.129  26.087  11.471
49356W        W 8892  26.461  24.098  13.967
49357W        W 8893  12.280  43.857  11.008
49358W        W 8894  23.666  31.120   3.357
49359W        W 8895  20.063   5.256   2.179
49360W        W 8896  26.090  35.456   1.343
49361W        W 8897  36.482  10.667  11.504
49362W        W 8898  21.212   0.267   2.260
49363W        W 8899  37.549  28.544   4.635
49364W        W 8900  31.050  38.889   1.412
49365W        W 8901  21.221  32.517   3.323
49366W        W 8902  36.397  17.121  10.909
49367W        W 8903  30.034  39.864  13.045
49368W        W 8904  28.938  43.440   1.825
49369W        W 8905  17.291  26.038   4.667
49370W        W 8906  30.067  38.456  11.984
49371W        W 8907  40.358  10.827  14.285
49372W        W 8908  28.441  18.756  13.405
49373W        W 8909  27.661  27.121  14.808
49374W        W 8910  24.654   4.225  12.444
49375W        W 8911  25.623  30.928  14.358
49376W        W 8912   4.944  35.511   5.230
49377W        W 8913  23.630  20.576   2.308
49378W        W 8914  32.991   9.707  12.509
49379W        W 8915  39.958  20.768   2.889
49380W        W 8916  12.212  26.080  10.008
49381W        W 8917   3.845  31.942  10.930
49382W        W 8918   7.183   8.654   2.228
49383W        W 8919  28.124  27.510   2.779
49384W        W 8920  19.648  10.693   0.454
49385W        W 8921  28.498  16.772  10.488
49386W        W 8922  10.761  29.533  13.369
49387W        W 8923   6.263  38.864   5.133
49388W        W 8924  24.495  35.943   2.391
49389W        W 8925  34.375  36.047  11.038
49390W        W 8926  16.631  21.118   1.381
49391W        W 8927  42.798  29.102   2.885
49392W        W 8928  40.991   6.873   2.303
49393W        W 8929  15.603  33.053  11.946
49394W        W 8930  43.276  21.548  12.351
49395W        W 8931  25.650  31.624   3.755
49396W        W 8932  30.514  13.333   4.755
49397W        W 8933  40.483  18.588  11.539
49398W        W 8934  38.031  32.416  11.109
49399W        W 8935   4.714  21.699  10.575
49400W        W 8936  10.810  42.971  11.563
49401W        W 8937  24.061  33.588   1.774
49402W        W 8938  32.436  42.503   0.326
49403W        W 8939  39.964  14.732   2.710
49404W        W 8940   0.283  32.141   1.766
49405W        W 8941   7.372  16.591   3.850
49406W        W 8942  33.970  31.127  14.382
49407W        W 8943  44.303  43.850  13.860
49408W        W 8944  43.934  10.740  11.004
49409W        W 8945  17.272  29.661   5.269
49410W        W 8946  10.325  21.600   0.435
49411W        W 8947   8.378   6.710   0.892
49412W        W 8948  10.265  42.912  14.895
49413W        W 8949  16.225  17.636  11.017
49414W        W 8950   4.272  34.483  11.464
49415W        W 8951  37.869  29.169   2.276
49416W        W 8952  28.969  34.001   2.789
49417W        W 8953  35.439  18.562   4.679
49418W        W 8954  20.133  43.901  14.337
49419W        W 8955   4.309  34.429  14.972
49420W        W 8956   8.726  21.173   2.335
49421W        W 8957  32.952  33.907  14.978
49422W        W 8958  15.625  29.512   5.109
49423W        W 8959  14.825  40.944   4.239
49424W        W 8960  20.752  26.534  13.864
49425W        W 8961  39.527   1.355  14.447
49426W        W 8962   5.806  14.136  10.550
49427W        W 8963  43.301   6.190   1.397
49428W        W 8964  35.412  32.564   3.791
49429W        W 8965  12.743  13.332  12.964
49430W        W 8966  31.006  14.263   3.189
49431W        W 8967  36.535   4.770   2.288
49432W        W 8968  30.985   3.301   4.645
49433W        W 8969  26.163  21.664   3.169
49434W        W 8970   7.171  18.192  10.994
49435W        W 8971   5.410  21.167  11.412
49436W        W 8972  31.973  32.411  11.874
49437W        W 8973  35.913  16.129  14.828
49438W        W 8974  32.554   1.920   3.832
49439W        W 8975  34.900   5.228   3.376
49440W        W 8976  35.478   8.655   0.444
49441W        W 8977  36.371  38.451  13.021
49442W        W 8978  21.127  24.064   2.785
49443W        W 8979  35.887  43.805  14.296
49444W        W 8980  36.864   8.749   4.349
49445W        W 8981  42.413  10.265   4.172
49446W        W 8982  26.047  38.476  11.019
49447W        W 8983  12.723  33.070   4.673
49448W        W 8984  28.445  25.681  13.515
49449W        W 8985  33.026  34.111  14.490
49450W        W 8986  27.150  37.832  10.539
49451W        W 8987   0.779  38.543  13.540
49452W        W 8988  43.772  25.513  13.380
49453W        W 8989  40.819  18.561  14.881
49454W        W 8990  40.479  32.036  10.563
49455W        W 8991   1.340  35.601  14.778
49456W        W 8992  15.314  19.741  10.408
49457W        W 8993  20.270  15.237   0.438
49458W        W 8994  24.995  25.671  12.552
49459W        W 8995  35.477  25.016   2.806
49460W        W 8996  34.096  35.986   3.320
49461W        W 8997  24.711   0.307  12.993
49462W        W 8998  12.726  15.643   0.771
49463W        W 8999  21.093  13.322  12.975
49464W        W 9000  36.936  19.675   4.183
49465W        W 9001  12.144  39.815   2.771
49466W        W 9002  17.738  43.296  14.486
49467W        W 9003  41.938  22.172  14.490
49468W        W 9004  39.446  23.164   1.424
49469W        W 9005  39.928   4.334   1.865
49470W        W 9006  24.720  42.414   0.263
49471W        W 9007   9.865  13.651  12.919
49472W        W 9008  11.689  44.841  14.793
49473W        W 9009  22.096   8.700  14.857
49474W        W 9010  21.742  19.044   3.789
49475W        W 9011  24.096  20.751  13.010
49476W        W 9012  29.624   1.321   1.382
49477W        W 9013  44.898   0.870  13.977
49478W        W 9014   1.777   0.882   1.831
49479W        W 9015   4.911  11.695  11.115
49480W        W 9016   3.877   0.742  14.286
49481W        W 9017  34.982  34.401  10.491
49482W        W 9018   7.903  26.693  14.482
49483W        W 9019   8.252  25.128  14.355
49484W        W 9020  20.751  16.598  11.075
49485W        W 9021  13.690  21.624   4.599
49486W        W 9022  31.591  17.251   0.430
49487W        W 9023  12.182   2.360   0.307
49488W        W 9024   8.267  35.437   1.748
49489W        W 9025  12.687   2.306  14.016
49490W        W 9026   2.752  31.124   2.283
49491W        W 9027  40.326  41.818  10.596
49492W        W 9028  31.899  36.883  11.039
49493W        W 9029  11.837  41.845  12.066
49494W        W 9030   4.896  15.154   9.933
49495W        W 9031  18.769  34.566   4.729
49496W        W 9032  16.624  13.691   3.201
49497W        W 9033   3.246  12.805   0.420
49498W        W 9034  15.598  12.698  12.079
49499W        W 9035  20.270  28.101   4.624
49500W        W 9036  42.817  35.989  10.417
49501W        W 9037  40.976  28.525  10.570
49502W        W 9038  11.226  26.475  11.419
49503W        W 9039  43.921  28.068   0.821
49504W        W 9040  38.927  42.283   4.726
49505W        W 9041   3.338  20.224  13.925
49506W        W 9042   4.422   7.241   3.282
49507W        W 9043  27.080   1.737   4.799
49508W        W 9044  37.383  42.858  14.921
49509W        W 9045  11.265  38.074  14.848
49510W        W 9046  22.713  34.564  14.885
49511W        W 9047  28.586  34.896  11.932
49512W        W 9048  31.927  36.073  12.478
49513W        W 9049  38.033  11.821  12.839
49514W        W 9050  24.071  13.627  12.365
49515W        W 9051  10.367  38.004  11.021
49516W        W 9052  14.715  41.030  13.822
49517W        W 9053  37.910  43.877  10.915
49518W        W 9054  44.924   6.361   3.684
49519W        W 9055  40.855   2.891  11.591
49520W        W 9056  33.483  22.182   0.909
49521W        W 9057  42.967  11.369   1.817
49522W        W 9058   7.841   4.750  10.982
49523W        W 9059  17.243  39.435  13.319
49524W        W 9060   5.871  16.686   4.624
49525W        W 9061  16.736  12.762  11.104
49526W        W 9062  11.651   6.213   4.776
49527W        W 9063  44.814  14.167  11.385
49528W        W 9064  31.586  31.580   1.861
49529W        W 9065  36.393  42.455   1.721
49530W        W 9066  43.021  31.607   0.346
49531W        W 9067  15.630  24.603   3.210
49532W        W 9068  25.045  13.647  12.084
49533W        W 9069  44.480  27.977  14.407
49534W        W 9070  15.706  35.402   1.377
49535W        W 9071  41.931  29.653   3.869
49536W        W 9072  40.005   3.901   3.253
49537W        W 9073  40.422  34.022  11.372
49538W        W 9074   7.403  41.865  12.366
49539W        W 9075  28.134  39.339   4.781
49540W        W 9076   1.937   6.393   4.683
49541W        W 9077  21.163   3.916   1.280
49542W        W 9078  34.576  32.467   0.881
49543W        W 9079  39.482  28.168  13.922
49544W        W 9080  41.947  31.513  14.814
49545W        W 9081  15.688  17.601   0.818
49546W        W 9082  11.307  33.962   3.789
49547W        W 9083   5.262  12.843   4.741
49548W        W 9084  27.456   7.685  11.974
49549W        W 9085  16.122   4.868  13.851
49550W        W 9086  30.924  35.083   4.153
49551W        W 9087  36.003  44.393  14.473
49552W        W 9088  44.839  38.046  12.072
49553W        W 9089  17.261  33.105   0.366
49554W        W 9090  37.346  29.163  12.951
49555W        W 9091   3.386  13.330  11.504
49556W        W 9092   3.745  28.972   2.869
49557W        W 9093  40.411   0.440   0.815
49558W        W 9094  25.646   5.691  10.499
49559W        W 9095  30.576  35.576  13.834
49560W        W 9096  43.788  42.414  13.485
49561W        W 9097   5.245  34.578  14.469
49562W        W 9098  41.509   7.338  14.955
49563W        W 9099  29.050   5.390  11.012
49564W        W 9100  25.573  16.313  11.992
49565W        W 9101  19.718  12.249   1.878
49566W        W 9102  41.953  44.976   2.273
49567W        W 9103  28.461  22.597  12.053
49568W        W 9104  24.111  34.456   4.803
49569W        W 9105  33.619  41.031   0.293
49570W        W 9106  25.560   8.711  12.564
49571W        W 9107  40.542  18.100   5.256
49572W        W 9108  34.925  32.110   2.816
49573W        W 9109  24.213   4.426   0.788
49574W        W 9110   0.490   9.763  14.352
49575W        W 9111  30.959  35.009   3.799
49576W        W 9112  35.036  38.823  10.061
49577W        W 9113  15.817  29.585   2.192
49578W        W 9114  30.916  35.085  14.880
49579W        W 9115  11.369  15.676  12.536
49580W        W 9116  27.162  11.705  13.022
49581W        W 9117  22.216  14.644   2.705
49582W        W 9118  42.955  36.009   4.647
49583W        W 9119  40.880   6.791   3.863
49584W        W 9120  39.556  33.557   4.235
49585W        W 9121   8.217  14.752   0.394
49586W        W 9122  31.933  17.199  13.538
49587W        W 9123  25.499  29.564   0.816
49588W        W 9124  10.345   1.356  13.818
49589W        W 9125  14.727  23.615   3.711
49590W        W 9126  15.118  27.033  10.586
49591W        W 9127   1.813   2.451   1.896
49592W        W 9128   3.925   7.270  11.932
49593W        W 9129  20.599  33.584   4.150
49594W        W 9130   1.764  36.397  13.980
49595W        W 9131  44.761  27.985   0.414
49596W        W 9132  21.201  32.615  10.915
49597W        W 9133  36.959  38.334  12.415
49598W        W 9134  26.668  36.593  11.949
49599W        W 9135   4.762   6.903  10.967
49600W        W 9136   5.833   6.184   4.655
49601W        W 9137  20.647  13.334  13.355
49602W        W 9138  44.301  14.271   5.282
49603W        W 9139  17.275  38.368   3.740
49604W        W 9140  29.014   5.829   3.800
49605W        W 9141  30.591   5.924  12.871
49606W        W 9142  38.496  22.675  10.945
49607W        W 9143  22.117  19.248   1.701
49608W        W 9144  17.307   3.427  10.532
49609W        W 9145   1.901  43.368  13.464
49610W        W 9146  42.016  36.558   4.722
49611W        W 9147  12.127  17.207  12.352
49612W        W 9148  11.279  36.426  12.565
49613W        W 9149  11.738   8.290  11.901
49614W        W 9150  39.867  44.317   0.959
49615W        W 9151   4.221  24.024   1.832
49616W        W 9152  29.492  35.361   1.932
49617W        W 9153  41.954  18.762   2.250
49618W        W 9154  42.525  35.366   0.254
49619W        W 9155  31.115  31.491  12.952
49620W        W 9156  43.899   8.331   3.305
49621W        W 9157   1.807  19.201  11.086
49622W        W 9158  17.133  22.509  13.330
49623W        W 9159   8.713  16.730  10.425
49624W        W 9160   7.409  31.592   0.874
49625W        W 9161  33.489  38.448   2.763
49626W        W 9162  30.444  37.049  14.800
49627W        W 9163  43.389  12.643   2.392
49628W        W 9164  40.488  26.512  13.867
49629W        W 9165  13.117  31.110  10.418
49630W        W 9166  26.134  21.594  12.094
49631W        W 9167  37.837   6.909  12.858
49632W        W 9168  13.221  39.344   3.155
49633W        W 9169  15.093  42.472   0.903
49634W        W 9170  25.491  12.318   3.714
49635W        W 9171  31.483  16.206  12.085
49636W        W 9172  43.858  31.410  11.405
49637W        W 9173  41.810  43.844   2.887
49638W        W 9174  29.118  38.877  13.874
49639W        W 9175  34.999  24.158  10.893
49640W        W 9176  44.843  30.596  12.993
49641W        W 9177   7.391  27.967  13.023
49642W        W 9178   6.697   4.316   3.848
49643W        W 9179   2.397  10.252  12.922
49644W        W 9180  14.766  23.017   1.345
49645W        W 9181  30.560   4.224  13.964
49646W        W 9182  33.985   5.431   2.664
49647W        W 9183  16.767  34.025  14.797
49648W        W 9184  26.025   8.175  14.287
49649W        W 9185  19.257  28.004   4.309
49650W        W 9186  29.457   5.844   2.345
49651W        W 9187   5.871  33.030   4.661
49652W        W 9188  25.529  11.754   3.864
49653W        W 9189  40.970  27.447   4.788
49654W        W 9190  28.515  25.048  12.004
49655W        W 9191  28.124  11.361   2.392
49656W        W 9192  38.441   1.411  13.336
49657W        W 9193  37.947  35.984   3.191
49658W        W 9194  20.728  26.492  11.391
49659W        W 9195  37.062   6.291   4.114
49660W        W 9196  30.050  13.711  12.825
49661W        W 9197  37.513  34.913   4.683
49662W        W 9198  24.005   8.283  10.593
49663W        W 9199  16.194  24.674   2.763
49664W        W 9200   6.856  37.506  14.803
49665W        W 9201  44.297   2.841  10.487
49666W        W 9202  25.586   7.192  12.019
49667W        W 9203   6.272  24.544  14.495
49668W        W 9204  13.776  32.051  13.940
49669W        W 9205  37.903  17.664  10.501
49670W        W 9206   3.276   2.252   2.693
49671W        W 9207  29.138  31.902  11.511
49672W        W 9208  33.965   9.352  14.995
49673W        W 9209  31.019  21.055   2.795
49674W        W 9210  42.792  32.537   0.383
49675W        W 9211  16.631  16.704  14.892
49676W        W 9212   6.879   6.343  11.074
49677W        W 9213  34.941  29.596  12.420
49678W        W 9214   4.856  43.415  12.076
49679W        W 9215  12.855  16.099  14.361
49680W        W 9216  32.092  36.055   0.878
49681W        W 9217  40.440   1.938  12.525
49682W        W 9218  38.958  18.148  10.935
49683W        W 9219  39.412  42.906  13.865
49684W        W 9220  42.998  14.605   2.191
49685W        W 9221   8.167  38.434  12.365
49686W        W 9222  41.922  13.271   1.814
49687W        W 9223  29.503  39.480   4.292
49688W        W 9224  40.869   2.327  14.848
49689W        W 9225  16.123  28.983   1.248
49690W        W 9226  17.092  20.167   3.328
49691W        W 9227  43.010   2.814  10.479
49692W        W 9228  41.026  25.010  10.892
49693W        W 9229  17.248   1.257   4.327
49694W        W 9230  28.060   2.460   1.278
49695W        W 9231  37.934   8.402  14.300
49696W        W 9232  10.694  27.636  12.421
49697W        W 9233  31.511  30.947  11.453
49698W        W 9234  19.042  20.632  13.042
49699W        W 9235   7.740  35.545   2.195
49700W        W 9236  30.014   1.294  14.453
49701W        W 9237  34.047  41.389  12.360
49702W        W 9238  36.452   9.284   4.721
49703W        W 9239  10.795  29.562  12.877
49704W        W 9240  16.718  11.299  10.484
49705W        W 9241  18.786   7.755  12.542
49706W        W 9242  27.195  17.624   2.181
49707W        W 9243  11.324   3.906   3.353
49708W        W 9244  33.569  37.008  14.916
49709W        W 9245  29.558  31.588   0.956
49710W        W 9246  23.735  28.995  12.944
49711W        W 9247  31.966  43.489  13.406
49712W        W 9248   4.215  14.661  13.843
49713W        W 9249  30.938  42.880  10.557
49714W        W 9250  35.000  22.122   1.334
49715W        W 9251  26.063   5.802   1.423
49716W        W 9252  18.639  34.415   3.785
49717W        W 9253  43.767  11.790  14.325
49718W        W 9254  26.638  24.644  13.399
49719W        W 9255   9.337  14.207   2.311
49720W        W 9256  42.032  34.887  11.425
49721W        W 9257   1.426  39.823  11.560
49722W        W 9258  14.305  21.639   1.240
49723W        W 9259  15.631  17.272   3.788
49724W        W 9260  41.503  13.685  13.442
49725W        W 9261  17.588  22.040   3.730
49726W        W 9262  23.719  13.843  14.948
49727W        W 9263   7.294  37.452   1.386
49728W        W 9264  31.027  36.059  10.534
49729W        W 9265  20.591  22.053   2.901
49730W        W 9266  26.966   4.256   2.669
49731W        W 9267  14.738  31.994  14.413
49732W        W 9268   1.764  43.875   0.897
49733W        W 9269  13.762  23.715  12.890
49734W        W 9270  24.064   8.693  14.371
49735W        W 9271   5.878  24.180   3.232
49736W        W 9272  30.057   0.483   3.827
49737W        W 9273  17.749  11.845   4.164
49738W        W 9274  44.870  32.070  11.004
49739W        W 9275  11.363  40.821   1.361
49740W        W 9276  35.507  11.191   4.173
49741W        W 9277  25.685  42.922   0.311
49742W        W 9278  30.107  31.900   1.817
49743W        W 9279   0.913  17.619  11.976
49744W        W 9280   1.336  32.993  11.114
49745W        W 9281  20.605  32.468   0.314
49746W        W 9282  16.662  39.835   0.836
49747W        W 9283  41.972  43.003   0.415
49748W        W 9284   8.894  43.360  10.595
49749W        W 9285  20.573  33.531  10.438
49750W        W 9286  16.749  16.073   2.767
49751W        W 9287  22.642  15.179  12.572
49752W        W 9288  26.663   3.821  12.068
49753W        W 9289   6.725  20.735   4.605
49754W        W 9290  17.775  44.308   2.225
49755W        W 9291  34.035  27.655  12.435
49756W        W 9292  43.510  22.042  14.459
49757W        W 9293  31.489  36.035   0.920
49758W        W 9294  20.255  40.024  12.921
49759W        W 9295  13.273  30.568  11.499
49760W        W 9296  42.471  30.594  13.386
49761W        W 9297  18.150  21.751  12.872
49762W        W 9298  14.609  21.039  13.913
49763W        W 9299   5.735  22.176   4.779
49764W        W 9300   5.837   9.808   3.377
49765W        W 9301  25.662   9.216   4.263
49766W        W 9302  29.977  43.984   1.315
49767W        W 9303  38.542  11.259   3.715
49768W        W 9304  33.904  20.729   0.854
49769W        W 9305  17.287   8.668   2.869
49770W        W 9306   4.942  11.273  10.130
49771W        W 9307   3.836  15.648   1.362
49772W        W 9308  18.055  29.509  14.791
49773W        W 9309   4.771   7.279  12.947
49774W        W 9310  20.752  43.879  10.920
49775W        W 9311  25.978  23.510  10.597
49776W        W 9312  32.459  40.042  14.917
49777W        W 9313   2.870  18.694   2.728
49778W        W 9314  20.661  40.917   2.752
49779W        W 9315  27.504  34.423   2.359
49780W        W 9316  27.689   1.443  12.450
49781W        W 9317   4.704  10.279  14.833
49782W        W 9318   1.974  28.451  10.953
49783W        W 9319  14.623  15.135  11.987
49784W        W 9320  28.637  40.354   3.256
49785W        W 9321  24.546   2.454  13.475
49786W        W 9322  13.305  31.453   4.832
49787W        W 9323  43.293  29.919  12.041
49788W        W 9324  38.984  32.035  14.478
49789W        W 9325  21.722  44.472   3.702
49790W        W 9326  26.139  28.075   0.776
49791W        W 9327  15.591   0.362  11.402
49792W        W 9328  17.644  18.767  10.033
49793W        W 9329  18.172  17.616   2.806
49794W        W 9330  18.644   7.692   2.333
49795W        W 9331  12.180  27.651   4.741
49796W        W 9332  18.728  37.831  13.803
49797W        W 9333  26.051  28.533   2.267
49798W        W 9334   6.879  14.264  12.466
49799W        W 9335  37.538  34.418  14.409
49800W        W 9336   9.861  42.359   1.390
49801W        W 9337  17.163  26.075   2.290
49802W        W 9338  30.089   9.391   2.893
49803W        W 9339  28.544  27.028  14.447
49804W        W 9340   1.860  24.161  10.440
49805W        W 9341  44.447   3.812  14.513
49806W        W 9342  19.216  19.263   1.911
49807W        W 9343  10.377   3.251  13.333
49808W        W 9344   1.364   2.399   4.794
49809W        W 9345   0.445   8.873  11.410
49810W        W 9346   1.962   2.252   0.359
49811W        W 9347  29.159  14.168  10.567
49812W        W 9348  29.633  17.586   0.439
49813W        W 9349   1.337  40.386  14.299
49814W        W 9350  42.015  25.644   1.782
49815W        W 9351  20.258  37.377   2.337
49816W        W 9352  35.502  10.201   3.164
49817W        W 9353  19.737  18.714   2.321
49818W        W 9354  26.523   8.319   3.804
49819W        W 9355  18.117  17.068  12.547
49820W        W 9356  16.236  43.794  11.379
49821W        W 9357  21.119  27.123  13.833
49822W        W 9358   0.838  15.808   0.251
49823W        W 9359   4.899  37.368   3.291
49824W        W 9360  24.642   2.876   4.258
49825W        W 9361  42.285   9.364   1.723
49826W        W 9362  18.779  36.992  11.376
49827W        W 9363  37.454  14.323   0.412
49828W        W 9364  38.381   5.788   0.936
49829W        W 9365  15.758  17.683  13.899
49830W        W 9366  14.764   6.829   1.246
49831W        W 9367   4.266   6.355   4.700
49832W        W 9368   0.411   8.839   4.823
49833W        W 9369  17.564  29.432   3.836
49834W        W 9370  38.075  37.534   1.289
49835W        W 9371  13.131  20.739  14.345
49836W        W 9372  28.631  22.741   2.846
49837W        W 9373  22.193   6.222  10.559
49838W        W 9374  10.169  36.903  14.851
49839W        W 9375  20.544   2.419  12.389
49840W        W 9376   3.891  20.256  11.956
49841W        W 9377  42.006  11.741  12.852
49842W        W 9378   8.771  12.211   1.267
49843W        W 9379  10.706  33.437   0.302
49844W        W 9380  44.818   8.221  10.988
49845W        W 9381  25.015  29.597   2.695
49846W        W 9382  15.711  30.062   4.147
49847W        W 9383  37.066  25.033  12.892
49848W        W 9384   9.297   4.716  13.320
49849W        W 9385   7.721  29.048  12.420
49850W        W 9386  14.751  29.533   2.379
49851W        W 9387  31.430   2.264  12.938
49852W        W 9388  29.446  27.190   1.242
49853W        W 9389  30.133  10.268  12.455
49854W        W 9390  22.104  43.504  12.422
49855W        W 9391   4.227  22.098   0.890
49856W        W 9392  25.488  37.350  13.529
49857W        W 9393  44.390  34.105   3.367
49858W        W 9394   8.221  42.462  12.377
49859W        W 9395  33.967   2.884  12.024
49860W        W 9396   9.216   4.838   1.871
49861W        W 9397  43.279  28.033  10.916
49862W        W 9398  40.983  28.664  13.530
49863W        W 9399  18.579   6.221  12.422
49864W        W 9400   3.277  30.084   0.806
49865W        W 9401  10.716  13.206   0.751
49866W        W 9402   5.835  17.762   0.416
49867W        W 9403  42.872  42.781  10.451
49868W        W 9404  19.776  26.459   0.431
49869W        W 9405   0.949  29.645  13.940
49870W        W 9406  14.744  23.630  11.090
49871W        W 9407  15.753  37.357   4.166
49872W        W 9408  35.491   8.756   2.732
49873W        W 9409  41.888  36.582   1.860
49874W        W 9410  34.083  23.009  14.469
49875W        W 9411  41.862   2.734  10.615
49876W        W 9412   5.255   3.774  12.908
49877W        W 9413  12.223  34.945   4.839
49878W        W 9414  43.357  22.607   9.978
49879W        W 9415  24.575   8.278   4.658
49880W        W 9416  13.306  29.456  12.479
49881W        W 9417   8.366  16.615   3.178
49882W        W 9418  37.502  44.882  11.100
49883W        W 9419   5.250  25.696   0.355
49884W        W 9420  19.279  14.687   2.356
49885W        W 9421  36.592   8.856  14.987
49886W        W 9422   4.252   9.783  12.433
49887W        W 9423  29.620  23.161   1.360
49888W        W 9424  41.489  32.490  12.855
49889W        W 9425  33.405   8.886   0.460
49890W        W 9426  37.943   5.208  12.545
49891W        W 9427  10.232   9.279   5.612
49892W        W 9428  25.085   2.963   1.769
49893W        W 9429   5.927  17.639  13.311
49894W        W 9430  21.685  21.151   0.382
49895W        W 9431  39.326  31.598  10.576
49896W        W 9432  37.049  43.334   0.260
49897W        W 9433  34.613  14.160   2.863
49898W        W 9434   6.768  44.448   3.641
49899W        W 9435  28.594  38.369   4.767
49900W        W 9436   9.394  41.321   0.745
49901W        W 9437  23.189   0.357   1.215
49902W        W 9438  33.878  21.648   3.290
49903W        W 9439  32.038  41.521  13.904
49904W        W 9440  11.715  17.788   2.754
49905W        W 9441  25.619  14.641  13.538
49906W        W 9442   7.862  16.281   4.817
49907W        W 9443  40.964   8.707   2.687
49908W        W 9444  10.661   4.293  14.480
49909W        W 9445   1.367  42.974   1.347
49910W        W 9446  16.255  21.233   4.261
49911W        W 9447   5.841  21.542  12.854
49912W        W 9448  20.607   7.901  14.784
49913W        W 9449  30.916  23.731  10.621
49914W        W 9450  37.403  17.072  11.963
49915W        W 9451  31.136   2.378  11.573
49916W        W 9452  40.457  40.806   1.377
49917W        W 9453  19.601   4.268  13.848
49918W        W 9454  21.023  36.937   1.320
49919W        W 9455  32.408   3.349  14.461
49920W        W 9456   0.428  28.650   2.844
49921W        W 9457  12.659  10.850  13.915
49922W        W 9458  23.555  17.143   0.252
49923W        W 9459  25.568   8.204  13.998
49924W        W 9460  40.839   9.734   4.310
49925W        W 9461  13.721  10.704  14.515
49926W        W 9462   1.455  28.673  13.379
49927W        W 9463  10.348  20.530  11.063
49928W        W 9464   2.880  25.497   2.391
49929W        W 9465  26.033   6.399  11.541
49930W        W 9466  20.235  38.831  11.506
49931W        W 9467  18.102  34.485   3.363
49932W        W 9468  28.656  41.538  11.917
49933W        W 9469  44.468  21.262  13.489
49934W        W 9470  44.483  11.334   1.301
49935W        W 9471  43.017  18.170   1.714
49936W        W 9472  12.641  12.270  10.603
49937W        W 9473  33.925  43.510  12.437
49938W        W 9474   9.163  37.492  11.054
49939W        W 9475   4.725   9.727   2.300
49940W        W 9476  20.195   2.330  12.465
49941W        W 9477  12.840  21.064   2.845
49942W        W 9478  14.626  24.674   1.865
49943W        W 9479  15.321  14.697  13.504
49944W        W 9480  13.251  21.726   4.292
49945W        W 9481   5.880   7.227   2.270
49946W        W 9482  34.493  26.200  13.992
49947W        W 9483  29.526  24.688  13.378
49948W        W 9484  18.249  25.123   3.244
49949W        W 9485   4.404  30.616   1.705
49950W        W 9486  26.046  16.254  13.338
49951W        W 9487  40.326  14.203  10.944
49952W        W 9488  28.085  24.130   3.342
49953W        W 9489  37.018  18.159  12.064
49954W        W 9490   6.676  43.011  11.944
49955W        W 9491   3.948  13.285  14.508
49956W        W 9492  30.452  33.906  14.417
49957W        W 9493  15.678  33.615   3.806
49958W        W 9494  13.206  22.742   3.166
49959W        W 9495  44.768  29.062   2.852
49960W        W 9496  26.575   9.646   3.228
49961W        W 9497  41.847  14.309   2.290
49962W        W 9498   6.300  38.456   4.178
49963W        W 9499  44.502  18.101  13.865
49964W        W 9500  11.180  14.218  13.063
49965W        W 9501  30.452   8.688  10.108
49966W        W 9502  28.494  32.995  12.064
49967W        W 9503  32.934  10.764  12.375
49968W        W 9504  14.603  22.211   3.829
49969W        W 9505   8.882  28.676  13.988
49970W        W 9506  40.444   2.326   5.319
49971W        W 9507   9.361  11.135  12.355
49972W        W 9508   3.400  34.439   0.950
49973W        W 9509   1.314  38.489   2.239
49974W        W 9510  29.631  38.063  13.514
49975W        W 9511  16.760  27.009   3.289
49976W        W 9512  42.024  29.984  13.510
49977W        W 9513  41.834  19.555   2.251
49978W        W 9514  17.632  25.060   4.189
49979W        W 9515   7.414  28.608   3.288
49980W        W 9516  21.111  34.449   2.389
49981W        W 9517   5.235  16.685  13.900
49982W        W 9518   6.226   5.869   3.381
49983W        W 9519  44.860  19.092  12.005
49984W        W 9520  35.431  43.821  14.855
49985W        W 9521  15.692  23.714  14.929
49986W        W 9522  29.522   0.254  14.874
49987W        W 9523  10.181   1.914  14.873
49988W        W 9524   3.713  11.157   1.928
49989W        W 9525  25.659  37.388   1.759
49990W        W 9526  22.240  12.220   2.260
49991W        W 9527  19.163   3.933  10.891
49992W        W 9528   5.237   7.302   4.151
49993W        W 9529  44.373  34.484  13.937
49994W        W 9530   0.284  40.864   4.615
49995W        W 9531   4.231  20.557  13.955
49996W        W 9532  41.302  34.942   1.278
49997W        W 9533   1.463  41.499   1.849
49998W        W 9534   3.222   8.197  13.893
49999W        W 9535  40.347  37.083   0.825
50000W        W 9536  34.030   2.903  10.411
50001W        W 9537  38.050  41.301   2.180
50002W        W 9538  20.044  36.393   3.865
50003W        W 9539  37.449  42.374  13.834
50004W        W 9540   9.700  15.160   2.256
50005W        W 9541  31.066   9.301  11.914
50006W        W 9542   3.713  14.117   4.674
50007W        W 9543  20.151  16.141  12.502
50008W        W 9544  21.075   6.799  11.104
50009W        W 9545  38.914  34.058  13.994
50010W        W 9546  31.027   4.932  10.569
50011W        W 9547  34.958  28.540   2.681
50012W        W 9548  22.128   2.857   2.361
50013W        W 9549  34.477  15.123   0.459
50014W        W 9550  22.090  15.714   0.761
50015W        W 9551  32.528  24.175  11.960
50016W        W 9552  23.533  32.467   2.367
50017W        W 9553   5.934  26.604  13.529
50018W        W 9554   9.149   4.272  12.553
50019W        W 9555  44.492   7.270  13.837
50020W        W 9556  21.026   9.851  12.079
50021W        W 9557  39.037  44.905  12.871
50022W        W 9558  36.433  33.533  14.300
50023W        W 9559  28.603  39.484  10.452
50024W        W 9560  32.064  33.946  10.479
50025W        W 9561   7.344   8.323   0.966
50026W        W 9562  31.407  11.860   4.338
50027W        W 9563  14.181   6.842  11.582
50028W        W 9564  28.440  23.507   1.927
50029W        W 9565  20.261  28.039   2.868
50030W        W 9566  20.135   7.412  11.454
50031W        W 9567  25.102  36.859  10.938
50032W        W 9568  11.330  34.039   0.826
50033W        W 9569  43.002  37.531  11.107
50034W        W 9570  27.059   6.251  10.986
50035W        W 9571  10.325  41.447  10.989
50036W        W 9572   9.248  17.108  11.099
50037W        W 9573   9.231  15.816   3.372
50038W        W 9574  24.517  31.545   4.137
50039W        W 9575  18.089  19.543   3.212
50040W        W 9576  17.720  40.998   1.311
50041W        W 9577  20.166   6.863  13.348
50042W        W 9578  14.598  28.592  13.988
50043W        W 9579  40.985  32.492   0.473
50044W        W 9580  14.779  31.129   4.354
50045W        W 9581   4.380  22.653  10.927
50046W        W 9582  36.040  31.094   1.695
50047W        W 9583  18.115   5.230   2.305
50048W        W 9584  34.937   8.714  12.975
50049W        W 9585  30.632  13.131  11.415
50050W        W 9586   5.908  27.948  13.503
50051W        W 9587  34.981   8.668   4.759
50052W        W 9588  40.427  19.539  12.851
50053W        W 9589  36.907  39.476   2.413
50054W        W 9590  30.569   1.422   0.804
50055W        W 9591  38.870  34.871   4.598
50056W        W 9592  28.062  25.072   2.667
50057W        W 9593   9.852  11.783  12.068
50058W        W 9594  29.611  15.771  14.996
50059W        W 9595   3.454  21.062   2.816
50060W        W 9596  39.905  23.724  14.913
50061W        W 9597  34.563  11.262   0.323
50062W        W 9598  19.158   8.881  12.462
50063W        W 9599  22.226  34.982  10.139
50064W        W 9600  44.826  41.890  12.575
50065W        W 9601  38.055  31.520   4.254
50066W        W 9602   1.883  16.311   4.698
50067W        W 9603   5.364   7.416   0.950
50068W        W 9604  39.540  29.529   4.785
50069W        W 9605   3.329  25.487  12.983
50070W        W 9606  22.735  35.512   2.254
50071W        W 9607  33.557   6.736  13.051
50072W        W 9608  30.493   8.201  11.967
50073W        W 9609  34.017  37.918  14.434
50074W        W 9610  26.095  38.427   0.810
50075W        W 9611  25.473  41.014  12.552
50076W        W 9612  36.560   5.878   0.290
50077W        W 9613  13.724  44.375  12.498
50078W        W 9614   0.387  21.519   4.197
50079W        W 9615  44.422  39.817  12.428
50080W        W 9616  44.775   5.783  14.380
50081W        W 9617  19.090  33.390  14.780
50082W        W 9618  42.852   2.960   1.240
50083W        W 9619   0.317  33.522   0.828
50084W        W 9620   7.218  18.610   3.762
50085W        W 9621  39.845  38.393  11.594
50086W        W 9622   6.760  25.181   3.205
50087W        W 9623   9.859   1.905   3.705
50088W        W 9624  35.521   3.238   2.391
50089W        W 9625  19.085  41.943  10.554
50090W        W 9626   7.816  13.729  14.826
50091W        W 9627   9.812  12.712  13.869
50092W        W 9628   7.712   0.293  13.958
50093W        W 9629  22.100  17.800   0.424
50094W        W 9630  42.366  23.021   4.619
50095W        W 9631  10.334  20.527  13.862
50096W        W 9632  12.225  41.999   0.948
50097W        W 9633   3.797  28.608   2.743
50098W        W 9634  22.008  20.257  14.990
50099W        W 9635  11.641  44.423  10.888
50100W        W 9636  16.277  24.111   0.967
50101W        W 9637  17.296  43.322   4.708
50102W        W 9638  27.972   6.389   2.716
50103W        W 9639  27.622  18.090  10.896
50104W        W 9640   9.820  22.092   3.777
50105W        W 9641   4.362  24.100   0.890
50106W        W 9642  43.971  30.487  11.952
50107W        W 9643  22.601  16.753   2.302
50108W        W 9644  15.618  36.467   3.334
50109W        W 9645  25.535  27.661   3.319
50110W        W 9646   2.748  38.351   1.321
50111W        W 9647   8.220  24.525   1.395
50112W        W 9648  38.501  30.561  10.490
50113W        W 9649   4.399  43.429  11.947
50114W        W 9650  26.685  21.606  11.471
50115W        W 9651  21.688  42.882   1.391
50116W        W 9652  29.071   6.227   1.357
50117W        W 9653  21.549  21.143  10.160
50118W        W 9654  28.537   2.272  13.374
50119W        W 9655  41.498  37.528  10.904
50120W        W 9656  39.929  24.584   2.850
50121W        W 9657  28.584  38.934  11.585
50122W        W 9658  14.197  25.057   1.715
50123W        W 9659  13.345   4.357   2.370
50124W        W 9660  30.495  36.852  11.860
50125W        W 9661   9.667  22.716  10.608
50126W        W 9662   8.797   6.870  14.987
50127W        W 9663   1.324  29.160   4.639
50128W        W 9664   4.369  23.144  11.460
50129W        W 9665   9.692  13.800  11.377
50130W        W 9666  17.736  33.888   4.343
50131W        W 9667  21.119  18.115   5.758
50132W        W 9668  30.003   5.370  14.501
50133W        W 9669  19.742  37.345  14.364
50134W        W 9670  20.243  14.701   3.366
50135W        W 9671  23.007   7.888  10.508
50136W        W 9672  29.157  17.081  13.014
50137W        W 9673   8.669  23.690  12.500
50138W        W 9674  36.502   5.253   3.376
50139W        W 9675  14.756  42.285   1.262
50140W        W 9676  14.820   0.873   2.680
50141W        W 9677  11.186  23.067   3.170
50142W        W 9678  22.171  18.604   1.239
50143W        W 9679   0.375  25.145  14.496
50144W        W 9680  13.241  12.211   4.792
50145W        W 9681   9.301  39.335  13.419
50146W        W 9682  34.539   4.339   3.685
50147W        W 9683  37.378  20.246  11.404
50148W        W 9684  26.060  21.514  14.029
50149W        W 9685   5.790  27.457  14.967
50150W        W 9686  30.461  38.869  14.484
50151W        W 9687   2.418   0.895  14.502
50152W        W 9688  32.629  37.915   0.468
50153W        W 9689   6.395  10.180   3.753
50154W        W 9690   5.425  41.368  14.491
50155W        W 9691  16.715  14.756   2.389
50156W        W 9692  28.524   3.274   4.766
50157W        W 9693  20.616   4.803  13.846
50158W        W 9694   2.922  33.059   3.385
50159W        W 9695  35.521  34.477   4.286
50160W        W 9696  26.531  12.695  13.512
50161W        W 9697  44.815  19.194  14.854
50162W        W 9698   4.778   5.710   3.633
50163W        W 9699   0.375  10.869  13.345
50164W        W 9700  29.165  39.956   2.720
50165W        W 9701  16.215  40.406  13.516
50166W        W 9702   8.762  38.037  12.096
50167W        W 9703  18.594  39.950  13.400
50168W        W 9704  40.529   2.905   0.313
50169W        W 9705  33.093  30.525  13.059
50170W        W 9706   2.729  14.755  11.387
50171W        W 9707  36.097  12.182  13.513
50172W        W 9708  27.034   1.314   2.337
50173W        W 9709  41.303   0.479   1.303
50174W        W 9710  37.921   9.282  14.454
50175W        W 9711  19.673  34.881   4.114
50176W        W 9712   5.368   2.472   3.676
50177W        W 9713  31.502  43.768   2.823
50178W        W 9714  14.267   7.714   2.195
50179W        W 9715  22.131   5.734  14.893
50180W        W 9716  36.522  35.979   2.187
50181W        W 9717  11.197  32.537   4.773
50182W        W 9718   9.679  14.281  12.484
50183W        W 9719  10.157  39.430   1.709
50184W        W 9720  40.012  28.452   0.282
50185W        W 9721  29.026   7.687   0.280
50186W        W 9722  31.015  44.264   0.455
50187W        W 9723   9.167   1.328   3.728
50188W        W 9724  44.880  23.199   0.324
50189W        W 9725  30.487  25.654  13.901
50190W        W 9726   4.412  18.711   4.315
50191W        W 9727  38.368   8.735  11.079
50192W        W 9728   5.896   0.844  13.844
50193W        W 9729  38.034  24.572  12.410
50194W        W 9730  22.557  36.525  13.045
50195W        W 9731  31.097  16.712   0.415
50196W        W 9732   2.403  36.049  11.095
50197W        W 9733  31.149  22.590  12.460
50198W        W 9734  21.111  13.244   5.172
50199W        W 9735  10.277   4.259   0.897
50200W        W 9736  11.672  34.013  11.603
50201W        W 9737  20.116  33.910   4.176
50202W        W 9738  33.876   6.293   4.258
50203W        W 9739  30.624  43.315  14.515
50204W        W 9740  43.483   6.195  10.065
50205W        W 9741  22.598  43.823  12.394
50206W        W 9742  43.929  12.825   3.708
50207W        W 9743  39.541  12.723   4.295
50208W        W 9744  32.065  39.506  11.433
50209W        W 9745   7.888   5.436   1.351
50210W        W 9746  42.978  44.417   2.667
50211W        W 9747  10.794  16.727  14.346
50212W        W 9748   2.456  20.764  11.456
50213W        W 9749  30.487  14.808  13.475
50214W        W 9750  15.743  25.104  12.410
50215W        W 9751  26.557  36.524   0.964
50216W        W 9752  14.234  34.490  10.943
50217W        W 9753  27.993  24.486   2.759
50218W        W 9754  40.466   3.288  12.579
50219W        W 9755   3.784  13.270  12.468
50220W        W 9756  25.095  42.893   1.271
50221W        W 9757  43.905  16.192  13.837
50222W        W 9758  35.976  25.164  14.363
50223W        W 9759  28.595  19.147  14.918
50224W        W 9760  39.326  19.768   0.733
50225W        W 9761  28.958  38.858   0.334
50226W        W 9762  37.842  10.690  12.342
50227W        W 9763  29.028  30.137   1.786
50228W        W 9764   6.397  30.068   3.685
50229W        W 9765  20.139  43.995   0.243
50230W        W 9766  37.342   1.940  10.631
50231W        W 9767  18.256  39.916  11.082
50232W        W 9768  24.989   1.474   0.478
50233W        W 9769   4.729   3.215  11.520
50234W        W 9770   8.374  37.972  12.415
50235W        W 9771   9.644   3.887   4.727
50236W        W 9772  31.146   0.359  12.973
50237W        W 9773  26.574  16.756   0.376
50238W        W 9774   7.279   5.910  12.353
50239W        W 9775  27.578  22.537  10.957
50240W        W 9776   9.734  24.008   0.881
50241W        W 9777  18.550   1.239  13.428
50242W        W 9778   9.687  41.327  10.474
50243W        W 9779  13.616  10.177  13.418
50244W        W 9780  32.454   8.251  11.099
50245W        W 9781   4.870  30.580  13.830
50246W        W 9782  33.084  37.381   1.226
50247W        W 9783  39.333   0.940  10.458
50248W        W 9784  19.751   5.911  14.423
50249W        W 9785   2.888   6.701  12.954
50250W        W 9786  41.502  17.200   2.780
50251W        W 9787  16.084  38.962   3.818
50252W        W 9788  35.895   6.720  11.469
50253W        W 9789  31.640  28.176   1.319
50254W        W 9790  44.918  12.766   0.829
50255W        W 9791   2.257   6.337   5.293
50256W        W 9792  11.314  38.402  13.511
50257W        W 9793  44.468  39.880  14.854
50258W        W 9794  39.500  10.190   0.825
50259W        W 9795  18.676  16.771  14.340
50260W        W 9796   6.409  19.280  11.031
50261W        W 9797  30.517  40.901   1.843
50262W        W 9798  11.351   4.338   0.937
50263W        W 9799  13.600  43.861  10.512
50264W        W 9800  28.174  19.589   1.906
50265W        W 9801  21.753  41.367  11.496
50266W        W 9802  40.308  18.103  12.936
50267W        W 9803  27.082  28.579  13.451
50268W        W 9804  39.361  26.685  13.873
50269W        W 9805   0.359  14.653  11.509
50270W        W 9806  28.107   1.909  12.506
50271W        W 9807  44.762   5.702   0.760
50272W        W 9808  31.113  19.706   4.130
50273W        W 9809  27.943   8.778  12.369
50274W        W 9810   1.430   1.856  13.322
50275W        W 9811  37.445  37.077  11.074
50276W        W 9812  21.562  32.025   2.692
50277W        W 9813  39.056  34.594   3.729
50278W        W 9814  16.123  15.598   4.330
50279W        W 9815  24.213  13.808   3.199
50280W        W 9816  40.922   9.722  14.806
50281W        W 9817  30.146  28.581  12.434
50282W        W 9818   7.232  11.344  10.472
50283W        W 9819  14.615  25.563   4.293
50284W        W 9820  29.116   5.228   0.940
50285W        W 9821  38.925  43.937   4.268
50286W        W 9822  42.399  34.408   2.863
50287W        W 9823  33.615  44.310   0.356
50288W        W 9824  14.120  29.581  10.535
50289W        W 9825  18.257  28.960   4.118
50290W        W 9826  21.683   8.740  14.315
50291W        W 9827  19.268  14.297  13.524
50292W        W 9828   8.356  18.267  12.011
50293W        W 9829  21.741  21.715   1.846
50294W        W 9830  30.616   1.918   2.729
50295W        W 9831   8.289  42.353  10.577
50296W        W 9832  32.610   9.858  12.853
50297W        W 9833   3.757  23.697   3.328
50298W        W 9834  43.780  39.908  11.377
50299W        W 9835   9.162   1.454   1.421
50300W        W 9836  25.199  14.764   2.288
50301W        W 9837  18.222  16.623  12.076
50302W        W 9838  22.694  22.608  13.016
50303W        W 9839  41.000  16.678  10.411
50304W        W 9840   8.340   3.259   3.856
50305W        W 9841  28.554  28.553  12.993
50306W        W 9842  21.260  37.373  12.923
50307W        W 9843  24.016   5.278   3.775
50308W        W 9844  44.497  23.199  14.288
50309W        W 9845  43.962  10.803  10.146
50310W        W 9846  29.934  26.015  11.924
50311W        W 9847   0.342  31.543   2.338
50312W        W 9848  42.460  20.528  14.019
50313W        W 9849   0.376   4.716   0.742
50314W        W 9850  28.124  17.126  13.960
50315W        W 9851  22.655   8.728   3.304
50316W        W 9852  31.527  43.797  13.816
50317W        W 9853  19.137  40.313   2.763
50318W        W 9854   4.357  26.680   2.744
50319W        W 9855  25.993   1.438   3.831
50320W        W 9856  18.546   3.923   4.203
50321W        W 9857   3.339   6.764  13.998
50322W        W 9858  25.577   9.819   3.304
50323W        W 9859   4.778  33.413   2.875
50324W        W 9860  12.631  17.201   0.303
50325W        W 9861  32.545  35.086   1.313
50326W        W 9862   1.340  35.860   3.818
50327W        W 9863  26.960  44.876   3.773
50328W        W 9864  13.727   2.434  13.460
50329W        W 9865   0.767  11.734   1.705
50330W        W 9866  13.614  16.083   0.303
50331W        W 9867  35.412  38.468  11.865
50332W        W 9868  21.022   0.316   4.672
50333W        W 9869  29.017   2.773   3.250
50334W        W 9870  31.046  34.427  11.929
50335W        W 9871   6.783   8.387   4.301
50336W        W 9872  28.003  29.128   0.407
50337W        W 9873   2.362  23.078   5.202
50338W        W 9874  38.985  30.043   4.244
50339W        W 9875  27.013  40.811  12.000
50340W        W 9876  36.977  23.109  11.069
50341W        W 9877  34.079  36.061   4.119
50342W        W 9878  19.282  12.225  14.873
50343W        W 9879  43.323  25.092  11.044
50344W        W 9880  26.964   0.902   1.749
50345W        W 9881  19.210   9.358   3.338
50346W        W 9882  28.514   7.196  11.549
50347W        W 9883   7.869  37.348   2.696
50348W        W 9884  11.713  27.026  13.852
50349W        W 9885  21.135   7.234   2.715
50350W        W 9886   1.304  21.722   2.774
50351W        W 9887  32.413  40.313  11.041
50352W        W 9888  12.740  14.135   0.316
50353W        W 9889  36.058  16.168   0.301
50354W        W 9890  13.321  20.763   2.879
50355W        W 9891  11.193  36.593   0.891
50356W        W 9892  33.061  35.514  13.857
50357W        W 9893  33.381  39.957  12.838
50358W        W 9894  37.540  32.479   2.208
50359W        W 9895  16.577  28.459  14.376
50360W        W 9896  28.576  41.535   2.250
50361W        W 9897   7.286  32.021   3.222
50362W        W 9898  40.514   2.472  11.941
50363W        W 9899  44.505  17.085   1.914
50364W        W 9900  16.701  16.783   9.929
50365W        W 9901  25.611  18.165  12.378
50366W        W 9902  14.803  22.733  12.051
50367W        W 9903  43.485  27.992  12.965
50368W        W 9904  19.576  38.007   5.122
50369W        W 9905  34.607  40.537  14.359
50370W        W 9906  37.068  36.397  10.530
50371W        W 9907  24.052  26.146   4.341
50372W        W 9908  30.019  27.015   2.197
50373W        W 9909  18.748  33.596   4.635
50374W        W 9910  28.530  40.942  13.930
50375W        W 9911   7.863  13.152  12.425
50376W        W 9912  37.368  28.500   2.804
50377W        W 9913  22.728  21.233   1.408
50378W        W 9914  10.149  26.523  14.495
50379W        W 9915  34.965  34.912  14.802
50380W        W 9916  28.562  30.991  12.993
50381W        W 9917  43.403  41.511  11.533
50382W        W 9918   7.300  34.404   2.883
50383W        W 9919  20.261   6.697  14.294
50384W        W 9920  40.398  18.747   4.176
50385W        W 9921  19.191   6.819  14.794
50386W        W 9922   2.947  22.681   2.354
50387W        W 9923  33.965  14.734   4.200
50388W        W 9924  23.643  29.042   3.707
50389W        W 9925  22.652  11.717   4.231
50390W        W 9926  32.609   2.911  14.457
50391W        W 9927  19.552  38.856  12.923
50392W        W 9928   2.752   9.696  10.910
50393W        W 9929  24.490  27.009   2.716
50394W        W 9930   4.825  36.589  14.798
50395W        W 9931  38.494  23.659  12.971
50396W        W 9932  36.862  44.895  13.013
50397W        W 9933  44.285   5.800   3.858
50398W        W 9934  15.190  18.145   4.825
50399W        W 9935  14.792  11.862  10.415
50400W        W 9936  31.020  23.121  11.392
50401W        W 9937  38.328  39.366  12.450
50402W        W 9938  42.467  25.664  12.937
50403W        W 9939   8.162  32.548   0.789
50404W        W 9940  30.050  40.015  10.409
50405W        W 9941  36.073  35.604   1.231
50406W        W 9942  14.226  10.765  14.939
50407W        W 9943  35.890   3.949   0.249
50408W        W 9944  39.840  28.545  13.538
50409W        W 9945   1.367  14.304   1.899
50410W        W 9946  14.655  43.856   3.157
50411W        W 9947  31.945  13.682   3.795
50412W        W 9948  43.770  23.606  12.092
50413W        W 9949  42.831  39.341  13.023
50414W        W 9950  32.458  28.158   2.768
50415W        W 9951  42.918  26.009   3.340
50416W        W 9952  44.308   6.804  10.111
50417W        W 9953  34.532  44.347  13.868
50418W        W 9954  11.688   5.902   1.391
50419W        W 9955  16.266  41.425   4.258
50420W        W 9956  15.708  27.954   3.208
50421W        W 9957   8.159  40.822   2.798
50422W        W 9958  38.546  27.460   2.813
50423W        W 9959  37.971  21.133  12.459
50424W        W 9960   9.756  24.562   2.751
50425W        W 9961  32.062  23.495   1.806
50426W        W 9962  38.043  23.593  12.474
50427W        W 9963  10.257  14.636  14.461
50428W        W 9964  38.385  17.294   1.225
50429W        W 9965  27.569  43.414  13.812
50430W        W 9966   2.747   7.732  11.063
50431W        W 9967   0.766  14.330   3.736
50432W        W 9968  18.096  38.488   4.244
50433W        W 9969  30.911  22.726  10.527
50434W        W 9970  39.950  39.480  14.292
50435W        W 9971  31.972   9.792  12.448
50436W        W 9972  26.104   9.695  12.923
50437W        W 9973  20.727  35.911  12.449
50438W        W 9974  35.389  30.607  11.514
50439W        W 9975  22.699  42.999  11.564
50440W        W 9976  30.444  37.355   1.914
50441W        W 9977  31.433  44.419  11.464
50442W        W 9978  28.141  42.948   4.698
50443W        W 9979   0.900  18.153  11.417
50444W        W 9980  22.066  33.016  11.882
50445W        W 9981  28.053  20.530   3.681
50446W        W 9982  18.741  11.718  10.471
50447W        W 9983  15.707  39.916  13.874
50448W        W 9984  42.520  39.027   1.347
50449W        W 9985  14.307  37.047  12.382
50450W        W 9986  10.767   5.439  14.489
50451W        W 9987  30.477  35.057  14.279
50452W        W 9988  38.051   8.709   4.614
50453W        W 9989  37.026   2.290   3.330
50454W        W 9990  41.854   2.327   1.355
50455W        W 9991  11.636  34.505   0.790
50456W        W 9992   3.794  16.230  14.364
50457W        W 9993   6.812  24.145  13.485
50458W        W 9994  37.963  44.453   2.777
50459W        W 9995  34.046   7.330   2.764
50460W        W 9996   6.719  44.914  12.925
50461W        W 9997  35.056  41.896   1.345
50462W        W 9998  14.715  21.640   0.460
50463W        W 9999  32.052  14.101   1.779
50464W        W10000   7.182  39.923  14.429
50465W        W10001  38.429  28.943   3.189
50466W        W10002   9.716  36.923  11.937
50467W        W10003   6.800  34.417  14.886
50468W        W10004  29.475  17.130  11.908
50469W        W10005  16.751  43.500   0.333
50470W        W10006  43.271  24.027  14.291
50471W        W10007  41.787  19.651  12.999
50472W        W10008  21.259  17.123  14.854
50473W        W10009  42.999  36.920  14.994
50474W        W10010   0.258  13.721   1.318
50475W        W10011   2.262   3.415   4.188
50476W        W10012  22.541  26.125  10.003
50477W        W10013  40.872  12.679   0.409
50478W        W10014  41.454   1.969   2.370
50479W        W10015  41.411  13.683   3.356
50480W        W10016  37.989   1.357  14.297
50481W        W10017  18.743   4.371   2.232
50482W        W10018  30.980  28.586   0.419
50483W        W10019   6.201  43.310   2.339
50484W        W10020  19.575  44.505   0.808
50485W        W10021  10.160  38.837  13.879
50486W        W10022   2.254   0.449   2.815
50487W        W10023  34.032  34.069  14.767
50488W        W10024  26.638   3.221   2.375
50489W        W10025  41.530  41.894   3.724
50490W        W10026  19.633  23.069  12.024
50491W        W10027  27.504  31.909  12.929
50492W        W10028  21.064  29.438  10.942
50493W        W10029   5.260  40.505   4.687
50494W        W10030  30.523  25.210   1.764
50495W        W10031   2.783  37.527  13.324
50496W        W10032  43.466   8.900   0.260
50497W        W10033  20.241   2.842  10.969
50498W        W10034  26.967  19.138   4.615
50499W        W10035   5.256  23.130   1.837
50500W        W10036  37.348  41.415   2.821
50501W        W10037  27.002  44.787   0.819
50502W        W10038  38.415   9.714  10.412
50503W        W10039  34.908  36.917  12.563
50504W        W10040  12.209  35.390  13.897
50505W        W10041  25.504  18.188  11.875
50506W        W10042   8.856   2.364  13.512
50507W        W10043  29.520  31.543   2.185
50508W        W10044   4.205  32.615  14.379
50509W        W10045  22.209  42.950   2.830
50510W        W10046   4.241   4.275  12.559
50511W        W10047  42.398  39.870  14.316
50512W        W10048   5.896  29.024  11.053
50513W        W10049   3.372  22.059   0.890
50514W        W10050   7.813  35.024  12.423
50515W        W10051   3.222  41.945   2.801
50516W        W10052  28.082  40.859   3.369
50517W        W10053  17.772  27.039   2.290
50518W        W10054  29.424  38.986   1.854
50519W        W10055  16.292  16.193  11.974
50520W        W10056  34.077  17.213  13.510
50521W        W10057  38.555   8.243  11.014
50522W        W10058  22.214  12.784   2.321
50523W        W10059  26.041  12.200  10.575
50524W        W10060  12.832  30.447  14.386
50525W        W10061  28.503  41.510   3.684
50526W        W10062  28.986   7.829   1.242
50527W        W10063   9.780   7.815  14.003
50528W        W10064  36.462  38.521   1.212
50529W        W10065   9.739  35.985  11.543
50530W        W10066  18.599   7.697  10.420
50531W        W10067  30.526  16.228   2.753
50532W        W10068   2.765  43.841   3.166
50533W        W10069  12.628  30.049  11.987
50534W        W10070   8.843   0.970   0.787
50535W        W10071  38.853  37.969   0.944
50536W        W10072  22.010   2.263  14.465
50537W        W10073   4.442  44.834   0.315
50538W        W10074  36.047   3.756   3.732
50539W        W10075  15.719  21.192   4.686
50540W        W10076  33.557  39.029   2.900
50541W        W10077  23.726  43.436  14.293
50542W        W10078   9.307  42.473   3.776
50543W        W10079  19.776   3.713   2.785
50544W        W10080  33.607  32.480  13.839
50545W        W10081   5.367  31.123   0.421
50546W        W10082  23.712  19.637   4.178
50547W        W10083   4.396  25.092  13.500
50548W        W10084  42.342   2.333  13.902
50549W        W10085   0.908  40.340   0.303
50550W        W10086   5.867   6.807  13.381
50551W        W10087  14.100   3.788  14.949
50552W        W10088  18.161  40.013   4.146
50553W        W10089  39.516   5.408   1.715
50554W        W10090  16.661   8.388  12.036
50555W        W10091  36.346   8.666  11.555
50556W        W10092   2.246  15.811  10.612
50557W        W10093  38.485  10.369  11.439
50558W        W10094  40.491  31.999  14.825
50559W        W10095   2.770   1.465   3.751
50560W        W10096  28.618  17.655  11.864
50561W        W10097   8.859   0.939  10.454
50562W        W10098  34.506   3.349   0.281
50563W        W10099  22.637   7.183   3.648
50564W        W10100   3.246  13.689  13.830
50565W        W10101  40.415  25.482  12.467
50566W        W10102   2.724  31.983   1.401
50567W        W10103   5.278  29.547  13.440
50568W        W10104  15.594   2.416   2.391
50569W        W10105  22.048  32.633  13.321
50570W        W10106  34.399  25.505  13.511
50571W        W10107  34.603  40.534   1.241
50572W        W10108  23.555   7.406  12.030
50573W        W10109  44.847  36.005   0.417
50574W        W10110  39.486   0.391   0.314
50575W        W10111  24.190  25.066   0.890
50576W        W10112  11.691  41.030   2.811
50577W        W10113  27.667  14.708   1.320
50578W        W10114   8.781  22.226   4.213
50579W        W10115  12.829  26.686  11.926
50580W        W10116   2.780  12.821   4.220
50581W        W10117  30.925  27.941   0.439
50582W        W10118   0.942  41.022   0.877
50583W        W10119  27.063   9.365   2.784
50584W        W10120   2.751  19.732   2.180
50585W        W10121  38.890   0.258  14.506
50586W        W10122  30.134  36.496   1.910
50587W        W10123  30.006  32.452   4.210
50588W        W10124   3.920   6.738  12.466
50589W        W10125  21.518  31.996   4.145
50590W        W10126   0.380  43.463  14.953
50591W        W10127  24.215   8.169  12.523
50592W        W10128  16.130  24.018   3.772
50593W        W10129   4.901   5.201   1.924
50594W        W10130  41.337  26.607   3.317
50595W        W10131  41.493   2.268  11.484
50596W        W10132  37.955  35.093  14.874
50597W        W10133  42.944  16.717  10.987
50598W        W10134  29.003  16.201  13.872
50599W        W10135  12.279  22.650  11.549
50600W        W10136   2.419  11.866  13.052
50601W        W10137   7.807  34.567   2.777
50602W        W10138  22.214  41.470   1.244
50603W        W10139  19.716   8.212   2.365
50604W        W10140  40.521  33.915   0.875
50605W        W10141  12.621   1.269  14.896
50606W        W10142  22.661  34.418   0.854
50607W        W10143  20.178  15.315  11.970
50608W        W10144  10.185   4.912  11.526
50609W        W10145  26.993  35.545   5.579
50610W        W10146  39.919  14.834  12.009
50611W        W10147  43.392  32.108  10.587
50612W        W10148  37.372   7.383  13.344
50613W        W10149  14.155  15.175  11.380
50614W        W10150  14.791  30.156   0.853
50615W        W10151  22.010  31.426   3.316
50616W        W10152  38.344  26.952  11.552
50617W        W10153  33.598  21.043  11.855
50618W        W10154  15.648   9.263  13.383
50619W        W10155  19.173  29.606  12.075
50620W        W10156  11.131  22.146   3.332
50621W        W10157  20.609  13.621   1.913
50622W        W10158  20.033  17.775   0.763
50623W        W10159  14.697  12.675  14.017
50624W        W10160  17.130  35.890  14.410
50625W        W10161  28.585  22.644   2.398
50626W        W10162  19.112  31.914  11.579
50627W        W10163  36.991  41.424  12.353
50628W        W10164   7.363  18.631  11.044
50629W        W10165   0.972  43.335   1.928
50630W        W10166   1.974   8.721   4.605
50631W        W10167  20.107  10.829  12.835
50632W        W10168   7.403   2.903  11.472
50633W        W10169  36.417  30.572  13.916
50634W        W10170  28.087  43.282   0.353
50635W        W10171   8.244  15.654   0.888
50636W        W10172  41.805  20.547  12.850
50637W        W10173  25.660  28.150   3.829
50638W        W10174  43.272   9.393   4.135
50639W        W10175   9.669  41.363   3.152
50640W        W10176   2.338  31.622  12.513
50641W        W10177   6.777  40.865   1.741
50642W        W10178  19.123   2.470  11.941
50643W        W10179  16.700  20.206  13.408
50644W        W10180  19.625   5.818  12.927
50645W        W10181  30.968  25.573  14.331
50646W        W10182   4.906  16.201   0.254
50647W        W10183  24.116   1.945   1.703
50648W        W10184  10.166  26.602   2.814
50649W        W10185   5.374   2.848   1.749
50650W        W10186  21.687  17.587  11.013
50651W        W10187  37.420  26.070  14.933
50652W        W10188  44.306  41.826  11.936
50653W        W10189  21.643  41.991  12.576
50654W        W10190  30.617  16.779   3.170
50655W        W10191   7.413  32.574   1.761
50656W        W10192  39.348  36.448  14.849
50657W        W10193  41.808  31.035   0.953
50658W        W10194   7.741  41.963  11.074
50659W        W10195  22.636  14.296  12.495
50660W        W10196  40.417  24.081  10.438
50661W        W10197  18.210  26.089   1.420
50662W        W10198  24.571  31.128  14.344
50663W        W10199   8.767  29.937  10.503
50664W        W10200   5.365  40.022   3.757
50665W        W10201  44.408   3.785  11.990
50666W        W10202   0.893   4.785  12.499
50667W        W10203  17.726  31.490  12.927
50668W        W10204   5.282  10.771  14.336
50669W        W10205   7.309  32.482   4.656
50670W        W10206  44.367   0.887   4.273
50671W        W10207  42.990  13.631  13.792
50672W        W10208   7.708  24.625   3.714
50673W        W10209   7.408  28.972  10.595
50674W        W10210  17.677  16.128  13.046
50675W        W10211  31.480   0.840   2.725
50676W        W10212   4.394  13.835  12.884
50677W        W10213  34.946  39.499   2.278
50678W        W10214  34.552  36.960   2.751
50679W        W10215   7.864   6.295  13.434
50680W        W10216  17.221  41.463   1.829
50681W        W10217  21.753   3.721   4.682
50682W        W10218  26.000  36.546  14.306
50683W        W10219  16.747  23.508   0.841
50684W        W10220   0.790  29.152   3.311
50685W        W10221  12.790  34.471  11.877
50686W        W10222  24.229   6.338   2.676
50687W        W10223  33.457  19.572   4.707
50688W        W10224  17.786   5.851  11.375
50689W        W10225   0.866  11.288   1.286
50690W        W10226  43.774  14.823   5.186
50691W        W10227  32.892  35.032   4.221
50692W        W10228  28.681  26.524   2.385
50693W        W10229   6.404  43.837   3.183
50694W        W10230  15.634  23.674  12.943
50695W        W10231  10.777  37.842   2.825
50696W        W10232  30.951  33.454  14.473
50697W        W10233  28.455   0.933   1.362
50698W        W10234  24.657  39.314  13.485
50699W        W10235  43.322  10.690  13.396
50700W        W10236  40.923  19.145  13.379
50701W        W10237  39.536  24.196  14.436
50702W        W10238  22.008   8.836   3.650
50703W        W10239  26.476  29.923  11.028
50704W        W10240  28.531  32.121  14.957
50705W        W10241   9.213  44.381  10.417
50706W        W10242  24.114  11.170   4.804
50707W        W10243  30.133  14.705   1.230
50708W        W10244  24.998  34.088  14.430
50709W        W10245  25.652   4.408   0.864
50710W        W10246  31.561   1.274   3.817
50711W        W10247   9.790  24.086  12.369
50712W        W10248  19.587  24.697   0.316
50713W        W10249  42.484  26.605   4.760
50714W        W10250  22.720  24.037  10.934
50715W        W10251   7.873  22.720  13.514
50716W        W10252  37.486  34.512  12.348
50717W        W10253  26.608  13.645   3.783
50718W        W10254  26.963  27.095  10.572
50719W        W10255  30.483  20.525  13.907
50720W        W10256  15.258  14.210   4.605
50721W        W10257  27.058   0.864  14.480
50722W        W10258  36.444   8.183   0.317
50723W        W10259  28.102  33.944  14.902
50724W        W10260  20.725  20.531   9.455
50725W        W10261  24.215  28.155  13.368
50726W        W10262  24.616  41.388  12.452
50727W        W10263   1.955   1.362   4.197
50728W        W10264   1.746  27.534  10.409
50729W        W10265   0.268  22.641  13.064
50730W        W10266  27.471  44.944   1.287
50731W        W10267  36.588  14.611  13.821
50732W        W10268  19.686  34.060  12.030
50733W        W10269  30.031  16.121  14.922
50734W        W10270  17.245  11.158   2.384
50735W        W10271  27.185  11.839  13.850
50736W        W10272  42.980  40.020  11.438
50737W        W10273  21.083  27.178  12.091
50738W        W10274  17.697  32.961  10.915
50739W        W10275  19.618  12.310   4.750
50740W        W10276  36.517   0.907  13.813
50741W        W10277  41.467  23.685  10.488
50742W        W10278   2.867   7.332   4.277
50743W        W10279  19.657   4.704  12.507
50744W        W10280  34.961  24.670   0.949
50745W        W10281  19.250  10.182  14.360
50746W        W10282   3.846   8.214   2.854
50747W        W10283  38.554  39.961   3.277
50748W        W10284  13.677  37.851  14.782
50749W        W10285  24.214  21.126   1.816
50750W        W10286  16.083  15.156   1.373
50751W        W10287  10.141  21.214   1.389
50752W        W10288  29.657  28.012  12.888
50753W        W10289  20.156   3.763  12.949
50754W        W10290   8.310  21.076  10.613
50755W        W10291   1.448   6.741   3.759
50756W        W10292  32.571  23.652  10.613
50757W        W10293  42.952  14.771   0.733
50758W        W10294  10.151  28.087  12.535
50759W        W10295  17.104  18.593   3.743
50760W        W10296   7.200  16.734  13.886
50761W        W10297  38.349  35.467   0.251
50762W        W10298  22.744  33.469  11.517
50763W        W10299   8.883  40.447  12.957
50764W        W10300  33.881   4.285   4.138
50765W        W10301   6.334  27.481  11.929
50766W        W10302  20.545  35.010   0.246
50767W        W10303  23.544   5.315  10.452
50768W        W10304  39.019  26.564  10.925
50769W        W10305  44.330  42.470   3.730
50770W        W10306  41.528  17.799   4.803
50771W        W10307  32.925  27.046   0.738
50772W        W10308  10.196   8.812  10.919
50773W        W10309  30.991  15.223   2.338
50774W        W10310  28.989  24.075   0.743
50775W        W10311  28.465  29.631   3.278
50776W        W10312  24.141  22.063   1.237
50777W        W10313   2.361  20.090  12.341
50778W        W10314  10.308  44.828  11.125
50779W        W10315  34.961  20.267   4.778
50780W        W10316  44.297  31.532  14.998
50781W        W10317  18.244  33.098  11.604
50782W        W10318   8.231  12.763  12.508
50783W        W10319  16.219  16.769   2.835
50784W        W10320  40.408  30.978   3.264
50785W        W10321  31.940  20.735  10.433
50786W        W10322  28.042  14.201  13.063
50787W        W10323   5.197  33.125   1.228
50788W        W10324  36.558  11.329  14.351
50789W        W10325   4.704   6.759  13.309
50790W        W10326  23.088  33.465  13.344
50791W        W10327  43.390   3.340  10.127
50792W        W10328   1.441   4.220   1.806
50793W        W10329   9.659  19.606  10.489
50794W        W10330  14.780  44.369   1.367
50795W        W10331  37.946  32.919   1.394
50796W        W10332  44.815  20.704   4.639
50797W        W10333  19.586   8.847   4.312
50798W        W10334  23.701   7.368  14.291
50799W        W10335  13.792  10.355   2.277
50800W        W10336  14.213   4.854  14.005
50801W        W10337  40.541  36.502   4.150
50802W        W10338   6.708  29.174   3.236
50803W        W10339   0.928   1.275  14.384
50804W        W10340   3.329   8.308   4.328
50805W        W10341   8.812  32.455  14.025
50806W        W10342  38.842  30.557   4.264
50807W        W10343   6.239  14.282   3.636
50808W        W10344  42.287  28.541  14.802
50809W        W10345  36.541  32.960  14.436
50810W        W10346  37.394  30.471   0.790
50811W        W10347  23.134   2.279   4.170
50812W        W10348   9.810  34.446  10.416
50813W        W10349  13.301  42.787   4.351
50814W        W10350  18.193   5.830  13.448
50815W        W10351  34.021  38.426  13.874
50816W        W10352   6.721  43.314  10.489
50817W        W10353   7.324  34.891  12.359
50818W        W10354  27.591  36.398   1.230
50819W        W10355  44.277  25.219  13.487
50820W        W10356  21.024  32.421  11.896
50821W        W10357  26.064  29.080   3.729
50822W        W10358  31.102  31.565   2.363
50823W        W10359   0.433  25.033   3.336
50824W        W10360   9.687  15.737   0.300
50825W        W10361  13.825  10.755   1.257
50826W        W10362  35.963  14.257  14.913
50827W        W10363  42.429   3.853  12.357
50828W        W10364  34.528  31.441   3.670
50829W        W10365  21.634  13.628  11.564
50830W        W10366  23.512  35.107  14.007
50831W        W10367  36.910  30.919   4.598
50832W        W10368  11.739  28.104   1.371
50833W        W10369  14.649  34.053   4.761
50834W        W10370  10.632  14.140  10.899
50835W        W10371  16.642  44.790   2.225
50836W        W10372  32.074  24.520   4.309
50837W        W10373  20.064  40.875   3.264
50838W        W10374  27.969  16.570  12.501
50839W        W10375   3.911   5.398  12.450
50840W        W10376  13.135  10.768   1.367
50841W        W10377  23.105  31.621  13.805
50842W        W10378   1.483  29.104   3.756
50843W        W10379  15.295  42.327  13.894
50844W        W10380   6.822  42.402  11.033
50845W        W10381  40.041   0.961  11.043
50846W        W10382  29.171   0.296  11.410
50847W        W10383   8.303  25.615   0.244
50848W        W10384  28.155  30.455   3.833
50849W        W10385  28.083   6.312   5.322
50850W        W10386  24.721  41.869  12.037
50851W        W10387  33.057  29.618  12.407
50852W        W10388  30.968  33.881  12.002
50853W        W10389  29.573  42.778   4.687
50854W        W10390  43.931   0.902  14.365
50855W        W10391  41.446  18.216  12.458
50856W        W10392  11.292  34.441   2.801
50857W        W10393  10.828  42.366   2.211
50858W        W10394  21.074  40.421   1.319
50859W        W10395  42.359  15.088   1.806
50860W        W10396  36.880  23.673   1.707
50861W        W10397  16.612  35.527   1.757
50862W        W10398  42.406  35.412  14.965
50863W        W10399  13.109  23.197  12.468
50864W        W10400  23.051  41.864  11.981
50865W        W10401   4.726  35.983   9.957
50866W        W10402  44.277  20.548  10.029
50867W        W10403  15.265   3.278  14.006
50868W        W10404  16.624   6.697   3.280
50869W        W10405   8.789  37.903   3.209
50870W        W10406   1.343   6.874   1.829
50871W        W10407   8.350  34.065  11.442
50872W        W10408  24.043   1.342   3.663
50873W        W10409  27.969  26.571   5.217
50874W        W10410  15.109   1.376   2.319
50875W        W10411   0.950   7.705   1.743
50876W        W10412  17.592  25.519  10.544
50877W        W10413  42.948  40.014  10.975
50878W        W10414   3.301  15.256   3.651
50879W        W10415   8.186  43.347   4.209
50880W        W10416  40.041  41.418   3.706
50881W        W10417  36.420  33.913   4.636
50882W        W10418  11.857  20.643  10.918
50883W        W10419   4.943  40.976  13.992
50884W        W10420  42.476  36.472  12.480
50885W        W10421  43.328   1.792  14.275
50886W        W10422  31.440  17.120  13.045
50887W        W10423  43.911   6.711   2.839
50888W        W10424  10.191  25.485  14.889
50889W        W10425  24.128  25.670  14.311
50890W        W10426  43.391  26.675   5.113
50891W        W10427  24.165  21.583  10.454
50892W        W10428  30.005  35.916  13.817
50893W        W10429   9.668  33.122   2.806
50894W        W10430  42.995  41.973   3.800
50895W        W10431  23.718  16.181  11.023
50896W        W10432   0.303  37.490   9.953
50897W        W10433   8.391   8.260   3.306
50898W        W10434   6.338  17.126  10.498
50899W        W10435  11.364  43.905   3.764
50900W        W10436  23.181  25.047  11.434
50901W        W10437  20.223  16.740   0.467
50902W        W10438   7.707  23.120  12.491
50903W        W10439  39.820  29.003  12.404
50904W        W10440  21.104  28.604   4.315
50905W        W10441  44.999  38.987   1.274
50906W        W10442  14.673   0.458   4.761
50907W        W10443  37.976  44.426  14.396
50908W        W10444  14.674  35.577   1.847
50909W        W10445  14.269  32.041  14.979
50910W        W10446  23.084  10.678  14.794
50911W        W10447   9.187  32.515   0.814
50912W        W10448  42.935  13.603  10.611
50913W        W10449   1.960  36.956  13.391
50914W        W10450  38.563  16.602   3.358
50915W        W10451  44.360   4.721   4.679
50916W        W10452  20.765  15.732  11.542
50917W        W10453  39.453  23.120   1.924
50918W        W10454  36.444  15.789  10.895
50919W        W10455  35.409   3.712   1.355
50920W        W10456  18.605  36.018  13.918
50921W        W10457  11.270  11.301  13.440
50922W        W10458  11.201  11.369   3.193
50923W        W10459  44.923  30.945   0.272
50924W        W10460  35.962  35.862  14.390
50925W        W10461  44.962  22.158   3.205
50926W        W10462  39.486  21.697   2.737
50927W        W10463  29.552   2.755   0.260
50928W        W10464  19.728   4.214   2.336
50929W        W10465  25.602  36.891   1.783
50930W        W10466  14.237   3.874   2.856
50931W        W10467  40.503  29.951   3.182
50932W        W10468  27.942  35.564  13.005
50933W        W10469  41.876  30.513   0.444
50934W        W10470  18.249  19.633   4.145
50935W        W10471  14.770  31.144   0.343
50936W        W10472  44.764   5.821  13.516
50937W        W10473  37.399  10.306  13.793
50938W        W10474  12.351  41.416  10.495
50939W        W10475  31.639   7.232  14.283
50940W        W10476  30.421  34.532  14.890
50941W        W10477  26.700  12.128  13.792
50942W        W10478  31.447   8.168   4.793
50943W        W10479  43.400   4.855   3.250
50944W        W10480  25.994   7.352   0.814
50945W        W10481  22.726  18.593   3.699
50946W        W10482  16.603  19.100   2.412
50947W        W10483  26.002  38.478  12.364
50948W        W10484  12.144  30.020  10.633
50949W        W10485  43.854   9.337  14.469
50950W        W10486   0.979  12.290  12.430
50951W        W10487  17.287  11.762  13.834
50952W        W10488  39.514  27.158  12.075
50953W        W10489   8.822  25.136  10.094
50954W        W10490  44.369  19.697  10.046
50955W        W10491  23.222  33.625   0.893
50956W        W10492  36.457  15.319   1.879
50957W        W10493  11.831  13.204   0.900
50958W        W10494  26.568   7.412  14.013
50959W        W10495  41.291  23.170  13.970
50960W        W10496   3.237  36.383   0.478
50961W        W10497  11.674   2.412  10.903
50962W        W10498  40.309   4.803   4.838
50963W        W10499  31.026  27.084   2.342
50964W        W10500   8.802   5.832   0.762
50965W        W10501  38.481  41.329  10.473
50966W        W10502  20.752  22.656  12.975
50967W        W10503   7.225  28.008  13.372
50968W        W10504  23.078  13.795  10.938
50969W        W10505  39.930  11.327   4.174
50970W        W10506  15.821  40.518   0.275
50971W        W10507  25.032   8.786   2.206
50972W        W10508  44.327  16.701   2.371
50973W        W10509  35.558  37.866  10.417
50974W        W10510   7.273  12.844  10.633
50975W        W10511  23.499  24.693  12.933
50976W        W10512  24.130  26.016  12.996
50977W        W10513  43.295  44.775   2.684
50978W        W10514  13.112  34.082   4.211
50979W        W10515  38.372   2.418   2.260
50980W        W10516  30.453  43.312   2.388
50981W        W10517  41.383  44.385   0.744
50982W        W10518  17.724  39.510  14.769
50983W        W10519  29.084  19.694  14.890
50984W        W10520  21.586  20.124  14.287
50985W        W10521   5.826  12.293  13.330
50986W        W10522  25.563  19.697  14.829
50987W        W10523  20.159   2.850  13.032
50988W        W10524  42.913  32.584   2.879
50989W        W10525  26.124   7.677  10.428
50990W        W10526  40.489   9.239  12.042
50991W        W10527  20.694   4.845   1.405
50992W        W10528  39.853  33.401  11.495
50993W        W10529  35.021  42.936   1.306
50994W        W10530  31.952  13.215  11.022
50995W        W10531  30.513  35.369  10.979
50996W        W10532  13.832   6.416  11.113
50997W        W10533  39.972  22.608   3.682
50998W        W10534   1.778  25.081  14.895
50999W        W10535  32.994  35.920  13.995
51000W        W10536   9.377  38.406  10.405
51001W        W10537  37.986  32.989   3.216
51002W        W10538  37.515   7.878   3.727
51003W        W10539  44.912  31.097  13.840
51004W        W10540  16.584   3.863   4.200
51005W        W10541  28.576  44.493  12.555
51006W        W10542   4.310  43.448   3.329
51007W        W10543  30.545  38.523  14.334
51008W        W10544  10.761   2.358  14.820
51009W        W10545  14.170  21.156  10.021
51010W        W10546  27.582  35.987  11.508
51011W        W10547  41.868  31.130  14.894
51012W        W10548  26.487  34.059   4.169
51013W        W10549   6.259  27.550  10.974
51014W        W10550  41.812  38.545  11.975
51015W        W10551  20.546  35.381   1.706
51016W        W10552  18.685   8.811  11.476
51017W        W10553   5.436   9.204   2.844
51018W        W10554   6.725  12.219   0.432
51019W        W10555  23.602  19.162  13.448
51020W        W10556  34.874  29.570   3.634
51021W        W10557  30.983  15.737  11.538
51022W        W10558  35.593  42.983  14.001
51023W        W10559  44.881  43.484   1.797
51024W        W10560   6.326   0.971   1.348
51025W        W10561  37.516  20.088   1.314
51026W        W10562  36.365  24.533  11.511
51027W        W10563  38.821  42.877   4.797
51028W        W10564  35.098   9.351  11.041
51029W        W10565  18.595  27.969   0.246
51030W        W10566  32.923  23.166  11.473
51031W        W10567  19.608  26.464  14.888
51032W        W10568  44.933  13.163  14.923
51033W        W10569   5.787  41.439  13.542
51034W        W10570  27.456  27.671   4.640
51035W        W10571  19.691  24.496   0.941
51036W        W10572  36.018  44.465   0.856
51037W        W10573  41.525   8.777  10.472
51038W        W10574  12.356  41.793  11.120
51039W        W10575  21.708   2.460  13.867
51040W        W10576  38.423  30.064   2.289
51041W        W10577   6.756  25.117   2.186
51042W        W10578   6.739   2.292  14.761
51043W        W10579  41.021  38.352  11.426
51044W        W10580   6.355   8.195   3.743
51045W        W10581  39.501  34.082   2.408
51046W        W10582  36.991  11.708   3.218
51047W        W10583   9.693  22.622  12.082
51048W        W10584  20.164  27.968   3.785
51049W        W10585  12.157  26.989  13.952
51050W        W10586  26.659  25.679   2.898
51051W        W10587   0.275  37.858  14.921
51052W        W10588  14.827  42.319  14.974
51053W        W10589  34.006  40.972   4.709
51054W        W10590  15.165  38.064   3.299
51055W        W10591  41.929   9.180  12.524
51056W        W10592  29.014  40.504   0.742
51057W        W10593  29.111  29.502   2.263
51058W        W10594  14.835  25.524   2.183
51059W        W10595  10.810  24.141  11.008
51060W        W10596  41.935  18.740  11.386
51061W        W10597  16.121  13.217  11.053
51062W        W10598  25.108  36.025  12.047
51063W        W10599  34.089  23.138   3.714
51064W        W10600  40.438  37.496  10.407
51065W        W10601  11.293  26.049  14.345
51066W        W10602  18.211   4.231  12.823
51067W        W10603  43.298  13.351  14.010
51068W        W10604  37.554   8.241  13.876
51069W        W10605  36.570  40.405  11.585
51070W        W10606   9.664   4.403   1.285
51071W        W10607  29.655   6.348   5.318
51072W        W10608   7.413  24.665   4.181
51073W        W10609  18.585  26.671  13.509
51074W        W10610  16.261  33.442  13.466
51075W        W10611  20.563  43.290  12.466
51076W        W10612  12.253  12.260   2.391
51077W        W10613  35.368   0.859   1.306
51078W        W10614  41.985  40.478   1.871
51079W        W10615  19.647  35.902  10.628
51080W        W10616  18.120  39.824   1.268
51081W        W10617  37.845   1.776  12.014
51082W        W10618  19.577  31.488  13.996
51083W        W10619  39.444  13.664   1.769
51084W        W10620  37.860  44.496  13.046
51085W        W10621  11.849  39.439  11.889
51086W        W10622  20.116  28.530  14.963
51087W        W10623  28.024  27.971   1.234
51088W        W10624  14.296  37.550   1.885
51089W        W10625  24.019  28.492   4.326
51090W        W10626  20.066  39.892  12.559
51091W        W10627   6.309  43.826  13.032
51092W        W10628  28.488  20.143   0.921
51093W        W10629  26.955  17.555   2.682
51094W        W10630  35.433  37.028  12.479
51095W        W10631   8.264  16.135  13.991
51096W        W10632  41.874  27.628  12.980
51097W        W10633  25.991   3.711  13.793
51098W        W10634  40.906  15.749  13.360
51099W        W10635   8.861  18.706  10.487
51100W        W10636  32.967  31.535   2.694
51101W        W10637  30.130   6.850   2.255
51102W        W10638  40.865  41.450   3.228
51103W        W10639  30.994  29.521  14.827
51104W        W10640   2.435  26.102  10.546
51105W        W10641  38.038   9.739  14.029
51106W        W10642   0.867  33.072  12.339
51107W        W10643  14.718  18.150   9.943
51108W        W10644   3.282  43.779  13.925
51109W        W10645  16.104  25.217   4.687
51110W        W10646  43.439  17.570  13.019
51111W        W10647   3.740  22.718   0.360
51112W        W10648   1.798  38.504  14.409
51113W        W10649  40.997  15.233   0.332
51114W        W10650  23.674  34.009   3.831
51115W        W10651  40.979  33.977  14.993
51116W        W10652  39.457   9.203   0.942
51117W        W10653  33.881  36.938   2.191
51118W        W10654  10.353  19.760  14.349
51119W        W10655  43.377  44.861  14.479
51120W        W10656  43.513  41.474  13.035
51121W        W10657  14.235  20.209   4.647
51122W        W10658  18.738   5.883  11.500
51123W        W10659  15.150  21.047   4.347
51124W        W10660  29.530  33.884   2.768
51125W        W10661   3.792  31.989   1.292
51126W        W10662  15.130  27.658  12.856
51127W        W10663  33.618  40.418  10.054
51128W        W10664  42.889  40.043   1.910
51129W        W10665  29.544  33.504   2.809
51130W        W10666  11.155   9.355   0.252
51131W        W10667  24.139   3.936  13.033
51132W        W10668   9.372  30.110  13.450
51133W        W10669   3.277  26.154  10.945
51134W        W10670  22.535  26.189  10.535
51135W        W10671  21.694  18.696  10.103
51136W        W10672  20.055  33.614   2.717
51137W        W10673  20.568  36.414  12.004
51138W        W10674  39.015   6.798   1.776
51139W        W10675  17.229  17.217   9.990
51140W        W10676   7.894  19.156  11.872
51141W        W10677  16.571  42.953   1.887
51142W        W10678  24.013  16.791   1.411
51143W        W10679  36.384   1.361   1.925
51144W        W10680  28.602  42.979  14.433
51145W        W10681   5.869  25.672  12.870
51146W        W10682  27.591  40.418  11.126
51147W        W10683  32.443  24.710   1.864
51148W        W10684  18.054   9.221  14.935
51149W        W10685  37.907   4.384   0.751
51150W        W10686  30.007  43.992  11.102
51151W        W10687  42.360  17.582   3.799
51152W        W10688  37.830  27.692   1.739
51153W        W10689  38.018  22.031  12.510
51154W        W10690  22.529  33.562   3.201
51155W        W10691  34.866   9.207  14.353
51156W        W10692   6.402  29.473   2.670
51157W        W10693  28.963   0.447  13.800
51158W        W10694  41.984  27.186  13.387
51159W        W10695   5.889  14.644  14.276
51160W        W10696  38.942  21.235   2.227
51161W        W10697  30.490  44.851   1.708
51162W        W10698   1.859  42.787  13.547
51163W        W10699  43.770  15.252   0.844
51164W        W10700  11.776  31.946   4.257
51165W        W10701   0.255   2.291  11.457
51166W        W10702  39.003  43.771  14.815
51167W        W10703   0.896  22.111  13.048
51168W        W10704  24.585  27.161  10.465
51169W        W10705   1.745   8.654   1.919
51170W        W10706  40.433   5.732  12.913
51171W        W10707  22.547  21.261  11.112
51172W        W10708  42.954  17.101   2.717
51173W        W10709  20.754  12.338  12.940
51174W        W10710   4.848  22.076  11.873
51175W        W10711  30.998   4.708   4.302
51176W        W10712  43.322  24.503   4.238
51177W        W10713  21.549  41.874   0.924
51178W        W10714  20.611   2.909  14.862
51179W        W10715  27.059  20.529   1.349
51180W        W10716  16.310  16.140   4.656
51181W        W10717  36.521  16.783  12.521
51182W        W10718   5.277   1.734   3.817
51183W        W10719  16.607  26.501   3.205
51184W        W10720  16.584   4.795  13.534
51185W        W10721  17.582   6.274   2.374
51186W        W10722  36.949  36.464   1.822
51187W        W10723  32.952  21.034  11.080
51188W        W10724  13.651  28.572  13.333
51189W        W10725  15.694  32.037  14.479
51190W        W10726  32.578   2.950   0.846
51191W        W10727  43.345  16.203  12.843
51192W        W10728  33.453  36.525   3.256
51193W        W10729  39.358   0.485  14.315
51194W        W10730  44.486  17.180  10.471
51195W        W10731  27.576  17.262  10.416
51196W        W10732   4.911  27.519  14.499
51197W        W10733   0.268  10.780   9.940
51198W        W10734  27.656  25.689  12.096
51199W        W10735   5.724  33.425   1.912
51200W        W10736  14.252  10.765   2.310
51201W        W10737   4.932   4.820  13.803
51202W        W10738  21.192  10.378   0.907
51203W        W10739  41.942   0.310   2.810
51204W        W10740  38.826  14.827  12.878
51205W        W10741  30.526  27.057  13.441
51206W        W10742  35.537  13.747   0.883
51207W        W10743   0.967  16.175   2.792
51208W        W10744   0.361  26.197   0.784
51209W        W10745  13.267  39.898   0.309
51210W        W10746  31.468   9.681  11.012
51211W        W10747  38.897  14.693  14.994
51212W        W10748  22.138  19.694   3.253
51213W        W10749  13.693  11.859   4.778
51214W        W10750  13.835   2.835  14.317
51215W        W10751  41.941  42.997  12.986
51216W        W10752  32.051  43.449  13.930
51217W        W10753  31.991  28.459   0.290
51218W        W10754  11.706  21.074   1.750
51219W        W10755  15.298  33.079  14.467
51220W        W10756  18.762   9.341   2.331
51221W        W10757  42.817   0.752   4.346
51222W        W10758  32.435  37.535   0.315
51223W        W10759  28.023  39.864   3.174
51224W        W10760  19.170  44.764  12.491
51225W        W10761  41.993   9.643  13.892
51226W        W10762  22.678  29.624  14.301
51227W        W10763  18.283  36.977   1.343
51228W        W10764  44.876  27.974   9.999
51229W        W10765  34.539  19.759   3.200
51230W        W10766  37.349  35.360   3.247
51231W        W10767  27.023   4.759  10.439
51232W        W10768  27.633   5.325  13.439
51233W        W10769  14.684  21.174   2.268
51234W        W10770  14.751  19.225  11.050
51235W        W10771  25.041  21.529  12.552
51236W        W10772  35.484  42.452   2.377
51237W        W10773  41.353  13.602   4.314
51238W        W10774  26.007  44.473   4.170
51239W        W10775   5.320  43.852   4.224
51240W        W10776  26.484  10.176   0.831
51241W        W10777  16.096  41.921  13.947
51242W        W10778   8.809  33.879  14.349
51243W        W10779  39.391  44.841   3.696
51244W        W10780  41.393  13.766   2.760
51245W        W10781  34.383   3.769  11.467
51246W        W10782  38.939  12.721  13.364
51247W        W10783  27.628  37.518  14.295
51248W        W10784   3.754  25.660   0.826
51249W        W10785   2.350   0.303  12.484
51250W        W10786  30.438   3.851  12.894
51251W        W10787  10.182   5.246   4.203
51252W        W10788  42.999   1.423  14.996
51253W        W10789  25.044  21.260  12.080
51254W        W10790   5.370  42.975  13.855
51255W        W10791  12.140  16.151   2.765
51256W        W10792  32.482  21.604   1.363
51257W        W10793   6.863  11.368  13.320
51258W        W10794   7.685  11.153  11.479
51259W        W10795  32.050   6.838   3.734
51260W        W10796   9.258  39.046  14.367
51261W        W10797  43.902  19.659   4.659
51262W        W10798  22.089  29.535   2.359
51263W        W10799  38.948  18.771   2.799
51264W        W10800  37.452  31.585   3.681
51265W        W10801  12.213  16.575  12.403
51266W        W10802  33.393  30.152  13.983
51267W        W10803  30.979  41.978   1.827
51268W        W10804  40.993  32.615   1.731
51269W        W10805  11.737  21.209  12.547
51270W        W10806   1.466  23.006   2.678
51271W        W10807   8.305  40.525   2.297
51272W        W10808  25.168   5.326  12.554
51273W        W10809  40.966  43.867  13.979
51274W        W10810  18.238   2.340  12.566
51275W        W10811  40.430  32.999   2.728
51276W        W10812  28.167  43.474  13.853
51277W        W10813  10.142  15.673  12.943
51278W        W10814  22.238  42.352  14.920
51279W        W10815  13.261   3.789  10.979
51280W        W10816  10.352   7.675   2.707
51281W        W10817  17.734  20.051  13.960
51282W        W10818  20.609   9.301  11.029
51283W        W10819  16.261  31.605   4.244
51284W        W10820  19.230  32.556  14.778
51285W        W10821  25.614  21.236   9.985
51286W        W10822   5.729   5.927  13.057
51287W        W10823  30.044  37.439   2.679
51288W        W10824  14.733  32.532  14.344
51289W        W10825  41.805   0.795   0.950
51290W        W10826  38.851  19.136   0.844
51291W        W10827  10.833   5.239  13.323
51292W        W10828  41.961  35.936   5.286
51293W        W10829   7.907  29.664  12.963
51294W        W10830   2.339  27.986   2.267
51295W        W10831   7.240   6.758  12.401
51296W        W10832  34.561  16.659  13.064
51297W        W10833  10.777  11.711  10.902
51298W        W10834   8.789  23.665   5.710
51299W        W10835   3.380  33.923  13.831
51300W        W10836  42.324  27.594   0.397
51301W        W10837  41.792  11.771  11.998
51302W        W10838  13.731   8.728   0.256
51303W        W10839  37.424  44.274  12.503
51304W        W10840  38.385   9.349   2.692
51305W        W10841  39.371  13.137   2.360
51306W        W10842  36.392  24.019  12.889
51307W        W10843  19.634  29.022   3.807
51308W        W10844  13.217  44.837  14.447
51309W        W10845  26.683   5.889   9.443
51310W        W10846  34.985  32.469  10.567
51311W        W10847  42.511   5.778   3.769
51312W        W10848  10.336  31.913   2.893
51313W        W10849  18.652  10.282   0.876
51314W        W10850  19.691  39.932  12.372
51315W        W10851  30.473  42.487  12.370
51316W        W10852  20.038   4.739   4.141
51317W        W10853  42.524   1.748  13.480
51318W        W10854   4.892   2.924   3.864
51319W        W10855  36.491  42.477   3.174
51320W        W10856   9.661  19.679   1.356
51321W        W10857  40.477   2.363   1.273
51322W        W10858   0.773  44.973   3.729
51323W        W10859  26.953  17.223  13.853
51324W        W10860  14.219  11.353  14.005
51325W        W10861  37.029  28.936  14.848
51326W        W10862  10.843  38.913  12.978
51327W        W10863  24.625   2.927  12.840
51328W        W10864  35.445  17.711   1.336
51329W        W10865  35.402  20.760  12.827
51330W        W10866  22.720  22.664   5.275
51331W        W10867   4.263  34.967  11.375
51332W        W10868  20.170  29.142  14.333
51333W        W10869  18.051   8.888  14.479
51334W        W10870  21.758  44.927   4.260
51335W        W10871  18.753  36.476  12.072
51336W        W10872  42.777  14.798  11.911
51337W        W10873  39.060  36.895   3.832
51338W        W10874  33.039  26.033   3.181
51339W        W10875  44.830  10.278  14.796
51340W        W10876  21.672  30.478   0.853
51341W        W10877  29.647   0.273   2.673
51342W        W10878  29.659  32.410   4.170
51343W        W10879   7.730   7.804   3.712
51344W        W10880  29.539  22.726   4.186
51345W        W10881  22.687  25.139   3.720
51346W        W10882   4.403  21.128   2.726
51347W        W10883  12.316  33.432  13.957
51348W        W10884  29.577  42.981   2.873
51349W        W10885   3.418  32.944   1.367
51350W        W10886  38.453  14.234   3.643
51351W        W10887  29.573  14.246   1.811
51352W        W10888  32.138  15.284  10.466
51353W        W10889   7.728  40.952  12.980
51354W        W10890  16.190   1.891   2.180
51355W        W10891  32.925  33.381  13.838
51356W        W10892  41.946  18.754  12.399
51357W        W10893  43.511  40.976  11.017
51358W        W10894  42.882  38.346   0.463
51359W        W10895  16.686   2.363   3.240
51360W        W10896  27.950  40.835  12.908
51361W        W10897   9.279  14.828   4.693
51362W        W10898  21.562  15.228  14.917
51363W        W10899  20.114   6.752   3.749
51364W        W10900  38.022  42.491  10.462
51365W        W10901  35.852  15.819  14.965
51366W        W10902   1.477   2.937  11.600
51367W        W10903  34.984  32.085   0.792
51368W        W10904   1.897  16.149   0.729
51369W        W10905  24.641  19.646  12.464
51370W        W10906  44.483  39.017   0.756
51371W        W10907   5.883  12.214   1.783
51372W        W10908  17.229  25.500  13.907
51373W        W10909  27.961  41.902  10.997
51374W        W10910  43.808  14.186  11.437
51375W        W10911   8.383  11.738  11.486
51376W        W10912  34.561  21.246  10.549
51377W        W10913   1.272   5.766   4.836
51378W        W10914  21.664  35.589  12.995
51379W        W10915  44.910  41.490  10.573
51380W        W10916   1.830  21.018  12.419
51381W        W10917  41.343  16.585   3.174
51382W        W10918  31.028  23.724   5.626
51383W        W10919  19.763  14.330  12.016
51384W        W10920  19.264  25.626   0.945
51385W        W10921  14.188  28.183  13.036
51386W        W10922  14.674   5.864   4.204
51387W        W10923  18.136  41.834  11.896
51388W        W10924   9.755  11.792   1.718
51389W        W10925  29.605  19.773  10.494
51390W        W10926  44.265   8.819   4.170
51391W        W10927  10.818   1.254   4.342
51392W        W10928  43.912  29.006  12.491
51393W        W10929   4.876  40.895   4.161
51394W        W10930  14.316  33.397  13.404
51395W        W10931  12.231  34.079   4.154
51396W        W10932  30.938  44.477   0.834
51397W        W10933  33.441  23.587  12.374
51398W        W10934  38.528  36.470  11.860
51399W        W10935  35.395  19.756  13.539
51400W        W10936   9.651  20.713  11.408
51401W        W10937   5.415  17.787  12.863
51402W        W10938  36.059   3.824  11.975
51403W        W10939  24.572  25.497  11.575
51404W        W10940  32.528  11.704  13.526
51405W        W10941  19.614  43.478   4.334
51406W        W10942  38.895   7.719   0.953
51407W        W10943  13.129  23.064   2.807
51408W        W10944  41.328   2.795   2.376
51409W        W10945   6.330  13.243  11.390
51410W        W10946  25.685  40.875   0.396
51411W        W10947  18.148  43.970  13.894
51412W        W10948  15.585   6.216   4.695
51413W        W10949   1.802  42.515   1.326
51414W        W10950  15.186  44.441  11.999
51415W        W10951  44.262   6.787   1.934
51416W        W10952  14.619  13.609  14.313
51417W        W10953  35.002  23.629   9.493
51418W        W10954  30.514  33.989  14.915
51419W        W10955  42.351  12.773  10.541
51420W        W10956  15.776   0.803  13.911
51421W        W10957  13.674   0.428   2.776
51422W        W10958   7.316  19.669  10.497
51423W        W10959   2.361  37.444   2.180
51424W        W10960  39.477  16.200  12.566
51425W        W10961  36.586  32.908  12.406
51426W        W10962  29.543  36.954  11.896
51427W        W10963   5.400  17.680   1.927
51428W        W10964   1.314  21.661  13.934
51429W        W10965   4.805   5.865  12.550
51430W        W10966  26.524  19.707  14.975
51431W        W10967  36.434   5.331  13.963
51432W        W10968   8.245  26.514   3.188
51433W        W10969  31.103  16.712   0.827
51434W        W10970  33.972   2.299  13.481
51435W        W10971  11.248  32.081   2.359
51436W        W10972  37.501  21.659  11.058
51437W        W10973  44.875   2.270   4.186
51438W        W10974   0.365  26.518   2.792
51439W        W10975  25.084  29.046  13.534
51440W        W10976  19.773   2.916   2.893
51441W        W10977  31.642  44.821   1.362
51442W        W10978  21.047  19.096   3.331
51443W        W10979   1.303  29.100  10.487
51444W        W10980   9.750  16.109   2.672
51445W        W10981   8.877  37.450  10.565
51446W        W10982  10.811   5.227  11.888
51447W        W10983  31.052  16.736   4.236
51448W        W10984  34.867  39.047   2.331
51449W        W10985   7.748  17.587  10.501
51450W        W10986   1.315   2.229   3.261
51451W        W10987  33.619   4.275  13.827
51452W        W10988  17.244  19.719   3.200
51453W        W10989   5.279  30.999   3.309
51454W        W10990  28.531  17.598   0.777
51455W        W10991  38.897  23.543  11.924
51456W        W10992   2.859  37.889   2.295
51457W        W10993  24.489   4.732  13.979
51458W        W10994  44.283  16.264   4.682
51459W        W10995  43.993  42.994  14.944
51460W        W10996  20.532  19.678   0.902
51461W        W10997   9.783  28.515  13.991
51462W        W10998  42.888   3.796   0.256
51463W        W10999  10.173  44.394   0.895
51464W        W11000  32.911  42.979  12.023
51465W        W11001  44.324  13.119  13.452
51466W        W11002  35.481  37.444   4.712
51467W        W11003  31.435  30.137   2.264
51468W        W11004  39.887  23.093  10.419
51469W        W11005  12.851  41.957  14.321
51470W        W11006  36.095   4.837  13.885
51471W        W11007   0.942  23.187  10.887
51472W        W11008  17.069   7.364   4.711
51473W        W11009  32.100  24.043   9.966
51474W        W11010  38.433   9.346   0.392
51475W        W11011  27.686  32.500   3.745
51476W        W11012  31.145  30.533   4.285
51477W        W11013  20.531  39.957  11.586
51478W        W11014   3.725   9.881  14.003
51479W        W11015  37.865  36.075   5.186
51480W        W11016   8.764  15.614  12.082
51481W        W11017  25.687  10.733  11.049
51482W        W11018  19.677  30.470   4.637
51483W        W11019  40.836  30.636  10.947
51484W        W11020  33.412  34.517  13.512
51485W        W11021  30.948   6.880  13.917
51486W        W11022  40.817  29.952   4.242
51487W        W11023  34.908  31.534   4.116
51488W        W11024  44.820  28.574   1.934
51489W        W11025  35.593  35.094   3.346
51490W        W11026  31.926  19.272  11.514
51491W        W11027  22.684  43.892  13.982
51492W        W11028  30.020  33.617  10.046
51493W        W11029  15.277   8.245   3.168
51494W        W11030  27.124  35.572   0.431
51495W        W11031  27.083  26.171  10.427
51496W        W11032  24.105  16.578   3.694
51497W        W11033   3.295  39.347   4.784
51498W        W11034  30.150  12.619  13.962
51499W        W11035  20.163   6.703  11.514
51500W        W11036   3.824  31.489  11.016
51501W        W11037  24.502   7.219   5.580
51502W        W11038  23.994  16.085  10.483
51503W        W11039  25.599  20.704  10.899
51504W        W11040  35.441  22.232   3.796
51505W        W11041  26.519  19.089   1.448
51506W        W11042  28.988   0.342   1.322
51507W        W11043  15.235  29.079   3.382
51508W        W11044   5.257  24.568   4.604
51509W        W11045  22.115  16.074   1.793
51510W        W11046  44.344   5.294   2.816
51511W        W11047  11.286   8.878  12.450
51512W        W11048   1.813  21.683  13.498
51513W        W11049  25.134   7.257   2.741
51514W        W11050  24.026  34.611  11.549
51515W        W11051  33.981  40.521   1.780
51516W        W11052  34.983   1.256  12.947
51517W        W11053  38.443   1.760  13.473
51518W        W11054   9.814  33.578   0.328
51519W        W11055   6.685   9.860   3.673
51520W        W11056  17.248  38.372   4.279
51521W        W11057   6.709  24.988   2.731
51522W        W11058   0.291  38.496  11.062
51523W        W11059   9.389   1.825  14.485
51524W        W11060  28.037  34.537  11.912
51525W        W11061  21.568  20.180   0.327
51526W        W11062  43.788  37.344  13.024
51527W        W11063  30.026  44.490  13.491
51528W        W11064  18.697   6.772   2.703
51529W        W11065  16.755   8.806  14.322
51530W        W11066  11.305  20.746  11.993
51531W        W11067  12.212   8.822  12.371
51532W        W11068  36.053  39.553  12.513
51533W        W11069  33.505  13.110   1.861
51534W        W11070  41.990  36.942   4.319
51535W        W11071  29.945  20.765  13.004
51536W        W11072  20.088   0.828   4.675
51537W        W11073  26.514  35.025  13.048
51538W        W11074  33.099  36.411   2.311
51539W        W11075  18.116  33.115   3.850
51540W        W11076  27.558   2.856   0.364
51541W        W11077  42.789  43.357  14.879
51542W        W11078  41.927  12.684  12.416
51543W        W11079  27.065  21.088   1.720
51544W        W11080  30.621  13.791  10.974
51545W        W11081  15.636  10.824  11.121
51546W        W11082   8.674  42.783   2.224
51547W        W11083  26.564  41.470  11.435
51548W        W11084  28.030   5.376   4.701
51549W        W11085  17.686  31.929  14.844
51550W        W11086  27.051  15.794  13.028
51551W        W11087  13.685  10.290   1.451
51552W        W11088  14.190  31.967  11.025
51553W        W11089  17.660  36.528  14.387
51554W        W11090  18.263  26.557  12.535
51555W        W11091  27.541  12.178   2.286
51556W        W11092  30.972   5.699   3.326
51557W        W11093  44.936  13.300   5.737
51558W        W11094  18.729  26.954  14.413
51559W        W11095   0.777  34.596   4.343
51560W        W11096   3.770  33.042   3.859
51561W        W11097  24.030  21.662   0.262
51562W        W11098  16.273  42.448   4.718
51563W        W11099  21.552  13.238   2.872
51564W        W11100  14.256  11.741  13.030
51565W        W11101  10.870  18.545  14.311
51566W        W11102   3.444  37.906   0.242
51567W        W11103  35.511  40.467  14.354
51568W        W11104  26.518  38.335  14.494
51569W        W11105  37.893   5.428  10.408
51570W        W11106   8.859  13.802  12.900
51571W        W11107  21.691  29.436   2.851
51572W        W11108  41.826  18.635  13.416
51573W        W11109  10.324  42.337   0.930
51574W        W11110  12.146  29.017   1.337
51575W        W11111   6.374  13.605  11.126
51576W        W11112   8.338   1.796  14.964
51577W        W11113   5.763   1.836  12.919
51578W        W11114  41.436  21.668   2.840
51579W        W11115  35.358  24.061  13.991
51580W        W11116  12.747  23.654  10.501
51581W        W11117  19.042   5.813  10.969
51582W        W11118   2.377   0.744   0.881
51583W        W11119  36.865  24.677   0.962
51584W        W11120  38.052  42.942  12.085
51585W        W11121   7.360  19.218  11.005
51586W        W11122  44.872   6.874  14.331
51587W        W11123  39.057  26.625  14.414
51588W        W11124  25.648   4.843  11.384
51589W        W11125  10.722  16.083   1.831
51590W        W11126  37.354  43.331   5.094
51591W        W11127  44.426  24.560  13.454
51592W        W11128  21.611  35.096   4.326
51593W        W11129  20.080   7.304   1.855
51594W        W11130  38.412  37.856  14.324
51595W        W11131  44.278  40.412   4.130
51596W        W11132  44.420   7.721   4.140
51597W        W11133   3.275  38.490  12.556
51598W        W11134  44.381   9.863  12.954
51599W        W11135  37.925  21.186   1.333
51600W        W11136  37.361  41.994  14.772
51601W        W11137  38.861  24.632   1.813
51602W        W11138   9.805  15.689   2.248
51603W        W11139   1.290  18.279  12.882
51604W        W11140  18.220  32.485   4.309
51605W        W11141   1.773  28.176  10.150
51606W        W11142  33.006   7.339  12.070
51607W        W11143  23.022  31.920   0.861
51608W        W11144  16.215  34.025   4.662
51609W        W11145  41.412  30.928  14.322
51610W        W11146  27.502  20.068   4.609
51611W        W11147  33.613  31.979   3.771
51612W        W11148  38.845  18.149  12.024
51613W        W11149  42.521   0.435   4.165
51614W        W11150  35.476  10.187  12.860
51615W        W11151  34.893  35.918  13.506
51616W        W11152  43.011  18.144  11.079
51617W        W11153   5.829  29.609  14.311
51618W        W11154   7.327   2.431   1.321
51619W        W11155  33.942  18.106  14.802
51620W        W11156  43.393  32.444  12.389
51621W        W11157  42.352  39.826   1.343
51622W        W11158  23.078  23.621   4.166
51623W        W11159  13.773  26.478   2.797
51624W        W11160  39.417   6.425   2.801
51625W        W11161  29.662   7.388   4.300
51626W        W11162  34.373  31.106   2.741
51627W        W11163  21.688   1.341   1.302
51628W        W11164  31.908  31.509  11.598
51629W        W11165   9.225  24.651  11.936
51630W        W11166   1.960   7.387   4.724
51631W        W11167  32.544   8.734   3.735
51632W        W11168  40.989  21.036   0.755
51633W        W11169  29.638   9.700   0.967
51634W        W11170  35.497  38.835  13.050
51635W        W11171  21.236  23.589   3.761
51636W        W11172  35.104  12.745   0.904
51637W        W11173  10.791  14.714   3.645
51638W        W11174   4.798  23.500  11.989
51639W        W11175  18.677   2.834  13.820
51640W        W11176  30.073   5.775  12.478
51641W        W11177  39.409   9.195  11.608
51642W        W11178  11.282  11.842   4.789
51643W        W11179   0.818  41.492   4.139
51644W        W11180   5.709   5.793  13.903
51645W        W11181   4.790   3.821   2.347
51646W        W11182   1.806  26.659  13.960
51647W        W11183  31.514  29.022  11.405
51648W        W11184   8.730  40.967  10.949
51649W        W11185  26.108  33.910   4.665
51650W        W11186  12.753  26.581   3.360
51651W        W11187  40.367  21.246  10.409
51652W        W11188  30.058  28.119  10.553
51653W        W11189  20.051  26.145   4.822
51654W        W11190  11.155  19.117   2.248
51655W        W11191  26.100  44.974  14.815
51656W        W11192   6.899  41.445   3.201
51657W        W11193   5.353   7.406   2.894
51658W        W11194  23.004  38.916  12.384
51659W        W11195  40.039   9.856   1.352
51660W        W11196  18.195   9.744  11.904
51661W        W11197  18.653  23.728  14.975
51662W        W11198   5.915   9.756   2.750
51663W        W11199  23.203  34.025  14.029
51664W        W11200  30.011  14.296  11.967
51665W        W11201  40.837  38.994  13.995
51666W        W11202  23.179   6.193   2.381
51667W        W11203  35.081  35.504   3.183
51668W        W11204  34.014  42.978  11.057
51669W        W11205  38.943  18.562   4.787
51670W        W11206  20.272  44.955  13.921
51671W        W11207  22.232  27.079  13.891
51672W        W11208  40.341  19.147   4.710
51673W        W11209  26.999   1.970   4.218
51674W        W11210   7.720  10.265  13.415
51675W        W11211  31.566  14.617   0.884
51676W        W11212  28.496  11.351   1.317
51677W        W11213  41.964  27.594   0.827
51678W        W11214  28.038  37.878   5.093
51679W        W11215   3.434   8.226   3.763
51680W        W11216  18.733  30.969   0.803
51681W        W11217  36.893  27.947   0.473
51682W        W11218  19.737  34.871  13.419
51683W        W11219  15.637   9.661   4.289
51684W        W11220   1.922  11.155  13.510
51685W        W11221  20.583  44.809  10.991
51686W        W11222   1.382  29.126  11.481
51687W        W11223  31.535  37.505  14.336
51688W        W11224  37.469  31.987   1.417
51689W        W11225  19.247  19.200  12.424
51690W        W11226  39.831  27.196   4.832
51691W        W11227  39.428  39.006   3.666
51692W        W11228   7.745  15.664   2.810
51693W        W11229  31.035  38.558  10.548
51694W        W11230   2.834  14.780  10.078
51695W        W11231  17.682  26.514  12.974
51696W        W11232   0.983   7.685   3.380
51697W        W11233  25.191  36.894  14.839
51698W        W11234  24.158  11.839   3.690
51699W        W11235  16.773  28.500  10.900
51700W        W11236  41.019   9.671   0.283
51701W        W11237  33.552  27.053  14.870
51702W        W11238  17.566  10.153   1.242
51703W        W11239  16.306  23.046  10.122
51704W        W11240  18.190  42.476  11.021
51705W        W11241  11.666  37.948  12.401
51706W        W11242  33.515  15.665   0.261
51707W        W11243  15.798  25.668  11.501
51708W        W11244  31.999  14.651  14.924
51709W        W11245  38.043   9.215  12.458
51710W        W11246  31.067  34.067  12.477
51711W        W11247  26.059   2.299  10.514
51712W        W11248   8.889  35.414  13.546
51713W        W11249  33.004  43.359  11.896
51714W        W11250  31.026  38.028  13.479
51715W        W11251   2.264  22.613   9.631
51716W        W11252  13.735  33.391   1.416
51717W        W11253  42.335   0.270   3.829
51718W        W11254  43.898  37.367   0.418
51719W        W11255  25.580  30.632   1.886
51720W        W11256   2.304  25.106   1.246
51721W        W11257  38.389   6.383   2.331
51722W        W11258  33.385   4.302   4.301
51723W        W11259  34.500  17.621  10.906
51724W        W11260  39.454  42.483   2.271
51725W        W11261   0.379  34.481  12.053
51726W        W11262  27.167  33.893  11.117
51727W        W11263  12.347   6.398  12.085
51728W        W11264  23.133   9.303  10.009
51729W        W11265  36.419  28.437  14.996
51730W        W11266  12.788   1.379  12.569
51731W        W11267  20.235   2.281  10.424
51732W        W11268  44.909  41.967   4.188
51733W        W11269  27.140   3.828  12.838
51734W        W11270  11.313  44.912  14.836
51735W        W11271   0.910   9.781   4.157
51736W        W11272  19.718   7.830   3.348
51737W        W11273  30.085   1.370   3.698
51738W        W11274  20.040  42.886  12.564
51739W        W11275   5.765  10.780  14.332
51740W        W11276  38.532  36.448  14.473
51741W        W11277  35.048  24.631  12.022
51742W        W11278  29.083   9.298  12.866
51743W        W11279  17.303   1.775   1.840
51744W        W11280  10.168  15.623   4.265
51745W        W11281  19.055   0.336   3.746
51746W        W11282  40.995  38.497   2.670
51747W        W11283  18.231   1.271  11.452
51748W        W11284  14.181  33.968  11.875
51749W        W11285  40.543  38.370   4.263
51750W        W11286  29.504  10.319  14.329
51751W        W11287  25.485  32.563  11.944
51752W        W11288  36.514  20.192   4.159
51753W        W11289   7.369  19.700   2.756
51754W        W11290  30.601   2.730  13.308
51755W        W11291  36.434  22.666   0.388
51756W        W11292   7.882   2.736  14.432
51757W        W11293  18.774   2.316  10.952
51758W        W11294  23.108   2.842  14.010
51759W        W11295  30.443  23.046   2.359
51760W        W11296  28.048  21.031  10.928
51761W        W11297  16.675   6.738  11.093
51762W        W11298  15.241   4.242   4.639
51763W        W11299  20.647  41.997  11.076
51764W        W11300  23.112  17.581  11.998
51765W        W11301  41.295  14.827   1.287
51766W        W11302  38.510   3.923  13.351
51767W        W11303  24.533   6.838  12.862
51768W        W11304  10.338  27.619   3.332
51769W        W11305  12.121   1.830  10.527
51770W        W11306  33.509  37.928   2.394
51771W        W11307  15.700  14.235  10.448
51772W        W11308  17.678   5.417  14.350
51773W        W11309  16.108   6.411   1.795
51774W        W11310  14.096   4.822   5.129
51775W        W11311  23.122  25.204   0.420
51776W        W11312  37.040  34.956  13.914
51777W        W11313  23.684  11.802  11.876
51778W        W11314  29.483   1.385   2.666
51779W        W11315  33.016   9.376  14.429
51780W        W11316  11.236  41.923   2.409
51781W        W11317  16.206   4.357   0.447
51782W        W11318  33.047  13.632  11.603
51783W        W11319   4.831  17.598   2.794
51784W        W11320  10.352  42.012  14.932
51785W        W11321   4.877  27.619   3.173
51786W        W11322   0.773  16.652   1.708
51787W        W11323  18.569  29.963  12.880
51788W        W11324  30.965  21.111  14.307
51789W        W11325  44.893  15.788   2.263
51790W        W11326   7.697   1.745  13.365
51791W        W11327  30.031  23.714   1.750
51792W        W11328  10.186   0.932  14.927
51793W        W11329  34.438  12.138   1.413
51794W        W11330  26.565  32.096   3.649
51795W        W11331  11.644   7.281  13.901
51796W        W11332  13.699  24.592  14.887
51797W        W11333  40.006  16.610   0.808
51798W        W11334  22.673  17.791   4.677
51799W        W11335  10.154  30.621   9.979
51800W        W11336  33.882  19.619  14.497
51801W        W11337  16.274   6.870   2.699
51802W        W11338  17.239   7.780   0.742
51803W        W11339  25.705  27.180  11.912
51804W        W11340  31.563  18.176  11.953
51805W        W11341  10.238  40.968   0.456
51806W        W11342  18.570   6.183   4.786
51807W        W11343  15.720  26.115  12.492
51808W        W11344  26.689   2.334   2.289
51809W        W11345  25.159  16.240  14.290
51810W        W11346  38.442  28.674  13.492
51811W        W11347  32.032  35.400  10.627
51812W        W11348  32.121   9.242   3.269
51813W        W11349  19.681  36.589   4.673
51814W        W11350  21.647  19.594   2.215
51815W        W11351  37.487  27.133  11.998
51816W        W11352  41.529  32.973  11.023
51817W        W11353   3.452  32.997  11.470
51818W        W11354  23.117  40.487  14.908
51819W        W11355  30.041  20.750  11.587
51820W        W11356   5.876  10.378  11.509
51821W        W11357  37.346   9.243   0.299
51822W        W11358  15.806   0.333  10.565
51823W        W11359  37.553  21.024   3.229
51824W        W11360  22.117  17.287   1.807
51825W        W11361  19.242  32.915   1.303
51826W        W11362   1.974   6.293   2.213
51827W        W11363  13.723  26.676  12.512
51828W        W11364  10.799  32.518   0.303
51829W        W11365  14.613  19.055   2.205
51830W        W11366  39.455  14.301   3.270
51831W        W11367  31.452  22.586   0.774
51832W        W11368  12.158  28.449   4.314
51833W        W11369   0.419   3.444  13.844
51834W        W11370  15.579   7.835  11.435
51835W        W11371  22.219  35.997  14.010
51836W        W11372  19.743  11.339   0.438
51837W        W11373  29.956  41.316   1.719
51838W        W11374  12.804  35.930   2.865
51839W        W11375   5.391   1.449   2.320
51840W        W11376  30.060  19.537   1.708
51841W        W11377  12.785  43.442  14.022
51842W        W11378  26.472  36.432   0.306
51843W        W11379  37.394  11.307   4.211
51844W        W11380  22.091  18.189  12.950
51845W        W11381  28.082  23.677  12.405
51846W        W11382  22.560   0.305  10.531
51847W        W11383  26.129  40.979  14.448
51848W        W11384   7.787  44.870  14.301
51849W        W11385  33.504  21.570   2.733
51850W        W11386  28.997  36.906   1.877
51851W        W11387  13.312  32.468  10.924
51852W        W11388  27.072  12.291   4.241
51853W        W11389  38.376  36.384   1.839
51854W        W11390  39.474  24.685  14.275
51855W        W11391  36.925   3.285  11.547
51856W        W11392  38.494  43.347  11.113
51857W        W11393   8.182   0.378  12.083
51858W        W11394   4.361  17.103   0.483
51859W        W11395  24.680  33.078   3.699
51860W        W11396  17.644  40.547   1.843
51861W        W11397  17.672  39.984  11.893
51862W        W11398  20.557  19.283   5.176
51863W        W11399  43.924  15.813  12.045
51864W        W11400  19.646  20.720  13.005
51865W        W11401  27.487  19.768  11.878
51866W        W11402  41.902  24.685   0.921
51867W        W11403  31.599  17.285  13.922
51868W        W11404  38.350  44.269   1.443
51869W        W11405  31.630  26.074   3.161
51870W        W11406   6.778  39.335  14.294
51871W        W11407  42.492   1.805  12.830
51872W        W11408   3.895   5.806   0.744
51873W        W11409   6.917  23.039   0.471
51874W        W11410  33.584   6.199   0.763
51875W        W11411  11.852  15.175   4.282
51876W        W11412  16.166  29.587  12.029
51877W        W11413  27.103  32.140  13.824
51878W        W11414  16.795  25.043  11.048
51879W        W11415  30.595   3.315  11.532
51880W        W11416  38.331  23.597   4.139
51881W        W11417  11.340  14.670   3.173
51882W        W11418  32.905  13.287  13.394
51883W        W11419  12.787  39.025  10.614
51884W        W11420   5.737  12.715   3.298
51885W        W11421  38.510   4.277   4.295
51886W        W11422   6.753  35.484   2.413
51887W        W11423  11.373  42.327   1.396
51888W        W11424   1.478  31.972   0.385
51889W        W11425  16.279   5.233  13.461
51890W        W11426   9.367   6.824  13.798
51891W        W11427  10.249   1.408  12.459
51892W        W11428  10.261  16.642   1.307
51893W        W11429  22.724  13.803   2.405
51894W        W11430  33.979  36.890   3.659
51895W        W11431  36.868   0.907  11.874
51896W        W11432  11.692  10.287  13.823
51897W        W11433   8.355   8.295  14.888
51898W        W11434   4.845   3.358   5.229
51899W        W11435  15.777  35.530   0.388
51900W        W11436  29.490  13.123  10.525
51901W        W11437  13.291  27.038   1.870
51902W        W11438  25.185  34.958  12.366
51903W        W11439  42.980  41.400  12.943
51904W        W11440  18.225  25.998   4.332
51905W        W11441  41.315   9.697  12.364
51906W        W11442  35.438  20.723  12.472
51907W        W11443   3.339   4.924  13.414
51908W        W11444  33.043  38.534  13.938
51909W        W11445  36.046   5.713  11.072
51910W        W11446  36.525  10.222  13.964
51911W        W11447  22.056  19.276  14.962
51912W        W11448  20.539  27.017   0.918
51913W        W11449  21.572  16.568   4.310
51914W        W11450   2.840   2.237  14.866
51915W        W11451  43.516   9.265  10.944
51916W        W11452  22.511  29.655   1.402
51917W        W11453  24.152  41.795  10.965
51918W        W11454   6.384  10.187  10.564
51919W        W11455   7.233  15.153  11.119
51920W        W11456  27.692  20.157  14.501
51921W        W11457  21.641  38.476  13.379
51922W        W11458  22.041  11.171   4.119
51923W        W11459  28.571  25.598  12.007
51924W        W11460   9.389  38.830   3.709
51925W        W11461   2.833  29.958   4.700
51926W        W11462  33.928   1.338   9.550
51927W        W11463  22.706  13.296  11.450
51928W        W11464  18.190  29.981  12.079
51929W        W11465  44.335   2.926  14.436
51930W        W11466  39.882  19.721   0.311
51931W        W11467  35.395   5.916   2.761
51932W        W11468  26.032  41.955  10.592
51933W        W11469  35.106  30.522  10.151
51934W        W11470  39.001   9.386   0.467
51935W        W11471  33.614  11.685   4.127
51936W        W11472  29.440  27.007   3.385
51937W        W11473  29.131   3.284   3.192
51938W        W11474  13.774  24.132  14.838
51939W        W11475  16.718  31.124  13.877
51940W        W11476  38.525  39.419   0.835
51941W        W11477  28.057  31.112   1.365
51942W        W11478  14.696  42.886   2.379
51943W        W11479   0.869  38.913  10.060
51944W        W11480  36.397   8.252  10.460
51945W        W11481  40.856  18.289  14.812
51946W        W11482  11.192  41.852   3.754
51947W        W11483   8.402  42.420  12.030
51948W        W11484  40.047  33.912   0.919
51949W        W11485   1.838  23.239  11.537
51950W        W11486   0.344  26.502  11.879
51951W        W11487  17.174  39.823  13.791
51952W        W11488  18.157  26.955   4.299
51953W        W11489   0.255  26.654  13.431
51954W        W11490  11.183  36.498  13.821
51955W        W11491  32.535  33.914   1.365
51956W        W11492  16.657  34.500   3.155
51957W        W11493  41.467  42.349   1.735
51958W        W11494  35.008   3.231   1.361
51959W        W11495  37.033  42.374  11.503
51960W        W11496  12.307   0.756  13.448
51961W        W11497  42.351  36.477   2.714
51962W        W11498  32.111   3.791   5.244
51963W        W11499  33.994  39.057   3.381
51964W        W11500  36.037  30.108  12.898
51965W        W11501  24.036  17.573  11.886
51966W        W11502  38.380   2.892   2.684
51967W        W11503   0.805  23.672   0.856
51968W        W11504  20.611  30.937   1.290
51969W        W11505  22.547  27.627   0.803
51970W        W11506  27.165  12.124   1.304
51971W        W11507   9.808  19.251   3.372
51972W        W11508  44.863  16.697  13.535
51973W        W11509  36.503  23.514   0.773
51974W        W11510   6.202   6.309  14.884
51975W        W11511  40.382  34.443  12.085
51976W        W11512  38.385   8.298  13.330
51977W        W11513  44.361  43.805  11.018
51978W        W11514   1.449  10.331  10.435
51979W        W11515  38.938  20.247   0.310
51980W        W11516   1.310  11.719  11.917
51981W        W11517  28.989  28.963  13.362
51982W        W11518  16.309   4.847   3.779
51983W        W11519  40.448  44.987   1.714
51984W        W11520  38.924  20.099  12.505
51985W        W11521  33.435  15.228   2.273
51986W        W11522   6.738  28.655   0.848
51987W        W11523   5.691  27.683  12.899
51988W        W11524  14.613  31.402  13.020
51989W        W11525  22.572  33.030   3.824
51990W        W11526   7.666  13.686   2.277
51991W        W11527  15.194  17.072   4.710
51992W        W11528   0.914   3.798  10.606
51993W        W11529  33.975  32.102  13.363
51994W        W11530  40.528  39.322   1.909
51995W        W11531  37.355  31.510  14.286
51996W        W11532  12.136  21.033   5.300
51997W        W11533  19.647  33.620   2.900
51998W        W11534  18.740  36.858  12.540
51999W        W11535  33.129  20.092   1.387
52000W        W11536  43.779  24.117   4.320
52001W        W11537   1.840  30.120  10.409
52002W        W11538  37.955  40.008  13.394
52003W        W11539  37.831  29.980  11.514
52004W        W11540  26.981  29.524   2.881
52005W        W11541  39.351   9.789   2.406
52006W        W11542  33.056   0.842  11.082
52007W        W11543  20.034  44.425   3.153
52008W        W11544  32.506  22.128  11.468
52009W        W11545  30.015  12.218   2.696
52010W        W11546   1.873  32.027   0.736
52011W        W11547  30.023  36.350   4.210
52012W        W11548  28.552  23.068  14.486
52013W        W11549  20.546   6.797   2.300
52014W        W11550  20.703   5.886  12.376
52015W        W11551  16.088  33.027   2.340
52016W        W11552  15.267  10.165   3.769
52017W        W11553  16.206  27.185   4.208
52018W        W11554   0.929  41.512   4.765
52019W        W11555  41.894  23.581   0.479
52020W        W11556  14.785  43.936  12.906
52021W        W11557  14.714   5.290   3.742
52022W        W11558  17.703  18.103   2.241
52023W        W11559  33.127  42.340   0.799
52024W        W11560  34.092  34.451  13.444
52025W        W11561   4.291  13.292  12.010
52026W        W11562  34.554  12.116   4.284
52027W        W11563  41.812  31.601   3.805
52028W        W11564   8.870  35.394  14.937
52029W        W11565  37.027  32.580   3.755
52030W        W11566  36.460  37.393  14.823
52031W        W11567  40.528  42.780   4.673
52032W        W11568  15.238   9.385   3.869
52033W        W11569   9.388  39.415   1.392
52034W        W11570  42.507  15.327  11.009
52035W        W11571  24.660  25.592   1.892
52036W        W11572  23.593  18.586   3.275
52037W        W11573  23.689  41.466  11.002
52038W        W11574   1.952  37.898   2.332
52039W        W11575  30.066  24.585   2.231
52040W        W11576   7.183  17.696   1.806
52041W        W11577  25.990   3.327  11.015
52042W        W11578  31.056  43.276   0.893
52043W        W11579  21.544  34.603  12.441
52044W        W11580  38.425  39.840  12.548
52045W        W11581  39.552  15.745   2.788
52046W        W11582   7.856  35.102   5.144
52047W        W11583   4.766   5.338  13.337
52048W        W11584  28.594  43.830   4.246
52049W        W11585  39.954   6.310   2.341
52050W        W11586   8.394  32.547  11.598
52051W        W11587  17.796   4.313  11.974
52052W        W11588  41.319  44.361  14.361
52053W        W11589  25.576   8.668   1.797
52054W        W11590  39.433  23.037  10.521
52055W        W11591   8.684  33.117  13.957
52056W        W11592  27.944  44.327   2.292
52057W        W11593  31.922  11.841  12.904
52058W        W11594  43.489  41.856   4.209
52059W        W11595   1.257  10.769   4.129
52060W        W11596  20.055  23.543  12.486
52061W        W11597  38.886  27.080  10.422
52062W        W11598  10.369  33.505   3.726
52063W        W11599  29.125  37.877  12.017
52064W        W11600  20.104   8.209  11.514
52065W        W11601  20.586  41.505  12.999
52066W        W11602  24.213  30.634   4.609
52067W        W11603   1.382   6.812  11.916
52068W        W11604  42.832   3.326   2.180
52069W        W11605  35.393  36.477  13.869
52070W        W11606  10.364  20.032   2.352
52071W        W11607  23.005  33.084   2.751
52072W        W11608   8.299   3.918  14.357
52073W        W11609  26.654  38.924  11.444
52074W        W11610   8.367  17.649   0.417
52075W        W11611  20.080  34.892  12.829
52076W        W11612  37.932  36.501  14.935
52077W        W11613  30.461  23.137   1.413
52078W        W11614  35.885   5.700   0.336
52079W        W11615   9.305  41.337   1.244
52080W        W11616  17.763  17.698   5.172
52081W        W11617   3.811  25.528  14.389
52082W        W11618   7.742   6.276  11.059
52083W        W11619  34.959   6.366   2.396
52084W        W11620  14.294   0.783   3.775
52085W        W11621  18.592  40.366  14.510
52086W        W11622  33.586  26.202  13.455
52087W        W11623   0.894  28.583   0.479
52088W        W11624  23.119  33.042   4.718
52089W        W11625  29.432   3.910  14.474
52090W        W11626  22.745  32.468   1.245
52091W        W11627  40.362  12.692  14.014
52092W        W11628   2.421  19.061   3.865
52093W        W11629  33.995  36.977  13.929
52094W        W11630  33.557  22.672   1.255
52095W        W11631   1.811  37.921  11.916
52096W        W11632   8.220  15.675   2.271
52097W        W11633  18.238  15.199   4.226
52098W        W11634  30.473   6.676   3.686
52099W        W11635   7.370  21.580   3.852
52100W        W11636  38.977  17.266  14.503
52101W        W11637  40.942  39.401   0.791
52102W        W11638   5.791  10.153  12.028
52103W        W11639  32.909   2.877   3.364
52104W        W11640  43.407  35.404  13.370
52105W        W11641  24.620  37.495   1.397
52106W        W11642  44.958  27.463  14.328
52107W        W11643  26.527  25.637   0.430
52108W        W11644   9.674  32.902  11.105
52109W        W11645  37.833  21.204  14.459
52110W        W11646  26.656   0.756   2.405
52111W        W11647   6.190  16.606   2.338
52112W        W11648   0.345  43.002   3.737
52113W        W11649  21.095  37.962  11.425
52114W        W11650   1.313   8.704   1.389
52115W        W11651  35.885  43.977   1.398
52116W        W11652   1.796  25.107  12.034
52117W        W11653  43.785  13.324  10.994
52118W        W11654  26.081  22.141   3.256
52119W        W11655   2.303   9.830  10.891
52120W        W11656   1.303   9.154  13.862
52121W        W11657  11.663  30.155  14.965
52122W        W11658   2.251   7.278  14.504
52123W        W11659  44.298   2.341   3.194
52124W        W11660  21.693   4.297   5.722
52125W        W11661   0.433  40.329   3.214
52126W        W11662  15.663  31.528  12.919
52127W        W11663  38.542   5.256   4.683
52128W        W11664   2.813   3.865   0.384
52129W        W11665  15.159  42.920   4.774
52130W        W11666   3.237  28.646  14.300
52131W        W11667  28.165  38.402   2.373
52132W        W11668  29.080  24.639  14.384
52133W        W11669   6.407  18.647  13.030
52134W        W11670   1.260  37.489  11.536
52135W        W11671  13.772  40.342   0.331
52136W        W11672  10.326  40.992  11.380
52137W        W11673  13.791  44.766  14.778
52138W        W11674  16.157  30.115   4.633
52139W        W11675  16.304  20.586  12.940
52140W        W11676   8.183  35.538  12.571
52141W        W11677  37.551  14.722   1.341
52142W        W11678  12.696  17.793  13.006
52143W        W11679  27.620  21.542   0.833
52144W        W11680  42.015  41.950  13.049
52145W        W11681  41.000  39.016   3.350
52146W        W11682   3.390  38.374  13.318
52147W        W11683   8.749  13.174   0.817
52148W        W11684  30.138  28.598   2.751
52149W        W11685   9.155  10.721  12.563
52150W        W11686  15.254  18.282   2.887
52151W        W11687  39.917   9.864  12.036
52152W        W11688  41.451  10.176   3.752
52153W        W11689  19.714   4.326  13.337
52154W        W11690  34.056  18.134   3.364
52155W        W11691  28.650  14.724   2.755
52156W        W11692   4.776  28.626  11.075
52157W        W11693  25.991   9.291   2.352
52158W        W11694  19.591  41.469   4.751
52159W        W11695   1.794  44.868   3.188
52160W        W11696  33.053  41.444  12.845
52161W        W11697  12.158  38.991  12.389
52162W        W11698  27.634  21.744   4.217
52163W        W11699  30.540  38.996   3.246
52164W        W11700   5.340  15.596  14.897
52165W        W11701  38.441  20.768  11.384
52166W        W11702  21.564   2.750  11.903
52167W        W11703  43.429  30.528   2.409
52168W        W11704  30.601  14.646  11.996
52169W        W11705  22.044  13.813   3.785
52170W        W11706   5.376  21.222  10.588
52171W        W11707  42.360  44.444  13.942
52172W        W11708   4.848  28.643   0.440
52173W        W11709   6.730  43.391   4.776
52174W        W11710  25.544  23.685  10.986
52175W        W11711  33.417  14.158   2.794
52176W        W11712  25.016  42.819   0.763
52177W        W11713  38.989  25.202  10.153
52178W        W11714  30.129  17.175  11.875
52179W        W11715   8.193  11.256  13.307
52180W        W11716  40.895  19.077  11.574
52181W        W11717  33.563   9.875   0.325
52182W        W11718   1.364   1.824  11.429
52183W        W11719  15.799  19.683  12.881
52184W        W11720  44.806  14.815  11.596
52185W        W11721  10.140   4.698  14.822
52186W        W11722  30.911  11.348   4.227
52187W        W11723   2.270  16.117  14.941
52188W        W11724  44.921  40.806  12.871
52189W        W11725   2.724  12.649  12.005
52190W        W11726  27.994   0.792  12.873
52191W        W11727  37.087   4.929  10.990
52192W        W11728  41.840   9.795   4.780
52193W        W11729   4.780  21.211  12.925
52194W        W11730  26.963  13.794   4.609
52195W        W11731  32.573   0.400   4.141
52196W        W11732  28.010  13.645   0.393
52197W        W11733  14.701  25.542  13.820
52198W        W11734  12.716  20.031  12.949
52199W        W11735  20.674   5.268  13.024
52200W        W11736  20.181  31.004   1.836
52201W        W11737   7.666  32.081   4.784
52202W        W11738  44.935  20.124  14.489
52203W        W11739  20.034  16.191  14.499
52204W        W11740  35.401  44.275   4.205
52205W        W11741  31.900  33.003  10.103
52206W        W11742  31.635  36.991   1.325
52207W        W11743  29.036  31.145   3.193
52208W        W11744   9.698   8.898  11.509
52209W        W11745  44.450  19.197  13.894
52210W        W11746   7.191  41.448  10.906
52211W        W11747  40.905  32.968  11.941
52212W        W11748  14.765   4.320  12.064
52213W        W11749  14.712  34.534   1.741
52214W        W11750  38.916  40.841   4.207
52215W        W11751  13.173  44.827   3.157
52216W        W11752  31.465  21.177   3.258
52217W        W11753   9.875  16.666  11.878
52218W        W11754   6.760   1.310   2.707
52219W        W11755  39.819  38.355  10.916
52220W        W11756  27.562  12.151   1.230
52221W        W11757  28.605   0.302  12.054
52222W        W11758   3.454  36.005   0.964
52223W        W11759  11.211  27.521  13.930
52224W        W11760  43.287  42.810   3.291
52225W        W11761  36.497  28.088   0.878
52226W        W11762  34.028  44.984  14.000
52227W        W11763  42.013  26.645  10.418
52228W        W11764  42.397  31.553  11.876
52229W        W11765  35.893  29.976   4.304
52230W        W11766  28.597  23.599   3.641
52231W        W11767  26.181  40.444   2.711
52232W        W11768  22.688  23.089   2.412
52233W        W11769  14.767   0.860   3.299
52234W        W11770  23.730  24.076   1.430
52235W        W11771  29.506  29.149  13.911
52236W        W11772  23.617  14.651   1.836
52237W        W11773  34.605  32.098  14.850
52238W        W11774   0.472  42.017  14.889
52239W        W11775   0.288  29.491  12.918
52240W        W11776  12.248  28.550  10.615
52241W        W11777  34.957  38.850  14.324
52242W        W11778  24.198   6.754  14.946
52243W        W11779   5.207  43.444  10.431
52244W        W11780   0.930  42.334   1.265
52245W        W11781  30.164  37.861  12.903
52246W        W11782  22.546  29.543  11.582
52247W        W11783   4.866  10.323   2.239
52248W        W11784  21.232  38.820   2.767
52249W        W11785  10.233  22.235  14.372
52250W        W11786  24.132   2.792  12.373
52251W        W11787  24.004  27.645   2.198
52252W        W11788   9.731  20.155  12.944
52253W        W11789  13.621  24.694   2.384
52254W        W11790  43.512  16.313  12.028
52255W        W11791  29.469  25.033  11.387
52256W        W11792  43.908  23.160  12.563
52257W        W11793  31.569  15.743   4.197
52258W        W11794  16.629   1.758   3.776
52259W        W11795  30.446  27.182  14.029
52260W        W11796  41.970  14.142  14.464
52261W        W11797  37.840  28.010   2.343
52262W        W11798  17.207   8.378  10.997
52263W        W11799   2.287   2.293  12.430
52264W        W11800  10.271  34.026  11.066
52265W        W11801  31.086  31.505   1.712
52266W        W11802  11.284  36.387  13.502
52267W        W11803  14.594  39.357   3.757
52268W        W11804  27.048  44.854   2.349
52269W        W11805  41.302  35.997  11.429
52270W        W11806  37.468  42.360   4.628
52271W        W11807  30.423   0.356   2.385
52272W        W11808  34.873  15.242   3.204
52273W        W11809  38.473  17.205  13.431
52274W        W11810   2.337   1.305   2.406
52275W        W11811  23.709  22.673  10.913
52276W        W11812  16.656  40.492  14.342
52277W        W11813  19.749  32.887  10.586
52278W        W11814  20.122   5.859  10.551
52279W        W11815  32.900  22.660  14.784
52280W        W11816  10.228  29.543  11.035
52281W        W11817  16.763  19.262  14.394
52282W        W11818  24.143  24.720   4.818
52283W        W11819  32.088   4.762   4.621
52284W        W11820   4.874   7.194   1.308
52285W        W11821  43.808  35.504   2.775
52286W        W11822  44.862  42.396   0.304
52287W        W11823  17.209   8.781  12.528
52288W        W11824   6.849  27.997  12.567
52289W        W11825  33.491   2.463  11.558
52290W        W11826   1.915  21.712   1.717
52291W        W11827   1.865  12.826   0.409
52292W        W11828  34.388  39.507  10.534
52293W        W11829  22.151   9.271   3.196
52294W        W11830   2.293  20.270  10.445
52295W        W11831   6.698  36.992  13.033
52296W        W11832  13.215  19.735  13.509
52297W        W11833   9.809   0.491   4.684
52298W        W11834   2.249  35.406  11.601
52299W        W11835  34.923  34.932  12.419
52300W        W11836   8.662   0.848  12.912
52301W        W11837  44.010  28.955  13.466
52302W        W11838  16.078  28.099  12.966
52303W        W11839  41.362  30.454   0.354
52304W        W11840   5.266  36.348  11.488
52305W        W11841  38.526   5.769  14.873
52306W        W11842   1.406  31.982  10.973
52307W        W11843  34.909  24.486   1.844
52308W        W11844  14.788  38.990   5.301
52309W        W11845   1.287  42.843   1.857
52310W        W11846  13.116  27.168   3.179
52311W        W11847  42.512  26.548  10.550
52312W        W11848  16.093   3.331   0.859
52313W        W11849  44.390  25.019  14.434
52314W        W11850  11.680   2.822  11.971
52315W        W11851  24.210  20.122   3.261
52316W        W11852  37.336  11.834   0.776
52317W        W11853  30.975   5.229   3.855
52318W        W11854  12.258  11.638  11.457
52319W        W11855  16.783  29.996   2.812
52320W        W11856  22.181  32.621   0.280
52321W        W11857  27.963  44.782  11.430
52322W        W11858  32.508   5.419   1.303
52323W        W11859  11.828  37.457  14.337
52324W        W11860  41.991  25.019  14.436
52325W        W11861  23.189  27.076   4.773
52326W        W11862  40.827  10.779   2.702
52327W        W11863  38.005  40.507   4.600
52328W        W11864  22.148  10.264   2.815
52329W        W11865  41.438   6.230   2.846
52330W        W11866  15.276   3.402  11.513
52331W        W11867   8.339  19.040  10.489
52332W        W11868  17.687  33.084  12.016
52333W        W11869  37.568  36.856  14.333
52334W        W11870  33.473   2.931  11.028
52335W        W11871  44.262  30.528   2.716
52336W        W11872  11.148  32.599  10.436
52337W        W11873  19.578  21.619  13.459
52338W        W11874   6.288  14.155  13.356
52339W        W11875  40.940  21.733  13.919
52340W        W11876  29.175  33.130  13.447
52341W        W11877  27.194  31.105   0.448
52342W        W11878   0.955  44.404  11.508
52343W        W11879  36.488  11.337   0.810
52344W        W11880  30.958  31.952  10.068
52345W        W11881  21.707  20.123   9.439
52346W        W11882  39.912  41.970   3.774
52347W        W11883  13.826   9.727   1.360
52348W        W11884  23.491  33.580   3.261
52349W        W11885  44.924  25.084  11.124
52350W        W11886  20.624  22.117   4.175
52351W        W11887  32.558  10.326  14.789
52352W        W11888  19.633  12.638   2.380
52353W        W11889  24.695  38.450   1.901
52354W        W11890  20.644  19.571   3.304
52355W        W11891   7.677   9.249   0.325
52356W        W11892  18.708  42.025   1.884
52357W        W11893  12.744  17.071   4.179
52358W        W11894  25.675   2.793   3.722
52359W        W11895  39.414  39.417   2.757
52360W        W11896   1.800  13.160  12.934
52361W        W11897  10.232  24.225   4.201
52362W        W11898  26.485  21.736  11.034
52363W        W11899   9.276   9.266  10.937
52364W        W11900  32.119  28.528  13.830
52365W        W11901   1.906  16.285  14.464
52366W        W11902  40.446  31.951  11.960
52367W        W11903  23.220  43.909  13.323
52368W        W11904  43.509  44.291  13.378
52369W        W11905   5.789  11.735  10.593
52370W        W11906  14.775  32.044   1.757
52371W        W11907  10.195  16.578  11.071
52372W        W11908   6.268   8.874   2.244
52373W        W11909  16.634  37.954  10.427
52374W        W11910   0.761  22.139   1.308
52375W        W11911  32.432  13.655  14.280
52376W        W11912  15.166  35.107  13.860
52377W        W11913  35.552  22.013   0.852
52378W        W11914  19.656   9.341  10.975
52379W        W11915  36.432   2.742   2.232
52380W        W11916  20.050   3.885   3.342
52381W        W11917  35.993  18.756  12.426
52382W        W11918  23.723   0.960  14.406
52383W        W11919   1.890  11.150   9.585
52384W        W11920  35.989   1.880   0.243
52385W        W11921  17.235  14.730  12.877
52386W        W11922  20.168   4.861   3.268
52387W        W11923  31.056   4.923   3.175
52388W        W11924  31.420   1.898   4.790
52389W        W11925  28.052  15.588   3.792
52390W        W11926   2.278  32.107   3.326
52391W        W11927  39.834   8.662  11.475
52392W        W11928  33.876   9.273   4.674
52393W        W11929  42.303  17.678  10.445
52394W        W11930   6.740  44.933   1.884
52395W        W11931  43.911  10.858   2.280
52396W        W11932   2.828  25.565   1.375
52397W        W11933  24.582  44.846   0.818
52398W        W11934  32.918  30.056   1.370
52399W        W11935   7.822  33.077  14.385
52400W        W11936  13.757  41.940   0.303
52401W        W11937  18.248  13.768  10.911
52402W        W11938  25.652  33.937  14.446
52403W        W11939   4.894  40.523   4.805
52404W        W11940  41.910  42.383   1.413
52405W        W11941  14.274   3.290   4.298
52406W        W11942  36.002  29.023   1.887
52407W        W11943   2.381  33.118   3.369
52408W        W11944  38.819  40.955   1.736
52409W        W11945   9.825  12.252  14.426
52410W        W11946  41.028  16.668   2.758
52411W        W11947  44.502   9.319   3.663
52412W        W11948   7.750   2.410  11.101
52413W        W11949  15.275  38.063   0.908
52414W        W11950  33.902  31.618   3.260
52415W        W11951   6.362  22.103  14.822
52416W        W11952  26.141  21.042  13.861
52417W        W11953  34.891  29.132  11.973
52418W        W11954  14.741  25.001   3.250
52419W        W11955  21.682  12.646  14.018
52420W        W11956   7.807  44.899  10.909
52421W        W11957  22.097  37.019   1.760
52422W        W11958  24.980  16.659   0.423
52423W        W11959  27.048   0.844   2.663
52424W        W11960  27.558   8.695  10.408
52425W        W11961   0.372   1.900   3.778
52426W        W11962  36.011  20.230   0.431
52427W        W11963  43.932  42.432  14.317
52428W        W11964   4.246  33.419   2.701
52429W        W11965  44.485  18.086  12.433
52430W        W11966  13.201  40.538  10.577
52431W        W11967  23.693  37.455   5.283
52432W        W11968  30.626  11.732  12.975
52433W        W11969  17.063  12.344  12.479
52434W        W11970  38.839  34.585   4.164
52435W        W11971  18.123  15.653   4.273
52436W        W11972  16.253  30.978  11.110
52437W        W11973  27.162  40.895   2.865
52438W        W11974   8.663  37.343   4.333
52439W        W11975  14.622  23.066  12.045
52440W        W11976  10.719   8.869  12.919
52441W        W11977  21.624  35.076  12.542
52442W        W11978   6.419   8.192  12.341
52443W        W11979  29.983  42.335  10.477
52444W        W11980  12.187  27.549  14.787
52445W        W11981   4.855  22.726  14.806
52446W        W11982   8.867  12.307   4.637
52447W        W11983  27.953  11.219   2.846
52448W        W11984   0.255  31.038   2.339
52449W        W11985  11.644   1.249   0.763
52450W        W11986  31.923  24.041  12.379
52451W        W11987  32.412   4.788   1.903
52452W        W11988  32.091  42.015  13.902
52453W        W11989   1.390  24.155   4.795
52454W        W11990  17.128  41.043  11.892
52455W        W11991  18.117  43.406   4.191
52456W        W11992   8.207   4.353   2.381
52457W        W11993   4.742  12.630   2.266
52458W        W11994  37.019  31.097  13.478
52459W        W11995   3.323  14.172   1.719
52460W        W11996  33.062  12.686   3.638
52461W        W11997  19.733  32.115  14.433
52462W        W11998  30.073  41.976  14.472
52463W        W11999  19.119  31.629  14.000
52464W        W12000  28.631  30.113  13.534
52465W        W12001   2.941  36.920  11.484
52466W        W12002  24.664  34.474  12.081
52467W        W12003   0.791  19.657   0.478
52468W        W12004  28.675   7.242  12.434
52469W        W12005  16.727  39.438  10.560
52470W        W12006   8.877  31.995   0.346
52471W        W12007  36.473  34.953   1.353
52472W        W12008  23.632  24.139   0.308
52473W        W12009  40.940   4.866  14.817
52474W        W12010  22.164  28.966   4.832
52475W        W12011  28.443  17.655   3.723
52476W        W12012  44.872  21.149   1.927
52477W        W12013  25.608  33.553   2.287
52478W        W12014  15.328  14.784   4.737
52479W        W12015   2.392   8.769   3.331
52480W        W12016   6.697  14.244  12.896
52481W        W12017  18.723  33.454  10.590
52482W        W12018   5.744  39.454  14.514
52483W        W12019   5.832  16.114   3.222
52484W        W12020  44.312  13.732  10.620
52485W        W12021  11.167   8.874   2.376
52486W        W12022  34.550  17.228  11.042
52487W        W12023  31.904  21.078  13.456
52488W        W12024  14.168   4.842   3.267
52489W        W12025  17.648  21.194   1.274
52490W        W12026  10.318  36.847  11.032
52491W        W12027   8.896  10.657  12.828
52492W        W12028  31.422  34.513  11.393
52493W        W12029  35.455  44.810   0.751
52494W        W12030  19.675   7.715  13.002
52495W        W12031   7.353  43.295   3.808
52496W        W12032   1.241  19.668   2.794
52497W        W12033  12.743  13.748   3.328
52498W        W12034  32.446  34.052   1.706
52499W        W12035  42.524  31.490  11.088
52500W        W12036  11.768  35.928   1.229
52501W        W12037  13.674   5.380   1.808
52502W        W12038   4.710   4.899  14.339
52503W        W12039  35.386   8.307  11.461
52504W        W12040  36.590   3.369   2.685
52505W        W12041  10.379   2.230  10.518
52506W        W12042  29.604  32.142   2.278
52507W        W12043  30.422  17.199  13.904
52508W        W12044  24.505   3.324  13.490
52509W        W12045   2.405  14.809   4.174
52510W        W12046   7.242   8.378   2.713
52511W        W12047  33.589  31.115  14.930
52512W        W12048  24.154  30.456   2.402
52513W        W12049   5.852  39.906  10.595
52514W        W12050  17.617  11.368   3.293
52515W        W12051  27.572  43.310   2.225
52516W        W12052  36.888  28.105   4.227
52517W        W12053  22.183  15.166  14.788
52518W        W12054  29.942  16.775   4.731
52519W        W12055  24.663  40.050  10.948
52520W        W12056  29.028  35.398  12.831
52521W        W12057  15.142  41.025  10.428
52522W        W12058  14.268   1.413   1.239
52523W        W12059  22.206   6.210  13.333
52524W        W12060  28.616  36.041  10.609
52525W        W12061  23.137  26.148  13.451
52526W        W12062  36.515  33.095   4.222
52527W        W12063  13.656   0.834   1.368
52528W        W12064  11.634  24.690   4.646
52529W        W12065   0.286  19.197   0.358
52530W        W12066   5.768  43.360   3.195
52531W        W12067   0.884  15.736   3.291
52532W        W12068  16.108  19.062  13.409
52533W        W12069  32.454   7.404   2.343
52534W        W12070  31.924  25.171  13.467
52535W        W12071  17.605  30.027   3.296
52536W        W12072  15.255  23.179   1.908
52537W        W12073  23.662  37.401  11.591
52538W        W12074   6.694  26.485   0.254
52539W        W12075  41.878  25.966  11.498
52540W        W12076  17.606   9.785  10.496
52541W        W12077  20.752  39.054  14.977
52542W        W12078   6.246  39.354   3.239
52543W        W12079  38.428   4.362   1.911
52544W        W12080   2.776  34.060  11.930
52545W        W12081  13.141  22.132   3.831
52546W        W12082  38.974  44.359   1.905
52547W        W12083  24.643   1.474   1.398
52548W        W12084  26.571   1.914   2.227
52549W        W12085  27.193  29.582   4.157
52550W        W12086  28.136  40.448  13.450
52551W        W12087  34.871  32.427   0.735
52552W        W12088  43.896   1.975  11.439
52553W        W12089   9.161  26.562  12.434
52554W        W12090   3.746  37.486  14.874
52555W        W12091  22.140   8.832   1.265
52556W        W12092   4.737  13.758  13.918
52557W        W12093  38.839  40.052  10.986
52558W        W12094   2.336  23.057  13.832
52559W        W12095  18.551  28.566   4.687
52560W        W12096  22.533  38.980   4.129
52561W        W12097  19.197  43.455  14.304
52562W        W12098   8.740   8.751  12.407
52563W        W12099  41.900  30.580   0.926
52564W        W12100  11.243  42.990   2.736
52565W        W12101  28.516  30.018  12.953
52566W        W12102  41.997   4.918   0.483
52567W        W12103  41.339   7.824   1.350
52568W        W12104   8.788  15.248  10.571
52569W        W12105  18.150  24.079   0.760
52570W        W12106   6.306  27.028  11.564
52571W        W12107  11.752  26.168  12.887
52572W        W12108  16.290  33.059  10.932
52573W        W12109   0.302  21.646   0.381
52574W        W12110  39.834  23.019   3.668
52575W        W12111  21.199  27.143  14.416
52576W        W12112  23.539  28.653   3.743
52577W        W12113  11.174  26.602  12.580
52578W        W12114  36.412  43.329   3.146
52579W        W12115  28.480  12.159   4.704
52580W        W12116  13.263  41.959  10.906
52581W        W12117   4.377  23.228   0.824
52582W        W12118  21.548  32.543  14.988
52583W        W12119  34.452  25.589   3.274
52584W        W12120   7.860  23.017   2.248
52585W        W12121   6.406  42.453   1.267
52586W        W12122  13.783   6.319   2.850
52587W        W12123  36.973  32.142  10.103
52588W        W12124  18.572   0.465   0.471
52589W        W12125  38.370  36.872  14.878
52590W        W12126  25.537  39.894   5.217
52591W        W12127  41.995  19.139  12.890
52592W        W12128   7.405  27.684  10.925
52593W        W12129  20.238  18.245  12.571
52594W        W12130  19.281  24.209  11.012
52595W        W12131  26.667  42.361   3.218
52596W        W12132  37.370  19.238  10.889
52597W        W12133  41.841  18.098  13.402
52598W        W12134   0.771  35.367  12.856
52599W        W12135  19.676   1.451   1.910
52600W        W12136  14.748  31.535  11.883
52601W        W12137  24.713  26.979   1.388
52602W        W12138  18.553  14.804   0.405
52603W        W12139  25.549  10.760  14.852
52604W        W12140  30.584   1.968   0.426
52605W        W12141  36.529  23.600   1.255
52606W        W12142  22.608  26.480   2.732
52607W        W12143  25.592  18.614  14.823
52608W        W12144  32.020   2.763   0.845
52609W        W12145  30.431  37.578  12.935
52610W        W12146  16.812   0.371  12.413
52611W        W12147  36.975   1.469  14.486
52612W        W12148  42.360  32.466  11.949
52613W        W12149  30.142  27.596  11.122
52614W        W12150  33.973  34.935  13.889
52615W        W12151  28.570  25.046   3.706
52616W        W12152  13.662   5.833  13.488
52617W        W12153  16.303   1.376  10.550
52618W        W12154   6.743  20.579  12.418
52619W        W12155  26.196  36.420  14.784
52620W        W12156  44.474  30.979  11.485
52621W        W12157  25.994  11.290  14.450
52622W        W12158   7.870  17.242   1.850
52623W        W12159  18.153   2.798  10.633
52624W        W12160  30.506  13.250   1.794
52625W        W12161  35.073  24.061  11.380
52626W        W12162  27.652  38.873  13.800
52627W        W12163  43.840  38.975   2.809
52628W        W12164   8.698  30.454   5.319
52629W        W12165  37.455  10.149  11.610
52630W        W12166   6.751   7.218  14.873
52631W        W12167  33.431  27.542  14.794
52632W        W12168  10.641  27.465  12.085
52633W        W12169  26.015  44.815   2.294
52634W        W12170  13.683  15.242   2.784
52635W        W12171  19.209  25.140   2.899
52636W        W12172  16.687  44.278  12.842
52637W        W12173  38.966  21.245   4.326
52638W        W12174   2.776   3.247   4.258
52639W        W12175  14.096  18.132  13.530
52640W        W12176   3.301  15.597   3.667
52641W        W12177  14.278  17.687   2.744
52642W        W12178  44.787  32.054  12.951
52643W        W12179  36.988   8.822  13.440
52644W        W12180  13.614  17.792  12.488
52645W        W12181  22.128  22.501   4.188
52646W        W12182   1.788   4.771   9.920
52647W        W12183  42.363   6.844  14.003
52648W        W12184  23.524   5.431   3.227
52649W        W12185  12.356   1.838   1.776
52650W        W12186   5.813  30.513  11.467
52651W        W12187  31.149  31.547  13.797
52652W        W12188  13.131  17.761  11.010
52653W        W12189  42.027   8.824  10.010
52654W        W12190  35.545  25.026   3.235
52655W        W12191  37.913  38.519   3.788
52656W        W12192  30.132  13.668   1.924
52657W        W12193  24.591  34.084   2.256
52658W        W12194   1.426  18.627  12.464
52659W        W12195  35.095  44.491  14.836
52660W        W12196   3.787  26.660   2.666
52661W        W12197   3.785  40.437   2.374
52662W        W12198  24.518  38.870  13.334
52663W        W12199  22.637  36.923   0.910
52664W        W12200  20.261  13.841  11.001
52665W        W12201   3.418  29.957  10.921
52666W        W12202  24.991  38.531  12.089
52667W        W12203  32.953  15.113  14.365
52668W        W12204  32.569  25.550  11.861
52669W        W12205   4.746  27.183   0.324
52670W        W12206  33.580  28.617  11.071
52671W        W12207  19.231  38.509  14.991
52672W        W12208  25.707   3.389   3.151
52673W        W12209  40.948  31.455  14.918
52674W        W12210  42.387  14.644  14.477
52675W        W12211  43.302  21.563  14.956
52676W        W12212  33.946  30.593  14.301
52677W        W12213  32.448  18.268  11.100
52678W        W12214  44.906  42.401  11.611
52679W        W12215  12.773   4.774  13.827
52680W        W12216  15.789  34.907   4.707
52681W        W12217  33.061   0.323   5.165
52682W        W12218  22.203   1.889   2.351
52683W        W12219  40.526  18.091   2.382
52684W        W12220  24.583  30.653  14.370
52685W        W12221  17.299   1.845  14.921
52686W        W12222  25.673   8.775  11.914
52687W        W12223  41.799  42.986   2.304
52688W        W12224  30.041  25.088   3.203
52689W        W12225  41.787   3.757  13.913
52690W        W12226  44.445  13.608  14.935
52691W        W12227  22.538  13.679   0.408
52692W        W12228  14.719   1.409  13.520
52693W        W12229  19.246  28.523   1.371
52694W        W12230  32.528  39.331  12.428
52695W        W12231  43.921  16.685  11.498
52696W        W12232   7.837  16.248  13.479
52697W        W12233   2.355  43.404  14.282
52698W        W12234  32.118  27.627  14.469
52699W        W12235  44.402  35.075   1.443
52700W        W12236  15.750  43.807   1.424
52701W        W12237  41.374  19.759  14.907
52702W        W12238  15.814  41.947   1.297
52703W        W12239  23.082  18.756   2.224
52704W        W12240   5.420  44.314   3.769
52705W        W12241  17.216  27.164   2.342
52706W        W12242  26.969  14.339   2.705
52707W        W12243  14.126  39.019  11.595
52708W        W12244  34.496  22.211  12.050
52709W        W12245  34.513  41.862   2.830
52710W        W12246  37.363  12.624  10.448
52711W        W12247  21.225  20.549  10.032
52712W        W12248  33.061  38.848  11.036
52713W        W12249   2.367   0.266  11.462
52714W        W12250  27.978  24.143   4.258
52715W        W12251  28.645  24.999   1.236
52716W        W12252   0.811   7.803  11.957
52717W        W12253  30.128  24.556  11.928
52718W        W12254  12.718  39.425  10.431
52719W        W12255  32.527  22.723   0.353
52720W        W12256  15.759  12.328  10.425
52721W        W12257  16.754  23.642  13.323
52722W        W12258  17.786  21.230  10.924
52723W        W12259  32.500  15.820  12.048
52724W        W12260  44.754  13.296   1.239
52725W        W12261   9.265  36.902   1.889
52726W        W12262   5.784  23.536  13.953
52727W        W12263  30.973  42.457  10.444
52728W        W12264  38.933  11.631  11.445
52729W        W12265  16.639  21.514  11.474
52730W        W12266  12.347  27.594   1.226
52731W        W12267  36.966  10.841  14.904
52732W        W12268  28.435  28.559  10.518
52733W        W12269   1.804   3.857   2.350
52734W        W12270  28.100   5.307   0.858
52735W        W12271   5.875  32.955  12.348
52736W        W12272  40.478  13.127   2.324
52737W        W12273   2.272   7.845  11.997
52738W        W12274  23.990  10.743   2.712
52739W        W12275  28.122  19.048  14.433
52740W        W12276   6.235  35.094  13.016
52741W        W12277  28.005   3.768  10.895
52742W        W12278  10.856  30.625  11.875
52743W        W12279   9.179  22.009   1.898
52744W        W12280  11.312  18.236  10.435
52745W        W12281  35.406   1.899  12.416
52746W        W12282   6.729  39.421   0.890
52747W        W12283  25.691  30.143  12.964
52748W        W12284  11.148  40.354  11.047
52749W        W12285  25.028  14.289   1.705
52750W        W12286  17.762  34.996  14.445
52751W        W12287   1.347  15.789   3.692
52752W        W12288   4.918  28.035  12.387
52753W        W12289  12.692   1.243   4.329
52754W        W12290  18.669  32.089   5.177
52755W        W12291  27.623  16.704   2.398
52756W        W12292  38.352  19.570  10.979
52757W        W12293  19.214   9.204  14.942
52758W        W12294  10.810  20.538  11.062
52759W        W12295   7.255  44.339  10.466
52760W        W12296   3.313  20.248  14.367
52761W        W12297  34.931  11.138  13.877
52762W        W12298  10.156  31.035   5.642
52763W        W12299  41.942  19.650   1.761
52764W        W12300  12.281  20.738  11.112
52765W        W12301   5.327  42.862   2.312
52766W        W12302  18.574  28.518   4.241
52767W        W12303  30.584  16.272  13.862
52768W        W12304   7.849  19.704  14.997
52769W        W12305  12.738  11.689   2.300
52770W        W12306   4.284  40.897   3.777
52771W        W12307  34.047  40.457   3.728
52772W        W12308  32.409  19.608   0.874
52773W        W12309  18.682  15.276   3.800
52774W        W12310  22.743  36.031   1.870
52775W        W12311  35.402   4.753  13.413
52776W        W12312  43.302  15.776  14.945
52777W        W12313  17.721  43.790  13.489
52778W        W12314  14.743  33.513  14.874
52779W        W12315  41.343  28.181  14.914
52780W        W12316  12.756  41.003   0.279
52781W        W12317  20.627  30.141   1.330
52782W        W12318   1.903  44.377   1.447
52783W        W12319  23.670   0.879  10.983
52784W        W12320  37.070  35.931   2.854
52785W        W12321   9.236  11.677  10.040
52786W        W12322  44.489  21.048   1.922
52787W        W12323  11.682  39.952  12.847
52788W        W12324  19.663  39.038   1.751
52789W        W12325  24.684  35.444   0.953
52790W        W12326   8.269  13.648   1.301
52791W        W12327  35.502  33.924   1.752
52792W        W12328   8.253  29.019  12.358
52793W        W12329  13.196   3.423   3.812
52794W        W12330   5.806  34.556  11.439
52795W        W12331  40.955  36.498  13.434
52796W        W12332  41.319  42.031   2.294
52797W        W12333  35.526   3.836   0.431
52798W        W12334   9.646  11.724   3.748
52799W        W12335   1.319  13.183  14.870
52800W        W12336  36.522  35.942   4.345
52801W        W12337  32.632   3.270  13.338
52802W        W12338   1.791  29.026   2.672
52803W        W12339  15.254  24.051  10.537
52804W        W12340  44.261   0.832  13.309
52805W        W12341   8.664   9.300   4.156
52806W        W12342  24.506  36.441  14.366
52807W        W12343  44.945  30.058  13.493
52808W        W12344  36.502  44.325   4.197
52809W        W12345   2.740  12.838   1.892
52810W        W12346  21.174  25.594  11.503
52811W        W12347  43.510   9.227   3.777
52812W        W12348  34.495   5.223  11.931
52813W        W12349  34.011  21.757  11.607
52814W        W12350   2.773  17.100  13.026
52815W        W12351  11.842   5.860   5.651
52816W        W12352  11.651  11.133   4.676
52817W        W12353   3.891  41.894  14.966
52818W        W12354  33.037  27.621   0.345
52819W        W12355   5.247  15.126   1.880
52820W        W12356  19.197   9.683  13.505
52821W        W12357   3.950  26.118   5.695
52822W        W12358  32.577  24.114   2.672
52823W        W12359  41.818  10.634  11.125
52824W        W12360  42.887  12.221  12.033
52825W        W12361  37.383  23.119   1.237
52826W        W12362  31.469  37.555  13.962
52827W        W12363  15.710  29.536   2.824
52828W        W12364  28.503  28.071   2.749
52829W        W12365  23.572  39.550  13.470
52830W        W12366  11.868  23.139   3.153
52831W        W12367  40.837  24.484   2.798
52832W        W12368  22.672   7.745   1.857
52833W        W12369   7.357  33.019  14.002
52834W        W12370  22.747  43.956  13.355
52835W        W12371  14.754  22.598   1.897
52836W        W12372   0.977  13.736  14.967
52837W        W12373  25.577  29.995  12.490
52838W        W12374  35.926  40.500  14.384
52839W        W12375   8.171  10.380  10.986
52840W        W12376  40.042  10.725  11.864
52841W        W12377  42.380  24.208  11.949
52842W        W12378  28.119  34.613  13.808
52843W        W12379  17.157  32.885   3.171
52844W        W12380  34.419  36.350   0.424
52845W        W12381   6.360  25.097  13.428
52846W        W12382  25.676  35.551   2.260
52847W        W12383   7.761  15.226  13.307
52848W        W12384  21.059   0.316  12.873
52849W        W12385  17.123  44.894  12.347
52850W        W12386   6.193  36.867  13.492
52851W        W12387  22.629  41.947  13.995
52852W        W12388  13.615  34.882   2.359
52853W        W12389  38.927  33.884  11.494
52854W        W12390  38.864  36.458  13.406
52855W        W12391  35.547   7.315  13.402
52856W        W12392  28.455   4.798   4.646
52857W        W12393  19.103  41.461  10.983
52858W        W12394  15.699  19.242   9.959
52859W        W12395  12.625   4.874  13.364
52860W        W12396  44.428  22.563   0.834
52861W        W12397  24.221  16.281   0.780
52862W        W12398   9.346   8.792   1.808
52863W        W12399  34.449  30.135   2.685
52864W        W12400  24.576  28.994   0.885
52865W        W12401  11.264  11.166   9.562
52866W        W12402   9.319  13.279   1.784
52867W        W12403  17.200   0.462  11.494
52868W        W12404  42.346  13.204   1.354
52869W        W12405  30.955  10.187   1.390
52870W        W12406  41.798   6.695  11.088
52871W        W12407  21.039  30.609  14.008
52872W        W12408   8.376   0.836  14.355
52873W        W12409   8.795  19.047   1.433
52874W        W12410  43.842  15.713   4.787
52875W        W12411  27.491  37.353   3.234
52876W        W12412   7.294  15.742  10.585
52877W        W12413  25.512  39.876   1.909
52878W        W12414  22.529   3.347   2.275
52879W        W12415   4.933  39.813  13.386
52880W        W12416  20.087  28.096  11.118
52881W        W12417  18.056  21.606   0.264
52882W        W12418   2.254  13.226   0.387
52883W        W12419  25.573  11.645  10.612
52884W        W12420  24.045  34.015  13.848
52885W        W12421  12.178  25.655  11.388
52886W        W12422  27.138  12.830  14.978
52887W        W12423   5.429  35.914   3.263
52888W        W12424  31.467  18.135   3.771
52889W        W12425  32.393  24.227   4.601
52890W        W12426   7.749   0.363  12.008
52891W        W12427  16.298  22.008  14.325
52892W        W12428  36.865  21.653   2.215
52893W        W12429  44.409  12.354   4.739
52894W        W12430   0.300  44.392  13.425
52895W        W12431   9.299  10.156  10.544
52896W        W12432  19.604  21.229   4.222
52897W        W12433  15.106  31.519   4.696
52898W        W12434  33.959  25.649   3.320
52899W        W12435  28.521  37.036  11.951
52900W        W12436  33.579  44.485   1.312
52901W        W12437  38.021   8.242   1.240
52902W        W12438  43.372  21.259   1.735
52903W        W12439   3.411  16.619  14.952
52904W        W12440  38.377  43.356   3.195
52905W        W12441  29.133  36.500   2.250
52906W        W12442  17.664  33.888   0.293
52907W        W12443  25.985   7.409  13.870
52908W        W12444  17.133  14.675  12.455
52909W        W12445  14.222  39.884   2.365
52910W        W12446  32.475  43.996   2.403
52911W        W12447  28.608   2.848  11.889
52912W        W12448  27.995  22.584  13.320
52913W        W12449  22.541  32.411   1.727
52914W        W12450  24.101  30.136  10.957
52915W        W12451  15.327  26.606  10.410
52916W        W12452   1.743  23.195  11.128
52917W        W12453   0.947  43.300   4.612
52918W        W12454   9.687  38.980   3.846
52919W        W12455  17.786   0.281   4.333
52920W        W12456   6.364  38.904   1.774
52921W        W12457  29.004  33.512  14.808
52922W        W12458  19.636  33.874   4.761
52923W        W12459  34.517  37.939   1.332
52924W        W12460  43.982  15.164   2.755
52925W        W12461   6.695  31.077  12.571
52926W        W12462   3.759  29.451   3.850
52927W        W12463   9.803  16.243   3.283
52928W        W12464  26.622  16.625  10.962
52929W        W12465  24.569   2.870  11.861
52930W        W12466  35.394  16.783   4.196
52931W        W12467  32.113  41.360   2.853
52932W        W12468  44.425  19.621   2.896
52933W        W12469  34.072   5.343   3.254
52934W        W12470   4.790  44.008   2.221
52935W        W12471  43.427   3.267  12.996
52936W        W12472  26.047  28.677  10.556
52937W        W12473  40.432  41.990   2.683
52938W        W12474   2.720  29.111  14.809
52939W        W12475  30.123  33.036   1.396
52940W        W12476   0.374  35.907   3.741
52941W        W12477  39.413  23.024   2.203
52942W        W12478   8.808  17.797   1.250
52943W        W12479  27.540  30.958   4.162
52944W        W12480   4.437  26.061   9.546
52945W        W12481   9.719  35.567  11.008
52946W        W12482  20.534   8.377  12.486
52947W        W12483  27.156  36.358  12.060
52948W        W12484  35.011  43.833   3.745
52949W        W12485  21.676   4.347  11.011
52950W        W12486  12.130  30.992  13.452
52951W        W12487  34.404  10.858   3.827
52952W        W12488  15.663   7.729   0.451
52953W        W12489  17.782  14.721  10.476
52954W        W12490  44.447  31.622   0.788
52955W        W12491  13.710  36.465   3.785
52956W        W12492  15.092   4.384  13.799
52957W        W12493  24.494   8.815  13.029
52958W        W12494  32.399  23.115  13.980
52959W        W12495  37.916  17.147  14.860
52960W        W12496  10.320  27.513  14.506
52961W        W12497   8.844   8.799  11.961
52962W        W12498  26.655  29.148  12.504
52963W        W12499  10.251  12.315   4.773
52964W        W12500  17.705  38.949   0.298
52965W        W12501  13.748  24.702   1.386
52966W        W12502  18.080  16.096  11.439
52967W        W12503   7.769  43.985   4.668
52968W        W12504  29.443  33.114  13.979
52969W        W12505  29.942  38.939  12.971
52970W        W12506   3.923  41.029  12.958
52971W        W12507  16.122  22.030   4.156
52972W        W12508  42.822  37.862   1.903
52973W        W12509  28.044  41.009   0.454
52974W        W12510  43.019  33.023  14.448
52975W        W12511  34.929  27.614   1.918
52976W        W12512   2.357  33.593   3.311
52977W        W12513  24.492  38.035  13.863
52978W        W12514  12.358   0.289  11.935
52979W        W12515  30.518   0.429  13.973
52980W        W12516  16.736  19.609  11.947
52981W        W12517  44.924  39.956   3.715
52982W        W12518  15.616  31.015   2.346
52983W        W12519   9.337  22.504   4.637
52984W        W12520  33.477  24.112   4.182
52985W        W12521  24.479  38.873  11.398
52986W        W12522  44.481  22.136   1.370
52987W        W12523  36.391  41.340   2.398
52988W        W12524  31.454  17.674  14.465
52989W        W12525  10.816  25.978   2.267
52990W        W12526  39.963  33.448   0.789
52991W        W12527  21.143  33.402  14.906
52992W        W12528  39.926   4.257   4.272
52993W        W12529   7.906  32.033  13.049
52994W        W12530  12.769   7.292   1.871
52995W        W12531  38.494  34.598  10.950
52996W        W12532  32.938  27.692   1.876
52997W        W12533  17.555  14.772   0.763
52998W        W12534  11.325  12.176   4.196
52999W        W12535  33.995  19.245  14.898
53000W        W12536  20.579   0.755   3.723
53001W        W12537  19.638   6.703  10.567
53002W        W12538  30.924  41.993   2.765
53003W        W12539   8.709  28.034  12.057
53004W        W12540  42.477  23.622  10.451
53005W        W12541  38.973  10.707   1.298
53006W        W12542  40.334  28.995   5.265
53007W        W12543   1.476  17.713  13.358
53008W        W12544  17.795  40.397   2.675
53009W        W12545  25.633  32.627  13.510
53010W        W12546  42.806  30.075   2.294
53011W        W12547  18.679  41.376   0.386
53012W        W12548  26.517  38.003   3.699
53013W        W12549   2.273   3.227   5.100
53014W        W12550  15.689  34.566   0.309
53015W        W12551  40.432  37.457  10.091
53016W        W12552   6.262  24.615   1.256
53017W        W12553  40.974  22.624   4.250
53018W        W12554   5.316  16.257  13.463
53019W        W12555  21.057   5.690   3.837
53020W        W12556  36.075  17.112  14.018
53021W        W12557  28.636  12.682   0.761
53022W        W12558   9.358   1.844   4.744
53023W        W12559  22.034  24.065   1.327
53024W        W12560   9.326  20.198  13.851
53025W        W12561  40.003  18.760   4.230
53026W        W12562  12.741  32.471  10.460
53027W        W12563  38.060  11.340   4.615
53028W        W12564  20.645  17.285   0.815
53029W        W12565  36.362  43.819   1.444
53030W        W12566  23.987  40.403  11.037
53031W        W12567  14.803  17.635   1.381
53032W        W12568  17.085  35.519  12.898
53033W        W12569  16.776  15.708  13.404
53034W        W12570   3.943  24.149  12.357
53035W        W12571  21.247  10.800   1.926
53036W        W12572  38.361  40.990   0.362
53037W        W12573   2.844  12.339   0.814
53038W        W12574  33.440   3.772   1.737
53039W        W12575  29.655  33.128  10.474
53040W        W12576  26.665  28.183   3.295
53041W        W12577  12.653  20.534  11.980
53042W        W12578   5.325  11.702  13.478
53043W        W12579  34.916  12.645   1.858
53044W        W12580  37.953  15.712  13.322
53045W        W12581  19.705  43.394   2.406
53046W        W12582  20.197  25.103   4.175
53047W        W12583  25.973  31.580   0.748
53048W        W12584  24.093   3.906  14.766
53049W        W12585  30.961  42.382   0.337
53050W        W12586  43.442   9.155  14.419
53051W        W12587   8.286  31.630  13.923
53052W        W12588  27.509  37.543   1.724
53053W        W12589  33.105  27.073   1.917
53054W        W12590  29.933   1.745   0.847
53055W        W12591  41.952  41.865  12.365
53056W        W12592  34.410  23.074   0.308
53057W        W12593  41.907   5.890   1.874
53058W        W12594  26.111  25.618   1.361
53059W        W12595  15.152  32.427   1.242
53060W        W12596  44.861   9.320  10.471
53061W        W12597  43.395  34.452  11.517
53062W        W12598  32.919  18.773  13.894
53063W        W12599  24.520  38.055   1.831
53064W        W12600   9.229  42.455   4.335
53065W        W12601   8.402  38.923   0.802
53066W        W12602  43.005  14.639  13.348
53067W        W12603  23.544   7.269   5.279
53068W        W12604  26.967   0.751  10.635
53069W        W12605  23.097   7.735  12.958
53070W        W12606  40.327   6.220  12.516
53071W        W12607  43.994   6.403  11.526
53072W        W12608  19.170  38.042   1.339
53073W        W12609  33.026  40.425  13.527
53074W        W12610  26.040   0.853  10.617
53075W        W12611   3.791  33.414   4.746
53076W        W12612  11.279  17.631   2.719
53077W        W12613   5.882  24.704   0.758
53078W        W12614  15.084  43.816  14.468
53079W        W12615  29.976   1.341   2.774
53080W        W12616  20.620   9.298   0.763
53081W        W12617  34.551  27.524   1.725
53082W        W12618  11.189  27.493  12.432
53083W        W12619  44.338  39.848   2.310
53084W        W12620  17.209  39.817  12.523
53085W        W12621  41.797  17.113   0.340
53086W        W12622   6.341  30.969   0.306
53087W        W12623  39.452  29.959   1.716
53088W        W12624  40.939  40.407  11.465
53089W        W12625   3.234   5.278  14.349
53090W        W12626  41.033  40.811  11.068
53091W        W12627  38.828  18.720   1.400
53092W        W12628  34.507   1.404   9.607
53093W        W12629  39.420   3.336   0.881
53094W        W12630  15.587  14.598  13.437
53095W        W12631  12.241  12.696  12.346
53096W        W12632   7.383  40.429  10.982
53097W        W12633   5.749  25.575   0.830
53098W        W12634  30.639  22.709  13.003
53099W        W12635   1.299  32.428  12.838
53100W        W12636   0.407  37.431  10.516
53101W        W12637   3.730  37.027  14.934
53102W        W12638  33.116  40.531   1.728
53103W        W12639   1.751  33.436   4.191
53104W        W12640  10.185  25.119  13.892
53105W        W12641  24.193  39.442  12.923
53106W        W12642  20.575  27.637   2.181
53107W        W12643  29.583  34.400  11.492
53108W        W12644  11.200  11.693  10.022
53109W        W12645  17.560  11.661   4.746
53110W        W12646  23.990  20.760   1.873
53111W        W12647   6.691  23.637  13.497
53112W        W12648  13.695  34.543   1.346
53113W        W12649  21.223  26.522  12.393
53114W        W12650  37.557  36.863   0.440
53115W        W12651  42.981   8.344   3.188
53116W        W12652  11.635   5.800  14.981
53117W        W12653   5.279   6.857   0.776
53118W        W12654   8.172   1.436  11.878
53119W        W12655   2.300   7.871   2.671
53120W        W12656  24.682  32.052  13.363
53121W        W12657  27.177  11.277   3.651
53122W        W12658  24.636  18.157   3.255
53123W        W12659   9.266  20.245  12.464
53124W        W12660  31.535   3.911   1.869
53125W        W12661  42.435  25.080  11.434
53126W        W12662  19.618  20.060   3.681
53127W        W12663  25.563   1.452   3.147
53128W        W12664  37.439  15.611  13.314
53129W        W12665  39.981  34.961  11.502
53130W        W12666  38.342  44.850   0.447
53131W        W12667   7.335  22.716   0.396
53132W        W12668  43.928  37.883   3.210
53133W        W12669  25.124  38.007  13.054
53134W        W12670  40.390  26.019   1.718
53135W        W12671  11.306  42.410   0.329
53136W        W12672  22.698   8.719   2.236
53137W        W12673  35.490  19.584   0.459
53138W        W12674  28.638   4.440  13.502
53139W        W12675   7.884  14.594  14.429
53140W        W12676   0.334  43.934   2.872
53141W        W12677  17.210  43.384  12.442
53142W        W12678  33.905  43.769  11.398
53143W        W12679  15.610   9.187  14.860
53144W        W12680  11.304   5.369  14.789
53145W        W12681   2.893  26.116  13.363
53146W        W12682  11.788   3.841  12.340
53147W        W12683  16.127   2.404   4.702
53148W        W12684  24.068   3.243   1.228
53149W        W12685   7.300  29.023  11.100
53150W        W12686  30.497  28.143   0.946
53151W        W12687  17.062  40.505   3.846
53152W        W12688  39.877  25.206  14.431
53153W        W12689  44.444  35.996   1.718
53154W        W12690   3.438  32.604  11.125
53155W        W12691  39.475  19.614  13.328
53156W        W12692  44.301  43.861   2.757
53157W        W12693  15.135   8.809   1.418
53158W        W12694  12.616  14.313   4.342
53159W        W12695  32.909  38.538  10.435
53160W        W12696  13.217  37.841  13.843
53161W        W12697   6.816  37.830  12.898
53162W        W12698  28.976  40.429   4.670
53163W        W12699  42.791  35.001  10.481
53164W        W12700  11.823  20.059   0.450
53165W        W12701  29.645  40.820  13.993
53166W        W12702  38.044  36.021   2.368
53167W        W12703  18.647  26.190  10.909
53168W        W12704  19.206  37.045  14.344
53169W        W12705  25.088  35.885   0.317
53170W        W12706   3.718  37.524  12.074
53171W        W12707  31.571  16.796   4.186
53172W        W12708  12.335   2.350   4.319
53173W        W12709  33.449  24.215  11.545
53174W        W12710   6.309  40.962  13.957
53175W        W12711  27.168  24.659  13.435
53176W        W12712  21.079  13.129   3.194
53177W        W12713  34.876   3.436  13.878
53178W        W12714  33.032  35.962  11.079
53179W        W12715   8.391  12.137  12.824
53180W        W12716   4.788  37.423   0.962
53181W        W12717   6.712  18.611   3.759
53182W        W12718  10.656  19.157  11.442
53183W        W12719   3.358  11.855  11.044
53184W        W12720  29.545  38.956  14.495
53185W        W12721  13.239  24.225  11.380
53186W        W12722  21.728  17.225   0.380
53187W        W12723  20.595  12.186   4.814
53188W        W12724  25.116  14.714  13.369
53189W        W12725  30.055  27.996   1.248
53190W        W12726  10.336  27.619  12.079
53191W        W12727   4.279   9.320   3.171
53192W        W12728  36.857   0.959   0.793
53193W        W12729  12.821  31.988  14.908
53194W        W12730   9.367   6.183  11.393
53195W        W12731  34.535  14.644   2.762
53196W        W12732  15.607   3.232  12.431
53197W        W12733  45.000  19.220   4.679
53198W        W12734   0.829  29.509  14.382
53199W        W12735   8.174  43.336  11.528
53200W        W12736   0.486  28.097   1.294
53201W        W12737  16.584   1.855  13.532
53202W        W12738  28.093  13.324  11.968
53203W        W12739  22.196   1.332   9.657
53204W        W12740  33.900   3.269   2.775
53205W        W12741  18.722  40.840   1.267
53206W        W12742  30.990  24.196   4.117
53207W        W12743  37.510  37.360  14.447
53208W        W12744  16.686   2.436  11.464
53209W        W12745  39.458  16.766   1.743
53210W        W12746   1.904  10.373  13.027
53211W        W12747  44.962  40.409  13.539
53212W        W12748  38.442  36.005  10.468
53213W        W12749  16.683  17.258  11.610
53214W        W12750  40.858  27.161  13.905
53215W        W12751  23.018  37.082   0.467
53216W        W12752  14.109  16.718   0.308
53217W        W12753  27.995   3.432   3.663
53218W        W12754  27.677  26.547   0.941
53219W        W12755  33.015   9.363  10.532
53220W        W12756   7.347   0.326  14.913
53221W        W12757   5.338  15.616  10.962
53222W        W12758  27.647   7.386   2.353
53223W        W12759   6.895   7.808   2.290
53224W        W12760  37.899  41.294  11.919
53225W        W12761  41.973  21.631   3.867
53226W        W12762  25.114  14.765   4.618
53227W        W12763  11.704  28.537  12.541
53228W        W12764  38.842  17.649   0.853
53229W        W12765  21.706  19.719   5.698
53230W        W12766  25.181  24.108   2.352
53231W        W12767  28.444  17.739  11.470
53232W        W12768  27.049  21.220  11.129
53233W        W12769  14.312  33.608   4.331
53234W        W12770  22.621  14.809   1.791
53235W        W12771  39.813   6.733   3.230
53236W        W12772  32.930  21.584   0.341
53237W        W12773  42.515  38.885   2.196
53238W        W12774  44.456  29.589  11.046
53239W        W12775  37.852  40.350   0.406
53240W        W12776   8.717  15.610  13.322
53241W        W12777  10.321  22.103  12.918
53242W        W12778  39.449  22.715   4.335
53243W        W12779  37.444   5.836   3.843
53244W        W12780  19.180   6.336  12.935
53245W        W12781  36.028   2.867  11.065
53246W        W12782   7.294  29.612   1.799
53247W        W12783  41.800  10.722   0.405
53248W        W12784  24.024   6.343   4.123
53249W        W12785  27.190  24.201  12.865
53250W        W12786   0.365  30.614  11.016
53251W        W12787  41.879  44.757   4.234
53252W        W12788   5.211  10.242   2.379
53253W        W12789  18.688  21.112   5.081
53254W        W12790  40.352   1.361  10.599
53255W        W12791  40.390  38.959   4.622
53256W        W12792  28.083  42.934  12.855
53257W        W12793   6.826   0.321   4.676
53258W        W12794  22.501  44.934   2.410
53259W        W12795  19.091   2.261  11.449
53260W        W12796  10.840  17.765   4.351
53261W        W12797  22.665  33.912  13.361
53262W        W12798   7.905  21.027   3.654
53263W        W12799   0.259  18.750   1.233
53264W        W12800  26.485   3.456   0.258
53265W        W12801  33.482   7.179  14.011
53266W        W12802  30.417  20.207   3.715
53267W        W12803  12.810  20.763   1.216
53268W        W12804   2.428  37.428   0.443
53269W        W12805  28.534  35.529  14.461
53270W        W12806  35.880   9.382  10.951
53271W        W12807  43.510  12.611  13.829
53272W        W12808  34.443  43.955  11.085
53273W        W12809  24.025   6.735   4.617
53274W        W12810   2.906  42.516   1.249
53275W        W12811  17.088   2.787   1.234
53276W        W12812   9.222  26.456  13.332
53277W        W12813  27.139  44.505  11.865
53278W        W12814  24.588   7.856  12.952
53279W        W12815  37.384  17.594   3.655
53280W        W12816  17.226  17.208  14.398
53281W        W12817  28.581  21.073   1.446
53282W        W12818  30.042  18.766   1.319
53283W        W12819   3.771  17.107   3.761
53284W        W12820   2.855   0.880   3.361
53285W        W12821  14.826  24.099   2.829
53286W        W12822  19.255   9.862  12.946
53287W        W12823  18.183  22.517   2.698
53288W        W12824  22.659  29.575   4.254
53289W        W12825  17.655  19.752  12.359
53290W        W12826  34.925   9.735  14.874
53291W        W12827  14.805  14.293   1.838
53292W        W12828  10.846  40.449  14.275
53293W        W12829  38.953  31.080   4.625
53294W        W12830  22.020  15.269  10.635
53295W        W12831   0.910  32.925   4.258
53296W        W12832  37.892  41.831   1.306
53297W        W12833  23.731  34.954  12.853
53298W        W12834  13.272  39.464   3.643
53299W        W12835  16.147  27.509   4.759
53300W        W12836  21.104  31.437  11.923
53301W        W12837  18.064  36.041   3.706
53302W        W12838  14.277  41.006   2.716
53303W        W12839  12.282  31.472  13.448
53304W        W12840  21.022  43.943  12.354
53305W        W12841  32.125   1.969   1.230
53306W        W12842  41.967  38.858  14.015
53307W        W12843  37.034  21.566   3.155
53308W        W12844  31.139  32.041   3.322
53309W        W12845  10.722  40.340  12.876
53310W        W12846  43.400  44.942   0.879
53311W        W12847   8.873   0.747   2.392
53312W        W12848  30.033  20.560   2.828
53313W        W12849   4.819  26.642   4.286
53314W        W12850  44.350  36.348   0.775
53315W        W12851  44.403  15.300   2.226
53316W        W12852   8.327  14.199  11.532
53317W        W12853  32.399   7.904   1.391
53318W        W12854  19.071  16.670   4.684
53319W        W12855   7.838  12.202  14.780
53320W        W12856  17.686  44.348   1.724
53321W        W12857  25.215  34.950  12.856
53322W        W12858  25.628  19.070   3.839
53323W        W12859  33.932  12.362  12.457
53324W        W12860  39.382  35.594  11.898
53325W        W12861  20.551   3.716   2.794
53326W        W12862  13.805  20.051   0.255
53327W        W12863  13.731  19.153   2.702
53328W        W12864  40.481  25.547   0.361
53329W        W12865  20.261  35.493  13.437
53330W        W12866  40.046  26.091   2.209
53331W        W12867  30.941   2.302   3.809
53332W        W12868   5.225  28.626  11.055
53333W        W12869  17.142   5.288   3.197
53334W        W12870   7.702   3.938   4.809
53335W        W12871   0.782   7.290  10.916
53336W        W12872  43.392  36.556  14.972
53337W        W12873   1.376   2.426  10.933
53338W        W12874   7.802  22.576   3.808
53339W        W12875   4.282  19.737   4.809
53340W        W12876  10.648  39.928   0.242
53341W        W12877  37.983  22.734   4.174
53342W        W12878  42.996   9.824  13.860
53343W        W12879  12.734  18.253  11.419
53344W        W12880   1.785  41.331  10.994
53345W        W12881  20.165  28.621   1.374
53346W        W12882  32.442   6.808  12.432
53347W        W12883   6.880  35.365  14.910
53348W        W12884  36.995  11.193   3.736
53349W        W12885   3.799  37.962  12.988
53350W        W12886  14.727   2.821   3.802
53351W        W12887  18.235   0.385   1.918
53352W        W12888   4.855   7.712   0.921
53353W        W12889   8.208  31.580  10.979
53354W        W12890  10.834  34.027  12.561
53355W        W12891  39.828  36.092   4.172
53356W        W12892  17.234  36.014   2.752
53357W        W12893   5.834  12.197  11.381
53358W        W12894  18.263  26.647   0.798
53359W        W12895  13.731  40.332  14.467
53360W        W12896  43.836  36.579   2.264
53361W        W12897  33.594  25.636   2.874
53362W        W12898  10.774  12.340   1.712
53363W        W12899  10.219   3.383  12.880
53364W        W12900  14.234  19.143   3.240
53365W        W12901  21.627  23.552   3.710
53366W        W12902   6.791  21.143  14.992
53367W        W12903  32.045  21.180   3.181
53368W        W12904  38.561  32.440   2.789
53369W        W12905  29.167   8.351   0.815
53370W        W12906  13.762   1.374  12.879
53371W        W12907  21.629  17.778   4.671
53372W        W12908   7.811  28.993   1.815
53373W        W12909  11.832   0.442  14.779
53374W        W12910  16.209  42.003  14.500
53375W        W12911   7.220  39.542  14.808
53376W        W12912  34.989  25.507   5.173
53377W        W12913  43.371   3.403   3.190
53378W        W12914  23.015   8.165   3.220
53379W        W12915   9.837  39.473   0.303
53380W        W12916  20.201   7.239   3.778
53381W        W12917  17.755  23.679   4.792
53382W        W12918  39.904   5.732   2.240
53383W        W12919  34.477  44.829   2.841
53384W        W12920  40.340  11.297   5.309
53385W        W12921  32.515  32.613  13.485
53386W        W12922  13.214  22.589   4.232
53387W        W12923   2.409  34.470   4.673
53388W        W12924  40.848   6.910  14.857
53389W        W12925   6.185   9.737  13.543
53390W        W12926  30.528  23.599   1.795
53391W        W12927  26.155  20.622  14.918
53392W        W12928  28.557   0.326   3.182
53393W        W12929  15.287  20.100   2.776
53394W        W12930  13.723  13.328   1.226
53395W        W12931  44.884   2.923   0.362
53396W        W12932  13.758   0.335   1.923
53397W        W12933   3.716  14.339  10.138
53398W        W12934   0.842  25.025   1.924
53399W        W12935  41.984   6.255   1.288
53400W        W12936  23.653  37.970   3.677
53401W        W12937  41.470  34.877  14.014
53402W        W12938  32.584  27.629   5.241
53403W        W12939  30.979  42.334  10.935
53404W        W12940   5.797  11.722  12.386
53405W        W12941   4.437  12.282  11.493
53406W        W12942   9.177  17.267  10.591
53407W        W12943  38.447  14.158   4.743
53408W        W12944   4.790  41.920   0.366
53409W        W12945  29.068   6.735   0.823
53410W        W12946   0.283  30.559  14.973
53411W        W12947  37.550  17.219  10.554
53412W        W12948  13.207   2.792   1.737
53413W        W12949   6.223  32.963  10.610
53414W        W12950  25.033  25.167   1.341
53415W        W12951  11.863   6.850   3.870
53416W        W12952  21.670  36.418   9.540
53417W        W12953  17.189  23.558  12.357
53418W        W12954   8.242  15.801   3.165
53419W        W12955  31.407  33.968   3.706
53420W        W12956  25.550  12.756  11.965
53421W        W12957   7.742  37.453   0.903
53422W        W12958  44.354  31.597  13.328
53423W        W12959   8.246   9.268  13.388
53424W        W12960   4.831  25.194   0.748
53425W        W12961  31.072  11.749  12.501
53426W        W12962  21.623  14.236  11.982
53427W        W12963   6.891  23.985   2.349
53428W        W12964  36.539  28.992  13.966
53429W        W12965  19.678  15.192   2.701
53430W        W12966   1.946  41.847   0.292
53431W        W12967  17.220   3.379   5.206
53432W        W12968   6.425  23.071  14.412
53433W        W12969  15.680  21.519  13.995
53434W        W12970  29.989  33.490  12.474
53435W        W12971  44.810   1.923   4.648
53436W        W12972  14.775  19.617  12.091
53437W        W12973  42.494  36.883   1.930
53438W        W12974   4.381  28.554   0.436
53439W        W12975  25.059  32.579   3.238
53440W        W12976   0.831  32.525   2.281
53441W        W12977  35.072  33.025   3.233
53442W        W12978  20.209  20.172   1.263
53443W        W12979  36.437  38.072  10.509
53444W        W12980  14.295  42.800   0.739
53445W        W12981  37.411  28.000  14.359
53446W        W12982   8.198  13.121  14.875
53447W        W12983   7.362   1.802   1.774
53448W        W12984  29.102  16.154  13.034
53449W        W12985  10.715  30.056   0.910
53450W        W12986   8.738  12.804   1.912
53451W        W12987   5.225  13.198   0.336
53452W        W12988  38.334  38.374   3.362
53453W        W12989  13.635  20.646  12.848
53454W        W12990  43.471   9.255  12.383
53455W        W12991  29.656  30.637  14.992
53456W        W12992  39.373   5.285   4.767
53457W        W12993  25.659   2.363  11.868
53458W        W12994  17.112   0.961   3.868
53459W        W12995  40.344  35.923   3.771
53460W        W12996  22.746  18.285   2.182
53461W        W12997  30.989  23.584   1.746
53462W        W12998  18.147  10.867  11.423
53463W        W12999   7.267  42.309   4.336
53464W        W13000   8.825  30.126   1.843
53465W        W13001   6.874   0.251  11.924
53466W        W13002  10.782   1.377  13.323
53467W        W13003  13.790  28.033  11.375
53468W        W13004  15.766   9.149  12.007
53469W        W13005  41.516   9.850   4.637
53470W        W13006  26.519  36.488  10.441
53471W        W13007  20.123  19.742  11.404
53472W        W13008  24.015  23.102   4.691
53473W        W13009  37.351   1.433   3.274
53474W        W13010  33.526  30.471  13.811
53475W        W13011  39.947  38.841  13.867
53476W        W13012   7.311  40.411   0.743
53477W        W13013   8.716   1.926  12.829
53478W        W13014  27.961  41.797  10.486
53479W        W13015  20.154  21.180  14.027
53480W        W13016  38.043  10.808  14.957
53481W        W13017   4.820  11.326  14.302
53482W        W13018  34.943   3.434  14.335
53483W        W13019   9.747  38.327  13.484
53484W        W13020  36.001  23.573   1.411
53485W        W13021  20.738  40.528  14.889
53486W        W13022  31.575  36.086  12.900
53487W        W13023  37.366  27.685  11.121
53488W        W13024  10.362  40.309   1.838
53489W        W13025  38.513  35.375  11.116
53490W        W13026  24.145   7.705   1.708
53491W        W13027  28.451   6.265  11.505
53492W        W13028   4.314  44.439  11.935
53493W        W13029  42.959   8.667   2.211
53494W        W13030  31.531  36.452   2.296
53495W        W13031  25.008   7.683  11.492
53496W        W13032   7.291  16.168  12.343
53497W        W13033   5.860  24.711   1.908
53498W        W13034  32.910  39.878  13.880
53499W        W13035  28.169  10.869  10.080
53500W        W13036   5.427  36.576   2.355
53501W        W13037  19.573  30.481  13.828
53502W        W13038  32.008  15.717  10.980
53503W        W13039  16.271  13.698   4.135
53504W        W13040  43.946  35.434  13.912
53505W        W13041   3.840  26.989   2.701
53506W        W13042  42.363   8.691  11.514
53507W        W13043  18.695   2.958  11.904
53508W        W13044  44.827   2.948   4.702
53509W        W13045   2.766  33.549  13.832
53510W        W13046  25.581  35.046   2.247
53511W        W13047  25.062  15.239   3.311
53512W        W13048  27.617   9.747  11.440
53513W        W13049  41.519   2.961   3.672
53514W        W13050  28.464  30.451  14.998
53515W        W13051  16.256   7.276   0.921
53516W        W13052  27.631  14.198   2.842
53517W        W13053  24.019   8.793  11.973
53518W        W13054  10.645  17.604   4.825
53519W        W13055   9.292  31.423  13.528
53520W        W13056   0.794  26.486   3.255
53521W        W13057   1.349   4.426  14.350
53522W        W13058  39.934  21.551  10.999
53523W        W13059   2.916  17.263  14.832
53524W        W13060   7.777  21.223  11.960
53525W        W13061  25.645  27.104  10.602
53526W        W13062  27.025  12.306  13.864
53527W        W13063  14.620   6.765  13.792
53528W        W13064   6.373   9.270  11.412
53529W        W13065  39.870  16.723  12.087
53530W        W13066  37.915  12.339  13.336
53531W        W13067  21.683  15.260  10.505
53532W        W13068  12.195  12.331  10.954
53533W        W13069  41.879  23.144  14.381
53534W        W13070  11.240  16.649  10.515
53535W        W13071  13.782  28.574  12.874
53536W        W13072   7.792  35.071   1.915
53537W        W13073  17.207  10.264  10.059
53538W        W13074  10.318   5.317   2.754
53539W        W13075   3.931   1.967  11.951
53540W        W13076  44.871  15.767  13.849
53541W        W13077   0.889  23.025  10.098
53542W        W13078  28.549   6.838  13.037
53543W        W13079  28.502  36.457   2.341
53544W        W13080  11.253  34.997  14.828
53545W        W13081  31.017  16.316   3.210
53546W        W13082  22.118  10.152   4.660
53547W        W13083   3.841  42.802  11.938
53548W        W13084   6.313  34.977   2.230
53549W        W13085  20.077  38.406  11.562
53550W        W13086  30.088  35.088  12.077
53551W        W13087  11.159  27.645  13.310
53552W        W13088  14.684   9.389   3.698
53553W        W13089  28.668  34.965  14.983
53554W        W13090  27.160  32.433   4.333
53555W        W13091  17.764   8.394   0.468
53556W        W13092  11.272  28.064  14.485
53557W        W13093  17.097  26.103  13.889
53558W        W13094  28.135  28.657  13.356
53559W        W13095  43.807   8.236  12.092
53560W        W13096  37.337  28.115  12.344
53561W        W13097   7.824  13.601  11.376
53562W        W13098   5.358  44.970   4.656
53563W        W13099  24.663  25.632   0.430
53564W        W13100  34.086  30.461   2.759
53565W        W13101  33.454   0.816   2.291
53566W        W13102  38.886  34.915  11.008
53567W        W13103   0.482  13.821  14.018
53568W        W13104  26.467  43.407   0.461
53569W        W13105  19.252  25.697  11.865
53570W        W13106  33.952   8.355  13.014
53571W        W13107  34.923  30.457   4.792
53572W        W13108   7.795  15.146  10.448
53573W        W13109  20.191  33.383   4.308
53574W        W13110  27.153  33.511  12.944
53575W        W13111  40.945  10.192  10.405
53576W        W13112  31.960  10.324   1.756
53577W        W13113  33.439  28.093  14.942
53578W        W13114  23.644  38.059  12.057
53579W        W13115  28.655  17.221   3.181
53580W        W13116  19.640   1.320   4.317
53581W        W13117  33.461  39.939  13.382
53582W        W13118  22.699  37.543  13.921
53583W        W13119  23.189   6.225  12.021
53584W        W13120  24.196  13.165   1.299
53585W        W13121  15.106  22.192   3.769
53586W        W13122  35.409  29.013  11.456
53587W        W13123  42.437  38.486   0.436
53588W        W13124  20.072  15.285  10.439
53589W        W13125   1.335   8.771   1.733
53590W        W13126  18.665  35.871  12.823
53591W        W13127  26.207  43.832  12.563
53592W        W13128   3.836  18.278  12.426
53593W        W13129   2.459  15.167  10.633
53594W        W13130  40.846  44.489   1.328
53595W        W13131  25.176  27.506  14.922
53596W        W13132  13.228   9.245  13.872
53597W        W13133  43.412  37.469  14.430
53598W        W13134   4.235  15.717   3.798
53599W        W13135  22.162  24.508  14.301
53600W        W13136  39.847  41.390   4.175
53601W        W13137  24.135  40.877   2.665
53602W        W13138  32.905  34.533  13.361
53603W        W13139   6.717   8.698   0.447
53604W        W13140  36.859  32.061   2.758
53605W        W13141  33.055  44.316  11.120
53606W        W13142  31.954  18.191   2.827
53607W        W13143  37.343   3.935   0.248
53608W        W13144   8.163  37.344  12.388
53609W        W13145  41.471  37.507  12.410
53610W        W13146  18.207   5.837  14.314
53611W        W13147  13.683  40.969  10.434
53612W        W13148  28.176  25.154  14.850
53613W        W13149   4.293   4.400  14.903
53614W        W13150   1.951  41.464  10.570
53615W        W13151  24.678  23.105  13.432
53616W        W13152  33.962  10.229  10.563
53617W        W13153   2.240  25.655   0.463
53618W        W13154  38.068  28.184   4.662
53619W        W13155  17.164  44.280   2.680
53620W        W13156  30.984  44.843   3.219
53621W        W13157  15.798  39.837   2.185
53622W        W13158  42.360  19.108  14.932
53623W        W13159  34.962  12.270  11.396
53624W        W13160   1.955   9.221   2.363
53625W        W13161  25.523  41.492   9.955
53626W        W13162  23.718  41.443   0.897
53627W        W13163   2.288  28.504   4.656
53628W        W13164  15.597  35.560  12.506
53629W        W13165  37.423  32.924   0.364
53630W        W13166  10.680  38.940   0.468
53631W        W13167  10.316  23.084   1.324
53632W        W13168  36.419  14.208  14.381
53633W        W13169   4.314  18.289   4.809
53634W        W13170   8.696  11.154   2.219
53635W        W13171  19.717  11.796  12.963
53636W        W13172  12.314  37.047  13.511
53637W        W13173   3.874  27.040  14.455
53638W        W13174  41.443  11.649   4.307
53639W        W13175   8.780   3.772  12.372
53640W        W13176   4.813   3.738   3.638
53641W        W13177  13.714  18.685  11.396
53642W        W13178  38.955  35.593   1.810
53643W        W13179  35.035  16.098   1.744
53644W        W13180  35.378  20.664   4.214
53645W        W13181  25.681  41.886  12.951
53646W        W13182  43.448  34.962   1.726
53647W        W13183   8.189   2.326   4.814
53648W        W13184  24.657  10.744  11.415
53649W        W13185  44.004  34.021  12.414
53650W        W13186  44.424  13.730   3.234
53651W        W13187  44.925  42.431  13.472
53652W        W13188  39.915  33.088   1.349
53653W        W13189   8.845  13.676   4.333
53654W        W13190   8.790  24.625   9.501
53655W        W13191  19.746  25.701  11.955
53656W        W13192  22.175  21.596  12.888
53657W        W13193  40.926  42.425  12.415
53658W        W13194  30.564   4.214   4.308
53659W        W13195   7.231  22.657   4.225
53660W        W13196  18.189  28.550  13.417
53661W        W13197  22.177  22.139   0.924
53662W        W13198   2.298   5.399  12.890
53663W        W13199   6.400  32.446  14.850
53664W        W13200   0.494  10.356   1.910
53665W        W13201   1.271  20.524   4.342
53666W        W13202  23.030  18.637  13.998
53667W        W13203  20.561  19.231  11.466
53668W        W13204  31.513  34.120   2.261
53669W        W13205  41.519  38.386  13.374
53670W        W13206  13.619  32.462  12.414
53671W        W13207   3.305  39.018   4.293
53672W        W13208  10.177  11.676   3.306
53673W        W13209  10.783   9.689   3.776
53674W        W13210   5.280  25.708   2.866
53675W        W13211  43.348  36.459  11.442
53676W        W13212  17.735  19.106   4.790
53677W        W13213  11.213   0.757  14.948
53678W        W13214   0.842  35.488  13.423
53679W        W13215  11.346  26.702   2.413
53680W        W13216  26.083   5.812   0.871
53681W        W13217  18.056  43.388  14.828
53682W        W13218  22.727   6.416  11.469
53683W        W13219   3.435   7.841  11.951
53684W        W13220  18.598  21.114   1.351
53685W        W13221  38.971  15.585   3.868
53686W        W13222  29.948  26.030  14.932
53687W        W13223  42.505  25.064   2.396
53688W        W13224  30.621  35.988   3.372
53689W        W13225   6.182   3.227   2.395
53690W        W13226  32.589  35.978  10.561
53691W        W13227  21.209  32.432  14.830
53692W        W13228  36.385  30.039  11.529
53693W        W13229  12.317   4.236  10.020
53694W        W13230  15.743  35.085   3.653
53695W        W13231  13.608  35.917  12.512
53696W        W13232   4.277  14.824   3.227
53697W        W13233  27.149  39.975  14.390
53698W        W13234  14.286  40.915  13.417
53699W        W13235  36.019  22.036   4.254
53700W        W13236   6.758  17.759   3.199
53701W        W13237  24.696  27.961   0.783
53702W        W13238  12.796  27.650   5.683
53703W        W13239  15.181  22.207  11.438
53704W        W13240   4.363  21.757  12.079
53705W        W13241  41.003  10.639  13.492
53706W        W13242  22.504  23.144  12.970
53707W        W13243   8.181  19.207  10.946
53708W        W13244  27.966  31.954   4.171
53709W        W13245  26.050  18.616  14.796
53710W        W13246  39.887  30.472  13.349
53711W        W13247  32.106   0.390   0.917
53712W        W13248   9.295   6.755  12.392
53713W        W13249   2.457  27.661  10.101
53714W        W13250  34.576  27.507  13.436
53715W        W13251  24.500  24.172  12.897
53716W        W13252  22.542  43.950  10.561
53717W        W13253  16.139  18.246   3.638
53718W        W13254  37.391  41.354  13.037
53719W        W13255   5.751  41.847  12.537
53720W        W13256   3.445  21.570   4.708
53721W        W13257   9.312  19.643   1.447
53722W        W13258  28.533  10.153   3.757
53723W        W13259  22.128  19.579  12.502
53724W        W13260   5.227  38.002  11.443
53725W        W13261   9.380  37.903   2.741
53726W        W13262  27.100  31.473  10.978
53727W        W13263  13.185  27.171  14.378
53728W        W13264  23.513  16.651   1.283
53729W        W13265  17.207  19.239  12.995
53730W        W13266  37.485   7.895   0.817
53731W        W13267   8.768  26.668  14.801
53732W        W13268  25.115  35.501  13.456
53733W        W13269  41.506  21.596  10.958
53734W        W13270   3.359  44.940  13.843
53735W        W13271  13.166  33.924   3.289
53736W        W13272  44.269  15.663   2.180
53737W        W13273  23.014  19.649  13.870
53738W        W13274  22.073  23.002   3.643
53739W        W13275  11.710   0.869   4.678
53740W        W13276  32.566   3.817  11.883
53741W        W13277  33.568  40.355   0.917
53742W        W13278   3.866  11.771  11.493
53743W        W13279  22.649   6.757  12.865
53744W        W13280  43.889  18.576  11.412
53745W        W13281  29.639  39.826   0.371
53746W        W13282   4.743  33.455  11.107
53747W        W13283   3.374  10.643  12.877
53748W        W13284  19.149  33.886   2.343
53749W        W13285  41.502  15.255  12.976
53750W        W13286  34.051  25.052   1.432
53751W        W13287  21.163   9.787   0.331
53752W        W13288  32.954  23.039   4.128
53753W        W13289  36.029  20.755  13.449
53754W        W13290  32.961  12.649   1.725
53755W        W13291  17.801  27.069  13.045
53756W        W13292   7.260  44.469   0.384
53757W        W13293   1.963  33.945   4.315
53758W        W13294  30.622  38.041   3.154
53759W        W13295  36.027  24.535  12.344
53760W        W13296   2.933  17.691  12.924
53761W        W13297  21.593   8.192   0.947
53762W        W13298  11.330   1.304   3.782
53763W        W13299  17.113  11.703  10.583
53764W        W13300  22.232   6.687  14.888
53765W        W13301   3.291  15.601  12.007
53766W        W13302   4.795  26.159   2.720
53767W        W13303  18.731  15.235  12.502
53768W        W13304   5.194  18.232  12.947
53769W        W13305  13.130   7.193  12.918
53770W        W13306   5.801  44.367  14.869
53771W        W13307  22.243  28.954   2.711
53772W        W13308  42.472  11.239   1.299
53773W        W13309  44.316   6.722  12.845
53774W        W13310   6.424  33.915  12.049
53775W        W13311  31.499   9.236  12.529
53776W        W13312   6.291  28.097  11.091
53777W        W13313  43.011   9.339   2.868
53778W        W13314  11.339  11.861  11.091
53779W        W13315  41.017  38.025   0.460
53780W        W13316  34.987  22.579  10.535
53781W        W13317  13.781  16.107   4.782
53782W        W13318   5.820  39.009  14.929
53783W        W13319  30.454   0.284  12.965
53784W        W13320  16.759  17.255  10.511
53785W        W13321  35.360  29.472  10.992
53786W        W13322   0.972  18.625  13.439
53787W        W13323   3.383  21.511   3.743
53788W        W13324  25.659  40.829  10.451
53789W        W13325   4.419   7.760  14.511
53790W        W13326  31.111  31.112  14.861
53791W        W13327  17.679   0.783  11.923
53792W        W13328  29.456   5.269   3.321
53793W        W13329  21.723  23.059   4.144
53794W        W13330  42.428   9.325  10.452
53795W        W13331  38.869  33.593  11.859
53796W        W13332  18.136   5.203   4.663
53797W        W13333  12.171  30.952  11.080
53798W        W13334   9.716  21.681  13.953
53799W        W13335  21.513  30.625  12.424
53800W        W13336   8.253   7.351   3.150
53801W        W13337  27.179   4.753  11.523
53802W        W13338  15.711  40.882   2.807
53803W        W13339  22.143  22.653   2.352
53804W        W13340  31.514  41.902  14.807
53805W        W13341   9.682  42.515   2.729
53806W        W13342  24.222   2.268  12.087
53807W        W13343  13.838  11.195   4.727
53808W        W13344  16.193  36.592   3.333
53809W        W13345  25.620  39.864   0.443
53810W        W13346  42.028  35.057   3.347
53811W        W13347  33.908  33.927   4.741
53812W        W13348  23.548  38.977   3.180
53813W        W13349  18.731   0.759  14.910
53814W        W13350   8.327  42.776   1.303
53815W        W13351  15.694   2.228   1.283
53816W        W13352  14.142  17.586   0.881
53817W        W13353   6.284  18.683  10.445
53818W        W13354  15.704  11.855  13.054
53819W        W13355  43.963  40.541   3.298
53820W        W13356  23.100  30.921  13.938
53821W        W13357  35.478  44.453  12.012
53822W        W13358  16.132  13.133   1.295
53823W        W13359  28.533   8.267  11.532
53824W        W13360   3.235  22.089   4.118
53825W        W13361  37.518  26.583  10.901
53826W        W13362  25.177  25.163  12.497
53827W        W13363  21.114  31.015   1.856
53828W        W13364   7.717   8.738   4.218
53829W        W13365   1.865  17.075   0.450
53830W        W13366  36.403  27.471   0.386
53831W        W13367  16.801  43.394  14.279
53832W        W13368  16.697  10.815  12.987
53833W        W13369   6.777  25.495   0.384
53834W        W13370  16.750  18.692   4.158
53835W        W13371  34.907   4.937   0.742
53836W        W13372   2.789   6.218   2.688
53837W        W13373  31.421  12.323   0.757
53838W        W13374  42.319  15.160  13.811
53839W        W13375   9.833  19.579   3.687
53840W        W13376   2.793  13.755  11.074
53841W        W13377   5.419  21.525  14.925
53842W        W13378  24.626   5.829  13.465
53843W        W13379   4.335  28.956   0.794
53844W        W13380  41.498  40.021  12.854
53845W        W13381  17.732  15.708  14.912
53846W        W13382   0.888  30.541   4.246
53847W        W13383  40.015  43.796   3.765
53848W        W13384  24.224   7.827  11.085
53849W        W13385  44.848  25.560  14.877
53850W        W13386  41.944  44.875  10.908
53851W        W13387   9.886  21.105  11.388
53852W        W13388  34.015  26.970   2.375
53853W        W13389  35.928  20.084  11.975
53854W        W13390   4.877  34.920  14.834
53855W        W13391  17.072  38.821  12.397
53856W        W13392  27.604  14.141  14.283
53857W        W13393  12.849  20.749   0.427
53858W        W13394  22.210  36.356   2.740
53859W        W13395  14.616  39.030  14.361
53860W        W13396  24.601  43.868   1.911
53861W        W13397   4.873   0.482  11.902
53862W        W13398  14.182  40.442  13.393
53863W        W13399   7.890  20.768  11.480
53864W        W13400  41.849  20.078  11.047
53865W        W13401   9.720  39.818  14.351
53866W        W13402  10.167  35.085  14.478
53867W        W13403  42.351  28.622   1.853
53868W        W13404  33.609  44.463   0.728
53869W        W13405  28.151  12.252   4.690
53870W        W13406  31.038  20.201  10.618
53871W        W13407   7.326  25.080   4.602
53872W        W13408  34.110   1.274  14.424
53873W        W13409  31.057   8.396  11.982
53874W        W13410  24.527  21.245  14.430
53875W        W13411   9.372   9.807   1.697
53876W        W13412  31.942   4.838   3.382
53877W        W13413  32.577  21.713  12.859
53878W        W13414  40.801  24.978  13.876
53879W        W13415   6.894  44.395  11.886
53880W        W13416   1.422  21.529   3.380
53881W        W13417  38.464  10.776  14.898
53882W        W13418  24.083  12.174  14.976
53883W        W13419  15.721  37.963   0.455
53884W        W13420  12.684  41.370  13.510
53885W        W13421  14.600   1.771   1.280
53886W        W13422  35.971   2.739  10.466
53887W        W13423  30.006  31.950   2.819
53888W        W13424  32.578  15.256  12.483
53889W        W13425  19.679   0.938  13.408
53890W        W13426  38.548  38.059   3.722
53891W        W13427  20.255   2.778   0.865
53892W        W13428  44.314   6.338   0.867
53893W        W13429   2.372   9.155  13.804
53894W        W13430  28.458  21.610  14.407
53895W        W13431  16.646  34.583   3.774
53896W        W13432  18.667  25.003  12.962
53897W        W13433  15.623  41.886  13.911
53898W        W13434  35.942  34.964  14.788
53899W        W13435  33.970   8.785   0.413
53900W        W13436  44.850   0.940   1.388
53901W        W13437   1.480   3.849  10.921
53902W        W13438  13.218  15.675  13.897
53903W        W13439  14.264  16.700   2.790
53904W        W13440   9.650  28.460  14.383
53905W        W13441  20.555  21.714   3.708
53906W        W13442  35.488  43.012  14.275
53907W        W13443   2.228  41.017  14.431
53908W        W13444  19.125  30.940   1.711
53909W        W13445  30.526  14.120  12.559
53910W        W13446  22.612  44.370   2.886
53911W        W13447  32.558  10.839   0.915
53912W        W13448   1.482  23.131  12.869
53913W        W13449   4.436  42.860  10.636
53914W        W13450  10.656  23.691   0.753
53915W        W13451  42.946  28.493  14.803
53916W        W13452  18.706  21.668   5.122
53917W        W13453  25.617  28.548   0.245
53918W        W13454   7.889  23.984  10.432
53919W        W13455  33.564  40.867  11.917
53920W        W13456  33.403   1.407  14.002
53921W        W13457   1.304  40.502   0.823
53922W        W13458  34.456  21.028   0.302
53923W        W13459  36.446  41.466   1.795
53924W        W13460  29.112  24.224   1.860
53925W        W13461  27.112  23.508   3.660
53926W        W13462  13.160  25.204   0.347
53927W        W13463  27.185  13.705   1.429
53928W        W13464   8.669   9.214   2.853
53929W        W13465  15.709  30.466   9.931
53930W        W13466  34.456  26.006   1.839
53931W        W13467  38.537  13.237  13.397
53932W        W13468  31.968   3.793   0.300
53933W        W13469  14.758  28.162   0.435
53934W        W13470  26.634  28.563   2.240
53935W        W13471  16.080  15.819  11.476
53936W        W13472  16.181  25.554  10.639
53937W        W13473  10.821   9.165   3.288
53938W        W13474  22.644  16.633   4.710
53939W        W13475  12.699  21.591   2.806
53940W        W13476  41.832  25.609   4.826
53941W        W13477  32.982  40.848  11.508
53942W        W13478   2.433   5.288   0.733
53943W        W13479  41.395  13.702   2.419
53944W        W13480  14.131  38.043   1.366
53945W        W13481   4.798  37.081  11.985
53946W        W13482   3.443  13.339  10.636
53947W        W13483   8.709   0.380  13.445
53948W        W13484  37.580  23.668   1.354
53949W        W13485  25.998   6.710  13.856
53950W        W13486  10.359  34.465   3.265
53951W        W13487  33.980  34.989  11.963
53952W        W13488  38.937  32.565  12.926
53953W        W13489  11.166   3.439  10.919
53954W        W13490   5.694   1.742   3.184
53955W        W13491  44.766   0.391  10.539
53956W        W13492  14.262  33.544   3.655
53957W        W13493  28.169  40.537   2.665
53958W        W13494  17.070  29.987  11.451
53959W        W13495  32.916  42.517   4.351
53960W        W13496  19.143  21.136   1.221
53961W        W13497  33.984   8.222   2.335
53962W        W13498  13.697   8.679  13.541
53963W        W13499  12.708  13.822  11.931
53964W        W13500   3.783   6.418   1.766
53965W        W13501  33.541   6.234  10.448
53966W        W13502  41.801   6.302  10.479
53967W        W13503  40.312  39.479   2.317
53968W        W13504  12.121  23.016   2.233
53969W        W13505  31.488  44.337  14.998
53970W        W13506  22.543  39.967   1.291
53971W        W13507  11.756  27.563  10.013
53972W        W13508  15.314   1.468  11.954
53973W        W13509  11.355   4.354  13.541
53974W        W13510   5.712  38.516  12.484
53975W        W13511  15.586  31.934  13.529
53976W        W13512  34.375  26.037   3.807
53977W        W13513  31.095  28.990   2.768
53978W        W13514  25.709  27.520  11.544
53979W        W13515   9.807  13.843  13.331
53980W        W13516  34.374  32.089  10.917
53981W        W13517  31.025  22.998   2.812
53982W        W13518  33.469   1.847  13.982
53983W        W13519  16.200  37.355   0.342
53984W        W13520  31.560  14.227   0.316
53985W        W13521  40.977  43.379   4.810
53986W        W13522  15.626   4.782  12.967
53987W        W13523  16.174  17.734   2.702
53988W        W13524   7.668   7.894   4.752
53989W        W13525  27.950  14.658  14.832
53990W        W13526  42.790  41.830   2.412
53991W        W13527   3.249  35.018  11.084
53992W        W13528  21.210   1.968   3.300
53993W        W13529  14.667  18.577  10.452
53994W        W13530   2.787  44.351  10.510
53995W        W13531   4.866  29.038  13.510
53996W        W13532  36.524   2.405  12.568
53997W        W13533  33.387  11.696  12.569
53998W        W13534   9.753  39.479  12.094
53999W        W13535  36.427  19.230  13.847
54000W        W13536  29.044  40.369   4.146
54001W        W13537  10.846  31.516  14.337
54002W        W13538  28.591  19.284  10.048
54003W        W13539  21.151  26.617   3.360
54004W        W13540  10.149  27.508   1.729
54005W        W13541  26.572  32.069  13.430
54006W        W13542  20.766   6.320  14.359
54007W        W13543   4.727  10.799  11.568
54008W        W13544  40.546  15.616   1.765
54009W        W13545  33.441   0.337  14.966
54010W        W13546  25.647  38.460   2.728
54011W        W13547   3.828  15.201   4.288
54012W        W13548  44.814  34.882  10.901
54013W        W13549  17.637  11.275   1.426
54014W        W13550  30.914   5.199   2.771
54015W        W13551  28.171  23.582   9.952
54016W        W13552   7.177  27.596   1.715
54017W        W13553  43.274  35.529   4.296
54018W        W13554  35.500   5.819  12.360
54019W        W13555  20.066  18.056   4.826
54020W        W13556   2.826  29.962   3.240
54021W        W13557   6.209  37.483  11.373
54022W        W13558  18.713  15.611  13.791
54023W        W13559  22.051  16.811   0.455
54024W        W13560   1.409  22.701  12.457
54025W        W13561   2.324  36.383  10.935
54026W        W13562  36.529  33.013  13.957
54027W        W13563  28.972   0.302   4.768
54028W        W13564  22.091   9.752  14.844
54029W        W13565   6.306  36.389   4.232
54030W        W13566  25.501  33.539  10.154
54031W        W13567  13.344  35.973   3.756
54032W        W13568  31.468  11.682   2.741
54033W        W13569  44.985  43.448  13.412
54034W        W13570  14.148  10.345  10.119
54035W        W13571  13.328  38.924   9.946
54036W        W13572   3.953  18.698  13.831
54037W        W13573  27.633  42.407  14.342
54038W        W13574  28.997   5.300   4.723
54039W        W13575   3.816  25.477  13.058
54040W        W13576  24.981  20.207   5.703
54041W        W13577  12.283  19.624  14.504
54042W        W13578  41.447  34.407   3.248
54043W        W13579  29.460  24.552   1.323
54044W        W13580   6.209  17.761  14.800
54045W        W13581  20.656  42.414  12.551
54046W        W13582  18.222   5.436   1.838
54047W        W13583   6.218  13.834  13.426
54048W        W13584  31.148   7.782  13.858
54049W        W13585  34.105   8.351  14.986
54050W        W13586  25.034  18.657   1.825
54051W        W13587  24.695  30.013  12.501
54052W        W13588   9.330  34.868   0.912
54053W        W13589  35.431  39.473   4.764
54054W        W13590   9.176  41.323   4.771
54055W        W13591  36.560   5.295   1.695
54056W        W13592  39.541  30.511   0.825
54057W        W13593  32.992   3.895  14.299
54058W        W13594  29.115  34.056   1.784
54059W        W13595  32.413  29.470  11.417
54060W        W13596   9.347  36.040  12.445
54061W        W13597  43.403   7.269  11.945
54062W        W13598  23.517   4.369  12.079
54063W        W13599  34.427  29.447   2.846
54064W        W13600  41.941   2.917   0.292
54065W        W13601   6.816   6.788   4.217
54066W        W13602  40.412  38.027   3.367
54067W        W13603  16.275   6.326   4.296
54068W        W13604   3.404  24.142  12.415
54069W        W13605   5.870  38.406   3.178
54070W        W13606  28.495  24.094  13.811
54071W        W13607   0.457  37.838  11.923
54072W        W13608  24.187  13.293  10.624
54073W        W13609   9.845   4.379   2.802
54074W        W13610   6.353  20.122  12.549
54075W        W13611  21.036  30.099  11.096
54076W        W13612  36.427  33.112  11.084
54077W        W13613  12.219  13.653  12.560
54078W        W13614  37.899  21.228   3.145
54079W        W13615   5.299  13.800  12.026
54080W        W13616  35.576  21.693  10.500
54081W        W13617   0.341  11.356   9.500
54082W        W13618  19.549  35.392  12.931
54083W        W13619  13.695  23.520   3.747
54084W        W13620   9.873  26.476  14.339
54085W        W13621  25.604  19.177  10.406
54086W        W13622  21.047  31.444  10.439
54087W        W13623  32.936  18.717  13.391
54088W        W13624  43.806  18.114   1.833
54089W        W13625   6.385   5.778   0.845
54090W        W13626  37.878  25.666  12.407
54091W        W13627  21.174  11.285  11.000
54092W        W13628  31.570  40.034  11.454
54093W        W13629  10.872  32.523   2.396
54094W        W13630  29.620  38.515   4.643
54095W        W13631  14.181   3.388  14.938
54096W        W13632  34.030  16.134  12.927
54097W        W13633  31.604  11.175  11.519
54098W        W13634   3.304  33.467  13.819
54099W        W13635  15.796  28.457  14.014
54100W        W13636  13.167  39.536  13.979
54101W        W13637   7.303  34.090   1.415
54102W        W13638  16.674  16.722   9.497
54103W        W13639  36.024  27.030   4.215
54104W        W13640  17.202  35.971   5.138
54105W        W13641   6.336  24.637   4.154
54106W        W13642  13.607  37.887  13.409
54107W        W13643  21.694   3.785  10.601
54108W        W13644  42.435  40.857   2.233
54109W        W13645  28.163  32.516   2.398
54110W        W13646   1.846  33.481   2.181
54111W        W13647  37.901  37.868   3.378
54112W        W13648  28.995  15.200  11.076
54113W        W13649  34.967  27.995  10.403
54114W        W13650  20.173   7.413   2.197
54115W        W13651  43.319  21.748   1.921
54116W        W13652   6.835  42.496  10.412
54117W        W13653  32.520  39.877   0.425
54118W        W13654  21.113   5.412  13.490
54119W        W13655  17.266   9.193  10.959
54120W        W13656   2.346   8.746   2.669
54121W        W13657  31.506  29.170   0.909
54122W        W13658  16.767  22.089  12.506
54123W        W13659  20.113  44.934  11.859
54124W        W13660  39.059  26.168  11.958
54125W        W13661  32.396   2.393  11.105
54126W        W13662  32.074  25.677  13.521
54127W        W13663  43.496  43.284   1.824
54128W        W13664  11.300  20.758   4.755
54129W        W13665  15.212   9.735   9.634
54130W        W13666  18.666  42.857   0.303
54131W        W13667  11.774  38.451  12.555
54132W        W13668  33.496  33.876  10.890
54133W        W13669  14.655   1.370  11.603
54134W        W13670   6.700  26.973   4.335
54135W        W13671  36.378  40.923  12.823
54136W        W13672  23.027  20.244  14.331
54137W        W13673  30.996   3.257   3.787
54138W        W13674  17.710   4.422   1.850
54139W        W13675  31.980   9.332  13.501
54140W        W13676   9.385  16.261   3.728
54141W        W13677  38.444  44.331   1.899
54142W        W13678   7.691  16.216  13.809
54143W        W13679  32.898   8.406   1.832
54144W        W13680   3.342   4.430  14.442
54145W        W13681  29.041   6.316  14.952
54146W        W13682  13.250   4.450   0.834
54147W        W13683   4.739  12.807   1.817
54148W        W13684  44.794   5.204   3.664
54149W        W13685   1.312   4.441  14.028
54150W        W13686  33.507  15.808   1.234
54151W        W13687  40.442  37.850  10.556
54152W        W13688  23.107  35.046  10.081
54153W        W13689  39.053  26.041  11.079
54154W        W13690  28.126  34.898  10.460
54155W        W13691  18.198  10.362   1.225
54156W        W13692  38.028  27.468  12.437
54157W        W13693  21.197   6.260  14.331
54158W        W13694   6.299  41.822  12.510
54159W        W13695  30.017  33.520  13.311
54160W        W13696   3.416  20.096  12.408
54161W        W13697  31.459   0.456  11.471
54162W        W13698  12.195  42.514  13.541
54163W        W13699   9.266  29.653   1.851
54164W        W13700  26.096   6.334   3.341
54165W        W13701  19.748   6.812   1.450
54166W        W13702  23.984  26.027   1.382
54167W        W13703  16.690  21.201   1.861
54168W        W13704  40.922  35.101   3.637
54169W        W13705   9.226  27.527  12.037
54170W        W13706  43.426  40.928  10.544
54171W        W13707  23.047  34.920  12.051
54172W        W13708  22.197   2.257  14.880
54173W        W13709  38.547   1.945  12.413
54174W        W13710  33.029  18.272  12.047
54175W        W13711   0.371   5.309   1.396
54176W        W13712  20.186   6.896  11.000
54177W        W13713   5.925  29.132  11.581
54178W        W13714  13.810   0.401  12.981
54179W        W13715   0.351  24.674   1.774
54180W        W13716   8.811  19.582  12.924
54181W        W13717  31.000  30.091  13.430
54182W        W13718  25.038  17.252   1.223
54183W        W13719  32.995   7.770   0.247
54184W        W13720  41.982  44.276  10.616
54185W        W13721  30.968  20.210  14.930
54186W        W13722  27.683   1.274   4.779
54187W        W13723   2.375   4.827   9.971
54188W        W13724  22.605  19.268   2.202
54189W        W13725   0.452  34.562   3.195
54190W        W13726  23.226  39.392   0.402
54191W        W13727  30.069  26.615  12.569
54192W        W13728  21.255  43.286   3.156
54193W        W13729  17.302  13.155   2.667
54194W        W13730  40.998   6.748  10.546
54195W        W13731  41.848  32.910  13.507
54196W        W13732  20.153   6.909   1.225
54197W        W13733  13.269  35.973   5.170
54198W        W13734  22.527  33.012  14.318
54199W        W13735   2.754  23.026   0.727
54200W        W13736  20.746   2.321  13.005
54201W        W13737   0.951  37.350  14.472
54202W        W13738   3.779  13.344   1.813
54203W        W13739   0.888  11.182   0.738
54204W        W13740  38.403  13.658  10.548
54205W        W13741  34.478  19.655  12.559
54206W        W13742  42.292   3.421   5.168
54207W        W13743  44.349  37.399  10.431
54208W        W13744   0.898  19.258   3.703
54209W        W13745   4.768  22.539   2.860
54210W        W13746  10.872  18.566   4.293
54211W        W13747  39.359   3.292  11.431
54212W        W13748  35.086  18.239   5.236
54213W        W13749  11.368  41.853  14.402
54214W        W13750  35.442  23.725  13.337
54215W        W13751  26.200  13.251   3.264
54216W        W13752  23.550   1.399   2.354
54217W        W13753  23.682  32.133  12.893
54218W        W13754  18.273  36.893  12.943
54219W        W13755  18.768  23.546  11.592
54220W        W13756   3.899   4.887   3.264
54221W        W13757  13.194  43.864   3.371
54222W        W13758  15.248   2.934   3.259
54223W        W13759  12.162  31.623  11.484
54224W        W13760  23.241  36.411   1.395
54225W        W13761   1.824  21.617   3.192
54226W        W13762   7.214  33.985  10.918
54227W        W13763  14.743  43.468   1.408
54228W        W13764  12.628  28.446   0.887
54229W        W13765  42.446  39.358  14.898
54230W        W13766  13.778   1.837  11.896
54231W        W13767  42.310  21.615  14.825
54232W        W13768  39.377  22.564   1.400
54233W        W13769  25.024  42.327   1.786
54234W        W13770   2.918  41.328  13.307
54235W        W13771  18.670  41.832  12.457
54236W        W13772   7.875  24.695  12.578
54237W        W13773  24.187  33.595  10.017
54238W        W13774   1.806   8.258   2.232
54239W        W13775  33.379  39.511  12.385
54240W        W13776  27.108  10.175  13.357
54241W        W13777  12.171  18.748  14.002
54242W        W13778  13.682   7.313  13.867
54243W        W13779  26.621  29.566   0.390
54244W        W13780  21.738  23.130  14.454
54245W        W13781  16.296  15.627   1.831
54246W        W13782  14.329   5.393   3.339
54247W        W13783  24.109  26.648   0.810
54248W        W13784  16.224  19.617  14.840
54249W        W13785   8.901   4.927   3.312
54250W        W13786  26.030  10.289  10.910
54251W        W13787  26.663  37.858   2.364
54252W        W13788  13.764  35.969  12.911
54253W        W13789  34.868  44.885  14.515
54254W        W13790  32.948   7.883   4.202
54255W        W13791   9.337   4.283   1.416
54256W        W13792  14.600  20.074  12.947
54257W        W13793  34.958  16.280  10.478
54258W        W13794   2.946  13.664  13.469
54259W        W13795  38.570  41.855  11.122
54260W        W13796   9.244   5.376  14.335
54261W        W13797   6.412  42.291   2.381
54262W        W13798  15.589  19.269   2.270
54263W        W13799   2.324  18.195  14.471
54264W        W13800  25.106   2.861  11.012
54265W        W13801  29.521  27.618   1.395
54266W        W13802   9.268  13.261   2.707
54267W        W13803   4.924  32.400   1.424
54268W        W13804  14.101  18.578   1.927
54269W        W13805  31.897   6.854   4.224
54270W        W13806  41.506  24.557   2.192
54271W        W13807  21.711  38.952   1.831
54272W        W13808  34.590  17.198  13.426
54273W        W13809   6.684   6.744   0.261
54274W        W13810  41.023  16.126  13.858
54275W        W13811  36.495  37.947   4.257
54276W        W13812  35.947  10.179   1.847
54277W        W13813  11.694   6.888   1.430
54278W        W13814   7.817  26.622  12.471
54279W        W13815  14.100  22.231   1.703
54280W        W13816   6.838  24.155   0.928
54281W        W13817  12.177  32.618  14.868
54282W        W13818  34.599  42.512   4.620
54283W        W13819  40.919  23.061  11.612
54284W        W13820  23.018  22.174  10.918
54285W        W13821   1.908   7.338  14.946
54286W        W13822  39.422  40.535   1.234
54287W        W13823   7.819  35.505  12.052
54288W        W13824  43.840  14.647   4.223
54289W        W13825  26.157  34.925   1.887
54290W        W13826   8.341  39.843  14.856
54291W        W13827  38.410  32.490   4.837
54292W        W13828   4.781  12.633   5.206
54293W        W13829   5.814  23.649  10.418
54294W        W13830   3.723  23.045   2.326
54295W        W13831  24.117   5.437  14.383
54296W        W13832  23.602  32.925  11.105
54297W        W13833   8.308  20.134   1.845
54298W        W13834  23.107  27.043   0.336
54299W        W13835  29.526  43.377  10.428
54300W        W13836  19.642   2.244   2.863
54301W        W13837  38.559  29.112  13.353
54302W        W13838   6.350  42.328  12.397
54303W        W13839  17.268  19.672   0.908
54304W        W13840  40.922  25.692   2.690
54305W        W13841  16.263  42.511   1.355
54306W        W13842  27.060  39.431  13.342
54307W        W13843  20.068  44.896  11.513
54308W        W13844  16.777  43.979   4.684
54309W        W13845  22.017  13.126  10.451
54310W        W13846   6.362   7.911   1.336
54311W        W13847  19.278  29.525   4.791
54312W        W13848  19.778  22.692  12.825
54313W        W13849  18.759  21.154  14.966
54314W        W13850  29.137  19.711  10.945
54315W        W13851  16.752  12.769   2.415
54316W        W13852  29.056  22.523  14.007
54317W        W13853   8.784  20.616   3.268
54318W        W13854  23.626  34.911   0.475
54319W        W13855  38.471  21.126  10.965
54320W        W13856  26.165  32.120  12.526
54321W        W13857   6.896  34.590  13.350
54322W        W13858  31.425   5.414   3.664
54323W        W13859  36.028  34.996   4.319
54324W        W13860   1.414  33.922  14.995
54325W        W13861  27.143  34.877   3.219
54326W        W13862  43.821  23.705  11.592
54327W        W13863  24.078  13.608   0.293
54328W        W13864  25.710  38.357   9.972
54329W        W13865  17.078  28.046   3.809
54330W        W13866  19.545  29.985   3.825
54331W        W13867  21.087  32.046  14.322
54332W        W13868  35.919  28.554   3.737
54333W        W13869  22.114  18.289  13.412
54334W        W13870  23.503   7.812  12.051
54335W        W13871   3.365  20.236  11.055
54336W        W13872  35.566  11.759  11.426
54337W        W13873  21.023  10.731  14.780
54338W        W13874  21.242  19.626   1.867
54339W        W13875  14.746  13.686  12.461
54340W        W13876   8.852  32.140   1.269
54341W        W13877  39.476  19.051  12.093
54342W        W13878  10.841  15.699  11.918
54343W        W13879  29.937  30.080  12.057
54344W        W13880  13.224  11.858  11.107
54345W        W13881  44.818  14.706  14.399
54346W        W13882   3.316  15.757   1.723
54347W        W13883  17.645   1.779   1.742
54348W        W13884  39.063  18.662   1.829
54349W        W13885  28.656   5.348   2.887
54350W        W13886  26.607   9.683  11.419
54351W        W13887  13.701  39.331   3.859
54352W        W13888   7.880  11.275   3.787
54353W        W13889  29.657  14.828  12.889
54354W        W13890  12.207  40.434  14.833
54355W        W13891  13.843  43.938   0.794
54356W        W13892  11.190  24.685   4.327
54357W        W13893  34.045   8.772  11.061
54358W        W13894  23.176  30.649   1.821
54359W        W13895  10.349  41.471   0.810
54360W        W13896  37.968  35.444   2.361
54361W        W13897   5.325  32.047  10.107
54362W        W13898  21.677  24.200   2.708
54363W        W13899  34.865  30.014  11.980
54364W        W13900   9.307  23.528   2.250
54365W        W13901  10.879   2.361   0.393
54366W        W13902  19.750  34.545   0.448
54367W        W13903  34.458   3.729  10.408
54368W        W13904   5.764   1.976  13.794
54369W        W13905   4.918   0.945  14.503
54370W        W13906  13.317  12.169  13.031
54371W        W13907  30.493   5.212  12.081
54372W        W13908  13.795  31.984  12.359
54373W        W13909  43.272  13.820  13.324
54374W        W13910  44.340   4.700  10.964
54375W        W13911   3.264  28.941   0.266
54376W        W13912  28.115  15.653   4.161
54377W        W13913  43.314  21.590   2.230
54378W        W13914  23.225  21.638  14.982
54379W        W13915  37.061  37.372   2.729
54380W        W13916   1.261  24.622   0.322
54381W        W13917  35.504  27.022   2.866
54382W        W13918  42.362  42.346  13.414
54383W        W13919  42.869  30.427   3.323
54384W        W13920  16.725  36.362   2.310
54385W        W13921  40.477   4.826   4.323
54386W        W13922  17.642   6.306   1.428
54387W        W13923  39.411  35.017   4.762
54388W        W13924  43.437  16.642  14.498
54389W        W13925   3.332  43.795  11.539
54390W        W13926  20.068   4.429   9.646
54391W        W13927  26.582   5.212  14.823
54392W        W13928  15.745  18.663  14.852
54393W        W13929  10.313  17.103  10.624
54394W        W13930   3.376  16.800  12.408
54395W        W13931  33.063  43.892   2.755
54396W        W13932   3.771  20.627  12.997
54397W        W13933  18.167   6.313   0.426
54398W        W13934  31.424  10.144   0.868
54399W        W13935  28.930  37.459   3.854
54400W        W13936  33.909  23.490   3.173
54401W        W13937  26.530  38.005  13.450
54402W        W13938  10.242  37.336   1.820
54403W        W13939  44.832   6.757   4.618
54404W        W13940   6.791  19.728  13.483
54405W        W13941  27.606  21.071  11.006
54406W        W13942  27.183   5.240   4.717
54407W        W13943   1.856  31.010   4.306
54408W        W13944  10.711  14.231  11.541
54409W        W13945  35.898  39.867  11.544
54410W        W13946  41.991  30.122   4.242
54411W        W13947  34.403  10.710  10.954
54412W        W13948   1.483   3.942   1.269
54413W        W13949  31.083  44.277  12.562
54414W        W13950   1.773  43.956   4.642
54415W        W13951   4.432  31.102  12.566
54416W        W13952  24.131   6.231   0.328
54417W        W13953   9.655  43.369   0.777
54418W        W13954  43.333  39.517  12.841
54419W        W13955  43.422  20.062  10.434
54420W        W13956  34.602   6.224  13.964
54421W        W13957  24.703  41.970   3.855
54422W        W13958  38.955  36.569   1.263
54423W        W13959   3.237   7.777  11.051
54424W        W13960   3.370  19.686   1.395
54425W        W13961  42.999   9.677   3.260
54426W        W13962  19.052   0.409  13.501
54427W        W13963  40.982  42.381  11.557
54428W        W13964  16.650  30.163   3.771
54429W        W13965  32.590  11.162  13.987
54430W        W13966   9.652  42.955  12.537
54431W        W13967   9.750  13.604  11.044
54432W        W13968   0.819  35.560   0.424
54433W        W13969  14.647  39.847   2.679
54434W        W13970   1.767  42.830   3.735
54435W        W13971  32.906  28.051  12.524
54436W        W13972   2.239  11.823  13.450
54437W        W13973   9.644  27.479   5.614
54438W        W13974   3.759  16.168  12.339
54439W        W13975  25.549   1.921  11.859
54440W        W13976  16.714  39.944  11.474
54441W        W13977   6.739   8.160   4.830
54442W        W13978  30.659  32.027  10.960
54443W        W13979  14.219  34.548   1.354
54444W        W13980   3.453  11.299  11.967
54445W        W13981  19.664   9.812   0.866
54446W        W13982  31.040   8.702   4.627
54447W        W13983   3.851  23.191   1.288
54448W        W13984  36.979  35.413  12.054
54449W        W13985   9.730  24.074   2.249
54450W        W13986  31.078  22.026   1.723
54451W        W13987  38.419  44.924  13.859
54452W        W13988  16.598  12.676  14.377
54453W        W13989  33.956   4.280   2.725
54454W        W13990  41.996  30.012   0.274
54455W        W13991   4.224  33.046  12.872
54456W        W13992  17.685   7.829   4.116
54457W        W13993  38.990  15.173   0.270
54458W        W13994  27.181  10.730  12.044
54459W        W13995  37.918  24.019   4.719
54460W        W13996  15.608  42.504   3.279
54461W        W13997  16.750  24.000  14.381
54462W        W13998  15.206  39.932   1.354
54463W        W13999  35.550  10.310  13.380
54464W        W14000  35.500  21.591   0.729
54465W        W14001  39.823  37.456   4.311
54466W        W14002   1.763  25.498  14.351
54467W        W14003  36.548  26.583  11.882
54468W        W14004   8.195  29.958   2.802
54469W        W14005  27.499  14.299   1.777
54470W        W14006  10.362  27.039   1.422
54471W        W14007  23.077  23.558  12.999
54472W        W14008  40.822   6.839  11.088
54473W        W14009  41.916   5.438  14.403
54474W        W14010  19.692   0.933  12.397
54475W        W14011  40.531  25.052   5.196
54476W        W14012  11.127  40.847  12.936
54477W        W14013   5.372  13.720   3.866
54478W        W14014  21.167  40.905   2.719
54479W        W14015  12.765  10.230  14.431
54480W        W14016  10.730  39.414  13.462
54481W        W14017   4.408  14.793  14.282
54482W        W14018   8.251  43.018   2.315
54483W        W14019   3.300   5.344  13.386
54484W        W14020  10.173  36.432   0.920
54485W        W14021   8.766  39.945   9.963
54486W        W14022  23.050  10.358   1.694
54487W        W14023   0.847  14.271  14.960
54488W        W14024  39.925   3.850   0.452
54489W        W14025  43.001   5.883   2.179
54490W        W14026  15.326   6.898   2.391
54491W        W14027  43.825  17.767   4.241
54492W        W14028  33.435   5.439  13.977
54493W        W14029  31.899  27.053  14.902
54494W        W14030  19.169  44.269   2.191
54495W        W14031  34.890  21.187   2.855
54496W        W14032  42.429  41.868  14.305
54497W        W14033  38.345   2.766  13.347
54498W        W14034  37.567  16.756  14.475
54499W        W14035  36.492  34.983  14.829
54500W        W14036  13.218  28.090  10.411
54501W        W14037  19.537  35.416   1.309
54502W        W14038   2.890  36.515  12.921
54503W        W14039  32.605  21.024  14.865
54504W        W14040  21.655   6.198   0.963
54505W        W14041  27.501  26.080   2.840
54506W        W14042  39.974  20.662  13.873
54507W        W14043  16.774  20.180   3.788
54508W        W14044  21.569  25.108  13.901
54509W        W14045  19.190  18.783  11.398
54510W        W14046  17.284  12.240  14.942
54511W        W14047   8.310  17.748  14.510
54512W        W14048  23.083   8.777  14.841
54513W        W14049  16.231  19.555  12.454
54514W        W14050  15.610  43.916   3.775
54515W        W14051  28.077  12.698  10.023
54516W        W14052  11.766  24.558  13.793
54517W        W14053  20.071  32.908   3.217
54518W        W14054  29.003  20.032   5.158
54519W        W14055  40.884  14.132   0.842
54520W        W14056   7.758   7.685  11.598
54521W        W14057   0.282   1.375  12.464
54522W        W14058  34.908   7.354  11.508
54523W        W14059  18.580  21.636   0.879
54524W        W14060  19.155   5.328  12.990
54525W        W14061  37.871   8.730  12.419
54526W        W14062  34.916  25.108  12.906
54527W        W14063  17.793  33.609   4.209
54528W        W14064  30.007  44.879  13.994
54529W        W14065  21.242   2.425  10.450
54530W        W14066  22.110  23.107   3.210
54531W        W14067  37.069  35.047  13.384
54532W        W14068  24.027  23.537   0.837
54533W        W14069  29.544   6.285  14.874
54534W        W14070  43.399   3.381   0.799
54535W        W14071   7.784  44.972   3.316
54536W        W14072  10.868  28.448  14.772
54537W        W14073  36.561  17.654   2.726
54538W        W14074   7.737  10.185  10.607
54539W        W14075  30.998  21.148  13.403
54540W        W14076  24.014  41.311  12.950
54541W        W14077  10.175  16.209   2.702
54542W        W14078  13.768  14.631  14.817
54543W        W14079  14.694  12.242   4.147
54544W        W14080  24.627  44.301   4.757
54545W        W14081  26.532  17.762   1.898
54546W        W14082   5.414  13.183  12.504
54547W        W14083  29.513  36.506  12.895
54548W        W14084  36.874  31.432  12.879
54549W        W14085   4.756  14.701   3.383
54550W        W14086  38.862   5.747  12.347
54551W        W14087  37.054   7.402   2.826
54552W        W14088  32.011  18.205   0.841
54553W        W14089  31.915  16.662   3.858
54554W        W14090  39.333   1.789  12.976
54555W        W14091  32.031  13.643   2.777
54556W        W14092  31.477  24.009   0.879
54557W        W14093   1.839  12.816  11.415
54558W        W14094  25.185  35.081  11.871
54559W        W14095  14.184  37.993   2.754
54560W        W14096  21.225  44.429  11.957
54561W        W14097  31.050   7.688   4.230
54562W        W14098  34.598  13.677   1.316
54563W        W14099   4.394  20.270   1.820
54564W        W14100  39.889  26.140  14.026
54565W        W14101   2.815  19.560  14.993
54566W        W14102  12.358  10.223   4.815
54567W        W14103  12.346   7.865   3.759
54568W        W14104  43.814  43.859  11.426
54569W        W14105  18.264  37.000  11.410
54570W        W14106   7.352  16.307  11.584
54571W        W14107  38.453  28.175   0.889
54572W        W14108  18.153   5.402   3.699
54573W        W14109   9.154  23.132  11.064
54574W        W14110   5.915  38.056   0.883
54575W        W14111  16.122   1.389   3.268
54576W        W14112  34.503  39.847  14.824
54577W        W14113   5.281  13.320  12.978
54578W        W14114  29.950  34.869   3.685
54579W        W14115  42.430  37.038  14.487
54580W        W14116  17.799  20.161   1.799
54581W        W14117  17.753  22.112   0.750
54582W        W14118   7.828  38.368  14.971
54583W        W14119  35.889  16.784  13.540
54584W        W14120  18.056  38.399  11.891
54585W        W14121   6.292  41.386  12.858
54586W        W14122  32.404  44.011   0.382
54587W        W14123   5.916  26.550  14.308
54588W        W14124   4.331  21.116   2.243
54589W        W14125  24.039   2.395   1.309
54590W        W14126  42.311   3.323   1.768
54591W        W14127  17.151  13.211   0.441
54592W        W14128   1.736   6.392  13.974
54593W        W14129  18.251  17.111   4.203
54594W        W14130   9.312  29.474   2.781
54595W        W14131  12.355   9.173   3.340
54596W        W14132  41.822  20.154  11.523
54597W        W14133  28.999   0.351  10.995
54598W        W14134  16.084  31.987   3.843
54599W        W14135  14.189  28.105  14.856
54600W        W14136  25.526   8.711   2.384
54601W        W14137  19.185  42.428   3.669
54602W        W14138   5.310  35.378   1.836
54603W        W14139  16.124   6.802  11.418
54604W        W14140   1.920  43.409   1.218
54605W        W14141  31.404   7.415   2.760
54606W        W14142  23.224  42.820   1.715
54607W        W14143   8.240  31.153  13.392
54608W        W14144  33.586   3.732   2.377
54609W        W14145  29.943  36.459  11.988
54610W        W14146  15.172   2.332  13.342
54611W        W14147  15.805  12.315   1.390
54612W        W14148  41.837  27.578   3.723
54613W        W14149  40.969  44.418   3.374
54614W        W14150  10.825  42.833   4.651
54615W        W14151   7.197  16.198   3.229
54616W        W14152  34.027   9.348  10.956
54617W        W14153  31.928  12.124   0.290
54618W        W14154   7.841  35.585  11.396
54619W        W14155  39.442  43.464   0.927
54620W        W14156  12.124  23.534   1.285
54621W        W14157  36.083   6.874  10.624
54622W        W14158  34.886   5.722   1.769
54623W        W14159  41.470   2.412   4.810
54624W        W14160  31.982  41.878  12.572
54625W        W14161   2.462  42.318   3.765
54626W        W14162  40.905  11.793  12.469
54627W        W14163  34.991  34.445   3.169
54628W        W14164  21.545  42.889  12.374
54629W        W14165  14.097   8.743   1.748
54630W        W14166   8.666  34.513  13.379
54631W        W14167  27.084  15.301  14.886
54632W        W14168  18.655  26.512  14.347
54633W        W14169  37.848   1.866  13.312
54634W        W14170  40.391  13.711  11.032
54635W        W14171  29.602  39.834   4.732
54636W        W14172  14.321   5.898   1.854
54637W        W14173  41.382  22.124   3.309
54638W        W14174  22.076   1.835  12.341
54639W        W14175  35.893  15.319  14.500
54640W        W14176   9.855  41.012  11.515
54641W        W14177  34.994  12.650  14.793
54642W        W14178   9.859  42.334   2.264
54643W        W14179  42.316  20.253  13.968
54644W        W14180   4.851  40.891  11.417
54645W        W14181  28.149   0.951   0.762
54646W        W14182  25.687  24.205  14.438
54647W        W14183  38.979  15.125   0.749
54648W        W14184   7.280   7.190   2.370
54649W        W14185  25.037   3.285   1.841
54650W        W14186  18.549   8.298  11.121
54651W        W14187  14.764  23.118  11.085
54652W        W14188   7.300  41.037  12.095
54653W        W14189   4.834  33.442  12.427
54654W        W14190  20.060  20.701  14.454
54655W        W14191  20.551   6.412  10.566
54656W        W14192   6.342  27.594  13.045
54657W        W14193  31.035  44.907   2.708
54658W        W14194  32.029  33.614  13.857
54659W        W14195  39.321  20.070  14.828
54660W        W14196   2.295  26.200  14.982
54661W        W14197  31.564  19.057  13.825
54662W        W14198  35.389  13.789   3.657
54663W        W14199   7.886  24.145  11.573
54664W        W14200  44.785  12.156  13.872
54665W        W14201  11.628   8.778  12.851
54666W        W14202   2.390   9.311   0.953
54667W        W14203  11.184   6.296   5.264
54668W        W14204  35.413  15.701  14.364
54669W        W14205  21.109   1.418   3.159
54670W        W14206  23.124  35.409  12.923
54671W        W14207   3.854  36.578   3.169
54672W        W14208  26.490  19.638   5.260
54673W        W14209  42.927  22.528   4.194
54674W        W14210  12.275  26.075   2.662
54675W        W14211   5.800  40.053  11.495
54676W        W14212  10.771   6.312  14.516
54677W        W14213  19.637  40.406  11.432
54678W        W14214  12.699  40.503   4.720
54679W        W14215  40.825  43.792  12.028
54680W        W14216  21.157  30.581  13.442
54681W        W14217  28.065  33.424   4.166
54682W        W14218  15.621  13.630   3.187
54683W        W14219  20.254  32.102   0.813
54684W        W14220   4.740  25.191  14.776
54685W        W14221  42.411  25.637  11.872
54686W        W14222  35.087  31.946  13.316
54687W        W14223  35.102  33.605   0.728
54688W        W14224  42.501  21.210   3.757
54689W        W14225  38.864  22.024  10.156
54690W        W14226  36.052  39.391   1.387
54691W        W14227  44.441  36.425  11.538
54692W        W14228  20.741  39.521   3.827
54693W        W14229   8.831  11.370  14.456
54694W        W14230  14.171  20.243   3.368
54695W        W14231  38.372   3.827   2.240
54696W        W14232  15.218  33.876   1.816
54697W        W14233  29.174  40.490  11.875
54698W        W14234   0.449   5.421  12.008
54699W        W14235   6.738  20.637  12.072
54700W        W14236  10.157  32.554   2.851
54701W        W14237  14.819  19.149   4.192
54702W        W14238  11.252  16.111   1.324
54703W        W14239  26.585  23.576   1.223
54704W        W14240  29.120  36.486   2.903
54705W        W14241  40.910   6.754  12.852
54706W        W14242  28.954  20.677   1.790
54707W        W14243   5.379   7.799   0.313
54708W        W14244  43.423  15.316   2.395
54709W        W14245  21.070  44.991  11.380
54710W        W14246  15.119  32.972   1.763
54711W        W14247  28.177  18.743   1.252
54712W        W14248  42.816  34.368   0.333
54713W        W14249   8.744   0.493  10.084
54714W        W14250  35.382  40.907   1.343
54715W        W14251   1.850   4.805   4.629
54716W        W14252  42.335  17.228  12.360
54717W        W14253  20.767  32.119   4.663
54718W        W14254  42.319   1.401  12.071
54719W        W14255  37.338  35.448   0.440
54720W        W14256  19.112  29.625  13.044
54721W        W14257  18.747  30.498   1.725
54722W        W14258  13.684  37.413   3.746
54723W        W14259  24.199  19.684  10.498
54724W        W14260   3.328  40.354   1.877
54725W        W14261  29.649  35.416  10.897
54726W        W14262  27.101  35.485  12.510
54727W        W14263  12.830  11.633  10.606
54728W        W14264  34.393   5.787   2.316
54729W        W14265   7.366  34.906  11.915
54730W        W14266  23.627  43.998   2.343
54731W        W14267  39.487  30.094   4.250
54732W        W14268  24.224  15.273   0.727
54733W        W14269   5.702  32.011  11.484
54734W        W14270  12.349  15.605   0.853
54735W        W14271   8.819  31.984   4.195
54736W        W14272  42.461   7.832  10.553
54737W        W14273  20.254  24.067  12.348
54738W        W14274  37.476  34.019  10.613
54739W        W14275  42.788  26.113  10.623
54740W        W14276  23.560  38.950  12.832
54741W        W14277  20.743   8.855   4.207
54742W        W14278  42.478   0.440   4.810
54743W        W14279  39.534  11.790  12.444
54744W        W14280  38.569  35.569  14.023
54745W        W14281  36.926  40.839   0.258
54746W        W14282  36.556  14.287  13.419
54747W        W14283  21.201  37.432   4.653
54748W        W14284   7.755  24.698  12.049
54749W        W14285  13.690  12.264   1.227
54750W        W14286  16.168  23.505   2.698
54751W        W14287  31.517  17.106  13.503
54752W        W14288  37.503  32.022  14.892
54753W        W14289   6.728  11.136  12.048
54754W        W14290   3.783  36.887  10.552
54755W        W14291  33.063  30.496  11.547
54756W        W14292  15.758  24.151   3.863
54757W        W14293  18.607   6.883  10.538
54758W        W14294  39.508  23.135  14.884
54759W        W14295  36.091  32.546  12.540
54760W        W14296  29.167  22.678  13.543
54761W        W14297   8.335  26.567  13.450
54762W        W14298  18.094  28.493   2.772
54763W        W14299   4.399  12.285  14.925
54764W        W14300  22.170  34.066  13.397
54765W        W14301  33.015  19.110  13.805
54766W        W14302  33.387  38.445  10.951
54767W        W14303  20.034  19.095  12.485
54768W        W14304  32.397   9.342   2.836
54769W        W14305   2.882  41.910   4.133
54770W        W14306  44.804  14.634  13.009
54771W        W14307   6.874  34.052  11.891
54772W        W14308  26.486  21.680  13.810
54773W        W14309  11.862   1.341  14.963
54774W        W14310  40.489   6.818  13.542
54775W        W14311   7.765  43.282  12.011
54776W        W14312  25.675   6.903  14.961
54777W        W14313  24.159  13.280   2.714
54778W        W14314   5.903   5.849   2.875
54779W        W14315   6.372  28.055   2.742
54780W        W14316  14.312  15.108  13.023
54781W        W14317  18.295  33.910   3.377
54782W        W14318  38.931  17.188  12.554
54783W        W14319  42.008   6.751   4.132
54784W        W14320  25.058  25.649   4.792
54785W        W14321  30.440  31.476   1.262
54786W        W14322  23.513  27.977  11.438
54787W        W14323  32.131  20.110   5.140
54788W        W14324  10.245  21.629  12.893
54789W        W14325  32.600  12.116   3.736
54790W        W14326   6.204  22.617   0.476
54791W        W14327  21.077  22.540  12.065
54792W        W14328  11.759  12.287  14.291
54793W        W14329  31.087  13.735  14.760
54794W        W14330   1.288  43.931  10.492
54795W        W14331   0.385   9.159  11.373
54796W        W14332  40.886  31.566   2.293
54797W        W14333   9.727   9.715   3.235
54798W        W14334   7.676   9.796   1.431
54799W        W14335  27.569  31.128  13.454
54800W        W14336  23.734  36.884   3.692
54801W        W14337  26.208  28.101  11.484
54802W        W14338  38.920  25.655   4.727
54803W        W14339  43.022  43.408  14.498
54804W        W14340  30.484   2.872  12.408
54805W        W14341  39.920  12.323  11.076
54806W        W14342  42.872  28.949  14.408
54807W        W14343  18.663  41.520   3.157
54808W        W14344  22.734  10.807   0.729
54809W        W14345  32.099  40.494   4.789
54810W        W14346  14.768  17.781   3.700
54811W        W14347   1.402  25.492  12.956
54812W        W14348  43.465  26.539   1.773
54813W        W14349  18.158  29.951  13.849
54814W        W14350  16.586  26.139  13.871
54815W        W14351  44.301  36.097   2.856
54816W        W14352   4.422  35.103   4.620
54817W        W14353  29.086   8.708  12.381
54818W        W14354  15.787   8.703  11.906
54819W        W14355   4.438  17.094   2.269
54820W        W14356  37.845  32.516   0.768
54821W        W14357  25.620  31.898  14.906
54822W        W14358  17.798   4.784  12.867
54823W        W14359  39.375  40.942  11.611
54824W        W14360  34.893  23.691  13.839
54825W        W14361  39.009   7.211   2.343
54826W        W14362  34.600   5.714  14.495
54827W        W14363  10.333   3.911  12.937
54828W        W14364   9.699  28.599   2.231
54829W        W14365   1.444   1.905   3.200
54830W        W14366   8.242   3.297   1.902
54831W        W14367  18.595  34.946   1.699
54832W        W14368  17.789   4.780  14.797
54833W        W14369   3.302  25.609  14.503
54834W        W14370  19.713  35.938   2.802
54835W        W14371   6.390   3.380  10.532
54836W        W14372  32.887  38.976  12.868
54837W        W14373  14.283  25.631  12.427
54838W        W14374   0.304  16.661   1.311
54839W        W14375   3.843  25.654   2.400
54840W        W14376   6.782  16.116  12.876
54841W        W14377   5.415  37.075  11.119
54842W        W14378   9.312  26.153  12.881
54843W        W14379  28.017  25.584   0.443
54844W        W14380  31.050  18.615   1.711
54845W        W14381  19.050  21.737   4.780
54846W        W14382  32.462   7.903  14.322
54847W        W14383  40.369  21.103  12.024
54848W        W14384  19.169  36.535  12.869
54849W        W14385   2.284  14.800   1.791
54850W        W14386  32.045  35.934  14.321
54851W        W14387  41.788  44.756   1.382
54852W        W14388   6.875  37.086  12.537
54853W        W14389  38.550  39.997   3.806
54854W        W14390  35.561   9.323   4.665
54855W        W14391  44.979  17.623  13.939
54856W        W14392  41.991  27.071  14.322
54857W        W14393  20.130  10.384  10.584
54858W        W14394   6.795  14.745  14.407
54859W        W14395  20.232  16.747  11.448
54860W        W14396  22.193   1.300   5.274
54861W        W14397  32.993  40.317   3.737
54862W        W14398   4.920  17.726   0.793
54863W        W14399  38.006  23.239   1.760
54864W        W14400   8.678  22.571  11.872
54865W        W14401  38.937  11.641  11.044
54866W        W14402  38.855   9.279  13.359
54867W        W14403  40.473   1.274   4.799
54868W        W14404  18.693   0.461  11.081
54869W        W14405   6.191  40.464   0.438
54870W        W14406  19.151  15.248  13.018
54871W        W14407   0.891  19.217   3.318
54872W        W14408  42.781   5.901   4.819
54873W        W14409  38.423  10.299   1.716
54874W        W14410  15.765  20.262   1.389
54875W        W14411  11.342   5.351   3.169
54876W        W14412  36.980   8.854   1.308
54877W        W14413   8.670  21.739  14.433
54878W        W14414  30.160  32.505  10.478
54879W        W14415  30.468  31.589  10.624
54880W        W14416  16.096  18.085  12.088
54881W        W14417  13.109  29.073   9.984
54882W        W14418  26.538  34.487  12.481
54883W        W14419  43.005  19.659  11.087
54884W        W14420  35.592  27.617   2.757
54885W        W14421   7.400   3.245  10.403
54886W        W14422   3.364  13.189   4.790
54887W        W14423  27.563  21.530  12.068
54888W        W14424  16.228  39.937  11.122
54889W        W14425  34.922   9.704  12.526
54890W        W14426  18.255   3.800   0.432
54891W        W14427  29.013  23.577   0.788
54892W        W14428  28.562   6.361  11.954
54893W        W14429   1.791  18.652  11.012
54894W        W14430  21.210  42.000  11.470
54895W        W14431  29.053   4.742  12.417
54896W        W14432  25.588  15.175  14.865
54897W        W14433   7.853   6.677   3.666
54898W        W14434  21.019  13.237   2.844
54899W        W14435  10.238  26.566   0.733
54900W        W14436  42.818  29.610  13.992
54901W        W14437  26.113  37.975   3.206
54902W        W14438  31.602  11.231   1.728
54903W        W14439  27.602  32.112   3.759
54904W        W14440  12.129  44.830  10.455
54905W        W14441  35.031  31.569   1.884
54906W        W14442   0.768   9.304   0.732
54907W        W14443  41.883  44.008   3.154
54908W        W14444  10.860  21.135   0.942
54909W        W14445   9.380  14.181  10.996
54910W        W14446   2.324  13.618   4.710
54911W        W14447  19.533  12.313  11.389
54912W        W14448  17.609  32.100   4.699
54913W        W14449   5.775  15.767   1.423
54914W        W14450  14.098  36.428  14.020
54915W        W14451  41.824  43.984   0.353
54916W        W14452  34.869  28.666   5.226
54917W        W14453  16.811  39.540   4.697
54918W        W14454  37.482   2.865   3.185
54919W        W14455  27.023  12.701  13.904
54920W        W14456  17.705  21.569   2.215
54921W        W14457   4.775  33.615  14.883
54922W        W14458  23.987   6.777  13.464
54923W        W14459   5.746  35.439  13.831
54924W        W14460  12.133  24.513   1.311
54925W        W14461   1.787   4.208   1.347
54926W        W14462  33.390  37.019  10.645
54927W        W14463   1.457  38.367   3.275
54928W        W14464  34.908   9.656  13.475
54929W        W14465   2.738  16.289   3.234
54930W        W14466  13.338  32.969   1.864
54931W        W14467  22.043  23.673  13.311
54932W        W14468  20.759  21.151   0.257
54933W        W14469  30.969  36.411  11.889
54934W        W14470  10.782  33.874  13.898
54935W        W14471   6.690  18.174   0.404
54936W        W14472   8.834  13.740  11.935
54937W        W14473  37.915  16.576  14.335
54938W        W14474  12.644  11.799  13.323
54939W        W14475  21.064  17.590   5.182
54940W        W14476  38.403  37.081  11.407
54941W        W14477  18.733  40.492  11.373
54942W        W14478  21.714  28.527  14.412
54943W        W14479  12.355  10.749  14.860
54944W        W14480  26.189  37.038   1.903
54945W        W14481  17.717  10.178   2.357
54946W        W14482   9.332  34.429  14.291
54947W        W14483  35.879  12.346   4.262
54948W        W14484   6.917  36.916  14.331
54949W        W14485  30.039   9.865  14.373
54950W        W14486  24.655  38.570   3.364
54951W        W14487  31.581  23.075  14.995
54952W        W14488  34.116  20.715   2.290
54953W        W14489  40.411  44.497  10.901
54954W        W14490  42.400  18.760   3.196
54955W        W14491  21.732  32.962  14.992
54956W        W14492  35.090   4.783   3.246
54957W        W14493  32.570  31.104  14.422
54958W        W14494  16.306  14.701   4.115
54959W        W14495   5.417  44.981  13.348
54960W        W14496  27.550  43.437  13.418
54961W        W14497  30.577   9.385   3.318
54962W        W14498  27.658  11.204   1.696
54963W        W14499  40.502  26.567  14.792
54964W        W14500  41.037  39.837   1.374
54965W        W14501   4.411   1.467   3.686
54966W        W14502  18.789  14.792   4.245
54967W        W14503  38.539  34.094  12.990
54968W        W14504  13.621  44.916  12.534
54969W        W14505  17.786  33.964  11.917
54970W        W14506   7.236  16.774  11.954
54971W        W14507  24.674  37.911   2.193
54972W        W14508  20.575  17.723   4.195
54973W        W14509  24.504   7.688  14.824
54974W        W14510   8.322  42.326  13.418
54975W        W14511  32.522  18.666   2.681
54976W        W14512  27.080   4.704   2.891
54977W        W14513   7.290   0.976   4.736
54978W        W14514  22.567  42.798   4.329
54979W        W14515  36.010  26.638   4.304
54980W        W14516  35.911  36.009   4.722
54981W        W14517  30.045  12.700  10.940
54982W        W14518  35.853  18.142  14.458
54983W        W14519  10.226  32.078  12.007
54984W        W14520  21.712  33.436   1.843
54985W        W14521  10.138  41.848   2.741
54986W        W14522   4.422   6.838   2.273
54987W        W14523  35.465  28.596   0.774
54988W        W14524   6.323  21.114   4.277
54989W        W14525  38.834  30.430  14.274
54990W        W14526  10.843  11.189  10.571
54991W        W14527  39.464  17.770  12.079
54992W        W14528  35.461  27.657  14.789
54993W        W14529   4.438  22.129   4.762
54994W        W14530   7.722   6.283   3.654
54995W        W14531   5.317   5.911  14.019
54996W        W14532  29.540  16.785  12.075
54997W        W14533  30.634  32.477  14.955
54998W        W14534  37.983  27.460  13.312
54999W        W14535   8.199  35.022  14.862
55000W        W14536  26.580  25.141   2.811
55001W        W14537   8.692  35.089   3.225
55002W        W14538  37.038  43.291  11.412
55003W        W14539  32.434  20.623   2.664
55004W        W14540  21.241  30.465   4.350
55005W        W14541  35.101  32.057  14.861
55006W        W14542  16.643  17.164   1.439
55007W        W14543  16.186  40.481   2.245
55008W        W14544  36.589  12.840  10.589
55009W        W14545  26.574  41.495   3.696
55010W        W14546  30.955  30.074   2.830
55011W        W14547  43.021  32.616  11.549
55012W        W14548  35.053  18.779   2.365
55013W        W14549  28.040  23.147   1.226
55014W        W14550  26.182  24.628  13.325
55015W        W14551  25.006  16.700  10.152
55016W        W14552   3.260  42.299   4.128
55017W        W14553  30.921  12.623  12.355
55018W        W14554  43.281  22.524   3.857
55019W        W14555  16.647  11.711   0.245
55020W        W14556  14.628  43.327   0.411
55021W        W14557  24.688  37.460   0.402
55022W        W14558   7.232  37.836  11.508
55023W        W14559  31.100   6.224   1.714
55024W        W14560  28.442  34.088   4.202
55025W        W14561  10.688  38.567   3.342
55026W        W14562  13.666   0.291  11.583
55027W        W14563  19.740  33.481  13.506
55028W        W14564  34.492  30.604   3.308
55029W        W14565  39.409  10.212  14.001
55030W        W14566   0.253  35.378  11.519
55031W        W14567  18.152   0.875  14.882
55032W        W14568   9.300  12.156   0.953
55033W        W14569  35.953  10.707   0.754
55034W        W14570  27.595  21.649   0.306
55035W        W14571  19.096   0.279   4.304
55036W        W14572   0.442   9.314   2.674
55037W        W14573  13.296  43.777   4.629
55038W        W14574   2.899  24.533  14.468
55039W        W14575  39.031  32.895   1.296
55040W        W14576  44.477  18.159   0.415
55041W        W14577  33.510  23.637   2.274
55042W        W14578  22.723  35.057   9.641
55043W        W14579  25.679  30.075  10.892
55044W        W14580   2.960   7.417   3.723
55045W        W14581  26.050  12.764   2.279
55046W        W14582  27.597  28.185   4.334
55047W        W14583   9.854  23.666   0.833
55048W        W14584  31.087  29.667  14.305
55049W        W14585   2.836  37.549   0.913
55050W        W14586  28.130  30.581  11.090
55051W        W14587   4.288  30.637  13.893
55052W        W14588  25.070  18.165   0.317
55053W        W14589   9.215  30.119  14.291
55054W        W14590  29.612  10.725   2.687
55055W        W14591   7.860  25.675  11.122
55056W        W14592  38.956  18.260   1.432
55057W        W14593  37.386   2.730  10.974
55058W        W14594  31.994  10.762   4.820
55059W        W14595   5.426  41.846   2.869
55060W        W14596  29.044  39.326  11.897
55061W        W14597   4.730  44.966  13.327
55062W        W14598  22.011  18.555   5.315
55063W        W14599  25.110  44.964   4.717
55064W        W14600   2.803   2.888  12.464
55065W        W14601  37.951  12.776   1.362
55066W        W14602  20.091  41.973   2.713
55067W        W14603   0.412  44.010   4.180
55068W        W14604  18.750  44.981   4.139
55069W        W14605   5.804  35.989   1.243
55070W        W14606  37.947  12.213  12.882
55071W        W14607  21.079  18.673  13.916
55072W        W14608  42.377  24.717   2.269
55073W        W14609   5.197  17.290  13.876
55074W        W14610  13.304  18.205  10.159
55075W        W14611  34.606  28.451  11.943
55076W        W14612  26.680  17.183  12.947
55077W        W14613  13.122   3.856  11.958
55078W        W14614  13.729  17.691   1.404
55079W        W14615  38.529   1.478  12.448
55080W        W14616  43.369  38.388  13.370
55081W        W14617  17.728   7.373  12.887
55082W        W14618  18.696  28.062  13.410
55083W        W14619  20.717   6.257  13.838
55084W        W14620  26.577   1.372   2.306
55085W        W14621  18.786  41.516   0.811
55086W        W14622  32.936  32.013  13.020
55087W        W14623  38.970   2.453  13.544
55088W        W14624  36.520   6.734  11.445
55089W        W14625  28.642  24.490   2.408
55090W        W14626  27.680  14.814   4.635
55091W        W14627  43.804   0.976   2.226
55092W        W14628  44.835   1.946  11.540
55093W        W14629   1.309  44.978  13.834
55094W        W14630  10.691   2.441   0.742
55095W        W14631  11.340   3.258  13.887
55096W        W14632  13.318  40.363   3.839
55097W        W14633  41.365  37.478  14.301
55098W        W14634  29.951   1.857  11.404
55099W        W14635  11.831  19.720   3.671
55100W        W14636  21.114  19.273   1.397
55101W        W14637  29.098   6.701   2.340
55102W        W14638   1.831  13.629  13.339
55103W        W14639  22.083  11.182   2.370
55104W        W14640  39.998  32.972   2.880
55105W        W14641   1.969   6.790  11.509
55106W        W14642  35.855  22.543   4.737
55107W        W14643  23.061  44.298   4.734
55108W        W14644  42.381  23.587  13.382
55109W        W14645   8.865  18.282   0.448
55110W        W14646  41.381   8.337  14.956
55111W        W14647   2.883  17.143  14.029
55112W        W14648  33.519  10.808  13.971
55113W        W14649   0.277  42.430  11.122
55114W        W14650   0.365   3.759  13.407
55115W        W14651  13.288  38.884  10.410
55116W        W14652  36.029  33.070  13.325
55117W        W14653  24.547  40.465  12.426
55118W        W14654   5.335  24.511   5.615
55119W        W14655   6.294  12.197  11.608
55120W        W14656  35.399   2.941  13.536
55121W        W14657   7.229  39.865  10.432
55122W        W14658  36.090  11.307   4.827
55123W        W14659  19.286  36.372  13.360
55124W        W14660  13.713   4.728   1.777
55125W        W14661  10.863  41.953  14.427
55126W        W14662   7.767  14.676  12.561
55127W        W14663  21.632  43.928   0.753
55128W        W14664   3.919   2.359  11.121
55129W        W14665  30.432  20.035   2.831
55130W        W14666  42.454  38.839   4.625
55131W        W14667   0.251  29.464   0.298
55132W        W14668  16.203  12.636   0.839
55133W        W14669  38.547  16.218   3.757
55134W        W14670  19.076   3.804  13.452
55135W        W14671  17.143  37.932  13.809
55136W        W14672  36.519  14.256  10.585
55137W        W14673   2.262   4.894  12.413
55138W        W14674  15.318  26.158   3.354
55139W        W14675  10.847  39.348  14.001
55140W        W14676  11.227   6.683  14.800
55141W        W14677  36.928  13.616   4.636
55142W        W14678  27.545   7.355  14.360
55143W        W14679  40.039  30.618   3.334
55144W        W14680   3.229  21.153  11.073
55145W        W14681  16.701  38.363   2.320
55146W        W14682   8.224  25.074  10.432
55147W        W14683   5.360   0.427  13.030
55148W        W14684  18.786  29.507  13.372
55149W        W14685  21.680  25.543   3.328
55150W        W14686  23.528  36.435  13.324
55151W        W14687  34.574   5.246   0.376
55152W        W14688  31.152  28.978  14.834
55153W        W14689  11.627  24.140   4.615
55154W        W14690  33.482  44.858  11.063
55155W        W14691  25.485  30.085   4.787
55156W        W14692  26.620  17.677  13.873
55157W        W14693  44.291  27.981   1.290
55158W        W14694  38.361   6.195  12.885
55159W        W14695  11.733  25.975   2.253
55160W        W14696  11.343   9.197   2.804
55161W        W14697  31.623  32.499  13.859
55162W        W14698  30.951  25.521   0.759
55163W        W14699  15.672  37.495   5.194
55164W        W14700  44.944  38.825  13.995
55165W        W14701  25.043  41.419   0.858
55166W        W14702  28.669  27.025  12.077
55167W        W14703   3.234  17.726  14.424
55168W        W14704  40.934  38.407   2.251
55169W        W14705   2.915  27.667  14.854
55170W        W14706  39.025  39.809   0.312
55171W        W14707  40.016  13.710   3.211
55172W        W14708  25.093  31.587   4.745
55173W        W14709   4.729  31.105  14.822
55174W        W14710  15.151   7.323   4.324
55175W        W14711   2.784   2.962  14.297
55176W        W14712   7.252  20.600  10.446
55177W        W14713  42.825  26.996   4.743
55178W        W14714   1.762   2.326   3.259
55179W        W14715   1.946  38.464  12.527
55180W        W14716  27.669  11.364   4.312
55181W        W14717   5.913  37.924  14.410
55182W        W14718  16.123   9.155  12.397
55183W        W14719  15.200  28.012   2.698
55184W        W14720  22.089  35.587  12.438
55185W        W14721  29.503  12.223  11.984
55186W        W14722  31.477  13.652   3.730
55187W        W14723  40.874  33.064  11.483
55188W        W14724  42.886  21.123  11.538
55189W        W14725  13.288  37.428  14.964
55190W        W14726   9.382  13.345   0.375
55191W        W14727  22.646   4.926  12.065
55192W        W14728  15.785  39.478   4.302
55193W        W14729  14.241  17.254   2.409
55194W        W14730   2.904   8.366  11.505
55195W        W14731  24.525  36.357  10.475
55196W        W14732  42.911  37.990  11.980
55197W        W14733  19.537   5.242  14.837
55198W        W14734  12.682  44.276   5.284
55199W        W14735  11.258  30.981   4.162
55200W        W14736  18.069  16.259   4.187
55201W        W14737  36.469  10.299   3.759
55202W        W14738  10.685  16.309   2.710
55203W        W14739  23.190  22.218   2.416
55204W        W14740   6.374  24.606   3.702
55205W        W14741  17.581   1.414   0.443
55206W        W14742  17.120  16.701   3.776
55207W        W14743  10.651  28.681  12.539
55208W        W14744  11.634  27.104   2.766
55209W        W14745   8.357  37.909   3.641
55210W        W14746   8.239   8.269   0.944
55211W        W14747  15.306   2.772  14.938
55212W        W14748  32.008  42.955  10.127
55213W        W14749  23.167  42.999  11.951
55214W        W14750  29.481  23.587   0.474
55215W        W14751   5.746  39.362   1.305
55216W        W14752  41.889  40.827   4.139
55217W        W14753  32.400  35.871   3.830
55218W        W14754  41.370   9.338   0.451
55219W        W14755  33.964  30.013  14.021
55220W        W14756  38.851  24.065   3.254
55221W        W14757  37.040  13.626  11.540
55222W        W14758  12.270  42.330   0.309
55223W        W14759  31.097  10.875   0.311
55224W        W14760  33.470  11.755   4.726
55225W        W14761  13.791  31.546  12.483
55226W        W14762  26.656  41.943  13.975
55227W        W14763  35.420  28.596  13.934
55228W        W14764  11.257  14.132   0.949
55229W        W14765   3.742  33.582   2.673
55230W        W14766  19.222  41.325  12.891
55231W        W14767  15.738  26.489   2.743
55232W        W14768  43.780  36.848   0.786
55233W        W14769  28.564  27.558  10.526
55234W        W14770  36.901  38.333   3.180
55235W        W14771  18.189   8.329  13.369
55236W        W14772   5.414  41.983   4.306
55237W        W14773  42.525  28.121   3.778
55238W        W14774  24.639  39.371   4.350
55239W        W14775  24.040  30.069  12.011
55240W        W14776  13.677  32.524   3.694
55241W        W14777  13.263  16.141  14.470
55242W        W14778  39.536  40.869   0.825
55243W        W14779  33.984  12.347   2.294
55244W        W14780  40.966  23.735  11.454
55245W        W14781  31.574   2.375   4.240
55246W        W14782  41.500  13.186   1.816
55247W        W14783  33.068   8.215   2.892
55248W        W14784  14.100  31.141   2.264
55249W        W14785   2.747  38.913   2.754
55250W        W14786  16.610  13.299   4.674
55251W        W14787  23.218   8.331  11.986
55252W        W14788  29.014  16.669  14.765
55253W        W14789  20.151   1.783  10.456
55254W        W14790   9.246  17.183  13.983
55255W        W14791  19.668  13.812  11.913
55256W        W14792  27.118  12.716  14.355
55257W        W14793  44.315  22.240   1.698
55258W        W14794  36.393   2.425   2.180
55259W        W14795  20.749   0.375  13.426
55260W        W14796  30.516  40.935  13.804
55261W        W14797  21.194  38.982  14.315
55262W        W14798  11.777  27.543   0.336
55263W        W14799  26.601   1.426  12.498
55264W        W14800  21.206   7.280   4.796
55265W        W14801   4.295   4.932   0.323
55266W        W14802  37.384  26.082   2.737
55267W        W14803  43.849  11.216   3.838
55268W        W14804   4.801  27.061  13.913
55269W        W14805   4.924  36.575  13.403
55270W        W14806  15.724  10.654   2.753
55271W        W14807  13.175  22.197  11.856
55272W        W14808  28.661  13.665  13.355
55273W        W14809  17.296  24.579   4.660
55274W        W14810  37.472  42.526   2.247
55275W        W14811  33.941  39.048   0.248
55276W        W14812  28.591  14.098  11.413
55277W        W14813  36.479  24.534   0.418
55278W        W14814   4.822  40.391   3.160
55279W        W14815  14.792  35.045  10.560
55280W        W14816   6.236  31.424  13.321
55281W        W14817  42.021  23.659  12.891
55282W        W14818  43.888  39.943  11.018
55283W        W14819   1.763  37.530  13.890
55284W        W14820  18.227   3.860   3.753
55285W        W14821   6.346  15.142   3.278
55286W        W14822   6.703  41.372   4.639
55287W        W14823  11.647  12.687   1.221
55288W        W14824  43.471   9.351  13.887
55289W        W14825  40.933  38.021  13.533
55290W        W14826   1.922  14.613   1.365
55291W        W14827  28.126  42.473  13.351
55292W        W14828   8.788   4.418   4.142
55293W        W14829  20.682  26.569   4.608
55294W        W14830   6.703   2.787   2.737
55295W        W14831  12.213  42.970  13.051
55296W        W14832  20.188  14.311  14.329
55297W        W14833  43.821   6.315   1.752
55298W        W14834  38.367  15.277   2.371
55299W        W14835  29.625  37.063  13.331
55300W        W14836   5.205  20.537  12.878
55301W        W14837  40.341   3.284   3.346
55302W        W14838   2.395  19.746  12.513
55303W        W14839  23.136  34.437  12.905
55304W        W14840  20.665  30.533  10.500
55305W        W14841   6.743   4.350  11.466
55306W        W14842  26.070   6.837   1.361
55307W        W14843   0.925  11.685  14.803
55308W        W14844  13.747   4.794  13.969
55309W        W14845  35.067  11.283  12.342
55310W        W14846   1.474  16.165   4.226
55311W        W14847  21.588  41.960  13.433
55312W        W14848  15.089  33.446  12.041
55313W        W14849  28.589  39.887   0.314
55314W        W14850  13.805  11.667  12.996
55315W        W14851  35.412   3.850  14.503
55316W        W14852   4.761  22.202   0.444
55317W        W14853  22.533  28.573  13.895
55318W        W14854  33.463  27.487  13.990
55319W        W14855  13.614  43.352   2.376
55320W        W14856  24.083  15.700   2.329
55321W        W14857  31.602  14.247  13.453
55322W        W14858   7.315   3.245   3.847
55323W        W14859  39.369  26.680   4.257
55324W        W14860  16.633  39.838   2.313
55325W        W14861  33.546  27.023  11.959
55326W        W14862   5.721  26.967  13.840
55327W        W14863  13.610   6.922  11.923
55328W        W14864   4.255   7.340   0.255
55329W        W14865  27.167  29.996  13.500
55330W        W14866   6.773   6.263  13.483
55331W        W14867  35.068   9.166   3.748
55332W        W14868  25.190  19.553   4.295
55333W        W14869  37.993  42.964   4.261
55334W        W14870  26.144  27.035  12.481
55335W        W14871  42.796  44.463   2.264
55336W        W14872   2.468  37.361  14.452
55337W        W14873   2.444  43.359  12.382
55338W        W14874  17.743  35.458  11.549
55339W        W14875  12.178  33.942  10.981
55340W        W14876  44.446  17.699  10.591
55341W        W14877  30.951  32.994  14.802
55342W        W14878   5.421  37.423   1.348
55343W        W14879  14.118   6.677  12.449
55344W        W14880  22.224  41.880  12.400
55345W        W14881  22.119  15.779   2.355
55346W        W14882   7.256  11.753   1.876
55347W        W14883  37.984  23.720   4.824
55348W        W14884  14.217   3.779   1.864
55349W        W14885   2.315  26.972  14.952
55350W        W14886  20.056  42.323   1.406
55351W        W14887   5.906   8.293  13.433
55352W        W14888  16.224  21.590   4.645
55353W        W14889  29.961  33.410   0.943
55354W        W14890  34.997  32.118   4.123
55355W        W14891  15.728   9.727  14.907
55356W        W14892   7.711  29.001   0.935
55357W        W14893  11.346   8.320  13.475
55358W        W14894  38.511   8.828   2.861
55359W        W14895  32.091   1.398  14.966
55360W        W14896  15.721  15.316  14.777
55361W        W14897  39.983  33.880   1.322
55362W        W14898  38.835  31.971  13.347
55363W        W14899  34.000  24.990   5.797
55364W        W14900   9.777   6.745   0.460
55365W        W14901  22.726  20.584  14.333
55366W        W14902  28.543   8.776   3.717
55367W        W14903  29.479   4.413  12.528
55368W        W14904  11.156  23.168  11.539
55369W        W14905  15.185  41.423  11.046
55370W        W14906  19.064  16.248   0.300
55371W        W14907  27.022  11.712  14.376
55372W        W14908   0.285  20.218  14.862
55373W        W14909  43.289  44.325   9.995
55374W        W14910  42.386  13.305  13.514
55375W        W14911  44.007   9.747  14.841
55376W        W14912  22.535  11.689   4.678
55377W        W14913   9.216  17.615   4.298
55378W        W14914   8.897   3.303  10.491
55379W        W14915  24.097   7.814   3.195
55380W        W14916  26.492   1.940  12.906
55381W        W14917  10.833  12.702   3.789
55382W        W14918   3.351  14.339   2.715
55383W        W14919  12.763  14.761  12.904
55384W        W14920  26.668  34.448   2.857
55385W        W14921  35.583  14.301  11.534
55386W        W14922  25.027  43.850  11.419
55387W        W14923  27.152   7.353   0.882
55388W        W14924  21.124  18.748  13.310
55389W        W14925  39.557  26.029   0.770
55390W        W14926   9.172  42.984  12.027
55391W        W14927  21.040   1.965  10.529
55392W        W14928  14.108  29.462  13.857
55393W        W14929  33.939  35.040   2.404
55394W        W14930  41.979  15.750  11.110
55395W        W14931  36.077  27.680  14.512
55396W        W14932   1.852   3.846   2.749
55397W        W14933   5.323  42.344  14.423
55398W        W14934   6.310  33.461  14.832
55399W        W14935  31.558   0.766   3.654
55400W        W14936  39.978  24.573  10.931
55401W        W14937  14.707  33.534   0.833
55402W        W14938   0.474  15.160  13.472
55403W        W14939  41.947   3.269  12.062
55404W        W14940   4.332   1.848   4.327
55405W        W14941  19.124  39.356   3.847
55406W        W14942  32.420  43.870  14.999
55407W        W14943  31.040   5.428  12.505
55408W        W14944   7.256  25.210  12.422
55409W        W14945  29.562  40.848  14.838
55410W        W14946  34.891  16.126   3.183
55411W        W14947  20.084   6.862   1.792
55412W        W14948  42.395  33.605  11.035
55413W        W14949  17.768   8.711  11.441
55414W        W14950  20.201  35.863  13.004
55415W        W14951  12.199  31.498   4.344
55416W        W14952  10.308  22.206   3.285
55417W        W14953   4.854  11.720  11.577
55418W        W14954  30.948  18.253   2.233
55419W        W14955  43.949  27.655   0.821
55420W        W14956   4.818  19.755   2.794
55421W        W14957  23.042  41.842   0.404
55422W        W14958  24.496  36.050   3.208
55423W        W14959  33.035  30.598   2.833
55424W        W14960  21.124  16.693   1.766
55425W        W14961   9.697  39.504   1.378
55426W        W14962  20.145  25.502  10.411
55427W        W14963  41.510   9.881   0.804
55428W        W14964  22.506  28.587   3.632
55429W        W14965  28.929  16.142  10.563
55430W        W14966  37.353  42.525   1.385
55431W        W14967  20.255  11.651  12.471
55432W        W14968   7.811  21.121  10.062
55433W        W14969  18.106  27.152  10.472
55434W        W14970  43.812  27.640   1.881
55435W        W14971  24.587  23.043   4.142
55436W        W14972   3.904  16.722  11.891
55437W        W14973   4.927  12.194  14.442
55438W        W14974   6.919  30.565   1.341
55439W        W14975  42.994  10.853  10.099
55440W        W14976  39.928  14.679   1.752
55441W        W14977  24.206  18.070   3.251
55442W        W14978  44.004  33.488  11.022
55443W        W14979  43.426  27.636  13.056
55444W        W14980  17.587  17.284  14.827
55445W        W14981  19.047  35.603   9.574
55446W        W14982  33.934  23.233   2.868
55447W        W14983  43.907  21.748   0.312
55448W        W14984  40.374  29.058   2.345
55449W        W14985  21.119   9.677  12.371
55450W        W14986  12.258  22.046  10.943
55451W        W14987  32.926  29.449  14.810
55452W        W14988  41.520  35.444   4.210
55453W        W14989  38.444   1.839  14.411
55454W        W14990   6.199   9.301   4.164
55455W        W14991  32.491  33.576  13.034
55456W        W14992  15.669  22.119   1.888
55457W        W14993  10.208  35.464   2.239
55458W        W14994  12.355  38.023  13.467
55459W        W14995  31.988  40.516   2.718
55460W        W14996   8.216  44.362   3.749
55461W        W14997  20.083  35.594  13.021
55462W        W14998  21.682  16.182   1.234
55463W        W14999   9.855  19.679  10.905
55464W        W15000  25.213  36.393   3.158
55465W        W15001  43.483   9.815  13.439
55466W        W15002  13.731  44.969  13.372
55467W        W15003  35.009  33.582  10.495
55468W        W15004  31.515  21.042   1.429
55469W        W15005   5.302  15.244   4.762
55470W        W15006   9.171  19.600   1.788
55471W        W15007  38.025   3.221   5.124
55472W        W15008  39.317  39.439   2.189
55473W        W15009  38.335  38.000  12.431
55474W        W15010  39.976  14.634   0.950
55475W        W15011  27.649  27.018   0.901
55476W        W15012  36.948  36.543   1.219
55477W        W15013  36.530  17.071   4.171
55478W        W15014  36.472  26.557   0.873
55479W        W15015  32.462  15.315   1.802
55480W        W15016  27.007   1.368   0.400
55481W        W15017   3.266  40.488  10.972
55482W        W15018  20.697  43.472   2.251
55483W        W15019  34.050  36.480   4.319
55484W        W15020  16.240   0.755   0.283
55485W        W15021   2.380  10.778  11.890
55486W        W15022   4.773  24.695  14.872
55487W        W15023  28.490  32.447   3.789
55488W        W15024  25.481  39.998  14.375
55489W        W15025  15.086   8.790  12.907
55490W        W15026   4.407  25.118   2.179
55491W        W15027  29.520  43.501   1.815
55492W        W15028   1.751   0.285  12.450
55493W        W15029   7.196  16.149   3.672
55494W        W15030  31.998  17.095  10.428
55495W        W15031  31.110  36.041   0.275
55496W        W15032  39.041  25.699   3.155
55497W        W15033  10.252  37.566   3.824
55498W        W15034  33.403  19.768   0.765
55499W        W15035  36.569  14.246   4.196
55500W        W15036  43.489  21.643  13.943
55501W        W15037  35.571  22.079   3.243
55502W        W15038  44.411  12.837   3.856
55503W        W15039  43.781  38.009  14.431
55504W        W15040  43.298  18.138   5.293
55505W        W15041   4.430  32.006   1.860
55506W        W15042  26.504  10.763  11.951
55507W        W15043  43.360   9.160  11.961
55508W        W15044  33.583   9.643  11.106
55509W        W15045   0.318   5.296  11.433
55510W        W15046   5.415  26.008  12.434
55511W        W15047  20.035  12.718  13.935
55512W        W15048  25.661  22.620  11.007
55513W        W15049  43.853   7.211  10.405
55514W        W15050  39.527  44.842  14.443
55515W        W15051  30.066  35.400   2.828
55516W        W15052  41.361  34.920   0.264
55517W        W15053  31.004  26.161   2.198
55518W        W15054  20.066   4.698  13.800
55519W        W15055  10.237  11.150   3.675
55520W        W15056  41.822  20.590   3.695
55521W        W15057  16.211   8.292   1.236
55522W        W15058  24.537   8.695   3.744
55523W        W15059  40.828  37.991  12.015
55524W        W15060  25.560  13.658   4.785
55525W        W15061  12.223  11.700   5.089
55526W        W15062  44.784  16.569   3.699
55527W        W15063  18.134   5.385   0.738
55528W        W15064  44.912  32.417   2.719
55529W        W15065  42.847  10.777  12.971
55530W        W15066  35.006   8.296  13.395
55531W        W15067  36.916  30.162   0.339
55532W        W15068   3.384   8.887  10.608
55533W        W15069   8.716  28.049  14.443
55534W        W15070  29.429   7.810  10.511
55535W        W15071  11.627  34.994  12.886
55536W        W15072   7.232   0.478  14.419
55537W        W15073  34.432  18.767   1.301
55538W        W15074  28.575  25.648  10.916
55539W        W15075  20.692  30.557   0.260
55540W        W15076  26.677  20.105   3.184
55541W        W15077  43.289  21.132   0.257
55542W        W15078  12.321   5.428   3.325
55543W        W15079  41.323  11.857   3.635
55544W        W15080  35.005  42.789   2.837
55545W        W15081  14.166  21.196   0.859
55546W        W15082  23.190   0.484   3.798
55547W        W15083  13.725   4.242  14.770
55548W        W15084  40.325  12.264  12.545
55549W        W15085  41.912   2.737  12.469
55550W        W15086  32.475  11.818  10.570
55551W        W15087  44.311  29.471   3.287
55552W        W15088  32.002   7.791   3.347
55553W        W15089  31.930  23.214   3.184
55554W        W15090  10.713  12.648   4.818
55555W        W15091  14.833  11.315  13.478
55556W        W15092  14.283  22.708   3.290
55557W        W15093   1.273  34.880   2.322
55558W        W15094  26.205  36.889   5.795
55559W        W15095  21.103   1.359   2.901
55560W        W15096  35.363  30.937   1.401
55561W        W15097  44.757  25.529   1.856
55562W        W15098  29.064  25.514   1.820
55563W        W15099  40.942  12.643  14.889
55564W        W15100   6.195  34.015  14.916
55565W        W15101  33.613  20.154  13.037
55566W        W15102  41.501  14.809  10.972
55567W        W15103  15.646  14.131  14.823
55568W        W15104  12.815  44.925  13.402
55569W        W15105  18.064  42.366  11.468
55570W        W15106   6.824   4.414  13.885
55571W        W15107   6.245  33.949   3.640
55572W        W15108  26.019  13.622  11.945
55573W        W15109   7.823  16.635   3.716
55574W        W15110  25.206  13.250   4.293
55575W        W15111  27.172  10.361  11.539
55576W        W15112   5.904  17.158  10.431
55577W        W15113  39.396   1.893   3.190
55578W        W15114  29.522   6.370   3.345
55579W        W15115  38.453  14.239   2.663
55580W        W15116   0.256  16.619   2.350
55581W        W15117  18.619  17.604   2.265
55582W        W15118  40.000  42.454  13.837
55583W        W15119  36.084  32.579  14.911
55584W        W15120  27.982  41.950  12.931
55585W        W15121   2.311  31.057  12.887
55586W        W15122  38.907  25.687  13.829
55587W        W15123  10.360  31.920   4.623
55588W        W15124   9.308  42.456  11.424
55589W        W15125  17.676  27.146  11.888
55590W        W15126  44.505  34.461   0.913
55591W        W15127  33.575   0.453   9.549
55592W        W15128   8.302  17.683  12.869
55593W        W15129  16.155  26.150   0.351
55594W        W15130  34.109  26.057  14.451
55595W        W15131  34.992  43.828  12.919
55596W        W15132  17.087  42.810  13.880
55597W        W15133  15.223  44.503  11.451
55598W        W15134  12.296   5.383  13.347
55599W        W15135  21.082  34.944   0.904
55600W        W15136  27.500  32.960   0.917
55601W        W15137  42.439  35.450  12.547
55602W        W15138  20.127  13.653   3.694
55603W        W15139  23.689  42.492  11.377
55604W        W15140  29.593  43.345  11.504
55605W        W15141  34.879  12.160  14.348
55606W        W15142  30.416  20.718   1.349
55607W        W15143  40.396  15.245  13.462
55608W        W15144   5.209   3.393   2.801
55609W        W15145  24.683  44.954  11.049
55610W        W15146  38.929  32.504   4.197
55611W        W15147   2.268  41.528   5.202
55612W        W15148   8.273  19.202   3.808
55613W        W15149   0.424  39.933   0.772
55614W        W15150  34.040  32.606   1.830
55615W        W15151  35.940  18.291  11.995
55616W        W15152  41.957  34.030  10.626
55617W        W15153  43.770  22.154  13.905
55618W        W15154  31.517  30.101   1.398
55619W        W15155  42.504  39.052  14.443
55620W        W15156  17.796   9.379   4.664
55621W        W15157  39.846  17.800   2.284
55622W        W15158  38.330  31.625   1.746
55623W        W15159  40.919  22.072  11.037
55624W        W15160  32.632  24.080  10.920
55625W        W15161  44.330  39.372   2.774
55626W        W15162  21.215   7.201  13.455
55627W        W15163   1.907  36.035  12.910
55628W        W15164  20.187  44.926   3.379
55629W        W15165  12.659   8.388  10.017
55630W        W15166  40.461  30.570   4.134
55631W        W15167  19.264  10.647  12.956
55632W        W15168  23.033  28.514   0.411
55633W        W15169   6.822  14.181   2.267
55634W        W15170  41.907  38.869  14.780
55635W        W15171  28.121  32.398   1.929
55636W        W15172   1.427  40.317  13.307
55637W        W15173   7.705   3.711   0.422
55638W        W15174  22.057   2.386   1.757
55639W        W15175   4.244  19.615   0.470
55640W        W15176  16.678  16.666  12.450
55641W        W15177  12.281  26.000  12.961
55642W        W15178  36.573  24.122   2.418
55643W        W15179  22.703  34.918   0.304
55644W        W15180  25.054  42.319  14.943
55645W        W15181  41.801  38.842   4.240
55646W        W15182  20.662   9.889  10.622
55647W        W15183  13.170  15.677   3.677
55648W        W15184   8.275  32.136   4.704
55649W        W15185  33.406  33.440  11.434
55650W        W15186  15.766  31.083  11.421
55651W        W15187  31.151   5.713  10.942
55652W        W15188   9.343  23.689  13.864
55653W        W15189  35.573  33.033   0.297
55654W        W15190  23.215  12.798   4.664
55655W        W15191  32.119   7.382  14.876
55656W        W15192   9.181  23.691  11.402
55657W        W15193  43.310   8.832  10.083
55658W        W15194  40.855  32.979  12.924
55659W        W15195   8.283  22.171   2.878
55660W        W15196  20.594  10.767   4.732
55661W        W15197  23.532  17.097   2.696
55662W        W15198  42.013  27.452  14.874
55663W        W15199  23.573  42.008   1.257
55664W        W15200  15.111   9.853   3.268
55665W        W15201  41.822  43.839   1.394
55666W        W15202   8.869  27.131  12.828
55667W        W15203  40.447  39.863  10.472
55668W        W15204   3.261   9.879   3.277
55669W        W15205  24.543  17.645   0.728
55670W        W15206  23.213  29.661   0.771
55671W        W15207   0.820  28.170  12.930
55672W        W15208  39.056  14.145  10.420
55673W        W15209   9.823   4.249  10.991
55674W        W15210   0.898  20.594   0.787
55675W        W15211   3.235  15.100   1.376
55676W        W15212  10.348   4.208  10.414
55677W        W15213  26.068  30.573   4.351
55678W        W15214  18.290  34.471  13.009
55679W        W15215  42.031  20.689  11.434
55680W        W15216  40.394  28.962   0.477
55681W        W15217  19.622   1.809  12.442
55682W        W15218  33.458  30.162   2.253
55683W        W15219  23.561   8.865   3.695
55684W        W15220  26.599   9.272   4.183
55685W        W15221  35.990   6.706   2.881
55686W        W15222  42.373  41.984   4.606
55687W        W15223  42.335  27.542  12.884
55688W        W15224  16.205  14.805  12.092
55689W        W15225  22.542  44.772  12.993
55690W        W15226  32.442  28.141   0.463
55691W        W15227  24.067  40.942   0.742
55692W        W15228   4.731  20.683   2.758
55693W        W15229  44.905  21.736   4.802
55694W        W15230  23.636  16.101   2.855
55695W        W15231  44.270  37.851  13.021
55696W        W15232  29.930  20.069  11.874
55697W        W15233  38.894   9.388   1.864
55698W        W15234  13.725  37.346  12.896
55699W        W15235  26.121  17.772  13.348
55700W        W15236   1.435  44.497  14.861
55701W        W15237  41.375  43.452  12.051
55702W        W15238  17.149  18.192   5.191
55703W        W15239  37.483   1.887   9.452
55704W        W15240  38.520   8.298  12.915
55705W        W15241  18.561  29.602  11.062
55706W        W15242  41.966  11.346  13.965
55707W        W15243  37.425  23.994  12.431
55708W        W15244  21.017  18.734   2.801
55709W        W15245  43.371  12.161   2.224
55710W        W15246  11.741  34.967  13.897
55711W        W15247  10.864  15.243   0.398
55712W        W15248   8.385   8.312  13.828
55713W        W15249  13.112  34.488  13.424
55714W        W15250  35.975  18.130   3.290
55715W        W15251  19.157  39.015  13.938
55716W        W15252  34.909  19.603  13.952
55717W        W15253  32.624  31.448   2.402
55718W        W15254  27.051  41.476   4.280
55719W        W15255   2.258  13.125   1.900
55720W        W15256   6.217  35.905   2.790
55721W        W15257  21.573  37.539   4.796
55722W        W15258   1.265   4.741   0.433
55723W        W15259  19.554  24.112   0.251
55724W        W15260  15.280  26.059  12.545
55725W        W15261  39.397   9.801  13.488
55726W        W15262   2.250  32.435   1.772
55727W        W15263  28.057  20.694   4.113
55728W        W15264  28.078   7.821  13.991
55729W        W15265  10.254  25.159  10.128
55730W        W15266  43.355  16.073   2.266
55731W        W15267  41.902  42.980  11.589
55732W        W15268  44.971  17.626  11.859
55733W        W15269   4.363  18.143  13.923
55734W        W15270  25.082  23.224   4.129
55735W        W15271  41.876   5.261   3.737
55736W        W15272  13.324   5.356  13.983
55737W        W15273  44.366  16.099  12.834
55738W        W15274   0.986  43.486  13.471
55739W        W15275  11.244  43.000  11.862
55740W        W15276   8.252  25.019  11.512
55741W        W15277  17.648  13.310   0.344
55742W        W15278   2.768   9.336   3.199
55743W        W15279  39.415  20.132   0.769
55744W        W15280  17.772  23.105  10.423
55745W        W15281   2.842  17.775   0.761
55746W        W15282  25.550  33.523   2.730
55747W        W15283  19.205  38.423  12.946
55748W        W15284  20.680  27.611  11.440
55749W        W15285  10.664   9.301  13.388
55750W        W15286  12.683  28.665  14.984
55751W        W15287   9.707  10.338  11.406
55752W        W15288  27.069  38.941  12.513
55753W        W15289  18.656  41.016   2.803
55754W        W15290  33.389   8.229  12.499
55755W        W15291   9.196   4.792  11.480
55756W        W15292  13.135  14.697   1.419
55757W        W15293  40.453  30.629   2.336
55758W        W15294   5.379  40.371   3.324
55759W        W15295   2.894  17.125   3.866
55760W        W15296  43.793  41.879  12.967
55761W        W15297   9.684  28.585   4.803
55762W        W15298  10.655  22.511  14.339
55763W        W15299   5.804  33.558  12.374
55764W        W15300  21.037  28.031  13.546
55765W        W15301  11.146  35.036   0.746
55766W        W15302   8.897  19.103  13.827
55767W        W15303  26.152  29.168   3.230
55768W        W15304  16.737  39.030   0.368
55769W        W15305  32.045   4.431   0.893
55770W        W15306  13.750  16.720  14.002
55771W        W15307  18.154  31.101  12.883
55772W        W15308  21.582  33.476  11.925
55773W        W15309  24.589  37.538  14.409
55774W        W15310  41.517  42.477   2.783
55775W        W15311  20.635  14.605  14.032
55776W        W15312  18.683   0.458  10.138
55777W        W15313  23.135  28.127  14.276
55778W        W15314  29.155  35.556  11.993
55779W        W15315  19.588  32.445  14.772
55780W        W15316  22.747   1.788   1.397
55781W        W15317  25.657   9.823   2.859
55782W        W15318  23.027  19.718  10.614
55783W        W15319   6.905   5.214  12.351
55784W        W15320  15.226  25.588  11.544
55785W        W15321  42.995   0.770  13.480
55786W        W15322  40.508  22.559  13.027
55787W        W15323  13.767  35.517  14.938
55788W        W15324   2.246   7.808   3.283
55789W        W15325  32.927  33.035   3.707
55790W        W15326  38.347  28.165   1.741
55791W        W15327  37.865  43.823   1.310
55792W        W15328  36.990   8.798  11.874
55793W        W15329  34.105   1.967  11.006
55794W        W15330  10.228   7.328  11.959
55795W        W15331  22.628  26.646  14.796
55796W        W15332  16.217  41.493   0.475
55797W        W15333  28.152  25.555   3.209
55798W        W15334  13.776   3.852  11.460
55799W        W15335  22.689  32.430  14.932
55800W        W15336  37.844  26.514  12.041
55801W        W15337  13.825   8.709  12.474
55802W        W15338   2.431  23.568   2.380
55803W        W15339  34.993   9.674  11.953
55804W        W15340  42.880  36.971  12.515
55805W        W15341  28.999  22.713  11.955
55806W        W15342   3.729  40.882   1.289
55807W        W15343  20.522   0.989   0.841
55808W        W15344   3.872  27.490  13.913
55809W        W15345   7.808  11.308   1.407
55810W        W15346   8.336   3.315  11.859
55811W        W15347  11.207   8.790   3.783
55812W        W15348   5.414  11.279   2.413
55813W        W15349  33.498  29.541  13.380
55814W        W15350  33.613  40.038   1.407
55815W        W15351  16.140   2.367  14.421
55816W        W15352  21.204  13.731  12.902
55817W        W15353  39.318  36.579   4.665
55818W        W15354  12.348   3.241   9.993
55819W        W15355  41.331  44.876   0.460
55820W        W15356  32.056   5.909  13.371
55821W        W15357  19.125  33.422  13.379
55822W        W15358  40.469   4.263   2.693
55823W        W15359  12.346   0.758   4.785
55824W        W15360  22.584  37.529   0.275
55825W        W15361  37.067  11.831  10.495
55826W        W15362  16.089  30.972  12.559
55827W        W15363  29.451  13.230  13.861
55828W        W15364   6.354   7.815  12.463
55829W        W15365  23.513  30.113  11.491
55830W        W15366  37.942  35.439  12.437
55831W        W15367  33.492  44.790  13.307
55832W        W15368   5.847  10.242   0.865
55833W        W15369   9.666  33.432  13.355
55834W        W15370  24.538  28.040   1.908
55835W        W15371   5.399  22.016  11.434
55836W        W15372  20.732  24.644  11.972
55837W        W15373  40.325   3.271   1.864
55838W        W15374   0.488  37.407  11.528
55839W        W15375  44.852  22.208  14.870
55840W        W15376  12.339  31.571  14.478
55841W        W15377   9.877   6.385  10.645
55842W        W15378  21.514   6.739  11.603
55843W        W15379  13.170   2.294   2.840
55844W        W15380  44.769  12.262   3.711
55845W        W15381   8.872  29.034  13.038
55846W        W15382  10.209  30.950  12.841
55847W        W15383   2.359  36.972   4.749
55848W        W15384  20.583  18.776  13.350
55849W        W15385  43.991  40.517   4.173
55850W        W15386   8.769  30.106  11.610
55851W        W15387  21.534  20.088  11.566
55852W        W15388  10.355  21.166  13.333
55853W        W15389  43.873  41.828   0.801
55854W        W15390  11.740  33.061  12.035
55855W        W15391  16.159  30.916   3.329
55856W        W15392  39.876  31.962  14.442
55857W        W15393  33.065  24.608   4.274
55858W        W15394   4.722   7.768  13.382
55859W        W15395  11.161   2.809  10.534
55860W        W15396  13.334  14.151  10.154
55861W        W15397  20.074   8.339  11.049
55862W        W15398  13.716  11.791  11.600
55863W        W15399  28.508  43.770   2.729
55864W        W15400  22.673  42.470  13.030
55865W        W15401  12.273  15.289   3.658
55866W        W15402   9.318  29.617  10.898
55867W        W15403  10.296  13.827  11.396
55868W        W15404  15.689  43.918   2.371
55869W        W15405   7.255  10.314  10.504
55870W        W15406  35.867  42.964  11.607
55871W        W15407  22.567   0.361  12.979
55872W        W15408  31.488   7.405  12.840
55873W        W15409  38.859  25.484  12.850
55874W        W15410  29.951  30.631  12.955
55875W        W15411  13.187   9.707   2.776
55876W        W15412  18.259  14.175  12.039
55877W        W15413  17.208  13.265   1.849
55878W        W15414  11.158  34.593  14.455
55879W        W15415  23.679  42.894   0.278
55880W        W15416   1.879  44.984   4.714
55881W        W15417   7.831  34.496   3.782
55882W        W15418  42.864  41.323  10.490
55883W        W15419  39.052  17.116   2.688
55884W        W15420  28.579  14.631  14.764
55885W        W15421   5.207  11.360   0.374
55886W        W15422   0.286  37.993  13.382
55887W        W15423  41.981   1.356   1.890
55888W        W15424  23.027  28.155   3.650
55889W        W15425  19.105   8.697  11.540
55890W        W15426  37.563  32.064   2.240
55891W        W15427  37.035  32.506   3.372
55892W        W15428  11.652  19.604  11.587
55893W        W15429  25.205  21.023  11.561
55894W        W15430  29.948   7.903   2.338
55895W        W15431  43.493  34.561  10.459
55896W        W15432   1.237  44.824  13.401
55897W        W15433  12.850  39.434   3.727
55898W        W15434  25.990   8.886  12.447
55899W        W15435  27.457  16.704   3.641
55900W        W15436   3.431  10.686   2.296
55901W        W15437  33.910   7.870   0.456
55902W        W15438  41.944  39.520  11.608
55903W        W15439  30.145   5.870  10.501
55904W        W15440   8.692  36.982   4.129
55905W        W15441  19.777  43.358   0.304
55906W        W15442  20.129   6.782  12.055
55907W        W15443  25.123  16.255  10.512
55908W        W15444  32.889  39.871  13.497
55909W        W15445  21.025  28.085  11.973
55910W        W15446  28.452  32.507  13.009
55911W        W15447  26.034  36.025   4.647
55912W        W15448  18.770  25.592  11.452
55913W        W15449  18.607  22.102   5.294
55914W        W15450  25.195  13.671   1.390
55915W        W15451  13.216  30.595  11.116
55916W        W15452   2.406  30.545   2.800
55917W        W15453   7.713  15.187  11.453
55918W        W15454  31.566   1.267   0.745
55919W        W15455  10.369  35.094  12.085
55920W        W15456  28.670  30.100  10.593
55921W        W15457  17.580  13.784  12.892
55922W        W15458  32.071  11.746   0.249
55923W        W15459  27.164  19.101   1.273
55924W        W15460  28.186   7.177   9.953
55925W        W15461   5.317  20.604   0.460
55926W        W15462   4.276  35.921  11.479
55927W        W15463  25.176  10.838   3.807
55928W        W15464  44.310  29.174  10.576
55929W        W15465  40.030  10.706   4.330
55930W        W15466  27.531  12.172   4.128
55931W        W15467  34.094  27.038  12.883
55932W        W15468  42.345   8.889  10.456
55933W        W15469  26.690  38.857   1.310
55934W        W15470   8.203  30.118  10.922
55935W        W15471   8.200  44.365   4.118
55936W        W15472  28.520   1.951  13.033
55937W        W15473  24.638   4.250   1.712
55938W        W15474  19.778  11.151   2.406
55939W        W15475  23.604  25.039  14.958
55940W        W15476  38.457  35.523  11.967
55941W        W15477   4.804  14.795   1.388
55942W        W15478  28.103  26.184  10.477
55943W        W15479  35.462  28.968  11.919
55944W        W15480  31.404  11.318  13.018
55945W        W15481   1.766  14.687   0.842
55946W        W15482  34.418  39.319  13.364
55947W        W15483  20.534  38.328   2.337
55948W        W15484  16.283   8.279   2.822
55949W        W15485  36.579  27.150   5.167
55950W        W15486  44.868  20.540  14.825
55951W        W15487  40.946  32.463   3.286
55952W        W15488  14.760  30.003  11.468
55953W        W15489  33.060   6.734   1.798
55954W        W15490   5.355   5.283   2.305
55955W        W15491   8.312  33.564  12.870
55956W        W15492  10.717  14.333  13.881
55957W        W15493  11.748  44.853   2.805
55958W        W15494  21.040  16.596  10.994
55959W        W15495  29.470   5.807   4.154
55960W        W15496  28.180  41.963   4.667
55961W        W15497  19.558  15.726  11.513
55962W        W15498   8.277  18.612   2.337
55963W        W15499  32.451  14.183   4.751
55964W        W15500  11.779  29.936   1.769
55965W        W15501  40.983  30.006  14.941
55966W        W15502  20.271  25.627  14.287
55967W        W15503  27.148  36.019  10.571
55968W        W15504  21.664  20.181   4.161
55969W        W15505  40.835  30.953   2.393
55970W        W15506   5.900  29.571   1.748
55971W        W15507   2.251   1.384  12.066
55972W        W15508  36.451  21.548   0.392
55973W        W15509   4.389  44.905  13.492
55974W        W15510  34.957  44.760   1.419
55975W        W15511  36.057  35.533   3.780
55976W        W15512   1.769  28.964   0.823
55977W        W15513  21.629  39.050   1.277
55978W        W15514  14.162  30.582   5.254
55979W        W15515   4.738  18.140   3.167
55980W        W15516  27.981  30.520  13.429
55981W        W15517  14.139  20.129  14.841
55982W        W15518  34.407  39.940  13.331
55983W        W15519  44.865  34.981   4.622
55984W        W15520  12.670  27.604  10.085
55985W        W15521  13.113   9.175   3.170
55986W        W15522  44.999   3.937  12.910
55987W        W15523  26.582   2.262   4.216
55988W        W15524  24.106  12.710   3.769
55989W        W15525  38.902  17.237   5.102
55990W        W15526  29.137   9.833   2.733
55991W        W15527  15.818  30.952   4.330
55992W        W15528  33.892  26.482  11.452
55993W        W15529  35.945   3.373   0.341
55994W        W15530  10.750  33.090   3.338
55995W        W15531  23.714  19.212  14.959
55996W        W15532   4.370   8.194   3.292
55997W        W15533  38.445  11.635  14.913
55998W        W15534  30.552   4.740  14.954
55999W        W15535   5.797  22.249  11.469
56000W        W15536  13.236  28.613   4.310
56001W        W15537   9.678  24.512   9.651
56002W        W15538  28.078   5.769   2.413
56003W        W15539  32.042  30.940   2.275
56004W        W15540  42.337  17.662   4.127
56005W        W15541  16.724  23.570   2.662
56006W        W15542  44.008  36.546  14.974
56007W        W15543   9.252  21.062  11.605
56008W        W15544  15.626  17.225   3.149
56009W        W15545   5.901   6.922   2.813
56010W        W15546  26.167  41.814   2.865
56011W        W15547  21.735  27.108  12.948
56012W        W15548  13.731  43.953  11.484
56013W        W15549  41.298  12.346   4.164
56014W        W15550  22.737   7.332   1.787
56015W        W15551  15.129  43.896   2.376
56016W        W15552  14.231  22.997  13.998
56017W        W15553   6.807  24.522   5.296
56018W        W15554   2.858  43.493   3.185
56019W        W15555  20.680  19.605   1.900
56020W        W15556  35.397  17.160   0.793
56021W        W15557  39.878  39.843  12.351
56022W        W15558  42.516  19.098   0.473
56023W        W15559  42.293   5.720  11.388
56024W        W15560   7.386  33.040  14.516
56025W        W15561  18.754  28.437  11.512
56026W        W15562   1.793  12.751  13.472
56027W        W15563  14.649  27.986   3.220
56028W        W15564  42.381  34.043  12.549
56029W        W15565  17.693  11.290   0.481
56030W        W15566  41.843  22.733   0.288
56031W        W15567  31.457   9.151  13.850
56032W        W15568   3.728  23.148  14.890
56033W        W15569  22.599  12.191   3.759
56034W        W15570  25.542   8.181   2.761
56035W        W15571  37.970  43.946  13.036
56036W        W15572  36.509  19.079   1.747
56037W        W15573  35.504  11.725   0.255
56038W        W15574  26.536   2.440   2.685
56039W        W15575   8.180  43.353  11.055
56040W        W15576  42.863  40.425   0.409
56041W        W15577  37.385  36.964   2.797
56042W        W15578   1.315  21.026  12.032
56043W        W15579  36.943  22.999   2.680
56044W        W15580  33.068  30.493   4.328
56045W        W15581  39.886  44.398  12.538
56046W        W15582  36.352  16.260   0.397
56047W        W15583  22.526  37.511   1.345
56048W        W15584  17.799  34.466  10.963
56049W        W15585  16.602   0.269  11.908
56050W        W15586  13.242   6.851   1.338
56051W        W15587  23.077  30.119   3.841
56052W        W15588  16.616   3.288  14.292
56053W        W15589  30.951   8.800  14.924
56054W        W15590  11.335  26.088  10.945
56055W        W15591   7.804  13.761  12.522
56056W        W15592   1.751  38.461  12.074
56057W        W15593   9.167  24.611   4.338
56058W        W15594  19.136  44.375  11.560
56059W        W15595  15.325  41.860  10.967
56060W        W15596   2.263  14.176   2.764
56061W        W15597  26.105  26.135  13.037
56062W        W15598  21.018  44.923  13.910
56063W        W15599  32.031  38.937   0.358
56064W        W15600  35.096  33.385  12.365
56065W        W15601   8.660  15.651  12.906
56066W        W15602  28.091  18.688   1.761
56067W        W15603   7.327  19.616   3.821
56068W        W15604  26.123  44.307   0.938
56069W        W15605   0.835  44.410   3.233
56070W        W15606   2.872  16.579  12.399
56071W        W15607   7.378  38.018  10.583
56072W        W15608  13.209  30.086   3.860
56073W        W15609  19.535   3.411   4.236
56074W        W15610  37.894  37.517   3.740
56075W        W15611   8.828  34.053  14.881
56076W        W15612   0.908  17.090  11.034
56077W        W15613  17.279  43.896   0.866
56078W        W15614  22.177  12.804   4.211
56079W        W15615  23.712  16.701  13.460
56080W        W15616   3.243   4.805  14.978
56081W        W15617  39.874  12.292  14.999
56082W        W15618  21.662   6.819   3.174
56083W        W15619  23.559  26.188   0.915
56084W        W15620  12.691   7.298  13.489
56085W        W15621   8.386  38.541   2.183
56086W        W15622  25.485   7.703  11.931
56087W        W15623  37.494  37.365   1.264
56088W        W15624  24.163  33.882  14.346
56089W        W15625   2.901  38.525   4.830
56090W        W15626  26.471  40.846  14.772
56091W        W15627  32.921  13.314  10.526
56092W        W15628  42.010  38.426   1.913
56093W        W15629  36.071  42.807   0.963
56094W        W15630   1.327  24.217  13.465
56095W        W15631  14.134  23.161  12.446
56096W        W15632  34.381  30.123   1.872
56097W        W15633   4.805  28.005  13.017
56098W        W15634  39.814  13.732  14.409
56099W        W15635  14.177  41.301  11.961
56100W        W15636   7.701   3.396  13.028
56101W        W15637  39.517   1.369   1.223
56102W        W15638   3.920  39.332   4.137
56103W        W15639  13.297  41.435   3.744
56104W        W15640  39.460  37.924  12.867
56105W        W15641  31.590  38.541  11.453
56106W        W15642   9.308  38.917  12.031
56107W        W15643   9.709  43.908  12.921
56108W        W15644   3.377  36.922  14.018
56109W        W15645  22.517  34.113  11.397
56110W        W15646  17.070  11.730   5.122
56111W        W15647   1.920  41.443  11.507
56112W        W15648  30.024  36.848  13.994
56113W        W15649  10.664  41.431  13.018
56114W        W15650   3.271  23.694   4.303
56115W        W15651  27.024   0.886  14.866
56116W        W15652  16.603  28.492  12.826
56117W        W15653   2.798  20.270  13.059
56118W        W15654  25.033  10.180  14.867
56119W        W15655   9.288  25.686   1.862
56120W        W15656   8.769   8.298   2.750
56121W        W15657  12.354  22.716   2.741
56122W        W15658   0.401  20.270  11.898
56123W        W15659  18.263  23.159  13.461
56124W        W15660  31.472   8.685   0.846
56125W        W15661  13.652  37.465   1.303
56126W        W15662  16.685  23.987  12.476
56127W        W15663  23.202  13.183   1.904
56128W        W15664  31.153  29.076   0.935
56129W        W15665  16.304   6.299   4.773
56130W        W15666  32.142  26.587  10.054
56131W        W15667  32.457  17.668   1.715
56132W        W15668  43.011  12.833   1.729
56133W        W15669  24.606  35.468   0.269
56134W        W15670  42.914  13.236   0.482
56135W        W15671  30.069  28.637   1.851
56136W        W15672  33.966  10.679   1.790
56137W        W15673  43.897  29.501  11.921
56138W        W15674  26.017  44.996   3.361
56139W        W15675  14.251  38.386   0.362
56140W        W15676  20.079   1.289  12.343
56141W        W15677  18.102  43.831  11.905
56142W        W15678   2.933  21.695   1.279
56143W        W15679   6.841  28.455   3.823
56144W        W15680  36.549  17.145   5.236
56145W        W15681   6.254   6.271  11.498
56146W        W15682  22.048  13.735   4.270
56147W        W15683   0.253  35.968  11.965
56148W        W15684  16.188  12.802  10.418
56149W        W15685  37.540  37.480   3.707
56150W        W15686  10.785  18.061   2.183
56151W        W15687  33.096  16.160   1.830
56152W        W15688  16.079   2.785   4.720
56153W        W15689  16.751  33.990   1.807
56154W        W15690  38.831  37.403   1.706
56155W        W15691  10.732  41.451  10.468
56156W        W15692  25.107  25.506  14.400
56157W        W15693  40.830  10.254   4.215
56158W        W15694  16.252   4.233  13.998
56159W        W15695   6.796   9.341  11.102
56160W        W15696  27.474  33.429  11.380
56161W        W15697  39.880  17.132   4.302
56162W        W15698  36.483  20.649   3.747
56163W        W15699  43.405   2.348  12.563
56164W        W15700  23.627  44.825   1.796
56165W        W15701  27.622   6.189   1.917
56166W        W15702  32.548  31.063  14.010
56167W        W15703  29.452  10.871   3.743
56168W        W15704   2.777  18.093  11.498
56169W        W15705  12.212  38.387   1.856
56170W        W15706  31.088   1.856  14.408
56171W        W15707  41.013  30.414  12.900
56172W        W15708   4.725  38.508   2.786
56173W        W15709  31.520   8.871  12.346
56174W        W15710  44.761  35.037  11.997
56175W        W15711  22.241  43.404   0.444
56176W        W15712   3.829   3.409   0.736
56177W        W15713  12.324  15.218  14.308
56178W        W15714  40.548  32.449  10.582
56179W        W15715   9.684   2.389  11.066
56180W        W15716   4.429  39.818   0.387
56181W        W15717  37.913   7.365   2.225
56182W        W15718  15.772  18.681  13.403
56183W        W15719  21.754  28.118  14.511
56184W        W15720  22.243  15.303  10.933
56185W        W15721  38.478  35.413   0.731
56186W        W15722  33.494  34.563   3.209
56187W        W15723  22.587   8.358   1.890
56188W        W15724  22.711  22.545  14.487
56189W        W15725  33.526   8.773  10.111
56190W        W15726  42.783  20.124  10.464
56191W        W15727   2.444  20.121   1.858
56192W        W15728  43.344   1.404   2.219
56193W        W15729  31.928  35.012   1.333
56194W        W15730   4.373  25.113   0.830
56195W        W15731  15.125  24.068   2.736
56196W        W15732  38.491  35.929  12.026
56197W        W15733  41.919  44.496  12.555
56198W        W15734  33.101   5.714  13.368
56199W        W15735  17.228  18.587   0.321
56200W        W15736  34.495  26.572   1.719
56201W        W15737   7.251  23.987   4.316
56202W        W15738  25.489  15.732  12.040
56203W        W15739   9.293  39.448  11.918
56204W        W15740  20.550   3.892  11.528
56205W        W15741  17.576  30.023  10.931
56206W        W15742  35.991  30.560   1.402
56207W        W15743   2.754   7.816   3.220
56208W        W15744  21.069  25.474  14.497
56209W        W15745   0.845  33.969   2.712
56210W        W15746  43.474   5.890   1.777
56211W        W15747  33.620  25.492  13.432
56212W        W15748  23.612  39.059   0.845
56213W        W15749   0.932  39.515  11.119
56214W        W15750  20.742  21.612  14.338
56215W        W15751   4.824  24.140  12.530
56216W        W15752  27.197  27.626   4.195
56217W        W15753  37.891  27.020  13.363
56218W        W15754  33.560  10.824   2.188
56219W        W15755  34.941   2.749   2.772
56220W        W15756   3.859  33.912  10.485
56221W        W15757  40.375  32.942  10.918
56222W        W15758  12.236  20.621   2.695
56223W        W15759  36.422  32.109   1.698
56224W        W15760  18.192   2.301   1.807
56225W        W15761  29.989  14.330  10.472
56226W        W15762  12.134  36.452  14.437
56227W        W15763  28.497  41.492   4.800
56228W        W15764  43.436  40.019  13.424
56229W        W15765  12.342  33.431  10.988
56230W        W15766  30.056   0.817  12.894
56231W        W15767  38.449  32.402  14.910
56232W        W15768   0.261  10.836  14.954
56233W        W15769  44.993   3.717  11.473
56234W        W15770   6.319  18.155   4.801
56235W        W15771   9.829  15.587  10.606
56236W        W15772  20.132  37.042   2.825
56237W        W15773  41.462  12.611   2.823
56238W        W15774  39.004  41.923  13.998
56239W        W15775  18.113  30.110  14.303
56240W        W15776  41.493  39.555  14.784
56241W        W15777   1.948  12.702   4.128
56242W        W15778  36.874  30.126  11.091
56243W        W15779  40.398  20.199  11.531
56244W        W15780   7.318  43.438   0.750
56245W        W15781  19.144  22.022   3.210
56246W        W15782  38.842  36.053  10.938
56247W        W15783   9.207  37.468   0.304
56248W        W15784  42.790  23.111   4.681
56249W        W15785   5.848  20.542  14.426
56250W        W15786  30.487  11.326  13.380
56251W        W15787  33.066  12.732  11.463
56252W        W15788  20.244   3.431  11.129
56253W        W15789   5.411  37.412   3.830
56254W        W15790  29.471   1.868   2.285
56255W        W15791   7.348  25.191   4.195
56256W        W15792   6.190   9.312   3.236
56257W        W15793  28.953  34.447  11.014
56258W        W15794  40.876  32.953   4.799
56259W        W15795   9.697   7.741   3.368
56260W        W15796  35.910  42.397  13.346
56261W        W15797  19.772  33.986   1.897
56262W        W15798   5.726  11.355  13.306
56263W        W15799   4.877  19.263  10.539
56264W        W15800  13.249  24.717  12.492
56265W        W15801  44.293  10.166  11.124
56266W        W15802  13.641  27.501  11.930
56267W        W15803  11.698  36.933  12.418
56268W        W15804  30.011  10.810  11.382
56269W        W15805  39.024  33.561   9.952
56270W        W15806  43.432  42.850   4.767
56271W        W15807  34.950  41.980  13.966
56272W        W15808  27.149  37.069   3.225
56273W        W15809  29.062  33.048  14.936
56274W        W15810   4.890  32.085  10.561
56275W        W15811  32.504  14.694   1.918
56276W        W15812  23.565   8.820  10.985
56277W        W15813   8.183   0.365  14.506
56278W        W15814  21.038  39.036   0.374
56279W        W15815  39.969   4.747   3.714
56280W        W15816  20.134  43.788   4.157
56281W        W15817  41.319  14.209  12.980
56282W        W15818  13.188   1.733   4.252
56283W        W15819  10.198  15.275  12.491
56284W        W15820  44.959  40.855  13.384
56285W        W15821  39.538  19.757  12.468
56286W        W15822  13.342  12.277  13.413
56287W        W15823   2.245  21.021  13.862
56288W        W15824  34.111  38.073   1.843
56289W        W15825  28.106  13.293   0.413
56290W        W15826   9.387  43.996  13.529
56291W        W15827  25.546  21.652   3.817
56292W        W15828   3.930  34.582  11.954
56293W        W15829  43.810  28.668  11.507
56294W        W15830  24.193  42.006   1.280
56295W        W15831   4.923  14.287  10.927
56296W        W15832  40.366  13.775   4.171
56297W        W15833  14.678  36.440  12.388
56298W        W15834  16.231  42.527   1.802
56299W        W15835  21.684   7.783   0.727
56300W        W15836  16.606  18.554  13.431
56301W        W15837   6.798  28.451  13.432
56302W        W15838  36.054  18.123   0.835
56303W        W15839  16.317  17.242  10.049
56304W        W15840  26.013   2.342  14.927
56305W        W15841  24.188   1.813   3.671
56306W        W15842  20.707  39.441   4.638
56307W        W15843  16.263  15.663   3.204
56308W        W15844  27.962  19.111  13.060
56309W        W15845  26.185  33.465   3.720
56310W        W15846   6.410  35.427  12.456
56311W        W15847  32.027  18.714  12.076
56312W        W15848  13.715  33.462   0.422
56313W        W15849   1.342  26.650   5.233
56314W        W15850  20.046  13.731   0.408
56315W        W15851  16.591  33.518  12.374
56316W        W15852  16.258  16.578  14.422
56317W        W15853   4.758  41.981  12.971
56318W        W15854  29.507  35.918  14.398
56319W        W15855  32.040   1.461   4.828
56320W        W15856  26.199   9.184  14.918
56321W        W15857  21.092  40.377   0.283
56322W        W15858   8.686  39.954   0.907
56323W        W15859   4.836  34.899  13.446
56324W        W15860  44.366  17.106   3.310
56325W        W15861  41.349   7.327   2.360
56326W        W15862  22.240  41.994  13.447
56327W        W15863  14.141  29.452   0.363
56328W        W15864  11.195  12.306   1.816
56329W        W15865  20.067   6.208   1.425
56330W        W15866  26.636  28.178   4.133
56331W        W15867  34.995  41.345   1.723
56332W        W15868  15.751   6.914   0.875
56333W        W15869  16.813   2.340  13.466
56334W        W15870  42.372  25.704   1.337
56335W        W15871  42.398  21.116  13.974
56336W        W15872  13.668  40.479   1.789
56337W        W15873  24.599  44.449  14.440
56338W        W15874  19.242  10.167   2.825
56339W        W15875  27.072  31.136   3.868
56340W        W15876  14.102   6.270   4.691
56341W        W15877  16.216  38.881   2.777
56342W        W15878  20.538  33.614  10.920
56343W        W15879  26.037  11.790  14.809
56344W        W15880  40.035  37.569  13.371
56345W        W15881  17.626  21.210   4.136
56346W        W15882   3.794  28.619  13.025
56347W        W15883  24.028  43.414  13.383
56348W        W15884  15.735  35.365  14.878
56349W        W15885   3.259  40.988   4.789
56350W        W15886  38.356  41.444  14.419
56351W        W15887   1.919  20.526  10.961
56352W        W15888   9.881  41.523   2.840
56353W        W15889   2.426  35.018   4.814
56354W        W15890  10.870  20.652  13.912
56355W        W15891  35.573   5.372   4.661
56356W        W15892  12.793   5.344  12.923
56357W        W15893  37.461  29.965  12.513
56358W        W15894  35.879   7.909  11.067
56359W        W15895  11.690   4.308  14.350
56360W        W15896  13.174  15.781   0.729
56361W        W15897   0.337   9.653   0.735
56362W        W15898  16.287  12.282  11.901
56363W        W15899  13.264  22.540   1.759
56364W        W15900  25.138   7.894  12.374
56365W        W15901  36.467  14.293  11.609
56366W        W15902  11.307   5.249   9.931
56367W        W15903  42.489  38.541  13.424
56368W        W15904  19.114  12.221   3.173
56369W        W15905  37.555  28.113  11.553
56370W        W15906  20.680  44.270  13.035
56371W        W15907  26.086   7.295   1.360
56372W        W15908   4.753  18.548  10.506
56373W        W15909  26.203   4.416  14.916
56374W        W15910  22.129   6.310   1.443
56375W        W15911  12.222   1.412   4.182
56376W        W15912  16.619  38.971   2.851
56377W        W15913   6.292  23.724   0.409
56378W        W15914  15.756  33.483  12.007
56379W        W15915  32.477  34.584   0.373
56380W        W15916   5.905   9.867   4.351
56381W        W15917  32.496   6.259  14.863
56382W        W15918  41.417   4.206  12.877
56383W        W15919  11.361  32.887   4.327
56384W        W15920  17.148  33.467   4.766
56385W        W15921  29.444   0.421   4.697
56386W        W15922  11.846  36.523  13.486
56387W        W15923   4.328  12.804  14.338
56388W        W15924  43.004  29.041  11.596
56389W        W15925  11.163  30.943  11.007
56390W        W15926  20.562  35.877   1.923
56391W        W15927  34.880  13.150  13.518
56392W        W15928   9.879  34.928   4.305
56393W        W15929  20.207  26.148  10.411
56394W        W15930  27.966  40.365   0.277
56395W        W15931  18.645  19.731   2.243
56396W        W15932  29.561  41.517  14.481
56397W        W15933  38.441  23.237  11.041
56398W        W15934  25.707  31.982   3.843
56399W        W15935  17.184  16.782  11.047
56400W        W15936  20.141  10.329   0.937
56401W        W15937  19.556  20.115   2.781
56402W        W15938  34.955   8.237  13.922
56403W        W15939  22.054  44.904  13.490
56404W        W15940  13.142  13.717   4.794
56405W        W15941   6.243   3.881  11.551
56406W        W15942  16.706  20.610   9.928
56407W        W15943  43.831   6.706  13.827
56408W        W15944   7.383  11.175  11.391
56409W        W15945  16.232   8.323   0.863
56410W        W15946  11.352  32.007   4.662
56411W        W15947  12.736  33.117   1.224
56412W        W15948  29.464  29.480   4.249
56413W        W15949  39.337  38.460   4.725
56414W        W15950  11.746   2.349  11.494
56415W        W15951  43.777  23.089   4.790
56416W        W15952  28.174  38.440  11.518
56417W        W15953  29.633  40.044  13.993
56418W        W15954  17.283  38.905  10.513
56419W        W15955   3.409   9.355  12.418
56420W        W15956  24.686  20.661  12.928
56421W        W15957   9.868   3.360   5.302
56422W        W15958  31.097  43.834   0.257
56423W        W15959  19.224  23.678   3.380
56424W        W15960  15.820  22.731   4.178
56425W        W15961  43.010  37.510   3.303
56426W        W15962  18.627  24.179   5.173
56427W        W15963  13.311   9.184  12.881
56428W        W15964  23.507   8.712  14.945
56429W        W15965  14.305  14.234  13.997
56430W        W15966  21.039  27.626   2.854
56431W        W15967  21.681  43.496   4.699
56432W        W15968  34.974  22.118  13.823
56433W        W15969  15.662   8.324  14.388
56434W        W15970  14.594  40.431  12.462
56435W        W15971   2.350   7.293  12.824
56436W        W15972  37.579  19.252  10.482
56437W        W15973  13.143  20.595  11.922
56438W        W15974  43.943  31.039  12.452
56439W        W15975  27.124  13.621  10.457
56440W        W15976  21.043  15.277  12.460
56441W        W15977  43.874   6.287   1.354
56442W        W15978   1.926  18.598  12.361
56443W        W15979  21.606  27.041  14.856
56444W        W15980  37.503  15.178   0.296
56445W        W15981  12.752  11.760  11.918
56446W        W15982  26.071  33.877  13.940
56447W        W15983   8.712  13.603  14.323
56448W        W15984  13.650  38.378   3.847
56449W        W15985   7.374   3.452   4.245
56450W        W15986  31.642   9.863   3.363
56451W        W15987  43.400   5.847   3.288
56452W        W15988  36.861  43.297  13.939
56453W        W15989  30.428  11.354  10.633
56454W        W15990   5.803   0.747  14.848
56455W        W15991  21.124  36.453   5.247
56456W        W15992  35.954   6.780  12.038
56457W        W15993  35.600   2.769   3.151
56458W        W15994  28.132  32.022   0.289
56459W        W15995  26.637  24.585   3.871
56460W        W15996  15.297   8.204  14.025
56461W        W15997   8.222  22.586   0.357
56462W        W15998  29.628  23.042  11.508
56463W        W15999  44.948   1.367  13.993
56464W        W16000  27.964  41.881   2.394
56465W        W16001  19.251  22.519   9.510
56466W        W16002  20.571   6.406  12.511
56467W        W16003   8.669  25.543   1.407
56468W        W16004  29.655  43.340   0.830
56469W        W16005  12.148  34.055   0.316
56470W        W16006  17.198  42.959   4.689
56471W        W16007   3.737   6.679   3.724
56472W        W16008  32.955   9.789   0.916
56473W        W16009  29.961  27.642   4.118
56474W        W16010  19.218  31.069  12.556
56475W        W16011  35.575  38.857  13.995
56476W        W16012  41.363  32.900   3.186
56477W        W16013   3.390   0.278  10.931
56478W        W16014  31.421  28.491   0.408
56479W        W16015  32.962   1.469  13.913
56480W        W16016  40.857  10.647   2.384
56481W        W16017  20.063  35.560   1.734
56482W        W16018  24.094  12.168  13.831
56483W        W16019  29.638   4.922  13.793
56484W        W16020  40.391  44.341   4.233
56485W        W16021  28.593  15.650   4.827
56486W        W16022   0.280  44.393   3.226
56487W        W16023  16.091  19.051  10.979
56488W        W16024   4.698   4.905   2.710
56489W        W16025  20.695  32.990   4.625
56490W        W16026  25.131   5.393  13.029
56491W        W16027  19.167  40.013   0.763
56492W        W16028  31.979  44.992   3.191
56493W        W16029  17.096  18.083   2.360
56494W        W16030  43.319  33.951   4.294
56495W        W16031   9.367  43.505  12.430
56496W        W16032   4.756  16.218  12.410
56497W        W16033  34.966   6.765   0.760
56498W        W16034  12.343   3.279   4.297
56499W        W16035   5.301  19.649  14.975
56500W        W16036  33.881  40.894   2.198
56501W        W16037  25.174   4.785  14.316
56502W        W16038  11.292  13.778   2.288
56503W        W16039   0.810  39.494  14.378
56504W        W16040  38.965  30.425   3.278
56505W        W16041  23.141  31.904   3.224
56506W        W16042   8.402  18.665   3.846
56507W        W16043  32.886  36.445   3.860
56508W        W16044  18.098  28.470   4.342
56509W        W16045   8.884  16.764  10.982
56510W        W16046  31.503  10.175  14.430
56511W        W16047  36.989  28.979   0.730
56512W        W16048  41.977  30.425  13.005
56513W        W16049  26.625  39.410   1.790
56514W        W16050  30.148   6.846  10.477
56515W        W16051  30.603  17.679   4.604
56516W        W16052  40.368  19.533  14.491
56517W        W16053  41.962  25.110  10.527
56518W        W16054  43.945  37.835   1.839
56519W        W16055  38.881  38.877  12.381
56520W        W16056  28.980  29.643   2.699
56521W        W16057  44.966   6.727   3.149
56522W        W16058  43.865  37.832   1.225
56523W        W16059  31.942  33.415  12.880
56524W        W16060  23.104  32.079   4.638
56525W        W16061  28.557   4.824  14.357
56526W        W16062   0.252  38.384   3.292
56527W        W16063  28.002   7.183   3.843
56528W        W16064  34.590  33.388   4.738
56529W        W16065  12.638  20.615  14.286
56530W        W16066  39.554  35.941  13.014
56531W        W16067  37.369  26.200  13.959
56532W        W16068  26.665  28.593  11.415
56533W        W16069  17.631  19.186  12.973
56534W        W16070   5.366  14.598   1.880
56535W        W16071  11.712  30.908  12.481
56536W        W16072  18.235  27.621   2.381
56537W        W16073  44.264  26.036   2.778
56538W        W16074  23.157   4.932   3.168
56539W        W16075  24.125  26.648   4.831
56540W        W16076  12.361  21.663   3.708
56541W        W16077  20.525  44.891  10.645
56542W        W16078  26.590   3.786  14.820
56543W        W16079  44.852   2.934   2.832
56544W        W16080  11.173  40.798   3.777
56545W        W16081  38.967  33.470  14.326
56546W        W16082  43.306   2.896   0.942
56547W        W16083  36.946  10.718   4.812
56548W        W16084  44.354   1.261   0.366
56549W        W16085  11.239  19.070  13.396
56550W        W16086  39.358  24.574   2.274
56551W        W16087  13.175  22.046  14.415
56552W        W16088   4.443   3.900  13.522
56553W        W16089  22.714  35.862   2.230
56554W        W16090  37.877  12.292   4.627
56555W        W16091  37.342   3.218   4.182
56556W        W16092  26.071  16.086   2.717
56557W        W16093  43.870  24.608  11.857
56558W        W16094   0.396  41.402   3.360
56559W        W16095  31.059  37.058  12.377
56560W        W16096  40.450   5.799  14.905
56561W        W16097   8.330  21.609   0.826
56562W        W16098  18.127  31.620  14.402
56563W        W16099  43.836  43.994   4.233
56564W        W16100  29.096  34.106   3.192
56565W        W16101  25.562  26.101   4.722
56566W        W16102  21.527  18.596  10.409
56567W        W16103   5.700   2.276  12.581
56568W        W16104  28.091  25.602  12.000
56569W        W16105  30.957  33.909  13.862
56570W        W16106  30.462  43.889  10.897
56571W        W16107   6.707  21.262  10.496
56572W        W16108  35.068  41.969   2.831
56573W        W16109   9.220  31.932   4.139
56574W        W16110  27.161  14.304   1.388
56575W        W16111   5.401  24.193   0.438
56576W        W16112  18.272   4.806   1.331
56577W        W16113  33.427   0.929   5.089
56578W        W16114   8.275   8.345  11.419
56579W        W16115  29.510  17.181  13.539
56580W        W16116  41.931  24.524   2.241
56581W        W16117   9.358  28.587   5.169
56582W        W16118  34.406  24.565   3.657
56583W        W16119   0.929  19.727   2.894
56584W        W16120   1.783  23.084   3.386
56585W        W16121  28.051   3.910   1.436
56586W        W16122  23.223   0.958  10.957
56587W        W16123   0.279  22.099   4.617
56588W        W16124  20.146  43.501  10.574
56589W        W16125   1.956   1.912   3.701
56590W        W16126  33.577   2.783   0.248
56591W        W16127   2.372   2.939   4.662
56592W        W16128  35.586   9.381  11.548
56593W        W16129  36.495  44.340  14.325
56594W        W16130  22.230  41.847  10.421
56595W        W16131   4.408   6.919  11.539
56596W        W16132  27.088  35.402  11.007
56597W        W16133  29.939  29.616   1.330
56598W        W16134  17.263  13.606   4.233
56599W        W16135  24.670   3.783   1.315
56600W        W16136  22.636  34.001   9.656
56601W        W16137  23.730  22.199  11.018
56602W        W16138  27.483  41.031   4.276
56603W        W16139  42.289  36.007  11.540
56604W        W16140  10.832  43.392  14.973
56605W        W16141  40.325  28.115  10.002
56606W        W16142  11.346  10.351   4.171
56607W        W16143  39.558  39.498   4.808
56608W        W16144  19.539  24.708  10.437
56609W        W16145  40.530  43.334  11.462
56610W        W16146   2.368  19.169   1.328
56611W        W16147   0.281   4.285  14.774
56612W        W16148   7.831  31.489  11.408
56613W        W16149  18.696  25.611  10.584
56614W        W16150  39.845  39.326  13.447
56615W        W16151  29.128  41.021   2.198
56616W        W16152  14.705   3.295  13.931
56617W        W16153   0.819  30.649   3.326
56618W        W16154  11.655  31.497   4.136
56619W        W16155  14.800  36.027  14.772
56620W        W16156  22.152  17.095  14.974
56621W        W16157  40.418  22.668   3.632
56622W        W16158  44.979  33.902   4.348
56623W        W16159   2.735  35.984   4.605
56624W        W16160  33.589  40.379   4.829
56625W        W16161  15.120  34.004  12.439
56626W        W16162   8.340  34.525  14.488
56627W        W16163   0.492   9.777  12.351
56628W        W16164  21.571  39.361   0.834
56629W        W16165   7.847  10.702   3.278
56630W        W16166  41.446  36.849   0.774
56631W        W16167  43.396  12.150   1.781
56632W        W16168  30.584  30.127  13.956
56633W        W16169  23.645  38.328   1.268
56634W        W16170   1.819   7.246  11.067
56635W        W16171  44.353  28.102  12.568
56636W        W16172   8.179  31.095   1.851
56637W        W16173   2.868   4.219   3.646
56638W        W16174  32.907  21.111  14.824
56639W        W16175   1.278  16.165   2.251
56640W        W16176  17.073  16.591   5.115
56641W        W16177   4.787  44.441   1.813
56642W        W16178  11.347  44.885  11.100
56643W        W16179  25.070  28.179   4.743
56644W        W16180   4.327  25.588   0.962
56645W        W16181  25.147  30.493   3.357
56646W        W16182  25.118  16.198  14.839
56647W        W16183  23.671   8.880  11.543
56648W        W16184  12.160  27.570   2.772
56649W        W16185  24.617  12.338  11.070
56650W        W16186  36.098   3.458  12.430
56651W        W16187   3.343  18.073  14.955
56652W        W16188  30.468  35.507   4.223
56653W        W16189   6.710   2.832   0.336
56654W        W16190  40.976   5.710   0.434
56655W        W16191  20.170  25.660  12.382
56656W        W16192  29.558  39.399   1.385
56657W        W16193  22.569  39.861   3.858
56658W        W16194  21.242  42.984   3.713
56659W        W16195  39.320  32.028  13.496
56660W        W16196  14.630  10.672   9.990
56661W        W16197  29.613  31.068   2.829
56662W        W16198   8.711   8.697   1.267
56663W        W16199  38.405  20.764   4.205
56664W        W16200  33.428  28.532  11.450
56665W        W16201   6.782  34.594   0.967
56666W        W16202   5.360  13.275   3.213
56667W        W16203  38.882   4.383  12.071
56668W        W16204  41.004  41.360   0.390
56669W        W16205   7.378  17.571  11.871
56670W        W16206  17.088   5.699  14.295
56671W        W16207   4.723   3.861   1.729
56672W        W16208  17.091  16.159  12.029
56673W        W16209   2.391  30.134   4.277
56674W        W16210  13.699   5.297  13.312
56675W        W16211   3.940  39.000  11.439
56676W        W16212   8.226   0.405   3.296
56677W        W16213  11.684  24.671  11.476
56678W        W16214   5.420  10.693   4.296
56679W        W16215  37.075  20.255  14.884
56680W        W16216  36.853  10.828   0.436
56681W        W16217   1.902  25.204   0.824
56682W        W16218  22.523  33.599   0.919
56683W        W16219  21.512  32.070   1.242
56684W        W16220  35.074   2.957  10.506
56685W        W16221   9.168  26.694   2.409
56686W        W16222  36.011  12.817  11.389
56687W        W16223  22.191  34.541  13.489
56688W        W16224  25.168  18.171   2.862
56689W        W16225  12.641  29.137   4.673
56690W        W16226  28.523  14.647   4.669
56691W        W16227  34.467  32.468   3.810
56692W        W16228  11.225  34.051  10.429
56693W        W16229   4.317  29.081   3.760
56694W        W16230  13.283   2.379  11.995
56695W        W16231  30.160  20.618  12.082
56696W        W16232   6.884  27.134  11.884
56697W        W16233  38.395  44.913  11.585
56698W        W16234  16.095  28.166  14.356
56699W        W16235  17.623   1.922   3.363
56700W        W16236  15.599   8.763   3.710
56701W        W16237  29.057   0.906  11.009
56702W        W16238  41.429   6.211  14.388
56703W        W16239   6.397   7.304   0.423
56704W        W16240  30.563  40.459  14.962
56705W        W16241  41.441  37.044   3.658
56706W        W16242  34.093  39.916   0.472
56707W        W16243   4.829  15.096   2.776
56708W        W16244  32.905  29.935   1.706
56709W        W16245  13.214  35.533  13.003
56710W        W16246   4.246  43.330   1.429
56711W        W16247  42.838  33.500   2.788
56712W        W16248  31.555  29.117  12.030
56713W        W16249  21.173  37.964   2.350
56714W        W16250  24.548  13.229  12.844
56715W        W16251  44.761  29.919  14.962
56716W        W16252  28.516  34.582  12.387
56717W        W16253  20.106   9.240   4.267
56718W        W16254  25.022  14.137   2.234
56719W        W16255  13.647  13.106  10.515
56720W        W16256  19.137   7.309  12.076
56721W        W16257  10.286  31.096  10.534
56722W        W16258  36.930  26.168  10.415
56723W        W16259   9.666   6.853   1.268
56724W        W16260  20.767  41.838  11.478
56725W        W16261  10.737  36.581   4.281
56726W        W16262   6.388  25.113  11.967
56727W        W16263  40.499  31.535   3.727
56728W        W16264  12.311  32.138   0.359
56729W        W16265  13.786   4.701   4.787
56730W        W16266   7.301  19.120  12.392
56731W        W16267  18.050   8.271  11.856
56732W        W16268  41.819  17.074   1.710
56733W        W16269   1.457  35.882  12.921
56734W        W16270  22.742   8.890   0.352
56735W        W16271  42.921  42.872  11.041
56736W        W16272  40.549   3.813   1.824
56737W        W16273  42.840   3.864  12.914
56738W        W16274  43.824   5.877   0.365
56739W        W16275  39.920  16.804  13.903
56740W        W16276  19.734   6.213   0.446
56741W        W16277  44.800  10.730   2.744
56742W        W16278  42.359  33.118  13.025
56743W        W16279  18.105  33.004  11.858
56744W        W16280  27.127  17.211  10.957
56745W        W16281  24.983  13.751   1.853
56746W        W16282   4.875  38.372  11.059
56747W        W16283  12.140  44.949   1.833
56748W        W16284   1.846  23.698  10.965
56749W        W16285  22.591  33.525  10.608
56750W        W16286  37.538   8.818  11.019
56751W        W16287   4.717  29.939   3.765
56752W        W16288  43.324  42.523   0.271
56753W        W16289  10.748  44.975   3.840
56754W        W16290  20.167  37.981   0.894
56755W        W16291  24.039  42.518  11.388
56756W        W16292  19.060  36.372   3.699
56757W        W16293  15.203  32.000   1.916
56758W        W16294  31.910  23.195   4.130
56759W        W16295  34.037  36.036  13.359
56760W        W16296  36.071  44.479  11.957
56761W        W16297  12.802  27.021   0.870
56762W        W16298  35.538  20.157  13.940
56763W        W16299   5.329   8.815  14.917
56764W        W16300  38.854  15.181  13.906
56765W        W16301  44.937  20.706   2.731
56766W        W16302  18.234  20.677  13.332
56767W        W16303   7.223  11.347  12.463
56768W        W16304  26.976  22.557   0.893
56769W        W16305  19.770   8.683  12.562
56770W        W16306  18.649  15.095  11.425
56771W        W16307   5.197  39.022   0.335
56772W        W16308   4.737  33.042   2.901
56773W        W16309   8.868  13.329   2.807
56774W        W16310   6.920  16.799   1.766
56775W        W16311  21.206  22.996  11.049
56776W        W16312  21.257  30.930   4.729
56777W        W16313   4.382  21.142   1.257
56778W        W16314  42.475  17.295   3.377
56779W        W16315  43.445   5.778   0.798
56780W        W16316  36.467  20.637   0.352
56781W        W16317  18.694  39.047  14.318
56782W        W16318  41.905  37.512   1.395
56783W        W16319  36.842  26.196   2.717
56784W        W16320   3.757  22.580   1.268
56785W        W16321  13.669  10.840  11.382
56786W        W16322   9.300  27.490   0.320
56787W        W16323  16.786   8.857   1.396
56788W        W16324  32.519  40.435   3.664
56789W        W16325   3.278  43.445   1.719
56790W        W16326  41.299  31.056  11.896
56791W        W16327  20.528   0.961   3.182
56792W        W16328   6.715  27.100  13.308
56793W        W16329   8.224   3.846   3.742
56794W        W16330   0.963  39.871  11.450
56795W        W16331  29.048  30.456  10.955
56796W        W16332   3.917  26.075   3.675
56797W        W16333  21.077  41.964   4.712
56798W        W16334  44.840  11.300  13.528
56799W        W16335  39.064   5.708   0.245
56800W        W16336  19.764  29.060  14.341
56801W        W16337  10.215  11.632   0.469
56802W        W16338   4.353  20.194  10.927
56803W        W16339  16.742  30.124  12.523
56804W        W16340  39.873  32.500   0.411
56805W        W16341  26.580  38.502  10.019
56806W        W16342  39.008  21.627   2.264
56807W        W16343  10.234  13.707  13.501
56808W        W16344  24.118  25.591  13.859
56809W        W16345   2.938  33.070  12.570
56810W        W16346  22.729  19.684  13.428
56811W        W16347  15.224  36.051  10.969
56812W        W16348  38.486   6.907  13.477
56813W        W16349  13.329  11.766  11.412
56814W        W16350  25.999  36.062  12.371
56815W        W16351  13.139   1.434   4.148
56816W        W16352  27.114   4.267   5.240
56817W        W16353  42.889  20.050   1.715
56818W        W16354  21.187  31.005  12.087
56819W        W16355   5.817  12.617   3.808
56820W        W16356  26.549   6.285   5.165
56821W        W16357  28.003  18.095  14.862
56822W        W16358  43.952  24.121  12.553
56823W        W16359  37.465   3.833  12.012
56824W        W16360  12.168  16.301   1.897
56825W        W16361   9.776  19.538  13.517
56826W        W16362  37.566  39.476  12.344
56827W        W16363  21.535  29.058   0.403
56828W        W16364  29.966  44.856   2.774
56829W        W16365   8.687  18.569   0.800
56830W        W16366  36.872  40.949  14.506
56831W        W16367  13.687  16.773   3.785
56832W        W16368  13.623  43.455  13.327
56833W        W16369  21.649  16.292  10.426
56834W        W16370  37.577  32.989   1.320
56835W        W16371   8.287  23.120  14.805
56836W        W16372  20.716  36.439  10.898
56837W        W16373  25.650  35.548  10.516
56838W        W16374  17.597   9.360   2.710
56839W        W16375  36.389  24.172   2.675
56840W        W16376   9.856   5.752  13.373
56841W        W16377   4.759  11.777  14.355
56842W        W16378  34.936  25.678  11.964
56843W        W16379  37.393  43.397  10.082
56844W        W16380  17.721  29.467   4.221
56845W        W16381  16.671  12.343  10.427
56846W        W16382  38.520  40.334  12.468
56847W        W16383   7.238  40.810   4.774
56848W        W16384  29.041  27.084   9.522
56849W        W16385   1.308  14.656  12.064
56850W        W16386   8.834  29.077  14.774
56851W        W16387  38.032  29.460  14.821
56852W        W16388  22.571  39.899   2.383
56853W        W16389  27.991  15.253   1.808
56854W        W16390  14.109  12.751  10.115
56855W        W16391  34.944   1.790  12.526
56856W        W16392  25.095  16.639   4.721
56857W        W16393  34.945  39.962   3.660
56858W        W16394   7.680  12.162  10.933
56859W        W16395   8.876   7.674   1.382
56860W        W16396  35.511  39.410  12.979
56861W        W16397  29.163  34.953   4.597
56862W        W16398  34.613  10.374  14.882
56863W        W16399  40.832  12.809  11.108
56864W        W16400  39.424  23.571  13.017
56865W        W16401  13.181  39.896   0.792
56866W        W16402  42.973  11.779  13.974
56867W        W16403   0.850  18.690  11.956
56868W        W16404  25.592  29.633   1.386
56869W        W16405  35.552  11.635  13.545
56870W        W16406  25.561   6.745   3.155
56871W        W16407  23.155  12.699   3.860
56872W        W16408  42.023  16.236  14.356
56873W        W16409  26.014  25.105  12.084
56874W        W16410   1.418  39.552  12.980
56875W        W16411  31.953  21.684   2.217
56876W        W16412  16.732  28.104  12.488
56877W        W16413  24.102  40.302   3.801
56878W        W16414  33.099  34.459   1.902
56879W        W16415  31.992  18.789  13.827
56880W        W16416   8.333   5.271   0.947
56881W        W16417  30.999   6.829   4.661
56882W        W16418   1.750  28.561  11.495
56883W        W16419  43.351  33.399  10.413
56884W        W16420   9.787  25.604   1.352
56885W        W16421  24.642   5.931   2.344
56886W        W16422   0.252   9.152  13.411
56887W        W16423  27.609   8.249  12.487
56888W        W16424  39.510   8.359   0.771
56889W        W16425  29.983   7.194  12.865
56890W        W16426  11.622  25.497   2.302
56891W        W16427  13.717  42.479  14.939
56892W        W16428  25.988  23.714   1.253
56893W        W16429  32.095  32.964   3.774
56894W        W16430  32.412   3.296   0.740
56895W        W16431  22.640  18.578   3.287
56896W        W16432  33.999  35.534  11.456
56897W        W16433  25.633   8.877   3.242
56898W        W16434  37.540  38.064  12.921
56899W        W16435  20.726   1.963  13.894
56900W        W16436  14.340   4.764   0.948
56901W        W16437  33.504  29.544   0.870
56902W        W16438  41.818  12.669  13.887
56903W        W16439  21.249  30.030  13.396
56904W        W16440  36.420  20.662  12.978
56905W        W16441  14.209  40.334  12.413
56906W        W16442  26.184  19.197  11.088
56907W        W16443   5.344  29.598   3.659
56908W        W16444  36.960  21.684  14.463
56909W        W16445  12.118   7.403   2.402
56910W        W16446  42.331  25.503  14.363
56911W        W16447   4.855  15.781  12.419
56912W        W16448  28.567  20.567  11.123
56913W        W16449  12.830  25.560   0.311
56914W        W16450  26.548   5.879  14.767
56915W        W16451  41.921  28.154   4.235
56916W        W16452  33.985  12.149  13.519
56917W        W16453   6.804  19.769   3.847
56918W        W16454  24.613  38.974  12.981
56919W        W16455   0.812   1.857   2.851
56920W        W16456  33.562  22.516  12.573
56921W        W16457  14.124   1.306  11.861
56922W        W16458  22.722   6.699   1.280
56923W        W16459  19.185  38.988  12.375
56924W        W16460  39.373  34.887   1.404
56925W        W16461  15.252  31.134   1.795
56926W        W16462  36.013  39.499   0.944
56927W        W16463  43.294  23.617  10.933
56928W        W16464  39.341   3.772   9.955
56929W        W16465  31.420  21.143   2.244
56930W        W16466  15.216  36.937  12.982
56931W        W16467  12.799  42.825  10.404
56932W        W16468   9.740   0.335   1.751
56933W        W16469  38.851  39.993   1.413
56934W        W16470  38.490  43.974  14.904
56935W        W16471  24.546  32.560   0.747
56936W        W16472  38.554  35.011   2.279
56937W        W16473  28.140   7.844   5.314
56938W        W16474  35.418  11.700  14.950
56939W        W16475   4.355   8.775   3.706
56940W        W16476  38.460  28.498   3.257
56941W        W16477  34.014  10.341   4.155
56942W        W16478  33.388  30.123   1.338
56943W        W16479  35.395  43.457  12.372
56944W        W16480  37.413  41.948  11.105
56945W        W16481  28.065  17.242   4.271
56946W        W16482  22.095  43.844   1.845
56947W        W16483  25.125  14.298   3.785
56948W        W16484  26.578  36.858   3.306
56949W        W16485  31.404  41.502   2.307
56950W        W16486  28.586   8.294   3.357
56951W        W16487   0.446  33.463   3.714
56952W        W16488  13.188   2.767  11.923
56953W        W16489   4.767  36.955  14.788
56954W        W16490  39.900  39.437   3.657
56955W        W16491   0.827  19.754   3.292
56956W        W16492  11.847  20.679   2.862
56957W        W16493  15.211  40.039  12.029
56958W        W16494  44.272  32.557   1.339
56959W        W16495  33.615  35.587  11.125
56960W        W16496  23.514  28.668  13.031
56961W        W16497   8.370  27.167   0.425
56962W        W16498  43.425   1.853   2.664
56963W        W16499  36.479   5.237   2.284
56964W        W16500  19.136   0.870   0.304
56965W        W16501  28.456  23.095  13.834
56966W        W16502  41.375  13.602   3.747
56967W        W16503  19.764  14.589  13.819
56968W        W16504  13.646   1.892  11.090
56969W        W16505  36.405  37.372  14.311
56970W        W16506  33.068  13.685   0.255
56971W        W16507  26.626  31.440   1.259
56972W        W16508  38.350  18.550   1.319
56973W        W16509  41.044   0.407  12.925
56974W        W16510  24.594  29.627   3.375
56975W        W16511   7.404  23.549   1.778
56976W        W16512  30.548   6.880   0.284
56977W        W16513  10.326  32.500   1.830
56978W        W16514  29.496  12.116   0.781
56979W        W16515  23.497  11.234  14.292
56980W        W16516  17.181  44.442  14.020
56981W        W16517  20.037   9.682  10.533
56982W        W16518  19.568  19.675   2.406
56983W        W16519  37.549  34.871   3.868
56984W        W16520   9.379  26.204   2.800
56985W        W16521  15.177  32.953  10.549
56986W        W16522  27.154  37.050  14.302
56987W        W16523  28.677  23.060  12.949
56988W        W16524  20.763  39.486  14.405
56989W        W16525  35.073  22.598   3.289
56990W        W16526  32.978  29.486   5.173
56991W        W16527  25.994  27.143   4.656
56992W        W16528  31.432  10.879  12.051
56993W        W16529   5.914  39.951  13.899
56994W        W16530  16.224  21.548  14.863
56995W        W16531  11.130  28.564  11.512
56996W        W16532   5.689  32.585  13.381
56997W        W16533  19.672   7.378  10.056
56998W        W16534  29.473  36.472  14.910
56999W        W16535  25.578  22.746   2.297
57000W        W16536  44.819  10.662  11.600
57001W        W16537  12.662  37.492   1.786
57002W        W16538  29.575  21.584  11.970
57003W        W16539  35.489  38.992  10.638
57004W        W16540  12.614   0.439   0.304
57005W        W16541  33.915  30.484  10.543
57006W        W16542  18.669   4.773   0.855
57007W        W16543  43.389  15.627  12.537
57008W        W16544  28.483  20.682   2.253
57009W        W16545  12.243  39.862  12.451
57010W        W16546  25.682  15.265   1.304
57011W        W16547  16.673  40.391  10.487
57012W        W16548   7.361  25.024  11.898
57013W        W16549  21.079  20.648   3.718
57014W        W16550  25.033  12.645  11.493
57015W        W16551  33.380  44.864  10.549
57016W        W16552  11.286   3.711   3.796
57017W        W16553  14.787  25.631   3.311
57018W        W16554  12.835  21.734  11.856
57019W        W16555   3.325  10.792   4.686
57020W        W16556  21.224  28.538  11.926
57021W        W16557  17.133  39.858   0.742
57022W        W16558  20.271  34.882  12.474
57023W        W16559  35.869  22.055   3.668
57024W        W16560  36.923   0.297  14.373
57025W        W16561  22.681  39.417   2.898
57026W        W16562  31.057  13.289   4.325
57027W        W16563   8.739  23.161   3.793
57028W        W16564  43.891  11.142  12.568
57029W        W16565  29.095  11.311  12.478
57030W        W16566  31.583  29.647  13.059
57031W        W16567   5.427  35.065  11.093
57032W        W16568   3.711  24.591   2.754
57033W        W16569   0.390  17.173  14.337
57034W        W16570  37.975  41.400  14.375
57035W        W16571  25.096  24.500   4.117
57036W        W16572  32.011  17.297   2.806
57037W        W16573   0.843  37.444  12.528
57038W        W16574  27.691  19.094  10.546
57039W        W16575  44.874  33.497  11.984
57040W        W16576   9.254  26.461   4.718
57041W        W16577  38.458   5.329  12.015
57042W        W16578   5.429   6.905  11.913
57043W        W16579  38.906  17.684  11.383
57044W        W16580   9.286  33.045   0.890
57045W        W16581  35.544  21.152  10.984
57046W        W16582  24.994  35.412   1.727
57047W        W16583  16.296  23.734  13.452
57048W        W16584  20.718   2.845  12.475
57049W        W16585  26.154  31.104   2.377
57050W        W16586  10.311   6.714  13.958
57051W        W16587  12.823  29.631   3.302
57052W        W16588   6.702  44.497   4.810
57053W        W16589   5.427  32.041  13.846
57054W        W16590  30.040  43.295   3.753
57055W        W16591  23.655  41.860  10.572
57056W        W16592   0.877  44.856   0.740
57057W        W16593  18.151  28.139   3.846
57058W        W16594  39.509  21.263  10.459
57059W        W16595  36.393  35.532  13.503
57060W        W16596   7.912  32.945   4.645
57061W        W16597  38.382  38.965  12.392
57062W        W16598  15.177  15.325   3.367
57063W        W16599  24.580  21.231  10.921
57064W        W16600  41.441  32.067   2.266
57065W        W16601  43.884  12.201  12.048
57066W        W16602   7.308  33.051   1.210
57067W        W16603  32.629  35.593   0.441
57068W        W16604  25.678  38.826   1.725
57069W        W16605   5.851  33.921  11.095
57070W        W16606  40.831  15.683   2.767
57071W        W16607   5.788   6.866   0.752
57072W        W16608  28.992  41.463  13.407
57073W        W16609  40.983  14.740  12.393
57074W        W16610  13.304  18.193  10.911
57075W        W16611  19.157   1.905  10.981
57076W        W16612  22.553  43.279  10.578
57077W        W16613  39.026  23.089  12.346
57078W        W16614  18.238  24.995  11.876
57079W        W16615  36.400  40.975  11.541
57080W        W16616  39.397  32.909   1.874
57081W        W16617  19.261  15.774   3.855
57082W        W16618  40.315  42.941  13.477
57083W        W16619  26.669   3.270   1.864
57084W        W16620   6.817   0.785   1.812
57085W        W16621   1.833  39.364  10.973
57086W        W16622  39.437   4.308   0.473
57087W        W16623  27.495  22.130   3.724
57088W        W16624  35.865  15.685   4.729
57089W        W16625  25.162  20.662  14.937
57090W        W16626  24.974  18.765  10.463
57091W        W16627  40.006  32.086  12.574
57092W        W16628   1.455  10.665   2.310
57093W        W16629  22.240  19.723   4.124
57094W        W16630  24.081  12.734  11.970
57095W        W16631  10.351   4.771  12.460
57096W        W16632  40.829   9.830   2.332
57097W        W16633  33.555  13.248   2.263
57098W        W16634  37.414  25.709  14.003
57099W        W16635  28.003  27.161   4.794
57100W        W16636  25.659  10.189  11.530
57101W        W16637  16.626  16.782   0.736
57102W        W16638  42.306  33.392  13.852
57103W        W16639  21.049  35.509   1.833
57104W        W16640  14.802  10.316  10.571
57105W        W16641   2.364  21.554  11.073
57106W        W16642  11.137  10.183   3.779
57107W        W16643  37.396   0.968   1.393
57108W        W16644  29.990  15.212   1.695
57109W        W16645  44.443  34.524   3.849
57110W        W16646   6.281   2.384  11.064
57111W        W16647  16.680   5.295  11.570
57112W        W16648  25.106   1.326   2.395
57113W        W16649  41.482   7.673   0.370
57114W        W16650  18.781  22.583   2.845
57115W        W16651  17.676   4.319   4.801
57116W        W16652  30.435  14.164   3.846
57117W        W16653  14.111  17.268  14.391
57118W        W16654  30.601  14.733  14.394
57119W        W16655  24.178  39.341  11.989
57120W        W16656   4.282   6.388  13.853
57121W        W16657  35.501   1.843   5.581
57122W        W16658  39.979  23.718   2.377
57123W        W16659  28.578  17.304  14.445
57124W        W16660  26.633  20.677  13.999
57125W        W16661  20.144  27.037  11.441
57126W        W16662  11.176  20.124  13.015
57127W        W16663   5.391   1.239  10.959
57128W        W16664   5.305  21.195  11.922
57129W        W16665  37.872  39.489   0.280
57130W        W16666  42.848  10.163   0.297
57131W        W16667   2.447  34.565  14.373
57132W        W16668   2.318   7.893   1.293
57133W        W16669  30.501  36.042  14.414
57134W        W16670   2.846  40.912  12.086
57135W        W16671  21.256  26.633   1.812
57136W        W16672  15.204   9.288  13.357
57137W        W16673  43.985  14.261  10.588
57138W        W16674  20.255  44.992  14.493
57139W        W16675  19.668  11.810   0.442
57140W        W16676  18.122  28.156   2.254
57141W        W16677  15.744   2.344   0.768
57142W        W16678  40.850  21.080   0.367
57143W        W16679  21.109  11.624   4.726
57144W        W16680   9.163  25.105   4.195
57145W        W16681  12.821  24.193  10.616
57146W        W16682  40.930  27.558  13.940
57147W        W16683  30.052  31.596  14.916
57148W        W16684  37.367  31.067   3.342
57149W        W16685  40.925   6.257   0.870
57150W        W16686  32.913   6.329   2.772
57151W        W16687   2.346  26.541   4.161
57152W        W16688   1.332  21.102   3.862
57153W        W16689   0.302   3.928  12.397
57154W        W16690  22.217  22.562   4.608
57155W        W16691  14.799  21.053   3.371
57156W        W16692   8.661  30.118   0.768
57157W        W16693  31.047  20.637   0.938
57158W        W16694  15.776  15.761   5.246
57159W        W16695   7.687  13.230   4.718
57160W        W16696  10.142  23.521   1.806
57161W        W16697   1.945  36.000   2.894
57162W        W16698  24.567  43.767   3.182
57163W        W16699  38.913  42.484   2.279
57164W        W16700  16.795   1.281  10.558
57165W        W16701  37.966  41.419  11.544
57166W        W16702  19.062  32.593  12.991
57167W        W16703  35.058  29.949  10.541
57168W        W16704  37.518   7.193   0.904
57169W        W16705  10.310  14.319   9.975
57170W        W16706  20.203  18.737   2.811
57171W        W16707  37.465   8.687   2.257
57172W        W16708  18.765  12.122  11.975
57173W        W16709  43.499  40.484  12.973
57174W        W16710  33.486  38.420   0.875
57175W        W16711  16.681  21.575  14.416
57176W        W16712  21.653  39.816   1.317
57177W        W16713  34.915  32.118  12.372
57178W        W16714  43.841   2.953  14.967
57179W        W16715  44.468  29.627  11.438
57180W        W16716  30.467  27.083   0.780
57181W        W16717   1.787  38.386   0.916
57182W        W16718  11.846   0.790  14.324
57183W        W16719  12.726   3.891   0.290
57184W        W16720   5.835  35.589  12.985
57185W        W16721  18.745   6.895  14.841
57186W        W16722  22.057  36.542  12.092
57187W        W16723   6.745  18.054   3.787
57188W        W16724  41.819   6.366   2.282
57189W        W16725  12.211   9.298   2.866
57190W        W16726  22.143  18.775   2.409
57191W        W16727  31.620  44.898  14.854
57192W        W16728  10.744  28.588  14.370
57193W        W16729   3.407   4.846  14.471
57194W        W16730  16.305  33.940  11.103
57195W        W16731  30.605  37.466  13.525
57196W        W16732  35.517  12.359  10.579
57197W        W16733  13.121  24.004  14.967
57198W        W16734   7.859  28.593   2.731
57199W        W16735  41.501  17.294  10.634
57200W        W16736  14.807  32.416   0.268
57201W        W16737  22.559  40.912   2.853
57202W        W16738  36.056  27.509  11.910
57203W        W16739   1.776  32.429  11.062
57204W        W16740  16.641  33.405  11.503
57205W        W16741   3.714   9.830  10.555
57206W        W16742  19.241  11.726   0.385
57207W        W16743  14.192   7.836   3.803
57208W        W16744  12.194  40.487  14.302
57209W        W16745   3.734  28.483  13.452
57210W        W16746  14.239  42.932   1.855
57211W        W16747  27.452  21.112   3.290
57212W        W16748   1.454  30.603  12.070
57213W        W16749  25.171  37.356   4.206
57214W        W16750  26.112  32.965  14.441
57215W        W16751   5.210  14.772   0.871
57216W        W16752  23.680   5.430  12.872
57217W        W16753  30.937  10.756  14.499
57218W        W16754  20.075  43.002  10.625
57219W        W16755  32.505  10.380   1.738
57220W        W16756  42.500  34.575  13.962
57221W        W16757  25.969  25.979   4.311
57222W        W16758  19.157  42.284  14.835
57223W        W16759   5.211  29.604   1.422
57224W        W16760  16.672  18.258  12.823
57225W        W16761  37.475  44.420  13.905
57226W        W16762   4.900  32.498  14.007
57227W        W16763  41.884  28.584  10.575
57228W        W16764  10.341  30.558   2.272
57229W        W16765  27.456  44.979   1.798
57230W        W16766   4.714   3.441   3.804
57231W        W16767  20.171  38.336  13.537
57232W        W16768   0.465  33.472  12.457
57233W        W16769   6.727  32.118  12.968
57234W        W16770  13.292  35.541   3.351
57235W        W16771  44.313  26.517   3.787
57236W        W16772  41.861  23.073   0.844
57237W        W16773  44.006   6.911  12.968
57238W        W16774  30.414   5.324   3.833
57239W        W16775  39.921  14.256   1.250
57240W        W16776   6.270  44.383   1.783
57241W        W16777  11.332   1.775   2.204
57242W        W16778  17.098  20.204   3.864
57243W        W16779  36.984  44.754   2.205
57244W        W16780   4.699  10.787   1.750
57245W        W16781  41.412   6.378   4.651
57246W        W16782  32.582  12.705   2.775
57247W        W16783  20.637  27.035   3.825
57248W        W16784   9.266  18.234   1.795
57249W        W16785  10.800  18.640   3.171
57250W        W16786   1.351  30.074  11.045
57251W        W16787  21.561  28.469   4.145
57252W        W16788  34.427  15.224  12.970
57253W        W16789   9.150  28.933   3.633
57254W        W16790   9.870  11.660   0.260
57255W        W16791  20.046  24.028  14.510
57256W        W16792   1.376  37.901   3.337
57257W        W16793  35.895  22.036  11.080
57258W        W16794   8.278  13.619  11.546
57259W        W16795   0.439  28.186  13.355
57260W        W16796  18.559  10.325   1.241
57261W        W16797   6.260  10.650   1.436
57262W        W16798  21.518  32.078  11.551
57263W        W16799   4.749  42.472  12.379
57264W        W16800  15.780  33.882  10.611
57265W        W16801  11.678  15.607   2.729
57266W        W16802  39.342  18.182  13.961
57267W        W16803  24.575  24.135   2.787
57268W        W16804  26.023  29.144  11.932
57269W        W16805  30.931  23.010   0.379
57270W        W16806  34.613  15.688  12.093
57271W        W16807  19.066  42.854   4.715
57272W        W16808  33.475  36.015  12.494
57273W        W16809  18.608  28.448  11.010
57274W        W16810  25.158  17.788  13.002
57275W        W16811  24.699   8.269   3.378
57276W        W16812  32.906  30.538   3.300
57277W        W16813  10.640  38.497  13.398
57278W        W16814  22.520  40.501  12.015
57279W        W16815  16.250  24.107  11.518
57280W        W16816   3.384  17.133  13.024
57281W        W16817  37.832  29.153  10.460
57282W        W16818  22.152   7.377   3.801
57283W        W16819  27.053   5.217   0.418
57284W        W16820  26.680  43.834   0.350
57285W        W16821  35.876  10.813  11.467
57286W        W16822  25.059   7.229  13.457
57287W        W16823   1.361  14.294  14.919
57288W        W16824   5.742  17.071   2.868
57289W        W16825   0.980  33.560  14.403
57290W        W16826  29.428  44.973   2.253
57291W        W16827  17.184   9.351   1.767
57292W        W16828  38.559  40.394  12.873
57293W        W16829  24.089  22.163  11.965
57294W        W16830  38.046  11.803   1.415
57295W        W16831  18.646  30.129   0.755
57296W        W16832  10.188  18.211   0.246
57297W        W16833  16.694  37.498  13.453
57298W        W16834  15.160  40.825  13.366
57299W        W16835  10.280   4.294   3.329
57300W        W16836   8.718  15.218   0.750
57301W        W16837  43.875   3.370   3.351
57302W        W16838   6.309  39.461   4.192
57303W        W16839  37.456  18.775  14.032
57304W        W16840  25.069  24.637   3.221
57305W        W16841  31.908  21.615  14.480
57306W        W16842  11.855   5.413  10.133
57307W        W16843  21.608  34.613  12.077
57308W        W16844  25.168   7.687  10.950
57309W        W16845   9.204  42.303   3.159
57310W        W16846  23.175  39.947  14.902
57311W        W16847  18.641  27.183   2.408
57312W        W16848   7.331  19.641  13.949
57313W        W16849  40.876  40.507   0.246
57314W        W16850  42.372  25.053   0.951
57315W        W16851   5.808  28.460  14.853
57316W        W16852  34.033  16.633  12.048
57317W        W16853  21.752   5.830  13.971
57318W        W16854   5.745  24.585   2.398
57319W        W16855  12.719  20.255  12.408
57320W        W16856  23.012  28.041  10.127
57321W        W16857  36.940   4.384   0.245
57322W        W16858   2.941   3.306  13.836
57323W        W16859   9.333  43.962   3.856
57324W        W16860  27.139  39.498  11.440
57325W        W16861   2.785   7.269  12.898
57326W        W16862  27.670  13.741   0.268
57327W        W16863  20.170  30.596   4.184
57328W        W16864  26.509   3.789   4.344
57329W        W16865   7.797  21.701   4.656
57330W        W16866   4.381  21.127  10.581
57331W        W16867  42.940  19.239  11.117
57332W        W16868   0.841   0.820  14.294
57333W        W16869  39.855  39.043   1.359
57334W        W16870  18.715   0.470  14.430
57335W        W16871  12.339  22.217  13.387
57336W        W16872   6.195  28.139   5.092
57337W        W16873   5.787   0.390   3.632
57338W        W16874  26.566  41.921  11.478
57339W        W16875  39.021  19.760  14.410
57340W        W16876  31.480  33.882   0.443
57341W        W16877  11.668  40.416  14.362
57342W        W16878   0.768  24.571  14.819
57343W        W16879  12.305   5.866   0.469
57344W        W16880   1.327  43.795   3.684
57345W        W16881  19.544  30.020  13.796
57346W        W16882  19.723  20.745  10.450
57347W        W16883  34.052   9.660  14.283
57348W        W16884  19.283  23.650   1.297
57349W        W16885  25.688  15.769  12.453
57350W        W16886   9.784  14.102  13.948
57351W        W16887  11.307  30.536  13.432
57352W        W16888  12.151  26.561  11.538
57353W        W16889  34.432  17.289  12.092
57354W        W16890  36.031  23.047  13.791
57355W        W16891  20.145  11.702  12.086
57356W        W16892  11.657  11.145  11.589
57357W        W16893   4.729  31.108   1.759
57358W        W16894   4.792   3.885  10.961
57359W        W16895  18.207  42.801  10.929
57360W        W16896   3.711  10.755  12.497
57361W        W16897  14.219  24.650   1.223
57362W        W16898  28.633   3.267   2.413
57363W        W16899  32.972   6.912  13.017
57364W        W16900  38.063  20.611  12.907
57365W        W16901  27.450  32.890   4.239
57366W        W16902   5.882  40.948  14.454
57367W        W16903  32.441  36.461  11.584
57368W        W16904  32.574  43.454   4.729
57369W        W16905  29.593   8.840   2.265
57370W        W16906   9.241  34.867  11.425
57371W        W16907  38.559  29.008  10.451
57372W        W16908  16.108  43.493  10.531
57373W        W16909  11.354   6.853  11.905
57374W        W16910  37.582  11.243   4.764
57375W        W16911  41.001  15.820  13.932
57376W        W16912  37.865  26.960  11.563
57377W        W16913  39.926  21.076  13.870
57378W        W16914  44.405   8.849  12.857
57379W        W16915  21.752  29.541   0.870
57380W        W16916  27.110  36.030  14.990
57381W        W16917  41.529   7.301   0.347
57382W        W16918  11.780  39.009   4.808
57383W        W16919   7.730  39.437  11.432
57384W        W16920  17.130  38.833  14.355
57385W        W16921  30.081  11.692   0.938
57386W        W16922  31.042  23.156  12.964
57387W        W16923  16.810   0.746   1.224
57388W        W16924  11.738  40.507   4.730
57389W        W16925   2.809  30.595   1.694
57390W        W16926  22.616   4.740  14.353
57391W        W16927  17.120  16.772   0.923
57392W        W16928  14.102  15.819   1.817
57393W        W16929   3.919  36.919   3.852
57394W        W16930  44.818   2.729   2.247
57395W        W16931   2.830  11.735  13.329
57396W        W16932  27.186  11.726  11.540
57397W        W16933  30.603  22.711   2.686
57398W        W16934   2.818  14.738   3.248
57399W        W16935  44.971  24.546  10.152
57400W        W16936  35.535  29.060   4.283
57401W        W16937  24.722  29.432  13.803
57402W        W16938  35.968  37.361   0.341
57403W        W16939  30.426  12.188  12.354
57404W        W16940  19.577  36.864   3.817
57405W        W16941   0.750   3.326  14.989
57406W        W16942  16.072  30.611   2.852
57407W        W16943  23.731  16.316  14.819
57408W        W16944   8.848  10.799  11.444
57409W        W16945  17.241  27.143   3.313
57410W        W16946   7.696  29.069  14.453
57411W        W16947  22.067   1.969   3.231
57412W        W16948  14.311  11.734   4.182
57413W        W16949  19.186  28.446   2.364
57414W        W16950  18.691   0.300   2.372
57415W        W16951  32.554  26.957   0.460
57416W        W16952  12.285  41.895  10.404
57417W        W16953  10.813   2.461  13.406
57418W        W16954  23.106  27.944   4.333
57419W        W16955  40.925  41.039  14.779
57420W        W16956  44.869  32.064   1.412
57421W        W16957  12.815  27.467   1.699
57422W        W16958  22.234  32.522   4.760
57423W        W16959  18.672  13.181  12.961
57424W        W16960  22.180  42.351   3.148
57425W        W16961  35.385  36.972   0.747
57426W        W16962  14.331  17.285  11.559
57427W        W16963   3.336  17.649   0.326
57428W        W16964  20.102  30.944  13.418
57429W        W16965   3.389  18.252  12.529
57430W        W16966  23.143  42.844  10.467
57431W        W16967  19.256  30.008   3.368
57432W        W16968  22.116   1.461   1.293
57433W        W16969  19.737  40.875  11.414
57434W        W16970  21.751   0.482  11.007
57435W        W16971  29.125   8.368  14.367
57436W        W16972   3.951  11.166  12.344
57437W        W16973  27.134  36.035  13.851
57438W        W16974  17.760  32.008   1.235
57439W        W16975  19.566  26.016   3.151
57440W        W16976   1.858   1.966   2.416
57441W        W16977  13.294  11.194   0.893
57442W        W16978   5.404   3.355   0.789
57443W        W16979  10.772  24.051  11.865
57444W        W16980  18.701   3.272  11.903
57445W        W16981  30.611  27.563   2.810
57446W        W16982  21.101  26.459  13.342
57447W        W16983  30.438  17.756   0.935
57448W        W16984  36.554  14.725   4.171
57449W        W16985  27.126   7.703  12.868
57450W        W16986  19.732  17.109  14.013
57451W        W16987  25.109   2.736   0.376
57452W        W16988  28.590  38.517  12.574
57453W        W16989  28.025   0.308  12.381
57454W        W16990  37.064  43.010   1.332
57455W        W16991   8.741  10.214   2.203
57456W        W16992  35.574   6.788  11.413
57457W        W16993  17.727  29.636  13.867
57458W        W16994  39.334   7.251   0.403
57459W        W16995  44.493  38.563  11.879
57460W        W16996  40.310  14.156  10.606
57461W        W16997  30.080  44.797   2.323
57462W        W16998   1.852  26.002  14.384
57463W        W16999  27.664  23.005   1.406
57464W        W17000  41.816   1.449  10.556
57465W        W17001  37.565  13.820   1.916
57466W        W17002  28.111  26.011   3.818
57467W        W17003   7.373  11.849  11.397
57468W        W17004  12.269   2.337  10.467
57469W        W17005   1.909  36.499   0.455
57470W        W17006   7.738  41.307  14.350
57471W        W17007   0.365  16.670   4.186
57472W        W17008   1.870  43.998   0.458
57473W        W17009   2.783  17.218   2.758
57474W        W17010   8.683   8.840  13.003
57475W        W17011   3.421  12.823   0.774
57476W        W17012   3.853  24.128   0.362
57477W        W17013  23.129  11.762   2.852
57478W        W17014  39.472  28.049   2.712
57479W        W17015  17.257  10.269  13.999
57480W        W17016  21.522  11.302  10.578
57481W        W17017   2.903   9.353  13.347
57482W        W17018   7.883   8.846  13.916
57483W        W17019  40.338  42.826   5.279
57484W        W17020  37.525   3.428  13.955
57485W        W17021   6.396  21.262   3.837
57486W        W17022  26.536   1.329  11.501
57487W        W17023  25.587  15.273  13.540
57488W        W17024   6.908   5.282   1.435
57489W        W17025   0.912  30.117   0.459
57490W        W17026   0.868  17.630  14.499
57491W        W17027  30.529  44.941  13.412
57492W        W17028  18.572  18.127   4.705
57493W        W17029  17.682  29.142  13.496
57494W        W17030  26.674  11.284  11.386
57495W        W17031  28.062  43.407  12.085
57496W        W17032  25.136   7.783  13.514
57497W        W17033  24.710  42.320  14.916
57498W        W17034   1.457  18.264   3.362
57499W        W17035  41.391  15.786   2.704
57500W        W17036  12.185   3.933  14.860
57501W        W17037   9.173  37.431  12.442
57502W        W17038  18.150  11.828  13.973
57503W        W17039  11.136   9.155   3.860
57504W        W17040   9.787   2.933   0.830
57505W        W17041   8.787   4.781  10.503
57506W        W17042   1.948  25.659   4.209
57507W        W17043   3.943  10.179   4.334
57508W        W17044  10.347  15.306   9.920
57509W        W17045  40.425   2.433   3.175
57510W        W17046   1.264  11.184   1.387
57511W        W17047  34.413   0.875   2.295
57512W        W17048   5.905  14.106   0.330
57513W        W17049  20.217  19.745  14.384
57514W        W17050  22.010  10.840  10.438
57515W        W17051  23.218  42.335   3.821
57516W        W17052   0.840   5.883  11.871
57517W        W17053  34.021  19.650   0.780
57518W        W17054  39.340  40.469  12.893
57519W        W17055   0.440  25.486  13.318
57520W        W17056  38.895  23.636  13.946
57521W        W17057  26.478  31.557  14.896
57522W        W17058  43.484  41.362   2.243
57523W        W17059  10.307  38.845   2.681
57524W        W17060  14.675  15.590   0.905
57525W        W17061   0.465  29.506   4.759
57526W        W17062   8.751   2.274   1.760
57527W        W17063  21.632  34.084  11.543
57528W        W17064   1.855  29.118   3.853
57529W        W17065  36.582  33.115  11.426
57530W        W17066   1.930   0.276  14.320
57531W        W17067   6.228  26.671   4.631
57532W        W17068   8.326   4.724  13.535
57533W        W17069  14.303   9.725   3.769
57534W        W17070   7.834  28.630  11.386
57535W        W17071   6.280   8.711   4.802
57536W        W17072  32.503  13.631   2.367
57537W        W17073  25.047  31.498   4.249
57538W        W17074  38.031  29.468   4.766
57539W        W17075  10.174  39.002  12.827
57540W        W17076  36.992  43.829   0.448
57541W        W17077  11.682   2.896  12.951
57542W        W17078  30.550  10.157   0.243
57543W        W17079  18.145  11.276   0.787
57544W        W17080  40.054  11.324   4.744
57545W        W17081  37.905  17.086   1.251
57546W        W17082  30.933  12.632  13.506
57547W        W17083  13.119  38.830   2.867
57548W        W17084  21.119  18.096  13.426
57549W        W17085  31.948   7.850   1.850
57550W        W17086   0.944  21.569  13.848
57551W        W17087  14.199  10.873  13.385
57552W        W17088   3.925  25.219  14.807
57553W        W17089  34.888  34.002   1.765
57554W        W17090  37.088  33.958  14.926
57555W        W17091  17.705   6.205   0.908
57556W        W17092  17.216  26.581   1.822
57557W        W17093  20.594  20.538   1.911
57558W        W17094  32.079  34.920   2.247
57559W        W17095  31.022  36.917   4.736
57560W        W17096   8.235   3.225  11.057
57561W        W17097   2.381  24.147   0.242
57562W        W17098  31.053  12.303  13.807
57563W        W17099  44.355  11.259  11.979
57564W        W17100  18.630   1.851  10.936
57565W        W17101   3.798  25.685   1.694
57566W        W17102  27.002  11.754   3.337
57567W        W17103  20.591   8.725  11.543
57568W        W17104   4.240  20.746   2.812
57569W        W17105  23.689  28.542  12.093
57570W        W17106  43.991   7.804   2.771
57571W        W17107  13.784  37.503   1.865
57572W        W17108  22.645  21.201   4.833
57573W        W17109  23.509  41.445   4.647
57574W        W17110   3.300   6.737  11.551
57575W        W17111  29.143  12.205  14.925
57576W        W17112  11.766   3.287   1.224
57577W        W17113  39.952  16.648   2.778
57578W        W17114  12.814  14.834   0.416
57579W        W17115  16.734  36.972  10.539
57580W        W17116  41.297  44.334   1.315
57581W        W17117   9.311   4.871  12.911
57582W        W17118  20.051  38.037   2.674
57583W        W17119  15.278  10.300  12.939
57584W        W17120  29.033  21.663  14.987
57585W        W17121  14.095  10.632   2.792
57586W        W17122  33.511  10.299   4.770
57587W        W17123  25.591  23.515   1.406
57588W        W17124   8.848  11.192  14.883
57589W        W17125   3.308  28.631   4.250
57590W        W17126  31.521  39.838   1.792
57591W        W17127  10.781  38.959  13.460
57592W        W17128  17.578  37.942  13.423
57593W        W17129  29.933   6.274  13.474
57594W        W17130   9.675   8.684  11.899
57595W        W17131  25.652   2.810  14.863
57596W        W17132  15.235  31.423   0.345
57597W        W17133  44.467  29.994   0.895
57598W        W17134  29.015  38.062  14.453
57599W        W17135  13.642  20.700   4.713
57600W        W17136  22.198  17.300  12.867
57601W        W17137   4.924   2.254   4.272
57602W        W17138  35.919  34.545  11.485
57603W        W17139  34.052  30.022   1.363
57604W        W17140   8.693  35.013  14.379
57605W        W17141  11.157  15.719   2.880
57606W        W17142   6.782  37.356  13.449
57607W        W17143  22.578  26.066   0.829
57608W        W17144  26.016  31.073  10.532
57609W        W17145  15.302   8.308  11.420
57610W        W17146   0.365  28.666  12.895
57611W        W17147  42.928  40.443   3.247
57612W        W17148   2.873   1.870  10.639
57613W        W17149   3.446  26.138   9.469
57614W        W17150  16.223   2.306  10.592
57615W        W17151  39.526  34.059  11.426
57616W        W17152  38.397  36.998  12.383
57617W        W17153  30.064  22.178   0.403
57618W        W17154  24.616  39.960   2.348
57619W        W17155  39.381   4.381   1.850
57620W        W17156  43.870   7.700  12.031
57621W        W17157  33.483   0.933  10.149
57622W        W17158  21.133  28.506   1.294
57623W        W17159  32.548  32.581   2.182
57624W        W17160   7.353  31.461  14.438
57625W        W17161  12.273  41.014  12.565
57626W        W17162  11.361   6.413  14.853
57627W        W17163  35.500  34.500  10.475
57628W        W17164  23.985   3.841   2.259
57629W        W17165  44.003  18.569  10.897
57630W        W17166  41.973  26.031   0.850
57631W        W17167  35.018  36.522  14.471
57632W        W17168  39.817   6.297  14.966
57633W        W17169  10.693  19.719  13.867
57634W        W17170  40.875  20.264  14.386
57635W        W17171  36.026  32.087   3.677
57636W        W17172  16.572  33.062   1.280
57637W        W17173  38.452  25.978   0.886
57638W        W17174  24.019  41.959  13.317
57639W        W17175  33.884  35.950   1.857
57640W        W17176  35.521  19.221   0.281
57641W        W17177  35.016  26.578  10.605
57642W        W17178  35.454  27.497   0.374
57643W        W17179  33.976   2.916  11.546
57644W        W17180  41.805   7.719  13.972
57645W        W17181   3.220  29.097   4.784
57646W        W17182   0.902   8.342   3.635
57647W        W17183  15.811  21.151  12.872
57648W        W17184   6.732  29.968   3.659
57649W        W17185  11.749   4.386   4.609
57650W        W17186  32.486  44.417  10.558
57651W        W17187  31.902  42.777  12.891
57652W        W17188  22.199  36.871  13.824
57653W        W17189  10.283  41.382  13.430
57654W        W17190  39.963  33.877  11.112
57655W        W17191  40.863  12.138  13.035
57656W        W17192   8.406  32.579  10.989
57657W        W17193  36.934  21.064   0.448
57658W        W17194  33.623  19.743   0.394
57659W        W17195  36.439   5.869   3.647
57660W        W17196   1.483  23.671   4.264
57661W        W17197  21.110  13.206  14.351
57662W        W17198  37.930  27.490   2.253
57663W        W17199  27.136  15.760  14.876
57664W        W17200  35.478  36.518  14.898
57665W        W17201   3.830  10.204   3.746
57666W        W17202   2.399   1.975   0.368
57667W        W17203  10.775  13.626   1.915
57668W        W17204  27.558  16.631   3.247
57669W        W17205  36.417  44.341   9.517
57670W        W17206  21.074  37.960   0.842
57671W        W17207  39.361  24.642  11.543
57672W        W17208  17.073   0.268  14.999
57673W        W17209  40.984   3.828  13.859
57674W        W17210  43.292  27.479   1.784
57675W        W17211  13.350   1.247  10.466
57676W        W17212  27.078  26.551   4.737
57677W        W17213  20.191  26.640   3.320
57678W        W17214  31.024  14.819   2.828
57679W        W17215  44.492  19.082  10.488
57680W        W17216  24.658  24.493  13.412
57681W        W17217  32.997  44.947  11.433
57682W        W17218  13.262  27.662   5.260
57683W        W17219  28.961  29.441   1.222
57684W        W17220   6.742   6.838   0.915
57685W        W17221   8.847   6.802  10.898
57686W        W17222  12.754   6.767   2.252
57687W        W17223  38.424  43.482  11.428
57688W        W17224  38.397   5.893  14.474
57689W        W17225  12.748   0.894  13.446
57690W        W17226  20.255  35.566  14.982
57691W        W17227  23.617  33.994   1.934
57692W        W17228  16.115  33.987   1.403
57693W        W17229   1.975  18.722   2.372
57694W        W17230   7.393  23.057   1.389
57695W        W17231  23.617  30.090  13.509
57696W        W17232  29.981  33.064   4.343
57697W        W17233  17.802  43.404  13.041
57698W        W17234   1.748  22.165   4.673
57699W        W17235  22.580  31.937   2.408
57700W        W17236  20.059  19.688   3.663
57701W        W17237  38.397  27.565   3.307
57702W        W17238  21.655  32.587  10.610
57703W        W17239   4.705  43.375  12.342
57704W        W17240   9.772  16.674   4.331
57705W        W17241  20.218  29.079  13.957
57706W        W17242   8.233  32.123   5.206
57707W        W17243   6.299  37.838   1.366
57708W        W17244  34.038  30.921   2.367
57709W        W17245  16.071  40.819   2.692
57710W        W17246   8.228  10.239  13.051
57711W        W17247  11.640  30.461   0.282
57712W        W17248  25.565   9.283   0.763
57713W        W17249  34.474   5.916   4.348
57714W        W17250  27.054  27.031   0.242
57715W        W17251   1.866  36.981  11.504
57716W        W17252  21.078  42.960  14.403
57717W        W17253  11.796  41.830  14.287
57718W        W17254  33.610  30.989   1.881
57719W        W17255   6.256  44.404   3.691
57720W        W17256  44.356  37.505  13.046
57721W        W17257  24.488  16.569  11.050
57722W        W17258   1.360  12.630  14.513
57723W        W17259   2.263   5.924  14.482
57724W        W17260  33.125  33.920   2.844
57725W        W17261  17.572  38.412  11.440
57726W        W17262  11.688  11.679  14.976
57727W        W17263  20.607  28.598  11.031
57728W        W17264  23.684  37.420   1.755
57729W        W17265  29.919  24.066  11.604
57730W        W17266   6.377  42.908  12.344
57731W        W17267  31.488  36.552   3.634
57732W        W17268   8.879   8.660   0.294
57733W        W17269  38.914  33.534  13.798
57734W        W17270   7.216  11.265   2.803
57735W        W17271  40.050  17.625  10.983
57736W        W17272  24.133  24.224   1.407
57737W        W17273  12.736  34.922   3.724
57738W        W17274  29.023  44.361   4.626
57739W        W17275  11.782   0.765  14.961
57740W        W17276  42.360  22.600   3.718
57741W        W17277  31.565  40.538   3.683
57742W        W17278  24.690  38.407  14.459
57743W        W17279  36.899  27.157   3.325
57744W        W17280  38.338  28.598   4.276
57745W        W17281   5.918   4.286  12.456
57746W        W17282   6.276  19.147   3.178
57747W        W17283  12.671  20.557   4.801
57748W        W17284  34.907  12.150  12.049
57749W        W17285  23.984  28.585  11.889
57750W        W17286  35.581   9.692  10.953
57751W        W17287  11.736  27.101   1.402
57752W        W17288  10.183  38.905   3.636
57753W        W17289  13.267  35.476  12.000
57754W        W17290  10.307  29.116   4.665
57755W        W17291  34.512  19.721  13.531
57756W        W17292  36.583  30.923  11.598
57757W        W17293  35.891  16.183  11.128
57758W        W17294  17.726  31.961  14.456
57759W        W17295  18.580  30.572   4.210
57760W        W17296  19.277  20.255  10.894
57761W        W17297  22.052   1.453  14.387
57762W        W17298  20.166   7.357   9.476
57763W        W17299  44.942  12.126  10.437
57764W        W17300  21.100  12.677  13.360
57765W        W17301  36.085  42.008  12.983
57766W        W17302  32.503  14.792   1.305
57767W        W17303   7.206  31.083  10.532
57768W        W17304   5.933  14.141   1.866
57769W        W17305   9.795  18.616   3.710
57770W        W17306  21.188   9.820  14.934
57771W        W17307  31.500  23.626   0.761
57772W        W17308  43.879  43.475  14.957
57773W        W17309   5.899  42.397   3.785
57774W        W17310  15.787   0.421  12.458
57775W        W17311  29.981  37.021  14.374
57776W        W17312  21.072  42.292  10.419
57777W        W17313  42.014  10.186   5.106
57778W        W17314  32.607  28.564   4.195
57779W        W17315  21.608   4.750  14.378
57780W        W17316  29.067  19.120  12.070
57781W        W17317  20.748  13.677   3.638
57782W        W17318  19.571  22.238   1.857
57783W        W17319   4.840  11.248   2.871
57784W        W17320  13.775   8.316  13.491
57785W        W17321  12.275   0.415   3.760
57786W        W17322   2.829   4.857   3.702
57787W        W17323  10.195  22.736   3.682
57788W        W17324  12.773   1.379   4.831
57789W        W17325   4.357  32.011   0.458
57790W        W17326  13.174  32.496   4.782
57791W        W17327  42.516  33.434  12.400
57792W        W17328  23.512  38.903  11.562
57793W        W17329   3.757  13.182  11.970
57794W        W17330  30.998  33.121   1.371
57795W        W17331  43.852   8.163  13.523
57796W        W17332   2.838  16.088   4.694
57797W        W17333   3.338   8.676   3.190
57798W        W17334  41.945  20.675   3.161
57799W        W17335  15.641  12.814  14.875
57800W        W17336  13.300  42.968   3.837
57801W        W17337  30.916  13.606  13.427
57802W        W17338  12.181  37.515  11.487
57803W        W17339  42.951  37.986   4.633
57804W        W17340   9.760  17.198  13.992
57805W        W17341  34.572   8.306  11.472
57806W        W17342  29.556  31.014   3.791
57807W        W17343   1.891  35.979  11.558
57808W        W17344   6.308   9.198   2.194
57809W        W17345  15.159  27.579   4.186
57810W        W17346  33.380  36.556  13.011
57811W        W17347  38.978   6.825   2.326
57812W        W17348  42.287  16.669  13.310
57813W        W17349  29.064   0.474  12.570
57814W        W17350  43.981   0.766  11.034
57815W        W17351  42.514  32.054  14.955
57816W        W17352  26.529   3.412  14.339
57817W        W17353   0.422  35.428   1.426
57818W        W17354  33.624   3.912   9.987
57819W        W17355  31.607  24.094  10.058
57820W        W17356  24.135  44.987  13.804
57821W        W17357  29.175  25.025   4.306
57822W        W17358  25.990   9.847  14.309
57823W        W17359  38.983   4.419  11.537
57824W        W17360   5.351  37.534   0.458
57825W        W17361  24.062   8.173  12.878
57826W        W17362   7.272  31.006   2.877
57827W        W17363  41.888  10.768  13.014
57828W        W17364   5.823  21.141  11.047
57829W        W17365  11.335  40.903   0.759
57830W        W17366  19.245  13.633   2.737
57831W        W17367  10.678  27.580  13.974
57832W        W17368  17.753  38.560   0.418
57833W        W17369  39.355  21.082   2.207
57834W        W17370   2.867   6.250   1.255
57835W        W17371   0.771  26.652   0.347
57836W        W17372   2.436  29.556   0.848
57837W        W17373  21.069  29.528   0.763
57838W        W17374  37.347  25.556   2.215
57839W        W17375  22.675  14.691   1.424
57840W        W17376  14.710  39.324  12.921
57841W        W17377  11.850  26.175   5.171
57842W        W17378  17.784  34.479   2.725
57843W        W17379  43.311   7.758   0.889
57844W        W17380   8.168  17.661  11.028
57845W        W17381   6.357  22.529   1.340
57846W        W17382  43.481   5.270   3.639
57847W        W17383  17.283  42.372   4.732
57848W        W17384  13.667  15.623  14.876
57849W        W17385   7.225  35.410   3.708
57850W        W17386  38.359  22.028  11.085
57851W        W17387  40.354   7.677  14.855
57852W        W17388  43.459  31.023  14.834
57853W        W17389  16.599  17.248   4.701
57854W        W17390  14.289  38.841   1.898
57855W        W17391  35.554  30.163   3.849
57856W        W17392  23.495   8.866  13.015
57857W        W17393  42.519  10.671  14.403
57858W        W17394   1.946  23.671   9.551
57859W        W17395  39.339  40.423  11.451
57860W        W17396  44.997  42.515   4.218
57861W        W17397  41.395  19.079   1.827
57862W        W17398  36.067  29.977  13.891
57863W        W17399   7.909  23.221   4.286
57864W        W17400  25.156  41.915  13.421
57865W        W17401  16.694  19.764   2.373
57866W        W17402  10.378  12.644  12.569
57867W        W17403  29.543  18.087   4.309
57868W        W17404  20.704  13.189   3.791
57869W        W17405  12.181  25.113  12.360
57870W        W17406   4.818  35.905  13.850
57871W        W17407  25.491  12.715   1.696
57872W        W17408  12.631  35.099  12.513
57873W        W17409  39.048   7.171   3.356
57874W        W17410  15.614   4.702  13.386
57875W        W17411  16.810  11.866  11.085
57876W        W17412  30.572  15.186  14.997
57877W        W17413  43.304  41.508  14.795
57878W        W17414  26.986  37.432   4.627
57879W        W17415  30.133  26.623   1.353
57880W        W17416  16.769  27.620  13.318
57881W        W17417  18.580  22.207  10.602
57882W        W17418   8.699  39.333  12.013
57883W        W17419  25.562  14.643   1.837
57884W        W17420  35.001  21.611   2.666
57885W        W17421  44.860  23.086   2.222
57886W        W17422  26.972  38.999  12.981
57887W        W17423   6.212  31.402   2.901
57888W        W17424  35.402  32.429  12.884
57889W        W17425  21.091  26.097   1.895
57890W        W17426   6.303  39.400  12.868
57891W        W17427  38.915  11.345  12.957
57892W        W17428  17.102  27.497   4.180
57893W        W17429  16.174  41.984   3.642
57894W        W17430  14.164  33.575  12.952
57895W        W17431  32.485   7.314  11.887
57896W        W17432  44.439  26.046   0.914
57897W        W17433  33.424  10.788  14.967
57898W        W17434  39.508  41.905  12.964
57899W        W17435   2.347  35.867  14.375
57900W        W17436  43.813  13.205  11.533
57901W        W17437   8.750   7.693  14.770
57902W        W17438  11.210  12.199  11.409
57903W        W17439   7.311  18.232  14.941
57904W        W17440  35.377  12.665   2.383
57905W        W17441  14.682  44.967   3.824
57906W        W17442  25.709  14.690  11.965
57907W        W17443  10.698  27.446  10.475
57908W        W17444  27.050  18.171  11.971
57909W        W17445  30.962   2.398  14.992
57910W        W17446   3.427  35.095  13.901
57911W        W17447  18.556  35.867   1.301
57912W        W17448  16.247  43.831   4.716
57913W        W17449  10.307  14.159  14.467
57914W        W17450  38.906  23.037   2.181
57915W        W17451  39.974  30.475  12.517
57916W        W17452  31.477  34.035   1.287
57917W        W17453   9.214  25.560  14.482
57918W        W17454  27.946  28.125   0.442
57919W        W17455  12.168  33.470  12.075
57920W        W17456  33.938  26.611  10.025
57921W        W17457  36.438  23.210  11.055
57922W        W17458  18.218  16.274   3.339
57923W        W17459  16.606  23.040   3.639
57924W        W17460  34.985  43.922  11.098
57925W        W17461  26.467  17.799   0.902
57926W        W17462  44.940  27.582   2.218
57927W        W17463  11.831   9.199  14.492
57928W        W17464   8.884   1.732  14.508
57929W        W17465   6.240  43.372  10.511
57930W        W17466  26.471  23.687  14.938
57931W        W17467   0.474  42.464  11.939
57932W        W17468  29.923  35.925   4.630
57933W        W17469  12.806  32.462  11.062
57934W        W17470  37.491  42.820   2.795
57935W        W17471   5.909   5.200   1.927
57936W        W17472  14.758  22.689   1.213
57937W        W17473  41.805  34.552   1.859
57938W        W17474  13.341  41.513  11.906
57939W        W17475  13.147   7.285   2.373
57940W        W17476   1.426   7.690  14.329
57941W        W17477  36.057  25.179  11.546
57942W        W17478  31.601  16.218  11.399
57943W        W17479  41.897  33.996  12.026
57944W        W17480   8.300  39.469  14.854
57945W        W17481  13.667   3.790   0.894
57946W        W17482  34.396  43.830  13.388
57947W        W17483  40.924   4.864  12.414
57948W        W17484   5.428  40.304   1.896
57949W        W17485  37.495  22.687  11.974
57950W        W17486  23.048   6.858   0.794
57951W        W17487   1.894  26.493   1.296
57952W        W17488  39.924  28.045   1.329
57953W        W17489  13.600   8.229  13.053
57954W        W17490  20.264  27.691   3.668
57955W        W17491  25.045  22.606   5.121
57956W        W17492  13.632  29.947   2.203
57957W        W17493  10.197   6.218   0.320
57958W        W17494  21.571  38.998  14.405
57959W        W17495  17.212  31.104  14.953
57960W        W17496  16.801  38.916  14.337
57961W        W17497  23.142  22.515   1.760
57962W        W17498  15.635   2.848  12.359
57963W        W17499   6.798  35.378   1.794
57964W        W17500   2.436  40.360   4.836
57965W        W17501  41.915  16.803   4.257
57966W        W17502  25.697   3.307   2.761
57967W        W17503  12.354  27.613   3.742
57968W        W17504  17.247  26.668   4.750
57969W        W17505  34.372  16.216   3.858
57970W        W17506  44.903  14.111   4.227
57971W        W17507  32.905  13.740  12.985
57972W        W17508  21.230   5.840  14.879
57973W        W17509  37.572  33.001   1.734
57974W        W17510  31.645  31.425   1.212
57975W        W17511  20.220  31.601   2.266
57976W        W17512  19.063  14.266  10.627
57977W        W17513  28.171   3.349   2.809
57978W        W17514  12.181  19.653   0.944
57979W        W17515   1.905  29.501   0.765
57980W        W17516  30.543  14.171   2.821
57981W        W17517  21.631  37.963  13.439
57982W        W17518  10.706  21.705   4.139
57983W        W17519  23.163   2.916  14.919
57984W        W17520  26.532  19.665   2.342
57985W        W17521  42.944  21.262   4.708
57986W        W17522   4.305  26.501  10.152
57987W        W17523   7.911   8.750  12.828
57988W        W17524  14.190  30.490  11.600
57989W        W17525  13.798   6.243   0.778
57990W        W17526  34.906  40.938  12.857
57991W        W17527  29.932  26.130   5.134
57992W        W17528   4.740   9.263  11.541
57993W        W17529  44.761   4.450  14.348
57994W        W17530  28.044   5.786   4.184
57995W        W17531  11.686  24.606   3.768
57996W        W17532  17.062  10.861  14.880
57997W        W17533  17.197  40.450  12.539
57998W        W17534  33.898  17.233   2.757
57999W        W17535   7.859  16.593  12.541
58000W        W17536  30.554  35.099   3.809
58001W        W17537   5.324   5.931   3.651
58002W        W17538  22.021  44.438   1.802
58003W        W17539  10.685   9.731  11.429
58004W        W17540   3.774  17.288   1.733
58005W        W17541  24.085  19.728   5.096
58006W        W17542  34.075  26.165   0.477
58007W        W17543  19.715  41.944  12.031
58008W        W17544  28.512  20.628   1.354
58009W        W17545  26.659  32.538  12.424
58010W        W17546  42.350  26.082   2.851
58011W        W17547   6.920  18.235   2.739
58012W        W17548  31.082  36.588   3.641
58013W        W17549   8.180  27.641  13.927
58014W        W17550  41.034  11.729   4.640
58015W        W17551   3.926   2.904   4.266
58016W        W17552  22.569  11.243   0.805
58017W        W17553  42.800   6.780   1.935
58018W        W17554  41.384  31.098   4.151
58019W        W17555   0.357  29.173  13.962
58020W        W17556  10.283  13.300  12.052
58021W        W17557   1.361  41.895   0.806
58022W        W17558  44.798   8.307  14.354
58023W        W17559  27.615  28.436   3.807
58024W        W17560  36.373  41.966   3.855
58025W        W17561  14.272   8.184  14.428
58026W        W17562  23.676  38.933  14.295
58027W        W17563  17.782  29.057   2.729
58028W        W17564  15.110  42.909  13.963
58029W        W17565  24.533  31.645  10.551
58030W        W17566  14.257  41.953  14.025
58031W        W17567  30.518  10.790   4.185
58032W        W17568  14.779  23.106  14.801
58033W        W17569  33.079  32.553  11.583
58034W        W17570   6.195  11.255  10.522
58035W        W17571  37.408  23.663   4.159
58036W        W17572   2.806   8.388   3.744
58037W        W17573  29.065  41.343   0.280
58038W        W17574  43.850  10.648  14.807
58039W        W17575  31.511  15.264  14.000
58040W        W17576  40.395  25.095   2.276
58041W        W17577   1.272  12.151  14.910
58042W        W17578  30.004  25.618   2.718
58043W        W17579  36.542  36.903  14.476
58044W        W17580  26.151  26.682   0.392
58045W        W17581  31.051  41.401  14.826
58046W        W17582  20.572  44.476  14.358
58047W        W17583  22.200  38.903   1.390
58048W        W17584   0.798  12.741   1.826
58049W        W17585  25.053  10.745   0.355
58050W        W17586  29.426  44.404   0.419
58051W        W17587  19.536  12.783   1.803
58052W        W17588   9.812  37.050   1.361
58053W        W17589  36.355  41.816   0.739
58054W        W17590  31.151  29.497   4.819
58055W        W17591  37.483  31.449   0.410
58056W        W17592  30.114  13.124  13.034
58057W        W17593  34.975  41.355   5.282
58058W        W17594  43.403   8.810   1.916
58059W        W17595  41.300  41.461   4.788
58060W        W17596   8.312  18.791  13.888
58061W        W17597  26.126  36.951  13.855
58062W        W17598   7.868  43.329   1.923
58063W        W17599  23.660  16.746  14.957
58064W        W17600  36.055  22.584  11.389
58065W        W17601  41.977  39.906  11.532
58066W        W17602  26.553  41.324  13.010
58067W        W17603  38.455  41.937  12.959
58068W        W17604  44.997   9.219   4.763
58069W        W17605  37.373   5.807  11.047
58070W        W17606  21.703  31.018  12.895
58071W        W17607  29.006   1.398   2.763
58072W        W17608   6.398   8.797   4.192
58073W        W17609  37.891  30.964  14.508
58074W        W17610  22.190  38.011   0.443
58075W        W17611   2.788  31.562   3.299
58076W        W17612   8.190   8.669   3.709
58077W        W17613   6.348  40.534  14.342
58078W        W17614   9.149  13.756   1.910
58079W        W17615  44.845  25.481   0.448
58080W        W17616   0.384  16.206  14.844
58081W        W17617  39.001  44.371   2.224
58082W        W17618  44.398  34.468  13.540
58083W        W17619  14.589  25.174   4.118
58084W        W17620  11.630  16.217   3.815
58085W        W17621  20.075  32.042   9.925
58086W        W17622  35.975  14.728   1.348
58087W        W17623  12.840  39.950  10.436
58088W        W17624   4.376  24.697  11.011
58089W        W17625   9.374  24.568   0.389
58090W        W17626  38.541  35.429  10.482
58091W        W17627  13.114  11.729   3.814
58092W        W17628  39.002  16.700   3.222
58093W        W17629  18.290  34.017   4.757
58094W        W17630  36.010  34.106   4.197
58095W        W17631  36.934  20.594   1.307
58096W        W17632  29.600  38.916  12.085
58097W        W17633  16.309  42.894   2.841
58098W        W17634  39.902   6.281  11.905
58099W        W17635  15.760  19.728   0.814
58100W        W17636  20.178  13.172  13.006
58101W        W17637  26.701  20.670   4.126
58102W        W17638  32.432  33.969  14.360
58103W        W17639  24.053  14.649  11.124
58104W        W17640  22.554  22.090   2.374
58105W        W17641   9.220  15.145  11.483
58106W        W17642  20.244  33.578   1.437
58107W        W17643  28.956  40.010   0.728
58108W        W17644  24.114  16.738   2.341
58109W        W17645   2.391  22.021   1.403
58110W        W17646  25.170  34.369  12.950
58111W        W17647  30.610  40.515  13.408
58112W        W17648  30.639  28.042  13.361
58113W        W17649   7.689   9.810  10.596
58114W        W17650  43.320  22.740   4.168
58115W        W17651  17.098  39.397  12.456
58116W        W17652   3.914  32.459   2.803
58117W        W17653  43.980  28.628   0.840
58118W        W17654  24.718  44.824  14.877
58119W        W17655  14.605  10.308  10.940
58120W        W17656  10.143  23.223   0.849
58121W        W17657   3.449  34.428   4.181
58122W        W17658  11.746   3.449   4.168
58123W        W17659  15.704  35.010   3.252
58124W        W17660  24.654  17.754  14.977
58125W        W17661   9.339   8.774  12.056
58126W        W17662  10.258   5.713  12.420
58127W        W17663  26.574  15.660   5.134
58128W        W17664  36.477  10.195  10.137
58129W        W17665  38.844  23.241  14.991
58130W        W17666  27.062  35.016  13.902
58131W        W17667   5.304  40.905   2.687
58132W        W17668  40.836  13.756   1.922
58133W        W17669  24.663  31.470  12.422
58134W        W17670  18.757  19.740   0.752
58135W        W17671  30.050  33.027  13.338
58136W        W17672  14.778   1.786   2.674
58137W        W17673  14.709  34.543   0.453
58138W        W17674   2.341   6.707  11.588
58139W        W17675  22.520  34.027  12.471
58140W        W17676  38.469  29.599  11.535
58141W        W17677  15.748  38.555   3.176
58142W        W17678   7.820   6.244   0.870
58143W        W17679  40.896  23.025   4.828
58144W        W17680   2.873  36.980  12.867
58145W        W17681  23.024  42.010   3.316
58146W        W17682  17.629  36.578   0.821
58147W        W17683   4.732  21.745   3.643
58148W        W17684  17.730  26.105  13.810
58149W        W17685  25.640  33.459  10.539
58150W        W17686  39.970   5.698   0.949
58151W        W17687   2.787  12.156  12.915
58152W        W17688  23.647  19.223   2.692
58153W        W17689  17.192   9.286  14.989
58154W        W17690  15.184  25.682   1.288
58155W        W17691  31.415   7.860   0.271
58156W        W17692  28.602  10.723   3.834
58157W        W17693   8.363  16.086   0.760
58158W        W17694   3.279   7.755   0.262
58159W        W17695  19.160   1.850   0.310
58160W        W17696  38.878  19.559  13.509
58161W        W17697  11.650  43.342   0.413
58162W        W17698  30.147  21.148  13.411
58163W        W17699  31.024  40.925   0.840
58164W        W17700  16.693  32.489   2.248
58165W        W17701  15.237  13.316   4.776
58166W        W17702  13.635  30.569   2.856
58167W        W17703   5.199  30.027   0.757
58168W        W17704  43.962  43.838  12.398
58169W        W17705  42.928  31.078   5.316
58170W        W17706  15.691  17.065   5.246
58171W        W17707  31.141  13.205   0.887
58172W        W17708   0.488  23.226   2.332
58173W        W17709  40.923  22.237   3.867
58174W        W17710   2.271  12.769  10.581
58175W        W17711  40.316  37.552  11.043
58176W        W17712  15.154  17.237   3.163
58177W        W17713  24.980   1.383  13.018
58178W        W17714  44.791  13.295   1.703
58179W        W17715  43.992  31.425   4.691
58180W        W17716  18.168  41.399   3.708
58181W        W17717  34.098  36.969   2.726
58182W        W17718  29.990   4.362   4.196
58183W        W17719  19.249  38.890  14.446
58184W        W17720   5.229  27.948   4.649
58185W        W17721  27.127  40.818  13.973
58186W        W17722  19.644  40.848   0.462
58187W        W17723  44.497   6.201  13.912
58188W        W17724   1.438  27.482   1.767
58189W        W17725  23.238  33.531  13.954
58190W        W17726  17.617  34.944  13.921
58191W        W17727  24.190  42.306  10.458
58192W        W17728   3.240   9.203   1.790
58193W        W17729  42.820   4.421  10.590
58194W        W17730  44.333  17.649   2.389
58195W        W17731  10.710  25.204   3.756
58196W        W17732  33.613  31.948   0.358
58197W        W17733  41.431  39.425   4.145
58198W        W17734   4.314  32.602   2.889
58199W        W17735  20.620  19.598  13.052
58200W        W17736  37.974  30.628   3.159
58201W        W17737  28.129  20.160  11.014
58202W        W17738  37.015  13.831  12.403
58203W        W17739  34.967  10.846   3.776
58204W        W17740  35.585  18.207   1.819
58205W        W17741  35.441  17.724  14.011
58206W        W17742  29.144  12.815   4.612
58207W        W17743  15.720   9.720   1.809
58208W        W17744  39.523  42.515   0.920
58209W        W17745   8.771  34.069   0.735
58210W        W17746   2.406  13.788   2.274
58211W        W17747  21.717   7.225   2.895
58212W        W17748  13.250   3.312   3.148
58213W        W17749  13.609  17.072  10.466
58214W        W17750  25.136  11.743   0.341
58215W        W17751  33.999  18.294   2.877
58216W        W17752  34.121  18.759  14.025
58217W        W17753  44.772  43.970  13.991
58218W        W17754  19.752   3.321  13.986
58219W        W17755   7.191  10.875  10.931
58220W        W17756   1.370  23.519   3.749
58221W        W17757   5.885  37.030  13.919
58222W        W17758  14.335  36.932  13.045
58223W        W17759  26.661  23.106  13.319
58224W        W17760  37.472  40.406   3.736
58225W        W17761  33.563   4.433  10.561
58226W        W17762  11.782  15.637  13.821
58227W        W17763  23.209   1.918   0.947
58228W        W17764  27.018  31.907   2.412
58229W        W17765   7.416  14.803   0.925
58230W        W17766   1.802  35.103   0.315
58231W        W17767  41.409  27.113  12.015
58232W        W17768  25.648  43.922   2.215
58233W        W17769  20.565  42.902  10.469
58234W        W17770  11.242   7.876  13.873
58235W        W17771  37.444  15.289  11.036
58236W        W17772  43.468   1.323   1.213
58237W        W17773   3.448  21.673  13.053
58238W        W17774   0.397  26.493   2.263
58239W        W17775  26.638  13.329  14.770
58240W        W17776   9.310   8.698  10.978
58241W        W17777  11.672  15.305  12.544
58242W        W17778  20.102  41.469   1.269
58243W        W17779  43.836  31.564  14.465
58244W        W17780   7.333  26.052  13.974
58245W        W17781  38.507  32.595   3.695
58246W        W17782  15.168  32.553   3.635
58247W        W17783  31.556  44.327   1.243
58248W        W17784  14.644  17.137  14.999
58249W        W17785  25.965   6.772   2.247
58250W        W17786  20.725  35.953   9.986
58251W        W17787  13.642   2.243   4.770
58252W        W17788  15.747  32.508   4.775
58253W        W17789   3.853  24.541   1.703
58254W        W17790  43.466   2.855   1.819
58255W        W17791  30.446  37.427  12.383
58256W        W17792  44.474  42.860   1.894
58257W        W17793  18.766  35.932   3.315
58258W        W17794  33.918  35.969   3.783
58259W        W17795  22.615  28.468  10.501
58260W        W17796  15.606  32.111   2.299
58261W        W17797   6.850  40.824  14.001
58262W        W17798  37.015   8.379   1.858
58263W        W17799  36.969  27.475   3.824
58264W        W17800  43.986   2.745   3.322
58265W        W17801  44.487  44.410   2.222
58266W        W17802   1.872  35.860   3.836
58267W        W17803  13.813   7.359  12.344
58268W        W17804   5.846  44.477  11.871
58269W        W17805  31.593  12.275   1.428
58270W        W17806   6.807  30.572  13.307
58271W        W17807  44.288  31.450   4.168
58272W        W17808  41.495  16.233  13.385
58273W        W17809  38.882  28.500   1.825
58274W        W17810  33.952  39.375   1.435
58275W        W17811  16.177  26.506  11.512
58276W        W17812  32.088  20.055   1.807
58277W        W17813   5.854  42.967  11.473
58278W        W17814   0.358  27.010  13.997
58279W        W17815  38.832  33.904  10.533
58280W        W17816  13.309  22.545   5.203
58281W        W17817   7.375  28.187   2.345
58282W        W17818  33.034  20.191   0.919
58283W        W17819  25.134   8.705   4.723
58284W        W17820  32.070  27.086  13.340
58285W        W17821  42.292  27.960  13.909
58286W        W17822  42.942  22.682  13.941
58287W        W17823   0.343  16.226   1.291
58288W        W17824  37.527  20.192  14.851
58289W        W17825  41.031  25.658  10.640
58290W        W17826  35.418  42.856  13.429
58291W        W17827  30.557   8.754  11.460
58292W        W17828  24.119   8.324  14.004
58293W        W17829  26.515  25.167   4.337
58294W        W17830  28.477  37.830   2.765
58295W        W17831  40.873  11.808   5.319
58296W        W17832   0.431  31.454   4.717
58297W        W17833  43.416   7.394  10.501
58298W        W17834  26.572  13.243   2.305
58299W        W17835  43.391  11.637  12.439
58300W        W17836  12.332  35.544  13.061
58301W        W17837  33.452  12.736  11.538
58302W        W17838  24.143  16.732   5.186
58303W        W17839  39.005  17.078  11.499
58304W        W17840   6.317  39.029  11.075
58305W        W17841  40.320  10.152   1.379
58306W        W17842  32.406  37.577  10.630
58307W        W17843  30.620  25.985  14.356
58308W        W17844   4.840  12.717  10.480
58309W        W17845  42.318  33.504  14.809
58310W        W17846   6.368  33.012   3.179
58311W        W17847   6.392  38.337  13.536
58312W        W17848  33.558  43.446  14.783
58313W        W17849  10.687  40.959   1.366
58314W        W17850  32.479  41.455  12.938
58315W        W17851  11.776  31.546  10.973
58316W        W17852  16.799  21.592   4.826
58317W        W17853  25.109  44.334   5.152
58318W        W17854  12.153  11.227  13.829
58319W        W17855  40.321  41.022  12.016
58320W        W17856  20.141  24.124   0.726
58321W        W17857   4.237  34.939   1.399
58322W        W17858   1.297  17.172  12.580
58323W        W17859   6.378  25.028   1.392
58324W        W17860  34.076   0.478   4.837
58325W        W17861  36.489  23.012  11.401
58326W        W17862  21.198  30.932  14.864
58327W        W17863  19.554  44.778  12.861
58328W        W17864  38.421   8.852  10.569
58329W        W17865   2.467   1.482   4.684
58330W        W17866  18.276   8.885  13.061
58331W        W17867   1.754  15.684  11.009
58332W        W17868  22.121   5.236  12.942
58333W        W17869   9.296  14.319   4.328
58334W        W17870  43.003  17.761   4.696
58335W        W17871  24.716  38.933  13.975
58336W        W17872  24.711  42.941   3.355
58337W        W17873   1.302   3.456  10.976
58338W        W17874  21.668   0.427   4.668
58339W        W17875  33.034  12.330   4.132
58340W        W17876  19.575  36.994  14.348
58341W        W17877  19.071  36.459   2.319
58342W        W17878  42.303  12.355  13.385
58343W        W17879  32.002  34.025  11.459
58344W        W17880  41.305   5.787   3.366
58345W        W17881  25.099  41.835   2.747
58346W        W17882  11.853  18.103   1.847
58347W        W17883   9.325  15.174   4.233
58348W        W17884  37.553  32.060   3.180
58349W        W17885  22.083  16.236  13.062
58350W        W17886  43.489  27.538   2.218
58351W        W17887  30.553   6.719  14.411
58352W        W17888  30.516  31.624   2.824
58353W        W17889   2.459  20.763  14.770
58354W        W17890  23.177  14.129  13.396
58355W        W17891  34.885  30.584   2.741
58356W        W17892   2.322  19.637  13.823
58357W        W17893  43.886  42.027  13.493
58358W        W17894  18.786  16.258  14.873
58359W        W17895   9.221  25.560  10.160
58360W        W17896   7.183  36.420  14.973
58361W        W17897  24.550  10.700  13.334
58362W        W17898  40.336  31.604  10.448
58363W        W17899   3.944   2.443   4.729
58364W        W17900  32.447  25.217  13.867
58365W        W17901  21.755  18.064   4.824
58366W        W17902  33.476   5.337  13.464
58367W        W17903  41.936  41.808  13.876
58368W        W17904  43.335  10.686   4.637
58369W        W17905  14.271  21.560  14.320
58370W        W17906  17.276  29.444   2.341
58371W        W17907  12.231  23.030   0.824
58372W        W17908   9.164   8.358  12.972
58373W        W17909  20.612  32.912  13.495
58374W        W17910  26.061  42.864  12.558
58375W        W17911   0.258  25.174  14.838
58376W        W17912  43.321  43.903  13.329
58377W        W17913  19.174  17.177  10.618
58378W        W17914   1.316  12.628   2.408
58379W        W17915  32.889  43.817   2.272
58380W        W17916  40.317  10.157   4.755
58381W        W17917   9.744   8.379   3.221
58382W        W17918   2.783  44.387   2.857
58383W        W17919  28.129  32.503   4.721
58384W        W17920  39.400  25.188   1.882
58385W        W17921  28.524  36.521  12.090
58386W        W17922  42.998  36.921  14.350
58387W        W17923  26.000  16.626   2.340
58388W        W17924  10.277  36.532   3.659
58389W        W17925   5.892   2.783   0.802
58390W        W17926  32.468  33.037   4.822
58391W        W17927  13.140  33.087  13.800
58392W        W17928   6.829   7.731   3.699
58393W        W17929   1.762  14.153   4.670
58394W        W17930  13.174  38.876   3.744
58395W        W17931  37.050   0.859   4.672
58396W        W17932  28.584   6.748   3.302
58397W        W17933  23.234   2.324  10.625
58398W        W17934   3.260   0.778   2.276
58399W        W17935  10.795   1.866  13.988
58400W        W17936   7.254  14.275   5.162
58401W        W17937  40.043  24.043  13.850
58402W        W17938  36.948  43.016  12.360
58403W        W17939  14.734  15.711   0.440
58404W        W17940  40.326  21.168   1.705
58405W        W17941  34.407   4.273   9.956
58406W        W17942   8.262  25.028   3.326
58407W        W17943  25.696  37.983   0.952
58408W        W17944  10.814  20.533   1.320
58409W        W17945  41.814  10.689   4.716
58410W        W17946  11.248  43.898  11.118
58411W        W17947  34.917   5.715  12.483
58412W        W17948  25.579  26.635   1.278
58413W        W17949   5.198  32.519   2.872
58414W        W17950   3.719  20.583   4.271
58415W        W17951  25.997  30.101  14.967
58416W        W17952  44.498  14.683  11.438
58417W        W17953  28.973  43.820  13.386
58418W        W17954  24.990  43.309   2.866
58419W        W17955  19.718   5.220  10.985
58420W        W17956   4.795  41.869  10.914
58421W        W17957  42.380  31.119  11.569
58422W        W17958   3.418  30.469  10.927
58423W        W17959  22.709  41.896   4.283
58424W        W17960  32.885  23.555   0.884
58425W        W17961  18.105  35.520   0.348
58426W        W17962  27.589  43.859  14.471
58427W        W17963  43.494  19.648   2.758
58428W        W17964  10.782  44.385   2.400
58429W        W17965  21.035  30.116  12.951
58430W        W17966  15.714  43.361   2.223
58431W        W17967  33.616  19.113  10.121
58432W        W17968  40.350   3.433   0.249
58433W        W17969  42.517  43.284  10.893
58434W        W17970  40.371  30.468   5.087
58435W        W17971  43.811  33.437   3.237
58436W        W17972  13.259  14.734   3.773
58437W        W17973  20.186   5.352  11.892
58438W        W17974  39.960   8.197   2.189
58439W        W17975   6.390  17.303   4.168
58440W        W17976  20.102  11.861   1.388
58441W        W17977   9.746  29.060  12.878
58442W        W17978   9.843  11.286   0.743
58443W        W17979  31.104  14.278  12.045
58444W        W17980  20.061  43.293   1.795
58445W        W17981  37.455   6.728  11.552
58446W        W17982  27.143  33.906  10.425
58447W        W17983  19.052   9.218  12.980
58448W        W17984  41.503  34.869  13.442
58449W        W17985   0.260   8.270  11.579
58450W        W17986  40.357  37.976  10.969
58451W        W17987   1.446  23.137   2.238
58452W        W17988   6.326  13.314  13.040
58453W        W17989  40.416  15.786  13.794
58454W        W17990  25.653  31.430  12.047
58455W        W17991  25.160  35.465  11.392
58456W        W17992  36.913   7.288  14.776
58457W        W17993  18.280  31.090   4.317
58458W        W17994  22.623  37.941  14.949
58459W        W17995   0.402  40.969  11.575
58460W        W17996  29.476  30.514  12.446
58461W        W17997  31.018  20.735   2.301
58462W        W17998  24.520   4.206   0.805
58463W        W17999   6.864  31.993   0.339
58464W        W18000  32.939  38.479  11.494
58465W        W18001  40.810  17.707  14.320
58466W        W18002  30.421   4.872  12.497
58467W        W18003  21.026  31.921  13.343
58468W        W18004  27.147  34.001   1.931
58469W        W18005   0.493  28.540  13.410
58470W        W18006  11.189  41.418  10.971
58471W        W18007  16.102  31.507  10.601
58472W        W18008  17.119  25.177   2.666
58473W        W18009   5.731  18.086   1.420
58474W        W18010  35.031  28.042  12.387
58475W        W18011  28.576  27.123   1.781
58476W        W18012  19.640  23.730   4.278
58477W        W18013  36.945   0.315  14.003
58478W        W18014  42.845   1.914   1.716
58479W        W18015  23.590  13.263  14.506
58480W        W18016  20.073  22.668   3.335
58481W        W18017  39.842  24.622   4.242
58482W        W18018  37.916  31.524   1.847
58483W        W18019  19.617  14.601  12.922
58484W        W18020  23.590  36.531   0.755
58485W        W18021  16.276  17.747   1.747
58486W        W18022  17.139   6.897   4.217
58487W        W18023  34.905  27.970   4.705
58488W        W18024   5.380  25.181  11.571
58489W        W18025  35.035  17.791   3.239
58490W        W18026  18.751  35.043  12.832
58491W        W18027  21.591   8.376   5.197
58492W        W18028  29.159  22.603   3.290
58493W        W18029  31.518  29.068   1.764
58494W        W18030  42.308  27.533   0.861
58495W        W18031  13.213  15.309  10.439
58496W        W18032  17.141  20.255   0.777
58497W        W18033   6.801  13.232  10.522
58498W        W18034  31.501   3.730   4.301
58499W        W18035  32.990  21.260   2.665
58500W        W18036  20.161  38.968  13.846
58501W        W18037  19.568  40.323  10.423
58502W        W18038  18.118  10.271  11.601
58503W        W18039   0.941   1.367   4.255
58504W        W18040  22.523  23.496  10.413
58505W        W18041  35.946  25.492   1.417
58506W        W18042  35.978  31.625   2.848
58507W        W18043  19.615  28.166   3.685
58508W        W18044  23.102  16.750  14.417
58509W        W18045   4.213  24.489  12.834
58510W        W18046  33.073  32.082   0.833
58511W        W18047  22.241  27.978  11.553
58512W        W18048   8.401  28.590  13.429
58513W        W18049  13.118  29.458   5.172
58514W        W18050  24.688  33.531   3.642
58515W        W18051  12.362  42.408   2.251
58516W        W18052  38.832  28.049   5.255
58517W        W18053  22.507  24.200   3.359
58518W        W18054  40.001   2.797   4.611
58519W        W18055  12.819  13.629  13.414
58520W        W18056  37.913  39.875   0.286
58521W        W18057  22.130  15.762   4.743
58522W        W18058  16.212  38.994  14.412
58523W        W18059  34.451   8.669  13.860
58524W        W18060  26.695  28.602   4.145
58525W        W18061  36.938  41.018  10.513
58526W        W18062   1.743  32.636   1.422
58527W        W18063  31.078  22.640  11.523
58528W        W18064  31.085   3.876   0.789
58529W        W18065  11.695  41.019   4.209
58530W        W18066   0.364  19.188   4.702
58531W        W18067  12.720   5.269   0.297
58532W        W18068   8.845   7.217   4.336
58533W        W18069  20.168  41.860  11.609
58534W        W18070  12.295  44.279   4.217
58535W        W18071   1.847  41.537  12.938
58536W        W18072  18.741  14.819  14.343
58537W        W18073   9.846  16.781   1.215
58538W        W18074  36.073   8.403   1.350
58539W        W18075  13.814   8.313  12.412
58540W        W18076  11.853  22.546  10.640
58541W        W18077  29.112  26.088   4.305
58542W        W18078  44.451   8.815   3.721
58543W        W18079  23.562  27.674   3.383
58544W        W18080   6.899  26.507  14.787
58545W        W18081  26.546   4.379  11.436
58546W        W18082  10.345  44.884  11.904
58547W        W18083  17.061  12.831  14.313
58548W        W18084  41.446  30.077  11.019
58549W        W18085   0.768  29.529   1.422
58550W        W18086  35.945  32.531   3.755
58551W        W18087  29.952  29.015  13.541
58552W        W18088   4.879  42.396   1.383
58553W        W18089   0.966  31.023  10.644
58554W        W18090  35.042  23.527  10.602
58555W        W18091  32.130  34.508   0.464
58556W        W18092  22.184  40.404   1.728
58557W        W18093  42.896  33.581  12.496
58558W        W18094  15.688  26.086  10.508
58559W        W18095   8.287   2.397  13.543
58560W        W18096  23.607  18.151  13.405
58561W        W18097  16.310  26.089   4.195
58562W        W18098  36.588   1.837   0.932
58563W        W18099   4.348  41.329   1.344
58564W        W18100   8.689  38.960   2.312
58565W        W18101  21.111  33.393   3.157
58566W        W18102  38.329   9.258   1.391
58567W        W18103   9.392   8.262  14.407
58568W        W18104  44.897  21.229   1.224
58569W        W18105  43.473  41.457   3.146
58570W        W18106  15.759   0.377  12.858
58571W        W18107  40.496  29.653  11.441
58572W        W18108  10.722  12.266   0.414
58573W        W18109   9.177  20.126  10.496
58574W        W18110  12.217  29.519  13.919
58575W        W18111  44.385  33.121   3.205
58576W        W18112   8.722   7.221   1.874
58577W        W18113  43.365  30.034  14.936
58578W        W18114  14.170  35.438  10.581
58579W        W18115  33.969  35.855  13.944
58580W        W18116  29.161   7.369  13.509
58581W        W18117  33.884   0.781   0.482
58582W        W18118  18.103  35.492  14.451
58583W        W18119  34.038  24.067   0.755
58584W        W18120  44.765  17.605   4.772
58585W        W18121  13.649  16.760  11.049
58586W        W18122  33.008  40.041   2.419
58587W        W18123  12.856  38.887   0.252
58588W        W18124   1.783  35.084  14.006
58589W        W18125  28.462  40.982  14.453
58590W        W18126   2.819  25.987  12.514
58591W        W18127  41.989  41.481   4.264
58592W        W18128  18.063  17.756  13.449
58593W        W18129  37.958   8.714   1.814
58594W        W18130  35.976  13.104  11.016
58595W        W18131  27.536  40.051   1.287
58596W        W18132  21.582  43.955   1.819
58597W        W18133  34.423   7.853   2.365
58598W        W18134  40.504   5.733  14.499
58599W        W18135  39.988   3.814   5.772
58600W        W18136  21.686  37.373   1.274
58601W        W18137  17.571  19.105   5.603
58602W        W18138   2.746  28.100  10.577
58603W        W18139  19.604   6.249  13.487
58604W        W18140  16.095  29.564   2.711
58605W        W18141  31.645  39.318  13.545
58606W        W18142   9.318  44.359  10.897
58607W        W18143  13.710  35.924  14.894
58608W        W18144  19.557  39.557  12.394
58609W        W18145  19.127  32.473  10.631
58610W        W18146  30.120  42.895  11.018
58611W        W18147  34.909  33.444  13.438
58612W        W18148   1.959   9.785  12.000
58613W        W18149  28.089  21.050  11.981
58614W        W18150  19.725  32.092   5.146
58615W        W18151   3.392  28.986  14.465
58616W        W18152  24.220  17.117   4.651
58617W        W18153  43.994  15.283   3.857
58618W        W18154   6.408  37.536  14.440
58619W        W18155  32.962  20.128  13.027
58620W        W18156  37.504  33.988  14.022
58621W        W18157   8.344  37.448   4.261
58622W        W18158  32.004  37.509   3.639
58623W        W18159  44.366  31.623  11.470
58624W        W18160  19.231  37.451   2.326
58625W        W18161   8.281  44.815   4.652
58626W        W18162  42.322  30.465   3.816
58627W        W18163  37.001  43.312  11.047
58628W        W18164  36.072  22.520   5.275
58629W        W18165  11.230  37.353   0.430
58630W        W18166  16.123  37.915   4.348
58631W        W18167  26.602  27.457  14.482
58632W        W18168  28.061  23.053   3.285
58633W        W18169  21.080  30.086   3.809
58634W        W18170  30.122  13.345  11.891
58635W        W18171   8.227  31.103  10.531
58636W        W18172  12.261  22.543  10.537
58637W        W18173   4.252  44.788  12.479
58638W        W18174   8.339   7.304  14.966
58639W        W18175  23.221  24.554  12.958
58640W        W18176   7.407  33.602  14.355
58641W        W18177  39.986  25.533   4.771
58642W        W18178   1.852  10.735   2.201
58643W        W18179  43.989  23.622  10.420
58644W        W18180  37.891  32.551   1.384
58645W        W18181  36.492   2.878  11.104
58646W        W18182   6.882  33.405  13.038
58647W        W18183   4.929   2.856  11.487
58648W        W18184  18.706  33.925  12.533
58649W        W18185  34.974  27.689   3.345
58650W        W18186  28.111  17.652   5.150
58651W        W18187   4.383   8.359   3.769
58652W        W18188  23.025  22.632  13.513
58653W        W18189  40.005  34.902  12.397
58654W        W18190   0.806  13.827   0.917
58655W        W18191  21.572  34.896   1.812
58656W        W18192  27.649  10.825  11.598
58657W        W18193   1.911  10.642  13.964
58658W        W18194  26.961  23.194  12.897
58659W        W18195   2.365  13.342  10.528
58660W        W18196   0.304   6.247  14.292
58661W        W18197   1.264  11.263   2.777
58662W        W18198  30.508  24.007  13.907
58663W        W18199  30.592  22.709  14.805
58664W        W18200  12.137  15.292   1.303
58665W        W18201  20.637  10.378  14.502
58666W        W18202  36.489  24.184   1.916
58667W        W18203   8.813  15.255  11.537
58668W        W18204  33.907  26.467  14.982
58669W        W18205  10.156   4.385   4.170
58670W        W18206  36.021  23.202  11.008
58671W        W18207  19.064  16.712  13.953
58672W        W18208   6.230  25.127   2.390
58673W        W18209   1.829  20.117  13.872
58674W        W18210  42.987  24.155  13.412
58675W        W18211  28.669  44.995   1.354
58676W        W18212  26.133  43.997   3.255
58677W        W18213   4.875  31.034   3.671
58678W        W18214  36.975  18.726   1.329
58679W        W18215  17.273  13.275  12.407
58680W        W18216  16.603  27.681  11.456
58681W        W18217  13.777  13.125   0.387
58682W        W18218  21.027  43.843  12.900
58683W        W18219   5.317   2.944   4.759
58684W        W18220  37.501  42.806  12.576
58685W        W18221  10.685  41.395   4.314
58686W        W18222  14.806  30.414  13.465
58687W        W18223  30.085  35.888   3.309
58688W        W18224  16.163   8.229   4.719
58689W        W18225   4.278   4.709   2.738
58690W        W18226   7.722  32.533   1.738
58691W        W18227   5.216  13.215   1.326
58692W        W18228  14.729   2.778  12.440
58693W        W18229  38.914  29.946  14.814
58694W        W18230  41.961  31.427   0.445
58695W        W18231   2.306  10.815   9.923
58696W        W18232  30.129  15.268   3.366
58697W        W18233  28.494  23.696  14.861
58698W        W18234  20.570  31.421   0.855
58699W        W18235   7.839  14.190  11.606
58700W        W18236  43.805  33.522  13.511
58701W        W18237   1.355  12.670   3.778
58702W        W18238  25.553  21.535  14.431
58703W        W18239  35.381  18.092   4.264
58704W        W18240  32.560  24.689   5.788
58705W        W18241  44.417  28.513  12.580
58706W        W18242  13.732  40.937  14.882
58707W        W18243  33.922   7.315  14.004
58708W        W18244   3.775  28.049  11.394
58709W        W18245  24.131   4.256  13.040
58710W        W18246  32.086   5.739  13.956
58711W        W18247  24.034   9.693  14.389
58712W        W18248  35.483  41.789  10.999
58713W        W18249  42.342  35.016   3.838
58714W        W18250   2.897  22.097  13.063
58715W        W18251   7.874  24.192   0.332
58716W        W18252  27.066  41.010  14.894
58717W        W18253  26.551   9.803  12.491
58718W        W18254  12.216  40.957  12.846
58719W        W18255  42.377  44.848   4.821
58720W        W18256  38.930  19.273  12.013
58721W        W18257   9.226  13.314  11.946
58722W        W18258  33.950  44.902  14.930
58723W        W18259  26.161  43.344   3.184
58724W        W18260   8.197  14.767   1.214
58725W        W18261  41.357  16.148   4.618
58726W        W18262  32.981  13.182  12.064
58727W        W18263  20.261  21.239   4.742
58728W        W18264   6.765   6.233  11.408
58729W        W18265   4.352   9.183  13.513
58730W        W18266  21.259  32.469   2.768
58731W        W18267  44.449   4.376   0.283
58732W        W18268  36.497  15.271  10.504
58733W        W18269  31.925   5.358   3.254
58734W        W18270  21.041  12.696   1.728
58735W        W18271  41.025  35.862  11.128
58736W        W18272  38.330   7.708   4.789
58737W        W18273  41.849   5.902   4.275
58738W        W18274  20.720  32.909  13.988
58739W        W18275  33.905  20.759  14.928
58740W        W18276  32.510   0.963   2.728
58741W        W18277  38.494  15.780  14.468
58742W        W18278  21.630  44.870  12.439
58743W        W18279  36.380  12.668   3.273
58744W        W18280  37.885  28.442   0.265
58745W        W18281  42.003   2.811  12.826
58746W        W18282  10.752  39.342  10.976
58747W        W18283  21.588  35.453   5.646
58748W        W18284  27.578   6.401   4.244
58749W        W18285  29.496  35.440  10.552
58750W        W18286  30.044  14.655   2.184
58751W        W18287  11.300   9.786   1.706
58752W        W18288  36.407   8.188  13.462
58753W        W18289  44.976   7.373   2.675
58754W        W18290  30.465   0.386   0.802
58755W        W18291  18.692  26.646  13.061
58756W        W18292  40.519  31.961  12.945
58757W        W18293  18.238  33.565   2.761
58758W        W18294  23.579  44.455  13.028
58759W        W18295  24.650  14.816   1.726
58760W        W18296   8.185   2.931  10.575
58761W        W18297  20.670  36.927   4.214
58762W        W18298  37.991  12.614   0.451
58763W        W18299   7.358   7.222  13.967
58764W        W18300   3.718  26.481   0.387
58765W        W18301  37.846   5.884  12.867
58766W        W18302  34.503  11.227  11.546
58767W        W18303  18.278  23.019  12.881
58768W        W18304  31.531  11.797  11.489
58769W        W18305  16.637  29.999   1.381
58770W        W18306  12.723  23.505   2.409
58771W        W18307  12.670  28.982   2.266
58772W        W18308  11.743  33.504  12.549
58773W        W18309  40.873   4.252  11.460
58774W        W18310  13.682  22.725  12.558
58775W        W18311   0.873  13.842  12.501
58776W        W18312   5.289  18.129   0.321
58777W        W18313  10.374  40.820   4.184
58778W        W18314  24.680  25.692  14.953
58779W        W18315  25.121  32.456  11.386
58780W        W18316  26.641  13.688  11.042
58781W        W18317  18.655  44.758  10.443
58782W        W18318  27.674   2.446   0.798
58783W        W18319  37.376  39.525  10.450
58784W        W18320  13.333  19.153  12.870
58785W        W18321  12.819  23.556  14.300
58786W        W18322   0.414  26.951  12.905
58787W        W18323  19.216  20.586   9.994
58788W        W18324  29.948  10.196   0.305
58789W        W18325  20.674  22.147   0.959
58790W        W18326  40.042  15.224  11.558
58791W        W18327   4.347   0.444  13.954
58792W        W18328  32.453   9.885   4.704
58793W        W18329  16.726   6.758  12.451
58794W        W18330  41.455   8.345   0.335
58795W        W18331  25.215  30.944  11.110
58796W        W18332  42.872  31.933   1.708
58797W        W18333  23.550  34.447   3.647
58798W        W18334  30.077  16.663  13.390
58799W        W18335  23.105  26.029   2.247
58800W        W18336  26.477  11.640   0.285
58801W        W18337  42.448  41.811  10.430
58802W        W18338  27.547  37.892   1.277
58803W        W18339  33.499  13.214  12.011
58804W        W18340  22.200   8.380   0.357
58805W        W18341  28.598  42.400   0.934
58806W        W18342   6.738  39.988  14.473
58807W        W18343   3.245   9.192   3.323
58808W        W18344  11.152  14.793  12.993
58809W        W18345  26.460  41.864  10.933
58810W        W18346   4.730  37.453   0.287
58811W        W18347  34.889   8.738   3.729
58812W        W18348  10.714  15.298   1.929
58813W        W18349  26.484  21.679   1.321
58814W        W18350  37.474  39.952  12.096
58815W        W18351  22.518  31.590  11.054
58816W        W18352  17.586   0.834  14.824
58817W        W18353  16.267  37.979  13.530
58818W        W18354   0.421  43.472   0.296
58819W        W18355  32.521   9.744  10.542
58820W        W18356  29.650  17.693  12.032
58821W        W18357  10.865   9.331   1.890
58822W        W18358  35.073  41.518  11.937
58823W        W18359   4.824  42.892   2.829
58824W        W18360  28.088  25.056  10.488
58825W        W18361  25.206  23.226   2.725
58826W        W18362  38.401  31.140  13.492
58827W        W18363  31.106  21.516   2.317
58828W        W18364  19.232  27.561  10.590
58829W        W18365  22.737   1.446   1.921
58830W        W18366   5.782  15.154   3.687
58831W        W18367  25.705  23.085  13.977
58832W        W18368  42.972  10.849   0.260
58833W        W18369  28.182  41.393   1.766
58834W        W18370  16.254  12.795   0.320
58835W        W18371   5.823  33.993   0.735
58836W        W18372   9.761   7.685  14.347
58837W        W18373  19.079   3.409   3.365
58838W        W18374   1.354  41.895   4.797
58839W        W18375  21.035   1.937  10.986
58840W        W18376  44.370  20.548   0.320
58841W        W18377  14.264  19.593   3.668
58842W        W18378  34.875  40.536   9.998
58843W        W18379  26.465  15.241  13.055
58844W        W18380  30.588  18.576  13.056
58845W        W18381  27.537   6.735  14.815
58846W        W18382   0.786   7.356   4.354
58847W        W18383  21.121  14.161  11.909
58848W        W18384  17.144  39.964  14.410
58849W        W18385  14.634  26.572   3.289
58850W        W18386   5.414  16.622   2.334
58851W        W18387  43.333  15.660   2.372
58852W        W18388  38.571  38.466   0.381
58853W        W18389  33.007  28.093  14.429
58854W        W18390  38.512  43.936  14.351
58855W        W18391   1.761  12.127  13.329
58856W        W18392  14.681  14.227   3.224
58857W        W18393   9.294  19.178  14.448
58858W        W18394  15.722  13.280   3.212
58859W        W18395  42.893  26.966  13.909
58860W        W18396  13.113  16.744   2.850
58861W        W18397  38.559  40.547   3.741
58862W        W18398   3.404  13.778   2.382
58863W        W18399  33.109  20.544  11.584
58864W        W18400  32.601  13.708  10.900
58865W        W18401   0.485   0.945   4.252
58866W        W18402  24.210  10.665  14.445
58867W        W18403  37.473   3.298  12.467
58868W        W18404  37.836  18.666  14.338
58869W        W18405   9.691  22.579   3.769
58870W        W18406  34.465   5.752  11.959
58871W        W18407   6.846   4.253   0.918
58872W        W18408  24.672  21.512   3.261
58873W        W18409  42.402  11.281   0.768
58874W        W18410   9.696  33.950  14.897
58875W        W18411  38.386   9.809  13.339
58876W        W18412  36.469   9.654  12.049
58877W        W18413  38.475  25.499   2.684
58878W        W18414   8.686  40.874  13.513
58879W        W18415  34.595  11.182  13.862
58880W        W18416   2.900  15.296  10.433
58881W        W18417  29.607  28.068   0.801
58882W        W18418  17.077  10.169   3.775
58883W        W18419  14.304  37.567   2.267
58884W        W18420  25.962  37.534  12.546
58885W        W18421  25.102  39.062   1.894
58886W        W18422  16.248  21.561  12.478
58887W        W18423  34.993  43.852  12.509
58888W        W18424  20.135  23.600   1.389
58889W        W18425  42.985  36.373  14.806
58890W        W18426  40.446  28.037   3.181
58891W        W18427   1.901  21.750   4.717
58892W        W18428   4.720  31.402   2.690
58893W        W18429   3.247  30.461   1.441
58894W        W18430  33.560   5.822  11.538
58895W        W18431   9.158  37.540  11.593
58896W        W18432  26.131  33.566   3.195
58897W        W18433   4.437   1.772   1.861
58898W        W18434  41.497   1.451   3.178
58899W        W18435  40.901  37.839   3.163
58900W        W18436  26.120  20.750   3.235
58901W        W18437  24.974   6.222   3.726
58902W        W18438  17.753  11.374  11.475
58903W        W18439  11.800  31.405  11.440
58904W        W18440  29.461  19.261  13.960
58905W        W18441  44.354   0.978  12.061
58906W        W18442  15.703  32.431   4.231
58907W        W18443  10.383   7.682  12.831
58908W        W18444  31.135  10.373  12.976
58909W        W18445  15.653  19.194  13.037
58910W        W18446  20.620  10.859  11.999
58911W        W18447  40.821  14.303  11.586
58912W        W18448  31.503  38.875   0.828
58913W        W18449   4.426   1.401  13.370
58914W        W18450  27.009  21.565  14.945
58915W        W18451   2.838  17.214   0.866
58916W        W18452  29.529  31.897   1.727
58917W        W18453  31.549  21.648  14.881
58918W        W18454  43.481  21.529  14.490
58919W        W18455   5.841  26.971   2.401
58920W        W18456  27.025   1.795   2.781
58921W        W18457  19.749  13.265   0.916
58922W        W18458  23.190  43.327   0.751
58923W        W18459  11.181   6.706   1.727
58924W        W18460  40.917  33.933  11.862
58925W        W18461  30.975  36.540  12.356
58926W        W18462  19.050  30.495  11.482
58927W        W18463  31.924  15.141   4.806
58928W        W18464  38.353   4.263   0.369
58929W        W18465  31.506  12.223   2.350
58930W        W18466  40.517  43.434  10.575
58931W        W18467  27.005  44.010  14.883
58932W        W18468  18.625  16.659  10.933
58933W        W18469  27.940   8.282   5.085
58934W        W18470  18.569   4.246   2.765
58935W        W18471  35.873  29.926   1.909
58936W        W18472  11.184  37.383   3.331
58937W        W18473  23.712   9.149   4.694
58938W        W18474  24.654   5.260  13.498
58939W        W18475   7.784   0.875  14.761
58940W        W18476   5.402   4.429  12.045
58941W        W18477  30.438  17.709  13.872
58942W        W18478  14.133   2.776   1.301
58943W        W18479  31.606  43.824  11.534
58944W        W18480  35.960  39.435   3.369
58945W        W18481  11.239  40.881  14.971
58946W        W18482  34.076  11.360   0.364
58947W        W18483  27.148  23.658  11.389
58948W        W18484   8.822  22.510  13.435
58949W        W18485  31.535   3.864   0.760
58950W        W18486  21.524  10.720   2.325
58951W        W18487  33.427  32.066   2.697
58952W        W18488  21.160  37.025  12.560
58953W        W18489  17.138  42.428   3.329
58954W        W18490   6.244  31.042   0.965
58955W        W18491  10.183   3.857  12.526
58956W        W18492   1.886  13.710   1.248
58957W        W18493  10.177  24.632  13.043
58958W        W18494  15.633   7.278   2.259
58959W        W18495  13.713   9.790   0.422
58960W        W18496  36.971  40.946   3.694
58961W        W18497  25.637   8.213   4.651
58962W        W18498   9.208   4.814  14.799
58963W        W18499  35.038  34.069  13.535
58964W        W18500   1.781  26.130   1.439
58965W        W18501  38.571  31.420  13.952
58966W        W18502  39.857  17.236   3.315
58967W        W18503  38.423   5.433   0.813
58968W        W18504   4.832  10.185  11.085
58969W        W18505  42.305  23.043   2.181
58970W        W18506  12.662  11.275   2.256
58971W        W18507  21.229   3.730  10.130
58972W        W18508  40.896  19.679   4.351
58973W        W18509  11.307  32.905   1.291
58974W        W18510   7.245  18.127   1.247
58975W        W18511  19.045  37.415  13.481
58976W        W18512  37.965  29.952  13.947
58977W        W18513   0.964   7.260   2.693
58978W        W18514  36.379   8.768   5.195
58979W        W18515  40.519   0.874   2.664
58980W        W18516  17.632  27.950  12.549
58981W        W18517  31.141  13.750   0.759
58982W        W18518  27.063  14.246  14.359
58983W        W18519  36.879  16.079   2.269
58984W        W18520  33.025  32.913  10.905
58985W        W18521  25.701  29.595  10.940
58986W        W18522  18.703  13.736   4.329
58987W        W18523  29.595  21.133  12.567
58988W        W18524  44.800  14.238   1.337
58989W        W18525   9.715  14.136  11.904
58990W        W18526  26.632  13.149  12.422
58991W        W18527   8.668   9.681  11.859
58992W        W18528  26.006  39.893  14.343
58993W        W18529   5.702  11.851  14.872
58994W        W18530  19.694  44.814  10.992
58995W        W18531  26.695   0.842  13.025
58996W        W18532   2.280  24.995   2.788
58997W        W18533  19.575  41.942   3.794
58998W        W18534  24.607  27.962   3.756
58999W        W18535  26.486  14.132   2.738
59000W        W18536  19.699  43.804   2.864
59001W        W18537   7.297  41.981   5.140
59002W        W18538  10.292  32.916   0.787
59003W        W18539   2.271  33.888  14.986
59004W        W18540  24.013  29.577   2.876
59005W        W18541  37.060  36.939   2.267
59006W        W18542   1.937  18.196  13.418
59007W        W18543  23.001  34.592   2.349
59008W        W18544  13.239  41.292  14.298
59009W        W18545  17.164   2.402  11.518
59010W        W18546  19.614   8.215  12.871
59011W        W18547   8.208   1.302   1.749
59012W        W18548   3.883   2.348   1.701
59013W        W18549   2.471  41.383   9.973
59014W        W18550  30.528  44.983   2.369
59015W        W18551  14.738  42.373   1.779
59016W        W18552   3.226   9.174  10.455
59017W        W18553  10.174  27.170  10.931
59018W        W18554  15.160  23.225   1.343
59019W        W18555  28.494   9.888  14.316
59020W        W18556  25.653  12.199  11.566
59021W        W18557  36.853  32.504   1.348
59022W        W18558  25.604  13.289  14.961
59023W        W18559   4.835   4.941  12.344
59024W        W18560  33.017  44.914  13.961
59025W        W18561  11.742  28.583   3.148
59026W        W18562  15.236  42.026   2.227
59027W        W18563  37.948  26.986  12.504
59028W        W18564  11.130  21.177   0.279
59029W        W18565  12.670  29.433  14.457
59030W        W18566  35.363  28.107   0.884
59031W        W18567  22.549  18.099  10.605
59032W        W18568  44.459  30.553   1.895
59033W        W18569  12.760   5.767   4.146
59034W        W18570   3.807  25.125   4.135
59035W        W18571  10.154   9.878   1.443
59036W        W18572  42.371  22.563   2.183
59037W        W18573  25.707  43.336  13.404
59038W        W18574  20.131  28.651  13.441
59039W        W18575   6.890   6.881  12.893
59040W        W18576  24.645  19.662   2.825
59041W        W18577   7.230   2.929  12.048
59042W        W18578   7.224  34.524  14.008
59043W        W18579  35.425  11.794   4.636
59044W        W18580  43.870  14.240   4.713
59045W        W18581  43.427   7.389   4.624
59046W        W18582  10.773   7.748  13.006
59047W        W18583  12.305  28.036   1.716
59048W        W18584  16.688  16.567  11.873
59049W        W18585  43.007  38.877   2.187
59050W        W18586  42.032  34.566   3.677
59051W        W18587  34.901  18.123  12.844
59052W        W18588  12.116  36.002   1.411
59053W        W18589  15.211   3.247   0.387
59054W        W18590  38.411  32.121   3.673
59055W        W18591   1.788   1.918   2.765
59056W        W18592   7.214  22.211  10.990
59057W        W18593  30.048  25.109  13.014
59058W        W18594  34.055  24.018   1.857
59059W        W18595  40.516   3.907   0.430
59060W        W18596  16.724  16.165  11.478
59061W        W18597  15.290  43.971  12.981
59062W        W18598   0.923  16.773  12.001
59063W        W18599  22.086   7.411  14.404
59064W        W18600   0.852  39.516  12.031
59065W        W18601  23.729  36.494  13.943
59066W        W18602  34.893   0.317   4.122
59067W        W18603  27.989   9.745  14.817
59068W        W18604  10.755  11.196   4.686
59069W        W18605   0.452  42.844   1.761
59070W        W18606  27.482  20.710   4.136
59071W        W18607   9.677  44.787  12.942
59072W        W18608  25.146   3.299   3.297
59073W        W18609  10.668   5.275  13.054
59074W        W18610   3.894   6.918   4.625
59075W        W18611   6.381   8.732  10.610
59076W        W18612  10.285  19.697   3.211
59077W        W18613   3.952  34.030   1.407
59078W        W18614  14.822  36.867   4.246
59079W        W18615   3.236  26.522  13.796
59080W        W18616  16.271  27.683   2.270
59081W        W18617  22.503  43.390   1.377
59082W        W18618  12.808  12.178   1.740
59083W        W18619  21.212  30.518  11.608
59084W        W18620   4.375  25.113   1.700
59085W        W18621   2.789  42.383   4.812
59086W        W18622  28.123  36.899   0.280
59087W        W18623  29.143  39.838   3.734
59088W        W18624  43.017  37.435   5.141
59089W        W18625  36.408  34.420   4.257
59090W        W18626  21.536  17.587   0.902
59091W        W18627  28.081  11.777   4.351
59092W        W18628  25.090   2.740   5.728
59093W        W18629  15.757  13.748  14.879
59094W        W18630  17.222  25.486   4.336
59095W        W18631  40.983  41.527  13.933
59096W        W18632   2.426   2.322  13.822
59097W        W18633  24.134  33.483  13.807
59098W        W18634  43.799  44.784   1.303
59099W        W18635   4.724  28.523   4.188
59100W        W18636  28.109  11.792   0.904
59101W        W18637  29.442   5.291   3.641
59102W        W18638  41.786  41.499   3.814
59103W        W18639  12.173   1.334  11.461
59104W        W18640  14.652  27.690   1.771
59105W        W18641  44.303  25.524   0.843
59106W        W18642  15.329  31.064  11.407
59107W        W18643  25.986  26.467  12.579
59108W        W18644  13.614  40.966  13.410
59109W        W18645  11.239   5.342   1.798
59110W        W18646  15.592  41.976   2.408
59111W        W18647  10.174  12.743  11.053
59112W        W18648  12.719  41.806  14.891
59113W        W18649  10.194   3.448   0.773
59114W        W18650  12.690  40.048  11.901
59115W        W18651   3.868   9.882   1.849
59116W        W18652  36.878   1.237   0.938
59117W        W18653  15.153  22.215  12.918
59118W        W18654  37.848  32.540   3.197
59119W        W18655  27.038  41.501  11.857
59120W        W18656  24.573  17.131  10.989
59121W        W18657  43.497  31.452  12.882
59122W        W18658  38.496  16.255   0.337
59123W        W18659  11.793  12.752   4.237
59124W        W18660  27.961   8.878   2.804
59125W        W18661  36.924  31.074  14.871
59126W        W18662  15.807  29.059   2.731
59127W        W18663  38.530  12.326   4.295
59128W        W18664  27.626  19.620  13.536
59129W        W18665  39.346  37.998   4.621
59130W        W18666  12.790   6.377   2.350
59131W        W18667  30.555  18.555   3.238
59132W        W18668  35.089   9.170   4.190
59133W        W18669  32.997  44.905   3.716
59134W        W18670  23.564  24.023  14.388
59135W        W18671   5.758  20.654  12.373
59136W        W18672   3.728  42.882   4.748
59137W        W18673  43.386   8.183   0.816
59138W        W18674  28.087  34.388  10.931
59139W        W18675  44.957  27.980  13.871
59140W        W18676  37.857   3.377  14.408
59141W        W18677   6.814  36.441   4.337
59142W        W18678   4.733  29.042   1.342
59143W        W18679  31.582  19.678   4.288
59144W        W18680  15.087  29.491   0.410
59145W        W18681  29.438  25.572   4.324
59146W        W18682   6.902  39.330   1.308
59147W        W18683   4.441  29.649   4.252
59148W        W18684  28.079  42.856  13.984
59149W        W18685  11.289  16.669   1.338
59150W        W18686  22.532  20.195  14.922
59151W        W18687  22.071   0.483   4.246
59152W        W18688  35.364  34.447   1.901
59153W        W18689  14.815  37.879  13.050
59154W        W18690  20.690   9.227   4.323
59155W        W18691  37.055  18.162   3.733
59156W        W18692   6.809  18.593  13.919
59157W        W18693   8.378  12.323  11.429
59158W        W18694  38.559  39.526   3.363
59159W        W18695  27.635   9.291  14.396
59160W        W18696  38.047   1.856  13.005
59161W        W18697   3.785  17.598  13.418
59162W        W18698  36.084  44.002  14.776
59163W        W18699  23.209  14.140  12.525
59164W        W18700  11.639   1.815  14.315
59165W        W18701   4.838   7.675   1.310
59166W        W18702  23.631  24.155  13.403
59167W        W18703  30.042  25.021   0.916
59168W        W18704  29.554  29.125  11.568
59169W        W18705  29.023  13.842   2.288
59170W        W18706  40.809   0.927   4.810
59171W        W18707  25.472  36.867  14.426
59172W        W18708  18.058   8.749   0.931
59173W        W18709   7.333  40.876   0.731
59174W        W18710  14.142  38.063   5.266
59175W        W18711  39.527  31.041   4.345
59176W        W18712  10.813  19.685  11.381
59177W        W18713  23.102   2.848  10.899
59178W        W18714   9.776   6.745   2.287
59179W        W18715  13.731  23.561  12.096
59180W        W18716  13.135   8.176  14.403
59181W        W18717  25.135  19.559   3.752
59182W        W18718  39.458  14.097  13.462
59183W        W18719  13.751  38.931  12.492
59184W        W18720   1.413  17.726  11.861
59185W        W18721  29.646  42.500  12.405
59186W        W18722  35.928  10.179  10.628
59187W        W18723  19.674   1.395   2.867
59188W        W18724  36.461  16.583  14.914
59189W        W18725  30.466   8.346   0.807
59190W        W18726  21.108  11.710   5.244
59191W        W18727  27.584  25.488   2.414
59192W        W18728   6.852  38.379   2.762
59193W        W18729  33.959  13.599  14.780
59194W        W18730  38.493   9.702   4.275
59195W        W18731  17.295  31.541   2.706
59196W        W18732  40.492  21.208  13.922
59197W        W18733  44.929  37.394  12.340
59198W        W18734  23.079  16.689  13.403
59199W        W18735  28.966  42.373   4.684
59200W        W18736  25.702  36.432   9.456
59201W        W18737  34.961  20.743   1.695
59202W        W18738  13.608  28.517   3.244
59203W        W18739  14.119  26.611   0.403
59204W        W18740  31.118  34.431  11.041
59205W        W18741  21.717  32.572  11.538
59206W        W18742   2.833   7.414   2.379
59207W        W18743  11.242  10.866   5.320
59208W        W18744  34.380  33.109   0.741
59209W        W18745  25.587  38.419  14.895
59210W        W18746  39.336   0.763   1.863
59211W        W18747  42.797  16.180   1.274
59212W        W18748   9.330   4.728   3.211
59213W        W18749  30.908  21.569   3.360
59214W        W18750  12.316  30.498   0.298
59215W        W18751  30.576  24.988   2.225
59216W        W18752   9.741  21.547  12.929
59217W        W18753  36.372  41.986  12.528
59218W        W18754  41.393  37.840   4.612
59219W        W18755  20.268   6.286   3.697
59220W        W18756  28.002  37.476   0.783
59221W        W18757  15.087  35.488  13.050
59222W        W18758  38.048  22.653  12.924
59223W        W18759  10.250  18.082   1.729
59224W        W18760  13.333  23.583  10.149
59225W        W18761   2.818  23.068  12.066
59226W        W18762  21.230  17.759   1.753
59227W        W18763  14.693   8.766   3.854
59228W        W18764  33.379  23.713  13.317
59229W        W18765  37.007  24.630  11.026
59230W        W18766  17.710  40.342  13.958
59231W        W18767   8.200   1.308  10.565
59232W        W18768  41.403  39.374   2.411
59233W        W18769  25.649   9.657   4.680
59234W        W18770  17.696  29.464   3.231
59235W        W18771  19.558  40.357   2.293
59236W        W18772  39.461  34.411  12.384
59237W        W18773  24.701  22.554   4.171
59238W        W18774   7.387  23.605   3.832
59239W        W18775  17.661  24.196   0.347
59240W        W18776  15.160  15.807   3.831
59241W        W18777  36.844  29.946  14.456
59242W        W18778  24.486  33.979   3.254
59243W        W18779   0.763  28.027   1.213
59244W        W18780  21.610  37.071   5.277
59245W        W18781  34.959   9.386   0.728
59246W        W18782  11.184  33.410   4.693
59247W        W18783  39.879  40.396  13.337
59248W        W18784   6.917   2.731  14.767
59249W        W18785   3.399  12.229   0.775
59250W        W18786   9.176  37.936  10.505
59251W        W18787  29.142   9.255   1.920
59252W        W18788  27.454  28.003  11.029
59253W        W18789  44.453  24.699  14.942
59254W        W18790   8.899   7.840   1.723
59255W        W18791   2.871  23.621   4.321
59256W        W18792   9.652  35.573   3.643
59257W        W18793  11.738  38.942   0.398
59258W        W18794  24.646  35.544  14.015
59259W        W18795   2.302  42.974  11.105
59260W        W18796   1.935  18.577  14.294
59261W        W18797  21.116  32.419  10.499
59262W        W18798  26.515   5.747   5.218
59263W        W18799  32.007  14.726   0.764
59264W        W18800   7.881  17.684   4.341
59265W        W18801  35.052   2.806  11.050
59266W        W18802  29.155   6.741  13.430
59267W        W18803  19.097  35.383  13.470
59268W        W18804   7.373   6.266   1.774
59269W        W18805  30.471   2.831   2.839
59270W        W18806  36.017   7.212  12.918
59271W        W18807   1.328   3.233   4.723
59272W        W18808   4.335   2.396   3.294
59273W        W18809  32.506  43.410  10.626
59274W        W18810  27.525  30.959   2.259
59275W        W18811  27.684   5.692   3.659
59276W        W18812  22.205   6.378   4.665
59277W        W18813  16.765   5.334  14.297
59278W        W18814  33.988  34.381   2.663
59279W        W18815   8.370  14.769  13.500
59280W        W18816  42.941  41.814  14.498
59281W        W18817  40.304  39.913  14.866
59282W        W18818  20.764  29.585   3.819
59283W        W18819   6.425  44.449  14.766
59284W        W18820  39.023  24.710   2.777
59285W        W18821  23.207   6.366  13.999
59286W        W18822   5.421   2.966   3.709
59287W        W18823  15.301  32.912   2.287
59288W        W18824   4.248  13.615   3.348
59289W        W18825  30.081   7.720   1.799
59290W        W18826   1.780  18.698  11.503
59291W        W18827  14.771  44.428   3.275
59292W        W18828  15.288  18.183   2.307
59293W        W18829  30.110  36.361  14.284
59294W        W18830  35.911  21.758   0.812
59295W        W18831   0.940  11.208   0.367
59296W        W18832  34.989  29.055   2.276
59297W        W18833   8.759   9.167   2.232
59298W        W18834  19.606   8.681  14.400
59299W        W18835  33.616  22.114  11.461
59300W        W18836  39.394  16.300   0.347
59301W        W18837   1.311  11.654  13.495
59302W        W18838  10.660   4.823   3.381
59303W        W18839  44.955  15.697  11.948
59304W        W18840   0.852   2.929   4.347
59305W        W18841  40.346  44.861   3.329
59306W        W18842  12.733  31.118   1.400
59307W        W18843   5.404  16.737  10.492
59308W        W18844  41.988   7.322   1.757
59309W        W18845  39.894  38.418   1.234
59310W        W18846   8.203  41.323  12.360
59311W        W18847  11.775  35.407   0.364
59312W        W18848  20.158   7.751  12.039
59313W        W18849  16.234  43.305  14.871
59314W        W18850   8.755  10.719  13.834
59315W        W18851  35.955  21.031   2.805
59316W        W18852  33.452   6.869  13.450
59317W        W18853  30.547  16.770   3.698
59318W        W18854   1.368   4.882   3.383
59319W        W18855  10.188  41.402  10.591
59320W        W18856   9.218  26.156   3.283
59321W        W18857  36.485  17.760   1.366
59322W        W18858  30.012  44.275   2.323
59323W        W18859  31.019  21.709  11.566
59324W        W18860  37.439  15.745  14.790
59325W        W18861   8.693  12.812   3.737
59326W        W18862  34.062  41.370   3.707
59327W        W18863   4.445   9.372   4.308
59328W        W18864  35.545  38.490  12.904
59329W        W18865  16.614  13.804  11.375
59330W        W18866  43.389  42.971  11.522
59331W        W18867  20.671   1.957  11.471
59332W        W18868  12.231   1.828  14.440
59333W        W18869  15.249  15.097   4.806
59334W        W18870  17.699  25.102   0.381
59335W        W18871  15.703   6.317   1.698
59336W        W18872  33.614  22.532   3.805
59337W        W18873  21.261  12.823  11.917
59338W        W18874  34.022  20.245  13.959
59339W        W18875  23.675  35.858  14.472
59340W        W18876  38.986  11.751  13.045
59341W        W18877  27.178  37.932   3.780
59342W        W18878  13.227  40.910  14.978
59343W        W18879  19.654  10.365   2.704
59344W        W18880  43.835  34.930   4.316
59345W        W18881   2.855  32.920   2.339
59346W        W18882   2.876  28.930   0.430
59347W        W18883  42.782  10.718  14.021
59348W        W18884  28.185  17.741   2.829
59349W        W18885  13.630  40.359  11.404
59350W        W18886  37.407  15.753   2.208
59351W        W18887  28.096   4.324   4.666
59352W        W18888  36.538  20.248  10.465
59353W        W18889  10.177  11.228  12.839
59354W        W18890   7.830  41.798  13.821
59355W        W18891   6.378  42.788  10.121
59356W        W18892  31.506  21.195   2.890
59357W        W18893   5.802  32.032   4.770
59358W        W18894   5.264  28.962   4.224
59359W        W18895  42.896  24.607  10.902
59360W        W18896  11.328  11.318  12.966
59361W        W18897  33.938  18.725  12.386
59362W        W18898  20.599   4.323   0.742
59363W        W18899  30.073  39.834  14.862
59364W        W18900  26.533  27.949  11.000
59365W        W18901  43.779  20.097  12.958
59366W        W18902  37.963   2.395   4.834
59367W        W18903  19.689  40.027   2.789
59368W        W18904  31.504  16.110  10.583
59369W        W18905  19.738   3.256  10.149
59370W        W18906  43.487  37.020  13.346
59371W        W18907   6.807  17.742   3.850
59372W        W18908   3.817  26.649   4.346
59373W        W18909  39.955  15.704   0.381
59374W        W18910   4.228  34.425   3.817
59375W        W18911  10.696  35.400   2.785
59376W        W18912   6.741  42.517  13.516
59377W        W18913  30.025  37.474  12.885
59378W        W18914  26.489   4.339  14.408
59379W        W18915  22.578  10.818  10.981
59380W        W18916  26.094  13.106  12.454
59381W        W18917  13.333  27.548   3.180
59382W        W18918   0.842  44.465   5.194
59383W        W18919  43.480   1.338   0.312
59384W        W18920  34.409   7.781   4.204
59385W        W18921  30.045   2.291   3.305
59386W        W18922  29.594  18.685  14.890
59387W        W18923  19.106  12.693   3.200
59388W        W18924  43.938  44.447  12.464
59389W        W18925   8.860  16.265   0.955
59390W        W18926  10.282  18.547   2.287
59391W        W18927  44.303  10.258  14.805
59392W        W18928  25.037  13.624  14.366
59393W        W18929  11.723  39.402   2.728
59394W        W18930  33.531  11.226   5.101
59395W        W18931   9.377   2.423   0.258
59396W        W18932  10.364  16.305  12.074
59397W        W18933  12.278  10.786   2.900
59398W        W18934  35.374   4.434   2.870
59399W        W18935  23.537  41.031  11.024
59400W        W18936  29.032  12.735   3.370
59401W        W18937  32.533  16.760   0.252
59402W        W18938  10.835   0.290   0.907
59403W        W18939  39.862  30.939  10.425
59404W        W18940   2.824  28.529  10.970
59405W        W18941   2.729  12.743  10.520
59406W        W18942  18.127  14.626   0.883
59407W        W18943  13.195  27.561   1.818
59408W        W18944  26.469  21.650   0.315
59409W        W18945  11.196  43.991   1.845
59410W        W18946  14.651  22.570   3.862
59411W        W18947  25.648   6.235  10.893
59412W        W18948   3.347  19.227   4.223
59413W        W18949  23.059  29.159  10.467
59414W        W18950   2.267  26.098   3.630
59415W        W18951   7.331  15.292   0.464
59416W        W18952  21.708  24.547   2.394
59417W        W18953  20.675   5.378  13.799
59418W        W18954  29.530  13.182   2.241
59419W        W18955  12.189  13.150  14.983
59420W        W18956  23.547  38.840   1.434
59421W        W18957  14.103  15.614  14.509
59422W        W18958   7.776  30.967   2.244
59423W        W18959  21.528  44.011  13.322
59424W        W18960  44.905  24.521   4.767
59425W        W18961  41.832   5.233   0.346
59426W        W18962   4.921  28.970   0.750
59427W        W18963  43.337  12.699  12.872
59428W        W18964  18.572  38.498   3.843
59429W        W18965   7.897  23.575  10.561
59430W        W18966  24.047  11.633  12.954
59431W        W18967  13.198   4.219  11.055
59432W        W18968  40.990  13.730  12.989
59433W        W18969  23.049   0.420   1.739
59434W        W18970   2.761   2.751   2.844
59435W        W18971   1.963  43.417   2.213
59436W        W18972  19.780  34.102   0.964
59437W        W18973   7.910  29.635   2.849
59438W        W18974  15.240  26.509  10.897
59439W        W18975  24.649  21.530  14.855
59440W        W18976  28.647  35.028   1.915
59441W        W18977   3.938  13.147  13.943
59442W        W18978  15.132  11.248  12.572
59443W        W18979  43.916  17.201  10.405
59444W        W18980  17.125  33.889  10.426
59445W        W18981   2.855  24.050  13.894
59446W        W18982  34.556  34.909   4.138
59447W        W18983  23.539   8.198   4.180
59448W        W18984  41.315   0.427   4.627
59449W        W18985  26.639  27.462  10.012
59450W        W18986  32.556   0.836  13.933
59451W        W18987   0.263  15.598  13.018
59452W        W18988  16.779  35.056  13.366
59453W        W18989  20.764  20.723   4.183
59454W        W18990  29.964  24.695  10.615
59455W        W18991  19.622   4.238   5.228
59456W        W18992   9.685  20.192   1.894
59457W        W18993  18.730  33.465  11.451
59458W        W18994  11.743  32.946   1.418
59459W        W18995  24.589  36.036  14.383
59460W        W18996  34.505  17.241   3.257
59461W        W18997  27.084  19.633  10.891
59462W        W18998  14.644   0.350  11.072
59463W        W18999  29.960   5.346  14.764
59464W        W19000  44.388  25.116  11.121
59465W        W19001   4.829   6.914  10.408
59466W        W19002  11.208  10.287   9.976
59467W        W19003   0.431  41.292   0.834
59468W        W19004  27.142  42.918   3.291
59469W        W19005  40.952   6.399   4.332
59470W        W19006  11.240   5.323  13.010
59471W        W19007  21.540  36.949  14.346
59472W        W19008  20.607   7.257  14.485
59473W        W19009  12.323  40.366   0.245
59474W        W19010  22.147  37.499  14.514
59475W        W19011  15.279   9.177  14.930
59476W        W19012  14.825   1.785   4.212
59477W        W19013  35.471  39.988   1.340
59478W        W19014  42.892  25.011   3.294
59479W        W19015   0.890   4.240  12.074
59480W        W19016  17.685  13.140   2.215
59481W        W19017  41.826  42.410   0.324
59482W        W19018  34.938  41.371   0.752
59483W        W19019  12.721   6.387   3.225
59484W        W19020   7.283  42.030  13.006
59485W        W19021  40.304  27.667   2.828
59486W        W19022  39.930  32.479  13.319
59487W        W19023  33.018  28.004   2.827
59488W        W19024  20.182  14.205   2.783
59489W        W19025  41.016  24.610  12.552
59490W        W19026  18.680  32.032   0.942
59491W        W19027  40.888  25.537  14.916
59492W        W19028  19.665  32.459  13.848
59493W        W19029  33.508   2.772   2.321
59494W        W19030  41.990  22.559  11.044
59495W        W19031  11.666  23.528  14.434
59496W        W19032  28.121  33.575  13.985
59497W        W19033  32.904   4.430   3.179
59498W        W19034  41.926   1.245   3.835
59499W        W19035  41.842  28.150   3.313
59500W        W19036  11.710  13.257   4.704
59501W        W19037   4.931  39.012  14.824
59502W        W19038   1.921  19.777  11.041
59503W        W19039  35.560   2.943  11.473
59504W        W19040  23.709  12.270   0.308
59505W        W19041   9.214  39.840  10.456
59506W        W19042  23.102  35.578  13.388
59507W        W19043  25.972  11.153  11.984
59508W        W19044  19.111   6.359   0.371
59509W        W19045  40.885   7.246   3.744
59510W        W19046  25.034  32.455  13.309
59511W        W19047  17.713  25.649  12.484
59512W        W19048  15.616   1.816   3.298
59513W        W19049  42.000  43.380   0.851
59514W        W19050  29.050  37.361   0.758
59515W        W19051  42.474  25.215   2.792
59516W        W19052  20.063  21.604  13.485
59517W        W19053   8.238  12.625  12.945
59518W        W19054  24.092  44.311   3.233
59519W        W19055  38.864  44.968  14.283
59520W        W19056   8.280   7.811   4.704
59521W        W19057   7.233   6.725  14.467
59522W        W19058  30.445   0.895   2.400
59523W        W19059  37.069  21.081  14.503
59524W        W19060   1.284   4.711  10.604
59525W        W19061   6.873  21.627   4.332
59526W        W19062  31.488  24.029   5.254
59527W        W19063  43.330  10.328   3.692
59528W        W19064  26.613   3.439  10.910
59529W        W19065  31.557  20.200  11.406
59530W        W19066  10.305  21.075   3.345
59531W        W19067  14.252   6.687   4.637
59532W        W19068  20.570  25.070  13.326
59533W        W19069   1.800   2.436  13.363
59534W        W19070  33.966  36.569   2.747
59535W        W19071  11.285   3.281   4.632
59536W        W19072  16.769  12.614  12.343
59537W        W19073  25.084  20.118   1.730
59538W        W19074   5.834  32.084   0.297
59539W        W19075  34.102  36.501  12.968
59540W        W19076  23.727  35.425  14.796
59541W        W19077  32.077  32.627   4.157
59542W        W19078  40.546  13.229   2.903
59543W        W19079  40.307  12.242  14.852
59544W        W19080  16.589  33.606  13.465
59545W        W19081   0.916   3.789  11.559
59546W        W19082  13.652   3.903  13.498
59547W        W19083   1.310  15.224  13.992
59548W        W19084  44.375  37.366  12.460
59549W        W19085   8.746  32.125  13.832
59550W        W19086  44.319  14.652   3.229
59551W        W19087  18.072  34.606  13.495
59552W        W19088  44.465   9.653  14.406
59553W        W19089  43.920   6.303  14.452
59554W        W19090  14.733  16.695   2.773
59555W        W19091  10.770  31.570   4.231
59556W        W19092  44.305   3.907  10.446
59557W        W19093  39.407  15.752  10.129
59558W        W19094  22.647  34.418  12.986
59559W        W19095   3.353  11.688   1.227
59560W        W19096  43.833   0.280   4.644
59561W        W19097  22.687  41.418   4.670
59562W        W19098  16.113  41.426  14.505
59563W        W19099   1.827   9.367  12.914
59564W        W19100  44.926  40.894  14.452
59565W        W19101  28.146   4.342  13.028
59566W        W19102   6.731  12.222  11.611
59567W        W19103  41.789  24.665  13.987
59568W        W19104   1.813  16.246  10.995
59569W        W19105  36.474  21.558   3.209
59570W        W19106  26.558  37.405   9.978
59571W        W19107   8.802  30.097   2.403
59572W        W19108   8.782  44.827  11.467
59573W        W19109  29.130  19.122  11.413
59574W        W19110  38.569  22.502  13.064
59575W        W19111  39.552  35.993   4.618
59576W        W19112  40.368   9.699  13.381
59577W        W19113   1.400  33.986   3.863
59578W        W19114   6.848  37.346  11.505
59579W        W19115  34.038   0.429   2.775
59580W        W19116  17.587  12.830   2.291
59581W        W19117  11.334  24.188   3.234
59582W        W19118  36.062  23.633   4.168
59583W        W19119  37.565  26.600   2.411
59584W        W19120   3.313  39.975  12.929
59585W        W19121  29.648   2.360   1.277
59586W        W19122  23.496   2.735   2.666
59587W        W19123  11.257   1.764   0.739
59588W        W19124   6.907  29.612   2.309
59589W        W19125  22.721  11.842  11.945
59590W        W19126   3.863  17.728   4.154
59591W        W19127  11.286  40.346  14.419
59592W        W19128  31.912  42.833  13.493
59593W        W19129  26.162  27.463   1.738
59594W        W19130  29.130  23.649  11.557
59595W        W19131  22.569  28.533  13.483
59596W        W19132  15.823  43.448  11.412
59597W        W19133  25.678  44.366   0.347
59598W        W19134   9.392  43.313  13.411
59599W        W19135  41.891  32.921  12.026
59600W        W19136  10.712  14.677   4.672
59601W        W19137  44.496  42.781   0.928
59602W        W19138  34.926  40.837   3.154
59603W        W19139   1.463  41.299  10.568
59604W        W19140  43.794  42.965  10.948
59605W        W19141  40.321  25.073  10.049
59606W        W19142   5.342  26.184   1.339
59607W        W19143   2.255  29.980   2.314
59608W        W19144  42.822  38.837  11.924
59609W        W19145  17.580   2.414  10.963
59610W        W19146  19.141   7.234  14.015
59611W        W19147  32.442  44.300  13.012
59612W        W19148  15.245  15.635  13.025
59613W        W19149  21.752  29.994   2.700
59614W        W19150  22.038  20.096   3.202
59615W        W19151  19.088  15.237   0.483
59616W        W19152  17.281  14.127   2.356
59617W        W19153  25.963  38.438  14.429
59618W        W19154  29.094  34.989  14.280
59619W        W19155  25.545   4.361  14.914
59620W        W19156   6.371   4.336   3.713
59621W        W19157  35.871  13.735  10.599
59622W        W19158  40.027  44.971  14.301
59623W        W19159  44.846  23.573  14.901
59624W        W19160  22.732  22.550   0.451
59625W        W19161   5.829  17.612  10.948
59626W        W19162  32.608  28.060   0.853
59627W        W19163  36.963  44.463   5.628
59628W        W19164  31.456  27.024  14.461
59629W        W19165  39.907  18.634  14.414
59630W        W19166  25.608   4.444   1.414
59631W        W19167  22.041  17.237  12.493
59632W        W19168  43.350   6.397   4.143
59633W        W19169  35.860  30.612  13.332
59634W        W19170  44.462   5.407   4.142
59635W        W19171  34.438  27.036   2.690
59636W        W19172  42.407  44.271  12.940
59637W        W19173  34.471  15.597  10.406
59638W        W19174   9.775   9.228   0.736
59639W        W19175  41.357   7.269  11.934
59640W        W19176  26.096  24.034  10.912
59641W        W19177  22.106  13.296   2.671
59642W        W19178  30.964  21.518   4.637
59643W        W19179  15.649  42.923   0.467
59644W        W19180  16.678  12.124  13.867
59645W        W19181  23.520  37.065  11.912
59646W        W19182  42.523  20.567  10.497
59647W        W19183  20.550   4.899   5.738
59648W        W19184  30.544  17.747  12.551
59649W        W19185  10.374  43.346  14.316
59650W        W19186  27.027  44.772  12.478
59651W        W19187  12.655  32.956   0.831
59652W        W19188  12.249  32.497   2.859
59653W        W19189   9.337   3.431   3.733
59654W        W19190  19.625   5.311  12.037
59655W        W19191  26.703  28.072  13.906
59656W        W19192  34.460  11.294   2.368
59657W        W19193  22.631  20.140  11.915
59658W        W19194  17.771  33.004   0.382
59659W        W19195  18.786   9.885   0.447
59660W        W19196   5.818  28.178  10.947
59661W        W19197  31.419  33.505   1.342
59662W        W19198   5.853  21.523  14.009
59663W        W19199  41.003  23.039  13.893
59664W        W19200  15.821  35.483   3.855
59665W        W19201  16.747  34.425  12.956
59666W        W19202  37.411  20.676  14.764
59667W        W19203  12.185  10.775  12.903
59668W        W19204  39.315  33.605  13.004
59669W        W19205  31.014  32.459  10.631
59670W        W19206  23.114  44.340  14.019
59671W        W19207  35.503  18.737  12.381
59672W        W19208   4.278   5.288   3.311
59673W        W19209  13.740  13.734  12.541
59674W        W19210  19.229   9.762  10.966
59675W        W19211  39.372   7.279   2.216
59676W        W19212  44.787  15.750  13.423
59677W        W19213   7.886   4.270  14.437
59678W        W19214   0.334   9.831  13.891
59679W        W19215  21.750   6.254  14.885
59680W        W19216  15.645  26.141  13.501
59681W        W19217  19.263  26.979  13.500
59682W        W19218  24.120   0.368   4.649
59683W        W19219  31.532  42.467   2.235
59684W        W19220  31.059  44.819  13.356
59685W        W19221  10.348   3.865   3.279
59686W        W19222  11.324   9.880   0.456
59687W        W19223  33.622  32.117   1.434
59688W        W19224   4.827   6.230   0.941
59689W        W19225  22.576  37.963   0.382
59690W        W19226   3.899  26.688  13.543
59691W        W19227   0.365  14.322   0.838
59692W        W19228  43.933  32.394  13.015
59693W        W19229  17.698   1.376   2.364
59694W        W19230  44.941   8.895  14.346
59695W        W19231  33.916   4.943  14.453
59696W        W19232  23.709  42.826   2.400
59697W        W19233  11.796  41.307   3.345
59698W        W19234   7.364   0.789  10.894
59699W        W19235  30.978  17.184   3.183
59700W        W19236  17.261  39.548   0.804
59701W        W19237   0.266  27.025   4.671
59702W        W19238  17.719  25.084  13.918
59703W        W19239   1.448  24.013  14.283
59704W        W19240  18.117  40.838  13.529
59705W        W19241  40.800   6.857   4.807
59706W        W19242  36.950  36.062   4.295
59707W        W19243  35.489  23.162   4.654
59708W        W19244  13.793  18.721  11.913
59709W        W19245  40.830  39.407  13.346
59710W        W19246   3.431  17.785  14.780
59711W        W19247  21.018   3.734   0.898
59712W        W19248  39.881  21.138  14.508
59713W        W19249  42.012   5.284   4.742
59714W        W19250  38.898  28.167  11.519
59715W        W19251  19.667  38.518   2.669
59716W        W19252  30.092  18.604  11.014
59717W        W19253  38.546  42.317   4.206
59718W        W19254  34.571  35.528  10.511
59719W        W19255  41.299  43.383  10.432
59720W        W19256  22.020  39.348  14.458
59721W        W19257  40.908  44.997   1.420
59722W        W19258  26.046  28.503   4.192
59723W        W19259  41.788   3.315  11.117
59724W        W19260  41.038  36.024  10.550
59725W        W19261  33.947  24.040  14.834
59726W        W19262   0.307  33.416   4.671
59727W        W19263  16.275  11.230   2.241
59728W        W19264  17.564   7.904   0.405
59729W        W19265   5.760  22.508   3.236
59730W        W19266  28.098   9.701  10.925
59731W        W19267  19.674  44.971   1.708
59732W        W19268  10.234   1.473   2.693
59733W        W19269  13.751   6.803   4.204
59734W        W19270  27.473  42.523  12.464
59735W        W19271  21.539  33.612   1.212
59736W        W19272   6.324   5.760   1.307
59737W        W19273  40.374  30.989  14.334
59738W        W19274  21.055  16.808   4.790
59739W        W19275  13.249  31.923   2.791
59740W        W19276  25.505  16.259   1.417
59741W        W19277  31.633  12.256  14.784
59742W        W19278  21.018  11.189   9.978
59743W        W19279  12.192  24.556  13.011
59744W        W19280   9.746  23.528  11.063
59745W        W19281  42.327  23.055   2.755
59746W        W19282  20.125  40.371  14.862
59747W        W19283   0.308  40.315   2.215
59748W        W19284  11.638  39.978   4.836
59749W        W19285  32.630   0.372   3.849
59750W        W19286  36.075  40.425  12.840
59751W        W19287  39.909   0.297  10.580
59752W        W19288  30.060  23.217   2.186
59753W        W19289  40.052  19.204  11.480
59754W        W19290   0.401   9.759   1.820
59755W        W19291  23.132  24.610  10.616
59756W        W19292  34.558  42.797  14.366
59757W        W19293  43.383   8.289   4.286
59758W        W19294  12.702  40.953  11.950
59759W        W19295  21.628  36.089  11.463
59760W        W19296  22.671  15.690  13.847
59761W        W19297  24.660   7.358  12.984
59762W        W19298  17.292  29.590   3.800
59763W        W19299  18.128  22.056   0.427
59764W        W19300  14.322  17.133  14.975
59765W        W19301  25.587  11.273  13.985
59766W        W19302  32.935  15.609  10.994
59767W        W19303  22.013  30.436  11.958
59768W        W19304  29.469  23.055   2.887
59769W        W19305  25.539  14.191  13.349
59770W        W19306   9.678  20.124  13.322
59771W        W19307  34.042  12.686  11.865
59772W        W19308  14.111  29.932   0.871
59773W        W19309  14.622   4.788  10.605
59774W        W19310  22.658   4.894  12.413
59775W        W19311  23.182  40.526  11.540
59776W        W19312  19.763  28.977  13.935
59777W        W19313  30.504  16.165  14.927
59778W        W19314  40.895  12.713   2.802
59779W        W19315   8.281   8.390   1.319
59780W        W19316  24.609  34.098  12.032
59781W        W19317  15.188   5.310   0.417
59782W        W19318   5.809  38.563  11.114
59783W        W19319  44.349  43.489   3.205
59784W        W19320  27.563  30.621   0.450
59785W        W19321  31.516  25.049  14.792
59786W        W19322  16.727  23.122  11.571
59787W        W19323  15.748  30.627   0.345
59788W        W19324  43.479  14.673   5.589
59789W        W19325  28.465  38.926  10.553
59790W        W19326   0.270  10.843  14.334
59791W        W19327  12.668  18.624   1.846
59792W        W19328  28.506  40.403  12.441
59793W        W19329  39.376  29.588   3.285
59794W        W19330  15.196  43.415   0.828
59795W        W19331   7.877  13.319  11.944
59796W        W19332  32.005  15.798  11.475
59797W        W19333  26.474  13.284  13.003
59798W        W19334  12.633  21.109   1.399
59799W        W19335  22.535  28.649   1.347
59800W        W19336   8.761  18.211  12.827
59801W        W19337  24.676   9.821  13.345
59802W        W19338  41.938  24.016  11.546
59803W        W19339   5.904  30.488  14.403
59804W        W19340  36.049  33.985  10.619
59805W        W19341  30.061  31.054  14.465
59806W        W19342  22.718  26.035  11.884
59807W        W19343  29.429  21.551  14.895
59808W        W19344  13.613   0.405  14.931
59809W        W19345  35.910  39.972   4.160
59810W        W19346  42.925  11.234   1.351
59811W        W19347   4.879  37.475  11.440
59812W        W19348  20.765   1.288  12.496
59813W        W19349  38.976  24.092  10.931
59814W        W19350   3.279  12.790  10.482
59815W        W19351   8.347   4.938  12.855
59816W        W19352  21.517  33.409  12.948
59817W        W19353  29.490  19.126   3.695
59818W        W19354  33.021   5.265   2.745
59819W        W19355  36.591  22.721   1.213
59820W        W19356  24.142   4.828   1.327
59821W        W19357  27.523   2.324  13.865
59822W        W19358  32.104  32.418   4.757
59823W        W19359   8.809  11.136   4.326
59824W        W19360  11.232  11.814  11.480
59825W        W19361  19.736   5.746   0.392
59826W        W19362  19.195  36.030   0.845
59827W        W19363  23.145   1.761   4.821
59828W        W19364  16.755  16.226  10.577
59829W        W19365  44.274  35.466   1.221
59830W        W19366  33.554  25.615   2.275
59831W        W19367   2.924  14.171  13.497
59832W        W19368  21.556  26.583  12.526
59833W        W19369  32.976  32.553   3.673
59834W        W19370  15.138  37.851   0.358
59835W        W19371  21.697  44.782  12.863
59836W        W19372  38.971   9.315   0.888
59837W        W19373  23.723  24.607  11.904
59838W        W19374  42.383  15.664  10.459
59839W        W19375  37.356   2.788   1.934
59840W        W19376  24.000  11.863   2.903
59841W        W19377  16.184  10.738   1.884
59842W        W19378  14.153  28.446  14.289
59843W        W19379  22.131  22.179   3.155
59844W        W19380  33.592  36.900   3.255
59845W        W19381  43.834   3.731  11.493
59846W        W19382  10.715  32.534  14.775
59847W        W19383  22.156  11.798  11.085
59848W        W19384  37.005  33.525   1.264
59849W        W19385  19.064   8.801  14.768
59850W        W19386  14.165   1.741   0.363
59851W        W19387  10.249  42.960  10.639
59852W        W19388   7.256  18.691  11.461
59853W        W19389  11.845  16.742   0.466
59854W        W19390  43.907  18.276   4.780
59855W        W19391  26.053   0.786  14.974
59856W        W19392  32.062  38.855   4.793
59857W        W19393  33.116  28.613  10.541
59858W        W19394  35.020  39.966  14.856
59859W        W19395  21.584  11.176  13.900
59860W        W19396  28.178  18.668  12.879
59861W        W19397  36.564   0.461  12.579
59862W        W19398  19.760  32.919   0.917
59863W        W19399   2.455  35.027   2.833
59864W        W19400  12.790  40.021  13.856
59865W        W19401  10.832  19.171  13.911
59866W        W19402   5.900   7.364  10.904
59867W        W19403  13.707   5.896   1.349
59868W        W19404   7.405  24.009   3.655
59869W        W19405   7.710  32.999   3.259
59870W        W19406   2.859  40.500  11.000
59871W        W19407  31.047  17.689   1.398
59872W        W19408  25.178  26.046  11.532
59873W        W19409  36.350  13.656  10.583
59874W        W19410   2.751  34.026  10.953
59875W        W19411  44.460  20.621   2.334
59876W        W19412  14.143  39.825   0.908
59877W        W19413  41.922  21.517  13.988
59878W        W19414   1.354   4.934  12.444
59879W        W19415  42.820  25.641   0.330
59880W        W19416   2.320  23.065   2.834
59881W        W19417  31.500  11.162  13.984
59882W        W19418  40.805   0.913   0.394
59883W        W19419   3.334  31.109   4.727
59884W        W19420  42.359  34.968  11.395
59885W        W19421  27.568  39.427  11.536
59886W        W19422  36.885  11.304   0.323
59887W        W19423  23.564   7.732   4.135
59888W        W19424  37.944  38.350   1.260
59889W        W19425   9.386   1.443  13.031
59890W        W19426   3.415  12.306   4.126
59891W        W19427   8.206  11.772  14.874
59892W        W19428  38.027  31.078   2.229
59893W        W19429  43.958   1.388  12.012
59894W        W19430   2.246  17.563  13.486
59895W        W19431  23.991   3.242  11.983
59896W        W19432  41.451   6.803  11.933
59897W        W19433   7.907  21.694  13.009
59898W        W19434  38.943  33.529  11.049
59899W        W19435  24.552   9.256  11.096
59900W        W19436  33.527  13.222   4.151
59901W        W19437  26.457  16.308  12.847
59902W        W19438  25.635  39.353   2.268
59903W        W19439  26.633  31.996  10.006
59904W        W19440  17.155  30.957  13.834
59905W        W19441  29.093   4.365   4.196
59906W        W19442  27.034  19.249  10.584
59907W        W19443  32.964   3.894   4.623
59908W        W19444  40.375  38.514  12.565
59909W        W19445  38.437  33.026   3.161
59910W        W19446   5.237  42.824   0.342
59911W        W19447  13.246   8.261  12.969
59912W        W19448  16.240  36.486   3.778
59913W        W19449   2.414   0.464  11.911
59914W        W19450  33.544  26.089  13.954
59915W        W19451  25.585  33.055   1.807
59916W        W19452   4.271  39.861  10.517
59917W        W19453  22.742  17.725   3.195
59918W        W19454  10.320  18.641   0.300
59919W        W19455  36.878  10.267  13.421
59920W        W19456   9.713  23.535  11.385
59921W        W19457  33.884   3.718  10.480
59922W        W19458  21.602  24.648  11.007
59923W        W19459  12.689  17.233  11.899
59924W        W19460   7.714   8.695   2.801
59925W        W19461  23.600  12.637  12.897
59926W        W19462  11.811   5.929   5.134
59927W        W19463  19.546  28.446   0.901
59928W        W19464   7.204  18.580   3.378
59929W        W19465  38.353  17.107   3.378
59930W        W19466  30.565  11.174  12.039
59931W        W19467  42.930  36.585   4.650
59932W        W19468  37.992  43.437  10.562
59933W        W19469  12.125   7.679  13.982
59934W        W19470  28.048   4.309   3.287
59935W        W19471  26.077  14.611  13.473
59936W        W19472  23.161  31.927  14.306
59937W        W19473  14.648  35.047   4.275
59938W        W19474  17.580  31.966  10.643
59939W        W19475  41.899   1.878  11.467
59940W        W19476   6.874   5.904  13.819
59941W        W19477  37.921  41.976   1.931
59942W        W19478  35.390  25.672   4.778
59943W        W19479   1.939  11.323  12.576
59944W        W19480  11.770  40.501   1.719
59945W        W19481   5.430  32.600  13.515
59946W        W19482  14.107  32.593   3.224
59947W        W19483  17.792  41.422  13.373
59948W        W19484  12.647  25.154  14.825
59949W        W19485  18.721  44.962  12.905
59950W        W19486  29.069  22.711   4.289
59951W        W19487  31.644   1.910   2.360
59952W        W19488  12.638  14.312  10.452
59953W        W19489  16.108  35.561  13.458
59954W        W19490   0.891  36.382  13.432
59955W        W19491  28.655  15.600  12.406
59956W        W19492   5.809  17.738   4.640
59957W        W19493  40.469   3.759   0.949
59958W        W19494  23.180   5.852  10.992
59959W        W19495  34.863  42.852  14.982
59960W        W19496   2.941  29.557  13.336
59961W        W19497  31.136  15.640  14.845
59962W        W19498   2.246  44.492  10.446
59963W        W19499  39.052  37.560   4.258
59964W        W19500  24.981  43.895   9.976
59965W        W19501  18.260  41.887  11.114
59966W        W19502   0.835  23.209   1.382
59967W        W19503  14.732  13.698   1.325
59968W        W19504  43.952  30.641  10.919
59969W        W19505  42.353  13.651  11.991
59970W        W19506  38.481  11.283   1.421
59971W        W19507   4.870  22.120  14.997
59972W        W19508  11.221  13.334   2.410
59973W        W19509   0.973  36.481   1.343
59974W        W19510   1.842  37.342  12.525
59975W        W19511   0.851  35.878  14.280
59976W        W19512   4.700  13.713   0.816
59977W        W19513   8.196  34.395   1.694
59978W        W19514   1.242  16.250   2.863
59979W        W19515  16.143  15.586  14.903
59980W        W19516   6.310  32.042  12.008
59981W        W19517  16.132  18.707   3.323
59982W        W19518   1.842  35.006  11.578
59983W        W19519  15.625  41.833  12.909
59984W        W19520   3.336  33.123  12.506
59985W        W19521  24.491  40.522  14.776
59986W        W19522  10.220  16.181  13.853
59987W        W19523  22.997  40.899  12.435
59988W        W19524  26.543  14.269  10.061
59989W        W19525   2.319  43.984  10.618
59990W        W19526  36.355   5.764  10.117
59991W        W19527   6.707  24.179  14.505
59992W        W19528  14.229   9.730   4.672
59993W        W19529  19.722  41.969  11.550
59994W        W19530  41.332   1.814  14.829
59995W        W19531  22.155  28.133  11.040
59996W        W19532  14.797  41.942  14.933
59997W        W19533   2.334  35.439   2.266
59998W        W19534   8.209  24.543   4.830
59999W        W19535  27.624  27.546  14.776
60000W        W19536   6.198  18.107  10.892
60001W        W19537   7.292  23.581   4.142
60002W        W19538  42.819  37.560  11.868
60003W        W19539  39.367  30.132  13.926
60004W        W19540  26.986   6.799  12.442
60005W        W19541   8.718  24.089   2.372
60006W        W19542  36.557  37.437   3.184
60007W        W19543  39.025  16.788  10.897
60008W        W19544  15.229  17.653  10.568
60009W        W19545   1.898  19.176   3.211
60010W        W19546  36.397  43.965  12.004
60011W        W19547  38.951  35.022  11.549
60012W        W19548   1.787  24.216   5.135
60013W        W19549  36.382  10.686   3.717
60014W        W19550   3.392   0.953   1.830
60015W        W19551  24.229  43.512  11.454
60016W        W19552  24.022   6.386   0.842
60017W        W19553  16.122  44.459   3.273
60018W        W19554  41.457  40.341   1.349
60019W        W19555  40.420  11.772  12.003
60020W        W19556  27.623  14.175  12.456
60021W        W19557  32.904   2.405   0.437
60022W        W19558  32.139  19.709   4.601
60023W        W19559  15.214  20.147   3.216
60024W        W19560  27.613  24.057   0.850
60025W        W19561  35.061  40.540  14.789
60026W        W19562  13.133   7.671   5.701
60027W        W19563   4.794  31.470   3.869
60028W        W19564  19.274   2.443   4.144
60029W        W19565  26.564   0.399  11.028
60030W        W19566  28.056  14.669   3.327
60031W        W19567  43.369  16.622  10.512
60032W        W19568  35.105  15.735   4.715
60033W        W19569  11.770   9.230   2.318
60034W        W19570  19.068  24.556   0.762
60035W        W19571  44.956  24.169  12.828
60036W        W19572  41.945  31.952   1.863
60037W        W19573  36.070  26.473   1.347
60038W        W19574  36.497  40.948  11.118
60039W        W19575   6.378   7.362  12.902
60040W        W19576  27.471  21.711  14.426
60041W        W19577   6.896  28.974   2.828
60042W        W19578   7.781  44.441  12.473
60043W        W19579  34.010  10.357   3.321
60044W        W19580  22.655  27.117   2.707
60045W        W19581  25.538  33.031  13.999
60046W        W19582  17.605  13.717  14.967
60047W        W19583  41.316  38.029  12.994
60048W        W19584  25.676  21.133   2.775
60049W        W19585  13.137  39.395  12.002
60050W        W19586  39.495  27.624   1.847
60051W        W19587  32.622  29.032  12.892
60052W        W19588  29.589  36.958   1.383
60053W        W19589  40.822  37.903   1.774
60054W        W19590  10.691  40.313   3.680
60055W        W19591  34.895  26.066   5.132
60056W        W19592  20.063  12.823  14.876
60057W        W19593  23.159  25.174   1.716
60058W        W19594  39.347  13.152  11.091
60059W        W19595  32.592  35.910   2.323
60060W        W19596  16.718   1.770  10.459
60061W        W19597   6.768  34.542  12.049
60062W        W19598  30.976  35.548  11.461
60063W        W19599  42.371  22.640  10.949
60064W        W19600   8.851  36.489   4.604
60065W        W19601  32.461  32.114   0.269
60066W        W19602  33.428   4.722   4.810
60067W        W19603  32.406  18.184   3.716
60068W        W19604  14.199   9.707  10.493
60069W        W19605   5.760   4.411   0.300
60070W        W19606   9.686  28.515   4.293
60071W        W19607  31.559   4.416  12.037
60072W        W19608  15.248  22.712   1.724
60073W        W19609  19.143  23.038  14.278
60074W        W19610  23.205  24.636   4.351
60075W        W19611  25.526  37.390   2.404
60076W        W19612  34.384  30.058   4.787
60077W        W19613  21.670   3.797  14.504
60078W        W19614  43.994   8.766   4.838
60079W        W19615  25.570  28.668  14.913
60080W        W19616  26.071  42.523   2.285
60081W        W19617  37.468  17.756  14.872
60082W        W19618   4.296  31.077   2.242
60083W        W19619  11.145  21.038   5.087
60084W        W19620  38.561  44.358   3.764
60085W        W19621  21.128  40.525   0.895
60086W        W19622  27.532  36.853  12.385
60087W        W19623   3.884  24.057  14.473
60088W        W19624  29.656  12.342  11.383
60089W        W19625  43.461  16.224   4.161
60090W        W19626  14.593  16.599  10.933
60091W        W19627   9.768  39.979  12.053
60092W        W19628  28.989   1.291   0.386
60093W        W19629  22.691  41.978   1.256
60094W        W19630  22.246  36.516  12.955
60095W        W19631  16.135  31.503   3.682
60096W        W19632  34.902  42.455   0.418
60097W        W19633   2.901  35.957   2.271
60098W        W19634  26.587  23.559  10.063
60099W        W19635  28.501  16.190  14.994
60100W        W19636  21.710  12.163   3.710
60101W        W19637  42.337   0.823   1.925
60102W        W19638   9.829   0.745   1.435
60103W        W19639  14.207  26.074  11.880
60104W        W19640  39.322  40.979  12.992
60105W        W19641  40.906  28.566   4.798
60106W        W19642  25.651  14.596  12.972
60107W        W19643  43.320  34.485   0.968
60108W        W19644   1.765  33.382   0.840
60109W        W19645  15.593  43.011   0.741
60110W        W19646  17.196  14.308  10.610
60111W        W19647  32.526  41.973  10.642
60112W        W19648  36.988  34.604  14.965
60113W        W19649  33.553  32.010  12.388
60114W        W19650   0.840  20.674   4.762
60115W        W19651  10.851  27.133  12.386
60116W        W19652  44.331  30.052  10.576
60117W        W19653  10.246  20.655   0.297
60118W        W19654  38.849  25.532   2.385
60119W        W19655  26.580  40.810   1.311
60120W        W19656  39.383   9.369  12.876
60121W        W19657  22.036  17.770   0.893
60122W        W19658  13.620  41.481  11.958
60123W        W19659  20.094  26.033  13.884
60124W        W19660  20.063  38.483  12.378
60125W        W19661  15.690  22.188  12.507
60126W        W19662   6.229  32.029  10.636
60127W        W19663  28.931  28.951   3.383
60128W        W19664  28.527  30.567  14.006
60129W        W19665  35.575  33.881  14.927
60130W        W19666   1.341  29.587   0.413
60131W        W19667  17.094  35.011  11.393
60132W        W19668  41.848  26.044   3.225
60133W        W19669   7.180  24.666  14.310
60134W        W19670   0.898  10.205  13.538
60135W        W19671  14.306  37.050  13.902
60136W        W19672  43.009  30.626  12.871
60137W        W19673   0.978  39.363   0.440
60138W        W19674  36.460  39.448   4.306
60139W        W19675  39.818   3.412  11.874
60140W        W19676  31.420  10.846  14.492
60141W        W19677  43.890  13.213   5.234
60142W        W19678  28.087  37.417  13.981
60143W        W19679  44.982  43.438  12.934
60144W        W19680  15.816   1.313  13.321
60145W        W19681   4.444  14.817   1.902
60146W        W19682  34.518  29.145  10.553
60147W        W19683  29.524  23.000  12.486
60148W        W19684  24.191  33.009   2.369
60149W        W19685  10.286  28.942   1.417
60150W        W19686  25.965  11.247   1.321
60151W        W19687  26.954  30.529  10.984
60152W        W19688  32.075   0.473  13.496
60153W        W19689  19.536   3.440  11.472
60154W        W19690   8.187  29.126  13.504
60155W        W19691  13.745   0.771   0.357
60156W        W19692   4.239   4.391  11.856
60157W        W19693  16.308  21.118  11.411
60158W        W19694  13.161  26.008  10.081
60159W        W19695  38.063   8.657  14.822
60160W        W19696  42.420  39.043   2.884
60161W        W19697   6.701  43.901   2.680
60162W        W19698  15.813  22.029  12.925
60163W        W19699  20.604  20.585   0.447
60164W        W19700  18.266  35.886  14.348
60165W        W19701  19.718   9.865   3.247
60166W        W19702   6.772  22.077   0.444
60167W        W19703  37.075  38.446   1.403
60168W        W19704  37.064  23.012  12.508
60169W        W19705   9.341   3.918   3.657
60170W        W19706   0.282  32.892  13.539
60171W        W19707   1.401  11.834   0.333
60172W        W19708  40.876  29.495  12.394
60173W        W19709  35.425  26.198   4.226
60174W        W19710   0.882  18.159  13.966
60175W        W19711  10.792  37.438   4.250
60176W        W19712  19.086  14.649  13.051
60177W        W19713  41.902  20.700   2.225
60178W        W19714   5.322  19.743   3.629
60179W        W19715  20.176  17.192  12.841
60180W        W19716  23.500  42.014   4.132
60181W        W19717  10.194  19.096  11.554
60182W        W19718  40.398  39.434   4.346
60183W        W19719   2.387  32.141  11.478
60184W        W19720  40.859  28.135   3.864
60185W        W19721  12.842  22.029  12.422
60186W        W19722  21.636  38.530   3.855
60187W        W19723  41.954  15.784   9.967
60188W        W19724  35.559  42.414   2.669
60189W        W19725  40.323  31.068  12.934
60190W        W19726  38.066  21.075  12.856
60191W        W19727  25.017  15.634   3.278
60192W        W19728   3.421  41.884   0.848
60193W        W19729  11.367  43.974  12.547
60194W        W19730  26.038  33.024  12.433
60195W        W19731  27.153  23.582   0.337
60196W        W19732  20.753  25.117  10.947
60197W        W19733   0.297  39.457   4.771
60198W        W19734  13.610  43.380  14.279
60199W        W19735   5.917   2.856   3.820
60200W        W19736  27.126  30.455   4.724
60201W        W19737   1.885  26.050  11.425
60202W        W19738  17.750  29.480  10.581
60203W        W19739  39.544  40.837   2.301
60204W        W19740  37.924   7.386  13.378
60205W        W19741  23.060  31.609   3.854
60206W        W19742  43.356  33.439   3.252
60207W        W19743  14.596  11.138   3.668
60208W        W19744  21.085  33.525  11.942
60209W        W19745  20.595  17.166  13.394
60210W        W19746  15.665  43.784   4.817
60211W        W19747  30.565   7.329   2.194
60212W        W19748  17.242  10.219  12.469
60213W        W19749  12.345  11.750   3.824
60214W        W19750   5.280  43.292  11.376
60215W        W19751  43.476  39.023  12.960
60216W        W19752   3.398  29.439   2.406
60217W        W19753  32.945  24.496  11.549
60218W        W19754  30.607  34.916   0.956
60219W        W19755  30.964  20.225   1.702
60220W        W19756  34.594  25.217  10.036
60221W        W19757  36.874   3.808  10.499
60222W        W19758  13.346  37.848   4.298
60223W        W19759  39.817  41.473  10.544
60224W        W19760  11.643  17.702  11.000
60225W        W19761  35.453  11.762  10.461
60226W        W19762  38.551  24.559  10.986
60227W        W19763  10.163   4.333   4.739
60228W        W19764   9.175   7.741   2.825
60229W        W19765  29.499  25.579   3.645
60230W        W19766  37.956   5.293   4.115
60231W        W19767   5.334  38.544  12.087
60232W        W19768  15.298  43.950  14.019
60233W        W19769  18.146   4.761  14.413
60234W        W19770  10.757  36.909   0.418
60235W        W19771   5.340  33.055   2.193
60236W        W19772  24.172  30.639  10.070
60237W        W19773  26.958   3.218   2.672
60238W        W19774  31.613  32.934  12.855
60239W        W19775  44.762  42.896  14.926
60240W        W19776  27.098  23.696   2.859
60241W        W19777  19.539  16.601  11.889
60242W        W19778  35.547  26.184   2.841
60243W        W19779  13.815  38.835   4.133
60244W        W19780  41.937  30.961  11.030
60245W        W19781  13.681  32.925  14.477
60246W        W19782   5.779  44.883  14.765
60247W        W19783   0.970  30.471  13.387
60248W        W19784  26.093  41.941  11.872
60249W        W19785  37.034   5.221   4.173
60250W        W19786  32.089  35.884  13.824
60251W        W19787  34.494   9.677   4.312
60252W        W19788   5.277   2.893   3.342
60253W        W19789  19.264  14.688   0.411
60254W        W19790  29.027  15.822   2.860
60255W        W19791  31.053  20.550  14.285
60256W        W19792  37.559   9.864   3.258
60257W        W19793  16.714   8.281  10.521
60258W        W19794  34.387   7.676  12.550
60259W        W19795  38.987  13.221  14.893
60260W        W19796   7.824   5.222  12.046
60261W        W19797   8.692  44.477   2.752
60262W        W19798  34.405  21.679   1.311
60263W        W19799   0.316  23.139   2.699
60264W        W19800  24.224   6.811   5.602
60265W        W19801  18.101  27.991   4.620
60266W        W19802  36.943  31.987   4.167
60267W        W19803  40.898  40.452  14.424
60268W        W19804   9.677   7.359   2.278
60269W        W19805   0.448  40.943  14.947
60270W        W19806  35.386  13.313   0.783
60271W        W19807   6.847  12.249   3.153
60272W        W19808   2.371   7.385  11.540
60273W        W19809   2.847  24.982   2.395
60274W        W19810   7.315  11.344   1.449
60275W        W19811  34.937  42.307  10.445
60276W        W19812  20.596   0.870  13.530
60277W        W19813  27.574  12.809  14.849
60278W        W19814  19.274  40.350  14.939
60279W        W19815  19.606  10.765  10.528
60280W        W19816  31.636  27.069   0.269
60281W        W19817  42.357  38.434  14.869
60282W        W19818  19.768  30.651  11.966
60283W        W19819  15.765   2.911   2.354
60284W        W19820  25.591  27.602   0.775
60285W        W19821  35.920  39.008   4.780
60286W        W19822  29.532  39.927  12.943
60287W        W19823  41.501  41.507   0.435
60288W        W19824  29.546  14.139  13.528
60289W        W19825  32.415  17.111   4.710
60290W        W19826  41.982  28.061   1.912
60291W        W19827  33.596  12.193  13.027
60292W        W19828  25.050   3.768   1.903
60293W        W19829  44.301  35.547   2.360
60294W        W19830  12.179  31.609   3.756
60295W        W19831   9.646  31.035   4.239
60296W        W19832   5.291  25.059   2.852
60297W        W19833  17.292  20.712   2.759
60298W        W19834  12.816  14.204  11.869
60299W        W19835   4.273  24.230   3.832
60300W        W19836   6.358  41.353   3.858
60301W        W19837  18.765  27.552   3.243
60302W        W19838  42.525  40.924  13.478
60303W        W19839  35.932  38.360  14.311
60304W        W19840  16.128  11.808  14.508
60305W        W19841  32.965  21.625  12.382
60306W        W19842   0.252  38.545  13.313
60307W        W19843  43.829  25.122   3.273
60308W        W19844   1.475  40.456   0.272
60309W        W19845  36.489  36.085  11.408
60310W        W19846   4.732  33.102  10.612
60311W        W19847  20.210  44.470  10.554
60312W        W19848  22.598  23.626   3.249
60313W        W19849   9.799   8.812  12.947
60314W        W19850  43.830  30.113   0.855
60315W        W19851  28.163  37.007  14.313
60316W        W19852   0.364  40.917   3.785
60317W        W19853  44.303  35.567   5.309
60318W        W19854  23.625  16.228  11.584
60319W        W19855   2.756  38.541   1.934
60320W        W19856  21.512  24.577   1.913
60321W        W19857  26.483  39.486   4.257
60322W        W19858  16.813   1.295  11.435
60323W        W19859  31.459   4.810   2.820
60324W        W19860  25.605   7.912   0.848
60325W        W19861   8.830   7.910   3.788
60326W        W19862   8.742  35.465   4.786
60327W        W19863  19.122   0.382  11.445
60328W        W19864  29.548  26.466  11.088
60329W        W19865   4.898  37.068  13.522
60330W        W19866   1.362  29.035  13.310
60331W        W19867  30.586  27.666  10.555
60332W        W19868  23.077  40.976   0.746
60333W        W19869  32.987   0.400   0.734
60334W        W19870  21.227  14.185  11.077
60335W        W19871  24.188  20.668  12.558
60336W        W19872   2.469  26.046  13.957
60337W        W19873  44.879  16.095   1.319
60338W        W19874  18.554  10.845   4.203
60339W        W19875   5.846  32.445  13.882
60340W        W19876  23.028  33.455   2.671
60341W        W19877   3.763   9.295   0.324
60342W        W19878   6.875  32.916  13.472
60343W        W19879   3.340  41.454   2.288
60344W        W19880  24.125  37.888   4.144
60345W        W19881   4.832  35.540  12.924
60346W        W19882   7.767  38.548  12.869
60347W        W19883   5.887  27.528   2.757
60348W        W19884  29.011  32.025   2.294
60349W        W19885   4.376  42.009  10.937
60350W        W19886   6.765  31.481  14.456
60351W        W19887  30.146  35.389   1.809
60352W        W19888   4.288  43.859  10.610
60353W        W19889  38.338  17.077  12.898
60354W        W19890  44.319  17.081   2.698
60355W        W19891  16.603  14.202  12.982
60356W        W19892   3.388   3.846   3.812
60357W        W19893  20.220   0.310   1.759
60358W        W19894  23.544   7.798   4.729
60359W        W19895  35.063  19.215  11.039
60360W        W19896   9.833  34.374   4.242
60361W        W19897  25.167  19.110  11.029
60362W        W19898  28.108  32.404  12.971
60363W        W19899  36.463  14.650   2.848
60364W        W19900  27.158  31.023  12.400
60365W        W19901  25.512  17.237   0.473
60366W        W19902  28.077   3.303  12.891
60367W        W19903   2.960  38.513  13.505
60368W        W19904  20.587  43.798  13.838
60369W        W19905  40.343  12.161   4.298
60370W        W19906  36.419   6.708   2.768
60371W        W19907   8.711  35.494   2.247
60372W        W19908  23.188   4.824   1.801
60373W        W19909   0.820  31.931   1.245
60374W        W19910  36.542  11.680  10.994
60375W        W19911  18.674  27.687   0.891
60376W        W19912   5.427  12.685   0.305
60377W        W19913   7.378  29.598   4.821
60378W        W19914  11.754   6.319  11.489
60379W        W19915  29.483  16.682   2.313
60380W        W19916  21.173   0.459   5.285
60381W        W19917   8.196  16.789  10.608
60382W        W19918  36.536  13.154  11.962
60383W        W19919   1.871  39.887   1.379
60384W        W19920  26.996  29.566   9.945
60385W        W19921  32.619  35.517   0.775
60386W        W19922  15.219  31.954  11.866
60387W        W19923  33.131  26.118   2.395
60388W        W19924  21.245  22.528   4.768
60389W        W19925  37.395   0.410   3.323
60390W        W19926  31.936  31.057   1.418
60391W        W19927  39.962  33.499   1.721
60392W        W19928   9.849   0.280  13.975
60393W        W19929  19.611  30.515   3.219
60394W        W19930  39.915  43.407   3.241
60395W        W19931  15.227  27.138  13.376
60396W        W19932  34.878   7.175  14.812
60397W        W19933  16.316  12.782   5.087
60398W        W19934  42.950  37.375   0.450
60399W        W19935   4.296   1.974   2.828
60400W        W19936  42.978  27.960   4.660
60401W        W19937  31.928   6.195   3.193
60402W        W19938   1.969  11.151  11.117
60403W        W19939  26.124  17.110   4.764
60404W        W19940   8.660  24.178  12.049
60405W        W19941  34.964  36.086   3.679
60406W        W19942  38.827  24.109   3.783
60407W        W19943  40.913  39.911  13.840
60408W        W19944  25.475  23.563   2.402
60409W        W19945  21.569  10.247  12.440
60410W        W19946  42.990  26.649  13.988
60411W        W19947  28.013  22.590  12.075
60412W        W19948  29.924   8.736   5.113
60413W        W19949  28.036  27.514   4.354
60414W        W19950  20.739   9.728  13.980
60415W        W19951   8.705  38.928  12.460
60416W        W19952  33.923  37.985   0.451
60417W        W19953   9.280  25.634   0.255
60418W        W19954  12.735  19.677   0.791
60419W        W19955  15.603  29.483   3.773
60420W        W19956  22.674  11.289   0.407
60421W        W19957  22.234  15.694  10.512
60422W        W19958  11.850  34.880   2.254
60423W        W19959  17.141  17.742   3.367
60424W        W19960   9.830  18.084   0.921
60425W        W19961  29.039  40.899  10.577
60426W        W19962  20.115  38.422   0.296
60427W        W19963  35.953  27.634   3.738
60428W        W19964  40.823   9.234  12.070
60429W        W19965   8.373  40.469  13.895
60430W        W19966  37.925  25.966  11.012
60431W        W19967  13.740  16.805  12.426
60432W        W19968  14.779   4.292   3.223
60433W        W19969  19.623  41.033  14.357
60434W        W19970  33.101   9.199  13.378
60435W        W19971  15.100  40.928   0.421
60436W        W19972  20.061  34.607   4.668
60437W        W19973   3.861  13.337  10.598
60438W        W19974  35.070  33.616   1.795
60439W        W19975  31.959   7.229   3.679
60440W        W19976  43.349   4.408  12.941
60441W        W19977  22.706  33.613  12.413
60442W        W19978   6.410   4.357   3.240
60443W        W19979  23.566  34.528   0.256
60444W        W19980  17.639   6.802   3.206
60445W        W19981  34.420  30.916  11.935
60446W        W19982   7.771  12.692  13.389
60447W        W19983  43.864  27.550   1.411
60448W        W19984  38.866  36.045   1.786
60449W        W19985  11.247  31.927  12.341
60450W        W19986  20.135  43.967  10.485
60451W        W19987  27.038  42.480   0.288
60452W        W19988  38.896  10.312  12.030
60453W        W19989   8.267  36.091   1.699
60454W        W19990  24.150   8.709   9.978
60455W        W19991  16.108  39.869   4.668
60456W        W19992  33.974  40.427   2.692
60457W        W19993  29.523  20.743   0.868
60458W        W19994  13.697   4.816  11.547
60459W        W19995  30.100   1.398   4.175
60460W        W19996  28.150   2.803   2.334
60461W        W19997  28.629  39.967   3.738
60462W        W19998  13.188   1.925  10.104
60463W        W19999  19.223  39.838  12.407
60464W        W20000  40.392  24.708   0.778
60465W        W20001   1.368   1.926   1.436
60466W        W20002  15.328  16.302   0.272
60467W        W20003   4.768   0.764  13.970
60468W        W20004  31.003  28.948   1.320
60469W        W20005  36.859  28.014   2.288
60470W        W20006  35.424  29.986  14.359
60471W        W20007  43.884  40.871   2.305
60472W        W20008  25.161  24.034  10.971
60473W        W20009  38.450  14.639  12.088
60474W        W20010  25.117  11.642  11.886
60475W        W20011  39.055  22.182   3.707
60476W        W20012  13.272  17.767   0.944
60477W        W20013   7.772  12.821  10.623
60478W        W20014  40.506  33.408  14.875
60479W        W20015  36.442  24.117   0.949
60480W        W20016  21.714  34.548  14.815
60481W        W20017  38.974  43.490   3.151
60482W        W20018  44.275   0.937   0.292
60483W        W20019  43.393  16.316   1.859
60484W        W20020  21.179   0.355  12.375
60485W        W20021  39.323  39.408  12.083
60486W        W20022  23.599   8.656   1.754
60487W        W20023   1.446  32.623  11.112
60488W        W20024  20.548  17.200  14.906
60489W        W20025  12.180  43.503  10.925
60490W        W20026  39.833  14.682  10.938
60491W        W20027  21.241   3.912  14.380
60492W        W20028   5.195  11.717  10.407
60493W        W20029  33.478  13.212  11.096
60494W        W20030  17.243  34.890   4.158
60495W        W20031  32.070  23.514   5.121
60496W        W20032  20.704  44.794  14.347
60497W        W20033  13.324  11.865  10.141
60498W        W20034  23.163  15.810   1.417
60499W        W20035  30.415  15.286  13.882
60500W        W20036  14.800  30.992  10.570
60501W        W20037  12.696  13.624   2.373
60502W        W20038  24.084  41.331   0.913
60503W        W20039  40.325  18.201  12.379
60504W        W20040  14.127  36.436  11.404
60505W        W20041  16.143  18.240   2.850
60506W        W20042   9.227  40.503   2.832
60507W        W20043  12.201  39.521  12.967
60508W        W20044  13.162  14.823   4.117
60509W        W20045  22.670  11.339   4.751
60510W        W20046  31.059  15.249  13.056
60511W        W20047  32.547  30.149   3.729
60512W        W20048  38.860  37.376   1.376
60513W        W20049  16.309   2.247  13.059
60514W        W20050  44.984  38.951  11.904
60515W        W20051  17.586   7.221  14.458
60516W        W20052  37.034  40.377   1.435
60517W        W20053   1.754   5.317  14.358
60518W        W20054  36.450  29.670  14.961
60519W        W20055  16.773  42.890   4.269
60520W        W20056  43.406  39.969   4.232
60521W        W20057  42.508  14.792   3.778
60522W        W20058   5.721   4.716  14.968
60523W        W20059  22.520  32.133  14.870
60524W        W20060   3.722  16.233   3.370
60525W        W20061  16.170  38.563  13.415
60526W        W20062  23.541  43.984  11.904
60527W        W20063  33.619   6.219  13.324
60528W        W20064  36.486  32.130   3.815
60529W        W20065  18.114   6.188  12.343
60530W        W20066  18.164   4.702   1.708
60531W        W20067  18.770  12.326   4.298
60532W        W20068  12.260  19.159   1.361
60533W        W20069  25.159  11.167   1.709
60534W        W20070  35.455  33.101   3.648
60535W        W20071  35.447  25.642  12.459
60536W        W20072   8.757  38.532   2.727
60537W        W20073   3.421  34.492   1.421
60538W        W20074  44.787  12.218   3.270
60539W        W20075  41.298   2.441   1.853
60540W        W20076  30.082  36.406   3.647
60541W        W20077   4.305  15.732  13.939
60542W        W20078  18.192  44.287   3.314
60543W        W20079  18.611   3.876   1.706
60544W        W20080  26.048  24.018   2.197
60545W        W20081  41.535  10.377  12.920
60546W        W20082   2.384  36.587   3.255
60547W        W20083  17.138  31.010  12.037
60548W        W20084  25.116  28.673   0.812
60549W        W20085   7.828  30.486   9.965
60550W        W20086  40.804  26.683  12.949
60551W        W20087  30.514  26.554   2.360
60552W        W20088   9.860  41.414   4.743
60553W        W20089  25.675  43.410  13.864
60554W        W20090   1.270  38.525  13.505
60555W        W20091  36.989  37.548  14.502
60556W        W20092  35.586  11.176   3.291
60557W        W20093  14.270   2.925  11.947
60558W        W20094  33.007  43.937  14.946
60559W        W20095  39.997  27.046  13.893
60560W        W20096  24.221  42.377  12.492
60561W        W20097  10.787  17.215   0.790
60562W        W20098  29.158  17.745   2.386
60563W        W20099  30.581  38.337  14.772
60564W        W20100  23.664   4.846  13.444
60565W        W20101  41.537  20.726  11.591
60566W        W20102  25.985  36.057  14.287
60567W        W20103  31.488  43.017  13.475
60568W        W20104  19.678  43.304   4.612
60569W        W20105  21.079   5.334   3.220
60570W        W20106   8.198  22.080   2.226
60571W        W20107  15.315  22.222   0.330
60572W        W20108  38.986  38.378  11.982
60573W        W20109   1.367  20.182   2.700
60574W        W20110  28.498  22.246  13.885
60575W        W20111   7.223  38.335  14.800
60576W        W20112  44.315  20.757  14.383
60577W        W20113  19.672  10.286   1.802
60578W        W20114  29.667  14.797  12.554
60579W        W20115   2.873   9.302  12.362
60580W        W20116  31.002  12.756   5.213
60581W        W20117  12.247  39.916   4.116
60582W        W20118   0.350  33.036  11.460
60583W        W20119  15.578   7.899  13.365
60584W        W20120   9.394  23.999   2.662
60585W        W20121  22.599   3.313  14.873
60586W        W20122  15.613  44.901   2.730
60587W        W20123  39.055  37.860   2.678
60588W        W20124   6.800  20.189  11.507
60589W        W20125  15.205   1.969   4.614
60590W        W20126   5.308  19.746  12.412
60591W        W20127  35.954  29.535  14.764
60592W        W20128  18.062  41.478   0.285
60593W        W20129  31.537  14.659  11.112
60594W        W20130  44.486   1.266   0.794
60595W        W20131  36.572   3.417   2.414
60596W        W20132  41.475  20.260  10.464
60597W        W20133   3.762  26.031  14.836
60598W        W20134  21.195   9.204  13.964
60599W        W20135  30.085  13.631  10.914
60600W        W20136  21.065   1.402   4.636
60601W        W20137  24.992  20.565  12.983
60602W        W20138  44.811  36.001  14.494
60603W        W20139  28.526   0.890   0.433
60604W        W20140   4.399  35.946  12.398
60605W        W20141  37.343   7.756  11.076
60606W        W20142  18.270  43.007  11.564
60607W        W20143  19.596  37.000  13.462
60608W        W20144   8.205  38.832   1.804
60609W        W20145  36.015  20.188  11.019
60610W        W20146  10.638  43.319   4.743
60611W        W20147  31.132  27.944   4.275
60612W        W20148  14.338  24.558   0.441
60613W        W20149  17.670  39.900   2.299
60614W        W20150   2.446   6.872   4.155
60615W        W20151  22.668   3.421  14.435
60616W        W20152  40.973  34.455  14.988
60617W        W20153  18.749  27.044   1.801
60618W        W20154  42.514  30.145  13.518
60619W        W20155  24.504  22.024   3.166
60620W        W20156   3.724   0.862  13.448
60621W        W20157   2.401  32.946  14.478
60622W        W20158  28.475  31.116  14.336
60623W        W20159  18.137   0.868  13.945
60624W        W20160  14.607  38.969  12.912
60625W        W20161  31.467  14.287  11.414
60626W        W20162  13.293  29.079   1.855
60627W        W20163  16.712  41.356  12.414
60628W        W20164  22.996  14.814  12.951
60629W        W20165  27.461  21.042  13.851
60630W        W20166  33.006  19.095  12.018
60631W        W20167  22.232  18.584  11.916
60632W        W20168   9.823  26.636   4.243
60633W        W20169  11.266  28.007   0.328
60634W        W20170  30.425  38.439  13.998
60635W        W20171   4.916  42.324   2.817
60636W        W20172  34.926  31.014   4.780
60637W        W20173  42.004  26.524  11.579
60638W        W20174  40.859  38.413  14.765
60639W        W20175   8.736   6.742  11.482
60640W        W20176  44.343  39.331   2.389
60641W        W20177  44.367  13.275  11.504
60642W        W20178  35.493  19.048   3.229
60643W        W20179  14.749  22.084   0.929
60644W        W20180  31.951  20.115  12.848
60645W        W20181  19.234  24.053  10.069
60646W        W20182  43.287  39.455  14.785
60647W        W20183  25.030  33.539   0.791
60648W        W20184  40.845  25.650   4.187
60649W        W20185  17.783  35.914   1.426
60650W        W20186  38.545  33.008  11.428
60651W        W20187  17.797  25.171  11.402
60652W        W20188  13.228   6.415  10.445
60653W        W20189  31.505  26.106  13.946
60654W        W20190   5.857   5.387  14.317
60655W        W20191  17.212  39.974   0.375
60656W        W20192  17.578  39.066   2.711
60657W        W20193  43.503  23.070  12.446
60658W        W20194  14.133  41.461   2.816
60659W        W20195  29.611  14.646   2.352
60660W        W20196  13.292  18.727  12.467
60661W        W20197   2.285   8.327  10.410
60662W        W20198  29.169  24.173   2.686
60663W        W20199  12.346  23.226   1.884
60664W        W20200   4.443  43.405  10.994
60665W        W20201   3.342   0.465   4.639
60666W        W20202  27.512   2.264  13.470
60667W        W20203  15.099  17.142  11.011
60668W        W20204   7.178   1.879   2.798
60669W        W20205  19.250  37.444   0.870
60670W        W20206  37.045   1.813  14.319
60671W        W20207  15.707   8.864  11.016
60672W        W20208  41.360  17.706  13.407
60673W        W20209  11.672  36.406  10.603
60674W        W20210  31.153  23.579  11.544
60675W        W20211  26.991  20.104  11.428
60676W        W20212  43.371   1.871  13.809
60677W        W20213   7.714  41.365   1.898
60678W        W20214   9.215  33.433  13.424
60679W        W20215   4.886  40.389   1.878
60680W        W20216  42.445  41.355  12.089
60681W        W20217  42.983   9.827  14.448
60682W        W20218  24.173  23.727   1.441
60683W        W20219  22.085  42.793  11.529
60684W        W20220  27.117   9.660   2.414
60685W        W20221  17.586   5.432  11.469
60686W        W20222  44.781   9.158   3.311
60687W        W20223  20.594  14.592   3.158
60688W        W20224   7.272  38.432  10.625
60689W        W20225  15.809  23.716  13.448
60690W        W20226  20.124  22.161   0.928
60691W        W20227   1.899  33.595   4.729
60692W        W20228  35.524  34.965  13.836
60693W        W20229   3.786   2.458  14.791
60694W        W20230   3.223   7.831  10.497
60695W        W20231   9.161   3.267  11.092
60696W        W20232  19.647  43.474   5.111
60697W        W20233   5.285   6.340   2.792
60698W        W20234   8.327   2.896  11.509
60699W        W20235   3.315  21.660  10.603
60700W        W20236  26.674  42.345   4.637
60701W        W20237   2.944  39.889  11.102
60702W        W20238   9.245  31.066   9.517
60703W        W20239  28.963  36.412  11.542
60704W        W20240  34.912   7.759   2.285
60705W        W20241  37.897   2.852   0.415
60706W        W20242  17.770  25.655  14.976
60707W        W20243   5.235   4.429   0.830
60708W        W20244  30.413   2.229   3.783
60709W        W20245  42.508  37.567  14.458
60710W        W20246  21.618  18.580   4.616
60711W        W20247   0.422  37.931   4.694
60712W        W20248  28.181   5.725  11.411
60713W        W20249  12.647   1.285  13.029
60714W        W20250  34.906   8.238   1.725
60715W        W20251  20.555  23.061  10.617
60716W        W20252  37.354  19.105   4.805
60717W        W20253   0.898  13.147   0.833
60718W        W20254  24.559   2.235   3.251
60719W        W20255  42.838  23.586   3.646
60720W        W20256  23.648  36.533   3.233
60721W        W20257  41.363  12.357  12.054
60722W        W20258  16.627  37.908  11.418
60723W        W20259  34.921  29.455  10.502
60724W        W20260  10.334  13.137  13.945
60725W        W20261  32.916  27.030   1.339
60726W        W20262   8.267   1.350   2.734
60727W        W20263  12.241  26.457   0.243
60728W        W20264  32.913   6.350  13.340
60729W        W20265  29.131  14.301  11.543
60730W        W20266  33.016  23.995  13.018
60731W        W20267   4.410   5.700   1.251
60732W        W20268   8.687  30.158  13.376
60733W        W20269   4.221   9.157  12.845
60734W        W20270  12.138   2.270   2.308
60735W        W20271   6.272  16.142  11.372
60736W        W20272  40.910  14.783   4.276
60737W        W20273  16.214  44.969  11.446
60738W        W20274   6.311  35.599   2.808
60739W        W20275  35.015  18.057   1.333
60740W        W20276  34.525  35.097   2.885
60741W        W20277  41.462  18.229  14.019
60742W        W20278  29.571   8.817  14.800
60743W        W20279   0.962  40.405   1.899
60744W        W20280  44.504  14.603  11.011
60745W        W20281  22.198  40.888   3.334
60746W        W20282  30.990  10.707   1.912
60747W        W20283   2.777  41.436  10.962
60748W        W20284  17.084  30.982  10.089
60749W        W20285  29.134  30.584   0.781
60750W        W20286  42.947  35.885   1.271
60751W        W20287  11.319  24.520   2.275
60752W        W20288  13.208   0.306   4.670
60753W        W20289   7.294  33.431   4.172
60754W        W20290  30.919  14.120   0.422
60755W        W20291  20.036   0.827  11.449
60756W        W20292   8.310  26.565  12.844
60757W        W20293  11.631  23.665  13.885
60758W        W20294   1.425  13.118  12.856
60759W        W20295   2.866  32.896  13.503
60760W        W20296  10.331  16.774   2.385
60761W        W20297  19.546  36.023   1.765
60762W        W20298  38.456   4.268  12.578
60763W        W20299  25.067  26.060  10.574
60764W        W20300  31.549   4.219   2.352
60765W        W20301  27.615  19.581   3.186
60766W        W20302   4.232  13.248   1.925
60767W        W20303   2.461  42.850  11.388
60768W        W20304  17.105  44.497   1.823
60769W        W20305  26.976  30.047   1.871
60770W        W20306  10.242   5.728  13.531
60771W        W20307  30.658  26.491   4.654
60772W        W20308  11.792   9.388  13.398
60773W        W20309  16.780  13.169  12.938
60774W        W20310  39.347   2.261  11.562
60775W        W20311  12.684  32.068   5.206
60776W        W20312  18.695  24.618  12.830
60777W        W20313  39.888   0.482  12.003
60778W        W20314  31.645  41.525  13.460
60779W        W20315   0.814  35.582  11.962
60780W        W20316  22.510  24.663   2.306
60781W        W20317  18.729   5.757   2.392
60782W        W20318   5.439  18.718   2.235
60783W        W20319  22.612  21.229  13.383
60784W        W20320  35.463  24.518  10.044
60785W        W20321   8.202  25.196  11.086
60786W        W20322  11.348  44.759  10.610
60787W        W20323   6.280  13.753  11.971
60788W        W20324   5.307  10.759  12.488
60789W        W20325  28.548   8.321   0.380
60790W        W20326   4.205  24.092   4.312
60791W        W20327   6.410   4.790  10.114
60792W        W20328  41.497   8.730   3.828
60793W        W20329  38.377  42.777   4.352
60794W        W20330  31.509   6.902  11.860
60795W        W20331  17.690  15.583   3.182
60796W        W20332  36.012  19.109   4.255
60797W        W20333  21.751  24.582   0.810
60798W        W20334  27.098  36.560   0.458
60799W        W20335   5.437  25.150  12.451
60800W        W20336   5.213  14.776  12.531
60801W        W20337  11.865  11.164   1.824
60802W        W20338  22.666   8.334   0.368
60803W        W20339   7.887  18.737  14.801
60804W        W20340   3.348  11.284   3.167
60805W        W20341   2.724  22.030   4.656
60806W        W20342  38.325   2.896   1.379
60807W        W20343  21.206  14.644   4.309
60808W        W20344  30.463  13.656  14.021
60809W        W20345   2.939  14.153  14.810
60810W        W20346  42.514  14.153  12.502
60811W        W20347  15.189  11.780  14.386
60812W        W20348  27.156  10.695   2.690
60813W        W20349  33.114  38.476   3.315
60814W        W20350  34.515  13.260  12.055
60815W        W20351   3.407  39.462  13.801
60816W        W20352  14.620   8.753   0.429
60817W        W20353  35.896  32.414  13.811
60818W        W20354  21.713   0.814  14.002
60819W        W20355  43.270  18.573  12.072
60820W        W20356  42.930  40.336  13.000
60821W        W20357  36.867  21.193  13.875
60822W        W20358  26.539  44.289  11.528
60823W        W20359  25.103   9.182  12.076
60824W        W20360   2.794  23.712  14.794
60825W        W20361  16.705   4.257   1.854
60826W        W20362  20.269   2.815   2.312
60827W        W20363  37.417   7.175  10.084
60828W        W20364   5.807  33.479  11.502
60829W        W20365   7.740   9.246  12.441
60830W        W20366   0.776  26.021   1.392
60831W        W20367  36.044  13.634   2.869
60832W        W20368   7.814  23.627   2.892
60833W        W20369  44.814   4.312   4.344
60834W        W20370  26.545  37.082  10.108
60835W        W20371  30.137  29.145  10.112
60836W        W20372  35.966  33.094  11.100
60837W        W20373   5.711  19.656   5.162
60838W        W20374  12.182  25.086   2.221
60839W        W20375   3.297  18.156  10.951
60840W        W20376  23.705  43.468   3.770
60841W        W20377  29.983   6.360   0.742
60842W        W20378  37.912  25.580   0.771
60843W        W20379   3.420  36.542  10.508
60844W        W20380  26.960   7.191  12.063
60845W        W20381  16.704  12.245   1.261
60846W        W20382  17.586  29.157  14.995
60847W        W20383  27.668  34.955   2.318
60848W        W20384   1.325  28.134   4.267
60849W        W20385   2.329  18.596   4.779
60850W        W20386  11.281  18.550  11.487
60851W        W20387  37.874  23.089  10.582
60852W        W20388  38.990  21.579  10.026
60853W        W20389  41.805  33.619  14.349
60854W        W20390  17.617   9.848   0.338
60855W        W20391  10.861   0.802  10.983
60856W        W20392  24.579  35.061  10.066
60857W        W20393  16.072  16.637   3.195
60858W        W20394  33.112  36.455   1.398
60859W        W20395  38.029  40.396   3.649
60860W        W20396  28.168  19.108  14.846
60861W        W20397  41.501   6.318  11.993
60862W        W20398  32.915  26.070  12.982
60863W        W20399  12.305  10.803   0.943
60864W        W20400  33.609  38.992  13.913
60865W        W20401   5.734  37.052   0.802
60866W        W20402  25.651   6.253   3.358
60867W        W20403  29.633  14.679   0.871
60868W        W20404  36.512   7.265   3.194
60869W        W20405  12.273  20.708   2.406
60870W        W20406  27.665  17.795  13.013
60871W        W20407   5.340  14.259   1.330
60872W        W20408  11.224  34.575  11.934
60873W        W20409  23.730  17.071  14.929
60874W        W20410  25.590  29.615  12.925
60875W        W20411  30.573  23.586  13.852
60876W        W20412   1.822  28.522  13.792
60877W        W20413  41.529  33.008   3.636
60878W        W20414   0.419  39.976   4.239
60879W        W20415   5.779  24.644   3.354
60880W        W20416  12.131  19.549  11.012
60881W        W20417  29.442  36.933   3.387
60882W        W20418   5.235  44.984  13.056
60883W        W20419   7.403   5.415  10.502
60884W        W20420   4.909  40.303   1.228
60885W        W20421  20.205  42.928   1.733
60886W        W20422  24.592  35.937  13.819
60887W        W20423  24.183  25.212   3.351
60888W        W20424   1.901  27.034   5.752
60889W        W20425  26.066  23.557   1.891
60890W        W20426  38.526  41.344   1.776
60891W        W20427  44.341   9.308  10.050
60892W        W20428  15.267  10.314  11.943
60893W        W20429  19.055  28.974   0.391
60894W        W20430   3.774  11.368   0.432
60895W        W20431   5.268   2.776  12.939
60896W        W20432  21.585  38.836  13.909
60897W        W20433  11.153  37.473  13.868
60898W        W20434  11.816  44.859  14.485
60899W        W20435  30.592   6.363   3.706
60900W        W20436   9.881  31.130  10.936
60901W        W20437  18.761  20.204   0.294
60902W        W20438  32.539   8.317  13.889
60903W        W20439  20.719  15.797  12.964
60904W        W20440  31.073  38.526   0.440
60905W        W20441  39.968  30.602   4.278
60906W        W20442   1.383  17.101  13.796
60907W        W20443  14.688   7.801  13.467
60908W        W20444  37.940  43.848   1.711
60909W        W20445  25.012  28.558  11.404
60910W        W20446  26.519   8.830   4.222
60911W        W20447  17.801   6.795   3.633
60912W        W20448   8.760  23.144  14.436
60913W        W20449  26.111  19.192  14.950
60914W        W20450   7.395  44.817   2.367
60915W        W20451  14.805  11.317   0.339
60916W        W20452   3.311  32.523   3.834
60917W        W20453  43.767   9.343  12.071
60918W        W20454  14.194  27.489   0.446
60919W        W20455  35.382  26.004   4.695
60920W        W20456   8.238   5.265   3.353
60921W        W20457   8.328  38.858  13.946
60922W        W20458  38.018  23.984  11.376
60923W        W20459   5.764  43.406   0.884
60924W        W20460  41.296  24.169   4.661
60925W        W20461  13.165   7.759   0.870
60926W        W20462  41.476  28.108   2.224
60927W        W20463  14.678   8.815  14.804
60928W        W20464  33.881   0.948   9.507
60929W        W20465  33.473  14.253   1.857
60930W        W20466  11.371  34.588  12.378
60931W        W20467  14.101  43.997  13.009
60932W        W20468  29.450  29.092   1.740
60933W        W20469  14.315  10.646  12.891
60934W        W20470   4.439  22.540  14.417
60935W        W20471  23.710   6.859   0.769
60936W        W20472   2.301  19.745  14.941
60937W        W20473  37.361  33.578  14.964
60938W        W20474  38.951  37.530  13.842
60939W        W20475  34.070  40.347  13.955
60940W        W20476  15.591  14.591   2.841
60941W        W20477  24.055  36.000  11.892
60942W        W20478  14.124   3.379  12.068
60943W        W20479  35.485  16.785   1.335
60944W        W20480  13.765  34.368   3.772
60945W        W20481  30.928  40.906   2.663
60946W        W20482  10.373  30.959  14.477
60947W        W20483  40.469   1.397   0.875
60948W        W20484  37.966  25.018  13.968
60949W        W20485  34.959  37.448  12.577
60950W        W20486  13.816  25.688   3.722
60951W        W20487   3.745   0.871  14.825
60952W        W20488  24.143   7.802  12.039
60953W        W20489   0.366   8.833   2.789
60954W        W20490  32.931  36.067  10.515
60955W        W20491  42.781  37.948   0.429
60956W        W20492  40.476  29.070   1.256
60957W        W20493  40.989   4.755   0.440
60958W        W20494  13.229   8.857  10.976
60959W        W20495  13.133  33.597   5.253
60960W        W20496  19.706   6.226  12.957
60961W        W20497  36.503  12.172  14.780
60962W        W20498  30.588  15.283   4.771
60963W        W20499  44.334  27.569   0.948
60964W        W20500  11.641  30.916   2.662
60965W        W20501  33.965  14.707  10.605
60966W        W20502  15.166  34.505   2.286
60967W        W20503  30.133  39.860  12.515
60968W        W20504  36.889  31.449   2.419
60969W        W20505  36.473  23.556   3.294
60970W        W20506  10.788  26.576   2.193
60971W        W20507   2.757   8.847   4.747
60972W        W20508   7.326  42.885  12.943
60973W        W20509   7.264   6.184   0.820
60974W        W20510  26.027  27.020   2.860
60975W        W20511  23.198  41.841  14.839
60976W        W20512  40.303  17.168  13.927
60977W        W20513   6.820  39.952  12.374
60978W        W20514  31.927  40.543   0.426
60979W        W20515  41.357   2.834  11.457
60980W        W20516  20.704  22.120  13.041
60981W        W20517  29.586  44.804  11.863
60982W        W20518  20.702  14.100  12.955
60983W        W20519  14.779  40.867  12.510
60984W        W20520   2.895  23.046  10.443
60985W        W20521  27.621  17.274   0.821
60986W        W20522   9.256  36.514  14.994
60987W        W20523   0.483  22.536  13.325
60988W        W20524   8.723   7.399  12.992
60989W        W20525   4.441  16.652  12.488
60990W        W20526  38.995  10.186  14.866
60991W        W20527  41.339  41.488  14.995
60992W        W20528  24.506  18.740   3.630
60993W        W20529  27.089  40.052   2.302
60994W        W20530  31.061  25.014   2.315
60995W        W20531  24.139  30.960  10.637
60996W        W20532  17.239  20.232  12.569
60997W        W20533   4.313  26.062   0.301
60998W        W20534  25.064   6.291   2.697
60999W        W20535  39.037  21.075  10.006
61000W        W20536  44.500  23.013  10.472
61001W        W20537  14.276  14.309  14.275
61002W        W20538   3.910  33.476   3.258
61003W        W20539   8.282  32.548  10.472
61004W        W20540  41.371   7.236  10.602
61005W        W20541  42.821  38.520  13.875
61006W        W20542  33.966  23.199   1.841
61007W        W20543  33.974  38.369  14.397
61008W        W20544   6.250  33.948  11.494
61009W        W20545  30.616  27.172  10.946
61010W        W20546  22.035  35.529  14.295
61011W        W20547  10.783  38.368  10.567
61012W        W20548  44.842  23.578   4.119
61013W        W20549  33.517  35.603   3.380
61014W        W20550  25.179   8.380  13.059
61015W        W20551  36.855  28.538   1.857
61016W        W20552  14.100  42.784   4.167
61017W        W20553  33.459  28.603   0.752
61018W        W20554  21.204  34.867   1.212
61019W        W20555  44.313  17.284   4.246
61020W        W20556   5.749   7.684   3.156
61021W        W20557   8.839  43.465   2.260
61022W        W20558  21.160  31.513   5.156
61023W        W20559   3.870  14.711   0.823
61024W        W20560  32.122  41.314   4.646
61025W        W20561  34.510  35.984   1.442
61026W        W20562  13.664  32.027  12.963
61027W        W20563  12.254  26.204  11.410
61028W        W20564  16.092  21.693   1.887
61029W        W20565  28.656  31.974  13.991
61030W        W20566  28.944  17.111   4.223
61031W        W20567  41.908   2.865  11.977
61032W        W20568  23.107  10.670  12.359
61033W        W20569  36.452  17.724   0.439
61034W        W20570   6.813  36.846  13.990
61035W        W20571   5.231  34.531   4.346
61036W        W20572  20.244   2.895   4.274
61037W        W20573  23.689  36.894   3.343
61038W        W20574   7.707  23.504  11.456
61039W        W20575  34.388  33.060   1.359
61040W        W20576  41.359  25.692   0.802
61041W        W20577   8.744  25.131  13.791
61042W        W20578  21.612  38.526  12.891
61043W        W20579  40.935  20.077  10.900
61044W        W20580  19.140  17.750  14.345
61045W        W20581  42.497   5.264  14.427
61046W        W20582  41.869  43.460   4.795
61047W        W20583   3.227  36.902   0.833
61048W        W20584  19.757  39.881  12.043
61049W        W20585  11.242   9.201  14.872
61050W        W20586  31.954   7.292  12.081
61051W        W20587  34.018   5.796  13.422
61052W        W20588  10.680   4.762  13.438
61053W        W20589   0.259   3.880   2.667
61054W        W20590  26.141  10.714  14.489
61055W        W20591  10.669  16.575   3.333
61056W        W20592  41.382  13.795  13.885
61057W        W20593  36.417  26.613   2.356
61058W        W20594   7.233  36.047  12.917
61059W        W20595  22.117   0.927  11.606
61060W        W20596  31.594  31.442  12.083
61061W        W20597  14.313  22.203  14.862
61062W        W20598  40.526  36.984   2.901
61063W        W20599  31.559  26.080  14.996
61064W        W20600  16.785   2.347  10.594
61065W        W20601   2.430  14.144   1.295
61066W        W20602   3.840  23.599   1.399
61067W        W20603  17.295   4.788  13.914
61068W        W20604   3.223  42.976   4.351
61069W        W20605   7.329  13.344   4.649
61070W        W20606   5.842  25.129  14.442
61071W        W20607  40.310   4.911  11.037
61072W        W20608   0.927  34.953   3.791
61073W        W20609  17.277  33.881  11.877
61074W        W20610  18.736  11.671  10.949
61075W        W20611  40.538  11.319  14.380
61076W        W20612  23.986   0.743   4.678
61077W        W20613   0.436  15.096   1.214
61078W        W20614  29.610  22.169   4.829
61079W        W20615   6.830  42.792   1.875
61080W        W20616   9.180  30.144  11.020
61081W        W20617  24.224  10.364  12.375
61082W        W20618  21.080  12.755  14.363
61083W        W20619  10.857  10.794  10.914
61084W        W20620  23.136  21.200  12.828
61085W        W20621  32.933  26.579   1.229
61086W        W20622  39.557   3.285  14.812
61087W        W20623  14.261  31.930  10.575
61088W        W20624  14.647   7.226  10.148
61089W        W20625   0.432  42.280   3.350
61090W        W20626  20.076   4.870  14.813
61091W        W20627  40.870  44.902   1.828
61092W        W20628  16.287  41.530   2.671
61093W        W20629  30.113  25.205   2.779
61094W        W20630  21.571   6.834  13.508
61095W        W20631   0.892  27.577  14.495
61096W        W20632   5.715   6.184   0.447
61097W        W20633  11.212   3.419   1.355
61098W        W20634  12.158  26.126   4.822
61099W        W20635  16.237   1.310   1.326
61100W        W20636   3.739   5.327  10.970
61101W        W20637  20.209  14.115  10.529
61102W        W20638  26.503  21.141   3.364
61103W        W20639   2.925  31.629   2.806
61104W        W20640  39.841  10.787  14.318
61105W        W20641  37.543  25.048   0.447
61106W        W20642  27.527  43.814  10.474
61107W        W20643  15.722  39.878   3.844
61108W        W20644   5.346  41.833  11.956
61109W        W20645   1.410  18.255  14.432
61110W        W20646  36.539  42.788   3.190
61111W        W20647  34.007  41.422  14.847
61112W        W20648  25.197  27.051   2.295
61113W        W20649  42.803  22.578   0.758
61114W        W20650  28.519   5.857  14.928
61115W        W20651  37.971   8.830  14.373
61116W        W20652   8.762  33.112  10.896
61117W        W20653   8.716  34.991   5.312
61118W        W20654   9.680  19.759  12.894
61119W        W20655  21.737  22.679   1.717
61120W        W20656  20.681  37.458  14.319
61121W        W20657  17.644  13.686   0.458
61122W        W20658  18.062   2.820   3.326
61123W        W20659  11.764   0.966   0.373
61124W        W20660  32.604  36.038   1.786
61125W        W20661  24.524   3.266   0.875
61126W        W20662   9.159  18.646   3.844
61127W        W20663  39.917  38.918  14.413
61128W        W20664  21.164  27.550  11.034
61129W        W20665  44.389  16.761  12.079
61130W        W20666   7.729  16.692   3.354
61131W        W20667  40.459  12.217  11.022
61132W        W20668  21.608  41.461  10.998
61133W        W20669   8.847  42.486   4.327
61134W        W20670  16.690  33.511   3.236
61135W        W20671  14.226  18.590   1.446
61136W        W20672   6.845   3.716   4.245
61137W        W20673  24.053  31.949  13.898
61138W        W20674  15.630  33.411  11.459
61139W        W20675  42.917  19.204  13.031
61140W        W20676  17.190  39.383   9.969
61141W        W20677   4.441  15.687   2.243
61142W        W20678  20.107  13.619   4.320
61143W        W20679  20.190  23.736  12.824
61144W        W20680  28.471  30.510   1.808
61145W        W20681  19.568   5.426   0.305
61146W        W20682   6.797  37.916   4.602
61147W        W20683  34.610  26.482  13.453
61148W        W20684  32.055  27.454   5.265
61149W        W20685  14.339  14.207  13.051
61150W        W20686  23.566  40.860   3.747
61151W        W20687  18.106  29.073  13.366
61152W        W20688  17.660  12.833  11.067
61153W        W20689  16.808  25.077   0.367
61154W        W20690   7.173  15.777   4.798
61155W        W20691  31.150  29.614  12.536
61156W        W20692  37.480  11.633   4.251
61157W        W20693  17.125  29.996  13.887
61158W        W20694  34.068  21.650   4.324
61159W        W20695  27.167  20.115  12.908
61160W        W20696  28.539   3.839  10.441
61161W        W20697  39.481  24.006   0.415
61162W        W20698   7.264  35.979  14.982
61163W        W20699  30.448  36.571   4.684
61164W        W20700  40.868  33.412   3.209
61165W        W20701  24.199   7.846   3.662
61166W        W20702   5.775  41.422   0.339
61167W        W20703  39.836  30.028   4.134
61168W        W20704  35.964  41.489   1.239
61169W        W20705  14.763  31.082  10.992
61170W        W20706  13.767   6.754  11.538
61171W        W20707  34.106  14.718  13.536
61172W        W20708  39.400   1.752  10.596
61173W        W20709  26.034  20.523  12.088
61174W        W20710  36.474  32.072  12.951
61175W        W20711  41.441   7.675  12.572
61176W        W20712  43.467  39.947  13.015
61177W        W20713   9.221  44.815  13.432
61178W        W20714  39.325  40.887   4.721
61179W        W20715  36.878  29.162   4.156
61180W        W20716  21.543  17.682   2.791
61181W        W20717   8.829  19.603  12.371
61182W        W20718  30.133   6.413   2.718
61183W        W20719  13.204  42.492  13.806
61184W        W20720  13.613  12.260   2.418
61185W        W20721   0.444  20.259  10.913
61186W        W20722  23.241  28.504   3.826
61187W        W20723   1.391  12.831   5.184
61188W        W20724  19.591   1.883  10.895
61189W        W20725   9.328  29.013   4.215
61190W        W20726  43.422   3.323   5.310
61191W        W20727   8.283  18.578  11.583
61192W        W20728  38.932  31.483   0.254
61193W        W20729  44.461  29.428  13.388
61194W        W20730  40.497  19.264  12.569
61195W        W20731  11.309   8.874   1.215
61196W        W20732  14.199  15.796  12.879
61197W        W20733   0.832  29.666   2.387
61198W        W20734  14.119  15.275   3.840
61199W        W20735  26.577  22.585  11.572
61200W        W20736  43.788  13.769  11.608
61201W        W20737  10.195  37.061   4.792
61202W        W20738  24.681  16.572  14.782
61203W        W20739  25.498  20.202   3.210
61204W        W20740  37.393  18.728   4.244
61205W        W20741  38.337  31.013   4.732
61206W        W20742  11.203   3.931   4.299
61207W        W20743  10.688  43.934   0.949
61208W        W20744  21.646  40.415   0.339
61209W        W20745  40.389  17.577   4.205
61210W        W20746   0.927  44.482  14.399
61211W        W20747  44.917   7.267   1.761
61212W        W20748  41.386   2.943   0.826
61213W        W20749  38.859   7.885   2.661
61214W        W20750  35.965  22.518  10.436
61215W        W20751  13.730  40.462  12.436
61216W        W20752  14.661  34.872  12.532
61217W        W20753  11.639  35.442   1.356
61218W        W20754  40.456  29.653  10.901
61219W        W20755  25.639  40.447   0.966
61220W        W20756   2.798  38.837   2.328
61221W        W20757  12.264  25.528   2.417
61222W        W20758  29.564  12.658   9.951
61223W        W20759  43.487  30.980   0.259
61224W        W20760  33.419  36.019  11.919
61225W        W20761  38.063  18.671  11.032
61226W        W20762  19.249  31.083   4.781
61227W        W20763  39.936   3.897   1.829
61228W        W20764   9.279  31.449  13.793
61229W        W20765   7.677  41.886   2.204
61230W        W20766  14.748   8.317  14.995
61231W        W20767  27.464  35.085   3.233
61232W        W20768  24.011  10.145   4.663
61233W        W20769  20.535  32.081   2.370
61234W        W20770  27.141   1.828   3.840
61235W        W20771  10.290  38.448  12.350
61236W        W20772  20.696  26.081   4.727
61237W        W20773  24.200  28.094  12.567
61238W        W20774  44.447  30.075  14.416
61239W        W20775  39.419  19.162  11.566
61240W        W20776  24.094  28.443   0.273
61241W        W20777   2.912  43.353   4.310
61242W        W20778  43.800  30.463   1.895
61243W        W20779   9.698  13.694   4.166
61244W        W20780  36.418  29.624  10.544
61245W        W20781  15.252  40.858   1.400
61246W        W20782  39.492  25.559  11.995
61247W        W20783  28.589  11.295  11.508
61248W        W20784  26.667  20.634   0.443
61249W        W20785  36.060  26.179  14.777
61250W        W20786  33.102  32.911   0.461
61251W        W20787  19.265  20.655   3.258
61252W        W20788  35.985  10.376  13.390
61253W        W20789  27.059  32.995   1.243
61254W        W20790  22.568   0.757   5.191
61255W        W20791   8.785  18.201   1.215
61256W        W20792  27.581   9.773  14.475
61257W        W20793  38.366  32.491  12.991
61258W        W20794  21.253  20.732   4.709
61259W        W20795  40.535   3.870   3.630
61260W        W20796  24.553  24.591   2.835
61261W        W20797  18.081  29.556   0.781
61262W        W20798  25.507  19.092   0.280
61263W        W20799  25.045  22.527   3.838
61264W        W20800  25.104  41.496   1.394
61265W        W20801  38.406  30.642   0.895
61266W        W20802  37.340  38.421   1.271
61267W        W20803  32.447  34.085  10.594
61268W        W20804  23.696  14.747  12.998
61269W        W20805  38.007  34.960  12.875
61270W        W20806  20.179  23.170  11.055
61271W        W20807  19.182  14.655   4.218
61272W        W20808  11.716  43.307  12.387
61273W        W20809  35.985  43.372   2.386
61274W        W20810  31.151  17.612  13.985
61275W        W20811  36.056  43.492   3.753
61276W        W20812  20.739  37.859  12.437
61277W        W20813  43.794  27.502  13.500
61278W        W20814  40.338   2.887  11.928
61279W        W20815  33.463   0.979   0.442
61280W        W20816   3.450  36.455   1.300
61281W        W20817  40.491  16.785   1.895
61282W        W20818  13.624  36.053  13.309
61283W        W20819  32.637  28.620   0.454
61284W        W20820  27.556  30.990   1.751
61285W        W20821  21.153  31.913   3.860
61286W        W20822  25.052  25.550   4.114
61287W        W20823  36.024  30.966  11.003
61288W        W20824  42.951  32.083   0.944
61289W        W20825  25.530  24.226  10.506
61290W        W20826  14.614  32.497  13.895
61291W        W20827  29.629  36.909   4.820
61292W        W20828  40.475  44.852   2.321
61293W        W20829  12.252  21.153   3.385
61294W        W20830   7.795  28.179   0.909
61295W        W20831  34.559  27.180   1.795
61296W        W20832  33.057  34.909   2.718
61297W        W20833   0.256   8.292  14.835
61298W        W20834  42.847  21.573   1.357
61299W        W20835  12.244   1.340   2.785
61300W        W20836  31.911   5.396   0.802
61301W        W20837  40.502   6.308  14.963
61302W        W20838  25.495   1.444   1.377
61303W        W20839  40.524   9.842   0.753
61304W        W20840  17.753   6.725   4.805
61305W        W20841  30.953  40.320   1.430
61306W        W20842  30.629  35.397  13.312
61307W        W20843  38.007   3.366  11.955
61308W        W20844  44.891   4.701  10.906
61309W        W20845  23.092   1.899   0.333
61310W        W20846  30.918  40.429  14.835
61311W        W20847  23.134   9.174   4.269
61312W        W20848   2.735  42.342   2.293
61313W        W20849  42.974  36.559   1.935
61314W        W20850  29.134   4.828   4.708
61315W        W20851  24.211   5.780   1.256
61316W        W20852   4.761  30.079  13.532
61317W        W20853  34.602   0.347   4.332
61318W        W20854  33.530   5.347  10.131
61319W        W20855   2.263  15.690  14.345
61320W        W20856  21.655  33.456  10.024
61321W        W20857  44.490   0.901  11.055
61322W        W20858  30.620  44.493  12.375
61323W        W20859  35.005  34.978   1.254
61324W        W20860   6.337  26.080  12.914
61325W        W20861  42.520  10.336   1.894
61326W        W20862  20.593  42.980   5.181
61327W        W20863   4.903   3.305   4.665
61328W        W20864   7.762  11.851  14.866
61329W        W20865  16.237   7.870  10.599
61330W        W20866  30.164   7.319  12.406
61331W        W20867  40.543  40.439   9.946
61332W        W20868   2.390  40.915  10.892
61333W        W20869  38.926   7.236   0.893
61334W        W20870  37.548  26.672  13.496
61335W        W20871  36.498  11.678   3.642
61336W        W20872  20.757  39.998  14.943
61337W        W20873   1.321   0.984  14.377
61338W        W20874   5.349  20.613  14.817
61339W        W20875   2.365  26.157  11.114
61340W        W20876   4.782  24.587  13.392
61341W        W20877   2.943  32.573  10.960
61342W        W20878  34.602  18.602   3.296
61343W        W20879  15.157  37.524  14.969
61344W        W20880  35.362  14.701  10.966
61345W        W20881  34.911  25.006  10.981
61346W        W20882  40.955  42.499  14.852
61347W        W20883  32.942  44.466   2.384
61348W        W20884   1.750  41.000   4.122
61349W        W20885  40.052   7.824  13.498
61350W        W20886  17.588  22.036   1.718
61351W        W20887  34.872  31.459  14.391
61352W        W20888  19.107  13.339   1.244
61353W        W20889  30.923  30.589   1.722
61354W        W20890  43.849  12.756   0.261
61355W        W20891  32.611  14.810  13.315
61356W        W20892  40.944  40.041  13.463
61357W        W20893  44.870   2.297   4.631
61358W        W20894  36.565  27.120   2.382
61359W        W20895  31.580   9.753   3.753
61360W        W20896   3.856  21.182  14.973
61361W        W20897  23.015  20.115  14.777
61362W        W20898  16.586   7.264  10.527
61363W        W20899  19.157  36.957   4.765
61364W        W20900  42.349  32.886   3.831
61365W        W20901  43.459  13.617   3.184
61366W        W20902   7.881   7.778  10.490
61367W        W20903  13.341  31.621   3.643
61368W        W20904  40.811  38.433   0.439
61369W        W20905  31.919  41.303   0.254
61370W        W20906  29.465  25.977  14.476
61371W        W20907  33.537  23.617  13.862
61372W        W20908   2.740   1.976   1.339
61373W        W20909  34.491  25.487   5.114
61374W        W20910  23.618  36.018   2.304
61375W        W20911   5.309   2.885  14.325
61376W        W20912  11.681   4.794   4.678
61377W        W20913  21.690   0.830  10.559
61378W        W20914   7.287  14.803   1.708
61379W        W20915  42.390  24.191  12.991
61380W        W20916  25.671  37.436   0.864
61381W        W20917  24.485  22.605   2.733
61382W        W20918  19.262  44.835   1.391
61383W        W20919  15.791  41.311  11.962
61384W        W20920   1.393  32.425   2.272
61385W        W20921  38.898  37.873   0.438
61386W        W20922  28.019  30.989   4.287
61387W        W20923  30.020  42.409  12.014
61388W        W20924   6.346  29.943   4.605
61389W        W20925  28.054   9.302  11.394
61390W        W20926  26.150  29.072   1.363
61391W        W20927  33.980  15.146  13.330
61392W        W20928   4.431  26.542  11.929
61393W        W20929   7.752  24.578  13.327
61394W        W20930  43.980  40.978  14.401
61395W        W20931  41.360  14.680  10.455
61396W        W20932   6.824  36.081  11.485
61397W        W20933  25.009  29.636   2.199
61398W        W20934   6.909  35.466   3.720
61399W        W20935  44.392  32.489   4.807
61400W        W20936  15.577   7.803   1.443
61401W        W20937  13.760  26.654   3.295
61402W        W20938   0.331  26.529  14.300
61403W        W20939  11.839  11.277  11.865
61404W        W20940  43.912  17.745   3.183
61405W        W20941   1.283  24.085   4.199
61406W        W20942   8.694  15.613   3.818
61407W        W20943  12.189  43.830  12.030
61408W        W20944   4.747  32.933  13.386
61409W        W20945  17.076  31.632   3.249
61410W        W20946   2.769  39.001   3.685
61411W        W20947  37.960  10.162   1.858
61412W        W20948   4.263  13.784   2.804
61413W        W20949  16.142  10.749  10.993
61414W        W20950   6.848  43.405   2.187
61415W        W20951   2.828  29.597  11.893
61416W        W20952  16.661  41.970  14.357
61417W        W20953   3.288   9.743   2.226
61418W        W20954  39.543  32.521   4.121
61419W        W20955  44.971   2.342   0.392
61420W        W20956  23.142  34.491   1.804
61421W        W20957  11.823  18.636  14.818
61422W        W20958  16.075  31.897   0.451
61423W        W20959  23.127  29.992   3.289
61424W        W20960  22.652  36.491  11.898
61425W        W20961  30.644  43.378   3.344
61426W        W20962   6.883  30.158  13.861
61427W        W20963   9.220  29.117   0.864
61428W        W20964  21.220  21.123  13.844
61429W        W20965  34.027   0.325   3.840
61430W        W20966  25.591   4.312   2.350
61431W        W20967  17.188  25.499  14.429
61432W        W20968  20.090   9.239   2.262
61433W        W20969  30.454  11.159  12.482
61434W        W20970   1.957   5.756   4.676
61435W        W20971  14.234   5.311   1.295
61436W        W20972  40.466  30.552  13.840
61437W        W20973  13.667  38.945   3.284
61438W        W20974  35.896  40.346   4.794
61439W        W20975  29.467  34.548   0.383
61440W        W20976  22.192  41.845   1.434
61441W        W20977  30.092  35.946  12.046
61442W        W20978   6.219  17.787  10.583
61443W        W20979  35.382  39.949  14.280
61444W        W20980  18.625   7.258  13.001
61445W        W20981  38.364  15.251   4.272
61446W        W20982  35.523  33.549   1.428
61447W        W20983  21.662  18.771  13.046
61448W        W20984   3.928  33.910  13.898
61449W        W20985   0.757  20.672  13.886
61450W        W20986   9.741  36.555  14.982
61451W        W20987  29.540   2.911  10.448
61452W        W20988  25.964  38.882   2.748
61453W        W20989  31.611  18.617   1.932
61454W        W20990  43.912  29.454  11.564
61455W        W20991  16.672   5.284  11.888
61456W        W20992   4.742  16.088  14.852
61457W        W20993  31.035  30.118   1.405
61458W        W20994  13.702  25.674   1.388
61459W        W20995  23.999   3.420  14.802
61460W        W20996  38.540   9.282  14.809
61461W        W20997  34.002  24.555   3.638
61462W        W20998  41.857  29.150  12.391
61463W        W20999  41.789  16.105   4.118
61464W        W21000  19.194  13.778   3.164
61465W        W21001  37.380   4.289   3.785
61466W        W21002  17.192  24.149   0.293
61467W        W21003  43.844   8.162  13.013
61468W        W21004   6.852  35.032   1.288
61469W        W21005  41.323  36.079   0.285
61470W        W21006  43.515  35.089   0.450
61471W        W21007   2.896  37.375  14.902
61472W        W21008  28.186  39.360   0.954
61473W        W21009  22.050   8.366  11.936
61474W        W21010  15.093  42.422  11.504
61475W        W21011  15.242  23.516   4.311
61476W        W21012  34.980  21.104   3.298
61477W        W21013  29.613   1.377   4.645
61478W        W21014  18.232  15.598  10.476
61479W        W21015  19.599  23.068   4.624
61480W        W21016  12.684  27.526  12.915
61481W        W21017  29.487  43.460   2.346
61482W        W21018  39.375  29.166   2.717
61483W        W21019  29.580  34.905   4.708
61484W        W21020  23.710  15.790  10.109
61485W        W21021  31.481  40.014   1.312
61486W        W21022  44.968  42.442  10.458
61487W        W21023  37.086   7.284   3.695
61488W        W21024  39.015   4.314  12.387
61489W        W21025  22.009   6.412  14.943
61490W        W21026  17.576  35.411   2.863
61491W        W21027   5.198   0.850   2.255
61492W        W21028   1.327  23.629  13.366
61493W        W21029  44.413   6.770  13.494
61494W        W21030   2.424   6.864   4.720
61495W        W21031  10.840  41.886   2.736
61496W        W21032  27.017  41.506   0.876
61497W        W21033   7.317   9.695   2.716
61498W        W21034   6.234  40.471  12.043
61499W        W21035  38.524  10.657   3.307
61500W        W21036  43.912  13.614   4.779
61501W        W21037   1.805  13.807  11.011
61502W        W21038  19.645   2.230   0.843
61503W        W21039  17.291  33.503   5.101
61504W        W21040  37.076  16.124  13.907
61505W        W21041  43.891  36.454   4.150
61506W        W21042  44.988  17.588   0.915
61507W        W21043  32.437  41.009   1.811
61508W        W21044  32.933   4.723   2.207
61509W        W21045  34.093  29.604  10.071
61510W        W21046   7.775   7.345  11.048
61511W        W21047  39.038  17.576  13.460
61512W        W21048  21.623   0.286   3.696
61513W        W21049  35.426   5.269   1.874
61514W        W21050  29.924  25.099   1.740
61515W        W21051  29.584   3.873  12.958
61516W        W21052  38.509  31.555  14.980
61517W        W21053  29.076  41.492   3.244
61518W        W21054   0.448  16.241   2.407
61519W        W21055  36.452   2.963  13.423
61520W        W21056  17.700   8.277  11.503
61521W        W21057  12.229   7.323   1.891
61522W        W21058  13.606  14.601   1.411
61523W        W21059  22.505  12.802  12.482
61524W        W21060  31.962  38.007   2.896
61525W        W21061   3.739  42.492   3.346
61526W        W21062   5.414  18.773   3.360
61527W        W21063  12.746  14.691  11.103
61528W        W21064  11.663  16.622  12.931
61529W        W21065   8.168  12.190   4.764
61530W        W21066  32.058  39.033  14.482
61531W        W21067  25.568  34.102  11.878
61532W        W21068  11.805   7.304   1.303
61533W        W21069   0.410  18.574   2.791
61534W        W21070  13.292  28.185  13.999
61535W        W21071  41.944  12.162  13.456
61536W        W21072  27.952   7.293   4.717
61537W        W21073  31.128   0.886   1.411
61538W        W21074   4.846  20.613   4.314
61539W        W21075  29.482  20.190  14.998
61540W        W21076  26.102  23.728  14.915
61541W        W21077  29.656  17.790   1.804
61542W        W21078  23.666   8.183   2.303
61543W        W21079  11.291   4.787   3.236
61544W        W21080  11.193  28.080  13.835
61545W        W21081  39.883  13.158  14.487
61546W        W21082   2.309  34.865  11.421
61547W        W21083   3.764   4.724  10.469
61548W        W21084  26.560   4.328  10.642
61549W        W21085   0.827  18.598   3.356
61550W        W21086   9.824   4.865   2.289
61551W        W21087  27.072  17.560  13.402
61552W        W21088  30.129  21.600   3.842
61553W        W21089  30.095  34.411  10.606
61554W        W21090  34.016  24.990   2.311
61555W        W21091  14.189  43.927  13.817
61556W        W21092  27.471  38.019  12.534
61557W        W21093  28.580  40.939   2.390
61558W        W21094  41.524   8.242   4.354
61559W        W21095  29.564  31.568   4.686
61560W        W21096  30.502  15.198  11.881
61561W        W21097  12.214  23.635   0.877
61562W        W21098  22.023  17.739   2.391
61563W        W21099  28.503  10.839  14.455
61564W        W21100  14.303   4.863  10.600
61565W        W21101  13.119  44.505   0.762
61566W        W21102  29.631  40.421  11.091
61567W        W21103  13.599   1.770   0.371
61568W        W21104  33.494  21.657  12.937
61569W        W21105  16.753  19.604  14.769
61570W        W21106   3.300  34.998   5.112
61571W        W21107   8.388  26.167   0.829
61572W        W21108   1.402  33.986   4.712
61573W        W21109  32.978  28.468  12.087
61574W        W21110  10.341  32.951  10.435
61575W        W21111  12.274   0.755   2.261
61576W        W21112  14.820  17.796  13.318
61577W        W21113   5.892  38.847  12.928
61578W        W21114  21.179  29.651   1.733
61579W        W21115  19.592   0.381  12.524
61580W        W21116  43.325   1.784   4.705
61581W        W21117   2.923  26.572   2.760
61582W        W21118  14.335  14.313   3.719
61583W        W21119  12.709  32.045  12.968
61584W        W21120  22.726   1.845   0.741
61585W        W21121   6.730  23.662   4.820
61586W        W21122   2.422  31.968   3.836
61587W        W21123  38.453  33.570  11.014
61588W        W21124   1.774  26.477  14.297
61589W        W21125  19.138  29.988   1.761
61590W        W21126   1.427  39.887   4.174
61591W        W21127   9.261   4.933  11.922
61592W        W21128  10.776  13.756  13.824
61593W        W21129   0.491   1.365   1.390
61594W        W21130  40.825  26.528  10.940
61595W        W21131  22.068  29.946   3.174
61596W        W21132   9.821   0.301   3.336
61597W        W21133  38.561  37.581   4.232
61598W        W21134  26.165   7.385   2.747
61599W        W21135  15.305  35.597  11.079
61600W        W21136  19.286  15.219  13.899
61601W        W21137  21.751   3.792   0.858
61602W        W21138  32.992  16.813   4.175
61603W        W21139  33.385  44.329   1.864
61604W        W21140  10.197  18.569  14.804
61605W        W21141  19.131  35.592   4.293
61606W        W21142   9.251  26.480  13.046
61607W        W21143  42.994  43.842   3.181
61608W        W21144  36.420  37.901  14.819
61609W        W21145  22.038  33.891   3.279
61610W        W21146  39.889  41.466   2.669
61611W        W21147   9.305  22.546   2.370
61612W        W21148  35.875  28.590   0.847
61613W        W21149   3.433  15.817  11.590
61614W        W21150  34.580  22.506   4.711
61615W        W21151  11.280  37.834  12.036
61616W        W21152  29.978   2.321  14.972
61617W        W21153  23.087  18.256  12.574
61618W        W21154  23.579  23.173   1.745
61619W        W21155  12.650  38.388  13.471
61620W        W21156  16.073  20.042  13.000
61621W        W21157  44.485  41.934   2.407
61622W        W21158   7.895  28.622   1.376
61623W        W21159  13.286  41.858   1.695
61624W        W21160  42.959  31.540   0.800
61625W        W21161  20.057  10.708   1.779
61626W        W21162  20.746  28.652  13.460
61627W        W21163   9.182  27.520  11.509
61628W        W21164  42.028  41.309  13.361
61629W        W21165  37.481  27.687   2.751
61630W        W21166  23.608  41.891  14.969
61631W        W21167   4.827  34.378   5.203
61632W        W21168   2.446   7.708   0.270
61633W        W21169  14.591  33.127   3.291
61634W        W21170  17.171  29.137   4.752
61635W        W21171  28.961   4.297   4.600
61636W        W21172   6.374  11.709   0.391
61637W        W21173  20.762  31.999  14.404
61638W        W21174  16.751  11.624  12.886
61639W        W21175  39.875  16.220  10.989
61640W        W21176  40.954  35.059  10.540
61641W        W21177  24.152  10.163   2.818
61642W        W21178  41.482   1.243  14.328
61643W        W21179  16.783  42.834   4.632
61644W        W21180   3.277  28.443  11.086
61645W        W21181  42.323   2.824   0.350
61646W        W21182   7.733  44.826   4.172
61647W        W21183  14.624   9.162  11.433
61648W        W21184  19.747   5.384   4.179
61649W        W21185  35.514  32.557   2.708
61650W        W21186   9.192  15.172  10.888
61651W        W21187  33.526  34.014   2.223
61652W        W21188  15.151  31.459   2.741
61653W        W21189  34.096   8.775   4.664
61654W        W21190  23.189  40.893   2.876
61655W        W21191  36.380  17.241  12.066
61656W        W21192  27.044   0.408  12.467
61657W        W21193  38.910  24.973  12.877
61658W        W21194   0.398   5.210   0.914
61659W        W21195   4.897   9.782   4.118
61660W        W21196   2.787   1.254  11.914
61661W        W21197  21.727  36.926   2.289
61662W        W21198  34.509   1.819   2.811
61663W        W21199  41.970  35.947  13.457
61664W        W21200  36.494  25.128  12.433
61665W        W21201  17.117  17.065   0.314
61666W        W21202  24.047  38.357   1.305
61667W        W21203  26.981  19.680   3.712
61668W        W21204   6.878  10.333   1.806
61669W        W21205  40.960  38.896  14.420
61670W        W21206  41.028  19.079   1.894
61671W        W21207  22.051  21.150   9.506
61672W        W21208  36.498   5.742   0.905
61673W        W21209  26.518  39.484  14.946
61674W        W21210  30.964  10.795   2.792
61675W        W21211  11.657  21.668  10.406
61676W        W21212  34.551   2.720   9.647
61677W        W21213  35.413   9.190   1.752
61678W        W21214   9.357  33.555  13.921
61679W        W21215  36.373  20.555   3.163
61680W        W21216  37.952  28.007   3.227
61681W        W21217  13.288  38.504   0.349
61682W        W21218  16.115  43.848   1.934
61683W        W21219  27.066  30.605  14.832
61684W        W21220  14.624  35.562   3.343
61685W        W21221  24.554  39.328  14.292
61686W        W21222   3.872  34.893  10.888
61687W        W21223  33.517  13.802  13.340
61688W        W21224  10.261  24.599   4.656
61689W        W21225   6.909  29.448  11.004
61690W        W21226   0.929  10.726  11.453
61691W        W21227  35.468  24.181   9.945
61692W        W21228  11.248  40.912   1.732
61693W        W21229  15.646  38.921   2.340
61694W        W21230   5.867  18.187  12.427
61695W        W21231   5.789  17.620   4.248
61696W        W21232  24.016  23.149   0.311
61697W        W21233  15.689  36.968   3.776
61698W        W21234  11.187  38.835  13.458
61699W        W21235  17.300  14.667  14.777
61700W        W21236  41.990   6.765   3.230
61701W        W21237  25.046   1.863  12.014
61702W        W21238  17.241   1.852   2.743
61703W        W21239   0.318  38.964   2.325
61704W        W21240  16.087  19.194  14.398
61705W        W21241  35.998  12.808   0.924
61706W        W21242  18.730  10.795  11.097
61707W        W21243   0.970  38.880  10.560
61708W        W21244  41.903   4.884   2.413
61709W        W21245  42.482  31.003   3.382
61710W        W21246  21.018  27.161  11.565
61711W        W21247  35.423  22.998  11.600
61712W        W21248   9.665  27.102   9.988
61713W        W21249  44.349  44.466   5.248
61714W        W21250  27.174  37.920  11.949
61715W        W21251  41.905   4.368  14.386
61716W        W21252   1.345  10.281  14.924
61717W        W21253   1.876  41.399  13.433
61718W        W21254  23.025  17.302   4.295
61719W        W21255  23.038  34.040   2.418
61720W        W21256   6.918   3.349  12.943
61721W        W21257  34.595  34.897  12.848
61722W        W21258  30.525  29.023  10.930
61723W        W21259  25.596  21.541   4.139
61724W        W21260  31.539   2.728   1.278
61725W        W21261  32.391   9.368  14.282
61726W        W21262   0.911  22.502  12.844
61727W        W21263  21.729  15.249  11.025
61728W        W21264   6.724  30.007   3.226
61729W        W21265  41.323  28.016  10.965
61730W        W21266  23.160  41.414   4.192
61731W        W21267  14.116  15.140   1.334
61732W        W21268   7.214  10.289  14.932
61733W        W21269  30.002  16.221  11.498
61734W        W21270   7.401  25.211   5.286
61735W        W21271  36.083   9.224  11.611
61736W        W21272  28.442  44.326   3.711
61737W        W21273   6.192  18.247  11.420
61738W        W21274  35.980  35.889   2.784
61739W        W21275   4.435   0.451  12.546
61740W        W21276  27.167  41.922  12.967
61741W        W21277  15.119  39.001   0.888
61742W        W21278  39.912   2.443   4.710
61743W        W21279  18.181  32.040   4.346
61744W        W21280  41.343   7.683  10.619
61745W        W21281  13.157   3.444   0.857
61746W        W21282  38.515  23.559   1.854
61747W        W21283  16.711   7.338   1.328
61748W        W21284  26.682   6.397  13.429
61749W        W21285  15.661  40.883   4.295
61750W        W21286  20.082  37.993  10.999
61751W        W21287  44.938  33.111   4.730
61752W        W21288  19.235  12.666   3.648
61753W        W21289  10.718  27.069  11.039
61754W        W21290  37.515  22.041   0.357
61755W        W21291   5.344  28.070  14.440
61756W        W21292  17.219  24.614  14.786
61757W        W21293  10.855  35.017   1.917
61758W        W21294  42.298  17.168   0.898
61759W        W21295   8.222  36.890  14.421
61760W        W21296  20.104  30.598   3.251
61761W        W21297  34.109  38.924  12.492
61762W        W21298  34.044  43.863   3.756
61763W        W21299   9.291  28.479  13.332
61764W        W21300  38.550  11.746   0.451
61765W        W21301   7.899  25.191   0.759
61766W        W21302   8.186  19.171  12.975
61767W        W21303   6.253  30.475  14.847
61768W        W21304   9.235   0.747   4.296
61769W        W21305   1.837  28.582   1.793
61770W        W21306   8.729  30.634   0.320
61771W        W21307  27.479   4.347  10.892
61772W        W21308   6.825   7.240  13.373
61773W        W21309   7.382  37.500  10.508
61774W        W21310  27.517  39.873   4.180
61775W        W21311  13.187  14.605   1.851
61776W        W21312   5.765   3.423  10.908
61777W        W21313  28.595  25.066  14.849
61778W        W21314  40.967   5.905   4.181
61779W        W21315   8.262  26.592   1.348
61780W        W21316  27.602   8.696   4.332
61781W        W21317  19.591   3.736  13.858
61782W        W21318  30.595  37.879   4.625
61783W        W21319   5.341  23.008  14.474
61784W        W21320  37.344  31.450   0.892
61785W        W21321  26.048  33.936   1.845
61786W        W21322   1.953  24.139  10.930
61787W        W21323  18.060   0.923  12.068
61788W        W21324  39.353   4.363  11.119
61789W        W21325  40.970  36.075  12.553
61790W        W21326  32.998  36.565  14.303
61791W        W21327   2.275  26.952   1.835
61792W        W21328   7.328  41.527  12.963
61793W        W21329  13.257  27.621   3.767
61794W        W21330  44.332  33.924   0.822
61795W        W21331   3.227  21.698   3.204
61796W        W21332  40.052  21.161   2.797
61797W        W21333  36.352  34.560  10.595
61798W        W21334  19.241  20.729   5.734
61799W        W21335  31.026  29.614  13.441
61800W        W21336  18.107  35.587   1.728
61801W        W21337  16.694   4.450   2.359
61802W        W21338  20.582  36.090   3.716
61803W        W21339  44.987  17.625  10.439
61804W        W21340  21.157   3.769  12.958
61805W        W21341  13.747  26.147   4.773
61806W        W21342  35.602  26.660   0.389
61807W        W21343  42.524  39.550   3.224
61808W        W21344  22.182  38.068  15.000
61809W        W21345  41.453  23.704  13.507
61810W        W21346  21.018  41.492   5.301
61811W        W21347  23.148  33.120   1.299
61812W        W21348  40.871  34.496   3.249
61813W        W21349  34.996   7.710  13.464
61814W        W21350   8.320  44.795   0.797
61815W        W21351  10.187   9.393   1.290
61816W        W21352  19.258  39.510  12.402
61817W        W21353  41.466  42.975  10.953
61818W        W21354  17.134   4.878  10.965
61819W        W21355  20.626  26.465   0.330
61820W        W21356  11.293  33.107  13.839
61821W        W21357  32.584  38.044   4.621
61822W        W21358  26.956   9.193   2.259
61823W        W21359  39.326   5.768   2.774
61824W        W21360  21.553  14.206  10.501
61825W        W21361   5.302  29.438   1.725
61826W        W21362  38.385  39.007   2.804
61827W        W21363  25.491  19.149   1.772
61828W        W21364  13.148   2.879   4.822
61829W        W21365   6.182  36.863   3.633
61830W        W21366  27.109  44.778  11.596
61831W        W21367  41.467  24.038   1.811
61832W        W21368  31.002   6.710   1.220
61833W        W21369  43.777   5.896  10.908
61834W        W21370   6.397   5.375  13.485
61835W        W21371  44.364  35.063   3.342
61836W        W21372  27.560   5.380   1.402
61837W        W21373  27.599  22.735  13.951
61838W        W21374  27.984   4.833   0.310
61839W        W21375  43.857   2.419  14.303
61840W        W21376   6.712   9.782   3.179
61841W        W21377   0.767  17.073  14.435
61842W        W21378  19.546  12.779   2.708
61843W        W21379  20.209  13.701  14.299
61844W        W21380  16.669  27.607   2.319
61845W        W21381  29.512   2.246  12.463
61846W        W21382  29.147  13.802  14.479
61847W        W21383  12.853  11.835   3.734
61848W        W21384  34.971  35.099  13.815
61849W        W21385  33.034   6.420   0.737
61850W        W21386  40.016   2.287  12.045
61851W        W21387  21.261  33.533  12.471
61852W        W21388  22.130   3.305  11.995
61853W        W21389  25.634  35.947  11.951
61854W        W21390  44.418  17.615  14.962
61855W        W21391  16.140  15.726  14.031
61856W        W21392   5.926   8.761   1.235
61857W        W21393  25.672  22.150  10.915
61858W        W21394  15.775  40.949   2.241
61859W        W21395   5.294  25.702   3.316
61860W        W21396   7.412  22.038   3.227
61861W        W21397  37.074  15.704   3.261
61862W        W21398  29.946   9.284  14.023
61863W        W21399  20.084  26.058  12.005
61864W        W21400   1.760  16.652  11.071
61865W        W21401  38.049  13.211  12.865
61866W        W21402  11.202  28.444  13.442
61867W        W21403  13.812  19.200  11.599
61868W        W21404   3.341  33.385   0.883
61869W        W21405  15.268   7.673   3.793
61870W        W21406  30.635  21.035  12.073
61871W        W21407  13.282  10.739  14.797
61872W        W21408  33.383  31.033  10.581
61873W        W21409  18.091   2.387  11.376
61874W        W21410  25.481  35.594   5.120
61875W        W21411  41.021  14.126   9.453
61876W        W21412  13.806  34.512  12.995
61877W        W21413  22.742  42.436   4.802
61878W        W21414  43.341  21.745  12.076
61879W        W21415  40.819  16.627   4.742
61880W        W21416   8.345  43.946  10.429
61881W        W21417  33.407  28.525   5.190
61882W        W21418  29.114  42.836   1.740
61883W        W21419  12.830   0.779   3.378
61884W        W21420   5.319   1.781   1.302
61885W        W21421  32.465  28.042   3.779
61886W        W21422  38.366   2.328   1.451
61887W        W21423  41.820  28.442   2.750
61888W        W21424  26.603  13.113   0.342
61889W        W21425  17.630  41.346  10.558
61890W        W21426  33.617  38.975   2.227
61891W        W21427  35.527   6.340  10.447
61892W        W21428  38.900   0.961  10.971
61893W        W21429  43.466  11.845  12.911
61894W        W21430  23.525  19.707  14.370
61895W        W21431  30.950  27.516  11.034
61896W        W21432  44.960  44.436  14.385
61897W        W21433  13.677  33.895  13.056
61898W        W21434   3.842   6.253  14.981
61899W        W21435  13.149  43.005  10.060
61900W        W21436  25.195  22.721  10.417
61901W        W21437  20.200   9.843  13.860
61902W        W21438   4.748  39.013   4.283
61903W        W21439  21.144  17.662  11.956
61904W        W21440  28.947   2.420  12.870
61905W        W21441  15.233  38.968  14.031
61906W        W21442  30.519  23.672   4.221
61907W        W21443   4.312  24.124  12.993
61908W        W21444  30.105  43.407  13.534
61909W        W21445  36.852  22.654   2.335
61910W        W21446  24.678  16.300  11.507
61911W        W21447  22.649  31.564   4.794
61912W        W21448  20.147  24.633   2.710
61913W        W21449   8.896   6.704   3.828
61914W        W21450  14.813  20.754   2.399
61915W        W21451   7.235  29.476  13.950
61916W        W21452  35.895  17.802   4.247
61917W        W21453  38.885  26.101   4.704
61918W        W21454  26.053  10.666  12.538
61919W        W21455  29.609  20.047  10.028
61920W        W21456   3.770   1.262  11.017
61921W        W21457  42.457  38.535  11.373
61922W        W21458  21.019   9.780  14.464
61923W        W21459  28.672   6.885  13.794
61924W        W21460   1.479  18.278   1.813
61925W        W21461  29.117  27.652  11.508
61926W        W21462  40.981   2.349  13.309
61927W        W21463  35.428  31.595   1.772
61928W        W21464  37.511  13.325  14.972
61929W        W21465  38.516  21.748   4.123
61930W        W21466  41.307  10.278   0.359
61931W        W21467  41.009  41.878  14.387
61932W        W21468  30.063  38.522   3.724
61933W        W21469  40.317  42.932   0.900
61934W        W21470  29.480  16.305   2.188
61935W        W21471   0.464  42.910  14.991
61936W        W21472   8.727   2.857   0.339
61937W        W21473  29.497  44.296  13.952
61938W        W21474   0.271   1.888   2.191
61939W        W21475   0.807  44.927  11.503
61940W        W21476  20.124  17.580  10.447
61941W        W21477   0.396  29.052   0.805
61942W        W21478  11.314  30.436   4.252
61943W        W21479  40.023  21.548   2.365
61944W        W21480  10.379  18.554   0.888
61945W        W21481  39.501  26.545   2.370
61946W        W21482  30.116  22.157   3.218
61947W        W21483   9.858  33.940  13.872
61948W        W21484   1.947  11.823   4.824
61949W        W21485  15.597  17.726   1.868
61950W        W21486  30.618  15.184   1.776
61951W        W21487  18.622  23.623   5.194
61952W        W21488   5.716   5.320  13.960
61953W        W21489   1.286   4.876   3.743
61954W        W21490  26.020  30.629   2.402
61955W        W21491  29.030  27.127  13.403
61956W        W21492   3.769  29.975   3.179
61957W        W21493  18.158   9.348  12.558
61958W        W21494  25.693  14.780   0.779
61959W        W21495  22.677  14.709  11.549
61960W        W21496  18.183  33.600   3.637
61961W        W21497  32.518  10.161  12.499
61962W        W21498  34.531  31.979   1.911
61963W        W21499  32.045  14.161   4.751
61964W        W21500  17.668  37.896  11.858
61965W        W21501  16.250  28.108  13.999
61966W        W21502  42.873  31.986   1.374
61967W        W21503  18.146  15.786   4.608
61968W        W21504  23.106  20.622   9.545
61969W        W21505   1.456  13.160  10.407
61970W        W21506  27.482  38.860   3.310
61971W        W21507   5.252  16.651  14.323
61972W        W21508  33.892  12.702  10.635
61973W        W21509   7.203  11.287   0.263
61974W        W21510  22.019   5.929   1.914
61975W        W21511  40.966  30.541  11.431
61976W        W21512  32.134  40.821   3.645
61977W        W21513  23.168   8.371   0.808
61978W        W21514  29.131  26.105  13.400
61979W        W21515  18.296  12.208  11.453
61980W        W21516  13.606  12.759   0.389
61981W        W21517   7.378  23.524  10.542
61982W        W21518  13.604  14.745   4.774
61983W        W21519  17.206  14.717   0.869
61984W        W21520   1.448   9.748   1.359
61985W        W21521  37.389  17.574   2.752
61986W        W21522  32.503  35.595  11.500
61987W        W21523  33.130  28.137  11.570
61988W        W21524  42.857   6.751  13.867
61989W        W21525  38.011   8.360   4.192
61990W        W21526  35.514  16.211   2.380
61991W        W21527  33.494  15.316  11.444
61992W        W21528  23.591  15.094   1.835
61993W        W21529  28.066  39.443  11.086
61994W        W21530  26.688  28.574   3.755
61995W        W21531  36.409  11.866   0.964
61996W        W21532  42.448  39.942  14.768
61997W        W21533   5.863  35.875  13.343
61998W        W21534  11.746  34.601   1.899
61999W        W21535   8.726  30.097  12.838
62000W        W21536  39.965  34.045   3.837
62001W        W21537   9.370  44.281  11.471
62002W        W21538  13.750  20.766   4.204
62003W        W21539  37.077  31.472  11.064
62004W        W21540   0.985  40.519  12.376
62005W        W21541  30.567  38.344  11.031
62006W        W21542  39.498   3.828   0.351
62007W        W21543   3.434   8.891   4.266
62008W        W21544  40.834  25.127  12.866
62009W        W21545  12.778  27.197  13.518
62010W        W21546  33.481  39.945  13.946
62011W        W21547  20.616  35.026  12.572
62012W        W21548  42.343   1.954  14.993
62013W        W21549  27.949  38.456  14.936
62014W        W21550  18.108  33.092  13.801
62015W        W21551  32.465  12.714   5.221
62016W        W21552  32.078  44.861   4.676
62017W        W21553  13.759  16.103   4.277
62018W        W21554  20.167  21.531   1.382
62019W        W21555  44.906   0.482  13.540
62020W        W21556   2.870  42.778  11.863
62021W        W21557  21.023  42.338   2.418
62022W        W21558   6.728   0.322   4.247
62023W        W21559  32.060  20.642  11.586
62024W        W21560  39.341  18.719  12.464
62025W        W21561  42.015  19.141  14.027
62026W        W21562  15.222  13.728   3.750
62027W        W21563  24.026   8.404  11.874
62028W        W21564  32.055  41.310  13.480
62029W        W21565   3.827  24.146  11.068
62030W        W21566  32.564  36.053   3.182
62031W        W21567  32.100  42.970  13.827
62032W        W21568   9.766  37.945   0.421
62033W        W21569  26.679   2.783  12.084
62034W        W21570  23.576  16.785  10.935
62035W        W21571  23.127  25.536   4.638
62036W        W21572  42.509   9.757   1.787
62037W        W21573  19.281  15.623  11.078
62038W        W21574  40.814   1.957   3.358
62039W        W21575  33.980  21.178  13.432
62040W        W21576  21.174  11.716  13.378
62041W        W21577  38.996   5.336  13.318
62042W        W21578  24.058  32.104   2.879
62043W        W21579  36.996   7.800  13.063
62044W        W21580  11.663  17.682  12.430
62045W        W21581   9.770  21.556  12.002
62046W        W21582  29.590   2.965  13.538
62047W        W21583  38.954  33.524  12.451
62048W        W21584  10.363  32.901  14.344
62049W        W21585  26.114   6.784  12.833
62050W        W21586   9.880  28.985  10.107
62051W        W21587  23.679  22.626   2.714
62052W        W21588  42.443  36.926  13.348
62053W        W21589  28.671  20.714   4.233
62054W        W21590   5.840  18.674  12.465
62055W        W21591  19.534  28.655  11.877
62056W        W21592  12.735  34.065  12.455
62057W        W21593   8.676  30.508   1.906
62058W        W21594   3.313   0.433   1.694
62059W        W21595  29.447  34.400  13.890
62060W        W21596   8.743  36.868  12.920
62061W        W21597  24.182  40.529  11.519
62062W        W21598  44.856  38.402   4.150
62063W        W21599  40.922  36.066   2.817
62064W        W21600  13.200  29.130  12.083
62065W        W21601  28.675  33.049   0.745
62066W        W21602  36.554  20.269  11.607
62067W        W21603  25.480  38.510   2.256
62068W        W21604  33.580  27.458   2.186
62069W        W21605  33.042  12.165  12.994
62070W        W21606  44.818  34.902  14.003
62071W        W21607   9.843  31.465  13.981
62072W        W21608  21.132  15.095  14.021
62073W        W21609   8.691   9.729  10.546
62074W        W21610   2.453   8.335  12.484
62075W        W21611  21.115  24.042   2.374
62076W        W21612  42.334  20.595   1.374
62077W        W21613  14.698   5.766  12.031
62078W        W21614   6.221   8.749  11.904
62079W        W21615  18.192  12.357   1.441
62080W        W21616   6.258  22.183   1.390
62081W        W21617  17.661  16.115   2.888
62082W        W21618  17.075   1.320  10.563
62083W        W21619  25.483  10.173  11.867
62084W        W21620  10.163  18.771   4.764
62085W        W21621   5.749  16.082  13.013
62086W        W21622   5.920   9.884   4.631
62087W        W21623  11.268  19.569  12.904
62088W        W21624  32.516  18.560   4.121
62089W        W21625  16.307  29.120  14.446
62090W        W21626  12.182  30.060  14.488
62091W        W21627  30.422  10.206  12.410
62092W        W21628  27.152  27.682  12.077
62093W        W21629  14.235   2.309  14.850
62094W        W21630   7.333  11.752   0.950
62095W        W21631  25.125  17.263  12.531
62096W        W21632  37.541  23.022  14.376
62097W        W21633   0.351  30.068  13.804
62098W        W21634  35.895  25.663  13.364
62099W        W21635  20.259  14.132  11.980
62100W        W21636  21.075  38.864   1.885
62101W        W21637  38.479  29.534   0.865
62102W        W21638  26.001  42.437   0.832
62103W        W21639  26.700  10.847  11.476
62104W        W21640  12.137  16.146   4.711
62105W        W21641  24.609   1.451  14.488
62106W        W21642   1.374  40.423   1.750
62107W        W21643  29.466  37.379  13.977
62108W        W21644   9.827  11.220   4.655
62109W        W21645  22.695  35.374   1.436
62110W        W21646  23.065  22.687   4.602
62111W        W21647   0.450  29.015  11.994
62112W        W21648  15.807  28.096   2.761
62113W        W21649  12.250  27.114  12.537
62114W        W21650  10.378   8.675   4.169
62115W        W21651  11.284  19.240   0.766
62116W        W21652  37.527   5.706   0.348
62117W        W21653  32.952  19.089   2.232
62118W        W21654  34.424   3.359  12.851
62119W        W21655  24.070  15.783   2.899
62120W        W21656  10.835   8.694  13.381
62121W        W21657  43.478   1.769  14.975
62122W        W21658  42.441  43.847  11.112
62123W        W21659  10.253   6.860   1.789
62124W        W21660   4.251  42.917  12.456
62125W        W21661  36.530   0.472   2.746
62126W        W21662  42.948  33.521  13.011
62127W        W21663   3.280  30.503   0.420
62128W        W21664  33.525  37.347   2.769
62129W        W21665  34.471  21.039  12.956
62130W        W21666  10.866  23.079  12.458
62131W        W21667   6.756  21.168  12.079
62132W        W21668  42.293  31.647   2.216
62133W        W21669  14.225  44.387  12.537
62134W        W21670   8.791  33.519  14.902
62135W        W21671   7.286  44.987   1.780
62136W        W21672   5.396  20.548   1.403
62137W        W21673  38.496  39.543   4.824
62138W        W21674  10.840  36.061  12.976
62139W        W21675   6.371   6.367   4.266
62140W        W21676  27.668  23.173  12.072
62141W        W21677  35.432  10.640  14.448
62142W        W21678  43.835  29.997   1.398
62143W        W21679  44.434  12.218  11.064
62144W        W21680  20.229  44.487   3.860
62145W        W21681  41.423  36.369  13.021
62146W        W21682  33.389  14.725  13.450
62147W        W21683  34.941  31.980  13.956
62148W        W21684  25.494   1.281   2.840
62149W        W21685  40.467  26.023   2.865
62150W        W21686  25.076  41.450  12.912
62151W        W21687  37.997  20.206   0.830
62152W        W21688  21.017  20.158   2.766
62153W        W21689  41.378  31.490   2.194
62154W        W21690  43.456  26.085  12.404
62155W        W21691   1.306  44.805   2.239
62156W        W21692   9.813  23.522  13.938
62157W        W21693  38.052  42.940  13.406
62158W        W21694  12.647   1.850   0.434
62159W        W21695  18.234  22.653   5.245
62160W        W21696  17.735  27.518  13.948
62161W        W21697  36.347   3.267   0.342
62162W        W21698   0.772  15.641   2.402
62163W        W21699  26.105  28.075  14.855
62164W        W21700  29.017  38.889   3.178
62165W        W21701  42.380   9.192   4.158
62166W        W21702   7.871   2.374   4.748
62167W        W21703  23.112   9.879  14.839
62168W        W21704  34.422   2.244  11.872
62169W        W21705  44.802  26.567  14.996
62170W        W21706  26.198  14.685  12.071
62171W        W21707  13.244  17.702   3.228
62172W        W21708  33.982   1.848  14.819
62173W        W21709  42.857  39.542   1.387
62174W        W21710  28.465  21.556   2.869
62175W        W21711  30.051  26.080   1.371
62176W        W21712  34.034  10.265   2.390
62177W        W21713  15.187  10.644  13.313
62178W        W21714  21.513   7.271   2.294
62179W        W21715  34.567  24.560   0.753
62180W        W21716  37.851  44.804   4.800
62181W        W21717   1.870   1.933  11.447
62182W        W21718  35.046  41.878   4.693
62183W        W21719   6.874   4.923   3.167
62184W        W21720  27.109  43.958   3.720
62185W        W21721  30.142  12.625   4.649
62186W        W21722  36.064  10.205   2.289
62187W        W21723  13.300   4.385   3.381
62188W        W21724  42.788  17.106  13.895
62189W        W21725  42.866  42.403  13.064
62190W        W21726   7.391  29.099   3.292
62191W        W21727  23.984  40.407  11.890
62192W        W21728  39.347  37.024  14.338
62193W        W21729  35.463  27.995   0.432
62194W        W21730  32.573   2.269   1.880
62195W        W21731  11.128  19.111  14.468
62196W        W21732  30.418  20.721  12.874
62197W        W21733  36.877   8.239  14.962
62198W        W21734  25.019   6.720  13.430
62199W        W21735  31.044  24.052   3.760
62200W        W21736   7.198   8.318  12.080
62201W        W21737   1.789   0.359  10.510
62202W        W21738  41.521  40.050   1.824
62203W        W21739   3.896  16.252   3.811
62204W        W21740  13.620  30.574   0.405
62205W        W21741   0.934  15.198  14.284
62206W        W21742  37.388  33.043  14.911
62207W        W21743  19.257   4.837  12.828
62208W        W21744  27.033  34.874  11.915
62209W        W21745  32.468  12.319  12.477
62210W        W21746  21.658  20.737  12.409
62211W        W21747  41.405  32.952   4.329
62212W        W21748  12.269  17.210   1.773
62213W        W21749  40.920  21.051   3.357
62214W        W21750   4.365  17.203  14.338
62215W        W21751  19.136   8.164   2.381
62216W        W21752  21.538  18.187   5.578
62217W        W21753   9.676   8.166  13.805
62218W        W21754   1.769   0.486   1.413
62219W        W21755   2.749  32.898   2.722
62220W        W21756   4.788  42.450   2.238
62221W        W21757  40.475   8.321  14.888
62222W        W21758  27.588  33.124   1.300
62223W        W21759   0.274  30.033  12.967
62224W        W21760  20.224  10.859   2.781
62225W        W21761  26.647  29.635  13.023
62226W        W21762  11.826  10.231  14.277
62227W        W21763  41.510  28.639  12.433
62228W        W21764  30.653  38.507   3.745
62229W        W21765   6.920   7.870   1.426
62230W        W21766  14.199  41.394   4.775
62231W        W21767  40.507  22.643  14.407
62232W        W21768  29.050  20.149   0.410
62233W        W21769  43.000  38.454  10.901
62234W        W21770   7.855   9.877   2.413
62235W        W21771  24.052  26.616  14.945
62236W        W21772  22.153  29.173  13.063
62237W        W21773  13.281  36.360  14.003
62238W        W21774  38.954  37.009   2.814
62239W        W21775  21.222  20.193  10.087
62240W        W21776  11.241  39.453   4.246
62241W        W21777  11.862   7.359  10.524
62242W        W21778  11.222  42.475  13.446
62243W        W21779  39.012   3.875  11.857
62244W        W21780  18.725  28.668   1.930
62245W        W21781  39.851  40.343  11.511
62246W        W21782  15.164  27.158   0.884
62247W        W21783  41.928  36.587  14.005
62248W        W21784  22.523  14.118  12.042
62249W        W21785  42.934   6.776  12.961
62250W        W21786  36.062   6.194  11.089
62251W        W21787  10.167  15.178   4.734
62252W        W21788  39.863  18.231  13.442
62253W        W21789   2.952  25.640   2.883
62254W        W21790  30.621  17.570  14.376
62255W        W21791   9.375  24.115  11.929
62256W        W21792  29.658  21.033  14.449
62257W        W21793  14.109   2.319   2.703
62258W        W21794   9.713   3.936  12.843
62259W        W21795   5.801  22.617   2.881
62260W        W21796   0.780  17.212   0.802
62261W        W21797  19.638  36.568   2.302
62262W        W21798  37.554  16.185   1.913
62263W        W21799  17.196  11.325  13.011
62264W        W21800  31.979  18.173  14.003
62265W        W21801  33.445   9.193   2.887
62266W        W21802   7.325  34.409  11.049
62267W        W21803  37.457  24.059   4.176
62268W        W21804   8.195  21.693  11.986
62269W        W21805  11.641  24.190   0.432
62270W        W21806  16.115  42.890  14.381
62271W        W21807  31.436  11.225   0.821
62272W        W21808  13.795  19.611   2.186
62273W        W21809  20.690  24.215   4.753
62274W        W21810  33.879   6.738  12.968
62275W        W21811  30.145  32.970   4.770
62276W        W21812  28.547  11.260  14.434
62277W        W21813  14.311  12.855   3.176
62278W        W21814   4.789  13.637   2.849
62279W        W21815   2.742  31.123  12.081
62280W        W21816  31.049   2.230  11.894
62281W        W21817  29.501  29.435  12.979
62282W        W21818  11.362   5.245   0.785
62283W        W21819  26.579  22.195  14.839
62284W        W21820  18.194  41.886  12.958
62285W        W21821   7.352  14.336   4.219
62286W        W21822   2.432   1.941   3.829
62287W        W21823   9.297  40.328   4.644
62288W        W21824   3.332  36.580  13.831
62289W        W21825   7.391   4.235  11.526
62290W        W21826  34.416  14.632  10.451
62291W        W21827   7.784  34.912  14.363
62292W        W21828  30.951  44.974   2.275
62293W        W21829  10.789  31.026  11.470
62294W        W21830  37.554   2.939  14.864
62295W        W21831  44.483  29.007   9.990
62296W        W21832  43.786  34.907   2.266
62297W        W21833  29.948  43.347  10.635
62298W        W21834  26.023  30.994   1.921
62299W        W21835  27.008  37.971  12.864
62300W        W21836  40.957  14.186  10.064
62301W        W21837  15.601  33.989  14.880
62302W        W21838  17.229   3.240   4.831
62303W        W21839  14.245   8.803  11.088
62304W        W21840   2.316  22.037  13.047
62305W        W21841  29.614  19.546  12.390
62306W        W21842  10.281  39.941  14.788
62307W        W21843  43.800   7.385   3.800
62308W        W21844  11.853  19.195   3.828
62309W        W21845   5.819   8.802  11.040
62310W        W21846   2.261   4.748   3.728
62311W        W21847   5.302   7.806  10.473
62312W        W21848  35.865  14.100  14.444
62313W        W21849  36.883   6.809   1.805
62314W        W21850   7.751  12.124   1.915
62315W        W21851   6.748  41.481   0.472
62316W        W21852   0.320  42.406   0.958
62317W        W21853  32.443  24.674  13.482
62318W        W21854  41.330  35.946   3.635
62319W        W21855  41.835  33.490  13.977
62320W        W21856  32.562  29.619   1.349
62321W        W21857  22.610  29.578   3.211
62322W        W21858  12.758  32.566   2.410
62323W        W21859  41.446  40.940  14.470
62324W        W21860  28.579  38.511  13.325
62325W        W21861  16.638  29.529  14.462
62326W        W21862   1.759  31.993  12.877
62327W        W21863   1.262  15.758   0.757
62328W        W21864   7.806  32.452   2.840
62329W        W21865  34.083   8.219  12.034
62330W        W21866  24.991  10.690   1.308
62331W        W21867  35.974  31.908   0.448
62332W        W21868  26.174  28.063  14.017
62333W        W21869   5.312  10.732   3.862
62334W        W21870  24.992   5.751   4.689
62335W        W21871  37.043  37.454   1.371
62336W        W21872  32.950  23.547   2.828
62337W        W21873  12.248  14.105  14.276
62338W        W21874  26.555  12.335  12.863
62339W        W21875  10.230   3.300   5.129
62340W        W21876  22.173   8.761  13.936
62341W        W21877  38.414  23.520   3.847
62342W        W21878  26.971  35.934  12.541
62343W        W21879  36.459   8.397  11.460
62344W        W21880   1.261  18.711  11.580
62345W        W21881  42.385   6.404   3.701
62346W        W21882   3.227  29.148  14.996
62347W        W21883   1.471  28.052  12.416
62348W        W21884  35.927  29.022  13.449
62349W        W21885  42.508  34.469   3.692
62350W        W21886  13.279  40.847   2.865
62351W        W21887  19.059   1.305  12.092
62352W        W21888   9.376  12.663   2.877
62353W        W21889  13.732   2.798  13.507
62354W        W21890  16.176  25.016  12.976
62355W        W21891  19.126  26.546  11.112
62356W        W21892  10.290   1.816   1.809
62357W        W21893  31.927  12.704  11.544
62358W        W21894  17.156  40.414   0.870
62359W        W21895  38.946  17.594  10.984
62360W        W21896  24.478  23.539  12.419
62361W        W21897  14.228  32.977   0.278
62362W        W21898   7.208  36.984   4.208
62363W        W21899  35.424  19.664   1.351
62364W        W21900  42.792  22.229   3.181
62365W        W21901  20.672  42.885  12.531
62366W        W21902  29.624  44.505  14.316
62367W        W21903   0.459  17.676   4.617
62368W        W21904   2.368  43.906  13.869
62369W        W21905  24.112  12.311   4.238
62370W        W21906  29.126   7.668  13.473
62371W        W21907  25.516  26.644  13.499
62372W        W21908  34.929  35.864  10.644
62373W        W21909  24.676  41.851   1.381
62374W        W21910   2.846  27.048   4.627
62375W        W21911  21.120  31.551  11.070
62376W        W21912  16.728  35.418  14.028
62377W        W21913   7.342  15.314   3.171
62378W        W21914  27.559  23.685  12.354
62379W        W21915   4.337  14.749   1.388
62380W        W21916  23.056  34.567  14.977
62381W        W21917  13.676  37.925   0.749
62382W        W21918   8.192  26.582  11.987
62383W        W21919  15.634  32.391   1.785
62384W        W21920  10.670  10.177   0.361
62385W        W21921  14.216  27.527  13.920
62386W        W21922   0.751   1.423   1.874
62387W        W21923  32.442   8.346  11.513
62388W        W21924  33.426   7.413   1.714
62389W        W21925  35.963  44.422   3.714
62390W        W21926  22.056  17.719  14.990
62391W        W21927  17.201  27.012  12.957
62392W        W21928  15.277  27.941  13.864
62393W        W21929  15.672  29.138  14.465
62394W        W21930   1.734  13.192  11.383
62395W        W21931  17.197  37.937   0.350
62396W        W21932   2.257  32.425   4.799
62397W        W21933   0.461  24.620  10.513
62398W        W21934  29.981  36.515  13.369
62399W        W21935  41.887  39.904   2.284
62400W        W21936  22.187  25.972  10.983
62401W        W21937   6.269  20.615  14.434
62402W        W21938  32.415  44.484  10.891
62403W        W21939  43.504   0.766   3.651
62404W        W21940  30.935   8.258   0.746
62405W        W21941  38.008  28.052  12.387
62406W        W21942  26.485  16.089  14.465
62407W        W21943  26.069  37.019   1.215
62408W        W21944  28.583  34.596   0.252
62409W        W21945   1.858   0.313   1.843
62410W        W21946  43.355  38.530   3.674
62411W        W21947  11.749  37.937   0.335
62412W        W21948  37.467  36.026   2.417
62413W        W21949   9.683   9.257  14.978
62414W        W21950  31.146   0.803  10.065
62415W        W21951  15.157  16.729   0.753
62416W        W21952  22.168  16.174   4.210
62417W        W21953  27.518  14.637  12.987
62418W        W21954   6.722  32.121   1.225
62419W        W21955  24.073   0.359  13.329
62420W        W21956  23.020  44.294   3.387
62421W        W21957  16.112  34.433  12.911
62422W        W21958  44.000   5.858   0.852
62423W        W21959  36.393  28.507   0.783
62424W        W21960  32.598  39.544  13.324
62425W        W21961   4.403   4.867   1.800
62426W        W21962  29.964  21.251   3.759
62427W        W21963  23.594  12.236   0.923
62428W        W21964  27.940  19.536   0.961
62429W        W21965  10.637   5.419   4.208
62430W        W21966   2.853  15.084  13.397
62431W        W21967  24.027  33.438  12.552
62432W        W21968  14.216  39.539  12.545
62433W        W21969  27.638   6.693   3.730
62434W        W21970  42.032  29.499   1.342
62435W        W21971  16.147   3.329  12.082
62436W        W21972  11.863   7.676   0.339
62437W        W21973  31.954  21.092   1.803
62438W        W21974   6.401  17.137   3.325
62439W        W21975  12.694  16.790  14.817
62440W        W21976  32.473  34.051   2.203
62441W        W21977  33.935  16.599   0.896
62442W        W21978  18.059  39.810   3.165
62443W        W21979   5.906  13.319  14.463
62444W        W21980  15.588  43.371  12.964
62445W        W21981   1.771   7.747   4.783
62446W        W21982  17.766  21.748  13.818
62447W        W21983   3.455  21.728   2.248
62448W        W21984  34.518  17.650   0.801
62449W        W21985  17.791  30.910  11.385
62450W        W21986  16.597  40.924  13.317
62451W        W21987  31.924  31.029  12.503
62452W        W21988  29.146  32.004   3.382
62453W        W21989  35.422  16.567   3.241
62454W        W21990  42.841  40.031   3.639
62455W        W21991   1.756  39.523   4.621
62456W        W21992  26.574  20.522  13.424
62457W        W21993  22.158  41.336  10.478
62458W        W21994  35.073  28.175  14.447
62459W        W21995  25.703  32.569  13.967
62460W        W21996  23.718  16.718  13.951
62461W        W21997  23.092  14.790  13.926
62462W        W21998  40.341  14.679   3.226
62463W        W21999   9.313  26.681   1.416
62464W        W22000  25.610   3.734  13.487
62465W        W22001   5.861  27.558  14.316
62466W        W22002  21.102  17.080   1.404
62467W        W22003   0.402  31.506   0.946
62468W        W22004  14.704  37.471  10.091
62469W        W22005  21.208   3.873  11.011
62470W        W22006  44.861   7.262   0.412
62471W        W22007  23.716  14.181   2.370
62472W        W22008  10.147  37.925   1.736
62473W        W22009  32.120  30.538   2.696
62474W        W22010  42.440  39.816   1.923
62475W        W22011  14.623  35.363   3.846
62476W        W22012  43.021  40.432   4.233
62477W        W22013   3.918  33.500  14.469
62478W        W22014   9.231   7.787  13.832
62479W        W22015   8.830  36.990  11.900
62480W        W22016  33.101  29.491  10.952
62481W        W22017  12.125  12.152   4.151
62482W        W22018  16.271   1.425  12.024
62483W        W22019  27.583  24.140   1.266
62484W        W22020  19.050  19.548  13.054
62485W        W22021  36.551  18.605  13.848
62486W        W22022  18.549  43.329  12.389
62487W        W22023  22.652   9.797   1.257
62488W        W22024   8.807  21.206  14.018
62489W        W22025  16.297  20.166  13.542
62490W        W22026   3.451   7.370   3.711
62491W        W22027  27.981   9.387   2.841
62492W        W22028  38.891  30.157   1.855
62493W        W22029  44.390  13.246  13.857
62494W        W22030  42.305  29.018   2.190
62495W        W22031  31.603  30.162  14.859
62496W        W22032  33.025  42.360  12.440
62497W        W22033  44.765  14.734  10.021
62498W        W22034  28.468   2.295   2.883
62499W        W22035   7.271  31.068  13.327
62500W        W22036  38.470  12.714  14.345
62501W        W22037  12.247  14.148   3.332
62502W        W22038  32.071  34.416   1.383
62503W        W22039  30.541  24.208   1.431
62504W        W22040  12.610  43.878   2.839
62505W        W22041  18.293  39.495   0.406
62506W        W22042  44.328  13.138  12.028
62507W        W22043  22.732   2.449   2.312
62508W        W22044  35.369  39.061  12.039
62509W        W22045   7.294   4.856   2.385
62510W        W22046  16.308  10.343   0.890
62511W        W22047  21.728  39.902  12.421
62512W        W22048   5.916  19.202  13.884
62513W        W22049  20.199  32.493  10.630
62514W        W22050   6.330   3.299  13.969
62515W        W22051   8.773  31.567  10.913
62516W        W22052  18.601  14.702   1.392
62517W        W22053   7.785  20.161  14.872
62518W        W22054   4.878  35.462  14.024
62519W        W22055  22.654   7.831  10.975
62520W        W22056  21.087  44.908   2.703
62521W        W22057  22.503  31.064   0.470
62522W        W22058  12.216   5.823   2.798
62523W        W22059  17.069  31.442   1.836
62524W        W22060  33.985  20.050   2.315
62525W        W22061   2.469   5.932   0.902
62526W        W22062  42.357  10.350  13.415
62527W        W22063  34.490  35.976   4.744
62528W        W22064  28.628  23.224  12.056
62529W        W22065  19.590   9.368   2.299
62530W        W22066  31.907  10.377  12.362
62531W        W22067  23.123  35.075   2.735
62532W        W22068  21.600  34.054   2.282
62533W        W22069  32.635  23.170   4.218
62534W        W22070   8.787  44.788   0.354
62535W        W22071  31.019  42.467  14.364
62536W        W22072   5.824  42.478  12.069
62537W        W22073  33.444  40.955  14.322
62538W        W22074  25.981  12.841   0.806
62539W        W22075   4.362   6.418   2.675
62540W        W22076   3.391  24.525   2.294
62541W        W22077  10.713   8.255   5.151
62542W        W22078  19.670  31.458  14.412
62543W        W22079  11.263  18.238   3.702
62544W        W22080  32.427   0.787  14.296
62545W        W22081  24.072  40.359  14.940
62546W        W22082  30.087  10.263  11.557
62547W        W22083  10.248  30.435   0.471
62548W        W22084   7.756  26.496  13.415
62549W        W22085  33.066  12.359  10.635
62550W        W22086  30.058  27.126   0.351
62551W        W22087   0.344  17.215  12.343
62552W        W22088  28.453  33.421  13.409
62553W        W22089  37.423  37.520  13.806
62554W        W22090   4.445  19.158   2.808
62555W        W22091   9.185  35.987  12.950
62556W        W22092  23.091  34.533   1.240
62557W        W22093   2.733  33.380  10.963
62558W        W22094   5.791  28.659   4.344
62559W        W22095  36.584  38.844   1.745
62560W        W22096  10.833  38.005   1.728
62561W        W22097  21.202  36.087   9.550
62562W        W22098  36.095   9.203   0.394
62563W        W22099  24.618  15.083   4.826
62564W        W22100   9.336  44.875  13.811
62565W        W22101   9.801  23.700   1.909
62566W        W22102  16.730   5.904  13.008
62567W        W22103   8.796  37.878  13.924
62568W        W22104  20.201  38.338  14.877
62569W        W22105  17.269  37.339  12.087
62570W        W22106  15.255  38.455   4.322
62571W        W22107  19.080  31.460   1.449
62572W        W22108  15.155  19.255   0.311
62573W        W22109  25.686  12.165   3.373
62574W        W22110  27.092  36.850   0.300
62575W        W22111  38.867  14.100   0.923
62576W        W22112  10.138  30.515   4.639
62577W        W22113  11.265  12.824  12.096
62578W        W22114  39.548  11.140   4.632
62579W        W22115   1.873  17.274   3.762
62580W        W22116   7.287  24.604   0.823
62581W        W22117  41.448   5.245  14.285
62582W        W22118  25.503  14.292  11.857
62583W        W22119   1.827   6.859  14.403
62584W        W22120  25.126  23.138  12.973
62585W        W22121  23.572  20.157  13.912
62586W        W22122  43.425  16.583   3.756
62587W        W22123  17.075   3.714   0.331
62588W        W22124  43.439  20.165   4.314
62589W        W22125  35.977   9.781  11.440
62590W        W22126  21.526  10.187  14.985
62591W        W22127   2.754  30.561  13.979
62592W        W22128  38.882  29.005   1.349
62593W        W22129  36.451  22.583   2.845
62594W        W22130  18.116  18.678   0.347
62595W        W22131  44.827  36.396  10.420
62596W        W22132  21.254  14.132   1.275
62597W        W22133  19.711   2.747  13.353
62598W        W22134   0.310   6.335  12.847
62599W        W22135  16.116  43.498   0.311
62600W        W22136  25.061  43.303  14.378
62601W        W22137  20.561  38.892  14.427
62602W        W22138  40.054  37.989  13.496
62603W        W22139  16.715  28.153  11.407
62604W        W22140   7.772   3.355   0.890
62605W        W22141  41.862  19.250  14.782
62606W        W22142  30.577  39.841   4.784
62607W        W22143  40.832  28.055   3.224
62608W        W22144  11.348   2.785   3.156
62609W        W22145   5.763  12.721  14.383
62610W        W22146  37.392  27.143  14.488
62611W        W22147  13.222   3.720  13.877
62612W        W22148  43.916  38.028  13.861
62613W        W22149  29.043  10.166   0.915
62614W        W22150  13.228  10.206  14.996
62615W        W22151   6.267  42.963   3.715
62616W        W22152   0.363  42.870   0.406
62617W        W22153   7.780   2.835  12.349
62618W        W22154   3.883   1.822  14.771
62619W        W22155  13.161   4.315   0.477
62620W        W22156   0.337  30.016   3.704
62621W        W22157  36.553  27.179   2.683
62622W        W22158   6.885  42.939   1.395
62623W        W22159  42.990  39.945   4.258
62624W        W22160  11.169  11.729   4.343
62625W        W22161  14.739  37.086  13.898
62626W        W22162  18.153   1.257  11.084
62627W        W22163  38.886  35.985  12.081
62628W        W22164   5.931  41.515  11.453
62629W        W22165  16.088  29.101   4.654
62630W        W22166  17.275   8.259   1.363
62631W        W22167  39.839  22.211  13.902
62632W        W22168  22.045  10.246  12.954
62633W        W22169  18.661  34.942  12.444
62634W        W22170  39.376  10.205  12.825
62635W        W22171  34.941  35.868  12.440
62636W        W22172  19.053   3.344  11.990
62637W        W22173   0.405  30.622  13.054
62638W        W22174  25.055  44.817  12.969
62639W        W22175  11.663  19.083   1.339
62640W        W22176  19.253  35.883  11.590
62641W        W22177   7.698   1.402  14.836
62642W        W22178   6.695  42.790  11.470
62643W        W22179  10.269   8.209   2.783
62644W        W22180   9.858  43.460  10.991
62645W        W22181  19.146  22.095   3.639
62646W        W22182  25.563  31.625   2.787
62647W        W22183   8.277  20.239   2.203
62648W        W22184  44.343   6.691  11.491
62649W        W22185  32.908  20.752   4.831
62650W        W22186  40.843  17.727  11.046
62651W        W22187  39.462  32.629   3.814
62652W        W22188  12.173  44.332   2.310
62653W        W22189  37.008  22.136  12.873
62654W        W22190   1.823  39.854  11.924
62655W        W22191  30.953  34.514   4.838
62656W        W22192  18.194  33.068   3.161
62657W        W22193  37.865  44.367  10.564
62658W        W22194  39.921  31.592   4.134
62659W        W22195  16.760  37.499   0.314
62660W        W22196  11.632  24.712  10.901
62661W        W22197  39.328  34.995   1.755
62662W        W22198   0.807  19.571   5.157
62663W        W22199  24.587  20.040   0.809
62664W        W22200  23.101   8.726   1.333
62665W        W22201  13.735  41.015  10.973
62666W        W22202   8.753  30.498   3.696
62667W        W22203  42.333  38.410   1.250
62668W        W22204  18.574  44.381  13.376
62669W        W22205  22.593  30.954   3.851
62670W        W22206  42.333  24.042   4.617
62671W        W22207  38.975  24.539  14.419
62672W        W22208  43.359  28.948  13.904
62673W        W22209   7.877  35.979   9.938
62674W        W22210   8.207  31.406   2.367
62675W        W22211  20.107  30.434   1.912
62676W        W22212   6.788  21.017  14.284
62677W        W22213  41.943  41.839   4.123
62678W        W22214  43.355  18.589   3.330
62679W        W22215  18.630   1.829   0.949
62680W        W22216  30.970  35.531   3.182
62681W        W22217   1.401  37.570   2.690
62682W        W22218  23.215   4.343  11.075
62683W        W22219  26.127   3.411   2.313
62684W        W22220   1.783  23.653   0.873
62685W        W22221  35.391   4.821  10.021
62686W        W22222  44.477  38.861  11.520
62687W        W22223  11.309  11.320   1.234
62688W        W22224  35.905  11.822  13.545
62689W        W22225  38.344  34.096   4.622
62690W        W22226  16.244  28.677   3.692
62691W        W22227  20.609  28.008  12.001
62692W        W22228  27.094   9.671  11.966
62693W        W22229  32.613  16.569  13.384
62694W        W22230  35.868  35.439  11.475
62695W        W22231  14.147  19.684   4.764
62696W        W22232   1.968   4.420  11.503
62697W        W22233  23.573  11.293   1.694
62698W        W22234  16.732   9.202   4.824
62699W        W22235  20.638  27.030  10.485
62700W        W22236  44.941   7.332  14.421
62701W        W22237  28.488   7.891   3.284
62702W        W22238  28.034  35.489  11.952
62703W        W22239  25.530   7.282   4.839
62704W        W22240  25.111  34.881   1.442
62705W        W22241   1.417  44.278   1.718
62706W        W22242  35.516  27.954   4.684
62707W        W22243  36.939  36.901  12.534
62708W        W22244  21.160   3.917  12.490
62709W        W22245  31.110  33.975  10.938
62710W        W22246  23.681  17.576   4.719
62711W        W22247  39.857   0.922  12.035
62712W        W22248  27.544   3.456   1.283
62713W        W22249   3.737  33.579  10.959
62714W        W22250  22.596  10.212  13.013
62715W        W22251  42.354  41.899   2.875
62716W        W22252  40.528   6.428   0.876
62717W        W22253  20.650  16.679   4.689
62718W        W22254  43.498  29.616  14.483
62719W        W22255  29.958   6.212  12.577
62720W        W22256  27.122   1.454  10.459
62721W        W22257  40.963  35.044   1.404
62722W        W22258   6.702  33.083  11.971
62723W        W22259  16.732  18.681  11.087
62724W        W22260  36.447  25.971   3.690
62725W        W22261  23.500  22.627  14.356
62726W        W22262  34.458   3.772   9.649
62727W        W22263  42.940  11.373   9.552
62728W        W22264  42.506  20.249   4.809
62729W        W22265  10.143   8.313  13.384
62730W        W22266  10.207  30.421  14.370
62731W        W22267  25.985   2.750   1.764
62732W        W22268  28.139  37.507   3.296
62733W        W22269  31.522   4.720   4.236
62734W        W22270  22.148  39.375   4.740
62735W        W22271  13.275   5.253   2.269
62736W        W22272  23.573   9.744  13.412
62737W        W22273   1.942   1.458  10.555
62738W        W22274  26.567  26.147   3.314
62739W        W22275  26.522  18.245   1.215
62740W        W22276  42.494   2.919  13.987
62741W        W22277  15.662   5.311   0.359
62742W        W22278   4.281  38.916  11.883
62743W        W22279  13.283   5.283   1.918
62744W        W22280  16.278  31.084   2.719
62745W        W22281   8.374  44.808   1.335
62746W        W22282  15.210  43.363   1.899
62747W        W22283  41.987  10.801   1.810
62748W        W22284   5.926  19.638   2.201
62749W        W22285  43.479  44.916  10.992
62750W        W22286  26.166  38.931  14.912
62751W        W22287  37.961  18.171  12.835
62752W        W22288  19.567  29.051  11.395
62753W        W22289  24.569  21.711  13.357
62754W        W22290  31.547  24.487  14.348
62755W        W22291  36.949  33.936  12.957
62756W        W22292  33.502  19.170   4.164
62757W        W22293  24.073   6.410   1.424
62758W        W22294  44.457  29.629  12.870
62759W        W22295  30.140   9.752  10.895
62760W        W22296  39.938  31.952  12.022
62761W        W22297   6.307  31.620   4.788
62762W        W22298  12.739  35.992  11.485
62763W        W22299  22.152  25.486   2.677
62764W        W22300  28.552  33.084   1.214
62765W        W22301  38.529  25.173  13.337
62766W        W22302  24.545  40.405   4.275
62767W        W22303  11.736  38.991  11.548
62768W        W22304  12.787  39.044   0.871
62769W        W22305  12.766   7.393   0.868
62770W        W22306  13.272  44.826   3.830
62771W        W22307   0.288  17.133  12.943
62772W        W22308   1.271  23.509   5.782
62773W        W22309  19.176   7.205  13.331
62774W        W22310  34.059   4.230   0.252
62775W        W22311  22.653   5.316  13.889
62776W        W22312  14.227  36.982   3.827
62777W        W22313  28.625  41.493  13.931
62778W        W22314  22.691  16.569   1.311
62779W        W22315  15.174  25.010  14.924
62780W        W22316  35.427  21.135   4.674
62781W        W22317  18.175  32.467  13.962
62782W        W22318  42.820  41.897   2.677
62783W        W22319  37.017  29.049   0.390
62784W        W22320  25.019  24.494  12.034
62785W        W22321  41.833  37.535  14.374
62786W        W22322  28.970  16.724  12.068
62787W        W22323  29.600  24.050  13.901
62788W        W22324  13.271  30.567   2.676
62789W        W22325  38.951  35.532  13.463
62790W        W22326  27.611  33.952   1.323
62791W        W22327  36.417   8.763   9.985
62792W        W22328  28.968  20.598  13.033
62793W        W22329  13.617  37.050   1.315
62794W        W22330  33.385  13.810  13.049
62795W        W22331   4.318  36.027  13.030
62796W        W22332  43.872  25.187   2.813
62797W        W22333  24.092  33.037   4.838
62798W        W22334  24.219   6.215  13.926
62799W        W22335  11.808  13.817  14.511
62800W        W22336   2.943  25.679   3.339
62801W        W22337  18.629  14.155   3.291
62802W        W22338  29.651  40.382  12.970
62803W        W22339  22.529  31.417  12.932
62804W        W22340   9.744  20.541  14.030
62805W        W22341   1.327  15.240   2.276
62806W        W22342  11.214  29.509  11.393
62807W        W22343   8.816   0.448  11.495
62808W        W22344   1.970  28.522   3.282
62809W        W22345  40.970  37.944  13.845
62810W        W22346  25.007   3.268   2.690
62811W        W22347  35.105  19.594  14.373
62812W        W22348  42.339  28.080   0.760
62813W        W22349  27.000   7.199   3.705
62814W        W22350  16.628  18.152   3.355
62815W        W22351  25.558  40.006   4.656
62816W        W22352   6.182  21.737   0.336
62817W        W22353  29.455  14.254  10.003
62818W        W22354  36.422  24.568  13.880
62819W        W22355  26.540  14.210  11.885
62820W        W22356  17.265  33.487  10.527
62821W        W22357  23.525  31.517  12.090
62822W        W22358   4.934   9.344   1.429
62823W        W22359  16.648  38.510  14.897
62824W        W22360  44.856  16.695  10.644
62825W        W22361   0.878  20.236   1.392
62826W        W22362  23.512   6.867  14.976
62827W        W22363  30.951  18.629  12.901
62828W        W22364  22.239  19.111  11.860
62829W        W22365  21.208  18.613   2.260
62830W        W22366  42.301  37.490  13.422
62831W        W22367   8.778  23.526   4.664
62832W        W22368   0.809  20.152  11.064
62833W        W22369  38.003   3.331  14.912
62834W        W22370  14.768  13.173   3.268
62835W        W22371   4.726  11.674  12.980
62836W        W22372  27.579  20.686   1.447
62837W        W22373   2.945  44.379  11.099
62838W        W22374  35.042   3.296   2.717
62839W        W22375  29.986  35.089  14.769
62840W        W22376  15.256  33.419  10.562
62841W        W22377  24.155   2.732  14.989
62842W        W22378  37.520  13.204  12.348
62843W        W22379  26.077  29.948   4.133
62844W        W22380  28.062  18.611  13.527
62845W        W22381  33.983   2.456   0.442
62846W        W22382  27.120  23.212   1.761
62847W        W22383  16.161  14.609   3.773
62848W        W22384  33.529  31.953   1.790
62849W        W22385   0.382  23.097   4.693
62850W        W22386  21.651  27.091   4.196
62851W        W22387  22.244   2.729  14.926
62852W        W22388   3.269  13.199   3.365
62853W        W22389  18.054   8.733   1.254
62854W        W22390  33.902  44.354  12.554
62855W        W22391  14.636  32.500  14.851
62856W        W22392   7.210  35.457  13.870
62857W        W22393  37.011  19.579  11.588
62858W        W22394   1.478  12.176   2.288
62859W        W22395   2.439   6.418   2.841
62860W        W22396  35.426   7.180  14.458
62861W        W22397  15.789   7.301  10.487
62862W        W22398  14.309  12.739  10.409
62863W        W22399  33.931  19.758   2.242
62864W        W22400  36.407  10.353  13.413
62865W        W22401  21.523  21.259   4.301
62866W        W22402  11.368   7.832  11.878
62867W        W22403   4.435  28.167   0.411
62868W        W22404   3.734   3.296  11.975
62869W        W22405  44.769  32.491  13.819
62870W        W22406  10.848  39.348   4.782
62871W        W22407   5.772   0.362  12.561
62872W        W22408  16.275   7.798  13.327
62873W        W22409  12.783  23.137   0.849
62874W        W22410  37.438  41.865   3.815
62875W        W22411   8.269  36.445   4.597
62876W        W22412  19.650  35.520   2.310
62877W        W22413  39.981  11.230   1.411
62878W        W22414  26.494  14.648   3.305
62879W        W22415  32.530  42.379  11.372
62880W        W22416  44.812  40.965   1.795
62881W        W22417   0.264   4.339  12.911
62882W        W22418  16.743  24.191   3.722
62883W        W22419  14.769  27.467   3.284
62884W        W22420  40.837   4.372  11.084
62885W        W22421  20.269  44.494   9.963
62886W        W22422  28.964   8.207  10.596
62887W        W22423  21.253   4.339  12.834
62888W        W22424   2.915  42.963  11.091
62889W        W22425  23.705  19.141   2.241
62890W        W22426   6.812  19.157   4.749
62891W        W22427   5.293  12.261  12.071
62892W        W22428  38.465  13.298  11.120
62893W        W22429   2.797  43.767   1.845
62894W        W22430   1.900  44.829  12.388
62895W        W22431  16.617  29.488  14.977
62896W        W22432  11.764  43.952  12.578
62897W        W22433  34.878  36.869   2.268
62898W        W22434  32.586  13.350   4.199
62899W        W22435  17.705  13.318  14.312
62900W        W22436  28.114  14.236   0.394
62901W        W22437  25.552   9.724  11.501
62902W        W22438  29.031   0.445   0.479
62903W        W22439  43.482  27.655  12.369
62904W        W22440  39.908  17.115  10.518
62905W        W22441   1.444  42.322   3.832
62906W        W22442  32.089   8.725   0.752
62907W        W22443  16.250  10.194   4.744
62908W        W22444   3.739  26.117   1.274
62909W        W22445  31.151  13.311   3.369
62910W        W22446   0.989  44.837  11.896
62911W        W22447  13.794  18.136  10.420
62912W        W22448  31.445  14.733  12.018
62913W        W22449  15.227  39.892   3.664
62914W        W22450  21.196   6.689   0.823
62915W        W22451  30.050   8.696   0.382
62916W        W22452  15.580  31.055   4.734
62917W        W22453   4.434  27.007  12.030
62918W        W22454  12.335  23.614   2.773
62919W        W22455  12.293  26.168  14.911
62920W        W22456  19.261  19.116   4.679
62921W        W22457  31.620   2.800  14.290
62922W        W22458  35.096  35.601   0.807
62923W        W22459  14.716  38.393   2.357
62924W        W22460  34.528  42.834   0.847
62925W        W22461  24.037   7.747   5.125
62926W        W22462  39.471   8.778  10.453
62927W        W22463  35.361   6.355  14.380
62928W        W22464  30.521  24.524   0.816
62929W        W22465   2.732  21.564   1.807
62930W        W22466  39.872  44.866   3.859
62931W        W22467  28.956   0.281   3.307
62932W        W22468  18.199  12.200   4.113
62933W        W22469  24.065  23.029  11.867
62934W        W22470  34.875  17.763   3.831
62935W        W22471  29.101  19.551  12.437
62936W        W22472  28.484   3.891   3.845
62937W        W22473  33.397  12.610  10.422
62938W        W22474  35.411  30.013   4.305
62939W        W22475  19.603  21.234  13.308
62940W        W22476  25.597  42.829  14.484
62941W        W22477  17.673  41.405   0.288
62942W        W22478  42.915  28.657  11.416
62943W        W22479  13.342  33.545  14.917
62944W        W22480   3.909   6.396   2.728
62945W        W22481  21.167  37.542  13.500
62946W        W22482  12.857  31.063  13.940
62947W        W22483  12.710  22.611  12.028
62948W        W22484  27.610   1.303   1.265
62949W        W22485  28.025  39.864  13.487
62950W        W22486  24.164  37.917   5.648
62951W        W22487  26.181   3.338  14.842
62952W        W22488  38.438  25.043  11.889
62953W        W22489   6.213  32.576  11.924
62954W        W22490  42.811  25.601  14.444
62955W        W22491  33.387  20.684  13.890
62956W        W22492  42.873   6.705  12.398
62957W        W22493  32.510  28.596   2.845
62958W        W22494  23.188  40.322   2.347
62959W        W22495   4.383  18.150   2.811
62960W        W22496  40.833   4.328  14.510
62961W        W22497   6.762  33.441   3.316
62962W        W22498  43.934  19.623   2.342
62963W        W22499   5.849  16.595  12.071
62964W        W22500  38.864  32.092   3.169
62965W        W22501  10.644  22.535  14.879
62966W        W22502  20.594   9.340  10.628
62967W        W22503  44.814  17.681   4.245
62968W        W22504  25.618  42.393  13.856
62969W        W22505  17.772   9.264   1.727
62970W        W22506  44.992  21.644   0.432
62971W        W22507   9.816  15.682   3.341
62972W        W22508  31.516   4.244   3.803
62973W        W22509  43.792  29.164  14.890
62974W        W22510   3.841  28.620   0.807
62975W        W22511  35.097  16.688  14.884
62976W        W22512  37.498   6.910  12.340
62977W        W22513  42.448  19.694  13.809
62978W        W22514   9.693   5.798   4.655
62979W        W22515  40.475  36.880  11.513
62980W        W22516  15.306  27.112   4.307
62981W        W22517  37.513  44.471   1.754
62982W        W22518  39.437  21.583  13.929
62983W        W22519  19.171   3.412  13.929
62984W        W22520  22.225  29.933   0.879
62985W        W22521  12.726   1.366  13.976
62986W        W22522   2.327  17.647  11.524
62987W        W22523   7.401  32.583   3.292
62988W        W22524  14.270  43.827  13.383
62989W        W22525  38.440  18.649   4.760
62990W        W22526   1.755  22.705   0.763
62991W        W22527  38.531   9.270   3.198
62992W        W22528   8.194  22.155   0.407
62993W        W22529  28.973  42.994   3.641
62994W        W22530  12.264  15.167   2.373
62995W        W22531  24.988  21.168   1.413
62996W        W22532  12.711  40.354   0.455
62997W        W22533   1.973  30.644  11.050
62998W        W22534  17.616  27.562  12.490
62999W        W22535  32.549   6.183  12.966
63000W        W22536  13.109   0.775  10.963
63001W        W22537  24.489  37.389   4.345
63002W        W22538  19.270  34.096  14.505
63003W        W22539   9.873   4.270   0.374
63004W        W22540  27.480  15.141  14.312
63005W        W22541  31.077  36.084  12.967
63006W        W22542  19.212  10.155  14.004
63007W        W22543  43.319   5.312  12.853
63008W        W22544  22.513  44.966  10.501
63009W        W22545   4.939   0.383   4.258
63010W        W22546   8.388   1.276   1.386
63011W        W22547   1.891  17.172  11.571
63012W        W22548   9.275  26.147  10.535
63013W        W22549   7.245   9.293  13.545
63014W        W22550  14.759   8.736  13.988
63015W        W22551   4.277  27.641  11.512
63016W        W22552   7.215  27.145   9.986
63017W        W22553  26.607  31.551  10.441
63018W        W22554   6.325  43.389   3.808
63019W        W22555  19.635  20.107  14.505
63020W        W22556  37.364   1.945   0.853
63021W        W22557  37.384   2.741   1.335
63022W        W22558  37.545  20.042   0.350
63023W        W22559  34.890  29.459  14.394
63024W        W22560   0.484  39.332   2.417
63025W        W22561   1.367  21.684  14.859
63026W        W22562  33.080  18.206  10.979
63027W        W22563  20.574  11.846   4.622
63028W        W22564  10.843  26.617  12.475
63029W        W22565  34.038  42.812   1.383
63030W        W22566  29.583   7.709  11.588
63031W        W22567   7.810   2.811  12.957
63032W        W22568  40.866  36.420   3.382
63033W        W22569  25.054  28.134   3.364
63034W        W22570  40.004  39.555   0.802
63035W        W22571  27.568  42.352  11.050
63036W        W22572  31.007  14.186   2.309
63037W        W22573  33.035  44.762   0.440
63038W        W22574  33.974  11.264  10.473
63039W        W22575  20.749  19.699   4.345
63040W        W22576  31.006  24.000  13.992
63041W        W22577  20.678  34.040  13.535
63042W        W22578  33.978  28.676  11.062
63043W        W22579  16.583   6.842  14.388
63044W        W22580  36.408  35.482   2.272
63045W        W22581  31.067  15.816   3.270
63046W        W22582  19.158   8.164   1.353
63047W        W22583  43.934  17.181   4.139
63048W        W22584  32.523  27.150   5.705
63049W        W22585   0.422  38.404   0.332
63050W        W22586  11.714  20.137   0.777
63051W        W22587  27.123  40.945   2.271
63052W        W22588  23.135  44.305  14.963
63053W        W22589  20.677  23.191  13.456
63054W        W22590   6.812   0.746  14.314
63055W        W22591  17.691   6.762   2.225
63056W        W22592   7.183  35.376  12.555
63057W        W22593  10.160  35.427  13.826
63058W        W22594  28.625   9.667  14.931
63059W        W22595   7.307  30.565   3.257
63060W        W22596  37.554   9.262   1.382
63061W        W22597   2.403  13.323   5.124
63062W        W22598  29.543  19.239   4.351
63063W        W22599  33.536  30.631  14.410
63064W        W22600  24.607  24.618  12.945
63065W        W22601   3.266  36.423   4.715
63066W        W22602  13.251   3.761  12.531
63067W        W22603   7.205  33.449   2.396
63068W        W22604  24.716  16.079  13.969
63069W        W22605  42.845  33.970  10.541
63070W        W22606  31.001  15.173   1.895
63071W        W22607  10.850  44.897  11.419
63072W        W22608  31.628  29.947   1.833
63073W        W22609   2.288   6.217   4.809
63074W        W22610  20.588  31.069  13.390
63075W        W22611   2.729  16.145  14.853
63076W        W22612  40.343  22.155   0.301
63077W        W22613  15.092  36.906   4.316
63078W        W22614  16.661  33.993   4.816
63079W        W22615  21.117  31.619  13.994
63080W        W22616  43.975  15.742  14.917
63081W        W22617  30.016  11.849   1.927
63082W        W22618  34.558  40.922   0.857
63083W        W22619  26.516  23.086  14.934
63084W        W22620  23.102   8.711  14.277
63085W        W22621  35.434  41.294  10.509
63086W        W22622  37.025  20.544   0.868
63087W        W22623  41.405  10.687  11.996
63088W        W22624  26.530  25.604   2.400
63089W        W22625  37.530  38.991  14.964
63090W        W22626  36.953  42.447   3.260
63091W        W22627  18.163  22.164  10.064
63092W        W22628  19.725  22.741   3.147
63093W        W22629  37.946  10.789  12.877
63094W        W22630   5.899   5.790   4.647
63095W        W22631  37.058  37.516  10.451
63096W        W22632  40.976  28.435   2.248
63097W        W22633  37.877  42.902  11.559
63098W        W22634   1.475   8.302  12.357
63099W        W22635   4.931  29.996  12.426
63100W        W22636  36.509  41.940   2.885
63101W        W22637  16.600   8.336   0.914
63102W        W22638  18.598  38.449  10.480
63103W        W22639  42.380  27.692   1.851
63104W        W22640  34.494  18.573   4.137
63105W        W22641  33.504  34.494   0.378
63106W        W22642  10.265   2.299   2.862
63107W        W22643  44.770  20.194  10.566
63108W        W22644  21.026   4.278   0.263
63109W        W22645  38.524  14.713   3.710
63110W        W22646  12.330  38.514   2.335
63111W        W22647  40.357  26.461  11.495
63112W        W22648   4.723   3.886   2.719
63113W        W22649   0.771  24.099  12.420
63114W        W22650   0.803   5.371  14.483
63115W        W22651  24.228  44.916  14.856
63116W        W22652   3.854  16.312   4.820
63117W        W22653   1.414  13.776  12.968
63118W        W22654   0.894  24.153  11.987
63119W        W22655   5.858  43.490  12.541
63120W        W22656  16.246  40.827  10.893
63121W        W22657  42.818   0.974   1.215
63122W        W22658  26.489  38.565   4.290
63123W        W22659  26.642  29.111   3.332
63124W        W22660  28.463   9.297   0.755
63125W        W22661   2.891  31.963  10.413
63126W        W22662  15.653  16.176   4.197
63127W        W22663  29.986  22.103   0.775
63128W        W22664  15.644  25.964   3.184
63129W        W22665  15.242  36.972   0.891
63130W        W22666   6.821  43.919  11.491
63131W        W22667  43.447   8.301  13.382
63132W        W22668   4.260  23.147   1.900
63133W        W22669  22.114  15.682  14.464
63134W        W22670  28.650  28.947   0.952
63135W        W22671  16.124  17.233   3.254
63136W        W22672  13.692  42.896   0.825
63137W        W22673  28.497  19.248   5.720
63138W        W22674   6.265  31.462   0.346
63139W        W22675   9.854  38.431   4.602
63140W        W22676  44.777  33.925   2.373
63141W        W22677  18.142   8.347   4.236
63142W        W22678  17.075   9.837   1.888
63143W        W22679   4.874  21.624   4.235
63144W        W22680  11.331  32.561  14.915
63145W        W22681  26.625  43.422   4.177
63146W        W22682  28.655   0.251   4.157
63147W        W22683  12.708  38.409   3.281
63148W        W22684   8.769  14.125  10.595
63149W        W22685  15.684  38.427   1.873
63150W        W22686  29.549  20.149  12.837
63151W        W22687  16.580  20.230   2.222
63152W        W22688  10.306  32.100  12.882
63153W        W22689  35.553  10.342   0.827
63154W        W22690  22.124  34.547  12.971
63155W        W22691  16.735   5.796  10.422
63156W        W22692  30.063  20.180  13.840
63157W        W22693  12.265  34.465   2.191
63158W        W22694  39.808   5.290   3.339
63159W        W22695  23.147  25.093  12.058
63160W        W22696  27.581  34.465  12.517
63161W        W22697  40.817   0.438   0.327
63162W        W22698  19.105  13.608  13.367
63163W        W22699  44.903  44.436   3.708
63164W        W22700  27.501   7.837   2.763
63165W        W22701  24.054  28.610  13.971
63166W        W22702   4.352  32.616  13.802
63167W        W22703  18.095  35.478   3.231
63168W        W22704   5.265  42.385   1.831
63169W        W22705  37.550  32.132   2.848
63170W        W22706  16.570  33.898  10.465
63171W        W22707  34.892  15.102  13.854
63172W        W22708  17.222   1.976   0.769
63173W        W22709  16.781  39.508  13.047
63174W        W22710   4.260   6.374   3.232
63175W        W22711   1.929  31.455   1.267
63176W        W22712  33.065  34.384   4.742
63177W        W22713  16.315  35.470  12.039
63178W        W22714  38.547  38.947   3.856
63179W        W22715  31.944  13.717  10.923
63180W        W22716  37.073   0.984   3.145
63181W        W22717  13.166   9.193  14.950
63182W        W22718  22.102  31.979   1.751
63183W        W22719  24.718  25.165   1.771
63184W        W22720   6.868  43.822  13.365
63185W        W22721   5.858  17.619   1.394
63186W        W22722  32.992  33.004  11.420
63187W        W22723  40.541  30.596   1.698
63188W        W22724  14.320  24.707   2.294
63189W        W22725   0.459   9.288  12.483
63190W        W22726   4.222   5.261  14.319
63191W        W22727  38.013  11.760   0.923
63192W        W22728  30.924  42.407   2.794
63193W        W22729   5.810  34.867   2.197
63194W        W22730  28.009  23.176  14.444
63195W        W22731  31.413  28.520  14.406
63196W        W22732  10.361  10.820  14.003
63197W        W22733  26.124  26.130   3.259
63198W        W22734   3.440  19.666  11.944
63199W        W22735  25.062  37.001  12.532
63200W        W22736  33.096  19.755  12.444
63201W        W22737  10.146  36.082   5.206
63202W        W22738  14.697  38.886   4.315
63203W        W22739  34.975  11.361  11.002
63204W        W22740  37.034  22.057   3.176
63205W        W22741  41.355   3.721   0.859
63206W        W22742   9.765  39.447   3.185
63207W        W22743  18.679  37.002   2.858
63208W        W22744  43.922   2.920   0.369
63209W        W22745   9.264   5.241   3.340
63210W        W22746  36.891   0.397   5.730
63211W        W22747  27.143  13.324   4.670
63212W        W22748   4.325  22.098   3.314
63213W        W22749  38.875  42.527  11.025
63214W        W22750  34.518   5.234   1.423
63215W        W22751  23.612  37.865   1.242
63216W        W22752  15.720   3.870  12.561
63217W        W22753  16.079   7.788  13.804
63218W        W22754  41.499  21.586  10.476
63219W        W22755   2.758  20.644  10.489
63220W        W22756  33.079  35.012  10.472
63221W        W22757  31.029   3.246  14.462
63222W        W22758  28.500  39.332   2.781
63223W        W22759  33.546  38.346   4.224
63224W        W22760  25.496   5.379   5.160
63225W        W22761  37.943  13.818  14.436
63226W        W22762  15.243  16.619   1.213
63227W        W22763  25.695  10.302  14.966
63228W        W22764  15.325  34.593  13.853
63229W        W22765  26.518  18.760   2.664
63230W        W22766  42.326  33.586   3.674
63231W        W22767  35.568   1.283   0.954
63232W        W22768  12.796  33.381   4.698
63233W        W22769  28.454  23.505   2.313
63234W        W22770  29.508  18.107  14.908
63235W        W22771  17.612  21.522  14.835
63236W        W22772  43.942  33.945  13.058
63237W        W22773  13.710  26.587   0.319
63238W        W22774  33.558   0.372  13.005
63239W        W22775  41.480  24.071  11.611
63240W        W22776  21.687   0.296  10.484
63241W        W22777   1.239  41.893   3.265
63242W        W22778   8.667  18.554   4.737
63243W        W22779   0.855  14.102  11.888
63244W        W22780  24.665   0.771  11.942
63245W        W22781  23.521  27.651  13.904
63246W        W22782  19.193   3.258   0.319
63247W        W22783   9.680  43.792   3.319
63248W        W22784   2.275  31.552   2.316
63249W        W22785  37.960  40.481   4.326
63250W        W22786   7.404  21.036  12.553
63251W        W22787  36.918   8.215   2.675
63252W        W22788   4.435  13.662   2.332
63253W        W22789  38.418  32.977   1.310
63254W        W22790  39.510  41.443  14.975
63255W        W22791  18.216  11.234  14.878
63256W        W22792   8.727  17.599   4.655
63257W        W22793  34.955  30.927  11.418
63258W        W22794  28.991  34.870  14.000
63259W        W22795   8.193   8.744   4.771
63260W        W22796  35.084  37.903   3.729
63261W        W22797   2.963  12.731   3.351
63262W        W22798  13.153  38.997  12.437
63263W        W22799  16.291  40.489   0.463
63264W        W22800  43.348  24.664   3.651
63265W        W22801  16.134  30.457  14.346
63266W        W22802   5.309   4.243  12.362
63267W        W22803   4.913  42.513   3.160
63268W        W22804  22.530  31.561  13.379
63269W        W22805   6.389   1.836  12.412
63270W        W22806  18.059   1.255   3.203
63271W        W22807   4.763  26.677   2.236
63272W        W22808  19.640  18.087  13.043
63273W        W22809   7.224  16.293   4.140
63274W        W22810  33.103  24.049   1.283
63275W        W22811  36.444  15.233   2.383
63276W        W22812  14.741  14.270  12.997
63277W        W22813  18.127  16.194   2.319
63278W        W22814   2.265  33.985  11.564
63279W        W22815  37.530  30.048   1.751
63280W        W22816  43.828  15.095  10.598
63281W        W22817  26.626   5.196   3.772
63282W        W22818  14.667  11.848   0.379
63283W        W22819   2.447  40.459   2.281
63284W        W22820  27.126  17.698  11.018
63285W        W22821  39.412  35.503  13.983
63286W        W22822   9.178  10.684   0.270
63287W        W22823  36.445  15.244  11.003
63288W        W22824   0.432  13.107  13.496
63289W        W22825  10.710  38.914   3.207
63290W        W22826  33.434  43.305  14.419
63291W        W22827  19.766  18.123   2.419
63292W        W22828  22.581   7.703  10.585
63293W        W22829   3.749  19.646  11.447
63294W        W22830  35.083  12.857   3.329
63295W        W22831   4.755   4.742   0.304
63296W        W22832  35.007  15.139   4.688
63297W        W22833  33.112  13.211   4.800
63298W        W22834  32.611  20.039   4.606
63299W        W22835  17.709  12.741   1.929
63300W        W22836  11.845   0.489   3.311
63301W        W22837  27.152  35.918  11.907
63302W        W22838  10.753  37.475  12.526
63303W        W22839   4.832  41.936  14.974
63304W        W22840  36.411  44.981  12.019
63305W        W22841   3.726  37.410  13.844
63306W        W22842  11.855   8.243  10.961
63307W        W22843   5.860  26.055   0.374
63308W        W22844  34.998  28.154  13.798
63309W        W22845  29.601   3.753   2.896
63310W        W22846  18.710   5.395  11.994
63311W        W22847  31.915  11.865  13.801
63312W        W22848   2.726  43.773  14.806
63313W        W22849  33.564   7.803   0.753
63314W        W22850  22.107  23.035   4.177
63315W        W22851  39.418  21.034   2.759
63316W        W22852  22.997  37.075  10.545
63317W        W22853  34.948  38.336   4.327
63318W        W22854  26.669  39.007   4.780
63319W        W22855  43.810  14.175  11.942
63320W        W22856  31.484   5.331   0.297
63321W        W22857   0.433  14.731  13.985
63322W        W22858   8.884  44.894  11.089
63323W        W22859   0.893  24.555   2.205
63324W        W22860  17.169   7.254   2.820
63325W        W22861  43.988  34.096   4.261
63326W        W22862  30.552   2.435  12.449
63327W        W22863  44.764  44.758   3.712
63328W        W22864  41.332  26.510  11.999
63329W        W22865   3.753  13.760   0.372
63330W        W22866  38.497  34.013  12.094
63331W        W22867  15.656  20.660   2.347
63332W        W22868  15.788  16.237  11.495
63333W        W22869  17.689  41.962  11.124
63334W        W22870  28.142  25.055  12.940
63335W        W22871  40.430   9.717  13.922
63336W        W22872  43.885  18.578  13.791
63337W        W22873  18.699  44.314  11.525
63338W        W22874  15.601  13.341   2.865
63339W        W22875  21.527  23.058   0.852
63340W        W22876   1.855  20.601  12.480
63341W        W22877   0.974  29.473   9.947
63342W        W22878  30.654  26.518  14.294
63343W        W22879  26.181   1.470  11.572
63344W        W22880  38.025  16.625   4.297
63345W        W22881  30.502   9.362  13.980
63346W        W22882  19.285  28.137  10.985
63347W        W22883   2.864  21.694   0.886
63348W        W22884   6.195  37.399   9.973
63349W        W22885  27.940  17.672  13.042
63350W        W22886  17.651   5.374   4.124
63351W        W22887  13.256  38.948   0.452
63352W        W22888   7.872  14.202   4.612
63353W        W22889  30.436  41.411  12.007
63354W        W22890  38.385  37.927  10.615
63355W        W22891  41.395   6.758  12.964
63356W        W22892   8.830  29.136   4.145
63357W        W22893  22.517  40.543  14.867
63358W        W22894  14.237  30.652   0.911
63359W        W22895  35.885  15.299  10.637
63360W        W22896  33.117  30.648   3.835
63361W        W22897   8.687   8.888  10.569
63362W        W22898  39.319   7.667  10.426
63363W        W22899  37.994  23.559  14.920
63364W        W22900  27.510   4.905  12.078
63365W        W22901   8.770  26.960  13.798
63366W        W22902  27.983  17.214   4.694
63367W        W22903  29.468  20.527   1.872
63368W        W22904  25.214  15.271   2.683
63369W        W22905  29.540  18.755  10.964
63370W        W22906   1.468  44.819   0.403
63371W        W22907  29.596  13.158   0.409
63372W        W22908  41.464  29.563  12.882
63373W        W22909   5.225  29.990  10.420
63374W        W22910   1.398   9.257  11.429
63375W        W22911   5.279  34.465  11.410
63376W        W22912  12.809  29.047   0.803
63377W        W22913  28.550  38.360  13.916
63378W        W22914  23.001  26.698   4.702
63379W        W22915  25.603  12.854   2.310
63380W        W22916  44.482  19.627   1.360
63381W        W22917  21.552  13.201   3.322
63382W        W22918  17.661  14.272   2.765
63383W        W22919  33.096   2.401  10.936
63384W        W22920  21.170  25.209   2.855
63385W        W22921  14.331  25.100  10.571
63386W        W22922   9.791  35.403  14.819
63387W        W22923   7.728  30.045  10.445
63388W        W22924  33.886  18.227  10.443
63389W        W22925  17.173   2.724  12.458
63390W        W22926  37.891  42.870   1.435
63391W        W22927  18.708  10.360   0.453
63392W        W22928  11.329  36.856  11.570
63393W        W22929  15.808  44.346  11.076
63394W        W22930  34.378  10.298  13.312
63395W        W22931  16.742  11.265   2.304
63396W        W22932   5.277  11.724   1.935
63397W        W22933  15.173  26.544   1.714
63398W        W22934  32.610  23.223  12.918
63399W        W22935  41.975  32.060   5.115
63400W        W22936   8.355  27.590   3.225
63401W        W22937  28.990  32.103  12.840
63402W        W22938  44.990  27.515  14.010
63403W        W22939  11.231  15.804  14.934
63404W        W22940   2.262  42.877  10.092
63405W        W22941  32.628   1.822  12.054
63406W        W22942   0.328   1.466  11.446
63407W        W22943  41.347  30.657  12.878
63408W        W22944  10.314  35.922  12.004
63409W        W22945  31.589  39.321  14.442
63410W        W22946  36.349  41.400  11.608
63411W        W22947  33.413  29.459  14.375
63412W        W22948  17.756  34.948   0.799
63413W        W22949  20.081  10.287   4.336
63414W        W22950  11.255  31.455   2.307
63415W        W22951  16.692  14.118  10.997
63416W        W22952  21.247   2.469  10.947
63417W        W22953   3.822  16.078  10.969
63418W        W22954  24.130  24.717   0.377
63419W        W22955  19.070  36.895   1.374
63420W        W22956   4.886  31.012  12.443
63421W        W22957  18.219  26.635  11.521
63422W        W22958  29.085  40.988  14.407
63423W        W22959  15.667   2.886   2.864
63424W        W22960  11.776  33.589   1.761
63425W        W22961  22.601  38.857   1.740
63426W        W22962  44.927  12.714  12.924
63427W        W22963   5.717  20.610  14.954
63428W        W22964   2.323  18.222  12.561
63429W        W22965  34.911  30.425   1.320
63430W        W22966  18.256  38.361   0.353
63431W        W22967  44.351  19.054  14.978
63432W        W22968  33.013  39.946   4.301
63433W        W22969  42.334  35.360  12.058
63434W        W22970  19.757  23.635   2.268
63435W        W22971  10.318   7.401   0.769
63436W        W22972  28.114  20.050   1.391
63437W        W22973  13.336  13.258  14.939
63438W        W22974  35.589  42.483  14.992
63439W        W22975  23.493  30.476  14.369
63440W        W22976  24.558  26.695  13.397
63441W        W22977  44.891  43.786  13.378
63442W        W22978  23.698  17.737  12.066
63443W        W22979  22.177  37.509   5.271
63444W        W22980  32.912  21.648  12.958
63445W        W22981   9.242  29.669  11.964
63446W        W22982   5.194  38.981  12.827
63447W        W22983  40.840   9.787  13.802
63448W        W22984  13.287  16.233  11.566
63449W        W22985  40.349   0.278  14.321
63450W        W22986  16.151  28.578   3.153
63451W        W22987   1.417   9.222  14.297
63452W        W22988   2.368  40.406   2.677
63453W        W22989   5.223  28.609   3.177
63454W        W22990   3.910  23.094  11.044
63455W        W22991  20.070  18.252   0.293
63456W        W22992  22.012  36.065   0.442
63457W        W22993  42.990  27.575  12.038
63458W        W22994  13.784  37.533  14.373
63459W        W22995   1.870  37.448   4.694
63460W        W22996  17.225   5.242  13.922
63461W        W22997  10.186  11.307  11.126
63462W        W22998   2.359  18.272  13.469
63463W        W22999   8.865   6.857   0.831
63464W        W23000  22.592  40.432   2.279
63465W        W23001  20.656  14.208  14.445
63466W        W23002  42.867   5.888   3.690
63467W        W23003  42.852  28.489   1.300
63468W        W23004  11.828  31.540  13.533
63469W        W23005  43.996  21.514   3.870
63470W        W23006  23.076   5.248   4.281
63471W        W23007  22.023  43.345   4.693
63472W        W23008  40.040  12.170   1.238
63473W        W23009  34.980  18.249   0.805
63474W        W23010  37.037  14.822   3.864
63475W        W23011  12.797  12.197   2.411
63476W        W23012  37.072  37.052   3.767
63477W        W23013  28.065  39.971  10.487
63478W        W23014  16.589  24.545   3.210
63479W        W23015  12.764   6.208   5.165
63480W        W23016  15.628  37.358  11.065
63481W        W23017  17.183  21.694   1.226
63482W        W23018  44.894  21.209   3.805
63483W        W23019  32.613  21.744   4.639
63484W        W23020   9.241  40.799   1.399
63485W        W23021  26.083  28.500   0.815
63486W        W23022  37.582  43.394  13.838
63487W        W23023  26.490   5.917   3.311
63488W        W23024  20.213   1.324   0.909
63489W        W23025  17.217  30.452  12.909
63490W        W23026  42.849  21.641  12.524
63491W        W23027  27.637  19.669   2.238
63492W        W23028  42.434  42.518  11.869
63493W        W23029  37.998  32.897  12.996
63494W        W23030  39.405  25.072  11.546
63495W        W23031  37.847  17.287   2.319
63496W        W23032  30.992   8.166  12.964
63497W        W23033  18.170  35.108   3.188
63498W        W23034  30.473  34.017   1.309
63499W        W23035  20.051  17.137   2.874
63500W        W23036  33.468  41.961   0.901
63501W        W23037  40.503   2.800   1.753
63502W        W23038  34.090   8.163   2.754
63503W        W23039  24.591  17.656   1.387
63504W        W23040  11.749  19.141   4.818
63505W        W23041  27.635  17.306   3.380
63506W        W23042  34.895  10.718   0.354
63507W        W23043  20.061  25.486   1.741
63508W        W23044  37.907  33.528  12.027
63509W        W23045  36.991   2.934   1.722
63510W        W23046   9.315  35.602  13.947
63511W        W23047  20.595  12.266   0.794
63512W        W23048  39.372  14.711   2.311
63513W        W23049  12.819   2.871   3.709
63514W        W23050  23.160  43.948   3.227
63515W        W23051  41.500  38.845   3.165
63516W        W23052  17.775   7.291  11.893
63517W        W23053   0.771  38.398   2.294
63518W        W23054  37.084  41.812   0.870
63519W        W23055  39.345  41.801  11.391
63520W        W23056  20.672  33.563   3.158
63521W        W23057  36.090  15.206  12.437
63522W        W23058  23.022   5.688   1.916
63523W        W23059  25.011   5.702  14.817
63524W        W23060   7.860   1.963   1.930
63525W        W23061  23.690  43.507   2.364
63526W        W23062  12.789  38.415  13.991
63527W        W23063  41.321  43.347   3.751
63528W        W23064  11.349  29.115   2.236
63529W        W23065   7.784   8.166  13.025
63530W        W23066   0.867  16.684   3.159
63531W        W23067  22.724  28.990  12.391
63532W        W23068  34.474  32.601  10.917
63533W        W23069  17.643  14.153   3.175
63534W        W23070  24.642   1.875   4.725
63535W        W23071  21.557  25.119   4.761
63536W        W23072  27.168   3.882  14.287
63537W        W23073  18.601  35.015   4.315
63538W        W23074  33.119  11.139  13.323
63539W        W23075  16.318   3.836  14.421
63540W        W23076   3.335  25.024  13.939
63541W        W23077  32.565  28.464  14.842
63542W        W23078  34.115  34.082  13.439
63543W        W23079  31.599  10.732   0.436
63544W        W23080  18.592   1.938  13.794
63545W        W23081   6.774  21.257  12.912
63546W        W23082   6.197  40.857   2.206
63547W        W23083  19.764  12.697  14.483
63548W        W23084  14.174  15.810   9.987
63549W        W23085  23.146  17.792   2.373
63550W        W23086  19.096  22.586   1.738
63551W        W23087   8.206  13.186  13.833
63552W        W23088  15.678  42.015   3.707
63553W        W23089  14.682  11.266   4.723
63554W        W23090  35.491  36.472   4.765
63555W        W23091  17.731  39.540   1.212
63556W        W23092  42.384  12.324  14.847
63557W        W23093   1.950  37.457  13.061
63558W        W23094  35.379  25.605  14.297
63559W        W23095  36.924  10.654  11.389
63560W        W23096   2.313  42.847   5.190
63561W        W23097  26.649   1.470   4.231
63562W        W23098  30.625  41.935   0.414
63563W        W23099  25.074  36.359   1.747
63564W        W23100  19.061  42.928  12.870
63565W        W23101  28.621  42.920   3.684
63566W        W23102  38.475  15.257  12.855
63567W        W23103  23.563   2.328   4.658
63568W        W23104  44.403  25.116  10.570
63569W        W23105  43.358   0.282  13.853
63570W        W23106  15.159   1.382  13.984
63571W        W23107   5.888  20.645   1.318
63572W        W23108  21.571  21.045  13.995
63573W        W23109  27.116  24.535  14.975
63574W        W23110  22.170  35.039  10.645
63575W        W23111   5.374  15.282   3.793
63576W        W23112  14.216  12.265  10.562
63577W        W23113  27.044  21.205  11.446
63578W        W23114  18.779  24.577   4.254
63579W        W23115  35.071  17.272   1.726
63580W        W23116  18.630  19.608  12.431
63581W        W23117  18.724  26.539   0.774
63582W        W23118   6.748  22.571   2.799
63583W        W23119  31.621  38.381   4.688
63584W        W23120   7.325  33.881  12.374
63585W        W23121  14.749  44.298   4.237
63586W        W23122  41.378  26.957  11.084
63587W        W23123  13.705  13.193  14.479
63588W        W23124  37.446  11.222   1.258
63589W        W23125  44.380  37.015  11.011
63590W        W23126  18.056  37.381  10.093
63591W        W23127   4.839   7.256   9.998
63592W        W23128   6.391  18.182   2.868
63593W        W23129  32.500   9.227   4.683
63594W        W23130   6.730  39.381  12.498
63595W        W23131  39.345  20.764   4.613
63596W        W23132  43.500  19.238   0.288
63597W        W23133  27.148   0.796   3.314
63598W        W23134  44.402  21.230  12.927
63599W        W23135  18.648  39.979  10.046
63600W        W23136  27.549  16.722   2.892
63601W        W23137   3.304  30.050  13.820
63602W        W23138  14.590  10.740   1.341
63603W        W23139  39.450  22.733  10.405
63604W        W23140  29.075  41.460  14.448
63605W        W23141  28.127  26.051   4.184
63606W        W23142  25.609  17.236   2.380
63607W        W23143  20.129  34.403  10.424
63608W        W23144  20.663  35.059   1.783
63609W        W23145   2.294   1.815   4.732
63610W        W23146  35.997  19.557  10.977
63611W        W23147  37.430  17.287  11.461
63612W        W23148  30.625  13.703  12.572
63613W        W23149  20.194  20.191   2.252
63614W        W23150  24.126  28.148  14.833
63615W        W23151   9.778  21.065   2.694
63616W        W23152   3.950   3.734  12.351
63617W        W23153   4.367  40.986  12.853
63618W        W23154   1.452  23.542  12.363
63619W        W23155   0.843   0.391   0.434
63620W        W23156   9.286  40.017   0.429
63621W        W23157  41.808   1.844   1.400
63622W        W23158  43.333  26.592  10.963
63623W        W23159   0.923  19.220   4.256
63624W        W23160  37.500  26.012  13.030
63625W        W23161  15.233  19.088  14.494
63626W        W23162  33.497  30.949  10.905
63627W        W23163  17.115  36.461   4.795
63628W        W23164  40.021   6.856   4.250
63629W        W23165  10.642  40.877  12.932
63630W        W23166  33.882  29.528   3.282
63631W        W23167  15.685   2.881  14.764
63632W        W23168  10.783  35.960  13.421
63633W        W23169  29.620  13.286  12.834
63634W        W23170   5.361  41.022   2.342
63635W        W23171  14.310   4.277   1.862
63636W        W23172  24.976  29.168   0.944
63637W        W23173   6.722  13.119  13.381
63638W        W23174  26.157   6.677  11.583
63639W        W23175  12.675   1.449  11.474
63640W        W23176  40.391  26.204  11.546
63641W        W23177  13.301   8.403   3.228
63642W        W23178  43.010  33.890   0.352
63643W        W23179   8.238  21.243   4.288
63644W        W23180   3.379   0.777   3.731
63645W        W23181  34.033   7.339   4.222
63646W        W23182   3.882   4.263  13.432
63647W        W23183  10.804  29.053   1.864
63648W        W23184  30.561  40.901  13.309
63649W        W23185  23.712  42.907  11.039
63650W        W23186  29.602   2.379   4.207
63651W        W23187  19.601  19.061  12.994
63652W        W23188   1.352  11.649   2.374
63653W        W23189  43.398  42.870  14.307
63654W        W23190   7.802  39.522   2.871
63655W        W23191  17.792  23.593  10.923
63656W        W23192  32.992   5.713   1.239
63657W        W23193  25.640  21.040  10.421
63658W        W23194  11.271  21.204  12.874
63659W        W23195  29.152  12.661  10.634
63660W        W23196  30.014  43.908  12.897
63661W        W23197   9.812  35.979  14.392
63662W        W23198  10.374  23.039   1.910
63663W        W23199  42.435  12.687  13.418
63664W        W23200  25.541  22.722   2.699
63665W        W23201  27.499   7.758   4.674
63666W        W23202  25.496   3.922   1.272
63667W        W23203  33.614  22.201  10.422
63668W        W23204  38.407  15.782   4.336
63669W        W23205  38.553  27.016  13.793
63670W        W23206   2.861  11.796  14.437
63671W        W23207  10.867   0.462  11.488
63672W        W23208  34.379   1.732   0.963
63673W        W23209  16.756  25.493  13.386
63674W        W23210   4.367  17.781   4.708
63675W        W23211  29.528  23.721   3.341
63676W        W23212  19.131  32.583  11.533
63677W        W23213   4.834  43.312   5.164
63678W        W23214  28.437   6.274   2.826
63679W        W23215  14.218   3.340   3.168
63680W        W23216  15.584  19.763   5.202
63681W        W23217  39.815   2.746  12.044
63682W        W23218  12.232  22.621   4.672
63683W        W23219  25.981  37.554   1.224
63684W        W23220  19.536  31.078   1.329
63685W        W23221  10.218  37.990   4.335
63686W        W23222  30.637  42.956  10.481
63687W        W23223   9.365  42.997   4.274
63688W        W23224   2.825  17.609  13.795
63689W        W23225  44.797  44.776   3.175
63690W        W23226  44.393  27.577  13.815
63691W        W23227  14.189   6.397   2.855
63692W        W23228  12.831  17.224  14.463
63693W        W23229   7.313  14.240   2.830
63694W        W23230  33.952   2.809   4.145
63695W        W23231   7.791  11.665   0.285
63696W        W23232  42.447  39.939   4.720
63697W        W23233  42.329  25.639   2.280
63698W        W23234  18.566  30.135  10.467
63699W        W23235   4.236  10.247  13.361
63700W        W23236  31.090   0.423  14.985
63701W        W23237  17.611  15.790   1.238
63702W        W23238  28.106  26.620   2.761
63703W        W23239  26.090  41.300   2.826
63704W        W23240   3.887   4.892   1.406
63705W        W23241  15.295  10.845   0.913
63706W        W23242  25.093  23.729   3.731
63707W        W23243  25.712  14.319   4.639
63708W        W23244  31.019   2.460  10.891
63709W        W23245  20.212  27.100   2.694
63710W        W23246   1.854  42.995   3.363
63711W        W23247  17.252  15.260  11.951
63712W        W23248  26.194  38.965  13.513
63713W        W23249   9.754  16.285   2.305
63714W        W23250   9.182  27.613   1.758
63715W        W23251  38.014   4.798  14.962
63716W        W23252  23.188  23.177   3.784
63717W        W23253   6.863  16.603  12.519
63718W        W23254   5.306  15.663   5.156
63719W        W23255  43.433  24.092  13.951
63720W        W23256  44.390  30.487   1.329
63721W        W23257  16.143   1.875  13.854
63722W        W23258  15.245  24.647  10.495
63723W        W23259  30.128   9.310   0.871
63724W        W23260   0.984  18.173   4.285
63725W        W23261  29.142  17.302   1.921
63726W        W23262  11.719  40.396  10.921
63727W        W23263  18.055  41.848   1.220
63728W        W23264   4.899  32.425  11.061
63729W        W23265  25.684   7.790   2.792
63730W        W23266  42.808  20.555   0.307
63731W        W23267  34.471  44.968  14.983
63732W        W23268  36.396  39.926   0.439
63733W        W23269  28.132  44.899  10.588
63734W        W23270  43.332  27.948   3.377
63735W        W23271  20.267  19.057   5.199
63736W        W23272  28.488  15.596   0.761
63737W        W23273   3.860  15.124  13.417
63738W        W23274   8.341  44.881   0.379
63739W        W23275  14.827   4.309  12.351
63740W        W23276  22.229  22.547   3.806
63741W        W23277  31.484   5.733   3.753
63742W        W23278  13.758  35.445  13.473
63743W        W23279  41.810  24.683  11.381
63744W        W23280  16.075   8.829   0.812
63745W        W23281   9.708  37.855  14.361
63746W        W23282  29.570   2.467  11.974
63747W        W23283  34.454   7.227  12.445
63748W        W23284  37.961  17.674   0.366
63749W        W23285  15.219  28.587  13.376
63750W        W23286  11.819  21.198   0.889
63751W        W23287  12.664  21.599   1.451
63752W        W23288  22.634  21.627   4.780
63753W        W23289  16.788  15.664  12.917
63754W        W23290  13.677  21.635   1.376
63755W        W23291  37.541  10.771   4.330
63756W        W23292  33.465  29.142  10.513
63757W        W23293  42.474  10.242   2.409
63758W        W23294  26.588  23.647  12.492
63759W        W23295  19.202  39.494   4.789
63760W        W23296  25.529  16.807   4.819
63761W        W23297  15.108   9.779  14.312
63762W        W23298   8.700   1.371  13.960
63763W        W23299  28.651  26.996   9.619
63764W        W23300   2.448  23.160   4.759
63765W        W23301  39.863  18.570  12.971
63766W        W23302  40.831  15.143   4.309
63767W        W23303  29.952  32.475   2.247
63768W        W23304  12.116  24.618  12.069
63769W        W23305  22.095  29.982  10.904
63770W        W23306  19.214   8.368  14.308
63771W        W23307  35.927  17.139  12.003
63772W        W23308   4.764  16.587   4.814
63773W        W23309  22.059  23.194  13.057
63774W        W23310  40.358  24.527  11.495
63775W        W23311  29.561  14.603   1.412
63776W        W23312  20.142  42.446  12.550
63777W        W23313  29.457  43.773   3.834
63778W        W23314   6.317   4.810  13.040
63779W        W23315  32.400  26.508   1.398
63780W        W23316  17.122   7.319  12.370
63781W        W23317  24.665   9.689  10.972
63782W        W23318  32.393  29.563  13.950
63783W        W23319  14.660  34.035  11.384
63784W        W23320  36.847  10.172  11.486
63785W        W23321  39.471  26.485  12.532
63786W        W23322  28.085   3.949   3.845
63787W        W23323  12.774  17.688   0.440
63788W        W23324  26.551   1.895   0.777
63789W        W23325  33.986   4.931  13.904
63790W        W23326  23.688  26.954   4.246
63791W        W23327  33.132  10.754  13.520
63792W        W23328   5.817   8.800  12.479
63793W        W23329  36.513  16.169   2.351
63794W        W23330  23.162   2.435   4.681
63795W        W23331  39.352  40.353  11.872
63796W        W23332   8.797   0.365  14.969
63797W        W23333  37.430   5.259   3.190
63798W        W23334  26.649  18.221   0.335
63799W        W23335  20.120   5.392   3.239
63800W        W23336  25.606   8.288  13.507
63801W        W23337   4.888   4.381  10.917
63802W        W23338   1.930  12.273   2.748
63803W        W23339  26.696  43.900   0.904
63804W        W23340  34.550   8.897  10.430
63805W        W23341  30.965  27.949  11.102
63806W        W23342  32.463   3.843   3.213
63807W        W23343  11.779  11.630   4.653
63808W        W23344  29.665  27.680   4.226
63809W        W23345  28.981  28.674  11.009
63810W        W23346   0.479  30.647   3.689
63811W        W23347  31.514  14.323  14.500
63812W        W23348  13.723   8.295  13.912
63813W        W23349  23.174  17.587   1.361
63814W        W23350  36.384  44.447  11.973
63815W        W23351  24.206  15.586   3.775
63816W        W23352  19.228  35.546   2.263
63817W        W23353  15.098   3.410   0.895
63818W        W23354   3.731   5.921  14.402
63819W        W23355  41.984  38.836  13.521
63820W        W23356  33.590   8.727   1.753
63821W        W23357  37.076   7.815   2.373
63822W        W23358  31.441  42.991   0.745
63823W        W23359  44.775   5.242  12.537
63824W        W23360  21.034  39.402  11.438
63825W        W23361  33.601  29.552   3.797
63826W        W23362   6.745  39.469   0.378
63827W        W23363   2.427  37.044   2.762
63828W        W23364  27.985   1.756  13.794
63829W        W23365  43.797  29.139   0.959
63830W        W23366   9.281  20.544  10.925
63831W        W23367   6.206   1.269  13.806
63832W        W23368  39.051  42.411   4.179
63833W        W23369  44.471  16.219   2.390
63834W        W23370   2.330  13.812  14.482
63835W        W23371  27.452  28.048  12.419
63836W        W23372  33.395  18.789   1.709
63837W        W23373  32.963  29.986   4.678
63838W        W23374   5.271  39.391   4.777
63839W        W23375  11.267   0.308   1.429
63840W        W23376  18.553   4.888  10.947
63841W        W23377  27.521  22.250  14.954
63842W        W23378  15.737   9.847   3.233
63843W        W23379  29.926  40.872  12.480
63844W        W23380  36.362  13.331   1.395
63845W        W23381  21.093  10.258   4.749
63846W        W23382  35.444   2.240   2.220
63847W        W23383  32.425  14.326   0.399
63848W        W23384   7.738  35.973   0.398
63849W        W23385   5.851  31.593   3.783
63850W        W23386  26.512   4.316   2.730
63851W        W23387  31.011  15.596  13.902
63852W        W23388   6.712  32.517   0.843
63853W        W23389  30.641   9.757  11.448
63854W        W23390   9.749  30.560   2.706
63855W        W23391  27.513   2.772   1.914
63856W        W23392  34.434  28.534  14.915
63857W        W23393  25.671  16.074   0.807
63858W        W23394  14.151   8.730  14.473
63859W        W23395  16.610  18.720   5.175
63860W        W23396  31.992  21.613   0.773
63861W        W23397  36.495  20.529   1.418
63862W        W23398  36.566   2.854  11.943
63863W        W23399  33.603   2.908  14.030
63864W        W23400  11.233   8.372  13.875
63865W        W23401  21.254   2.235   5.139
63866W        W23402  34.465   0.333   2.232
63867W        W23403  37.984  15.113  10.956
63868W        W23404  41.034   8.238   4.151
63869W        W23405   8.332  40.989  12.453
63870W        W23406   2.390  20.037   3.360
63871W        W23407  36.469   6.392   1.738
63872W        W23408  37.337  36.549  11.050
63873W        W23409   0.857  38.841  11.606
63874W        W23410  25.966  41.406  14.933
63875W        W23411  17.138   3.822  11.377
63876W        W23412  40.344  21.714  14.882
63877W        W23413  18.242  33.056  10.975
63878W        W23414  10.329  43.504  10.925
63879W        W23415  15.211  13.163  11.997
63880W        W23416  10.205  41.943  10.101
63881W        W23417   6.199  32.996  11.979
63882W        W23418  22.691  18.785   4.768
63883W        W23419   4.310  28.513   2.808
63884W        W23420  27.015   1.482   4.751
63885W        W23421   9.389  42.903  11.527
63886W        W23422  44.280  40.500   1.254
63887W        W23423  20.688  13.274   2.313
63888W        W23424  44.358  10.331  11.435
63889W        W23425  21.703   2.354   3.345
63890W        W23426  10.273   0.855   5.230
63891W        W23427  37.971  38.481  10.472
63892W        W23428  30.455  29.607  12.071
63893W        W23429  32.550  42.819   0.257
63894W        W23430   3.336  20.038  11.486
63895W        W23431  43.789  21.203   0.859
63896W        W23432  17.662  10.730  13.055
63897W        W23433  33.123  16.240  14.304
63898W        W23434   1.403  15.191   1.907
63899W        W23435  42.443   6.276   4.733
63900W        W23436  34.947  38.903   0.789
63901W        W23437  41.528   9.297  14.443
63902W        W23438  17.288  35.051  12.955
63903W        W23439  14.683  42.870   1.763
63904W        W23440  43.391   6.360   0.823
63905W        W23441  38.434  40.024   0.328
63906W        W23442  25.491  14.742  13.864
63907W        W23443  42.445  44.276   2.207
63908W        W23444  34.396  28.680  12.557
63909W        W23445  30.052  21.753  12.091
63910W        W23446  24.140  28.484   1.798
63911W        W23447   8.307  22.550  11.506
63912W        W23448  28.670  24.122  10.619
63913W        W23449   9.385  44.798   4.281
63914W        W23450  36.014  33.459   0.415
63915W        W23451   5.408   7.737   1.431
63916W        W23452  40.504   3.837  14.985
63917W        W23453  28.963  12.652  11.938
63918W        W23454  22.043  24.119  12.494
63919W        W23455  29.641  14.138   4.688
63920W        W23456  22.513  18.117  12.073
63921W        W23457  16.745  40.975   4.791
63922W        W23458  39.483  32.950  13.347
63923W        W23459   2.881  36.438  11.080
63924W        W23460  18.153  39.477   2.749
63925W        W23461  40.330  25.660  14.410
63926W        W23462   3.276   2.958  10.527
63927W        W23463  15.772  18.649  10.501
63928W        W23464   2.268  34.447   2.334
63929W        W23465  39.476   7.826  12.417
63930W        W23466  22.032  20.116  14.276
63931W        W23467  43.375  20.253  11.907
63932W        W23468  34.577  20.758   4.314
63933W        W23469  40.800  32.069  11.003
63934W        W23470  36.933  13.146  12.379
63935W        W23471  19.110   4.762  14.331
63936W        W23472  25.511  17.600   2.290
63937W        W23473  24.221  37.005   2.389
63938W        W23474  11.348  30.468   0.953
63939W        W23475  33.434  17.678  14.961
63940W        W23476  30.076  12.186  12.536
63941W        W23477  30.914  24.593   5.264
63942W        W23478  10.824  32.978  13.546
63943W        W23479  26.672   4.225  11.877
63944W        W23480  16.764  16.603   2.729
63945W        W23481  12.144  21.516  10.437
63946W        W23482  26.085  22.542  11.441
63947W        W23483   0.448  44.315   4.743
63948W        W23484   7.363  41.531  13.969
63949W        W23485  33.491   3.393  10.938
63950W        W23486  23.633  31.645   2.859
63951W        W23487  27.583  44.311   1.365
63952W        W23488  42.781  43.409   2.271
63953W        W23489  28.591  11.643  14.929
63954W        W23490  38.432  34.061   0.775
63955W        W23491  44.324  31.622   0.264
63956W        W23492  41.947  41.450  10.642
63957W        W23493  37.862  12.234  10.967
63958W        W23494  44.355  33.626  14.800
63959W        W23495   1.353  23.089   4.278
63960W        W23496  11.669   8.710  14.292
63961W        W23497  11.180  18.271  14.815
63962W        W23498  23.704  21.546  12.948
63963W        W23499   4.267  39.924   0.873
63964W        W23500  21.599  44.286   0.765
63965W        W23501  13.211  41.513   0.480
63966W        W23502  21.068  19.569  13.337
63967W        W23503   0.917  36.054   3.817
63968W        W23504  16.647  29.136  10.931
63969W        W23505  30.095  37.888  11.424
63970W        W23506   0.353  31.943   2.839
63971W        W23507   5.886  18.077   2.675
63972W        W23508  37.527  31.405  13.939
63973W        W23509   2.341  31.521  11.979
63974W        W23510   8.856  31.948  13.006
63975W        W23511  33.981  16.299   0.966
63976W        W23512  10.278  44.007  14.418
63977W        W23513  14.247   1.819  14.875
63978W        W23514  42.334  37.853   2.282
63979W        W23515  44.816  27.610  11.974
63980W        W23516  35.363  31.596   3.750
63981W        W23517  42.421  21.157  10.640
63982W        W23518  32.507  24.510   4.716
63983W        W23519   8.871  28.612  13.466
63984W        W23520  21.216  34.929   3.724
63985W        W23521   9.255  39.488  11.474
63986W        W23522  37.354  42.893   4.346
63987W        W23523  25.607  17.113   4.809
63988W        W23524  27.084   5.209   4.116
63989W        W23525   0.764   7.849   4.166
63990W        W23526   1.876  22.114   1.426
63991W        W23527  20.100   5.844  12.372
63992W        W23528  16.699   4.281  12.371
63993W        W23529  40.806  40.320  12.896
63994W        W23530  14.175  38.390   1.804
63995W        W23531  36.969   2.807   3.227
63996W        W23532  40.320  20.655   0.432
63997W        W23533  42.878  22.218   4.655
63998W        W23534   6.921   7.405   0.299
63999W        W23535  25.582  21.663   1.881
64000W        W23536  34.867  14.748  13.957
64001W        W23537   5.867  30.050  13.924
64002W        W23538   3.234  32.122  12.875
64003W        W23539  43.777  43.905  14.978
64004W        W23540   3.392  32.030   5.160
64005W        W23541  29.072   5.742  14.465
64006W        W23542   7.761  43.820  12.488
64007W        W23543   6.197  21.230  13.389
64008W        W23544  29.151   3.774  10.894
64009W        W23545  34.470  19.645  11.962
64010W        W23546   0.336  15.142  12.013
64011W        W23547  12.763  11.716  11.489
64012W        W23548  15.724  10.699  14.470
64013W        W23549   1.320  40.320   1.258
64014W        W23550  44.411   0.984  12.460
64015W        W23551  39.358  24.226  14.828
64016W        W23552  27.574  20.588  10.469
64017W        W23553  20.202  43.309   2.302
64018W        W23554  20.757  38.891  13.016
64019W        W23555  25.512   1.799   4.783
64020W        W23556  40.957  34.600   0.731
64021W        W23557   6.792  27.487  14.347
64022W        W23558   5.917  25.710   4.156
64023W        W23559   7.231  21.647  13.821
64024W        W23560  10.653   2.246   2.722
64025W        W23561  40.824  29.924  11.406
64026W        W23562   7.728  30.095   4.827
64027W        W23563  44.954   4.278  10.519
64028W        W23564   8.884  17.770  13.329
64029W        W23565  39.808  17.784  12.064
64030W        W23566  32.474  33.545   4.226
64031W        W23567  29.460  33.882  13.819
64032W        W23568  19.144   2.226   3.827
64033W        W23569   6.780  20.219   3.798
64034W        W23570   3.217   6.811  13.484
64035W        W23571   2.727  17.295  10.406
64036W        W23572  39.010  44.934  13.491
64037W        W23573  25.488   7.905   3.271
64038W        W23574  13.299  26.205  14.992
64039W        W23575  14.755  11.228  12.496
64040W        W23576  35.400  11.348   2.794
64041W        W23577   3.769  32.613  11.127
64042W        W23578  23.100  30.598   1.411
64043W        W23579  39.505  10.309  14.368
64044W        W23580  12.762  27.195  14.343
64045W        W23581  38.376  32.451   2.295
64046W        W23582  26.693  22.116   2.868
64047W        W23583   1.238  12.730  10.554
64048W        W23584   1.296   5.275  13.015
64049W        W23585  27.113  39.532  14.386
64050W        W23586  28.547   2.801  14.862
64051W        W23587  40.814  29.090   0.479
64052W        W23588  23.497  28.114   1.288
64053W        W23589   2.338  24.645   0.414
64054W        W23590  26.624  19.254   5.278
64055W        W23591  31.000  37.891  12.441
64056W        W23592  39.481  42.392  12.872
64057W        W23593  19.663  17.138   1.290
64058W        W23594  21.171  16.181  13.546
64059W        W23595  16.215  28.183   9.961
64060W        W23596  25.059  13.798   4.689
64061W        W23597  27.196  17.088  10.451
64062W        W23598   0.761   0.925   3.170
64063W        W23599   7.177  27.181  14.391
64064W        W23600   8.826  29.607   1.440
64065W        W23601  38.015   6.727   4.300
64066W        W23602   0.478  32.464  11.969
64067W        W23603  35.865  11.630   1.929
64068W        W23604  33.964  29.111  12.969
64069W        W23605  26.026  13.312  13.929
64070W        W23606   0.286  36.444   4.768
64071W        W23607  27.027  27.529  14.286
64072W        W23608  39.411  30.010   2.410
64073W        W23609  31.607   8.334   0.807
64074W        W23610  17.611  36.432  12.005
64075W        W23611   4.727  13.783  14.297
64076W        W23612  16.736  33.574  10.982
64077W        W23613  23.056  26.955   1.441
64078W        W23614   7.356  14.265   3.714
64079W        W23615  30.082  11.337   2.185
64080W        W23616  43.412  42.322  12.992
64081W        W23617  28.653   1.944   3.219
64082W        W23618  16.714  10.286   4.298
64083W        W23619  18.181   1.288  11.999
64084W        W23620  21.744  11.255   2.414
64085W        W23621  42.466  28.525  10.550
64086W        W23622  23.695   5.769  10.406
64087W        W23623  10.641   9.755  14.290
64088W        W23624  23.128  16.763  14.852
64089W        W23625  30.622  41.852  14.778
64090W        W23626  30.421  36.440  12.548
64091W        W23627  19.248  15.137   1.223
64092W        W23628  36.090   0.294   5.803
64093W        W23629  25.991   3.740   0.437
64094W        W23630  14.306  21.231   3.365
64095W        W23631   8.818  20.767  11.554
64096W        W23632  26.570  23.198  12.382
64097W        W23633  15.774  21.031  13.827
64098W        W23634   1.798  43.973  11.035
64099W        W23635  37.908   8.741   3.842
64100W        W23636  17.110  10.229  11.425
64101W        W23637  42.923   7.220   1.405
64102W        W23638  39.509  23.678   0.247
64103W        W23639   5.896  27.549   0.308
64104W        W23640   9.317  22.154  12.388
64105W        W23641   4.835   1.813  11.543
64106W        W23642  44.762   9.347   0.952
64107W        W23643  31.545   9.166  13.052
64108W        W23644  34.108  16.781   3.796
64109W        W23645  13.345  26.023   0.871
64110W        W23646  27.959   2.245  13.901
64111W        W23647  17.674   6.221  13.418
64112W        W23648  18.265  28.067   1.875
64113W        W23649   9.346  16.707  10.467
64114W        W23650  18.076  14.277  12.543
64115W        W23651  13.213  28.134  12.499
64116W        W23652  32.445  34.889  13.024
64117W        W23653  43.942   6.737  10.483
64118W        W23654  20.671  44.295   4.644
64119W        W23655   8.352  39.955  11.418
64120W        W23656  13.673  16.314   3.274
64121W        W23657  29.650   0.816  13.866
64122W        W23658  21.712  20.747   1.712
64123W        W23659  31.599  30.429   3.169
64124W        W23660  10.290  20.729  10.532
64125W        W23661  26.520  37.024   2.401
64126W        W23662  11.825  17.790  13.931
64127W        W23663  41.296   3.737  14.447
64128W        W23664  19.238  23.638   2.800
64129W        W23665  36.513  35.885  14.436
64130W        W23666  37.051  26.553  10.607
64131W        W23667  23.158  26.000   1.388
64132W        W23668  32.491   3.725  14.403
64133W        W23669  29.145  13.316  12.361
64134W        W23670  32.999  31.452   4.782
64135W        W23671  40.814   9.171   3.664
64136W        W23672  21.233   9.785   1.770
64137W        W23673  29.958  39.867  13.864
64138W        W23674  30.569  11.719   2.335
64139W        W23675  12.158  31.080   0.414
64140W        W23676  30.413  26.571  11.972
64141W        W23677   5.389  18.177  12.381
64142W        W23678  31.944  43.854  13.347
64143W        W23679  11.252  44.812   4.310
64144W        W23680  19.685  23.218   2.345
64145W        W23681  17.707  36.058   0.377
64146W        W23682  28.004  35.412  11.493
64147W        W23683  27.108  26.506   0.283
64148W        W23684  11.236  26.080  12.071
64149W        W23685  12.359   3.935   2.265
64150W        W23686  23.077  21.730   4.244
64151W        W23687   6.713  19.057  11.450
64152W        W23688  12.683  13.752  12.503
64153W        W23689  11.359  14.253   4.133
64154W        W23690   3.237  32.461  12.017
64155W        W23691  28.967  35.989   3.364
64156W        W23692  25.070  21.035   4.624
64157W        W23693  28.936  17.168   0.332
64158W        W23694  17.738  37.527   4.202
64159W        W23695  19.168  41.904   3.715
64160W        W23696  34.040  27.107   0.283
64161W        W23697  39.831  12.259   3.154
64162W        W23698   2.954   4.362  13.999
64163W        W23699  35.090  29.072   1.300
64164W        W23700  42.502  19.232   3.847
64165W        W23701  31.022  18.285   0.341
64166W        W23702  13.686  28.568  13.989
64167W        W23703   4.927  13.159  12.022
64168W        W23704   1.408   0.481  12.027
64169W        W23705  34.945  28.589  10.115
64170W        W23706  32.626  35.891  11.526
64171W        W23707  15.157   2.804  13.958
64172W        W23708   6.218  15.711   4.125
64173W        W23709  44.861   1.429  12.924
64174W        W23710  44.991  35.423   2.699
64175W        W23711  11.150   7.686  14.782
64176W        W23712   9.354  30.454   0.394
64177W        W23713   0.851  28.496  12.991
64178W        W23714   7.886   3.423   4.798
64179W        W23715  24.092   1.348   1.400
64180W        W23716  31.937   7.218   4.775
64181W        W23717  33.999   9.211   2.283
64182W        W23718  18.660  11.252  10.441
64183W        W23719   4.901   8.709  13.878
64184W        W23720  20.209   1.871   5.141
64185W        W23721  21.624  18.222   0.327
64186W        W23722   9.173  21.516   1.260
64187W        W23723   4.736  24.659   4.152
64188W        W23724   7.302  36.465   1.411
64189W        W23725  40.335  24.176   4.347
64190W        W23726  18.643  42.289  11.110
64191W        W23727  20.699  11.244   4.283
64192W        W23728  14.094  22.117   0.472
64193W        W23729  15.238  36.559  14.386
64194W        W23730  26.027  32.598  12.352
64195W        W23731   4.351  24.587   2.768
64196W        W23732   4.410  41.334  14.966
64197W        W23733  30.077   4.287  13.404
64198W        W23734  38.007  39.829  12.340
64199W        W23735  22.191  10.334  10.112
64200W        W23736  31.423  23.180   4.122
64201W        W23737  26.645  30.951  11.510
64202W        W23738   8.256  34.872  11.112
64203W        W23739  41.390  21.728   4.683
64204W        W23740  25.023  10.357  12.506
64205W        W23741   4.267  23.562   1.328
64206W        W23742   4.832  35.593   4.208
64207W        W23743  33.955   6.204  10.570
64208W        W23744  21.716  12.313  14.383
64209W        W23745  21.219  35.018   3.152
64210W        W23746  18.178  16.258  13.394
64211W        W23747  19.574   8.264  12.051
64212W        W23748  12.140  10.656  10.464
64213W        W23749  10.234  11.838   5.302
64214W        W23750  41.490  34.491   2.259
64215W        W23751  25.212  21.557   0.415
64216W        W23752  27.121  39.979   0.253
64217W        W23753  17.250  38.329   3.356
64218W        W23754   5.729  42.445  11.570
64219W        W23755   7.816  12.819   1.712
64220W        W23756  32.492  12.171  11.468
64221W        W23757   3.284  28.600  12.998
64222W        W23758   8.214  38.005  12.003
64223W        W23759  30.920  25.041  12.984
64224W        W23760  40.051  14.327   1.838
64225W        W23761   2.795  27.959   9.651
64226W        W23762   9.734  15.605   4.712
64227W        W23763  22.557   3.215   1.712
64228W        W23764  11.815  25.682  11.480
64229W        W23765  30.586  13.695   3.226
64230W        W23766   7.210  44.773   0.774
64231W        W23767  42.799   0.898   2.215
64232W        W23768  10.187  28.102   3.364
64233W        W23769  33.391   4.254   1.809
64234W        W23770  41.299  11.622  10.084
64235W        W23771   6.772  43.014   0.759
64236W        W23772  28.582  43.489  11.590
64237W        W23773  21.636  32.891  10.935
64238W        W23774  19.229  34.931  11.494
64239W        W23775  24.177  36.423   0.351
64240W        W23776  27.016  33.117  14.941
64241W        W23777  30.592  28.943  14.990
64242W        W23778  21.556  18.711   9.538
64243W        W23779  23.701  18.651   1.365
64244W        W23780   7.326  25.671  11.867
64245W        W23781  43.789   9.318  12.491
64246W        W23782   9.654  18.051  12.032
64247W        W23783  41.366  31.635   0.325
64248W        W23784  15.218  32.052  12.830
64249W        W23785  24.527  36.023  14.778
64250W        W23786  18.715  38.909  13.954
64251W        W23787  15.596   7.390  13.023
64252W        W23788  36.529  16.225   0.850
64253W        W23789   1.786  11.771   4.232
64254W        W23790  37.474  33.394   4.680
64255W        W23791   6.239   1.312   4.280
64256W        W23792  13.722  15.277  12.494
64257W        W23793   0.742   5.325  11.472
64258W        W23794  19.735  44.915  12.039
64259W        W23795  44.848   1.288  14.314
64260W        W23796   5.900   3.439   3.706
64261W        W23797  16.689   2.952  14.402
64262W        W23798   3.787  27.127   4.620
64263W        W23799   8.290  43.885   0.401
64264W        W23800   9.278  25.139   2.314
64265W        W23801  21.179  28.158  12.862
64266W        W23802  26.534  27.186   1.721
64267W        W23803  40.036   6.229   1.329
64268W        W23804  16.304  12.775  14.417
64269W        W23805  11.640  23.542  14.906
64270W        W23806  29.975  21.156  14.921
64271W        W23807  38.904   9.859   3.303
64272W        W23808  12.838  13.212  13.371
64273W        W23809   6.907  34.868  13.028
64274W        W23810  35.913   4.378   3.764
64275W        W23811  38.927  35.901   1.314
64276W        W23812   2.770  18.230   4.182
64277W        W23813  27.489   6.721   4.319
64278W        W23814  44.800  34.084  11.580
64279W        W23815  15.615  10.248   3.208
64280W        W23816  13.200  34.915  11.971
64281W        W23817  28.151  31.583   2.336
64282W        W23818  14.214   2.411   0.250
64283W        W23819  13.224  43.467   2.797
64284W        W23820   4.241  10.348   3.682
64285W        W23821  12.302  41.029   4.121
64286W        W23822  30.019  26.623  13.482
64287W        W23823   3.390   7.325   1.424
64288W        W23824  35.871  27.578  13.423
64289W        W23825  15.112  25.019   2.750
64290W        W23826  31.527  18.767  11.954
64291W        W23827  35.935  23.222   4.783
64292W        W23828  15.173  44.334  10.965
64293W        W23829  44.378   3.757   2.194
64294W        W23830  22.027  32.047  14.515
64295W        W23831   8.258  10.304  12.505
64296W        W23832  17.663  40.306   0.353
64297W        W23833  43.813  18.679   4.203
64298W        W23834  42.975  18.248  12.893
64299W        W23835  24.063  15.241  12.452
64300W        W23836  41.390  32.949   1.780
64301W        W23837   6.201  27.512  12.421
64302W        W23838   9.738  18.735  14.026
64303W        W23839  40.329  14.277   3.862
64304W        W23840  34.095  20.108   4.732
64305W        W23841  33.398   9.376   3.357
64306W        W23842  39.871   7.187  12.567
64307W        W23843   0.353  37.022  11.571
64308W        W23844  26.121  17.774   0.258
64309W        W23845  15.123  15.685  12.560
64310W        W23846   0.830  41.903   0.365
64311W        W23847  26.167  34.050  14.354
64312W        W23848  34.032  38.477   0.756
64313W        W23849  21.647  42.399  10.572
64314W        W23850  16.648  35.013   4.206
64315W        W23851  42.856  33.081  11.878
64316W        W23852  28.645   5.210   0.348
64317W        W23853  43.780  33.507  14.021
64318W        W23854  25.574  25.593  10.431
64319W        W23855  21.034   4.420  10.019
64320W        W23856  10.373  11.149   1.349
64321W        W23857  25.004  10.263   1.915
64322W        W23858  26.600   4.255  13.037
64323W        W23859  10.675  19.270   4.687
64324W        W23860  15.803   4.880  11.433
64325W        W23861  11.634   9.360  13.985
64326W        W23862  24.570   1.341   3.358
64327W        W23863  14.201   9.666   0.953
64328W        W23864  37.966   9.687  11.120
64329W        W23865  30.908  20.690  11.912
64330W        W23866  12.175   3.754   1.352
64331W        W23867  40.397  31.596   0.892
64332W        W23868  25.646  12.738  10.912
64333W        W23869  15.802  12.309   3.310
64334W        W23870  40.798  22.700   1.246
64335W        W23871  42.451  42.987   3.684
64336W        W23872  42.488  22.615   1.329
64337W        W23873  42.424  12.274   1.915
64338W        W23874  22.098  23.593   4.616
64339W        W23875  35.397  25.989  13.378
64340W        W23876  13.142   9.666  11.125
64341W        W23877  29.978   2.729  12.479
64342W        W23878  15.762   5.846  14.373
64343W        W23879   1.746  15.766   3.672
64344W        W23880  18.705  44.869  13.841
64345W        W23881  41.386  42.394  12.044
64346W        W23882   7.251   7.855   4.789
64347W        W23883  37.579  31.958  10.545
64348W        W23884   3.954  35.049  13.530
64349W        W23885  38.831  18.165  12.344
64350W        W23886  43.293  31.530  10.900
64351W        W23887   5.200  28.546   4.616
64352W        W23888   7.905   1.957  11.909
64353W        W23889  10.245  10.648   5.278
64354W        W23890  13.329  15.180   1.334
64355W        W23891  13.808  18.283  10.904
64356W        W23892  32.437  15.806   3.346
64357W        W23893  11.632  39.364   0.858
64358W        W23894  30.089   3.715  14.398
64359W        W23895  27.192  22.071  10.421
64360W        W23896  15.595   2.273  13.034
64361W        W23897   6.796  13.710   2.873
64362W        W23898  26.035   3.287  12.961
64363W        W23899   9.659  26.612  10.951
64364W        W23900  10.728  31.081   3.804
64365W        W23901  28.081  22.721  13.992
64366W        W23902  44.334  35.430   0.879
64367W        W23903  15.253   4.790   4.634
64368W        W23904  35.485  34.950  13.533
64369W        W23905   9.863  33.054  13.432
64370W        W23906  13.204   8.748   3.635
64371W        W23907  14.127   2.751  13.514
64372W        W23908  29.585  13.684  10.452
64373W        W23909  14.657  12.806   2.200
64374W        W23910  34.429  36.070  13.850
64375W        W23911  23.586  26.623  10.602
64376W        W23912   5.290  32.013  14.394
64377W        W23913   2.949  43.886  13.029
64378W        W23914  28.629  24.719   0.945
64379W        W23915  40.421  24.549  10.423
64380W        W23916  42.028  36.409  12.578
64381W        W23917  39.454   3.459   4.774
64382W        W23918  15.800  39.989  11.970
64383W        W23919  43.940  35.424   1.698
64384W        W23920  16.143  39.372   0.435
64385W        W23921  29.130   0.384   4.129
64386W        W23922  35.491  21.068  12.579
64387W        W23923  40.922  40.478  13.409
64388W        W23924  38.970   7.406  11.549
64389W        W23925  41.938   5.325   1.722
64390W        W23926  42.308  42.361   3.837
64391W        W23927  25.639  25.639   3.714
64392W        W23928  36.561   0.487  11.862
64393W        W23929  15.198  10.281  10.597
64394W        W23930  44.322  16.688  10.040
64395W        W23931  14.166  27.953   5.144
64396W        W23932  34.605  36.504  10.929
64397W        W23933  41.459   4.266  12.067
64398W        W23934  19.703  43.286  11.386
64399W        W23935  36.356   2.808   0.929
64400W        W23936   2.750  36.409   1.251
64401W        W23937  29.983  31.044  13.815
64402W        W23938  17.116  22.609  14.765
64403W        W23939  15.738  28.072   0.389
64404W        W23940  43.288  37.921   1.221
64405W        W23941  24.158   9.681  12.415
64406W        W23942  12.750  24.628  14.373
64407W        W23943  39.397  33.494  13.917
64408W        W23944  18.675   5.737  14.511
64409W        W23945  12.716   0.886  13.889
64410W        W23946  42.325  39.476   4.117
64411W        W23947  41.858  31.027   0.395
64412W        W23948  35.860  38.557  11.553
64413W        W23949  26.595  23.223  13.830
64414W        W23950  29.951   7.251  14.831
64415W        W23951  31.116   3.396   1.416
64416W        W23952  25.189  34.953   2.865
64417W        W23953  30.918  40.399  12.459
64418W        W23954   5.340   6.238   1.897
64419W        W23955   2.413  38.405   3.723
64420W        W23956  24.155  21.692   2.229
64421W        W23957  34.015  31.586   4.823
64422W        W23958  32.136  20.060  14.945
64423W        W23959   6.214  26.155   1.326
64424W        W23960  40.440  19.191   3.247
64425W        W23961  15.298  26.112  11.949
64426W        W23962  22.113  38.369  11.972
64427W        W23963  33.507  35.104  11.479
64428W        W23964  35.046  35.056  12.032
64429W        W23965   7.399   0.863  12.954
64430W        W23966  11.713  26.622  13.540
64431W        W23967   1.432   0.843   1.831
64432W        W23968  11.695  25.994   0.879
64433W        W23969  17.079  39.962   3.776
64434W        W23970  20.125  43.929  14.782
64435W        W23971  38.352  26.052  12.519
64436W        W23972  22.021   0.340   0.365
64437W        W23973  26.164  37.047  13.391
64438W        W23974  38.040   7.733   0.430
64439W        W23975  42.468  30.547   0.920
64440W        W23976  16.112  44.453   0.935
64441W        W23977  14.591   2.272   4.609
64442W        W23978   9.178   5.213  12.023
64443W        W23979  35.879  34.566   3.848
64444W        W23980  32.047  43.791   0.253
64445W        W23981  39.843  28.552   3.848
64446W        W23982  43.829  10.384  11.469
64447W        W23983  42.319  42.493   1.793
64448W        W23984  31.503   5.780  10.986
64449W        W23985  20.167  32.434   2.276
64450W        W23986  44.396  17.682   3.699
64451W        W23987  35.073  25.186  10.096
64452W        W23988  18.084  32.490   4.753
64453W        W23989  44.987  33.887   3.190
64454W        W23990  36.982  34.089  10.990
64455W        W23991  40.799  22.620   3.799
64456W        W23992   8.695   4.331  12.553
64457W        W23993  23.220  36.898   4.202
64458W        W23994   4.897   0.332   2.813
64459W        W23995  43.826  29.155   2.295
64460W        W23996  15.644  23.554  10.106
64461W        W23997  16.590  33.912   2.873
64462W        W23998  26.696   4.319   0.753
64463W        W23999  24.230  23.634   5.245
64464W        W24000   4.781  42.974   4.643
64465W        W24001   7.343  10.320   4.342
64466W        W24002  43.991  30.973   2.670
64467W        W24003  44.385   5.408  12.499
64468W        W24004  36.086  38.034   0.748
64469W        W24005  35.580  34.561  10.971
64470W        W24006  16.168   2.404  13.978
64471W        W24007   5.784  16.755  12.573
64472W        W24008  34.120  34.529   3.706
64473W        W24009  17.570  13.208   1.708
64474W        W24010  28.932  24.577  13.971
64475W        W24011  15.158  31.427   0.800
64476W        W24012  44.311   3.710   0.844
64477W        W24013  17.063  24.712  13.345
64478W        W24014  42.367  33.094  11.010
64479W        W24015  21.060   6.206  13.933
64480W        W24016  34.543  31.091  13.537
64481W        W24017   0.439  39.970   2.213
64482W        W24018  12.185  10.251   1.783
64483W        W24019  17.270  32.000  11.063
64484W        W24020  22.083  40.303   0.760
64485W        W24021  35.032   0.918  10.059
64486W        W24022  44.497  39.451  13.020
64487W        W24023  20.240  44.270   0.822
64488W        W24024  39.506   4.924  10.062
64489W        W24025  32.493  14.716  11.536
64490W        W24026   6.916  23.629   2.363
64491W        W24027  37.486  27.100   0.253
64492W        W24028  38.335  18.654  14.817
64493W        W24029  42.033  18.137  10.539
64494W        W24030  21.747  28.048  13.874
64495W        W24031  38.493   6.746  13.940
64496W        W24032  44.321   1.427   2.876
64497W        W24033  17.245  33.103   2.821
64498W        W24034  27.464  28.061  11.544
64499W        W24035  27.964   8.346  14.371
64500W        W24036  13.774  15.180   0.782
64501W        W24037  36.490  37.939   1.334
64502W        W24038   2.727   2.348   1.799
64503W        W24039  35.541  11.205   1.220
64504W        W24040  25.651  41.438   3.637
64505W        W24041  18.167  26.149   0.747
64506W        W24042  43.796  15.134   5.764
64507W        W24043  23.665   9.776   1.883
64508W        W24044  12.286  36.436  12.437
64509W        W24045   6.289  37.474   0.919
64510W        W24046  30.531  44.445  13.372
64511W        W24047  27.984  33.584   9.970
64512W        W24048   9.716  38.466  11.576
64513W        W24049  37.032  21.621   3.755
64514W        W24050  23.093   7.188   2.703
64515W        W24051  24.568  12.348  13.359
64516W        W24052  39.904   2.296   2.690
64517W        W24053  28.130  18.749  11.127
64518W        W24054  24.020  14.306  12.361
64519W        W24055  22.150  34.370   5.270
64520W        W24056  24.484   1.786   1.350
64521W        W24057  19.601  13.751   0.295
64522W        W24058  41.839  15.175  13.844
64523W        W24059   2.855  31.935   0.258
64524W        W24060  13.759  37.042   0.308
64525W        W24061  32.485  41.300   3.858
64526W        W24062  39.461   0.417   4.736
64527W        W24063   6.916  34.603   1.380
64528W        W24064   7.336   1.736   3.723
64529W        W24065  36.392  34.083  12.850
64530W        W24066   7.188  37.932  14.492
64531W        W24067  21.110  11.222   1.806
64532W        W24068   9.268  40.884   2.708
64533W        W24069  29.563  37.346   0.736
64534W        W24070   2.314  39.523   2.392
64535W        W24071  21.130  19.060   4.315
64536W        W24072  37.955   5.819   2.203
64537W        W24073  35.572  37.908  11.395
64538W        W24074  38.998  34.428   3.206
64539W        W24075  37.861  17.289   4.635
64540W        W24076  38.366   0.973   0.333
64541W        W24077  39.831  29.021   0.296
64542W        W24078   2.252  23.614   3.316
64543W        W24079   0.278  36.571  14.031
64544W        W24080  25.704  20.054   0.350
64545W        W24081  35.938  27.046   0.850
64546W        W24082  11.230  36.460   1.356
64547W        W24083  11.865   9.311   2.678
64548W        W24084  18.071  37.361   2.862
64549W        W24085   4.389  30.588   1.301
64550W        W24086  30.458  24.617  10.056
64551W        W24087  34.514   9.213  14.474
64552W        W24088  35.385  26.665   4.652
64553W        W24089   4.796   2.269  11.899
64554W        W24090  31.046   2.818   1.731
64555W        W24091  41.412  27.122   3.779
64556W        W24092  12.622   4.762   0.404
64557W        W24093  41.856  35.986   1.262
64558W        W24094  36.582  10.736  11.978
64559W        W24095  33.878   2.365   2.702
64560W        W24096  33.477  36.954  10.906
64561W        W24097  35.493   5.724   2.413
64562W        W24098  44.769   5.422   2.700
64563W        W24099  35.438  28.969  12.961
64564W        W24100  31.089  29.040   0.332
64565W        W24101  12.746  42.876  14.020
64566W        W24102  31.610   1.795   4.119
64567W        W24103  32.620  32.466   1.429
64568W        W24104  37.580   7.846  12.847
64569W        W24105  21.641  18.707  10.968
64570W        W24106  23.046  10.352  12.424
64571W        W24107   0.790  38.865  13.434
64572W        W24108  15.771  38.384   0.286
64573W        W24109   8.317  31.051   0.268
64574W        W24110  28.184  37.472  10.992
64575W        W24111  15.306  29.537  11.917
64576W        W24112   1.376  39.998   1.739
64577W        W24113  26.026  34.511   4.327
64578W        W24114   4.291  25.077   2.681
64579W        W24115  22.615  36.975  12.094
64580W        W24116   4.872  13.632  11.536
64581W        W24117   5.432   8.819   1.705
64582W        W24118  34.460  11.720   0.801
64583W        W24119  21.634  25.526  14.773
64584W        W24120   3.817  43.455   2.317
64585W        W24121   0.779  38.067  13.326
64586W        W24122  21.077  13.641   0.781
64587W        W24123  29.450   6.797   2.674
64588W        W24124  38.871  20.125   2.796
64589W        W24125  39.550   0.402   4.278
64590W        W24126  37.406  15.172  10.448
64591W        W24127  26.108  34.406   1.365
64592W        W24128  28.581  27.995   4.613
64593W        W24129  15.751  24.038   4.669
64594W        W24130  22.218  40.010   3.636
64595W        W24131  16.316  12.678   4.135
64596W        W24132  33.423  42.308  10.510
64597W        W24133  12.732  26.479  13.876
64598W        W24134  30.998  12.725   1.394
64599W        W24135  12.268  10.234  11.062
64600W        W24136  36.966   2.323   4.754
64601W        W24137   7.762   7.310   1.919
64602W        W24138   5.321  19.087  10.405
64603W        W24139  26.489   2.410   1.410
64604W        W24140   0.825   9.734  13.535
64605W        W24141  42.825  40.939  10.544
64606W        W24142  28.679   8.193  12.537
64607W        W24143   4.807  41.867   4.630
64608W        W24144  39.466  21.074  12.522
64609W        W24145  31.005  14.103   5.308
64610W        W24146  41.916  26.165   4.714
64611W        W24147  18.134  17.219   2.826
64612W        W24148  17.183  25.112   0.732
64613W        W24149  15.660  38.445   2.828
64614W        W24150  35.602  21.653  11.054
64615W        W24151  22.695  44.384   5.217
64616W        W24152   0.948  16.582   0.796
64617W        W24153   5.932   1.324   1.283
64618W        W24154  25.141  16.569   4.223
64619W        W24155  16.713  36.003  10.433
64620W        W24156  35.528  43.922   0.426
64621W        W24157  12.757  25.996  14.494
64622W        W24158   4.704  37.525  13.995
64623W        W24159  40.964   2.813  10.581
64624W        W24160  31.916  31.488  13.992
64625W        W24161  11.346  30.147  11.976
64626W        W24162  41.443  35.405   3.821
64627W        W24163  34.412  44.355  12.351
64628W        W24164  28.477  35.022   3.229
64629W        W24165  44.968   7.849   1.349
64630W        W24166  20.055  31.051   0.268
64631W        W24167  31.122  24.480  10.491
64632W        W24168  39.027  13.822  10.907
64633W        W24169  22.084  44.876   1.924
64634W        W24170  17.705   4.247  10.470
64635W        W24171   3.810   6.753  10.935
64636W        W24172   2.732  33.940  13.423
64637W        W24173   7.730  29.498   3.150
64638W        W24174  28.009  20.043   2.846
64639W        W24175  44.920   7.736  13.504
64640W        W24176  38.014   7.367   0.297
64641W        W24177  14.761   3.229   1.250
64642W        W24178  36.464  15.815  14.380
64643W        W24179   6.900  17.205   4.716
64644W        W24180  29.992  14.291   4.159
64645W        W24181  44.303   3.393   3.739
64646W        W24182  39.336  35.521  13.506
64647W        W24183  30.103  16.195  11.993
64648W        W24184  17.614   7.178   4.746
64649W        W24185  29.590   3.939   2.379
64650W        W24186  23.184  38.854   2.221
64651W        W24187  35.566  43.002   5.312
64652W        W24188  22.571  29.164   2.352
64653W        W24189  31.475  35.086   0.475
64654W        W24190  27.517  29.977   1.923
64655W        W24191  35.385  26.174  14.888
64656W        W24192   3.270  39.514  14.309
64657W        W24193   1.459  44.938  10.599
64658W        W24194  38.529  42.485   4.837
64659W        W24195   9.150  19.173   3.806
64660W        W24196  31.992  21.609   1.781
64661W        W24197  33.594  37.482  10.449
64662W        W24198  10.316  19.271   2.269
64663W        W24199  32.613  16.589   0.817
64664W        W24200  26.498   0.390  14.292
64665W        W24201   8.864  19.120   2.745
64666W        W24202  22.160  25.485   3.326
64667W        W24203  41.376  15.664  13.841
64668W        W24204  29.079  12.631  14.831
64669W        W24205  28.630  24.157  14.503
64670W        W24206  26.507  29.144   4.603
64671W        W24207  15.247   4.291   2.698
64672W        W24208  24.604  16.185  14.792
64673W        W24209  15.139  19.057   0.785
64674W        W24210  24.681  14.711   3.635
64675W        W24211  23.219  41.293   1.720
64676W        W24212  15.315  29.977   4.229
64677W        W24213  15.145   4.443  14.398
64678W        W24214  43.955   9.374   4.625
64679W        W24215  16.260  42.929  12.094
64680W        W24216  20.721  15.726  14.456
64681W        W24217  36.442  17.757   3.164
64682W        W24218  15.595  42.369   1.384
64683W        W24219  26.045  36.964   9.651
64684W        W24220  14.807  10.241  14.987
64685W        W24221  36.592   6.254   3.149
64686W        W24222  11.755   0.824  10.518
64687W        W24223  42.885  15.327  11.464
64688W        W24224  40.371  44.381   4.630
64689W        W24225  13.304  36.919   3.181
64690W        W24226   6.801  21.574  11.003
64691W        W24227  13.319  22.676  12.841
64692W        W24228  27.456  43.011   2.673
64693W        W24229  43.335  35.428  13.834
64694W        W24230  42.444  37.987   4.756
64695W        W24231  42.282  10.711   2.701
64696W        W24232   5.274  27.619  12.002
64697W        W24233   9.881  28.614   9.487
64698W        W24234   5.357   5.746   1.842
64699W        W24235   7.271   9.809  12.390
64700W        W24236  33.504  44.402   5.142
64701W        W24237  19.241  14.222   2.692
64702W        W24238  19.194  38.413  11.063
64703W        W24239  37.903  20.547  10.915
64704W        W24240  20.124  13.328   1.266
64705W        W24241   2.721   5.291  14.018
64706W        W24242  26.011  12.308   4.633
64707W        W24243  20.558   9.256  14.437
64708W        W24244   9.708  12.810   4.615
64709W        W24245  16.685  14.144  13.315
64710W        W24246  16.093  17.157  12.367
64711W        W24247  32.550  23.694   5.650
64712W        W24248   4.743  33.954  10.430
64713W        W24249  13.775  39.831   1.704
64714W        W24250  24.684  30.003  13.829
64715W        W24251  43.307  43.434  12.850
64716W        W24252  40.470  16.184   1.732
64717W        W24253  20.617  12.169  14.854
64718W        W24254  44.416  28.498   2.898
64719W        W24255  14.711  16.144   0.346
64720W        W24256  19.201  42.394  13.451
64721W        W24257  12.155  42.794   9.959
64722W        W24258  14.776   9.825  13.060
64723W        W24259   8.824  39.046  12.909
64724W        W24260  24.092  24.570  10.560
64725W        W24261  14.762  33.098   1.243
64726W        W24262  19.217  23.134   5.662
64727W        W24263  14.148  35.477   4.350
64728W        W24264  29.963  37.998   1.890
64729W        W24265  13.205   9.691   5.620
64730W        W24266  40.022  29.567  12.508
64731W        W24267  28.463  12.172  12.905
64732W        W24268  18.758  25.698  13.525
64733W        W24269  10.673  19.729  12.352
64734W        W24270  38.412  25.676  13.380
64735W        W24271  39.937  37.401   4.711
64736W        W24272  10.207  23.600  11.977
64737W        W24273  16.739  26.199   2.218
64738W        W24274  27.601   5.360   2.311
64739W        W24275  22.191  23.570   0.369
64740W        W24276  44.293  36.855  13.968
64741W        W24277   1.850  25.704  11.483
64742W        W24278  39.030  31.970  11.075
64743W        W24279   6.353   4.376   1.294
64744W        W24280  41.428  24.601  12.452
64745W        W24281  42.829   6.862  13.484
64746W        W24282  35.968  10.718   4.338
64747W        W24283  42.518  25.708  11.067
64748W        W24284  11.212  22.718   4.641
64749W        W24285  14.227  15.760   3.750
64750W        W24286  39.878  16.303   1.875
64751W        W24287  15.653  35.052   0.940
64752W        W24288  43.445  34.936  12.939
64753W        W24289  13.225  35.059  10.490
64754W        W24290   5.372  12.823   3.308
64755W        W24291  31.899  14.745   2.796
64756W        W24292  39.396  24.081  11.384
64757W        W24293  30.141  30.552  10.996
64758W        W24294  37.417  28.998  13.363
64759W        W24295   8.802  10.209   2.869
64760W        W24296  34.408  36.586  14.901
64761W        W24297   5.810  31.089   0.252
64762W        W24298  20.191   7.296  13.019
64763W        W24299  18.641  31.084  12.955
64764W        W24300  15.618  28.072  10.891
64765W        W24301  20.058  26.587   9.968
64766W        W24302  34.892  38.874   0.278
64767W        W24303  29.666   3.795  13.479
64768W        W24304  23.609  21.218  11.574
64769W        W24305   0.281   5.428   2.285
64770W        W24306  18.672  27.603  12.571
64771W        W24307  30.981   3.254   5.255
64772W        W24308  17.746  21.672  11.064
64773W        W24309  41.957   4.841   4.234
64774W        W24310  34.478   8.299   4.740
64775W        W24311  41.521  21.726   3.790
64776W        W24312  15.271  31.912  13.527
64777W        W24313  30.907  26.095  14.946
64778W        W24314  35.449  29.660   1.777
64779W        W24315  26.050  22.150   5.106
64780W        W24316   7.340  24.056   2.253
64781W        W24317  42.969  41.483   1.779
64782W        W24318  19.655   7.335  12.035
64783W        W24319  16.124  16.241   0.340
64784W        W24320  42.493  28.649   4.305
64785W        W24321  23.669  17.567   2.180
64786W        W24322   1.435  27.649  12.503
64787W        W24323  18.602  20.167  12.481
64788W        W24324  33.612  23.097  13.941
64789W        W24325  14.277  44.786   2.216
64790W        W24326   7.733  25.209   2.270
64791W        W24327  43.000  37.900  14.422
64792W        W24328  35.515   7.354   2.389
64793W        W24329   4.870  25.526  13.308
64794W        W24330  34.953  16.669  12.561
64795W        W24331  15.183  21.193   0.355
64796W        W24332  42.780  43.916  11.957
64797W        W24333  31.116  38.933   5.118
64798W        W24334  10.639  33.514  10.953
64799W        W24335  24.973  28.057   2.824
64800W        W24336  17.131   9.158   4.130
64801W        W24337   2.722  35.896   3.261
64802W        W24338   4.749  39.918   4.743
64803W        W24339  29.472  37.067  11.556
64804W        W24340  34.955   7.230   5.090
64805W        W24341  41.951  17.573   3.691
64806W        W24342  44.376  12.326   4.209
64807W        W24343  20.626   0.751   4.698
64808W        W24344   4.876   4.430  12.949
64809W        W24345  25.578  26.045   4.146
64810W        W24346  17.075  37.891   4.180
64811W        W24347  22.702  30.642  11.072
64812W        W24348  27.105  32.111  12.085
64813W        W24349   8.275  33.610  13.827
64814W        W24350  32.964   0.901  12.064
64815W        W24351  42.417  11.204   5.805
64816W        W24352   5.386  30.100   2.281
64817W        W24353   6.281   9.294  14.809
64818W        W24354  28.627   5.429  13.864
64819W        W24355  21.676  27.679  12.350
64820W        W24356  14.708  44.300  13.823
64821W        W24357   7.171  23.609  12.060
64822W        W24358  39.017  41.401  14.430
64823W        W24359  26.622   5.847   1.253
64824W        W24360  29.595  15.281  11.393
64825W        W24361   7.863  11.340   4.609
64826W        W24362  14.784  27.037  14.958
64827W        W24363  14.774   6.293   9.542
64828W        W24364  38.030  42.901  14.476
64829W        W24365  39.452  25.592  12.472
64830W        W24366  13.839  29.161  10.535
64831W        W24367   5.705  14.125  13.993
64832W        W24368  15.697  10.733  13.508
64833W        W24369  14.264   2.397   1.719
64834W        W24370  23.029   0.897   2.680
64835W        W24371  12.732  43.902   4.663
64836W        W24372  11.628   6.697   4.804
64837W        W24373  34.013  24.671  13.942
64838W        W24374  23.664  40.399   2.687
64839W        W24375  41.461   2.761  13.805
64840W        W24376  38.911  38.998  10.429
64841W        W24377   1.889   4.944  13.502
64842W        W24378  37.398  35.549  12.020
64843W        W24379   1.865   5.820   1.414
64844W        W24380   9.242  30.908   2.903
64845W        W24381  42.501  42.841   2.221
64846W        W24382   2.256   0.860  12.394
64847W        W24383  33.938  20.144  11.595
64848W        W24384  37.911  31.071  10.602
64849W        W24385  40.898  11.296  11.566
64850W        W24386   2.824  36.085  12.425
64851W        W24387  32.502   5.322   2.855
64852W        W24388  13.169  21.209  10.531
64853W        W24389   2.875  16.782   3.724
64854W        W24390  18.061  25.532  11.537
64855W        W24391  40.884  14.133  10.529
64856W        W24392   8.286  27.072   0.920
64857W        W24393  44.463  19.546  13.030
64858W        W24394  15.823  23.621   0.336
64859W        W24395   0.759  21.079   2.182
64860W        W24396  36.972  17.578  11.927
64861W        W24397   1.793  21.093   1.414
64862W        W24398  39.369  10.254   2.759
64863W        W24399   0.284  11.371   1.809
64864W        W24400  41.015  14.826  14.762
64865W        W24401  19.156  37.488   3.847
64866W        W24402  41.426  36.494   0.832
64867W        W24403  18.248  17.612  12.042
64868W        W24404  40.328   1.457   4.269
64869W        W24405   5.811  32.476  12.366
64870W        W24406  44.342  19.057  12.055
64871W        W24407  32.395  37.580   0.764
64872W        W24408  37.951  12.125  11.552
64873W        W24409  21.578   9.794   3.261
64874W        W24410  39.486   0.930   3.816
64875W        W24411  19.058  14.165   3.365
64876W        W24412  13.701  33.544  10.628
64877W        W24413  17.775  27.658   1.433
64878W        W24414  33.889  31.508   0.952
64879W        W24415  32.087  36.551   0.244
64880W        W24416  27.501  19.116  11.859
64881W        W24417   9.214  28.185  12.476
64882W        W24418   3.433  44.303  12.526
64883W        W24419  27.040  20.118  11.100
64884W        W24420   7.725  16.790   4.115
64885W        W24421  21.522  32.127  13.041
64886W        W24422  25.540  39.036  12.926
64887W        W24423  24.482   0.744  14.420
64888W        W24424  40.427  29.966   4.627
64889W        W24425  20.117  41.505   3.354
64890W        W24426  30.978  42.803   0.838
64891W        W24427  39.443   8.657  12.901
64892W        W24428  12.354  20.058   2.843
64893W        W24429  15.083  21.626   0.731
64894W        W24430  10.231   2.810   2.201
64895W        W24431   5.696  38.333   4.600
64896W        W24432   0.764  28.437   4.132
64897W        W24433  13.720  40.954  11.878
64898W        W24434  29.935   8.399  12.471
64899W        W24435  15.159  14.198  11.040
64900W        W24436  29.667  24.497  14.434
64901W        W24437  22.102  39.878  11.444
64902W        W24438   8.776  42.825   3.643
64903W        W24439  30.653  28.072  11.546
64904W        W24440   3.400  26.587   2.209
64905W        W24441  27.090  11.248   1.694
64906W        W24442  41.363  30.121  12.978
64907W        W24443  32.518  43.507  11.091
64908W        W24444  18.212   2.296   4.692
64909W        W24445  15.157  28.954  10.560
64910W        W24446  14.728  17.755  11.516
64911W        W24447  12.748  15.244  11.501
64912W        W24448  26.000  22.185   4.701
64913W        W24449  10.769  35.367   3.338
64914W        W24450  29.163  39.340  11.423
64915W        W24451  31.002  12.745   0.949
64916W        W24452  25.018   2.730  11.393
64917W        W24453   9.189  37.466   4.317
64918W        W24454  42.943   1.292  10.934
64919W        W24455  11.230   4.389  14.291
64920W        W24456  11.733  44.322   9.988
64921W        W24457  22.624   2.312  12.548
64922W        W24458  34.576  33.540  10.453
64923W        W24459  29.081   9.730  14.824
64924W        W24460   4.206  28.528  13.984
64925W        W24461   8.853  15.112   3.639
64926W        W24462  33.508  11.235   1.267
64927W        W24463  28.490  31.973  10.935
64928W        W24464   4.205  13.633   1.889
64929W        W24465   1.284  10.835   0.899
64930W        W24466   1.874  10.690  11.569
64931W        W24467   5.399   8.805   2.863
64932W        W24468   3.830  12.643   1.716
64933W        W24469  16.161   8.323  11.398
64934W        W24470  38.383   8.288   0.861
64935W        W24471  27.087   3.449   4.807
64936W        W24472  10.181  34.985   2.196
64937W        W24473  43.849  22.013  10.542
64938W        W24474  43.857  30.436  13.482
64939W        W24475  14.629  40.878   3.684
64940W        W24476  38.514  43.915   3.291
64941W        W24477   3.878  41.324   1.707
64942W        W24478  29.452  29.640   2.419
64943W        W24479   5.891   4.274   1.450
64944W        W24480   4.289  30.056   3.691
64945W        W24481  41.468  22.537  14.800
64946W        W24482  21.674  44.396  11.472
64947W        W24483  10.878  37.396   1.306
64948W        W24484  34.017  32.975   3.648
64949W        W24485  43.404  38.878   4.709
64950W        W24486  23.061  34.537   0.349
64951W        W24487   9.370  22.166   1.312
64952W        W24488  13.111  41.960  13.907
64953W        W24489  19.598   0.874   0.333
64954W        W24490   4.322  17.603   3.311
64955W        W24491  27.622  18.213  12.372
64956W        W24492  36.571  29.572   2.683
64957W        W24493  26.021   5.288  11.021
64958W        W24494  23.723  20.727  12.096
64959W        W24495  36.875   0.488  12.938
64960W        W24496  28.615  39.387  10.892
64961W        W24497   8.312  23.054  12.966
64962W        W24498   9.364  37.441  13.924
64963W        W24499  42.910  19.559  13.803
64964W        W24500  41.425  18.620  12.915
64965W        W24501  44.835  40.901  11.608
64966W        W24502   4.297  37.929   4.610
64967W        W24503  39.498   7.311   3.652
64968W        W24504  16.616  10.208  11.477
64969W        W24505  24.150  11.699   4.599
64970W        W24506   9.272  40.459  11.123
64971W        W24507  35.557  41.394  13.893
64972W        W24508  20.271   6.909   4.689
64973W        W24509   9.235  11.655  12.852
64974W        W24510  11.220  38.927  14.946
64975W        W24511  14.321  30.506   3.369
64976W        W24512  22.071  37.362  10.420
64977W        W24513  16.684   1.301  14.879
64978W        W24514   7.346  44.441   2.284
64979W        W24515  17.236  40.923   3.256
64980W        W24516  13.157   8.808   4.630
64981W        W24517  28.609  42.932   0.753
64982W        W24518  20.706  33.049  12.973
64983W        W24519   5.890  30.505  10.610
64984W        W24520  16.102   4.431   0.809
64985W        W24521  12.835  23.067   2.847
64986W        W24522  16.272  15.135   4.733
64987W        W24523  26.201  44.321   2.232
64988W        W24524  14.674  11.359  13.921
64989W        W24525  20.233  36.558  11.388
64990W        W24526  32.607  44.007  10.552
64991W        W24527  43.844   5.291   4.687
64992W        W24528  27.065  21.646   2.787
64993W        W24529  25.007  43.891   3.154
64994W        W24530  15.787   4.870   4.814
64995W        W24531  29.623  42.989  14.848
64996W        W24532  43.810  32.597   2.903
64997W        W24533  37.501  20.627   1.251
64998W        W24534   3.853  40.481  14.420
64999W        W24535   9.318  44.960  12.515
65000W        W24536  43.830  15.110   1.313
65001W        W24537   5.890  22.502   1.744
65002W        W24538  31.449   2.441  13.425
65003W        W24539  36.372  42.929   0.820
65004W        W24540  44.392  19.212  12.888
65005W        W24541   6.379  10.363  11.999
65006W        W24542  34.104  14.827   3.237
65007W        W24543   6.334  15.673  13.844
65008W        W24544  12.732  39.053  14.324
65009W        W24545  36.098  30.058  10.485
65010W        W24546   2.948   1.746  11.113
65011W        W24547  20.190   6.287   0.806
65012W        W24548  14.221  42.825   1.240
65013W        W24549  33.012  33.598  14.286
65014W        W24550  20.115  23.540  11.096
65015W        W24551  34.539  34.427  14.792
65016W        W24552  43.858  38.328  14.853
65017W        W24553  10.756   2.438   1.317
65018W        W24554   1.344   0.871  13.494
65019W        W24555  20.049  10.737  11.507
65020W        W24556  21.531  15.668   1.287
65021W        W24557  31.565   1.767   2.823
65022W        W24558   3.943  43.471  13.005
65023W        W24559  24.091  19.067  12.051
65024W        W24560  23.538  40.932  13.024
65025W        W24561  17.762  20.212  12.545
65026W        W24562   3.861   9.375  12.845
65027W        W24563  41.470  10.837   3.189
65028W        W24564  17.646  38.488   2.355
65029W        W24565  28.467  22.189   0.268
65030W        W24566   5.850  42.904  14.777
65031W        W24567  34.442  40.377  10.468
65032W        W24568  24.608  14.659   2.668
65033W        W24569  28.558  22.508  12.554
65034W        W24570  22.604  13.659   3.146
65035W        W24571  34.541   4.817   0.745
65036W        W24572  33.489  17.276  11.044
65037W        W24573  30.942  41.892  11.473
65038W        W24574   4.764  28.603  13.495
65039W        W24575  43.332  43.383  11.074
65040W        W24576  18.657  34.531  11.937
65041W        W24577  27.965  26.970  11.929
65042W        W24578  34.474  14.255   1.438
65043W        W24579  40.407  32.480  14.466
65044W        W24580  19.097  19.082  14.295
65045W        W24581  25.566   6.362   2.790
65046W        W24582   6.341  40.458   4.319
65047W        W24583  40.321   7.672  10.524
65048W        W24584  11.630  18.071   5.305
65049W        W24585  20.060   0.840  12.862
65050W        W24586   4.810  17.077  14.504
65051W        W24587  34.958  33.463   4.267
65052W        W24588   8.194  41.294  11.857
65053W        W24589  10.197  31.610  12.891
65054W        W24590  24.640  20.238   0.458
65055W        W24591  27.119   4.813   3.796
65056W        W24592   9.889   9.700   0.824
65057W        W24593  27.654   6.849  13.822
65058W        W24594  34.576  13.152  13.992
65059W        W24595  19.754  14.140  13.931
65060W        W24596  33.518  18.103   3.725
65061W        W24597  15.158   9.655  11.517
65062W        W24598  24.152  25.582  11.499
65063W        W24599   5.348  25.129   5.148
65064W        W24600   4.297   3.226  10.494
65065W        W24601   3.874   5.882  13.432
65066W        W24602  34.476  11.633  13.936
65067W        W24603  15.213  38.326  12.364
65068W        W24604  12.249  13.682  11.501
65069W        W24605  20.030  23.679  11.957
65070W        W24606  14.126  15.723   4.646
65071W        W24607  32.062  34.597   3.166
65072W        W24608  14.620  43.473   4.809
65073W        W24609  38.389   2.749   3.630
65074W        W24610  17.657  13.725  11.061
65075W        W24611  35.980  30.469   3.276
65076W        W24612   6.260  14.661  14.790
65077W        W24613   7.267  11.838  10.900
65078W        W24614  21.233   2.838   0.859
65079W        W24615  27.511  18.231   4.711
65080W        W24616  19.165  19.140  10.977
65081W        W24617  13.276  29.970   0.259
65082W        W24618  14.769  18.269  14.380
65083W        W24619  25.194  14.818   1.734
65084W        W24620  31.479  30.523  10.946
65085W        W24621  22.734  34.411  11.978
65086W        W24622  13.146  34.903   4.137
65087W        W24623  36.979  43.814  12.463
65088W        W24624  12.668   1.892   4.656
65089W        W24625  21.671  17.209  12.343
65090W        W24626  14.306  12.678   4.337
65091W        W24627  15.767  13.281   3.631
65092W        W24628   7.386   1.384   2.741
65093W        W24629   4.781  12.658   3.740
65094W        W24630  36.881  35.516  13.951
65095W        W24631   6.863  32.550   0.420
65096W        W24632  20.140  29.043   4.348
65097W        W24633   9.294   5.197  12.964
65098W        W24634  44.325  44.259   4.686
65099W        W24635  24.632  29.628  11.469
65100W        W24636  25.195  12.346   3.760
65101W        W24637  35.950  27.193  10.455
65102W        W24638   6.317  32.943  10.902
65103W        W24639  32.027  15.706   0.279
65104W        W24640  14.315  44.295   2.759
65105W        W24641  30.066  22.229   4.157
65106W        W24642  17.254  43.509   3.357
65107W        W24643  42.944  30.506  14.444
65108W        W24644   3.247  18.787   2.843
65109W        W24645  28.938  30.454   2.783
65110W        W24646  11.645  38.519   2.362
65111W        W24647  20.111  27.600   1.363
65112W        W24648  29.167  44.947  14.962
65113W        W24649  31.434   8.878  12.052
65114W        W24650   6.259  25.037  14.905
65115W        W24651  26.550  40.998  11.917
65116W        W24652  42.438  43.818   1.438
65117W        W24653   0.494  31.989  14.380
65118W        W24654  10.334  10.682   1.255
65119W        W24655  24.694  27.471  11.959
65120W        W24656  44.846  16.079  11.933
65121W        W24657   1.961  38.020  11.533
65122W        W24658   3.338  10.311  13.421
65123W        W24659  30.045   8.864  10.524
65124W        W24660   4.778  17.079  12.995
65125W        W24661  31.065  15.767   1.916
65126W        W24662   8.327  22.570   2.354
65127W        W24663  38.367  19.565  10.611
65128W        W24664  36.040  23.727  10.571
65129W        W24665  32.062  19.549  14.017
65130W        W24666  37.521  29.539   2.339
65131W        W24667   3.405   5.279   0.388
65132W        W24668  24.525   6.339   2.665
65133W        W24669   8.780   0.254   3.652
65134W        W24670   6.824   5.437   0.755
65135W        W24671  33.937  40.054  13.478
65136W        W24672  16.073  24.592  12.034
65137W        W24673  11.675  31.909  13.318
65138W        W24674  20.749   0.950  12.093
65139W        W24675  41.296  36.028  13.503
65140W        W24676  30.626   0.777   2.815
65141W        W24677  32.053  28.437  14.999
65142W        W24678   0.840  40.502  14.295
65143W        W24679  21.611  36.919   0.357
65144W        W24680  42.310  25.030  13.523
65145W        W24681   1.890  43.342  10.545
65146W        W24682  11.212  26.703   3.218
65147W        W24683  39.474  24.601   2.766
65148W        W24684  32.889  34.968   3.309
65149W        W24685  37.404  28.091   2.839
65150W        W24686   7.839   6.204   5.250
65151W        W24687  16.761  15.314   0.373
65152W        W24688  12.251  21.159   4.686
65153W        W24689  20.634  40.974  13.055
65154W        W24690   9.646  25.103  10.139
65155W        W24691   0.845  14.116   4.211
65156W        W24692  22.644  31.138   3.370
65157W        W24693  14.787   7.219   4.316
65158W        W24694  13.816  23.505  10.524
65159W        W24695  12.309   5.210   3.752
65160W        W24696  44.796  17.187   0.759
65161W        W24697  40.924  43.436  11.957
65162W        W24698  27.117  17.288  13.423
65163W        W24699  26.472  17.200   5.172
65164W        W24700  33.901   1.314   2.304
65165W        W24701  29.130  42.835  12.341
65166W        W24702   6.387  24.984  14.415
65167W        W24703   5.351  11.343  13.847
65168W        W24704   5.769   6.731  11.035
65169W        W24705  29.054  26.060  13.981
65170W        W24706  15.273  40.816   4.767
65171W        W24707  15.753   4.796   2.715
65172W        W24708  19.681   6.276  10.582
65173W        W24709  24.532  35.918  12.892
65174W        W24710  16.796  40.528  13.490
65175W        W24711  22.150  13.618  11.559
65176W        W24712  20.657  24.057  11.890
65177W        W24713  42.310  21.206   2.710
65178W        W24714   5.209  41.510   2.224
65179W        W24715  31.583  40.540   0.311
65180W        W24716  18.246  33.586  14.466
65181W        W24717  14.832  37.914   2.677
65182W        W24718  28.024  24.037  11.400
65183W        W24719  34.890  34.879   4.178
65184W        W24720  36.899  39.371   3.857
65185W        W24721  27.117  22.719   2.783
65186W        W24722  38.022  35.357  14.505
65187W        W24723  13.308   3.304   5.185
65188W        W24724  26.123  19.662   0.836
65189W        W24725  15.588  26.028   4.734
65190W        W24726  25.595  11.716   5.144
65191W        W24727  22.738  39.044   3.758
65192W        W24728  39.328  25.032   2.853
65193W        W24729  23.676  36.542   1.435
65194W        W24730   9.802  23.092   1.446
65195W        W24731  44.959  23.707  12.546
65196W        W24732   7.827  44.303   0.776
65197W        W24733  30.015   3.858   4.823
65198W        W24734   1.240  32.509   0.790
65199W        W24735  17.193  34.065   3.292
65200W        W24736  40.498  31.033   2.310
65201W        W24737  41.786  18.124  13.942
65202W        W24738  13.690  21.065   2.343
65203W        W24739  43.872  39.331   3.173
65204W        W24740  38.343  14.667   0.867
65205W        W24741  18.070  14.145  11.418
65206W        W24742  25.616  44.786   2.356
65207W        W24743   1.975  33.421   1.719
65208W        W24744  12.352  44.959   3.815
65209W        W24745  41.893  25.675  12.352
65210W        W24746  43.852  19.237  13.320
65211W        W24747   4.755  25.568  13.853
65212W        W24748  27.683  21.565   2.346
65213W        W24749  33.614  30.009   2.884
65214W        W24750  44.271  44.448   3.233
65215W        W24751   3.801  22.742  10.523
65216W        W24752   1.970  14.710  14.327
65217W        W24753  14.667  21.730  12.848
65218W        W24754   5.925  34.049   3.850
65219W        W24755   6.262  29.524   1.269
65220W        W24756   7.883  31.638   2.797
65221W        W24757  44.787  38.975  14.312
65222W        W24758  25.030  21.112  13.054
65223W        W24759  32.548  25.663  12.868
65224W        W24760  42.512   5.816   4.160
65225W        W24761  38.333  32.481   3.285
65226W        W24762  35.476  16.248  13.791
65227W        W24763  15.625  25.610  13.334
65228W        W24764  44.397  28.125   0.788
65229W        W24765  37.940   6.332  11.507
65230W        W24766   4.803   0.442   4.793
65231W        W24767   5.428  27.465  12.435
65232W        W24768  43.483  28.943  11.069
65233W        W24769  39.991   7.232  13.455
65234W        W24770  21.164  18.722  11.373
65235W        W24771  21.179  19.703   2.675
65236W        W24772  19.233  36.947   1.874
65237W        W24773  14.328  14.311   2.795
65238W        W24774  42.943  17.748  10.906
65239W        W24775  11.838  12.195   1.322
65240W        W24776  13.748  43.887  11.025
65241W        W24777  43.427  30.969   1.271
65242W        W24778  13.330   6.260  12.927
65243W        W24779  22.687  33.094  10.991
65244W        W24780  16.158  42.907   1.312
65245W        W24781  24.544  11.842   4.742
65246W        W24782  40.378  41.359   1.908
65247W        W24783  24.533   1.745   0.405
65248W        W24784  25.145  35.018  10.615
65249W        W24785  10.235  10.833  12.397
65250W        W24786  40.009   0.288  12.420
65251W        W24787  17.143  32.034   0.785
65252W        W24788  37.969  41.002   0.800
65253W        W24789  37.873   6.189  10.618
65254W        W24790  15.718  41.875   4.238
65255W        W24791  32.429  34.095  13.510
65256W        W24792  33.016   0.800   3.636
65257W        W24793  17.699  34.962  12.550
65258W        W24794   2.419   8.777  11.923
65259W        W24795  43.379  24.030   1.351
65260W        W24796   6.742  30.019   0.383
65261W        W24797  22.120  31.121  14.960
65262W        W24798  16.102  27.176   2.742
65263W        W24799  23.678  16.216   0.344
65264W        W24800  40.452  10.229  10.636
65265W        W24801  23.508  24.997  12.396
65266W        W24802  28.172   1.870  10.990
65267W        W24803  23.090  27.536   2.893
65268W        W24804  36.560  16.271   3.157
65269W        W24805  32.992   1.378   2.682
65270W        W24806   6.894  18.229  12.483
65271W        W24807  13.155  14.158   2.856
65272W        W24808  40.919  31.416  11.531
65273W        W24809  26.555  30.135   1.406
65274W        W24810  42.805  20.153  12.952
65275W        W24811  28.583   8.874   0.274
65276W        W24812  17.250  40.863  14.816
65277W        W24813   2.949   6.836   1.298
65278W        W24814  25.703   9.671  12.849
65279W        W24815   4.242  38.540  11.956
65280W        W24816  41.502  16.620   1.346
65281W        W24817  15.781  20.672   0.779
65282W        W24818   7.749   6.220  11.444
65283W        W24819  28.138  20.678  13.804
65284W        W24820   3.786  27.178   1.236
65285W        W24821  26.567  28.031   2.869
65286W        W24822   9.308  35.376   2.798
65287W        W24823  16.778  37.390   4.799
65288W        W24824   5.329  39.546  14.861
65289W        W24825  31.420   1.382  11.928
65290W        W24826   0.469  41.363   4.655
65291W        W24827  30.545  43.010  12.366
65292W        W24828   4.892  44.470  14.454
65293W        W24829  12.191  16.117  13.885
65294W        W24830  20.564  43.432   4.713
65295W        W24831  27.067  22.020  11.859
65296W        W24832   0.248  34.464   0.420
65297W        W24833   2.722  13.276  14.371
65298W        W24834   6.920  29.502  13.798
65299W        W24835  42.409   0.365   1.786
65300W        W24836   9.723  15.773   4.319
65301W        W24837  23.046  31.133  13.453
65302W        W24838  36.513  43.375  13.422
65303W        W24839   1.312  42.466   1.324
65304W        W24840  16.751  11.311  14.856
65305W        W24841  26.510  31.059  11.997
65306W        W24842  13.182  20.663   0.337
65307W        W24843  22.132  32.035   0.746
65308W        W24844  21.201  11.821   0.244
65309W        W24845  16.725  10.726  10.452
65310W        W24846  21.146  15.675   2.847
65311W        W24847  42.455   0.861   3.635
65312W        W24848  40.800   3.361   1.406
65313W        W24849  19.104   4.401   1.403
65314W        W24850   7.870  25.554   1.850
65315W        W24851  28.540  28.028  12.009
65316W        W24852  30.036   9.278  10.422
65317W        W24853  40.542   9.766  11.941
65318W        W24854  36.016  13.210   3.305
65319W        W24855  22.037   0.390  12.951
65320W        W24856  27.167  37.020   9.929
65321W        W24857  16.758  33.442   3.733
65322W        W24858   4.875  16.246   1.879
65323W        W24859  22.147  38.513  14.317
65324W        W24860  14.803  25.988  14.969
65325W        W24861  41.519  12.237  12.925
65326W        W24862  13.200  40.799   3.231
65327W        W24863  13.679  40.340   1.398
65328W        W24864  19.113  15.231  11.998
65329W        W24865  19.156  11.344   3.381
65330W        W24866  42.390  39.485   2.400
65331W        W24867  18.782  35.568   4.280
65332W        W24868  16.769  41.341   1.331
65333W        W24869  13.154   4.823  10.892
65334W        W24870  11.702   7.762  11.533
65335W        W24871  10.806  14.102  12.348
65336W        W24872  17.743  25.040  12.516
65337W        W24873  22.648  26.625  13.989
65338W        W24874   4.420  16.804   0.278
65339W        W24875   3.749  29.951   0.432
65340W        W24876  33.422   4.220  11.576
65341W        W24877  39.467  27.601   3.332
65342W        W24878  23.730  38.424   5.283
65343W        W24879   6.704  30.462  10.455
65344W        W24880  15.593  27.971  11.410
65345W        W24881  42.493  13.252  12.397
65346W        W24882   0.389   8.882  14.431
65347W        W24883   5.274  19.224  11.489
65348W        W24884  21.658  10.222   1.817
65349W        W24885   0.943   0.306  11.855
65350W        W24886  29.025  26.646   2.712
65351W        W24887  31.533   0.381   0.965
65352W        W24888  22.043   3.951   2.207
65353W        W24889  33.935  10.274   1.803
65354W        W24890  40.428  23.618   3.637
65355W        W24891  12.271   3.233   1.387
65356W        W24892  30.136  23.194  10.891
65357W        W24893  25.707  29.544   3.300
65358W        W24894  16.115  29.083   3.184
65359W        W24895  19.656  14.779  12.019
65360W        W24896   9.302   7.754  11.916
65361W        W24897  44.450  40.331  11.985
65362W        W24898   8.876  24.622  13.888
65363W        W24899   0.912  29.959  14.500
65364W        W24900   0.949   0.391  13.025
65365W        W24901   1.322  22.668   0.961
65366W        W24902  20.624  10.382   2.869
65367W        W24903  10.865   7.762   2.348
65368W        W24904  33.029   3.920   2.311
65369W        W24905   9.336  11.135  10.961
65370W        W24906  41.485   7.866   4.326
65371W        W24907   4.725  31.033  11.508
65372W        W24908   4.263  35.994   0.389
65373W        W24909  27.633  16.078  10.411
65374W        W24910  20.665  38.965   0.747
65375W        W24911  24.140   1.841   5.283
65376W        W24912  43.873  33.086   3.214
65377W        W24913   5.719  24.611  12.875
65378W        W24914  32.957  10.277   4.678
65379W        W24915  34.536  13.800  13.413
65380W        W24916  16.604  30.649  14.019
65381W        W24917  19.077  24.161  12.050
65382W        W24918  21.094  34.584  12.988
65383W        W24919  25.023   7.809   0.465
65384W        W24920   9.314  42.997  13.425
65385W        W24921   2.357  24.003  12.049
65386W        W24922  18.664  24.110   0.299
65387W        W24923  40.002  30.482   0.392
65388W        W24924   9.348  30.426  11.021
65389W        W24925  35.041  29.096   4.792
65390W        W24926  42.839   9.314   0.948
65391W        W24927  40.798   6.771   3.190
65392W        W24928  23.597  21.192   2.242
65393W        W24929  10.662   8.664   4.195
65394W        W24930  40.968  42.921   3.683
65395W        W24931  29.131  33.479   0.467
65396W        W24932  21.200  34.370  13.932
65397W        W24933   3.430  15.212  12.496
65398W        W24934  42.913   7.832  14.977
65399W        W24935  22.198  12.352   0.937
65400W        W24936   9.318  35.908  11.604
65401W        W24937  38.517  33.100   4.621
65402W        W24938  23.164  11.131  11.073
65403W        W24939  33.976  34.525  11.390
65404W        W24940  41.462  11.187  13.851
65405W        W24941  38.076   7.678   1.302
65406W        W24942   0.785  15.693  14.398
65407W        W24943  19.672  33.023   1.257
65408W        W24944  14.276  24.231   1.817
65409W        W24945  32.065  12.801  11.126
65410W        W24946  30.111  27.065  11.959
65411W        W24947   7.275  23.673   3.371
65412W        W24948   4.286   2.465  14.369
65413W        W24949  13.259   0.918   3.360
65414W        W24950  38.898  23.621  10.543
65415W        W24951   3.365  36.494   4.178
65416W        W24952  11.743  28.638  14.857
65417W        W24953  36.937   5.872  12.490
65418W        W24954   6.343  12.650   5.268
65419W        W24955  33.900  32.472   2.677
65420W        W24956  21.747  35.043   1.309
65421W        W24957  41.313   5.347   3.189
65422W        W24958  14.123  17.588   1.306
65423W        W24959   4.450   8.714  12.067
65424W        W24960   7.258  10.248   2.675
65425W        W24961  25.546  39.811  12.550
65426W        W24962  38.425   7.350   3.312
65427W        W24963   6.240  15.623  10.930
65428W        W24964   9.737   3.413  12.967
65429W        W24965  17.717  15.714   3.811
65430W        W24966  19.649  17.131   3.663
65431W        W24967  14.748  40.526  11.091
65432W        W24968   7.762   2.784   0.898
65433W        W24969  34.410  33.958  13.392
65434W        W24970  42.513   7.181  13.409
65435W        W24971  35.558  44.788  14.508
65436W        W24972  35.383  39.385   3.744
65437W        W24973  39.997  18.110   1.294
65438W        W24974  25.141  10.335  10.905
65439W        W24975  26.495   2.253  10.496
65440W        W24976  37.478  11.690   2.295
65441W        W24977  44.488  16.720  14.017
65442W        W24978   8.328  21.048   0.270
65443W        W24979  24.563  23.582   0.434
65444W        W24980  29.581  38.423  11.019
65445W        W24981   0.977  17.252   1.270
65446W        W24982  35.374  31.453  14.290
65447W        W24983  35.464  33.443   1.920
65448W        W24984  34.415  28.680   3.338
65449W        W24985  41.830  27.100   0.280
65450W        W24986   1.968  19.704   4.634
65451W        W24987   3.449   5.212   1.335
65452W        W24988  19.704  24.609  13.907
65453W        W24989  19.276   8.751  13.944
65454W        W24990  25.582  41.825  10.491
65455W        W24991  18.164  32.098   2.719
65456W        W24992   0.935  17.707  13.018
65457W        W24993   7.341   6.315  13.312
65458W        W24994  36.998  11.847   4.738
65459W        W24995  40.346  11.369   3.212
65460W        W24996  28.974  43.020   0.287
65461W        W24997  41.865  42.913  11.081
65462W        W24998  23.148  19.191  13.542
65463W        W24999  26.521  39.976   2.730
65464W        W25000  33.556  30.634  10.453
65465W        W25001  15.224  21.618  12.459
65466W        W25002  33.927  28.659  13.416
65467W        W25003  12.612  26.152  13.508
65468W        W25004  43.462  19.191   2.321
65469W        W25005   0.885  25.212   2.293
65470W        W25006  37.986  37.925  11.971
65471W        W25007  39.373  10.864  12.017
65472W        W25008  20.735  15.292   1.831
65473W        W25009  26.500  11.764  14.796
65474W        W25010  23.088   3.337  11.869
65475W        W25011   6.868  16.686   2.791
65476W        W25012  36.380   3.783   3.702
65477W        W25013  36.418   0.432  13.496
65478W        W25014   0.808  29.581  11.610
65479W        W25015  24.495  10.666  14.507
65480W        W25016   9.263  34.501   4.741
65481W        W25017   7.798   3.923  13.479
65482W        W25018  10.862  37.985   3.285
65483W        W25019  36.923  28.610  13.854
65484W        W25020  23.696  36.535  14.788
65485W        W25021  21.253  36.493   1.822
65486W        W25022   6.695  30.516  11.486
65487W        W25023  29.034  18.202  14.915
65488W        W25024  23.649  32.461   1.447
65489W        W25025  32.009   1.260   2.819
65490W        W25026   7.223   8.375   2.206
65491W        W25027  38.350  40.468   2.237
65492W        W25028  15.178  35.001   4.729
65493W        W25029  43.837  40.891  13.454
65494W        W25030  15.660  31.976   1.365
65495W        W25031  38.537  44.782   4.709
65496W        W25032  24.640  42.965  14.290
65497W        W25033  13.699   8.663  10.412
65498W        W25034  42.426  24.708   4.192
65499W        W25035  33.549  38.976  10.416
65500W        W25036  34.387  26.693   0.243
65501W        W25037  10.307   4.412  13.469
65502W        W25038  16.643  27.972  14.348
65503W        W25039  16.227   4.914   3.197
65504W        W25040  23.035  24.134  11.397
65505W        W25041  34.451  21.263  14.936
65506W        W25042  13.621  30.653   4.665
65507W        W25043  18.755   6.387  13.003
65508W        W25044  39.478  13.132  12.012
65509W        W25045  20.111  26.577   1.436
65510W        W25046  15.203  35.948  13.460
65511W        W25047  43.414   2.392  11.483
65512W        W25048   2.747   9.837  13.854
65513W        W25049  40.344  36.444   1.220
65514W        W25050  44.939  38.490   1.796
65515W        W25051  30.416   4.893  11.946
65516W        W25052   8.803   4.747   1.378
65517W        W25053   0.868  20.087  10.549
65518W        W25054  26.603   3.346  14.916
65519W        W25055  34.495  21.166   0.794
65520W        W25056   3.737  44.897  14.868
65521W        W25057  25.696   2.419  11.544
65522W        W25058  37.571   9.734  14.855
65523W        W25059  36.926   8.281   4.628
65524W        W25060  11.263  25.591   4.836
65525W        W25061   5.861   2.269   1.282
65526W        W25062  30.656  32.890   2.782
65527W        W25063   2.230  33.983  13.043
65528W        W25064  26.565  17.226  14.305
65529W        W25065  24.087  34.612  14.922
65530W        W25066  28.141  27.688   4.666
65531W        W25067  16.622   3.724   1.235
65532W        W25068  23.178   9.226   2.341
65533W        W25069  13.149  22.629   4.602
65534W        W25070  37.338  17.694   4.223
65535W        W25071  41.978   0.974   2.395
65536W        W25072  17.112  29.458  11.488
65537W        W25073  13.235   1.911  13.318
65538W        W25074  15.652   2.318   4.307
65539W        W25075  16.184  10.328  13.540
65540W        W25076   9.647  44.762   1.740
65541W        W25077  10.264  43.274  14.913
65542W        W25078  15.287  35.365  13.844
65543W        W25079  12.809   1.248   2.769
65544W        W25080   6.683  37.474   1.704
65545W        W25081  18.062   7.805   4.273
65546W        W25082  41.869  15.761   1.327
65547W        W25083  11.353  10.734  10.044
65548W        W25084  16.262  44.271   0.288
65549W        W25085  21.551  40.959   4.817
65550W        W25086   3.855  26.495  11.474
65551W        W25087  30.521  36.523  10.591
65552W        W25088   3.869  27.982  11.927
65553W        W25089  15.736  43.900  12.016
65554W        W25090  31.109  26.630   5.280
65555W        W25091  40.983  43.354   3.805
65556W        W25092  39.484  36.067   0.766
65557W        W25093  17.094  17.170  12.043
65558W        W25094   0.867   4.269   4.735
65559W        W25095  20.694  12.362  11.909
65560W        W25096  28.033  33.409   1.261
65561W        W25097  40.027  39.993   3.375
65562W        W25098   0.854  35.567  11.014
65563W        W25099  19.083   5.394   4.335
65564W        W25100  27.459  36.989  13.447
65565W        W25101  41.478  39.897  10.615
65566W        W25102  35.036  28.608   0.841
65567W        W25103  13.112   5.229   3.234
65568W        W25104  28.468  29.141   0.335
65569W        W25105  39.031  29.568  12.004
65570W        W25106  22.223  44.822  11.035
65571W        W25107  25.099   6.396   1.448
65572W        W25108  11.188  29.980  12.514
65573W        W25109  34.981  42.929  10.498
65574W        W25110  28.127  16.638  12.054
65575W        W25111  27.646   3.820  14.380
65576W        W25112  22.617  10.225  11.053
65577W        W25113   9.775  33.548  11.874
65578W        W25114  35.051   1.292   2.829
65579W        W25115   8.704  41.309   2.367
65580W        W25116  15.586   0.906   1.880
65581W        W25117  19.683  28.681   3.326
65582W        W25118  16.766  26.106  12.455
65583W        W25119  36.036  31.074   4.796
65584W        W25120   8.656   3.252   4.657
65585W        W25121   2.348  12.231  12.452
65586W        W25122  12.711  20.108   2.325
65587W        W25123  21.685  36.454  14.765
65588W        W25124   7.795  10.740   0.824
65589W        W25125  21.055  41.008   1.839
65590W        W25126   0.264  22.588   2.237
65591W        W25127  14.097  30.487  13.368
65592W        W25128  14.599  40.442   3.784
65593W        W25129  36.427  11.198   0.267
65594W        W25130  19.120  26.679   1.817
65595W        W25131  10.778  30.008   3.185
65596W        W25132  37.370  42.795  10.926
65597W        W25133  20.235  27.011  13.965
65598W        W25134  32.418  35.564   3.189
65599W        W25135  18.617  39.006   2.367
65600W        W25136  39.923   0.815   1.342
65601W        W25137  43.420  39.814   4.792
65602W        W25138  11.797   4.904   0.378
65603W        W25139  26.078   4.731   1.715
65604W        W25140  13.616  27.968  12.386
65605W        W25141  43.343  40.469   2.831
65606W        W25142  24.501  22.640   5.161
65607W        W25143  31.433   9.712  10.582
65608W        W25144   2.733  12.348  12.382
65609W        W25145  34.951  36.516   1.219
65610W        W25146  34.573  17.071  10.501
65611W        W25147   7.746  32.888   3.734
65612W        W25148  32.036  30.947  13.318
65613W        W25149  44.799  39.844   0.284
65614W        W25150  29.919  44.832   3.687
65615W        W25151  10.644  25.022   2.696
65616W        W25152  29.494   2.417  11.393
65617W        W25153  23.695  33.422  10.115
65618W        W25154   7.255  33.620   2.799
65619W        W25155   4.438  11.229   1.362
65620W        W25156  44.796  19.622  13.801
65621W        W25157  18.146  31.936  13.898
65622W        W25158  44.900   4.220  12.378
65623W        W25159  10.646  35.106  13.392
65624W        W25160  24.153   5.869   0.400
65625W        W25161  28.129  42.816  13.516
65626W        W25162   6.320  22.605  10.521
65627W        W25163  25.041  31.533  10.586
65628W        W25164  40.884  41.337   1.251
65629W        W25165   6.745   0.461  14.387
65630W        W25166  24.543  40.967   3.780
65631W        W25167  19.561   2.913   0.480
65632W        W25168  33.911   1.964   3.294
65633W        W25169  37.842  27.631   3.682
65634W        W25170   1.364  24.050   0.842
65635W        W25171  19.580  24.650   1.725
65636W        W25172   7.330  37.506   0.323
65637W        W25173   1.813   3.904  11.400
65638W        W25174  18.790  22.121   4.284
65639W        W25175  19.273   7.667   0.287
65640W        W25176  23.166  15.639  12.437
65641W        W25177  13.804  34.380   4.187
65642W        W25178  11.293  17.105   0.318
65643W        W25179   4.732   8.721   4.281
65644W        W25180   9.199  12.350   3.217
65645W        W25181  24.205   8.823  11.472
65646W        W25182  18.068  35.399  12.564
65647W        W25183  18.228  19.216   2.807
65648W        W25184   9.790  24.516   5.223
65649W        W25185  29.470  10.827  11.959
65650W        W25186  42.470  23.006  14.334
65651W        W25187  40.408  31.634   1.282
65652W        W25188  12.306  29.668   5.185
65653W        W25189  11.774  14.704  14.397
65654W        W25190  44.845  31.899   3.667
65655W        W25191  30.557  20.207   3.220
65656W        W25192  15.162  33.095  13.005
65657W        W25193  43.951   6.428  11.943
65658W        W25194  41.985  17.742   4.352
65659W        W25195  26.546   0.409   2.831
65660W        W25196  25.114  42.957   2.346
65661W        W25197  39.923  43.300  10.917
65662W        W25198  39.533  11.845  12.823
65663W        W25199  13.640  21.622   4.237
65664W        W25200  38.966   3.399   0.893
65665W        W25201  28.436  10.151   1.771
65666W        W25202  37.577  19.609   0.837
65667W        W25203  10.834  20.266  12.476
65668W        W25204  22.138  32.987   1.352
65669W        W25205   0.927   3.748   3.671
65670W        W25206  43.809  20.213   0.331
65671W        W25207  28.964  39.337  14.911
65672W        W25208  26.962  12.206  11.116
65673W        W25209  15.248  20.604  13.368
65674W        W25210  28.503  13.728   0.936
65675W        W25211  11.764   5.691  12.359
65676W        W25212  43.946  31.098  12.945
65677W        W25213  32.497  19.115   3.839
65678W        W25214  41.949  44.766  14.413
65679W        W25215  32.938   8.169   3.313
65680W        W25216   0.957  39.489   3.769
65681W        W25217  37.886  21.034   0.336
65682W        W25218  41.308  19.237  10.925
65683W        W25219   5.425  15.251   2.898
65684W        W25220  24.134   1.887  13.422
65685W        W25221   1.781  39.891  14.373
65686W        W25222   6.803  25.060   4.625
65687W        W25223  42.966  36.475   3.655
65688W        W25224   3.762   0.817   0.847
65689W        W25225  12.711  25.042  11.979
65690W        W25226  14.625   6.248  13.435
65691W        W25227  12.701  24.025   2.752
65692W        W25228  17.621  37.494   4.749
65693W        W25229  13.710  42.302   1.442
65694W        W25230   9.286   4.309   3.187
65695W        W25231  13.262  20.255  13.003
65696W        W25232  13.811   2.243  10.516
65697W        W25233   7.330  35.585  13.424
65698W        W25234  14.629  31.440   2.832
65699W        W25235  27.605   3.313  11.029
65700W        W25236  27.500  34.018   4.115
65701W        W25237  25.693   6.365   4.278
65702W        W25238  29.621  15.806   1.795
65703W        W25239  17.738  29.080  11.602
65704W        W25240  18.581  35.409  12.568
65705W        W25241   9.750  37.973   2.804
65706W        W25242  43.781  29.980   0.261
65707W        W25243  36.091  43.292   4.620
65708W        W25244   6.731  38.037  12.417
65709W        W25245   7.358  37.395   1.753
65710W        W25246  23.239   5.713  13.496
65711W        W25247   3.284  23.500  13.376
65712W        W25248   2.919  41.309  13.867
65713W        W25249  13.327   0.388  10.584
65714W        W25250  34.968  21.633  11.881
65715W        W25251   6.205  34.485  13.316
65716W        W25252  24.570  36.503   0.871
65717W        W25253  24.033  32.023  11.979
65718W        W25254  10.375  37.871  11.926
65719W        W25255  12.340   9.181   3.651
65720W        W25256  34.415  17.608  12.363
65721W        W25257   2.335  28.463  12.849
65722W        W25258   3.953  28.596  12.419
65723W        W25259  17.678  44.393  14.959
65724W        W25260  10.656  23.213   1.885
65725W        W25261   6.341  34.465   2.827
65726W        W25262  10.803  34.884   2.195
65727W        W25263  34.555  21.625   1.841
65728W        W25264  38.971  29.636   2.795
65729W        W25265  44.467  14.774  14.470
65730W        W25266  15.239   8.324   0.870
65731W        W25267   5.291  35.049   0.392
65732W        W25268  30.575  31.624   0.768
65733W        W25269  26.483  33.076   4.642
65734W        W25270   2.329  19.281  10.502
65735W        W25271   3.751  34.553  14.310
65736W        W25272   3.898  30.015  11.562
65737W        W25273  19.049  35.094   3.216
65738W        W25274  32.492   2.896   4.268
65739W        W25275   5.769   7.750  14.287
65740W        W25276  19.220  27.574  11.098
65741W        W25277  42.307  36.032   4.787
65742W        W25278   3.233  11.290   4.251
65743W        W25279  43.432  35.071   2.341
65744W        W25280  38.363   1.460   3.225
65745W        W25281  40.422  12.847  10.888
65746W        W25282   1.399  15.171  11.472
65747W        W25283   0.755  19.097  14.310
65748W        W25284   9.819   1.374  14.293
65749W        W25285  15.653   8.354   0.416
65750W        W25286  21.610  21.208   3.293
65751W        W25287  26.498  43.011  10.118
65752W        W25288   5.724  28.176  10.481
65753W        W25289   7.190  38.368   1.406
65754W        W25290   2.753   7.183  12.066
65755W        W25291   3.819   9.170  10.566
65756W        W25292  36.475  31.052  13.361
65757W        W25293  19.576  34.604  11.994
65758W        W25294  35.426  39.065   1.212
65759W        W25295  17.778  18.164  11.581
65760W        W25296  10.284   8.221  14.282
65761W        W25297   3.410  35.388   3.840
65762W        W25298  32.059  21.562   4.259
65763W        W25299  27.989  25.158  11.875
65764W        W25300  27.637   9.822  11.112
65765W        W25301  44.920  23.160  13.849
65766W        W25302  35.878  28.160  12.824
65767W        W25303  37.525  19.048   0.749
65768W        W25304  38.450  21.249  14.968
65769W        W25305  30.163  20.736   4.725
65770W        W25306   7.689  41.291  14.025
65771W        W25307  44.455  43.341  12.050
65772W        W25308  20.675   4.841   0.913
65773W        W25309   8.173  24.008  13.050
65774W        W25310  16.285   0.357  14.852
65775W        W25311   1.300  40.891   1.742
65776W        W25312  10.819  28.548   1.444
65777W        W25313  28.576  24.192   2.226
65778W        W25314  20.758  36.525  10.116
65779W        W25315  15.805  20.044   2.861
65780W        W25316  31.013  33.443  10.479
65781W        W25317  33.484  33.054   1.325
65782W        W25318  13.237   8.671  12.481
65783W        W25319  36.970  32.499  13.838
65784W        W25320  19.561  38.560   0.942
65785W        W25321  15.249   8.308   1.747
65786W        W25322  13.192  42.477   2.287
65787W        W25323  22.117   0.267   1.909
65788W        W25324   1.283  13.824  14.018
65789W        W25325  15.746  42.296  12.067
65790W        W25326  35.032  38.003  12.408
65791W        W25327   6.863  24.528   2.322
65792W        W25328  36.464   4.287  11.038
65793W        W25329  25.690  10.704   3.168
65794W        W25330  12.656  37.520   4.659
65795W        W25331  22.501  38.927  12.885
65796W        W25332  37.887  14.142   1.694
65797W        W25333  26.477  30.966  12.504
65798W        W25334  30.481  25.624  14.803
65799W        W25335  29.645   0.797  12.933
65800W        W25336  17.634  15.735  13.817
65801W        W25337  11.652  44.823   4.655
65802W        W25338   1.384   0.247   1.931
65803W        W25339  26.161  36.017   0.245
65804W        W25340   3.375  31.551   4.720
65805W        W25341  23.567  36.086  13.791
65806W        W25342  11.239  25.962   3.792
65807W        W25343  18.096   7.291   1.814
65808W        W25344  10.863   2.943   2.369
65809W        W25345  23.076  35.500   3.730
65810W        W25346  37.443  43.939  13.511
65811W        W25347  33.421   7.723   5.243
65812W        W25348  27.979  31.993  11.499
65813W        W25349  34.932  11.146   2.301
65814W        W25350   2.824   2.372  11.601
65815W        W25351   5.848   2.933   2.891
65816W        W25352   3.432   1.369  14.898
65817W        W25353  41.416  30.652  12.431
65818W        W25354  34.496  12.236  14.275
65819W        W25355  28.448   8.895   0.798
65820W        W25356   1.964  44.969   1.794
65821W        W25357  16.678  40.953  11.471
65822W        W25358  23.196  23.560  10.610
65823W        W25359  19.696  21.729  14.894
65824W        W25360  22.232  34.520  11.918
65825W        W25361  29.506  31.966   3.681
65826W        W25362   8.690  25.084   2.777
65827W        W25363  25.154  33.025   4.203
65828W        W25364  23.574  14.798  14.516
65829W        W25365  42.949  37.977   3.670
65830W        W25366  31.487  19.207  14.880
65831W        W25367  30.639   8.396  13.467
65832W        W25368  17.644  20.540  14.360
65833W        W25369  20.600  27.175  11.417
65834W        W25370  36.013  31.612  14.389
65835W        W25371  13.658  43.383   4.711
65836W        W25372  22.145  36.567  14.808
65837W        W25373  40.519   0.318  14.805
65838W        W25374  37.505  21.259   5.294
65839W        W25375  36.097  17.078   0.753
65840W        W25376   3.759  44.499   3.748
65841W        W25377  35.564  35.028   2.663
65842W        W25378   0.487  15.204   4.183
65843W        W25379  25.682  44.834   0.850
65844W        W25380  38.038  30.074  12.403
65845W        W25381  26.105   1.297   4.832
65846W        W25382  22.699  28.675  13.017
65847W        W25383  26.613   3.276   4.778
65848W        W25384  22.666   0.758   1.307
65849W        W25385  42.809   9.749  10.951
65850W        W25386  14.740  20.257   5.190
65851W        W25387  39.464  14.108   1.783
65852W        W25388   0.279  21.561   2.335
65853W        W25389  15.737  35.508   4.609
65854W        W25390  10.714  43.778   1.730
65855W        W25391  13.310  10.188   1.304
65856W        W25392  17.183   1.435   0.859
65857W        W25393  34.043  33.029  13.998
65858W        W25394  10.380  26.156  12.511
65859W        W25395  40.050   0.846   3.222
65860W        W25396  38.453  30.482   3.709
65861W        W25397  36.388  43.972   0.870
65862W        W25398  12.353  42.808   1.807
65863W        W25399  10.853  10.361   1.295
65864W        W25400  11.722  38.436   0.423
65865W        W25401  44.365  19.162  14.298
65866W        W25402  18.283  11.255   2.237
65867W        W25403  14.313  30.949  12.893
65868W        W25404  34.072   6.186  12.394
65869W        W25405  41.376  26.095  13.360
65870W        W25406  28.580  44.867   4.678
65871W        W25407  32.401  30.615   1.935
65872W        W25408   1.931  33.980  10.592
65873W        W25409  25.574  28.555  14.341
65874W        W25410  11.633  28.525   1.375
65875W        W25411  17.167  11.679  14.288
65876W        W25412  32.636   9.249   0.802
65877W        W25413  10.155  30.092  10.487
65878W        W25414  23.218  16.157  13.493
65879W        W25415  36.955  30.983  13.861
65880W        W25416  26.178   4.782  12.828
65881W        W25417  34.045  32.564  13.403
65882W        W25418  30.440  11.675  13.366
65883W        W25419  22.219  17.688  11.548
65884W        W25420  23.665  43.409   1.328
65885W        W25421  13.348  26.171  14.012
65886W        W25422  16.613   6.198  13.331
65887W        W25423  15.802   7.678   0.798
65888W        W25424  15.763   3.754   3.636
65889W        W25425  28.145   9.833   2.675
65890W        W25426  19.746  14.772  14.816
65891W        W25427  14.316  25.680  13.882
65892W        W25428   9.171  41.866   0.444
65893W        W25429  36.385  30.141   3.359
65894W        W25430  33.957  42.903  12.404
65895W        W25431  32.073  43.310  14.832
65896W        W25432  33.053  33.451  13.027
65897W        W25433  31.896  18.120  10.523
65898W        W25434  33.877   2.739  13.872
65899W        W25435   8.875  14.272   0.943
65900W        W25436  14.675  18.292  11.072
65901W        W25437  44.441  18.070  14.286
65902W        W25438  35.531  44.470   1.212
65903W        W25439  16.251   0.305  13.498
65904W        W25440   2.861  17.087  12.423
65905W        W25441   2.356  22.511   4.815
65906W        W25442  25.542  27.690   4.799
65907W        W25443  41.858  43.833  13.793
65908W        W25444  10.766  18.109  12.393
65909W        W25445  30.576  41.994  11.064
65910W        W25446   4.447  26.093   5.720
65911W        W25447  39.498  43.302   4.264
65912W        W25448  18.271   1.881   2.751
65913W        W25449  13.762  29.532   1.248
65914W        W25450  15.736  25.492  11.993
65915W        W25451  11.718   1.802  14.867
65916W        W25452   0.377  19.541  10.575
65917W        W25453  34.970  42.343  13.509
65918W        W25454  15.114  42.952  14.463
65919W        W25455  26.015  23.039  12.423
65920W        W25456  19.666  13.722  14.443
65921W        W25457  42.910  31.513  13.006
65922W        W25458  32.582   7.912  10.981
65923W        W25459  22.133  31.102   3.786
65924W        W25460  26.628  44.780   0.954
65925W        W25461   0.465   1.276   2.320
65926W        W25462  14.244  16.195   0.342
65927W        W25463  33.052  35.005  13.541
65928W        W25464  26.664  42.911  11.533
65929W        W25465  11.766  29.648  11.027
65930W        W25466  18.120   0.398   4.346
65931W        W25467   2.371  44.851   1.860
65932W        W25468  26.502  27.598   3.180
65933W        W25469  22.587  30.091  14.794
65934W        W25470  15.747  10.218  11.500
65935W        W25471  17.635  16.665  13.852
65936W        W25472  20.234  31.996  11.905
65937W        W25473   3.815  38.992  14.318
65938W        W25474  18.225  36.521   4.317
65939W        W25475  35.966   0.831  12.532
65940W        W25476  22.581  24.037  13.008
65941W        W25477  13.224   0.270  12.441
65942W        W25478  30.474  42.027   0.918
65943W        W25479  16.210  20.596  13.460
65944W        W25480  36.884  27.010  14.347
65945W        W25481   5.230  11.692  11.967
65946W        W25482  11.685   8.202   0.443
65947W        W25483   3.449   3.324   0.735
65948W        W25484  32.067  21.568  10.909
65949W        W25485  11.734  30.961  11.558
65950W        W25486  28.142  18.259  12.526
65951W        W25487  16.225   7.716   3.812
65952W        W25488  36.364   8.206   4.261
65953W        W25489  24.689  43.862  12.449
65954W        W25490  35.001  34.559  14.355
65955W        W25491  39.440  19.741   3.730
65956W        W25492  41.293  35.541  11.015
65957W        W25493  10.751  12.796   2.202
65958W        W25494  12.195  34.388   2.884
65959W        W25495   5.868  43.934  11.436
65960W        W25496  32.886  16.732   1.854
65961W        W25497   6.293   4.275  14.976
65962W        W25498   2.394  26.512  13.844
65963W        W25499  33.442  17.259   3.748
65964W        W25500  26.146  36.982  10.469
65965W        W25501   5.327  22.510  12.483
65966W        W25502  35.430  38.872   3.783
65967W        W25503  39.375  11.631   4.776
65968W        W25504  40.540  11.183   2.192
65969W        W25505  37.348  44.945  14.814
65970W        W25506   4.859  39.823  12.983
65971W        W25507  29.994  22.176  10.500
65972W        W25508   7.690   0.834   1.296
65973W        W25509  21.219  14.711   0.330
65974W        W25510  17.117   4.439  13.899
65975W        W25511  12.161  43.326  13.041
65976W        W25512  19.066  43.802  10.989
65977W        W25513  28.092  10.693   2.403
65978W        W25514  33.550  19.637   4.349
65979W        W25515   2.854  23.200  11.455
65980W        W25516  31.145  41.346   3.731
65981W        W25517  21.716  43.834   3.829
65982W        W25518  26.990  24.046  12.498
65983W        W25519   4.939  34.437   2.183
65984W        W25520  14.164  33.547  12.025
65985W        W25521   7.693  11.342  10.922
65986W        W25522  36.947  15.083  11.018
65987W        W25523  29.932  19.137   3.754
65988W        W25524   4.280  13.670  13.975
65989W        W25525  28.052  18.631  14.001
65990W        W25526   8.717  16.134   2.720
65991W        W25527  33.554  28.040  12.393
65992W        W25528   3.789  27.051   2.279
65993W        W25529   7.672  16.629  14.960
65994W        W25530  40.460  39.526   0.831
65995W        W25531  20.525  19.196   3.832
65996W        W25532   3.830   2.463  13.873
65997W        W25533  12.261   3.721   3.314
65998W        W25534  34.454  42.940  10.973
65999W        W25535  21.105  31.407   4.671
66000W        W25536  19.089  30.419   0.833
66001W        W25537  42.879  24.495   1.734
66002W        W25538  33.525  30.124   4.229
66003W        W25539  25.619  10.268   0.249
66004W        W25540  23.647  31.524   1.880
66005W        W25541  35.056  38.559   4.817
66006W        W25542  22.738  27.489  12.094
66007W        W25543  22.036   9.645   2.795
66008W        W25544   0.878  30.636  14.772
66009W        W25545  17.630  29.562  11.437
66010W        W25546  13.786  19.570  13.350
66011W        W25547  15.175   0.314   0.244
66012W        W25548  43.329  41.916   4.809
66013W        W25549  20.593  24.707  10.955
66014W        W25550   9.180   0.414  11.092
66015W        W25551   6.825  19.271  13.484
66016W        W25552  27.075  41.885  10.626
66017W        W25553  15.255  36.532   1.891
66018W        W25554  17.758  38.012  11.599
66019W        W25555  32.410  44.812  13.036
66020W        W25556   8.841  39.957  13.014
66021W        W25557  28.932   9.350   0.867
66022W        W25558  39.050  30.146  11.602
66023W        W25559  19.692   4.728   1.796
66024W        W25560   4.294   3.760  14.362
66025W        W25561   8.808  35.089   2.370
66026W        W25562   7.276   0.412   1.244
66027W        W25563  11.304  44.312   4.290
66028W        W25564  23.735  16.587  11.914
66029W        W25565   1.792  20.585  13.812
66030W        W25566  36.460  43.301  10.416
66031W        W25567  14.268  42.503  11.927
66032W        W25568  28.600  28.139   3.810
66033W        W25569   2.734  29.654   2.242
66034W        W25570  10.260  14.210   4.233
66035W        W25571  18.181   4.437  14.865
66036W        W25572   3.261   1.298  10.436
66037W        W25573  38.505  10.177  12.054
66038W        W25574   0.471  17.099   3.784
66039W        W25575  39.826  37.040  12.991
66040W        W25576   1.460  37.375  12.508
66041W        W25577   6.275  38.077  13.972
66042W        W25578  13.272  44.816  14.803
66043W        W25579   6.770  36.370   1.703
66044W        W25580  16.245  40.797   0.890
66045W        W25581  19.772  29.445   1.260
66046W        W25582   3.348  43.997   1.809
66047W        W25583  10.175   3.756   3.782
66048W        W25584  40.817  38.906   1.253
66049W        W25585  36.864  26.524  11.433
66050W        W25586  16.596  12.655   1.300
66051W        W25587  15.677  35.967   0.280
66052W        W25588   6.411  42.469  10.512
66053W        W25589  38.497   4.380   3.671
66054W        W25590  40.356  20.191  12.571
66055W        W25591  33.934   0.955   0.965
66056W        W25592  14.243  17.219   4.126
66057W        W25593   8.688  31.917  11.379
66058W        W25594  25.163  40.921  13.337
66059W        W25595   3.848  41.808   0.768
66060W        W25596  41.881   0.820  12.843
66061W        W25597  44.810   0.408   4.176
66062W        W25598   8.220  31.530   1.878
66063W        W25599  40.978   3.323   0.732
66064W        W25600  18.597  40.366   3.322
66065W        W25601  40.914   3.319   0.460
66066W        W25602   6.245   0.953  12.540
66067W        W25603   5.886   1.946   3.797
66068W        W25604  37.458  30.436   4.194
66069W        W25605  15.194  10.657   2.292
66070W        W25606  13.275   5.845   0.439
66071W        W25607  34.011  18.599  11.523
66072W        W25608   6.197  13.319   4.636
66073W        W25609  33.616   5.820  13.360
66074W        W25610  34.083  38.485   2.849
66075W        W25611  34.402  28.182   3.307
66076W        W25612  23.205  22.122   3.632
66077W        W25613   5.392   1.758  13.322
66078W        W25614   2.803  37.482   2.837
66079W        W25615  20.659   6.401   0.944
66080W        W25616  22.210  21.153   0.938
66081W        W25617  20.769  24.564   4.771
66082W        W25618  18.551  18.759  14.798
66083W        W25619   6.381   7.200  10.604
66084W        W25620  21.684  30.046  10.978
66085W        W25621  44.858  20.618   2.371
66086W        W25622   4.715  23.129  11.414
66087W        W25623  36.900  17.268  14.840
66088W        W25624  37.007  23.662   0.390
66089W        W25625  38.984  42.781  14.904
66090W        W25626   7.734  13.693   4.782
66091W        W25627  10.807  17.251  14.444
66092W        W25628  31.151  43.296   4.788
66093W        W25629  23.006  26.031  12.898
66094W        W25630  25.542  37.452  12.390
66095W        W25631  15.695  44.985  12.942
66096W        W25632  12.165  36.514   4.340
66097W        W25633   1.958  43.274   0.317
66098W        W25634  25.171  42.394  11.490
66099W        W25635  43.434   0.388  11.864
66100W        W25636  10.329  31.130  14.984
66101W        W25637  16.786  35.107  10.419
66102W        W25638  36.979  23.226   4.769
66103W        W25639  34.934  13.127   3.686
66104W        W25640   8.880   0.291  10.509
66105W        W25641   5.270   0.293  10.573
66106W        W25642  25.102   4.390   2.193
66107W        W25643  16.240  19.201   0.829
66108W        W25644  33.114  10.784  13.029
66109W        W25645  43.503   3.315   2.221
66110W        W25646  18.710  16.227   0.732
66111W        W25647  20.660   2.378   3.770
66112W        W25648  38.372  26.026   2.696
66113W        W25649  30.128  20.616  11.003
66114W        W25650  40.419  18.621   0.393
66115W        W25651  32.438  20.605  12.089
66116W        W25652  23.235   1.351  10.623
66117W        W25653  38.035  12.249  14.978
66118W        W25654  16.594   7.172   0.336
66119W        W25655  30.611  35.397   4.697
66120W        W25656  22.181  26.975  10.488
66121W        W25657  12.779  24.012   1.715
66122W        W25658  37.540  28.167   0.324
66123W        W25659  33.424  16.281  14.980
66124W        W25660  41.523  44.281  10.913
66125W        W25661  10.251   2.861   0.363
66126W        W25662  16.663  36.089   3.288
66127W        W25663   6.912  27.125   1.353
66128W        W25664  37.922  18.127   4.730
66129W        W25665  12.359  35.010   2.226
66130W        W25666  29.022   9.847   4.183
66131W        W25667  29.583  31.627   1.430
66132W        W25668   6.347   2.941  11.966
66133W        W25669  39.919  42.851   4.668
66134W        W25670  21.720  39.814   4.128
66135W        W25671  32.996  36.076   1.728
66136W        W25672  14.621  33.599  10.499
66137W        W25673  25.700  37.357   1.430
66138W        W25674  19.040  16.299   2.386
66139W        W25675  34.893  28.118   4.123
66140W        W25676  34.454  21.617  10.476
66141W        W25677  29.540  16.083  12.357
66142W        W25678  39.460  20.589  13.977
66143W        W25679  16.585  38.466  12.417
66144W        W25680  41.037  36.872   4.754
66145W        W25681  18.622  33.405   5.131
66146W        W25682  22.609  24.146  11.970
66147W        W25683  41.911  20.194   0.264
66148W        W25684  15.273  41.384   4.163
66149W        W25685   9.247  30.031   3.202
66150W        W25686  31.442  14.202  12.928
66151W        W25687  34.864  40.857  14.503
66152W        W25688   8.335  14.265  13.326
66153W        W25689  29.623  30.476  10.620
66154W        W25690   2.931  38.411   4.213
66155W        W25691  25.608  18.613  12.880
66156W        W25692  32.410  42.488   1.712
66157W        W25693  34.068  31.548  10.468
66158W        W25694  11.150  15.682  12.832
66159W        W25695  28.595  43.433  14.514
66160W        W25696  31.541  44.347   4.667
66161W        W25697  29.126  11.729  14.774
66162W        W25698  25.108  27.570  10.548
66163W        W25699  38.980   9.781   4.785
66164W        W25700   0.479  31.986   2.350
66165W        W25701  27.620  21.147   0.473
66166W        W25702  27.692  35.457   3.279
66167W        W25703  36.374   8.654   2.677
66168W        W25704  28.096  10.335  11.408
66169W        W25705  16.234  18.239   1.921
66170W        W25706  13.642  24.209  10.922
66171W        W25707  33.626  28.027   1.777
66172W        W25708  21.653  24.090   0.353
66173W        W25709   0.847  29.066   1.716
66174W        W25710  18.111  37.408  10.918
66175W        W25711   7.281   9.378   1.402
66176W        W25712  28.031   8.368  10.421
66177W        W25713   8.194  44.407  14.350
66178W        W25714  32.586   8.659  11.561
66179W        W25715  35.488  35.430  12.420
66180W        W25716  40.533   2.378   3.726
66181W        W25717   4.854  13.806  11.079
66182W        W25718  24.209  20.695   0.483
66183W        W25719  37.391  43.967  14.455
66184W        W25720   4.914  18.149  12.433
66185W        W25721  10.222  29.997   1.449
66186W        W25722  15.729   7.787  11.101
66187W        W25723  32.511   0.834  13.535
66188W        W25724  30.941   1.462  14.388
66189W        W25725  18.134  35.987  11.111
66190W        W25726   5.899  10.817   4.237
66191W        W25727  29.061  14.799   3.316
66192W        W25728  38.034  13.796  12.006
66193W        W25729  30.929  20.634  14.785
66194W        W25730  37.470  19.189  14.846
66195W        W25731  43.021   6.288  14.507
66196W        W25732  25.483   4.700  14.482
66197W        W25733  38.495  18.192   3.196
66198W        W25734  21.532  42.835  13.948
66199W        W25735  20.111  28.149  14.408
66200W        W25736  21.540  33.953  13.440
66201W        W25737  15.708  36.434  12.422
66202W        W25738  39.491  14.140  13.046
66203W        W25739  22.027  42.885   0.313
66204W        W25740  37.944  26.529  13.862
66205W        W25741   6.690  37.002   4.248
66206W        W25742  23.108  38.020  14.486
66207W        W25743  28.955  36.998  12.436
66208W        W25744  13.662  36.367  13.977
66209W        W25745  31.080  31.032  12.432
66210W        W25746  16.271  18.059  12.427
66211W        W25747   3.244   5.379   2.187
66212W        W25748  40.498  31.080   1.859
66213W        W25749  11.305   5.332   9.573
66214W        W25750  37.355  24.502   1.736
66215W        W25751  34.429  34.918  14.814
66216W        W25752   2.771  38.058  10.975
66217W        W25753  36.096  31.994  13.439
66218W        W25754  22.027  31.564   0.963
66219W        W25755  26.596   0.424  14.787
66220W        W25756  41.431   2.346   3.689
66221W        W25757  31.003  35.520   2.898
66222W        W25758   9.736   1.750  13.538
66223W        W25759  37.491  42.025   3.287
66224W        W25760  19.582  43.415  14.028
66225W        W25761  22.708  38.931  14.278
66226W        W25762  12.314  41.497   1.761
66227W        W25763  15.680  13.642  10.530
66228W        W25764  24.200  32.436  13.982
66229W        W25765  24.558  30.962  12.932
66230W        W25766   5.856   5.291  10.975
66231W        W25767   7.366  14.094  14.297
66232W        W25768  14.196  37.074   0.423
66233W        W25769  11.229  10.655   4.315
66234W        W25770  22.710  30.009   1.333
66235W        W25771  44.391  42.856   2.895
66236W        W25772  29.153  42.332  12.833
66237W        W25773  16.100  41.460   3.185
66238W        W25774  40.972  37.436  14.785
66239W        W25775  37.563  40.041   2.208
66240W        W25776  34.491  21.108  11.606
66241W        W25777  21.154  18.228  10.932
66242W        W25778  12.734  14.704   4.768
66243W        W25779  24.977  36.561   2.260
66244W        W25780  41.940  42.993   4.286
66245W        W25781   2.373  34.610  14.963
66246W        W25782  30.017  15.137   0.332
66247W        W25783  42.973  17.246   3.798
66248W        W25784   3.222  13.155   1.309
66249W        W25785  11.769  37.851  13.432
66250W        W25786  18.621  17.609   1.322
66251W        W25787  43.371   0.385   0.353
66252W        W25788  37.572  25.492   3.784
66253W        W25789  31.643   6.287  14.786
66254W        W25790  43.416  44.337   0.753
66255W        W25791  22.112  43.442   3.732
66256W        W25792   2.453  16.567   0.835
66257W        W25793  39.327  11.700  13.801
66258W        W25794  11.808  30.939  13.966
66259W        W25795   1.237  23.572   2.290
66260W        W25796  24.484  33.077  14.778
66261W        W25797  38.883  33.606   0.744
66262W        W25798  11.676  14.651  12.032
66263W        W25799  10.765   6.251  13.052
66264W        W25800   4.362  11.323   4.692
66265W        W25801  13.831  18.621   4.723
66266W        W25802  19.774  25.680   4.214
66267W        W25803  27.626  18.172  13.463
66268W        W25804  34.094  43.284  10.434
66269W        W25805  43.872   1.442   2.730
66270W        W25806  12.341   4.320  10.414
66271W        W25807  15.643  21.702  12.563
66272W        W25808  29.058  32.524  14.467
66273W        W25809  13.841  36.478   1.371
66274W        W25810   0.379  35.428  12.530
66275W        W25811  19.048  28.663   0.781
66276W        W25812  15.220  22.189  11.977
66277W        W25813  41.995  13.668  13.425
66278W        W25814  25.989  38.826   0.459
66279W        W25815  19.546  12.674   0.784
66280W        W25816  13.313  37.358   0.931
66281W        W25817  37.839  32.508  12.058
66282W        W25818   2.828  37.350  13.881
66283W        W25819  29.656  21.141   4.330
66284W        W25820  34.498  31.504   2.243
66285W        W25821  22.087   8.289  12.946
66286W        W25822  32.993  10.237   4.277
66287W        W25823  25.498  17.104  10.985
66288W        W25824  19.113   5.216   1.226
66289W        W25825   0.311   5.751  12.835
66290W        W25826  42.820  21.629  12.863
66291W        W25827  13.712   3.224   4.612
66292W        W25828   4.711   8.395   2.870
66293W        W25829  36.531   5.296   3.842
66294W        W25830  19.669  27.582   3.745
66295W        W25831   3.717   6.897   1.311
66296W        W25832  39.823  21.696   0.301
66297W        W25833  16.236  12.755   1.743
66298W        W25834  28.451  43.916   0.826
66299W        W25835  18.172  39.476   4.142
66300W        W25836   7.728   4.311   1.386
66301W        W25837  16.084  38.853  11.062
66302W        W25838  31.516  41.456  10.588
66303W        W25839  27.044   4.750   3.204
66304W        W25840  21.628  31.617  10.928
66305W        W25841  29.488  30.042  13.450
66306W        W25842  15.165   1.401   3.368
66307W        W25843  42.464   7.201  11.946
66308W        W25844   0.761  15.736  12.879
66309W        W25845  20.692  31.122  11.924
66310W        W25846  42.991  16.094   0.297
66311W        W25847  41.320  26.193  14.989
66312W        W25848   1.298   3.347   3.862
66313W        W25849  41.426  34.923   0.828
66314W        W25850  41.947  30.976   4.207
66315W        W25851   6.285  11.253  13.346
66316W        W25852  27.133  10.698   0.875
66317W        W25853  28.030  20.271   3.305
66318W        W25854   7.898  17.711   4.639
66319W        W25855  42.852  23.059   3.820
66320W        W25856  19.688  30.541   0.757
66321W        W25857  12.617  29.596   2.788
66322W        W25858  34.513   2.316   3.256
66323W        W25859   3.853   5.208   4.795
66324W        W25860  29.536  35.561  14.460
66325W        W25861  11.668  25.546  13.791
66326W        W25862  19.727  28.950  12.090
66327W        W25863  37.916  38.915  12.892
66328W        W25864  33.936  10.743  12.074
66329W        W25865   5.726   2.785  10.615
66330W        W25866  22.599  25.493  14.479
66331W        W25867   2.924  11.208  11.476
66332W        W25868  33.074  32.392   4.281
66333W        W25869   0.403  42.796   2.720
66334W        W25870  34.451  33.026  10.424
66335W        W25871  22.550  13.831   1.889
66336W        W25872  24.094  38.547   4.193
66337W        W25873  34.074   6.327   0.864
66338W        W25874   5.754   3.871  12.566
66339W        W25875  21.704  17.115   3.672
66340W        W25876  44.817  44.881   2.215
66341W        W25877  13.830  15.199   3.320
66342W        W25878  41.910   9.838   0.352
66343W        W25879  12.665  29.070   3.295
66344W        W25880  27.060  24.534   1.779
66345W        W25881   8.314  40.921   1.372
66346W        W25882  17.648   2.732  14.408
66347W        W25883   7.707  36.592   2.311
66348W        W25884   8.770  14.818   0.773
66349W        W25885  19.177  23.684   0.418
66350W        W25886  13.162  32.453   1.786
66351W        W25887   2.945  13.190   3.321
66352W        W25888  23.655  41.005  11.923
66353W        W25889  24.479  21.620  12.544
66354W        W25890  13.733  25.169  11.068
66355W        W25891  20.069  34.381   0.881
66356W        W25892  33.449  24.975  11.998
66357W        W25893  34.411  23.703  12.002
66358W        W25894  43.506  15.665   9.922
66359W        W25895   5.259   9.839   4.296
66360W        W25896  30.036  16.246   2.686
66361W        W25897  34.399  19.756   2.389
66362W        W25898  44.800   7.759  11.935
66363W        W25899  41.372  29.661  14.840
66364W        W25900  42.793  32.101  11.381
66365W        W25901   8.281  35.055   0.400
66366W        W25902   8.185   2.296  12.888
66367W        W25903  16.777  24.111   4.619
66368W        W25904  40.334   2.348   2.743
66369W        W25905   9.196  11.664   3.356
66370W        W25906  17.193  43.805   2.200
66371W        W25907  39.403  24.492   0.470
66372W        W25908  13.294  34.582   1.411
66373W        W25909  41.411   3.734   2.764
66374W        W25910  25.167  33.026   1.762
66375W        W25911  13.271  42.354   3.274
66376W        W25912  30.927   7.735   4.723
66377W        W25913  40.352  28.010   0.404
66378W        W25914  30.130  11.836  10.481
66379W        W25915  23.225   9.217   0.956
66380W        W25916  39.316   1.469  12.392
66381W        W25917  34.489  29.429  14.364
66382W        W25918  37.928  23.726   1.306
66383W        W25919  19.224  10.723   0.786
66384W        W25920  13.807  42.376  11.414
66385W        W25921  40.480  16.277   4.812
66386W        W25922  12.702  32.507  14.792
66387W        W25923  42.977  33.509   3.281
66388W        W25924  34.936   1.807   1.257
66389W        W25925  28.187  41.533   4.327
66390W        W25926  20.625  10.721   3.724
66391W        W25927  36.019  29.668   2.255
66392W        W25928  32.014  40.454   3.363
66393W        W25929  21.155  22.174  14.936
66394W        W25930  16.790  15.634   1.228
66395W        W25931  26.516  43.835  14.008
66396W        W25932  30.567  10.809  13.912
66397W        W25933  30.077  30.983  10.599
66398W        W25934  12.782  11.359  13.815
66399W        W25935  31.438   1.763   1.342
66400W        W25936  43.437  19.576  10.644
66401W        W25937  43.961  43.388   3.816
66402W        W25938  41.837  20.189  10.536
66403W        W25939  39.352   5.831  11.067
66404W        W25940   7.250  27.044   0.898
66405W        W25941  16.577  19.577   0.914
66406W        W25942  28.955  38.975  14.414
66407W        W25943  44.396  13.622  13.406
66408W        W25944  28.180  44.911  13.985
66409W        W25945  35.458  20.706   3.703
66410W        W25946   0.368  20.671  11.099
66411W        W25947  15.820   9.647  12.995
66412W        W25948  17.632  40.455   2.385
66413W        W25949  23.151  13.332  13.942
66414W        W25950  34.614   4.898   2.844
66415W        W25951   1.447   6.366  13.494
66416W        W25952   7.317  23.048   3.642
66417W        W25953  39.887  33.981   3.174
66418W        W25954  39.456  26.462  10.962
66419W        W25955  16.798   5.694   4.238
66420W        W25956   0.812  39.537  10.531
66421W        W25957   6.841  29.976  11.611
66422W        W25958  21.523  25.651  13.484
66423W        W25959  14.683  12.717  13.381
66424W        W25960  34.039  36.067  11.987
66425W        W25961   6.244   9.674  12.363
66426W        W25962  38.992  16.219  11.372
66427W        W25963  22.025   3.312   0.294
66428W        W25964  25.669   8.720  13.006
66429W        W25965  35.055   4.894   1.768
66430W        W25966   2.936  23.715   1.387
66431W        W25967   5.735  44.397  14.514
66432W        W25968  24.004  43.981   2.895
66433W        W25969  24.550   9.207  14.019
66434W        W25970  31.413   8.257   3.233
66435W        W25971  27.139  40.839  10.991
66436W        W25972  43.984  23.219  14.373
66437W        W25973  44.338  11.242   3.298
66438W        W25974  33.122   7.379   1.774
66439W        W25975  40.408  34.931   1.418
66440W        W25976  21.195   1.409  13.316
66441W        W25977  18.551  31.569   2.192
66442W        W25978   7.760  40.331  12.912
66443W        W25979  25.659  11.279   0.298
66444W        W25980  14.745   2.328   1.253
66445W        W25981   1.778   4.747   2.310
66446W        W25982  27.482  18.108   4.167
66447W        W25983  33.539  38.390   1.809
66448W        W25984  29.585  20.618   0.287
66449W        W25985   2.786  19.536   4.291
66450W        W25986   8.369  40.486   1.286
66451W        W25987  26.161  41.399  13.803
66452W        W25988  25.618  13.140   2.270
66453W        W25989   2.248  32.947  10.411
66454W        W25990   3.312  21.743   0.436
66455W        W25991  23.989  31.130   0.755
66456W        W25992  11.801  31.986  10.596
66457W        W25993  28.958  23.167  14.440
66458W        W25994   7.680  20.174   3.700
66459W        W25995  14.643  26.479  11.984
66460W        W25996  19.702  32.443   0.839
66461W        W25997  39.468  19.568   0.260
66462W        W25998   0.789  37.556  12.037
66463W        W25999   3.445  14.648  11.902
66464W        W26000  25.070  35.444  13.867
66465W        W26001  18.119   2.304   3.762
66466W        W26002  24.009  25.117  11.107
66467W        W26003  11.225  37.477  14.876
66468W        W26004  29.126  34.425   3.785
66469W        W26005   6.248   9.359  12.375
66470W        W26006   4.850  42.371   0.313
66471W        W26007  27.597  25.002   0.886
66472W        W26008   7.804  14.633  13.967
66473W        W26009  28.036  43.387   3.716
66474W        W26010  18.698  31.477  11.034
66475W        W26011  16.177  11.141   1.294
66476W        W26012  38.341  12.326  11.029
66477W        W26013  36.878   7.908  12.504
66478W        W26014  24.702  12.669   0.874
66479W        W26015  12.136  34.566   0.353
66480W        W26016  15.243  11.364   4.640
66481W        W26017   3.431   6.212   3.218
66482W        W26018  40.940  38.833  14.980
66483W        W26019  38.368  38.419   1.426
66484W        W26020  37.033  23.731  11.875
66485W        W26021  38.553  36.958   1.880
66486W        W26022   6.361  29.593  11.933
66487W        W26023  21.721  32.520  11.079
66488W        W26024  36.531  30.081   0.469
66489W        W26025   3.271  14.684   2.726
66490W        W26026  14.625  33.476   1.446
66491W        W26027   4.742  31.036  14.443
66492W        W26028  30.484   0.893  13.517
66493W        W26029  10.182  10.193  13.348
66494W        W26030  31.609   6.687  12.985
66495W        W26031  10.343   0.798  12.446
66496W        W26032  13.608  44.413   3.836
66497W        W26033  44.435   5.735   4.316
66498W        W26034  20.107  30.916  14.368
66499W        W26035  10.816   4.795   2.701
66500W        W26036  39.834  29.513  11.868
66501W        W26037   6.303  15.178   2.844
66502W        W26038  44.347  41.903   0.835
66503W        W26039   6.707  23.174  12.538
66504W        W26040  26.569  16.713  12.447
66505W        W26041  12.294  39.550   1.436
66506W        W26042  13.821  12.708  13.967
66507W        W26043   3.451  36.019   3.319
66508W        W26044   7.805  28.156   3.339
66509W        W26045  16.571   8.742   3.656
66510W        W26046  27.943  44.283  14.334
66511W        W26047  13.264  16.089   0.274
66512W        W26048  43.802  43.920  10.901
66513W        W26049   3.936  23.993  12.853
66514W        W26050  36.458   4.438  11.415
66515W        W26051  22.652  31.917  13.979
66516W        W26052  27.169  14.181  12.897
66517W        W26053  32.541  34.112  13.903
66518W        W26054  20.246  13.681   2.775
66519W        W26055   3.872  40.531   1.303
66520W        W26056  25.492  18.773   3.193
66521W        W26057  23.163  37.459  10.410
66522W        W26058  21.034  16.184   3.248
66523W        W26059  22.697  29.554  13.911
66524W        W26060   3.412  44.281   1.700
66525W        W26061  26.130  26.093   1.747
66526W        W26062  12.201  37.431   5.173
66527W        W26063  43.778  11.186  11.951
66528W        W26064  30.560  41.337   0.421
66529W        W26065  29.046   4.902  11.902
66530W        W26066  18.159  19.635  13.490
66531W        W26067  41.387  17.585   0.732
66532W        W26068  35.415  27.449  11.432
66533W        W26069  11.150  25.166  11.947
66534W        W26070  33.605  20.608   2.713
66535W        W26071  35.555  15.208  14.966
66536W        W26072  39.318  37.072  11.566
66537W        W26073  12.133  10.646   3.256
66538W        W26074  22.577  43.963   3.324
66539W        W26075   8.865  20.631  12.097
66540W        W26076   9.228  25.684  14.799
66541W        W26077   7.699  39.395   0.857
66542W        W26078  22.556  34.954   3.833
66543W        W26079  34.973  33.929  10.575
66544W        W26080  42.466  43.426   4.777
66545W        W26081  40.342   9.811  11.126
66546W        W26082  39.366  29.633   0.945
66547W        W26083  11.715  19.587  10.515
66548W        W26084  20.049  42.805  11.553
66549W        W26085  30.114  12.218  11.472
66550W        W26086   9.347  11.746  14.288
66551W        W26087   5.879   0.874   3.693
66552W        W26088  28.947  11.656   2.865
66553W        W26089  31.017  17.067  11.966
66554W        W26090  39.504  31.973   3.853
66555W        W26091  25.663   3.928   4.618
66556W        W26092  30.601  32.622   4.715
66557W        W26093  13.648   7.812  13.829
66558W        W26094  26.685  15.199  14.482
66559W        W26095  10.765  38.981  11.038
66560W        W26096   9.282   2.417  13.316
66561W        W26097  31.571  14.134   3.261
66562W        W26098  20.186  35.432  11.603
66563W        W26099  27.685  35.436   0.367
66564W        W26100  15.111  22.044   3.320
66565W        W26101  28.655  18.660   2.229
66566W        W26102   0.751  17.781   2.381
66567W        W26103  18.673  27.164  10.476
66568W        W26104  37.464   1.786  14.433
66569W        W26105  42.984   9.755   0.278
66570W        W26106  37.523  28.082  12.905
66571W        W26107   6.228  31.607  12.020
66572W        W26108  13.111  36.010  10.065
66573W        W26109  21.640  15.598  10.542
66574W        W26110  41.402   7.853   2.678
66575W        W26111  35.014  19.101   4.161
66576W        W26112  41.460  23.085   4.320
66577W        W26113  43.513  13.809   1.761
66578W        W26114  14.158   7.747  14.935
66579W        W26115  37.371  26.009   4.191
66580W        W26116   1.244  26.583   2.680
66581W        W26117  32.611  39.334   3.650
66582W        W26118  18.600  12.720  11.059
66583W        W26119  25.155  43.405   4.799
66584W        W26120  34.614  34.044   1.332
66585W        W26121  44.431  20.069   0.962
66586W        W26122  23.673  30.549  11.036
66587W        W26123  17.115  42.822  10.554
66588W        W26124  15.742  23.562  12.516
66589W        W26125  29.002   9.320   3.660
66590W        W26126  18.547   4.304  12.874
66591W        W26127  10.353  41.486   2.885
66592W        W26128   3.319   2.314  11.050
66593W        W26129  41.922  39.352  13.431
66594W        W26130   4.715  33.040   1.832
66595W        W26131  32.078  41.408  11.101
66596W        W26132  35.898   4.752   0.443
66597W        W26133  23.089  38.451   1.880
66598W        W26134  30.003  21.263  10.408
66599W        W26135  36.069  20.085  14.320
66600W        W26136  15.266  22.604  11.422
66601W        W26137  29.490   3.449  10.526
66602W        W26138   0.302  35.467  11.903
66603W        W26139  39.066  37.504   4.640
66604W        W26140  18.559  24.186  11.545
66605W        W26141  44.884  11.234   3.253
66606W        W26142   6.701  15.273  14.018
66607W        W26143  13.610  27.452   4.301
66608W        W26144   8.763   0.850   3.740
66609W        W26145  44.280  14.301  13.815
66610W        W26146  11.684   8.176   1.890
66611W        W26147   4.234  22.168  13.371
66612W        W26148   2.274  20.125   3.724
66613W        W26149  14.111  15.301   0.357
66614W        W26150  36.571  41.298   3.153
66615W        W26151  30.077  14.216  11.509
66616W        W26152  39.415  43.848   4.282
66617W        W26153  27.987  24.703   4.290
66618W        W26154   3.819   1.926  13.399
66619W        W26155  16.789  27.082  13.819
66620W        W26156  41.516  12.664  11.049
66621W        W26157  13.332  29.656   0.781
66622W        W26158  27.581  43.792  14.907
66623W        W26159  36.994  31.945  12.538
66624W        W26160   9.660  14.115   0.756
66625W        W26161   9.860   6.205  11.497
66626W        W26162  37.561  12.762   4.272
66627W        W26163  18.647  37.503   0.298
66628W        W26164  26.610  12.625   3.379
66629W        W26165  30.591  18.291   0.451
66630W        W26166  41.529   2.823  14.351
66631W        W26167  37.357  44.004   4.742
66632W        W26168   9.305  28.160   1.391
66633W        W26169  19.593  37.479  10.444
66634W        W26170   8.340  14.275  14.281
66635W        W26171  20.572  42.292  12.877
66636W        W26172  18.275  22.536   1.925
66637W        W26173  38.828  26.470   4.122
66638W        W26174  39.020   5.398  10.578
66639W        W26175  31.406  43.363   3.659
66640W        W26176   9.293   6.759  13.509
66641W        W26177   7.755  29.652  14.491
66642W        W26178  17.299  44.840  11.382
66643W        W26179  10.256   8.383   0.821
66644W        W26180   5.437  17.248   0.455
66645W        W26181   0.795  10.181   1.779
66646W        W26182  36.453   0.442  14.784
66647W        W26183  21.591   3.711  12.454
66648W        W26184   9.163  20.163   4.133
66649W        W26185  41.422  31.584  13.394
66650W        W26186  41.909  42.825   1.400
66651W        W26187  40.322  28.123   2.848
66652W        W26188  35.946  23.188  10.422
66653W        W26189   1.919   7.769  13.545
66654W        W26190  29.565  17.114   5.232
66655W        W26191   1.416  15.157  12.089
66656W        W26192  41.310   4.730  10.593
66657W        W26193  21.176  31.540   4.184
66658W        W26194   1.813  28.985  14.913
66659W        W26195  30.457  30.984  12.032
66660W        W26196  19.191  26.568  13.440
66661W        W26197  28.463  32.600   0.289
66662W        W26198  17.175   0.404   2.333
66663W        W26199   7.910  23.547  11.999
66664W        W26200  38.974  16.813   0.845
66665W        W26201  32.904   4.348  12.024
66666W        W26202   1.291  37.380  13.053
66667W        W26203   8.271  35.072  10.639
66668W        W26204   2.363   4.237   3.186
66669W        W26205  43.453  34.544   4.301
66670W        W26206  32.023  35.563   1.345
66671W        W26207  37.514  29.536  11.580
66672W        W26208  23.094   2.337  12.392
66673W        W26209  23.224   2.796   5.268
66674W        W26210  43.361  44.327   1.716
66675W        W26211  13.672  39.979   0.838
66676W        W26212  29.657  29.493  14.444
66677W        W26213  24.497   2.432   0.478
66678W        W26214  29.005  38.515  14.367
66679W        W26215   1.930  33.415  13.532
66680W        W26216  30.121  18.223  14.792
66681W        W26217  41.871  29.574  13.440
66682W        W26218  15.776  26.651  11.011
66683W        W26219   6.872  15.749  14.342
66684W        W26220  17.590   5.917   3.631
66685W        W26221  13.183   3.376  11.046
66686W        W26222  40.035  38.436   1.869
66687W        W26223  17.782  16.746   2.336
66688W        W26224  10.666  19.271  12.530
66689W        W26225  37.922  19.169   3.179
66690W        W26226  37.876  26.505   1.282
66691W        W26227  27.445  39.415  13.971
66692W        W26228  12.681  23.193  11.085
66693W        W26229  11.158  13.347   0.843
66694W        W26230   2.720  41.907   0.732
66695W        W26231   7.371  44.829  12.891
66696W        W26232  15.234   1.839  11.028
66697W        W26233  35.067  27.006   3.699
66698W        W26234  40.539   6.222  10.892
66699W        W26235  26.558  27.589  13.857
66700W        W26236  19.182  23.154  12.905
66701W        W26237  36.407  16.621   0.903
66702W        W26238   9.218  42.948  14.366
66703W        W26239  39.513  16.698   3.387
66704W        W26240   4.798   5.246   2.679
66705W        W26241   2.745  15.245  10.910
66706W        W26242  38.355  34.555  10.573
66707W        W26243   5.313  44.483  14.815
66708W        W26244  31.520  26.993  12.053
66709W        W26245  11.701   8.298  13.307
66710W        W26246  26.497  24.583  14.801
66711W        W26247  41.359  11.273  11.599
66712W        W26248  12.253  41.853   4.248
66713W        W26249  44.429  18.245  13.441
66714W        W26250   9.245  16.125   4.821
66715W        W26251  11.720  11.658   0.249
66716W        W26252  18.251  35.535   0.790
66717W        W26253  42.896  21.710   4.813
66718W        W26254   7.673  36.010  13.308
66719W        W26255   7.701   6.220  13.833
66720W        W26256  35.877  27.654   4.121
66721W        W26257  36.958  27.055   2.368
66722W        W26258   7.347   8.868  13.963
66723W        W26259  37.346  10.181  10.556
66724W        W26260  35.421  36.537  11.977
66725W        W26261   8.706  29.023  12.577
66726W        W26262  37.434  31.136  12.059
66727W        W26263  30.072  10.244  10.546
66728W        W26264  26.640  43.273  13.351
66729W        W26265  11.302  23.010  11.865
66730W        W26266  34.042  37.351   4.755
66731W        W26267  23.053  24.659   1.830
66732W        W26268   4.916  42.439   3.664
66733W        W26269  23.675  41.302  12.838
66734W        W26270  17.100  13.826   4.691
66735W        W26271  31.896  21.091  14.280
66736W        W26272  42.425  13.258  10.933
66737W        W26273  44.947  21.078   3.261
66738W        W26274  10.719  14.151   2.345
66739W        W26275  30.911  21.167  12.489
66740W        W26276  14.640  26.029   2.202
66741W        W26277   9.655  18.155  12.468
66742W        W26278   8.224  39.064  11.892
66743W        W26279  24.038   5.918   5.162
66744W        W26280  19.135  31.486   4.691
66745W        W26281  26.495  29.529   1.359
66746W        W26282  38.947  26.207   2.792
66747W        W26283  13.144  40.885   1.801
66748W        W26284  17.196   6.716   1.349
66749W        W26285   7.889  23.016   0.462
66750W        W26286   7.261  34.383   0.746
66751W        W26287   1.443  25.516  12.041
66752W        W26288  32.547  20.213  13.975
66753W        W26289   8.885  32.961   2.867
66754W        W26290  25.184  15.759  13.321
66755W        W26291  21.665  40.801   4.258
66756W        W26292   7.781   2.826   1.367
66757W        W26293  18.274   8.319  14.460
66758W        W26294  15.741  29.538   1.426
66759W        W26295  29.638   4.287   4.633
66760W        W26296  33.612  22.206  14.821
66761W        W26297  40.892  12.794   1.747
66762W        W26298  17.151  30.921  10.619
66763W        W26299  22.503   1.292   4.134
66764W        W26300  24.147  44.398  11.426
66765W        W26301  32.886  18.208  12.511
66766W        W26302   4.449  10.726  14.322
66767W        W26303  42.788  32.978   4.145
66768W        W26304  29.542  15.619   4.636
66769W        W26305  39.841   9.773   3.805
66770W        W26306  16.568  28.014  14.830
66771W        W26307  34.105   2.319   1.905
66772W        W26308  34.908  28.158  11.542
66773W        W26309   0.768  41.455   0.730
66774W        W26310   9.737  25.092   1.274
66775W        W26311  15.112   0.290  10.505
66776W        W26312  13.615  18.103   1.449
66777W        W26313   6.294  35.928   9.984
66778W        W26314  39.838   8.193   1.360
66779W        W26315   5.382   0.780  14.353
66780W        W26316  15.708  30.615   1.792
66781W        W26317  32.402  31.601   4.723
66782W        W26318   1.917   3.743  11.093
66783W        W26319  25.644  23.080   1.275
66784W        W26320  22.574  12.176  12.526
66785W        W26321   8.392  32.965   4.295
66786W        W26322  21.671  36.935  13.830
66787W        W26323   1.439   3.248   0.832
66788W        W26324  43.021   1.448   3.204
66789W        W26325  25.697  34.378   4.336
66790W        W26326  38.882  38.025  11.937
66791W        W26327  20.139   9.743  13.350
66792W        W26328  18.292  41.807   2.806
66793W        W26329  13.118  13.619   1.425
66794W        W26330  27.953  41.306  14.876
66795W        W26331   0.438  32.616  14.805
66796W        W26332  25.531   2.732  14.458
66797W        W26333  19.615  21.069   0.394
66798W        W26334  25.083  18.137   3.676
66799W        W26335  31.618  37.458   3.324
66800W        W26336  44.408   1.957   5.283
66801W        W26337  15.645  15.124   4.793
66802W        W26338  21.679  21.141   2.206
66803W        W26339   3.946  28.933  12.342
66804W        W26340  31.637  20.186   3.832
66805W        W26341  42.842  32.518   4.290
66806W        W26342  14.591  19.155  14.512
66807W        W26343   0.278  18.668   3.378
66808W        W26344   9.303  20.073  14.977
66809W        W26345  44.319   3.915  12.872
66810W        W26346   4.361  39.396  14.351
66811W        W26347  27.574  17.793   2.755
66812W        W26348  40.497  21.694   0.919
66813W        W26349   5.716   7.821  11.391
66814W        W26350  21.116  35.461  12.984
66815W        W26351   3.421  21.629   4.293
66816W        W26352  34.416  23.515  10.074
66817W        W26353  36.877  43.965  10.107
66818W        W26354   1.828   3.448  11.093
66819W        W26355  15.718  34.496  12.388
66820W        W26356  11.860  20.674  13.967
66821W        W26357   3.846   1.733  12.465
66822W        W26358   3.287  38.888   2.192
66823W        W26359  16.201  14.135   4.340
66824W        W26360  34.884  14.335   3.721
66825W        W26361  32.022   7.237   3.218
66826W        W26362   9.826   5.693  11.550
66827W        W26363  22.645  39.831   2.672
66828W        W26364  20.592  39.952  14.420
66829W        W26365   2.269   3.383  11.858
66830W        W26366  24.630   6.892   2.378
66831W        W26367  33.017   7.900  11.488
66832W        W26368   4.379  11.625   2.259
66833W        W26369  42.938  44.838  14.338
66834W        W26370  42.359   4.767   0.419
66835W        W26371  19.218  41.806   0.830
66836W        W26372  14.140  26.623  11.512
66837W        W26373   9.375  37.896  11.067
66838W        W26374  27.005   9.879   1.858
66839W        W26375  15.779  14.113   1.292
66840W        W26376  40.453  42.473   4.616
66841W        W26377   9.230  15.307   0.401
66842W        W26378  25.141  42.518  13.895
66843W        W26379  36.893  18.776  12.089
66844W        W26380  14.095   8.752  10.466
66845W        W26381  23.053  40.371   0.760
66846W        W26382  43.905  33.117   3.726
66847W        W26383  18.712  20.731  11.967
66848W        W26384   6.413  22.095   0.448
66849W        W26385   5.929  18.791   3.221
66850W        W26386  11.653   4.750   5.132
66851W        W26387  41.403  22.530   0.766
66852W        W26388   5.840  43.277   2.884
66853W        W26389  43.365  15.274   4.247
66854W        W26390  44.400  34.424  12.395
66855W        W26391  28.479  44.772   2.233
66856W        W26392  16.752  31.557   1.447
66857W        W26393   1.435  18.734   2.684
66858W        W26394  31.468   4.734  14.390
66859W        W26395  15.709   8.218  13.843
66860W        W26396  43.494   1.449  10.928
66861W        W26397  12.704  20.168   3.696
66862W        W26398  11.257   1.436  11.482
66863W        W26399  18.097  37.390  11.872
66864W        W26400  34.503  35.414  13.801
66865W        W26401  12.635  40.911  11.503
66866W        W26402  25.026  19.127   2.402
66867W        W26403  39.856  35.426  12.454
66868W        W26404  19.216  38.452   3.295
66869W        W26405  22.028  29.541  11.602
66870W        W26406  24.076   5.862   0.873
66871W        W26407  24.497  39.549   4.731
66872W        W26408  17.061  30.640   2.888
66873W        W26409  27.547   9.774  11.911
66874W        W26410  38.363   2.366  10.027
66875W        W26411  29.577  18.663   1.768
66876W        W26412   7.739   0.940   2.281
66877W        W26413  18.100  18.593  11.922
66878W        W26414  25.629  40.874   3.258
66879W        W26415   9.256  33.452   2.718
66880W        W26416  34.553  31.919  11.914
66881W        W26417  17.292   8.825   0.751
66882W        W26418  16.606  37.889   2.705
66883W        W26419   9.383  33.061  13.429
66884W        W26420   9.809   2.736   0.313
66885W        W26421  13.328  28.612  10.507
66886W        W26422   4.909  12.655   4.232
66887W        W26423  36.948  32.110  13.062
66888W        W26424  19.247  10.851   4.653
66889W        W26425   2.954  20.725  13.950
66890W        W26426  42.953  42.011   3.232
66891W        W26427  37.063  26.595   3.737
66892W        W26428  17.076   6.921  13.487
66893W        W26429  40.952  16.664  13.022
66894W        W26430   1.961  38.042   0.882
66895W        W26431  43.456  24.689  10.913
66896W        W26432  18.100  13.809  14.439
66897W        W26433  10.666  18.087   4.748
66898W        W26434   5.418  26.164  10.450
66899W        W26435  29.953  21.651  12.923
66900W        W26436  19.584  33.090  13.795
66901W        W26437  30.633   9.783  10.962
66902W        W26438  34.553   5.384  12.831
66903W        W26439  20.117  30.113   0.807
66904W        W26440   4.243  44.288   4.755
66905W        W26441  24.150   9.220   9.935
66906W        W26442  35.950  40.053  14.949
66907W        W26443   0.285  18.168  12.440
66908W        W26444  25.066  19.278  14.763
66909W        W26445  39.361  43.386  14.395
66910W        W26446  38.978   5.894   1.902
66911W        W26447  26.110  29.467   2.197
66912W        W26448  36.408  20.692  12.386
66913W        W26449   1.322  31.964  11.444
66914W        W26450   7.742  36.396  11.076
66915W        W26451  35.984   9.259   1.834
66916W        W26452  40.815   2.908   3.639
66917W        W26453  13.608  17.766   2.339
66918W        W26454  32.077  13.120   0.934
66919W        W26455   6.757  25.048   3.820
66920W        W26456  38.869  31.629  11.059
66921W        W26457  32.564  35.551  10.934
66922W        W26458  43.977   4.826   0.899
66923W        W26459  25.488  22.664  11.596
66924W        W26460  10.292  35.375   1.896
66925W        W26461   0.446  32.039   3.716
66926W        W26462  37.522  23.018  11.080
66927W        W26463  32.099  24.134   3.819
66928W        W26464  19.066  19.102  13.846
66929W        W26465  21.033  28.029  14.876
66930W        W26466   8.812  35.863  12.999
66931W        W26467  43.378  44.004   3.286
66932W        W26468  11.127   5.238   4.270
66933W        W26469   6.308  37.930  11.501
66934W        W26470  20.572  11.769   2.780
66935W        W26471  32.053  37.877  13.945
66936W        W26472  23.731  21.069   0.906
66937W        W26473  11.795  18.735  13.794
66938W        W26474  19.633  41.523   4.338
66939W        W26475  26.148  15.127   2.857
66940W        W26476  36.412  41.849  14.801
66941W        W26477  42.001   3.254   4.722
66942W        W26478  25.187  30.530  12.973
66943W        W26479  21.687  30.988   4.125
66944W        W26480  13.257  40.431   4.792
66945W        W26481   4.261  35.391  14.781
66946W        W26482  22.708  14.790  10.469
66947W        W26483   1.287  38.510   4.630
66948W        W26484   8.880  20.261   1.733
66949W        W26485  19.099  32.521   1.246
66950W        W26486  41.410  17.789   1.212
66951W        W26487   3.738  27.136  12.406
66952W        W26488  25.170   7.291   3.280
66953W        W26489   5.193  12.261  14.349
66954W        W26490  44.839  23.553   1.759
66955W        W26491  25.094   7.695   3.163
66956W        W26492  18.612  44.469   3.813
66957W        W26493  41.306   3.452   2.714
66958W        W26494  36.053  21.048   0.472
66959W        W26495   0.791  21.228  13.916
66960W        W26496  40.926  15.816  11.102
66961W        W26497  30.520   4.371   2.211
66962W        W26498  18.111  13.605  13.037
66963W        W26499  23.191  20.767  14.011
66964W        W26500  35.361  18.752  13.006
66965W        W26501  37.839  26.106   4.322
66966W        W26502  11.292  37.084   2.833
66967W        W26503  12.262  25.994   0.885
66968W        W26504  33.100  11.743   3.340
66969W        W26505  20.717   0.370   4.329
66970W        W26506  42.852  40.985   3.316
66971W        W26507  27.161  19.185   1.910
66972W        W26508  12.620   0.489  13.000
66973W        W26509  27.616  26.980  12.951
66974W        W26510  32.943  41.859  10.543
66975W        W26511  19.141  30.025   0.880
66976W        W26512  27.562  23.520   0.783
66977W        W26513   3.800  14.328   1.713
66978W        W26514  43.473   9.679   2.183
66979W        W26515  10.865   0.946   3.766
66980W        W26516  22.510  32.007   4.202
66981W        W26517  31.962   1.880  12.032
66982W        W26518  16.787  43.394   4.301
66983W        W26519  12.180   5.755  14.972
66984W        W26520  42.020  21.224   4.715
66985W        W26521  31.467   7.831  11.891
66986W        W26522  38.564  36.457  12.832
66987W        W26523  19.189  20.542   0.810
66988W        W26524  24.660  18.190   2.346
66989W        W26525  41.934  18.591   0.341
66990W        W26526  41.350  38.980   4.129
66991W        W26527  29.026  25.566   4.728
66992W        W26528   1.366  24.588  12.920
66993W        W26529  28.017  22.025  12.841
66994W        W26530  42.848   3.779  11.601
66995W        W26531  35.602  28.607  12.355
66996W        W26532  11.796  29.958   2.760
66997W        W26533  21.185  11.257   4.799
66998W        W26534  36.367  10.141  14.883
66999W        W26535  22.041  21.041  10.153
67000W        W26536  43.276  35.944   4.315
67001W        W26537   1.363  28.632   2.381
67002W        W26538  12.778  12.741   3.722
67003W        W26539  36.366   1.763  13.009
67004W        W26540  44.457   1.938   4.128
67005W        W26541   4.337  39.001  11.418
67006W        W26542   2.867  36.035   1.450
67007W        W26543   8.803  30.947  11.005
67008W        W26544  34.966  43.300  14.897
67009W        W26545  17.193  18.572  13.307
67010W        W26546   6.398  38.513   4.618
67011W        W26547  18.783  38.432  14.982
67012W        W26548  13.242  22.596  12.083
67013W        W26549  15.634   6.367  10.539
67014W        W26550  16.685  22.224   1.268
67015W        W26551  44.310   3.288   2.771
67016W        W26552  34.589  33.411   3.668
67017W        W26553  37.039  38.005  14.882
67018W        W26554   7.259  33.976   0.275
67019W        W26555  27.098  38.436   2.820
67020W        W26556  36.871   1.937   3.254
67021W        W26557  21.697  17.211  11.410
67022W        W26558  32.932  14.289  11.385
67023W        W26559  16.625  44.264  11.021
67024W        W26560  26.525  39.869  11.087
67025W        W26561  12.309   6.397   4.237
67026W        W26562  26.616  29.040   0.762
67027W        W26563  35.967  17.702   4.741
67028W        W26564  14.255   0.892   4.254
67029W        W26565   3.441  13.623  12.963
67030W        W26566  15.104  20.646   4.232
67031W        W26567  12.671   2.395  10.897
67032W        W26568   5.211  43.292   0.814
67033W        W26569  22.176   2.749   9.440
67034W        W26570  14.640  41.323   2.399
67035W        W26571  13.257  40.537   0.415
67036W        W26572   4.715   6.188  13.962
67037W        W26573  17.211  15.687   4.659
67038W        W26574   0.473  42.500   4.254
67039W        W26575  43.843   5.754  13.360
67040W        W26576  21.656  27.978  10.432
67041W        W26577  18.059  19.220   0.830
67042W        W26578   4.876  37.558   2.206
67043W        W26579  43.899  10.155  10.464
67044W        W26580  33.598   7.838   4.334
67045W        W26581  32.983  18.775  12.440
67046W        W26582  16.231  29.472  10.574
67047W        W26583   8.690   3.856   1.427
67048W        W26584  43.477  29.049  12.909
67049W        W26585  17.101  24.713   1.857
67050W        W26586  34.382  11.865  14.886
67051W        W26587   4.319  13.158   3.223
67052W        W26588  37.859  33.467   1.373
67053W        W26589  38.045  22.613  10.129
67054W        W26590   8.754  13.704  14.994
67055W        W26591   6.762  15.171  12.485
67056W        W26592  39.425  22.044  13.876
67057W        W26593   9.230   0.472   2.404
67058W        W26594  23.202  21.164  11.884
67059W        W26595  11.236  35.526   3.261
67060W        W26596  13.785   6.220  14.841
67061W        W26597   9.683  36.413   4.316
67062W        W26598  30.148  34.081   2.318
67063W        W26599   5.348   0.298   1.405
67064W        W26600   2.937  30.607  11.123
67065W        W26601   4.798   0.476  11.521
67066W        W26602  15.179  44.902   2.184
67067W        W26603  34.606  17.183  11.449
67068W        W26604  34.893  21.180  14.974
67069W        W26605   7.305   7.817  11.980
67070W        W26606   0.976   7.270   1.836
67071W        W26607   0.810  21.035   1.255
67072W        W26608  23.704  26.598  11.445
67073W        W26609  29.663  40.939  10.542
67074W        W26610  10.215  12.737   1.800
67075W        W26611  17.769  34.492   4.740
67076W        W26612  26.529   0.769   4.728
67077W        W26613  22.678  22.713   0.885
67078W        W26614  25.073  26.694  10.481
67079W        W26615  42.789  39.876   4.775
67080W        W26616  28.101   8.892   5.109
67081W        W26617  43.460  25.157   1.752
67082W        W26618  21.737  26.674  13.381
67083W        W26619  21.518  37.571   2.838
67084W        W26620  38.032  34.420   3.839
67085W        W26621   9.265  16.191  10.967
67086W        W26622  22.672  39.032   5.173
67087W        W26623  36.911  38.901  11.890
67088W        W26624  38.859  26.166  14.394
67089W        W26625  27.184  12.220  12.002
67090W        W26626  21.204  19.614  10.525
67091W        W26627   4.310   0.946   0.899
67092W        W26628  41.821   8.771  13.487
67093W        W26629  41.034  40.854   0.733
67094W        W26630  37.008  11.800  14.956
67095W        W26631  28.657  33.603   3.270
67096W        W26632  10.240  33.594   2.688
67097W        W26633   4.263  34.415   1.858
67098W        W26634  42.783  27.547  14.973
67099W        W26635   3.264  37.580   3.373
67100W        W26636   4.330  17.576  14.504
67101W        W26637   6.919  22.699   0.436
67102W        W26638  15.583   3.947   3.263
67103W        W26639   1.418  28.161  10.490
67104W        W26640  21.120  40.039   1.761
67105W        W26641  39.431  43.422  11.872
67106W        W26642  11.243  22.229  13.871
67107W        W26643  17.695  43.962  14.858
67108W        W26644  18.205   1.733  11.612
67109W        W26645  12.271  24.552  11.440
67110W        W26646  22.068  17.174  11.473
67111W        W26647  38.396  35.592  11.560
67112W        W26648   5.791  13.803  12.378
67113W        W26649  24.574   2.339  13.929
67114W        W26650  43.479  13.810   3.839
67115W        W26651  27.104  17.621   0.373
67116W        W26652   2.964  38.831  12.544
67117W        W26653  43.484  24.205  10.500
67118W        W26654  13.683  29.041  11.106
67119W        W26655  40.026  19.214  14.950
67120W        W26656  15.792   0.264   1.379
67121W        W26657  38.829  18.627  14.511
67122W        W26658   5.386  34.048   1.735
67123W        W26659  23.654  23.178  13.876
67124W        W26660  26.584  15.114  13.841
67125W        W26661  21.612  37.337   0.858
67126W        W26662  43.013  22.673   1.749
67127W        W26663  33.499  15.792  12.424
67128W        W26664  35.563  21.711  13.992
67129W        W26665   6.877  41.949  13.856
67130W        W26666  40.038  29.167  11.584
67131W        W26667  44.922  18.097  12.488
67132W        W26668   8.257  24.099  13.985
67133W        W26669  14.671  39.043  11.506
67134W        W26670  12.785   6.259  14.989
67135W        W26671   5.209   4.831   0.309
67136W        W26672  15.182  16.804   0.282
67137W        W26673  11.258   8.779  10.890
67138W        W26674  13.225   5.413  11.450
67139W        W26675   0.974   2.841   0.807
67140W        W26676  26.540   5.414   3.239
67141W        W26677   0.923  31.580  14.470
67142W        W26678  35.937  15.664   5.130
67143W        W26679  33.905  34.894   1.359
67144W        W26680   0.447  43.445  11.960
67145W        W26681  43.911  44.819  10.999
67146W        W26682  14.703  28.169  13.027
67147W        W26683  40.440  31.005  13.434
67148W        W26684  30.472  17.083   4.272
67149W        W26685  26.193  22.144  14.941
67150W        W26686  28.491  33.889  13.927
67151W        W26687  21.750  44.774   2.729
67152W        W26688  15.293  44.819   3.775
67153W        W26689  43.855  23.662   3.813
67154W        W26690  29.113  32.545  11.566
67155W        W26691  10.358  26.702   3.170
67156W        W26692   2.854   5.411   2.776
67157W        W26693  37.942  42.430  12.865
67158W        W26694  13.293  18.239   1.308
67159W        W26695   8.305  36.430  12.049
67160W        W26696   4.940  44.759  12.066
67161W        W26697  28.565  27.450  11.451
67162W        W26698   4.862   0.288   0.273
67163W        W26699  19.190  20.596  13.317
67164W        W26700  13.169  40.989   1.285
67165W        W26701  32.454  29.953  13.463
67166W        W26702  20.218  32.995  13.528
67167W        W26703  20.640  39.036   3.684
67168W        W26704  32.123   4.881  12.063
67169W        W26705  33.915  15.100   0.459
67170W        W26706   0.433  35.869  13.915
67171W        W26707  11.171  12.267  12.929
67172W        W26708   2.374  29.104   2.260
67173W        W26709  34.020  28.560  13.916
67174W        W26710  34.587  14.622   0.306
67175W        W26711  33.502  40.022  11.572
67176W        W26712  40.810  24.184   4.790
67177W        W26713  34.879  23.107   5.275
67178W        W26714  19.232  27.157   3.707
67179W        W26715  27.486   3.393  10.591
67180W        W26716  10.818  35.521   0.738
67181W        W26717  34.906  19.614   1.213
67182W        W26718  32.623  40.833  13.972
67183W        W26719  28.041  44.831   4.604
67184W        W26720   5.256  14.276   2.219
67185W        W26721  41.423  24.227  13.445
67186W        W26722  29.555  12.714   3.178
67187W        W26723  43.493  25.593  10.991
67188W        W26724  39.387  44.402  14.824
67189W        W26725  21.186  21.238   4.670
67190W        W26726   0.963  44.004  13.956
67191W        W26727  43.013  22.052  10.968
67192W        W26728  21.695  12.818  14.375
67193W        W26729  26.506  26.063  13.350
67194W        W26730  17.263  42.375  12.865
67195W        W26731  18.207  32.612   0.438
67196W        W26732  36.954  43.982   2.813
67197W        W26733  31.442  14.704  13.404
67198W        W26734  37.877  10.648  11.514
67199W        W26735  37.891  15.714   9.966
67200W        W26736  36.898   5.875   4.241
67201W        W26737  43.308  35.946   2.206
67202W        W26738  33.437  18.107   1.775
67203W        W26739   6.365  13.754   1.926
67204W        W26740  19.664  35.377   2.819
67205W        W26741  29.578  11.338   2.263
67206W        W26742   5.919  34.872  11.093
67207W        W26743  31.403   4.425   2.787
67208W        W26744   4.733  35.074  11.381
67209W        W26745  11.213  12.814  14.321
67210W        W26746   9.232  29.432   4.757
67211W        W26747  32.415  39.943  13.967
67212W        W26748  18.145  30.121   4.201
67213W        W26749  18.753  18.068  12.841
67214W        W26750  39.993   4.862   4.804
67215W        W26751  20.627  22.721   0.364
67216W        W26752  18.603   2.800   2.301
67217W        W26753  36.580  15.312  13.447
67218W        W26754  39.533  10.702   1.699
67219W        W26755  14.163   0.248   2.769
67220W        W26756  32.135  10.774  13.441
67221W        W26757  19.089  30.095  14.386
67222W        W26758  36.093   8.847   5.099
67223W        W26759  25.671  17.649  14.349
67224W        W26760  17.770  40.448  12.922
67225W        W26761   6.382  37.883  14.879
67226W        W26762  36.559  22.019  13.021
67227W        W26763  26.655  17.209   4.250
67228W        W26764   9.702  10.226  12.052
67229W        W26765  14.130  35.097   1.340
67230W        W26766  31.607  20.697  12.370
67231W        W26767  42.790   7.823  12.045
67232W        W26768  16.150  40.833  12.448
67233W        W26769  40.951   4.764   4.723
67234W        W26770  30.584  25.606  13.347
67235W        W26771  33.604  22.704   5.289
67236W        W26772  27.550  11.643   2.883
67237W        W26773   0.747  18.643  10.562
67238W        W26774  24.141   5.388  10.021
67239W        W26775   8.897  25.170   2.321
67240W        W26776  41.428  39.368   1.725
67241W        W26777  29.029   1.785   4.692
67242W        W26778  23.583  40.938   1.797
67243W        W26779  29.095  13.755  11.606
67244W        W26780  26.608   0.416  12.916
67245W        W26781  20.121   0.275  12.836
67246W        W26782  28.680   4.923  10.433
67247W        W26783  13.654  36.847   2.409
67248W        W26784  10.250   1.451  14.380
67249W        W26785  20.620  24.554  14.320
67250W        W26786   7.700   0.424   0.432
67251W        W26787  36.426   2.761  14.308
67252W        W26788   6.845  44.972   2.745
67253W        W26789  17.122  22.742   0.415
67254W        W26790  34.873   5.212   4.316
67255W        W26791  40.334  40.458   2.805
67256W        W26792  22.707  23.658   9.991
67257W        W26793  37.895  26.994  13.790
67258W        W26794  29.571  13.823  13.857
67259W        W26795  19.054  38.460  11.534
67260W        W26796  35.402  41.917  13.531
67261W        W26797  27.680  42.393   4.820
67262W        W26798   1.438  17.266   3.377
67263W        W26799  28.120  32.055  10.967
67264W        W26800  38.551  25.120   4.834
67265W        W26801   5.899   5.757   2.364
67266W        W26802   0.298  41.042   2.261
67267W        W26803  15.667  25.078  13.982
67268W        W26804  27.590  21.542   4.706
67269W        W26805  31.072  20.079  13.453
67270W        W26806  36.437  33.566  14.899
67271W        W26807  21.656   3.249  11.440
67272W        W26808   6.697  21.227   1.287
67273W        W26809  24.024  37.881   2.675
67274W        W26810  22.179  36.027   1.899
67275W        W26811  40.361   3.420   3.652
67276W        W26812  33.482  35.514   0.939
67277W        W26813  10.664  13.328   1.736
67278W        W26814  39.013  36.965  12.025
67279W        W26815  26.977  36.425   0.748
67280W        W26816  21.545  20.645   3.666
67281W        W26817  10.191  30.463   1.311
67282W        W26818   3.430   5.290  12.439
67283W        W26819   3.888  26.472  11.003
67284W        W26820  21.167   9.185  12.517
67285W        W26821  41.948  26.483   3.350
67286W        W26822  27.009  29.127   1.380
67287W        W26823   3.457  29.557   2.735
67288W        W26824  23.218   8.889   2.257
67289W        W26825   3.327   0.879  14.448
67290W        W26826  23.532   7.408  11.097
67291W        W26827  18.131  29.124  12.426
67292W        W26828  28.452  37.871  11.948
67293W        W26829  13.637   2.762  11.534
67294W        W26830  36.460  26.501   0.415
67295W        W26831  39.016  18.681  13.975
67296W        W26832  14.630   3.831  10.442
67297W        W26833  11.303  26.631  13.933
67298W        W26834  40.368   8.719  10.091
67299W        W26835  42.309  34.495  10.966
67300W        W26836  33.395  16.622  13.547
67301W        W26837   0.476   2.300   2.356
67302W        W26838  42.780  24.992  11.532
67303W        W26839  20.714  12.637  14.933
67304W        W26840  25.181  14.818  14.369
67305W        W26841  11.373   9.723   3.357
67306W        W26842  39.512  26.031   2.374
67307W        W26843  38.003  11.307  10.535
67308W        W26844  23.664   9.233   9.524
67309W        W26845  35.092  21.249  14.385
67310W        W26846  14.609   7.907   5.714
67311W        W26847  15.215  39.967  14.434
67312W        W26848  17.649   0.787   0.301
67313W        W26849  20.531  15.172   1.297
67314W        W26850  32.580  29.114   4.172
67315W        W26851  10.662  10.698  13.547
67316W        W26852  30.930  34.591   2.840
67317W        W26853  15.713  17.689   4.329
67318W        W26854  17.752  34.919   2.689
67319W        W26855  25.042  15.305  11.063
67320W        W26856  39.502  15.712   3.766
67321W        W26857  33.626  21.219  11.111
67322W        W26858  38.373   7.891  10.597
67323W        W26859   5.222  40.818  13.495
67324W        W26860  17.562  28.087   2.728
67325W        W26861  27.148  19.658  11.950
67326W        W26862  19.217  17.286  11.439
67327W        W26863  21.153   7.300  10.157
67328W        W26864  33.521   6.330   2.879
67329W        W26865   0.333  18.138  14.297
67330W        W26866  21.045  41.810  10.900
67331W        W26867  19.084  23.039   2.678
67332W        W26868   2.451   6.219  14.321
67333W        W26869  30.459  43.407  11.976
67334W        W26870  28.070   6.355  10.629
67335W        W26871  22.699  37.074  14.998
67336W        W26872  20.060   8.860  10.420
67337W        W26873  41.469  31.011   0.930
67338W        W26874  12.761  17.580   4.617
67339W        W26875  20.243  25.538   0.365
67340W        W26876  12.628  13.274  12.454
67341W        W26877   4.260  43.339  14.302
67342W        W26878  16.605  37.459  12.824
67343W        W26879   9.169  12.354  13.914
67344W        W26880  33.939  34.439   1.924
67345W        W26881  24.670  32.518   1.924
67346W        W26882   6.401  34.881   0.967
67347W        W26883  40.504  43.956  11.401
67348W        W26884  36.431  23.235   0.409
67349W        W26885  43.968  24.708   1.746
67350W        W26886  24.029  16.316   3.814
67351W        W26887  37.573  38.370   0.372
67352W        W26888  32.935   5.888  14.916
67353W        W26889  12.738   0.264  11.128
67354W        W26890  40.951   1.306   4.837
67355W        W26891  30.626  29.086  13.827
67356W        W26892  15.093  12.780   0.750
67357W        W26893  24.641  39.341  14.912
67358W        W26894  39.956  29.579   2.668
67359W        W26895   1.369  15.665  14.852
67360W        W26896  31.509  25.591   3.232
67361W        W26897  39.056   0.421  10.948
67362W        W26898  35.957   0.783   1.795
67363W        W26899  17.568   4.317  10.938
67364W        W26900  41.949   8.821  10.566
67365W        W26901  38.964   5.325   5.195
67366W        W26902  31.146  32.611  12.078
67367W        W26903  15.093  19.147   1.332
67368W        W26904   0.399   3.281  11.459
67369W        W26905  41.807  41.996   0.268
67370W        W26906  28.140  20.253  12.443
67371W        W26907  24.565  36.959  14.886
67372W        W26908  33.023   2.729   0.316
67373W        W26909  19.580  43.956   3.826
67374W        W26910  15.699   2.929   4.616
67375W        W26911  35.518   5.879  13.348
67376W        W26912  26.482  21.685  14.366
67377W        W26913  23.577  11.652  12.407
67378W        W26914  12.739  37.019   2.411
67379W        W26915  42.961  14.663   3.767
67380W        W26916  31.038  43.966  12.468
67381W        W26917  30.993  24.165  13.484
67382W        W26918   4.307  15.743  11.123
67383W        W26919  38.074  13.231  14.797
67384W        W26920  28.948  43.013  11.410
67385W        W26921  40.928   1.884  10.946
67386W        W26922  10.142  35.374  14.885
67387W        W26923  32.019  17.111   0.314
67388W        W26924   4.920  34.029  11.045
67389W        W26925  42.882   4.703   5.316
67390W        W26926  19.605   8.803   3.207
67391W        W26927  27.172  18.180   1.789
67392W        W26928  12.822  30.590   1.212
67393W        W26929  14.714  31.621   1.841
67394W        W26930  24.138   7.787   1.353
67395W        W26931   2.336   2.423  14.474
67396W        W26932  33.443   6.686   1.291
67397W        W26933  40.309  28.018   0.756
67398W        W26934  21.248  29.090  14.918
67399W        W26935  23.600  28.579  12.534
67400W        W26936  39.963  12.659   3.803
67401W        W26937  27.659   2.375  11.098
67402W        W26938  16.200  16.238  12.888
67403W        W26939  16.606  14.610   1.265
67404W        W26940  32.078  12.836   1.907
67405W        W26941  15.237   2.967  12.409
67406W        W26942   6.253  27.455   1.436
67407W        W26943  28.953  34.546  14.940
67408W        W26944  28.100  34.552   2.417
67409W        W26945  39.426  31.610   0.742
67410W        W26946   0.348  23.231  14.851
67411W        W26947  26.178   2.383  11.985
67412W        W26948  36.008  36.389  10.466
67413W        W26949  41.903  30.046   3.661
67414W        W26950  15.818  37.862   4.786
67415W        W26951  11.652  37.391  14.868
67416W        W26952  33.982  13.784   1.250
67417W        W26953  26.049  30.125   3.207
67418W        W26954  31.912  15.119  14.006
67419W        W26955  26.696  12.749   9.919
67420W        W26956  18.587  11.248   1.702
67421W        W26957  41.415   3.396   0.944
67422W        W26958  37.351  17.238  12.346
67423W        W26959   1.282   2.446  11.474
67424W        W26960  24.118   2.902   3.746
67425W        W26961  27.171  43.817  12.085
67426W        W26962   1.323  24.074  10.623
67427W        W26963  31.060   9.313   4.284
67428W        W26964  35.547  35.904   0.960
67429W        W26965  10.651  24.044   3.772
67430W        W26966   8.741  43.778  13.973
67431W        W26967   1.888  21.174   4.600
67432W        W26968  35.586  37.404  14.982
67433W        W26969  43.395  41.534  12.486
67434W        W26970  43.838   5.349  13.808
67435W        W26971   2.841  44.416   3.750
67436W        W26972  39.812  33.068  13.489
67437W        W26973  18.165  27.607  10.546
67438W        W26974  39.028  25.545  12.399
67439W        W26975   1.260  16.739   1.413
67440W        W26976  36.874   9.734   1.796
67441W        W26977  26.460  44.850   0.334
67442W        W26978  41.310  39.493  11.402
67443W        W26979  26.958   3.290  14.382
67444W        W26980  32.944  36.458   1.782
67445W        W26981   0.345   0.921  12.503
67446W        W26982   8.218  13.213   0.482
67447W        W26983  34.592  37.877   4.140
67448W        W26984   9.837  31.452   4.332
67449W        W26985  39.858  40.339   4.742
67450W        W26986  27.596  33.529  12.948
67451W        W26987  21.659  39.880   2.329
67452W        W26988  39.348  31.049   3.840
67453W        W26989  23.708  24.722  12.516
67454W        W26990  19.160  16.315   4.690
67455W        W26991  27.079  40.825   3.325
67456W        W26992  39.400  16.719  14.866
67457W        W26993  37.371  22.550  13.949
67458W        W26994  21.663  25.629  13.020
67459W        W26995   4.842   0.477   3.801
67460W        W26996   4.280   2.281  13.033
67461W        W26997  28.015  11.238  14.366
67462W        W26998  21.237  44.413   5.308
67463W        W26999  11.359   2.877   4.151
67464W        W27000  35.081  11.321   1.818
67465W        W27001  28.558  17.193  10.000
67466W        W27002  13.704  19.749  14.294
67467W        W27003   5.236   2.273   1.221
67468W        W27004   2.466   1.959   2.237
67469W        W27005  30.619   6.790   4.212
67470W        W27006  23.720  25.599  11.534
67471W        W27007  39.449  23.984   2.184
67472W        W27008  17.782  41.881   4.659
67473W        W27009  14.762  18.145  10.441
67474W        W27010  20.147  24.063  11.487
67475W        W27011  20.121  24.506  13.894
67476W        W27012  37.480  42.503  14.817
67477W        W27013   0.441  16.609  11.986
67478W        W27014  30.037  17.571  12.082
67479W        W27015  28.468   3.226   3.317
67480W        W27016  24.647  42.982  12.511
67481W        W27017  10.152  39.421  11.421
67482W        W27018   9.272  29.933  10.581
67483W        W27019  34.471   1.796   4.697
67484W        W27020  14.709   3.759   0.828
67485W        W27021  18.120  27.068   0.751
67486W        W27022  40.854  33.889   2.186
67487W        W27023  26.573  41.297  13.861
67488W        W27024  17.281  38.494  10.608
67489W        W27025  23.217  37.446   4.271
67490W        W27026  15.299  19.724   2.287
67491W        W27027   5.296  34.976   2.684
67492W        W27028  41.896  39.019   0.327
67493W        W27029  41.868  20.758   1.405
67494W        W27030  34.582  32.534  11.417
67495W        W27031  11.217  32.134   1.414
67496W        W27032   3.285  23.599  12.452
67497W        W27033  28.031  15.244   2.895
67498W        W27034  27.661  10.812  10.911
67499W        W27035  10.292  36.001   2.190
67500W        W27036  40.465  34.920   2.903
67501W        W27037   0.464  34.574  12.840
67502W        W27038  32.065  16.687  11.884
67503W        W27039  10.659   2.964   3.320
67504W        W27040  38.019  14.266  11.396
67505W        W27041  32.993  32.036  11.871
67506W        W27042  42.442   2.959   4.738
67507W        W27043  39.059  12.625  13.945
67508W        W27044  25.630  22.191   2.826
67509W        W27045  20.243  21.564  14.450
67510W        W27046  38.821  35.900  14.942
67511W        W27047  18.242   6.753  12.353
67512W        W27048  24.626   6.211  13.001
67513W        W27049  18.709  23.650   4.292
67514W        W27050  29.429  20.578   4.158
67515W        W27051  22.101  26.158  12.003
67516W        W27052  41.000   5.896  13.449
67517W        W27053  44.422   9.742  11.913
67518W        W27054  24.677  17.607   3.814
67519W        W27055  37.356  44.361  11.375
67520W        W27056   0.800  30.435  11.029
67521W        W27057   3.843  20.749   1.831
67522W        W27058   1.249  41.446  13.548
67523W        W27059  33.964   5.924  13.007
67524W        W27060   2.740  24.124   4.614
67525W        W27061  14.701  40.842  11.978
67526W        W27062  25.205  29.987   0.810
67527W        W27063  23.142  21.636   3.748
67528W        W27064  26.518  25.011   3.154
67529W        W27065  42.382  21.231  12.021
67530W        W27066  30.610  26.138   0.834
67531W        W27067  32.503  25.648  12.558
67532W        W27068  42.351  44.489  14.494
67533W        W27069  29.644  20.746  11.579
67534W        W27070  23.078  21.060  13.949
67535W        W27071  19.604   7.869  10.976
67536W        W27072  36.899  37.375  10.949
67537W        W27073   4.770   5.753  13.940
67538W        W27074  33.114   1.971   2.388
67539W        W27075  41.462  39.427  12.517
67540W        W27076  21.691  44.503  13.536
67541W        W27077   7.674  12.254   2.834
67542W        W27078  22.072  30.512   3.296
67543W        W27079  21.061   8.816   4.189
67544W        W27080   9.834   4.832   1.446
67545W        W27081  16.111  31.603  12.080
67546W        W27082   1.423  32.138   1.908
67547W        W27083  29.975  34.893  13.445
67548W        W27084  30.103   3.220   4.767
67549W        W27085  12.799  32.061   3.239
67550W        W27086   8.893  32.964   3.832
67551W        W27087  44.388  26.616   0.834
67552W        W27088  26.577  33.443   2.865
67553W        W27089   8.174   4.294  13.439
67554W        W27090  16.137  38.345   4.743
67555W        W27091  13.246  14.177   5.268
67556W        W27092  35.076  11.732   0.894
67557W        W27093  33.908  12.217   3.727
67558W        W27094   9.267  10.152   0.906
67559W        W27095   6.392  26.011  12.341
67560W        W27096  23.072  36.960  14.929
67561W        W27097  32.937  21.070   3.738
67562W        W27098  10.664  10.635  12.966
67563W        W27099  38.946  31.583  12.903
67564W        W27100  37.899  41.302   4.272
67565W        W27101  21.626  10.756  13.834
67566W        W27102  22.208  10.827  14.507
67567W        W27103   9.678  38.498  12.447
67568W        W27104  25.675  34.397   4.733
67569W        W27105  34.073  25.205   0.339
67570W        W27106   9.260  19.551   5.110
67571W        W27107  43.991  44.982   2.412
67572W        W27108  16.257  35.499  12.872
67573W        W27109   5.316   2.889   4.206
67574W        W27110  41.823   3.779  12.079
67575W        W27111  16.747  35.960  12.423
67576W        W27112  43.782  40.916   1.863
67577W        W27113  42.405   5.753   0.256
67578W        W27114   9.735   7.837  14.852
67579W        W27115  29.998  30.547   4.149
67580W        W27116   1.921  14.731  11.586
67581W        W27117  12.789  37.565  14.332
67582W        W27118  34.390  34.003  13.869
67583W        W27119   8.804  32.899  10.638
67584W        W27120  22.702  20.055  14.338
67585W        W27121  27.169   8.285   3.721
67586W        W27122  29.091  21.615   2.320
67587W        W27123  40.952  26.596  13.542
67588W        W27124  33.101  20.694   0.816
67589W        W27125   5.826  29.972   4.267
67590W        W27126  22.241  16.089   2.365
67591W        W27127  21.604  13.818  13.962
67592W        W27128  39.859   5.740  11.944
67593W        W27129  33.595   1.732   0.466
67594W        W27130  23.211   8.658   2.747
67595W        W27131  20.630  33.063   3.379
67596W        W27132   1.733  22.715   3.216
67597W        W27133   8.394  17.222   3.240
67598W        W27134  21.699  28.163   0.253
67599W        W27135  21.214  16.617  13.842
67600W        W27136  22.171  24.059  13.987
67601W        W27137   3.224   1.892  14.854
67602W        W27138  29.130  20.686   1.283
67603W        W27139  21.629   4.256  13.919
67604W        W27140  18.715   8.694   5.310
67605W        W27141  23.622  19.101   0.412
67606W        W27142  14.251  27.553   2.408
67607W        W27143  13.185  24.529  14.467
67608W        W27144  24.173  30.567   0.392
67609W        W27145   7.183  33.475  10.590
67610W        W27146  32.424  15.601   2.344
67611W        W27147  37.033  34.371  14.487
67612W        W27148  39.469   2.927   2.677
67613W        W27149  29.574   4.700   5.135
67614W        W27150  31.031  34.530  12.944
67615W        W27151  29.173  30.162  12.362
67616W        W27152  44.312  17.203  12.483
67617W        W27153  22.643  17.675   2.789
67618W        W27154  37.359   0.340  11.533
67619W        W27155  22.541   8.765   4.782
67620W        W27156  21.263   7.393  12.037
67621W        W27157  22.702  17.673  10.970
67622W        W27158  30.583   9.205  12.543
67623W        W27159  37.058  19.237   4.634
67624W        W27160   6.366  32.443  13.960
67625W        W27161   9.304  20.659  11.508
67626W        W27162  35.359   4.298   2.220
67627W        W27163   9.303  25.207   5.734
67628W        W27164  43.878  33.610   0.953
67629W        W27165  12.258  40.319   1.269
67630W        W27166  23.192  42.012   1.802
67631W        W27167  11.856  25.663  12.824
67632W        W27168  25.550  14.163   4.227
67633W        W27169  27.612  31.471  11.923
67634W        W27170  39.449  42.994  10.416
67635W        W27171   8.402  21.687  10.981
67636W        W27172  22.567  16.746   0.944
67637W        W27173  38.328  44.885  14.913
67638W        W27174  42.841  17.192  14.495
67639W        W27175  35.979  36.099   3.774
67640W        W27176  41.833  15.698  11.451
67641W        W27177  43.454   4.253  14.424
67642W        W27178  31.139  22.078   1.250
67643W        W27179  29.670  24.182   3.781
67644W        W27180  41.535  41.848  11.868
67645W        W27181  39.027  34.069   0.281
67646W        W27182  44.885  23.550   2.378
67647W        W27183  40.325   0.810  11.920
67648W        W27184  14.170  13.794  12.935
67649W        W27185  35.425  42.474   1.218
67650W        W27186   7.696  22.501  14.332
67651W        W27187  25.043   1.908  11.399
67652W        W27188  39.371  33.410   1.721
67653W        W27189  30.009  13.347   0.470
67654W        W27190  34.079   5.211  11.517
67655W        W27191  37.545  15.102   9.931
67656W        W27192  23.144  42.434   2.699
67657W        W27193  24.670   6.188   1.930
67658W        W27194  11.130  33.478   2.779
67659W        W27195  24.218  36.365   3.776
67660W        W27196  35.482  43.977  11.573
67661W        W27197   9.830  34.464  11.871
67662W        W27198   9.723   4.266   2.340
67663W        W27199  22.506  32.608  14.368
67664W        W27200  32.605  43.931  11.487
67665W        W27201  36.866  26.467  10.929
67666W        W27202  42.446  33.411  11.464
67667W        W27203   9.728  32.558  10.537
67668W        W27204  27.567  16.788  13.971
67669W        W27205  40.384   5.266   1.270
67670W        W27206   4.906  33.926  10.064
67671W        W27207   3.406  23.579  13.025
67672W        W27208  38.937  36.088  10.085
67673W        W27209  26.178  36.970  11.478
67674W        W27210  26.961  41.536  14.799
67675W        W27211  32.124  38.488  12.440
67676W        W27212   9.872  25.575   3.845
67677W        W27213   2.335   8.351  14.305
67678W        W27214   9.796   4.347  13.955
67679W        W27215  21.585  30.157  14.828
67680W        W27216   1.750  18.773  14.779
67681W        W27217  22.696  41.526  11.042
67682W        W27218  19.254  23.717   3.699
67683W        W27219   5.718  20.094   1.704
67684W        W27220  13.268  22.690   3.798
67685W        W27221  24.103   9.657   1.226
67686W        W27222  24.502  29.602   2.801
67687W        W27223   8.372  28.162  13.881
67688W        W27224  38.378  10.172  14.792
67689W        W27225   7.203  24.125  10.643
67690W        W27226  25.615  23.037  11.947
67691W        W27227   5.360  14.591  14.791
67692W        W27228   5.218  34.603   2.212
67693W        W27229  28.585   7.416   0.351
67694W        W27230  29.012   6.315   4.602
67695W        W27231  19.583  41.465   3.744
67696W        W27232  25.665  31.078  10.484
67697W        W27233  11.215   0.364   2.724
67698W        W27234  31.105  26.647  13.421
67699W        W27235  44.462  10.347  10.628
67700W        W27236  23.213   1.397  13.828
67701W        W27237  36.459   0.321  13.019
67702W        W27238  42.997   9.361  12.974
67703W        W27239   4.277  10.367  11.550
67704W        W27240  31.053  42.474   2.308
67705W        W27241  23.080  19.044  13.877
67706W        W27242  11.672  33.470  11.551
67707W        W27243  32.982  32.537   0.882
67708W        W27244  23.000  32.488  10.587
67709W        W27245   3.845  22.189   2.712
67710W        W27246   3.430  10.685  10.910
67711W        W27247  41.467  40.491   0.388
67712W        W27248  10.359  39.560   3.858
67713W        W27249   8.878  26.575  14.398
67714W        W27250  18.165  16.804   2.788
67715W        W27251  24.134   2.317  13.494
67716W        W27252   5.908  33.428   0.341
67717W        W27253  44.824  43.009  12.900
67718W        W27254  20.584  28.140  14.969
67719W        W27255  23.677  34.553   0.849
67720W        W27256  20.034  32.612  14.510
67721W        W27257   9.176  15.231  13.314
67722W        W27258   5.882  43.016   0.377
67723W        W27259  31.145  16.094  14.344
67724W        W27260  32.050  20.053   0.848
67725W        W27261  17.141  16.791  12.944
67726W        W27262  40.802  17.597   4.291
67727W        W27263  29.663   1.920  11.874
67728W        W27264   6.379   3.451  13.333
67729W        W27265  44.389   2.807   1.824
67730W        W27266  22.742  28.972   4.806
67731W        W27267  42.339  30.973   3.704
67732W        W27268  34.942   2.364  14.460
67733W        W27269  22.183  24.035  13.049
67734W        W27270  29.595   5.417   0.289
67735W        W27271   8.761  22.085   0.738
67736W        W27272  32.617  36.387   1.803
67737W        W27273  29.975  18.564   2.773
67738W        W27274  13.116   0.346  14.333
67739W        W27275   1.420  11.824  11.404
67740W        W27276  41.011  23.661  10.419
67741W        W27277  37.927  34.544   2.179
67742W        W27278  38.364  25.968  11.449
67743W        W27279   7.188  42.385  14.802
67744W        W27280   7.747  38.374   2.418
67745W        W27281  17.199  44.988   3.761
67746W        W27282  11.271   4.769  11.128
67747W        W27283  30.581  21.550   2.892
67748W        W27284  42.515  11.370   3.750
67749W        W27285  21.565  23.555   5.167
67750W        W27286  41.468  25.713   3.813
67751W        W27287  32.518  42.377  12.372
67752W        W27288  40.355  15.235  14.899
67753W        W27289  12.164  25.689  13.029
67754W        W27290  27.604  29.458  12.855
67755W        W27291  25.693  28.015  12.357
67756W        W27292  41.372  41.019   3.263
67757W        W27293  14.826  31.504  13.821
67758W        W27294   4.772  43.962  14.830
67759W        W27295  27.598  41.806   4.205
67760W        W27296  43.776  34.070   0.751
67761W        W27297  44.271  33.881   1.449
67762W        W27298  17.165  12.752  13.986
67763W        W27299  42.477  31.637   0.746
67764W        W27300   6.818   1.398  11.480
67765W        W27301  32.500  44.260  11.897
67766W        W27302  25.094  25.494  11.025
67767W        W27303  37.894  37.958   1.760
67768W        W27304  10.805  39.946   3.746
67769W        W27305  12.257   4.730   4.617
67770W        W27306  17.558  26.176  14.962
67771W        W27307  38.927  21.554   3.637
67772W        W27308  17.634  44.841  12.427
67773W        W27309  20.273  25.642   3.265
67774W        W27310  23.567  25.049   2.408
67775W        W27311  39.998  14.216   3.762
67776W        W27312  27.504  32.063   2.874
67777W        W27313  32.026  10.157  13.936
67778W        W27314  27.152  28.942   1.714
67779W        W27315  34.117  36.049   0.457
67780W        W27316  17.780  20.648  14.780
67781W        W27317  37.921  42.324  13.474
67782W        W27318  27.511  26.139   3.234
67783W        W27319   5.355  29.590  14.968
67784W        W27320  27.169  31.583  11.915
67785W        W27321  40.435  41.381  12.906
67786W        W27322  43.413  30.499  11.884
67787W        W27323  38.906   4.737  14.794
67788W        W27324  26.500   4.796   1.369
67789W        W27325   4.430  26.187   0.745
67790W        W27326   1.906  27.449   1.829
67791W        W27327  24.560   8.656  13.450
67792W        W27328   7.202  29.667   3.258
67793W        W27329  35.106   4.931  12.370
67794W        W27330  20.158  27.018   0.851
67795W        W27331  22.508  24.607   1.762
67796W        W27332   2.438  23.692  14.373
67797W        W27333   4.762  16.223   2.741
67798W        W27334  28.934  18.186  14.315
67799W        W27335   5.219  26.079   3.850
67800W        W27336   1.867  34.491   1.870
67801W        W27337  40.445   7.395   0.920
67802W        W27338   9.238  21.218   3.371
67803W        W27339   5.706  19.763   1.856
67804W        W27340  33.077  13.615   4.719
67805W        W27341   3.732  13.663   1.813
67806W        W27342  33.413   7.874   1.920
67807W        W27343  10.278   3.831  10.496
67808W        W27344  10.826  43.929  12.045
67809W        W27345  22.581   7.854  13.950
67810W        W27346  39.968  36.865  10.523
67811W        W27347  13.247   4.757  14.482
67812W        W27348   9.218  34.507   1.253
67813W        W27349  16.666  40.304   1.867
67814W        W27350  27.684  16.680  12.530
67815W        W27351  39.329  21.183   9.978
67816W        W27352  38.361   3.430   4.703
67817W        W27353   5.874   7.328  11.968
67818W        W27354   4.250  19.648  11.907
67819W        W27355  35.995   9.256   4.722
67820W        W27356  27.984  12.658   5.114
67821W        W27357  22.615  31.133  11.377
67822W        W27358  22.658  15.102  11.992
67823W        W27359  23.641   4.324   3.333
67824W        W27360  10.249  42.325   1.747
67825W        W27361  18.144  16.213   4.676
67826W        W27362  25.562  11.782  14.887
67827W        W27363   4.914  22.241   2.382
67828W        W27364  10.238  29.051   2.737
67829W        W27365  14.590  27.964  11.026
67830W        W27366  16.643  21.048  13.359
67831W        W27367  27.143  32.555  11.391
67832W        W27368  35.002  16.649  11.429
67833W        W27369  44.983   0.440   3.722
67834W        W27370   4.349  43.335   0.938
67835W        W27371  34.095  25.983   3.158
67836W        W27372  37.567  40.985  11.111
67837W        W27373  22.144  38.920  11.421
67838W        W27374  22.048  25.010  14.841
67839W        W27375  33.084  35.926   4.782
67840W        W27376  27.156  35.567  10.429
67841W        W27377  16.691  44.004   1.897
67842W        W27378  18.226  36.893  11.864
67843W        W27379  40.516   5.882  11.429
67844W        W27380  10.207   0.769   1.287
67845W        W27381  26.517  11.156   1.350
67846W        W27382   8.790  12.350   2.371
67847W        W27383  31.481  14.250  10.479
67848W        W27384   0.255  37.455  13.928
67849W        W27385  35.384  11.191  10.501
67850W        W27386  25.964  32.454  10.465
67851W        W27387  27.454  35.566  12.566
67852W        W27388  30.058  10.143  13.546
67853W        W27389  44.965  34.531   2.743
67854W        W27390  31.018  32.431  13.055
67855W        W27391  23.012  19.132   3.288
67856W        W27392  30.611  39.955   0.817
67857W        W27393  12.321   5.819   3.217
67858W        W27394   3.928  13.342   2.250
67859W        W27395  32.448   5.822  13.891
67860W        W27396  28.524  26.179  12.831
67861W        W27397  38.034  20.693  13.884
67862W        W27398   7.274   8.356  12.419
67863W        W27399  40.405  43.343  12.958
67864W        W27400  38.989  37.503  12.575
67865W        W27401  33.464   9.821  13.855
67866W        W27402  13.152  37.937   1.792
67867W        W27403  28.042   3.733  12.503
67868W        W27404  30.158  42.968   2.726
67869W        W27405   9.366  13.195  13.449
67870W        W27406  12.252  35.896   3.725
67871W        W27407  18.738   6.905  13.515
67872W        W27408  26.208  14.167  14.795
67873W        W27409   9.227  28.539  10.911
67874W        W27410  41.445  22.736   3.748
67875W        W27411  18.104  25.016   0.873
67876W        W27412  19.625  31.047  13.988
67877W        W27413  37.571  17.226   0.322
67878W        W27414   3.406  19.548  11.048
67879W        W27415   2.425  24.630   2.705
67880W        W27416  42.361  43.778  14.867
67881W        W27417  21.643  16.790   1.426
67882W        W27418  13.661  14.794  12.384
67883W        W27419  23.692  42.949   0.798
67884W        W27420  32.112  35.100  14.786
67885W        W27421  28.501  32.567   0.755
67886W        W27422  11.369   4.713   2.721
67887W        W27423  17.204  42.805   2.356
67888W        W27424  24.183  30.130   3.246
67889W        W27425  29.666   4.860   2.322
67890W        W27426  30.970  22.688   3.280
67891W        W27427  26.163   8.823  10.968
67892W        W27428  36.054  29.668  11.070
67893W        W27429  11.834  15.105   3.659
67894W        W27430  26.665  27.168   0.765
67895W        W27431  41.388  11.132   1.409
67896W        W27432  10.335  19.605  11.448
67897W        W27433  42.830  44.767  11.464
67898W        W27434  30.987  19.565   9.962
67899W        W27435  40.545  10.272  11.105
67900W        W27436  30.149  40.054   2.283
67901W        W27437   6.323  27.584  14.828
67902W        W27438  30.461  19.558  10.600
67903W        W27439  39.963  21.087  12.456
67904W        W27440   2.834  35.365   1.883
67905W        W27441  24.628  18.182  12.966
67906W        W27442  28.635  15.752   2.251
67907W        W27443  17.292  34.116  12.979
67908W        W27444  41.975  28.016   5.256
67909W        W27445  39.498  16.783  10.928
67910W        W27446  41.972  42.503   0.886
67911W        W27447  39.455  32.043  13.878
67912W        W27448  27.962  34.427  13.357
67913W        W27449  15.620   9.361   1.840
67914W        W27450  22.716  25.487  10.477
67915W        W27451   3.359   3.228   4.643
67916W        W27452   6.354  28.543  12.971
67917W        W27453  11.665   0.469  10.546
67918W        W27454  37.030  35.437  11.082
67919W        W27455   8.691  21.587   2.270
67920W        W27456  15.196  33.936  14.483
67921W        W27457  39.044  22.195   5.117
67922W        W27458  40.043  15.780  10.542
67923W        W27459   2.955   5.887   2.300
67924W        W27460   7.721  43.417   1.323
67925W        W27461  27.568   2.274   2.251
67926W        W27462  34.961  30.018   0.392
67927W        W27463  39.545   5.789  12.928
67928W        W27464  29.506   6.818  11.001
67929W        W27465  28.096  34.887  11.390
67930W        W27466  30.106  13.830   1.225
67931W        W27467  34.029  32.909  10.888
67932W        W27468  12.742   6.888  12.914
67933W        W27469  27.968  32.579  14.026
67934W        W27470  36.061  33.486  12.883
67935W        W27471  29.433  25.200   3.306
67936W        W27472   6.809  41.944  14.887
67937W        W27473  23.215   2.459   3.259
67938W        W27474  23.005  40.526   1.400
67939W        W27475  14.733  30.628  14.511
67940W        W27476   4.423  34.453   2.292
67941W        W27477  43.815  40.363   1.906
67942W        W27478  43.866  17.112  13.464
67943W        W27479  31.052  30.047  14.332
67944W        W27480  21.675  16.074  13.937
67945W        W27481  12.267  39.471  10.593
67946W        W27482   3.458  41.534   3.751
67947W        W27483  39.919  40.888   0.881
67948W        W27484   6.721  26.106   1.802
67949W        W27485   3.379  38.999  14.314
67950W        W27486  37.047   5.430   0.921
67951W        W27487  36.440   1.813   0.415
67952W        W27488  22.731   0.949  10.924
67953W        W27489  34.039   2.803  10.131
67954W        W27490  27.120  35.024  11.026
67955W        W27491   7.281  24.193   1.337
67956W        W27492  33.609   5.293  10.968
67957W        W27493  28.534   6.298  14.274
67958W        W27494  21.755  37.042  11.441
67959W        W27495  23.015  38.338  14.850
67960W        W27496   6.679  32.623   4.139
67961W        W27497  11.293  20.628   3.665
67962W        W27498  29.607  12.690  14.816
67963W        W27499  44.971  28.533  14.779
67964W        W27500   0.333  36.579  14.802
67965W        W27501  33.101  28.598  12.885
67966W        W27502   8.341  18.197  13.391
67967W        W27503  28.181   5.894  14.361
67968W        W27504  23.709   9.338   5.624
67969W        W27505  25.492  16.150  14.790
67970W        W27506   5.231  36.550   3.204
67971W        W27507  20.585  30.490   2.811
67972W        W27508  25.105  14.327  10.140
67973W        W27509  40.931  19.128   2.841
67974W        W27510  43.914  39.433   0.761
67975W        W27511  26.008  21.631   0.276
67976W        W27512   7.745  18.222  10.417
67977W        W27513   7.896  10.204   2.312
67978W        W27514  26.560  32.588   4.618
67979W        W27515  42.886  26.675  14.286
67980W        W27516  24.488  32.101   1.267
67981W        W27517  16.625   1.852   4.353
67982W        W27518  29.944   6.679  11.097
67983W        W27519  37.491  33.103   0.899
67984W        W27520  18.294  32.976  12.437
67985W        W27521   3.383  22.693   2.404
67986W        W27522  13.647  30.598   4.280
67987W        W27523  37.410  41.382  10.611
67988W        W27524  31.906  13.236  11.954
67989W        W27525   1.905  16.771   1.793
67990W        W27526  35.000  32.901   4.258
67991W        W27527   3.852  37.339   1.258
67992W        W27528  44.463  23.002  10.039
67993W        W27529  35.535  17.762   3.823
67994W        W27530  40.400  26.465   4.707
67995W        W27531  40.384  44.956   4.620
67996W        W27532  33.943  37.483   3.846
67997W        W27533  42.804   8.330  13.546
67998W        W27534  25.977  13.647  10.930
67999W        W27535  18.759  14.601   3.220
68000W        W27536   5.835  30.078  10.618
68001W        W27537  11.275  32.607   4.352
68002W        W27538  16.212   4.204  14.788
68003W        W27539   3.403  33.878   3.775
68004W        W27540   3.918  35.878  10.433
68005W        W27541  31.081  39.360  14.984
68006W        W27542   0.815  22.243   0.792
68007W        W27543  15.210   3.419   2.286
68008W        W27544  43.972  42.798   1.916
68009W        W27545  10.805  37.018  14.802
68010W        W27546  13.835  20.173  11.127
68011W        W27547  16.629  15.720  11.453
68012W        W27548   2.911  20.217   0.471
68013W        W27549  31.421  22.159  14.296
68014W        W27550   4.248  18.780   3.853
68015W        W27551  27.468   6.230  11.565
68016W        W27552  16.217  33.530   4.636
68017W        W27553   2.382  40.543  13.820
68018W        W27554  23.729   0.961  10.503
68019W        W27555  15.706  10.216   1.831
68020W        W27556   4.361  22.091   2.761
68021W        W27557   0.365   2.752  14.927
68022W        W27558  30.537   3.413  13.937
68023W        W27559  41.328  22.640   4.837
68024W        W27560  27.044   6.187   0.740
68025W        W27561  10.690  17.658  12.387
68026W        W27562   9.872   0.881   2.298
68027W        W27563  40.819  31.061  10.413
68028W        W27564   0.426  36.424  11.888
68029W        W27565  15.723  26.616   3.760
68030W        W27566  37.404  13.719  13.815
68031W        W27567  36.529   6.778   0.770
68032W        W27568   9.779  37.962   4.299
68033W        W27569  43.841  36.492   4.771
68034W        W27570  40.842   7.257  13.831
68035W        W27571   2.908  40.808   4.119
68036W        W27572  25.636  44.850   3.695
68037W        W27573   7.738   5.868   1.745
68038W        W27574  41.390   3.877  11.487
68039W        W27575  34.383  32.610   2.828
68040W        W27576  13.773   0.753  14.417
68041W        W27577  19.759   3.234  12.014
68042W        W27578  36.396  40.447   3.302
68043W        W27579  29.552  17.767  14.420
68044W        W27580  36.062  13.267  12.028
68045W        W27581  36.877  18.602   4.606
68046W        W27582  25.005  24.020  12.494
68047W        W27583   3.326   6.772   0.806
68048W        W27584  15.325  34.984  14.336
68049W        W27585  36.092  15.316   1.863
68050W        W27586  23.013  25.607  12.346
68051W        W27587  27.162   0.978   3.771
68052W        W27588   1.420  23.128  13.806
68053W        W27589  20.598   8.818  11.987
68054W        W27590  11.813   1.911   2.870
68055W        W27591  28.100   0.791   5.266
68056W        W27592  11.154  23.060   1.822
68057W        W27593  32.436  10.846  14.822
68058W        W27594   6.845  20.547  13.822
68059W        W27595  19.621  19.045   4.220
68060W        W27596  41.847   1.971  12.493
68061W        W27597  14.818  25.083  14.893
68062W        W27598  28.650  11.716  12.367
68063W        W27599  42.895  22.555   3.728
68064W        W27600  14.716  21.146  11.454
68065W        W27601   0.934  32.961   0.887
68066W        W27602  32.574  21.699   0.400
68067W        W27603  41.968  28.023  10.464
68068W        W27604  13.765  42.432  12.072
68069W        W27605  14.112  14.824   3.243
68070W        W27606  27.945  16.270  13.328
68071W        W27607  25.518  21.035   2.303
68072W        W27608  43.952  30.605  14.307
68073W        W27609  17.217   5.433  10.134
68074W        W27610  35.396  24.153  13.453
68075W        W27611  35.063   9.269   1.219
68076W        W27612  40.932  13.818   3.734
68077W        W27613   2.344   5.305  11.043
68078W        W27614   0.876  27.170   4.676
68079W        W27615  38.032  16.123   2.762
68080W        W27616  19.674  26.124  12.986
68081W        W27617  18.293  13.136  14.402
68082W        W27618  22.601  25.163   5.106
68083W        W27619  38.362  32.952  12.452
68084W        W27620  27.100  38.495  10.958
68085W        W27621  11.671   7.833  13.940
68086W        W27622   6.362   2.784  13.406
68087W        W27623   7.251  29.939   3.665
68088W        W27624  19.556   7.334   3.185
68089W        W27625  20.546  41.948  10.614
68090W        W27626  38.444  21.163  11.397
68091W        W27627  25.595  32.098   2.204
68092W        W27628  24.011  32.084   3.713
68093W        W27629  12.240  32.941   1.337
68094W        W27630   8.279  39.394  13.890
68095W        W27631   2.421  23.521  10.068
68096W        W27632   2.739   0.813  14.463
68097W        W27633   5.298  27.602  11.610
68098W        W27634  41.891  29.003   0.864
68099W        W27635  14.189  18.562   2.346
68100W        W27636   3.311   5.868  12.562
68101W        W27637  10.717  21.181   3.323
68102W        W27638  42.917  12.690   5.158
68103W        W27639  25.169  23.638  12.420
68104W        W27640  10.836  10.667  13.938
68105W        W27641  12.310  41.827   0.480
68106W        W27642  34.091  33.392  10.932
68107W        W27643   2.284  37.061   1.341
68108W        W27644   1.366  17.144   1.910
68109W        W27645   7.189  36.972   3.296
68110W        W27646  32.915  22.039   2.303
68111W        W27647  28.547  15.586  14.814
68112W        W27648  43.453   7.888  13.513
68113W        W27649   5.339  14.103  13.461
68114W        W27650  12.335  30.005  14.887
68115W        W27651   4.887  41.020   4.636
68116W        W27652  11.238  27.166  13.830
68117W        W27653  26.953  12.178  14.970
68118W        W27654  35.377  26.970   1.846
68119W        W27655  43.909   3.863  14.010
68120W        W27656  24.707  31.496   1.848
68121W        W27657  14.303   4.876   4.771
68122W        W27658   5.269   3.231  10.901
68123W        W27659   5.695   0.769   1.350
68124W        W27660   8.706  28.607  12.379
68125W        W27661  36.398  15.117  14.998
68126W        W27662  32.426  44.800   0.463
68127W        W27663  20.555  41.535  12.570
68128W        W27664  29.039  32.480  11.888
68129W        W27665  24.074  39.978  14.990
68130W        W27666  37.531  35.589   4.119
68131W        W27667   5.234  38.072   2.328
68132W        W27668  27.170   9.374  13.861
68133W        W27669   9.346   9.203   2.889
68134W        W27670  17.108  31.977  10.071
68135W        W27671   3.308  21.202  14.847
68136W        W27672  12.787  12.119  12.024
68137W        W27673  17.251  43.844  13.330
68138W        W27674  26.031   4.752  11.012
68139W        W27675  29.064  39.423  13.881
68140W        W27676  34.118  11.746   4.239
68141W        W27677  33.070  18.629   2.390
68142W        W27678  32.946  30.644   1.262
68143W        W27679  43.419  30.030   4.734
68144W        W27680  30.910  24.570  13.839
68145W        W27681  22.011  35.018  13.986
68146W        W27682  23.190   8.815  12.504
68147W        W27683   6.381  30.512   2.219
68148W        W27684  26.143  40.383  14.761
68149W        W27685  27.076  23.140   3.726
68150W        W27686  29.605  42.788  11.035
68151W        W27687  22.621  24.659   3.221
68152W        W27688  21.639  21.175   0.785
68153W        W27689  42.445   9.660   3.638
68154W        W27690  21.677   1.763   2.394
68155W        W27691   5.358  13.743   1.243
68156W        W27692  35.931  38.841  12.976
68157W        W27693  22.186   3.905   3.386
68158W        W27694  24.197  24.584   0.935
68159W        W27695   5.734  36.889  12.969
68160W        W27696  14.648  29.025   0.743
68161W        W27697  28.462  42.009  13.816
68162W        W27698  15.324  25.116  12.047
68163W        W27699  25.661  21.264  12.094
68164W        W27700  43.317  25.685  14.885
68165W        W27701  25.598  41.477  14.800
68166W        W27702  33.937   0.257   3.248
68167W        W27703  15.783  28.478  13.542
68168W        W27704  37.347   3.850  11.584
68169W        W27705  19.163   0.389   4.738
68170W        W27706   3.747  29.948   3.741
68171W        W27707   8.841  27.589   2.705
68172W        W27708  43.008  16.611   0.413
68173W        W27709  16.788  20.765  13.921
68174W        W27710  24.650   8.872   4.741
68175W        W27711   2.764  28.967  12.075
68176W        W27712  36.593  26.100   4.802
68177W        W27713   4.822  36.070  11.127
68178W        W27714  32.018   0.300  10.472
68179W        W27715  36.074  22.211  11.387
68180W        W27716  10.314   8.779   0.477
68181W        W27717   0.366  33.518   2.717
68182W        W27718  34.983  13.647   4.223
68183W        W27719  43.305  39.463   3.667
68184W        W27720  43.905  13.188  11.883
68185W        W27721  34.980  15.319   1.312
68186W        W27722  42.914  11.671   0.352
68187W        W27723  41.994  27.546  13.990
68188W        W27724  12.116  11.774   4.330
68189W        W27725  19.664  37.397  12.966
68190W        W27726  15.280  18.232   3.634
68191W        W27727  26.558   2.355   1.851
68192W        W27728  10.341  20.125  11.018
68193W        W27729  42.006   9.390  10.489
68194W        W27730   2.330  14.693  10.961
68195W        W27731  40.914  19.534   0.300
68196W        W27732  26.157  27.530  11.578
68197W        W27733   8.662  21.129  12.071
68198W        W27734  42.361  26.568  11.488
68199W        W27735  10.860  40.316   4.121
68200W        W27736  29.027  13.791   0.287
68201W        W27737  20.522  34.379   2.878
68202W        W27738  41.998  44.920  10.620
68203W        W27739  23.024  31.523   0.440
68204W        W27740  21.517  11.626  14.844
68205W        W27741  30.430  25.162   9.648
68206W        W27742  15.638   9.363  12.374
68207W        W27743  41.454   2.805  13.433
68208W        W27744  25.102   5.740   1.285
68209W        W27745  40.387  39.888  11.381
68210W        W27746  11.225   2.806   2.333
68211W        W27747  43.001   2.458   4.167
68212W        W27748  17.121  25.684  11.552
68213W        W27749  24.973  36.030  14.020
68214W        W27750  43.479  39.997  10.940
68215W        W27751  10.853  42.956  12.888
68216W        W27752  35.520  23.164   3.637
68217W        W27753  14.148   8.802   2.334
68218W        W27754  39.467   6.836   1.285
68219W        W27755  30.454  12.269   2.383
68220W        W27756   5.321  43.299  14.277
68221W        W27757  17.166  26.092  12.049
68222W        W27758  37.339   7.739  13.405
68223W        W27759  17.122  38.509  13.006
68224W        W27760  22.050   6.773   0.402
68225W        W27761  30.458  22.155  14.306
68226W        W27762   5.918  29.493   4.251
68227W        W27763  21.724  42.021  11.049
68228W        W27764  29.095  15.128  14.375
68229W        W27765  42.402   1.848  13.980
68230W        W27766  15.166  43.783   4.132
68231W        W27767  16.724  28.991  13.547
68232W        W27768  36.386  25.656  12.352
68233W        W27769  36.484  25.566  13.050
68234W        W27770  29.030  23.157  14.835
68235W        W27771   1.833  16.659   0.244
68236W        W27772  27.603  29.134  14.952
68237W        W27773   9.193  17.753   1.272
68238W        W27774  21.207  11.675  12.067
68239W        W27775  22.182  24.598  12.849
68240W        W27776  17.555  12.748   4.214
68241W        W27777  28.986  37.501  11.560
68242W        W27778  42.814  16.616  13.442
68243W        W27779   5.252  19.630   1.767
68244W        W27780   1.273  13.695   4.327
68245W        W27781  15.127   3.896  11.578
68246W        W27782  25.479  10.286   3.633
68247W        W27783  29.556   2.834  11.080
68248W        W27784  44.843  13.623   1.300
68249W        W27785   0.865   8.708   5.213
68250W        W27786  22.593  11.690   1.769
68251W        W27787   3.915  15.155  10.966
68252W        W27788  27.640   3.366  11.427
68253W        W27789  19.282  21.200  14.951
68254W        W27790  40.404   0.249  12.968
68255W        W27791  19.745  23.577   0.247
68256W        W27792  15.167  23.184   4.800
68257W        W27793  38.547  18.752  13.053
68258W        W27794  36.049   3.861  14.344
68259W        W27795  17.589  39.930  12.404
68260W        W27796  35.592  15.793  11.404
68261W        W27797  17.613  18.621  12.865
68262W        W27798  40.442  31.047   2.882
68263W        W27799  10.738  25.565   3.640
68264W        W27800   0.979  34.449  14.407
68265W        W27801  37.932  13.608  10.456
68266W        W27802  43.502  39.500  12.533
68267W        W27803   3.233  34.995  10.584
68268W        W27804  29.148  10.283   0.438
68269W        W27805  27.085  10.294  11.111
68270W        W27806  31.610  39.978  11.893
68271W        W27807   2.842  31.473   4.736
68272W        W27808  41.334  10.157   4.122
68273W        W27809  33.058  28.535  13.461
68274W        W27810  23.622  23.619   1.868
68275W        W27811  43.927  31.559  12.519
68276W        W27812  17.718  22.227   0.311
68277W        W27813  41.843  24.068   0.863
68278W        W27814   3.812  25.206  10.089
68279W        W27815  20.100  38.396   3.321
68280W        W27816   9.754  24.012  13.048
68281W        W27817   4.384   1.271   3.221
68282W        W27818  31.610  22.663   0.433
68283W        W27819  21.025  22.516  13.891
68284W        W27820   4.752  21.698   0.262
68285W        W27821  22.047  25.496  12.073
68286W        W27822  36.939   9.180   4.605
68287W        W27823  41.379  37.047  12.492
68288W        W27824  31.570  14.735  14.417
68289W        W27825  29.109  43.866   2.372
68290W        W27826   6.219  25.627  11.410
68291W        W27827  23.491  27.988   4.279
68292W        W27828   2.450  42.017  12.823
68293W        W27829   8.252  28.658  12.901
68294W        W27830  16.142  25.646  14.318
68295W        W27831  17.741  18.089   3.857
68296W        W27832  21.671  15.649  13.875
68297W        W27833  23.117  23.028  12.893
68298W        W27834  32.095  42.018   1.300
68299W        W27835  18.606  41.028   3.363
68300W        W27836  39.980  41.375   4.838
68301W        W27837  18.217  33.384  11.513
68302W        W27838   1.460   7.309  14.415
68303W        W27839   4.369  27.475  10.586
68304W        W27840  19.139  26.466   5.088
68305W        W27841  24.144  42.402   4.128
68306W        W27842  40.342  20.138   4.243
68307W        W27843  23.583  25.553   0.821
68308W        W27844  40.416  13.267  10.424
68309W        W27845  15.163  30.418  11.977
68310W        W27846   1.414   1.739  12.511
68311W        W27847  42.354  35.954  12.449
68312W        W27848   9.734  42.834  12.060
68313W        W27849  33.569  12.774  10.951
68314W        W27850  29.980   5.436  13.800
68315W        W27851   0.287  15.728  10.516
68316W        W27852  30.035   5.263  11.945
68317W        W27853  26.660  15.158   3.318
68318W        W27854   6.282   8.823   3.252
68319W        W27855   8.721  13.253  13.389
68320W        W27856  25.025  36.990   2.686
68321W        W27857  34.892  25.557  13.991
68322W        W27858  16.666  40.868   2.234
68323W        W27859   4.712  41.498  12.379
68324W        W27860  22.010  40.045  11.081
68325W        W27861   9.316  36.570  11.014
68326W        W27862  21.176  15.761   3.308
68327W        W27863   3.327  21.257   4.223
68328W        W27864  11.647  13.603  11.470
68329W        W27865  27.047  28.544  14.903
68330W        W27866  32.459   2.349   0.466
68331W        W27867  27.071  18.619   1.432
68332W        W27868  16.663  20.031   3.149
68333W        W27869  29.657  29.945  11.012
68334W        W27870  42.977   3.751  11.969
68335W        W27871   1.441   0.827  12.347
68336W        W27872   7.222  28.947   0.932
68337W        W27873  15.664  30.443   3.309
68338W        W27874   9.681  34.901   3.174
68339W        W27875  22.639  18.637   0.815
68340W        W27876  39.472   3.230   4.287
68341W        W27877  33.889   9.789   1.719
68342W        W27878  43.848  22.217   1.932
68343W        W27879  26.033  41.900   0.334
68344W        W27880  22.735  21.582  12.527
68345W        W27881  31.617   9.831   0.826
68346W        W27882  13.217  24.028  10.594
68347W        W27883  10.379   0.319   9.937
68348W        W27884  28.990  29.994   1.324
68349W        W27885  30.445  10.270  13.834
68350W        W27886  42.394  37.480   4.626
68351W        W27887  29.531   7.796   3.204
68352W        W27888  27.585  25.482   3.794
68353W        W27889  32.551  44.878   0.832
68354W        W27890  29.575  23.671   2.673
68355W        W27891  29.137   2.329   1.221
68356W        W27892   4.264  42.514  14.821
68357W        W27893   2.269  12.641   3.870
68358W        W27894   9.783  24.988  13.855
68359W        W27895  18.146  37.484   0.876
68360W        W27896  35.490  19.704   1.747
68361W        W27897  18.190  31.637   4.609
68362W        W27898  18.756  12.808  11.466
68363W        W27899  27.057   4.727   0.300
68364W        W27900  31.984   8.377  10.545
68365W        W27901   6.895  38.846  13.947
68366W        W27902  26.004  26.042  10.424
68367W        W27903  23.114  26.555  13.990
68368W        W27904   9.371   5.317   2.891
68369W        W27905  38.343  32.462  11.957
68370W        W27906  15.247  18.224   0.251
68371W        W27907  32.080  44.296  14.350
68372W        W27908  43.320  12.182  14.973
68373W        W27909  41.479   0.937  12.899
68374W        W27910  13.704  39.401  10.494
68375W        W27911   6.331  32.414   1.867
68376W        W27912  38.882  21.127  13.052
68377W        W27913  33.980  31.988   0.904
68378W        W27914  35.997  33.445   5.275
68379W        W27915  18.642  29.163  14.819
68380W        W27916   8.843  38.444   3.245
68381W        W27917  22.711   0.770  14.963
68382W        W27918  34.097   5.308   1.372
68383W        W27919   4.310  31.941   3.283
68384W        W27920  23.035  29.511  14.895
68385W        W27921  16.250  27.038  13.927
68386W        W27922  30.532  44.966   3.638
68387W        W27923  21.631  23.220  10.974
68388W        W27924   1.949  43.940  10.447
68389W        W27925  21.717   1.739   4.664
68390W        W27926   9.668  31.898  12.522
68391W        W27927  36.861  38.566   0.823
68392W        W27928  34.117  28.934  12.007
68393W        W27929  32.587   1.315   3.240
68394W        W27930  30.599   8.826   0.729
68395W        W27931  43.807  19.243   1.722
68396W        W27932  24.665  28.604   0.441
68397W        W27933   5.340  10.174   0.253
68398W        W27934  38.414  44.407  14.913
68399W        W27935   3.284  17.077  11.093
68400W        W27936  24.031   7.221   2.190
68401W        W27937   9.187  15.142   2.763
68402W        W27938  37.479   0.868  13.936
68403W        W27939   2.284   0.858  11.927
68404W        W27940  26.200   9.223  13.915
68405W        W27941  33.488  40.450   4.152
68406W        W27942  22.547  32.575   3.173
68407W        W27943  10.163  10.764   2.728
68408W        W27944  16.276  43.357   0.733
68409W        W27945  18.199   2.305   1.293
68410W        W27946   8.883  38.053   2.730
68411W        W27947   1.926   5.205  12.986
68412W        W27948   8.304  28.487   3.222
68413W        W27949  33.067  39.521   2.361
68414W        W27950  19.137  30.415  12.892
68415W        W27951  15.090  44.930  13.311
68416W        W27952  28.000  32.515   0.816
68417W        W27953  12.664  13.340  14.780
68418W        W27954  31.624  27.092   2.359
68419W        W27955  31.535  42.949   2.794
68420W        W27956  34.955  41.809  11.081
68421W        W27957  32.587  33.908   3.706
68422W        W27958  37.433  32.952  12.841
68423W        W27959  11.159  25.034  11.478
68424W        W27960   4.879  26.627  10.488
68425W        W27961  13.786  40.518  14.938
68426W        W27962   1.890  33.969  13.367
68427W        W27963  22.619   3.843   1.782
68428W        W27964   6.364  42.967   0.879
68429W        W27965   8.777  25.124  13.386
68430W        W27966  32.420  35.472   2.740
68431W        W27967  15.313  13.152   4.210
68432W        W27968  25.604   9.380  12.396
68433W        W27969  43.274  34.101  11.423
68434W        W27970  39.466  23.566  11.088
68435W        W27971   7.415   7.870  12.922
68436W        W27972  44.902   5.438   4.295
68437W        W27973  37.894   4.918   4.796
68438W        W27974  30.088  39.858   2.803
68439W        W27975  34.462  20.523  12.035
68440W        W27976  29.550  37.882   4.169
68441W        W27977   6.201  24.512  11.594
68442W        W27978  21.131  14.166  14.893
68443W        W27979  44.490  21.705   2.872
68444W        W27980  23.655   4.265   3.745
68445W        W27981  31.554  16.180   4.713
68446W        W27982  37.890  35.533   4.167
68447W        W27983  44.356   0.395   2.204
68448W        W27984   4.260   7.379   1.247
68449W        W27985  29.606  10.744  14.942
68450W        W27986  38.903  40.489   2.190
68451W        W27987  20.104  37.425  12.902
68452W        W27988  20.155  23.595   1.872
68453W        W27989  36.050   9.691   4.268
68454W        W27990  27.544  12.849   3.819
68455W        W27991  11.787   3.758  11.067
68456W        W27992  16.128   7.788   2.796
68457W        W27993  41.531  34.966  11.935
68458W        W27994  42.395  32.581   1.262
68459W        W27995  44.379   0.414  14.785
68460W        W27996  27.070   7.697  10.069
68461W        W27997   6.207  39.501   1.321
68462W        W27998  19.608  33.496   0.370
68463W        W27999   2.328  41.420  13.335
68464W        W28000  36.036   9.688   1.313
68465W        W28001  13.332   8.251  14.029
68466W        W28002  20.062  38.864   2.755
68467W        W28003  33.102  14.099   2.342
68468W        W28004   1.869  11.324  10.573
68469W        W28005  37.384   5.287   3.849
68470W        W28006  38.429   4.888   3.260
68471W        W28007  34.567  18.649   1.780
68472W        W28008  22.581  25.077  10.461
68473W        W28009  25.010   1.420   0.741
68474W        W28010   7.744  23.079   1.260
68475W        W28011  35.049   0.756   1.813
68476W        W28012   4.882   0.779   3.752
68477W        W28013   3.727   1.844   0.448
68478W        W28014  30.522  24.999  13.009
68479W        W28015  23.240  37.502  12.575
68480W        W28016  32.117   0.879   2.369
68481W        W28017  37.929  20.603  13.445
68482W        W28018  33.521   9.859  12.045
68483W        W28019  11.782  13.301   2.708
68484W        W28020  26.118  24.550   1.419
68485W        W28021  25.987   5.246  12.567
68486W        W28022  38.963   2.953   0.889
68487W        W28023  35.858   7.839   1.441
68488W        W28024   1.249   1.887  14.467
68489W        W28025  41.868  28.594   1.298
68490W        W28026  33.093  31.993   4.349
68491W        W28027  39.449  43.359  10.927
68492W        W28028   0.882  23.581  14.467
68493W        W28029  42.827  18.789  13.484
68494W        W28030   1.292   3.305  14.015
68495W        W28031  28.505  34.009   0.959
68496W        W28032   0.372   9.759  11.473
68497W        W28033   7.901  23.137   3.174
68498W        W28034  16.282  12.255   1.354
68499W        W28035  17.781  38.341   0.750
68500W        W28036  27.609  40.450   2.872
68501W        W28037  21.711  42.348  14.884
68502W        W28038  26.529   0.772  14.386
68503W        W28039  42.471  29.577   2.872
68504W        W28040  25.637  39.551   3.711
68505W        W28041  39.517  10.268   4.822
68506W        W28042  15.632  13.142   5.301
68507W        W28043  10.671  26.525   1.251
68508W        W28044   3.908  14.168  14.864
68509W        W28045  12.197   1.772   4.117
68510W        W28046  44.770   8.398   9.633
68511W        W28047  39.514  23.648  14.807
68512W        W28048  21.215  41.373  12.455
68513W        W28049  12.192  40.523  11.974
68514W        W28050  16.117  10.228   1.245
68515W        W28051  27.666  24.114  10.406
68516W        W28052  39.852  30.424  14.340
68517W        W28053  22.518  21.752   3.318
68518W        W28054  38.516  44.293   4.220
68519W        W28055  22.141   0.884   2.261
68520W        W28056  38.340  17.794  14.324
68521W        W28057  21.189   9.325  14.501
68522W        W28058   7.241  40.324   4.636
68523W        W28059  37.921   4.324  10.943
68524W        W28060  38.880  38.439  14.504
68525W        W28061  26.659  37.489   2.797
68526W        W28062  14.741   1.769  13.532
68527W        W28063  15.153  38.075  12.831
68528W        W28064  24.526  15.284  10.558
68529W        W28065  26.180   8.769   4.767
68530W        W28066  24.655   8.768  10.947
68531W        W28067   6.808   8.699  12.977
68532W        W28068  36.451  15.699   1.765
68533W        W28069   4.757  37.892  13.480
68534W        W28070  40.409  10.383   5.302
68535W        W28071  28.126  39.555   1.892
68536W        W28072  13.299  20.714  11.385
68537W        W28073   0.422  28.050   3.804
68538W        W28074  40.902  44.432  11.401
68539W        W28075  30.577  38.981  13.827
68540W        W28076   3.897  26.165   0.879
68541W        W28077  23.086  12.762  11.122
68542W        W28078  42.452  11.630   2.694
68543W        W28079  31.491  18.123   4.337
68544W        W28080  44.463  43.782   3.266
68545W        W28081  23.579   8.679   0.735
68546W        W28082   0.355  15.823  13.845
68547W        W28083   2.286  21.186  10.634
68548W        W28084   3.417  36.542  11.077
68549W        W28085   0.470   6.739  11.941
68550W        W28086  27.146   4.412   5.704
68551W        W28087  37.385  25.597  12.372
68552W        W28088  41.888  38.026   0.421
68553W        W28089   3.945   0.481   3.289
68554W        W28090  12.164   3.717   4.194
68555W        W28091  10.791  32.915   4.224
68556W        W28092   3.956  38.487   3.844
68557W        W28093  38.528   2.912   2.193
68558W        W28094  17.671  24.981  13.359
68559W        W28095   5.759  26.458   0.413
68560W        W28096  28.493  37.338  14.891
68561W        W28097  29.627   6.210  14.290
68562W        W28098  11.743   6.224  13.831
68563W        W28099  19.594   8.267  12.383
68564W        W28100  27.998   5.277  13.355
68565W        W28101  12.613  32.915   3.297
68566W        W28102  21.164  25.505   4.336
68567W        W28103   2.385   4.415   2.783
68568W        W28104  13.293   9.330  11.110
68569W        W28105  10.300  42.002   4.724
68570W        W28106  32.603  31.939  14.315
68571W        W28107  37.379  31.596  13.422
68572W        W28108   6.740   0.866  12.927
68573W        W28109  14.165  22.210   1.317
68574W        W28110   9.786  36.055  10.616
68575W        W28111  28.628   5.813  13.856
68576W        W28112   0.799  35.899   2.326
68577W        W28113  23.073   2.842  12.984
68578W        W28114  40.911  11.839   3.241
68579W        W28115  29.506  39.922   1.390
68580W        W28116  18.662   7.356  13.482
68581W        W28117  40.478  16.696  10.949
68582W        W28118  14.791  39.489   0.331
68583W        W28119  39.869  15.176   4.234
68584W        W28120  26.690  37.573  10.908
68585W        W28121   3.295  28.558   1.373
68586W        W28122  24.685   9.260   0.792
68587W        W28123  27.554  17.126  11.122
68588W        W28124  21.245  37.428   2.793
68589W        W28125  19.612  16.259  13.344
68590W        W28126  22.712  42.847  13.045
68591W        W28127  24.147  11.166   0.330
68592W        W28128  15.290  20.528   0.851
68593W        W28129   4.281   2.322   4.339
68594W        W28130  43.831  34.436   4.330
68595W        W28131  32.022  38.469  13.881
68596W        W28132  38.531  16.265  13.340
68597W        W28133  36.502  14.653  10.517
68598W        W28134  30.576  18.096   1.783
68599W        W28135   0.320  22.687   4.719
68600W        W28136  42.509  43.365  14.020
68601W        W28137  18.094  33.969  12.566
68602W        W28138  39.350  13.831  12.946
68603W        W28139  24.103   0.759  14.421
68604W        W28140   1.276  36.927  11.068
68605W        W28141  13.835   2.354   0.919
68606W        W28142  23.507  21.651   3.172
68607W        W28143  40.460  25.596   4.271
68608W        W28144  33.083  27.468   1.306
68609W        W28145  27.531  38.906  11.932
68610W        W28146  24.982  13.139  13.922
68611W        W28147  34.924  30.582   1.860
68612W        W28148   2.919  24.065   0.382
68613W        W28149  40.040  25.133   0.905
68614W        W28150   0.944  26.492  13.922
68615W        W28151  42.806  39.338   0.465
68616W        W28152  22.693  38.870   1.376
68617W        W28153  35.883  14.193   3.808
68618W        W28154   8.795  13.735   3.730
68619W        W28155  36.919  33.470  13.328
68620W        W28156  37.005  38.018  10.913
68621W        W28157  43.382  35.439   1.368
68622W        W28158  26.617  38.491   2.898
68623W        W28159  14.769  44.385  14.446
68624W        W28160  35.428  31.133   4.821
68625W        W28161  19.717  20.252  13.889
68626W        W28162   1.414  43.855   4.711
68627W        W28163  20.256  17.582   4.141
68628W        W28164  23.698  20.273   3.726
68629W        W28165   0.403  31.076  14.477
68630W        W28166  21.164   4.864   5.093
68631W        W28167  41.332  31.948   1.299
68632W        W28168  43.516  44.419  14.933
68633W        W28169  38.845  26.498   0.252
68634W        W28170  33.447  19.553  12.863
68635W        W28171  43.374   7.407   5.091
68636W        W28172   7.347  29.483  12.827
68637W        W28173  16.086  22.673  13.468
68638W        W28174   4.378   4.719  10.617
68639W        W28175  21.653  19.640   5.164
68640W        W28176  11.850  42.901   4.799
68641W        W28177  24.113  33.054   2.731
68642W        W28178  27.669  42.833   1.415
68643W        W28179  42.338   1.253  11.103
68644W        W28180  37.354  25.497  12.042
68645W        W28181  31.137  20.591  11.600
68646W        W28182  35.916  40.938  11.403
68647W        W28183  28.977  16.226  11.374
68648W        W28184  12.304  32.041   1.863
68649W        W28185   2.425  10.707   4.803
68650W        W28186  36.915   3.285  12.500
68651W        W28187   1.934  28.466   1.258
68652W        W28188  37.568  33.108  14.282
68653W        W28189  33.039  30.527  14.390
68654W        W28190  44.778  12.168  11.488
68655W        W28191  12.213  31.615   4.599
68656W        W28192   2.802  43.787   0.931
68657W        W28193  36.440  23.047  14.350
68658W        W28194  14.277  42.991   4.783
68659W        W28195  37.581  18.590   5.182
68660W        W28196  27.582  43.443   3.205
68661W        W28197   7.860  29.465  11.024
68662W        W28198   4.792  10.139  12.022
68663W        W28199  21.253  25.192   5.221
68664W        W28200  13.290  42.283  12.493
68665W        W28201   8.284  36.557  13.811
68666W        W28202  17.106  17.603   0.394
68667W        W28203  20.569  25.706  11.069
68668W        W28204   1.361  21.064  12.347
68669W        W28205  42.299  16.239   3.362
68670W        W28206  24.196  38.571  10.618
68671W        W28207  11.649  14.611  13.449
68672W        W28208  39.050  10.339   2.895
68673W        W28209   3.226  16.168   4.792
68674W        W28210  17.781  35.030   1.893
68675W        W28211   7.729  34.615   3.168
68676W        W28212  28.073  19.197  11.870
68677W        W28213  11.261  42.467   4.254
68678W        W28214  43.358   2.437   3.223
68679W        W28215  12.204  14.698   1.833
68680W        W28216  29.454  19.074  13.391
68681W        W28217   8.826  18.167  10.417
68682W        W28218  31.048  22.200  14.474
68683W        W28219  26.521  19.107   0.758
68684W        W28220   8.743  33.914  11.978
68685W        W28221   0.826  10.247  11.119
68686W        W28222  22.598  15.309   0.885
68687W        W28223  37.506  18.288  14.365
68688W        W28224  26.568   8.361   0.313
68689W        W28225  11.757  30.500  13.841
68690W        W28226  32.526  26.185   0.455
68691W        W28227  11.854  22.158   4.779
68692W        W28228   8.818  32.635  12.448
68693W        W28229   5.196  30.004  10.983
68694W        W28230  12.120  30.939   2.392
68695W        W28231  19.683  36.975  14.853
68696W        W28232  41.396  32.125  10.575
68697W        W28233   0.821  43.307   3.772
68698W        W28234  35.100  38.020   1.767
68699W        W28235   2.276  12.295  12.910
68700W        W28236   1.889   8.300  10.626
68701W        W28237  26.134  13.767  11.474
68702W        W28238  44.812  37.418  10.927
68703W        W28239  35.414  24.565   5.651
68704W        W28240  15.259  37.972  13.831
68705W        W28241  36.065  22.671   1.405
68706W        W28242  13.740  39.435   1.380
68707W        W28243   4.333  44.964  13.946
68708W        W28244  25.582  29.119  11.466
68709W        W28245   0.933   2.404  12.897
68710W        W28246  40.824  36.071  14.777
68711W        W28247  18.580  30.103   2.183
68712W        W28248  38.950  30.464  10.041
68713W        W28249  20.134  29.492  10.129
68714W        W28250  25.024  15.326   0.799
68715W        W28251  40.394  44.789  12.861
68716W        W28252  10.245  42.318   3.180
68717W        W28253   2.844   4.296   2.178
68718W        W28254   5.419  11.807  12.556
68719W        W28255  24.551  34.106   3.733
68720W        W28256  32.442   9.806   0.440
68721W        W28257  17.789   9.649   1.711
68722W        W28258  15.182  24.190   1.908
68723W        W28259   4.770   5.283  11.380
68724W        W28260  29.539  20.235   1.355
68725W        W28261   0.861  27.181   4.220
68726W        W28262  27.002   0.917   0.788
68727W        W28263  23.997  29.505   1.362
68728W        W28264  33.504  15.183  12.985
68729W        W28265  21.195  19.605   2.192
68730W        W28266  22.554   9.886   4.783
68731W        W28267  14.323  15.577   1.337
68732W        W28268  15.585  15.821  13.381
68733W        W28269   9.794   0.948   0.856
68734W        W28270  30.431  41.866   4.352
68735W        W28271   4.865  15.676  10.558
68736W        W28272  10.848  24.719  14.791
68737W        W28273  13.621  32.115  14.334
68738W        W28274   3.330  10.203   2.778
68739W        W28275  37.966  35.038  14.001
68740W        W28276   4.347  42.963   3.677
68741W        W28277  32.606  39.361  11.980
68742W        W28278  24.120  23.576  10.954
68743W        W28279  29.509  40.437  12.470
68744W        W28280  22.618  27.160   3.709
68745W        W28281  37.873  19.557  11.101
68746W        W28282  26.019  32.488   0.956
68747W        W28283   3.217  27.647  11.033
68748W        W28284  12.757  21.656  10.972
68749W        W28285   9.872  43.480   1.212
68750W        W28286  36.064   9.649  13.473
68751W        W28287  27.132  17.597  11.947
68752W        W28288  39.820  43.305  10.570
68753W        W28289  37.861  17.584   4.605
68754W        W28290  39.475  21.228   0.769
68755W        W28291   4.273   5.398   2.900
68756W        W28292   0.364   0.757  10.608
68757W        W28293  23.574  14.154  11.106
68758W        W28294  26.034  11.773  12.021
68759W        W28295  14.739  23.642   2.353
68760W        W28296   2.356  26.702   0.331
68761W        W28297  13.715  27.089  11.455
68762W        W28298  28.620  17.718   9.974
68763W        W28299  38.548  14.314   4.343
68764W        W28300  41.447   4.759  12.386
68765W        W28301  11.662  22.686   2.334
68766W        W28302  24.634  32.000   2.235
68767W        W28303  11.235  29.117  13.861
68768W        W28304  31.000  32.128  14.801
68769W        W28305  13.691  38.941  11.887
68770W        W28306  44.854  43.858   2.216
68771W        W28307  27.516  23.110  14.389
68772W        W28308  18.260   7.200   3.642
68773W        W28309   8.728  36.954   3.201
68774W        W28310   3.778  40.026   1.767
68775W        W28311  34.421  16.688   0.853
68776W        W28312  36.954   9.329   3.648
68777W        W28313  27.644   9.250  12.047
68778W        W28314  30.915  40.507  14.348
68779W        W28315   2.468  39.544   4.179
68780W        W28316  35.371  25.174  13.949
68781W        W28317  37.513  10.658  13.479
68782W        W28318   3.810   5.385  14.993
68783W        W28319  25.206  30.962  14.352
68784W        W28320  37.451  20.551  14.423
68785W        W28321  33.609   0.957   3.815
68786W        W28322  32.950  34.550   2.686
68787W        W28323  26.188  26.001   3.725
68788W        W28324  16.214   0.272  11.034
68789W        W28325  22.650  14.194   3.695
68790W        W28326  13.825   9.791  12.867
68791W        W28327   3.893  31.043   2.377
68792W        W28328  37.858  35.007   2.711
68793W        W28329  41.830  44.443   1.716
68794W        W28330   9.789   5.751  12.840
68795W        W28331  41.852  26.988   3.234
68796W        W28332  25.640  15.769   9.480
68797W        W28333   2.257  38.428  14.887
68798W        W28334  19.128  42.383  13.794
68799W        W28335  30.029  22.662   0.740
68800W        W28336  14.126  20.143  11.894
68801W        W28337  33.385  30.121  11.924
68802W        W28338   1.763  24.066   2.766
68803W        W28339  44.281  17.630   1.854
68804W        W28340   7.361   6.810   2.665
68805W        W28341  40.447  14.185   3.222
68806W        W28342  27.537  24.015  13.474
68807W        W28343  24.065  42.302   0.942
68808W        W28344  24.498  17.722   2.406
68809W        W28345  25.652  39.048   5.083
68810W        W28346  32.465  28.660   2.242
68811W        W28347  41.478  21.754   1.236
68812W        W28348  31.101  37.473   4.312
68813W        W28349   8.164  42.887   3.248
68814W        W28350   0.895  41.484   5.303
68815W        W28351  26.574  25.145   1.405
68816W        W28352  21.042   7.700  10.488
68817W        W28353  27.644  32.983   3.713
68818W        W28354  33.526   8.226  13.383
68819W        W28355  31.637   9.324  13.394
68820W        W28356  12.167  25.032   3.330
68821W        W28357  32.961  23.182   1.713
68822W        W28358  27.957   5.409  12.971
68823W        W28359   2.790  44.325  14.792
68824W        W28360   7.708  20.743  13.924
68825W        W28361  29.123  37.572   3.386
68826W        W28362  24.697  21.098   3.259
68827W        W28363   0.323   2.447   0.879
68828W        W28364   0.852  16.691   2.381
68829W        W28365  37.571  43.868  11.997
68830W        W28366  13.833  41.881   3.181
68831W        W28367   3.838  27.592  13.361
68832W        W28368  14.194  30.477   0.484
68833W        W28369   7.862  31.613  11.892
68834W        W28370  44.842  31.428   3.820
68835W        W28371  14.140  44.900   4.645
68836W        W28372   4.222  20.767   0.829
68837W        W28373  28.495  22.148   4.185
68838W        W28374  38.937  15.231   2.204
68839W        W28375  19.642  43.432  10.524
68840W        W28376  35.980  35.508   1.717
68841W        W28377  42.443   8.312  13.504
68842W        W28378  38.489  39.472   0.327
68843W        W28379   1.435  17.642   4.717
68844W        W28380  32.419   5.285   4.709
68845W        W28381   3.729  39.900  13.404
68846W        W28382  11.350  42.999   0.916
68847W        W28383  20.537  35.106  10.556
68848W        W28384  30.637  27.179  11.556
68849W        W28385   0.813  23.053  14.905
68850W        W28386   8.667  44.383  13.437
68851W        W28387  13.236  11.670   4.689
68852W        W28388  42.444   3.836  11.479
68853W        W28389  42.911  40.828   2.303
68854W        W28390   8.226  20.232   3.679
68855W        W28391  30.015   8.768   4.352
68856W        W28392  34.411  14.103  13.368
68857W        W28393  22.038  36.428   1.697
68858W        W28394  18.162  14.646  11.980
68859W        W28395  28.615  38.371   4.192
68860W        W28396   4.333   9.267   0.353
68861W        W28397  29.098  22.570   1.283
68862W        W28398  31.027  22.581  10.096
68863W        W28399  25.507   9.184   3.783
68864W        W28400  32.073  39.519  12.390
68865W        W28401  22.532  43.377  11.431
68866W        W28402  43.410  23.538  10.464
68867W        W28403  42.488  32.503  13.350
68868W        W28404  21.718   6.236   2.214
68869W        W28405  30.553  12.294   3.851
68870W        W28406  30.491  16.709  12.509
68871W        W28407  30.595  10.751   1.219
68872W        W28408  20.203  27.599   0.797
68873W        W28409   7.912  31.429  13.792
68874W        W28410   3.936   2.919  10.568
68875W        W28411  24.155  12.842   3.233
68876W        W28412  21.637  20.227   2.243
68877W        W28413  18.188  17.114   2.212
68878W        W28414  24.493  19.048  12.528
68879W        W28415   1.384  19.200  13.943
68880W        W28416   0.821   9.267  11.509
68881W        W28417   4.751  11.706   4.281
68882W        W28418  18.087  17.631  12.888
68883W        W28419  17.614  34.433  13.379
68884W        W28420  33.462  21.582  10.600
68885W        W28421  37.373  15.755   0.282
68886W        W28422  14.795  41.877   2.721
68887W        W28423  41.531  40.312  10.950
68888W        W28424  39.355  22.138   2.783
68889W        W28425  32.957  23.013  13.307
68890W        W28426  31.625   3.239   3.216
68891W        W28427  32.460  22.540  11.604
68892W        W28428  21.618  28.578  12.547
68893W        W28429  33.437  26.633   0.895
68894W        W28430   2.747   8.240   4.749
68895W        W28431  37.955   5.855  11.001
68896W        W28432   1.358  44.904  14.935
68897W        W28433  39.354  20.614  12.045
68898W        W28434  28.185   7.877   4.283
68899W        W28435  17.730  30.413  10.412
68900W        W28436  39.062  20.143   4.687
68901W        W28437   9.372  30.499  10.561
68902W        W28438   0.943  28.146  11.529
68903W        W28439   6.211  23.054   0.964
68904W        W28440  42.985  35.568  14.320
68905W        W28441   6.231   7.254  11.941
68906W        W28442  18.582  15.800  13.053
68907W        W28443  31.019  16.125   0.966
68908W        W28444  38.400  41.865  14.882
68909W        W28445   9.792  24.583   0.399
68910W        W28446  44.403   5.220  12.034
68911W        W28447  43.501  30.968  11.550
68912W        W28448   0.417  29.604  13.373
68913W        W28449  32.927  11.702   4.670
68914W        W28450  43.291  37.473   4.307
68915W        W28451  38.026  27.664  14.375
68916W        W28452   5.745  31.646   3.197
68917W        W28453  38.970   7.667  13.974
68918W        W28454  20.644   7.382   0.808
68919W        W28455  34.553  22.581   3.802
68920W        W28456  17.270  44.943   4.270
68921W        W28457  24.665   2.256   2.204
68922W        W28458   1.288  42.364  11.906
68923W        W28459  38.878  22.743   1.759
68924W        W28460  10.726  14.729  13.366
68925W        W28461  18.260  34.458  14.971
68926W        W28462  15.138  39.836   2.835
68927W        W28463  32.620  24.637  10.895
68928W        W28464  18.184  21.605   4.685
68929W        W28465   1.365   9.688  11.459
68930W        W28466  13.639  24.016   1.244
68931W        W28467   0.921  24.510  13.347
68932W        W28468  42.865   3.411  11.528
68933W        W28469   3.354  35.394   4.281
68934W        W28470  10.663  38.480   2.761
68935W        W28471  31.636  39.402  11.559
68936W        W28472  42.976   6.824   2.722
68937W        W28473  17.730  14.764  12.403
68938W        W28474  28.571  23.554  11.026
68939W        W28475   4.224  33.415  12.407
68940W        W28476  19.589   9.386   3.635
68941W        W28477   0.846   8.897  14.787
68942W        W28478   6.865   7.193   0.968
68943W        W28479  29.046   6.713   3.759
68944W        W28480   5.771  39.509  11.595
68945W        W28481  26.531  14.665   2.730
68946W        W28482  41.004   7.853   0.368
68947W        W28483  26.169  23.099  13.798
68948W        W28484  18.176  14.295  13.367
68949W        W28485  24.592   6.725  14.315
68950W        W28486  21.135  19.169   5.300
68951W        W28487  30.511  34.080   2.252
68952W        W28488  33.086  38.455   2.314
68953W        W28489   3.442  41.391  13.043
68954W        W28490  14.138  27.529  14.877
68955W        W28491  11.762   4.736  12.030
68956W        W28492  32.521   4.328  11.940
68957W        W28493  16.757  30.468   4.729
68958W        W28494   8.237  12.260   3.154
68959W        W28495  42.817  10.701  10.947
68960W        W28496   9.712  27.969  13.462
68961W        W28497  40.426   5.793   4.305
68962W        W28498  17.299  18.122  14.027
68963W        W28499   5.229  32.603   3.303
68964W        W28500  20.715   1.407  14.769
68965W        W28501  19.263  23.238  13.534
68966W        W28502   7.794   5.708  13.958
68967W        W28503  18.090   6.375   2.883
68968W        W28504  27.577  25.530   1.407
68969W        W28505   0.966  40.402   4.780
68970W        W28506   0.910  36.426  12.494
68971W        W28507  41.425  20.551   3.380
68972W        W28508  16.235  18.728   1.719
68973W        W28509  30.146  33.570   4.341
68974W        W28510   9.358  13.627  10.449
68975W        W28511  40.346   4.857  14.501
68976W        W28512  43.445   2.910   2.877
68977W        W28513  18.069  40.981  13.953
68978W        W28514  29.998  15.160   2.404
68979W        W28515  41.813  17.126   5.169
68980W        W28516  42.979  12.262  13.496
68981W        W28517   8.280   4.253   3.299
68982W        W28518  43.274   8.216   2.715
68983W        W28519  32.534  25.191  11.941
68984W        W28520  41.996  14.752  14.991
68985W        W28521  42.497  44.436   2.855
68986W        W28522  32.104  30.157   1.843
68987W        W28523  24.975   4.359   4.146
68988W        W28524   5.411  29.052  10.596
68989W        W28525  24.002  36.564  10.150
68990W        W28526  44.807  31.924   5.111
68991W        W28527   3.281  27.952  12.017
68992W        W28528  16.620  19.070  14.886
68993W        W28529  33.096   0.792   4.690
68994W        W28530   4.351   3.757  10.942
68995W        W28531  28.083  44.305   2.739
68996W        W28532  15.643   8.727  14.912
68997W        W28533  32.573  29.005  11.433
68998W        W28534  13.771  39.380  13.391
68999W        W28535  35.921  43.504  12.459
69000W        W28536   8.174  36.576   2.851
69001W        W28537  14.312  19.657  11.896
69002W        W28538  42.837  42.296  12.515
69003W        W28539  31.976  23.202  11.989
69004W        W28540  32.068  36.573  13.845
69005W        W28541  21.198  38.410   1.428
69006W        W28542  13.599  29.957   2.879
69007W        W28543  29.589  10.195   0.281
69008W        W28544  20.701   0.363   1.870
69009W        W28545  11.168   3.834  13.951
69010W        W28546  15.647  40.823   3.723
69011W        W28547  14.711   6.396  12.404
69012W        W28548  42.031   8.265   1.927
69013W        W28549   2.238  13.802  12.977
69014W        W28550  24.512  41.862   2.344
69015W        W28551  26.534  35.548   5.586
69016W        W28552  37.831   6.923  13.963
69017W        W28553  13.787  22.505  10.930
69018W        W28554  14.641  39.413   1.254
69019W        W28555  36.452  25.552   4.804
69020W        W28556   7.265  24.681  14.843
69021W        W28557  31.403  16.761  13.816
69022W        W28558  33.117  21.032  10.565
69023W        W28559  22.121   4.291   0.729
69024W        W28560   9.340   0.841  11.109
69025W        W28561  16.291  39.463  13.836
69026W        W28562  12.630  30.418  10.454
69027W        W28563  12.788  31.984   1.911
69028W        W28564   4.265  22.532   0.297
69029W        W28565   8.401  21.171  11.516
69030W        W28566  36.403  17.102   1.400
69031W        W28567   6.837  27.134   5.210
69032W        W28568  37.047  26.540  11.964
69033W        W28569  10.866   7.327   2.318
69034W        W28570  25.485  21.744  10.626
69035W        W28571  18.170  37.036  11.108
69036W        W28572  43.813  28.670   4.684
69037W        W28573  41.316  17.611  14.475
69038W        W28574  26.169  38.012   4.352
69039W        W28575  12.646  31.556  12.530
69040W        W28576   9.229  42.415   0.747
69041W        W28577  34.599  33.062   4.777
69042W        W28578  34.579  40.889  13.875
69043W        W28579   2.428  32.118  14.509
69044W        W28580  33.080  30.932   0.749
69045W        W28581   9.275   7.281  10.079
69046W        W28582  40.854  34.045   0.792
69047W        W28583  12.361  35.448  12.430
69048W        W28584  10.216  32.414  13.378
69049W        W28585   6.841  27.000  12.971
69050W        W28586  33.408   1.935  12.580
69051W        W28587   3.856   2.446   4.354
69052W        W28588  32.469   8.174  13.383
69053W        W28589  41.307  23.117   2.270
69054W        W28590  35.521  17.199   3.311
69055W        W28591  41.302  13.779  14.425
69056W        W28592  15.583   2.961   3.238
69057W        W28593   4.869  38.829   3.153
69058W        W28594  28.083  18.641   4.783
69059W        W28595  31.550  24.678   1.269
69060W        W28596  14.833  17.700  13.922
69061W        W28597  22.163  40.415   4.301
69062W        W28598   9.384  42.901   0.893
69063W        W28599  34.062  17.713  12.507
69064W        W28600  25.577  17.728   2.860
69065W        W28601   6.737  20.240   1.824
69066W        W28602  40.420  43.515   2.689
69067W        W28603  38.484   1.428  12.937
69068W        W28604  19.163  10.795   3.248
69069W        W28605  26.999  21.079  12.961
69070W        W28606  10.205   1.348   5.114
69071W        W28607  12.158   5.896  12.567
69072W        W28608   9.234  26.526  11.546
69073W        W28609  27.017  15.237  11.898
69074W        W28610  19.286  42.510  14.308
69075W        W28611   3.340  43.008  13.036
69076W        W28612  39.871  18.667   2.337
69077W        W28613  44.441  38.003   3.652
69078W        W28614  20.530  33.611   2.833
69079W        W28615   7.278  40.447  12.883
69080W        W28616  18.588  21.593   1.241
69081W        W28617  14.299   8.682  13.795
69082W        W28618  38.936   7.315   1.411
69083W        W28619  16.179  21.668  11.576
69084W        W28620   7.900  33.017  10.945
69085W        W28621  35.941  29.169   0.759
69086W        W28622   5.363  43.516  10.996
69087W        W28623  21.213   5.715   1.877
69088W        W28624  25.130  13.768  10.945
69089W        W28625  24.540  10.831  13.953
69090W        W28626  33.033   1.307   1.913
69091W        W28627   7.303  28.099  12.510
69092W        W28628   5.286  40.868   1.237
69093W        W28629  36.418  34.093   2.814
69094W        W28630  23.598   8.700  13.951
69095W        W28631  13.332  30.927   0.246
69096W        W28632  43.471  29.631   0.381
69097W        W28633  33.589   2.769   4.334
69098W        W28634  15.204  21.131  14.312
69099W        W28635   4.944   4.742   3.861
69100W        W28636  24.112  34.572  13.371
69101W        W28637   5.213  36.037  12.578
69102W        W28638  38.443  44.448  13.946
69103W        W28639  15.152  30.427  13.430
69104W        W28640  22.607   6.352  13.375
69105W        W28641  35.513  42.315  11.420
69106W        W28642  37.003   5.259   3.846
69107W        W28643  36.544   0.776  12.384
69108W        W28644   1.764  25.962   0.457
69109W        W28645  12.220  31.456  12.881
69110W        W28646  39.028   2.908   2.861
69111W        W28647   1.855   6.319  11.879
69112W        W28648  25.195  41.329  13.359
69113W        W28649  13.182  30.557  13.339
69114W        W28650  40.848  34.615   1.775
69115W        W28651  27.031  18.262  13.985
69116W        W28652  18.251  18.575   5.774
69117W        W28653  33.477   7.799  10.954
69118W        W28654  16.235  38.350   4.189
69119W        W28655  32.011  16.794   9.943
69120W        W28656  28.438  38.044  14.772
69121W        W28657  44.969   4.417  11.607
69122W        W28658  23.027   5.712  14.782
69123W        W28659   2.809  43.426  13.456
69124W        W28660  31.532  43.327   0.269
69125W        W28661  36.562   9.384   4.230
69126W        W28662  39.394   8.232  14.903
69127W        W28663   7.876  14.823   3.760
69128W        W28664  40.453   9.761  12.940
69129W        W28665  25.582  39.997   2.356
69130W        W28666  44.821  10.826  10.976
69131W        W28667  35.566  32.068  14.459
69132W        W28668  17.146  18.139   2.839
69133W        W28669  43.923  11.697  13.330
69134W        W28670  10.681  40.533  13.362
69135W        W28671   5.414  44.786  11.106
69136W        W28672  31.573   4.349  11.074
69137W        W28673  19.683  37.997  14.401
69138W        W28674   8.348  40.870  13.456
69139W        W28675  28.079  22.533  12.914
69140W        W28676  39.515  16.597  10.640
69141W        W28677  21.246  23.052  12.487
69142W        W28678  34.942  11.810   1.697
69143W        W28679  20.624   3.777  12.364
69144W        W28680  44.338  36.439  14.514
69145W        W28681  12.656  26.637  14.419
69146W        W28682  13.279  18.101  14.812
69147W        W28683  28.604  33.918   3.376
69148W        W28684  30.521  14.660  10.969
69149W        W28685  24.635  10.202  11.993
69150W        W28686  37.862  11.217  11.041
69151W        W28687  27.144  11.351  14.472
69152W        W28688  22.104  39.346   0.256
69153W        W28689  42.813  30.536  14.881
69154W        W28690  21.183  12.694  11.090
69155W        W28691   7.793   6.261   0.319
69156W        W28692  41.428  39.967   0.835
69157W        W28693  43.994  15.177  14.799
69158W        W28694  36.985  13.187   2.787
69159W        W28695   9.794  15.600   1.387
69160W        W28696  24.047  29.559   3.753
69161W        W28697  37.869   9.181   0.863
69162W        W28698  13.650  25.034   4.185
69163W        W28699  22.997  20.762   3.161
69164W        W28700  42.839  22.997   1.425
69165W        W28701  40.495  20.763  10.970
69166W        W28702   9.287  14.629   1.706
69167W        W28703  31.039  36.555  11.382
69168W        W28704  40.936  31.636   3.692
69169W        W28705  44.263  26.571  12.350
69170W        W28706  27.507  22.541  10.601
69171W        W28707  25.040  17.173   9.613
69172W        W28708  11.714   8.722  13.480
69173W        W28709  44.861  43.815  11.961
69174W        W28710   2.741  37.087   4.797
69175W        W28711  28.590  20.658   4.632
69176W        W28712  11.701  44.825  11.447
69177W        W28713  19.687   3.278  13.475
69178W        W28714  17.771   9.667  12.464
69179W        W28715  13.258  30.643   4.792
69180W        W28716   3.890  11.859  12.495
69181W        W28717  25.693  19.732   2.304
69182W        W28718  37.580  35.580  13.373
69183W        W28719  10.675  24.506   3.826
69184W        W28720  43.010   3.330  12.956
69185W        W28721  31.485   9.680  13.499
69186W        W28722  15.747  21.042   0.792
69187W        W28723  18.589  27.112   4.188
69188W        W28724  19.052  28.942   3.863
69189W        W28725  44.377   7.875  14.946
69190W        W28726  42.782  43.475  10.551
69191W        W28727  22.065  16.303   2.713
69192W        W28728  18.671  39.373   2.811
69193W        W28729  24.700  13.839   1.928
69194W        W28730  30.090  34.058   2.731
69195W        W28731  14.605  44.302  11.504
69196W        W28732  14.149  23.654   0.332
69197W        W28733   9.866  44.354  10.453
69198W        W28734  15.813  12.199   3.662
69199W        W28735   0.359  31.122   3.234
69200W        W28736  36.019  19.729  11.537
69201W        W28737  42.856  17.196   5.259
69202W        W28738   4.806  10.832  12.916
69203W        W28739  13.663  22.602  12.922
69204W        W28740  21.239  29.583   2.385
69205W        W28741  18.708  42.919   4.192
69206W        W28742  21.251  42.525  13.330
69207W        W28743   1.468  26.998   3.693
69208W        W28744  34.479   0.427   3.852
69209W        W28745   8.320  36.995  14.782
69210W        W28746  22.010  27.076   1.797
69211W        W28747  35.915  14.793   2.334
69212W        W28748  29.497  23.029   0.908
69213W        W28749  36.980  36.970  13.413
69214W        W28750   0.872   3.231   4.218
69215W        W28751  11.321   5.249  13.891
69216W        W28752  36.458   7.904  11.384
69217W        W28753   3.794  21.062   0.829
69218W        W28754  36.393  34.601   2.320
69219W        W28755   3.387  38.049  10.435
69220W        W28756  44.913   4.206   1.918
69221W        W28757  17.304  39.359  11.604
69222W        W28758  34.581   1.372   2.724
69223W        W28759  35.086  24.593  14.991
69224W        W28760  20.704  22.540  12.570
69225W        W28761  24.498  16.649  12.838
69226W        W28762  29.018  11.828  11.990
69227W        W28763  41.387   7.829   0.823
69228W        W28764  31.937   2.916  11.386
69229W        W28765   2.336  30.558   4.121
69230W        W28766  23.174  22.251  13.375
69231W        W28767  25.107  32.983   0.887
69232W        W28768  26.120   3.393   4.706
69233W        W28769  43.382  42.296  13.415
69234W        W28770  10.154  37.058  10.627
69235W        W28771  13.656  35.373  10.505
69236W        W28772  39.408  30.065  14.888
69237W        W28773  15.134  38.872  14.506
69238W        W28774  32.071   3.844  10.933
69239W        W28775  14.154  40.005   1.412
69240W        W28776  33.117  43.424  14.317
69241W        W28777  13.183  18.607   1.237
69242W        W28778  24.532  34.113   2.692
69243W        W28779  37.869  29.639   0.874
69244W        W28780  14.639  28.065  11.856
69245W        W28781  22.610  29.653   5.277
69246W        W28782  35.391  12.343   3.681
69247W        W28783  31.402  16.795  11.010
69248W        W28784  17.698  43.009   3.307
69249W        W28785   9.722  37.345  14.983
69250W        W28786  15.260   4.806   1.821
69251W        W28787  43.004  36.057  10.084
69252W        W28788  27.605  18.786   2.863
69253W        W28789  16.099  44.272  14.883
69254W        W28790  16.254  36.090   4.790
69255W        W28791  11.295   9.278   3.167
69256W        W28792   5.919  28.568  12.879
69257W        W28793   9.698  22.221   2.895
69258W        W28794  35.478   7.764   1.366
69259W        W28795  16.228  34.932   4.654
69260W        W28796  18.596  24.512  11.539
69261W        W28797   8.734  17.653   1.724
69262W        W28798  21.259   2.471   1.440
69263W        W28799  17.784  35.519   3.363
69264W        W28800  12.245  37.460  12.881
69265W        W28801  43.941  35.997   4.154
69266W        W28802   6.746  23.074   1.358
69267W        W28803   5.699  16.239   1.705
69268W        W28804  11.368  14.750  14.928
69269W        W28805  21.167  25.510  10.512
69270W        W28806   2.262  34.477  12.088
69271W        W28807  14.662   8.313  12.063
69272W        W28808  34.422  26.624   2.316
69273W        W28809   9.706  14.595  12.969
69274W        W28810  10.285  39.358  11.098
69275W        W28811   1.451  35.476   2.287
69276W        W28812  18.639  36.873  10.423
69277W        W28813  41.889   7.396   3.378
69278W        W28814  34.982  33.513   0.473
69279W        W28815  14.756  14.652  11.097
69280W        W28816  11.839  23.639   9.959
69281W        W28817  36.363   7.763   1.935
69282W        W28818  18.276   9.379  13.441
69283W        W28819   5.837  18.599  11.455
69284W        W28820  14.703  15.158   2.860
69285W        W28821  20.660  16.608  13.400
69286W        W28822  25.197   8.867   3.815
69287W        W28823  37.425  20.158  11.892
69288W        W28824   6.909  22.699  12.881
69289W        W28825  19.667  17.094   3.169
69290W        W28826  38.894  40.474   4.314
69291W        W28827  42.857  17.571   3.767
69292W        W28828  13.146  17.630  11.417
69293W        W28829  11.715  31.622   3.756
69294W        W28830  44.314  34.455  10.599
69295W        W28831  14.247  13.254  11.593
69296W        W28832  44.360  42.950   3.763
69297W        W28833  35.089  42.288   4.347
69298W        W28834   8.756  38.853  13.333
69299W        W28835  20.267  34.068   4.810
69300W        W28836   2.941  22.601  13.975
69301W        W28837  13.169  37.580   1.722
69302W        W28838  29.651  43.790  12.039
69303W        W28839  30.656   3.310  13.401
69304W        W28840  14.733  34.536  13.064
69305W        W28841  40.984   8.667   2.223
69306W        W28842   8.877  32.514   0.242
69307W        W28843   9.235  30.914  13.378
69308W        W28844  38.535  40.341  10.408
69309W        W28845   4.918  17.271  10.433
69310W        W28846   7.842   3.913  12.559
69311W        W28847  22.170   2.468   5.686
69312W        W28848  35.376  17.084  12.875
69313W        W28849  32.090  26.148   0.889
69314W        W28850  27.512   4.761   4.632
69315W        W28851  39.047  30.984  13.012
69316W        W28852  41.834  24.574  13.343
69317W        W28853  41.960   4.273  13.883
69318W        W28854  21.114  17.785  11.110
69319W        W28855  16.801  18.099  11.557
69320W        W28856  32.425  40.842   0.454
69321W        W28857  44.884   1.398  10.421
69322W        W28858   0.757   6.306   3.720
69323W        W28859  22.081  36.982   2.315
69324W        W28860  27.012  27.962   0.367
69325W        W28861  17.200  21.518  12.431
69326W        W28862  39.544  36.426  12.072
69327W        W28863  25.098   6.826  11.950
69328W        W28864  22.035  31.973   3.334
69329W        W28865  27.941   7.742  13.002
69330W        W28866  10.224  31.441   0.880
69331W        W28867  24.575  32.962   2.702
69332W        W28868  35.436  38.931   0.468
69333W        W28869  43.341  41.441   4.671
69334W        W28870  24.157  36.554  14.341
69335W        W28871  29.936   3.866   0.802
69336W        W28872   8.317  33.123  14.500
69337W        W28873  14.233   1.273  14.911
69338W        W28874  33.939  41.875   2.302
69339W        W28875  17.751  26.597   4.236
69340W        W28876  16.607  17.586   0.425
69341W        W28877   0.826  22.725  10.078
69342W        W28878  29.082  33.497  12.475
69343W        W28879   6.830  38.075  13.398
69344W        W28880  35.882   0.344  11.974
69345W        W28881  18.185  19.588   2.811
69346W        W28882  15.171   5.384   3.197
69347W        W28883  22.043  15.647  12.876
69348W        W28884  33.065  29.007  11.870
69349W        W28885  42.921  18.580   3.679
69350W        W28886  34.463  12.729   0.353
69351W        W28887  31.047  15.611   0.876
69352W        W28888  17.677  23.214  11.950
69353W        W28889  37.839  35.496  12.993
69354W        W28890  17.158  35.909   1.361
69355W        W28891  17.770  34.954   4.328
69356W        W28892  13.606  22.680   1.871
69357W        W28893  16.254  27.956  10.925
69358W        W28894  25.096  31.513  12.341
69359W        W28895  41.846  11.624   0.433
69360W        W28896  28.938  24.069  11.382
69361W        W28897  26.114  23.679  14.339
69362W        W28898   5.294  28.579  12.522
69363W        W28899  23.233   7.396   2.182
69364W        W28900  34.573  18.736  13.948
69365W        W28901   5.933  26.563   0.791
69366W        W28902  37.473   3.265  13.496
69367W        W28903  20.135  23.715   3.320
69368W        W28904  42.311  34.051   4.829
69369W        W28905  27.945  43.458   2.255
69370W        W28906   4.778  27.534  12.086
69371W        W28907  13.165  11.800  10.425
69372W        W28908  20.741  14.231   2.270
69373W        W28909  38.994  14.640   0.427
69374W        W28910   2.268  36.097   1.728
69375W        W28911   2.432  31.105  12.571
69376W        W28912   5.301  32.893   4.339
69377W        W28913  11.834  30.418   2.338
69378W        W28914   7.685  37.900  10.555
69379W        W28915  40.531  22.669   1.900
69380W        W28916  40.923  34.953   1.794
69381W        W28917   1.296  39.950   0.893
69382W        W28918  16.299  34.526   0.906
69383W        W28919  27.095  27.183   2.219
69384W        W28920  24.032  34.932  10.091
69385W        W28921  39.478  18.098   4.755
69386W        W28922   0.351  13.242   2.267
69387W        W28923  24.631   6.349   4.731
69388W        W28924  10.689  26.014  14.907
69389W        W28925   3.912  36.846   2.258
69390W        W28926  25.591  31.578   1.387
69391W        W28927  12.345   9.714   4.653
69392W        W28928  38.528   1.743  13.896
69393W        W28929  32.632   4.759  12.987
69394W        W28930  40.332  14.221  14.283
69395W        W28931   0.439   5.770  12.053
69396W        W28932  14.214  19.129   0.378
69397W        W28933  24.131  25.575   4.132
69398W        W28934  32.541   7.362  14.344
69399W        W28935  42.861   9.695  12.842
69400W        W28936  30.034  44.325  14.966
69401W        W28937  14.209  19.225   5.270
69402W        W28938  42.863  22.997   0.746
69403W        W28939  12.218  32.913   2.824
69404W        W28940   5.903  13.190  13.458
69405W        W28941  23.567  33.572   0.898
69406W        W28942  12.174  30.921  11.488
69407W        W28943   8.162   9.790  12.486
69408W        W28944  43.498  33.563  14.843
69409W        W28945  16.096  37.351   3.311
69410W        W28946   2.879  44.496   0.727
69411W        W28947  11.838  28.562   0.895
69412W        W28948  43.880  24.229   4.624
69413W        W28949   6.824  17.107  10.985
69414W        W28950  24.574  24.550  13.899
69415W        W28951  30.004  24.116  14.401
69416W        W28952  10.207  24.703   3.199
69417W        W28953  12.646  12.797  10.539
69418W        W28954  41.794  16.612  11.002
69419W        W28955  32.617   2.353   1.210
69420W        W28956  36.354  25.135   0.894
69421W        W28957  38.866  43.860  12.412
69422W        W28958  15.150  24.030   4.174
69423W        W28959  19.150  36.925  11.999
69424W        W28960  11.713   4.213  10.979
69425W        W28961  33.946  28.539  14.425
69426W        W28962  38.395  12.231  13.850
69427W        W28963  41.399  37.021  13.014
69428W        W28964  27.990  23.069  11.970
69429W        W28965  31.496   5.264  10.906
69430W        W28966  32.065  36.984   0.944
69431W        W28967  39.982  16.198   4.721
69432W        W28968  30.615   3.285   2.833
69433W        W28969   7.177  13.129  11.093
69434W        W28970  18.683  39.822   2.808
69435W        W28971  40.539  39.976   2.310
69436W        W28972  16.666  29.929  13.459
69437W        W28973   1.734   5.357  11.083
69438W        W28974  15.610  34.051  14.426
69439W        W28975  12.705   1.439  13.384
69440W        W28976  26.004  35.400   0.947
69441W        W28977  28.943  37.568  10.525
69442W        W28978  37.407  29.626   2.868
69443W        W28979  15.806  41.317  12.372
69444W        W28980  34.025  24.597  12.078
69445W        W28981  42.906  33.563   2.198
69446W        W28982  12.691  22.704  13.062
69447W        W28983   4.280  40.452   1.301
69448W        W28984   1.768  10.729   0.965
69449W        W28985  15.717   0.986  12.402
69450W        W28986  30.569  41.889  14.342
69451W        W28987  13.172  32.077  11.872
69452W        W28988  38.877  16.199  10.960
69453W        W28989  12.626  25.483   2.233
69454W        W28990  41.440  17.629  11.389
69455W        W28991  43.379  35.405  12.085
69456W        W28992   2.232  10.357   1.274
69457W        W28993  38.995  18.577   4.240
69458W        W28994  42.863  31.898   3.248
69459W        W28995  38.419  21.151   0.412
69460W        W28996  11.323  31.614  13.808
69461W        W28997  20.258  14.755   2.278
69462W        W28998   2.868  16.723   3.228
69463W        W28999   8.891   3.749   5.311
69464W        W29000  44.370  17.561   4.623
69465W        W29001  19.090  12.158   4.118
69466W        W29002  41.362  26.181   4.286
69467W        W29003   9.758  33.534   1.752
69468W        W29004  11.282  11.626  10.598
69469W        W29005  20.695   9.286   0.426
69470W        W29006  39.890  27.524  12.941
69471W        W29007  11.289  10.653   0.957
69472W        W29008   0.468  33.111  10.446
69473W        W29009  23.042  26.603   2.833
69474W        W29010   9.351  35.420   3.795
69475W        W29011  10.752  32.416  13.884
69476W        W29012   4.352   2.748   1.284
69477W        W29013   7.777  36.374   2.665
69478W        W29014  41.336  28.578  14.797
69479W        W29015   8.792  39.503  10.490
69480W        W29016  35.416  33.557  10.924
69481W        W29017  18.790  11.697  13.404
69482W        W29018  25.188  38.519   2.405
69483W        W29019  21.651  15.704   1.775
69484W        W29020  42.018   5.708   2.767
69485W        W29021  33.415  14.615  12.345
69486W        W29022  31.919  38.335  13.498
69487W        W29023  41.952   5.233  13.407
69488W        W29024  30.620  20.695   0.743
69489W        W29025  42.345  33.909  12.898
69490W        W29026   7.733  24.547   4.250
69491W        W29027  15.168  13.663   4.124
69492W        W29028   9.230  25.195   5.094
69493W        W29029  39.871  42.336  11.568
69494W        W29030   8.344  32.494  13.921
69495W        W29031  33.968  17.737  13.403
69496W        W29032  18.121  21.529   3.162
69497W        W29033  24.513  23.627  10.592
69498W        W29034  44.928   1.894   3.856
69499W        W29035  34.398  27.135  13.024
69500W        W29036  27.115   8.197   2.408
69501W        W29037  28.544  44.457  13.354
69502W        W29038  13.227  39.968  11.950
69503W        W29039   2.763  29.099   9.544
69504W        W29040  20.544  12.116   2.802
69505W        W29041  15.634  11.754   2.348
69506W        W29042   9.159   6.343  12.982
69507W        W29043  40.814  35.069   2.725
69508W        W29044  43.490  37.422   0.278
69509W        W29045  31.087   6.375   2.840
69510W        W29046  35.882  38.039  11.399
69511W        W29047  27.591  16.117  13.372
69512W        W29048   4.883  40.877  12.075
69513W        W29049  26.150  38.026   0.852
69514W        W29050  27.542  39.862  11.485
69515W        W29051  15.262   8.307  11.008
69516W        W29052  21.231  38.041  13.997
69517W        W29053  29.106   7.325  10.645
69518W        W29054   6.677   4.218   1.241
69519W        W29055  28.133  10.289  10.034
69520W        W29056  12.659   5.273  11.606
69521W        W29057  13.336   4.822  13.904
69522W        W29058  31.084  13.788  12.429
69523W        W29059  12.213  15.243  12.419
69524W        W29060  41.304  23.525  11.913
69525W        W29061   7.782  41.908   3.721
69526W        W29062  29.662   5.919   3.650
69527W        W29063  11.669  44.381  14.281
69528W        W29064  32.088  19.777  12.353
69529W        W29065   2.412  27.060  13.356
69530W        W29066  13.211  17.212   0.893
69531W        W29067  40.467  23.122  10.973
69532W        W29068  27.486  37.056   3.152
69533W        W29069   7.814  37.453  10.591
69534W        W29070  39.371  13.672   2.385
69535W        W29071   6.866  20.616   2.896
69536W        W29072  11.853   2.798  10.446
69537W        W29073  16.733   6.744   2.804
69538W        W29074  38.965  36.069   4.267
69539W        W29075  33.416  37.373   0.914
69540W        W29076   2.337  32.076  13.869
69541W        W29077  29.437  31.965   3.337
69542W        W29078  13.136   7.415   1.731
69543W        W29079  25.001  13.633   4.216
69544W        W29080  39.031  28.128   1.393
69545W        W29081  39.346   9.380   1.868
69546W        W29082   4.729  31.927   2.693
69547W        W29083  44.967  30.579  14.346
69548W        W29084  23.004   4.406   0.808
69549W        W29085  15.676   7.801   3.800
69550W        W29086  19.602  37.045   0.445
69551W        W29087  39.934  24.501   0.405
69552W        W29088   5.201  38.540  14.885
69553W        W29089  41.003  39.013  12.857
69554W        W29090   9.176  24.580   1.776
69555W        W29091  14.323  43.336  12.069
69556W        W29092   4.858   8.756  10.891
69557W        W29093  43.370  30.424   3.301
69558W        W29094  38.365  19.155   1.743
69559W        W29095  33.053   8.263  14.996
69560W        W29096  35.510  39.941   4.764
69561W        W29097   6.905  34.050  14.950
69562W        W29098   7.670   8.678  10.589
69563W        W29099   7.789  25.624  10.629
69564W        W29100   9.330  44.845   0.855
69565W        W29101  36.012  42.438   1.439
69566W        W29102  22.639  37.057  12.474
69567W        W29103  33.412   1.360   1.845
69568W        W29104  23.006  42.443  13.047
69569W        W29105  33.391   8.379   4.293
69570W        W29106  23.993  40.003  11.025
69571W        W29107   8.337  17.102   1.268
69572W        W29108  42.806  24.603   2.382
69573W        W29109  22.690  18.662  12.955
69574W        W29110  41.468  25.998   2.856
69575W        W29111  22.598  43.001  10.986
69576W        W29112  25.709   4.325   5.198
69577W        W29113  44.417  40.861   4.764
69578W        W29114   0.271  36.063   0.792
69579W        W29115  29.522  43.462  11.862
69580W        W29116   8.285  16.616   0.408
69581W        W29117   4.420  28.186  10.556
69582W        W29118   3.337   6.189   1.738
69583W        W29119  36.972  29.639   3.345
69584W        W29120   4.852  41.796  12.359
69585W        W29121   1.456  17.262   0.921
69586W        W29122  40.934   2.332   5.576
69587W        W29123   3.344  33.527   0.386
69588W        W29124  23.017  17.556   1.741
69589W        W29125  23.208  18.253   3.707
69590W        W29126  20.595  23.235   4.818
69591W        W29127  24.619   2.860  13.547
69592W        W29128  34.974  30.577  12.086
69593W        W29129  18.671  36.950  14.405
69594W        W29130  13.114  28.112   9.638
69595W        W29131  38.999   8.781   3.337
69596W        W29132   4.779  30.497   4.334
69597W        W29133   8.160  12.686  11.069
69598W        W29134   2.927   3.445   1.735
69599W        W29135   0.489   9.211   2.320
69600W        W29136  43.285  38.970  10.438
69601W        W29137   3.723  39.825  10.616
69602W        W29138  36.945  20.030   3.163
69603W        W29139  26.070   8.802   1.277
69604W        W29140  20.545   1.940  11.079
69605W        W29141   7.739   3.820   1.369
69606W        W29142  16.258   1.841   3.190
69607W        W29143   4.818   1.751   2.669
69608W        W29144  11.177  13.828   4.652
69609W        W29145  13.154   1.465   0.868
69610W        W29146  29.166  34.397   1.249
69611W        W29147  39.868  32.482  11.505
69612W        W29148  18.732  28.980   1.368
69613W        W29149  12.640  36.581  11.439
69614W        W29150  10.240   3.440  14.760
69615W        W29151   9.301  36.490   0.881
69616W        W29152  26.573   1.797  13.372
69617W        W29153   2.355  28.072   4.765
69618W        W29154  42.461   9.781  12.473
69619W        W29155   5.272  17.179  13.027
69620W        W29156  17.714  17.244   0.432
69621W        W29157  32.578  16.138  12.036
69622W        W29158   4.839  15.613  11.516
69623W        W29159  30.035  30.119   3.844
69624W        W29160  27.058  37.490  14.872
69625W        W29161  12.322   2.809   2.798
69626W        W29162  25.560  27.588   2.891
69627W        W29163   4.829  20.741  10.487
69628W        W29164  40.044   2.856  14.385
69629W        W29165  28.584  32.890   4.628
69630W        W29166  42.806  26.630   2.733
69631W        W29167  31.087  33.085   0.392
69632W        W29168  34.514  20.208   4.151
69633W        W29169  22.730  44.487  10.553
69634W        W29170   4.741  26.985  12.525
69635W        W29171  30.505   1.373  13.422
69636W        W29172  18.218  35.933  13.045
69637W        W29173   9.668  25.214  11.956
69638W        W29174  28.995  38.550  11.113
69639W        W29175   8.338  39.444  13.007
69640W        W29176  12.754  29.595   0.479
69641W        W29177  23.698  10.791  12.567
69642W        W29178  29.514  31.946   1.257
69643W        W29179  30.460  23.194   2.744
69644W        W29180  10.804  31.015   2.197
69645W        W29181  42.360  18.200   4.618
69646W        W29182  14.118  28.954  12.560
69647W        W29183  38.870  33.033  14.017
69648W        W29184  27.102  22.060   2.686
69649W        W29185  38.864  26.632   3.655
69650W        W29186  21.545   9.183   2.746
69651W        W29187  21.529  31.637  11.949
69652W        W29188  19.692  14.832   2.308
69653W        W29189  35.979  18.144   0.357
69654W        W29190  13.660  30.129  12.015
69655W        W29191  23.580   0.857   3.794
69656W        W29192  12.349   9.848  10.021
69657W        W29193  15.785  13.664  12.367
69658W        W29194  38.890  33.128   1.822
69659W        W29195  40.541  29.948   0.821
69660W        W29196  24.095  41.001  10.597
69661W        W29197  23.012  34.027   5.638
69662W        W29198   5.867  28.542  13.829
69663W        W29199  23.996  28.126  12.021
69664W        W29200  37.580  20.085   2.264
69665W        W29201  17.255  29.638   4.688
69666W        W29202  24.480  12.702   4.243
69667W        W29203  41.378  27.665   3.689
69668W        W29204  11.257  11.772   3.155
69669W        W29205  27.109  35.977   4.143
69670W        W29206  25.636   1.399  10.964
69671W        W29207  18.656  28.164  11.529
69672W        W29208  39.933  38.929  12.826
69673W        W29209  25.658  35.558  12.859
69674W        W29210  44.310  28.613  10.548
69675W        W29211   4.905  44.280   4.640
69676W        W29212  35.055  27.170   1.766
69677W        W29213   9.662  28.610   0.857
69678W        W29214  22.714  10.862   4.217
69679W        W29215   7.909  24.156   2.243
69680W        W29216   4.264  23.621  14.942
69681W        W29217  31.490  11.250   3.372
69682W        W29218  34.988  30.042   0.917
69683W        W29219  39.442  38.866   4.214
69684W        W29220  32.622  41.444   3.341
69685W        W29221   2.929  28.145   3.297
69686W        W29222  25.141  36.525  12.407
69687W        W29223  21.672  36.501   0.260
69688W        W29224  10.682  14.147   4.807
69689W        W29225  31.572   7.687   2.365
69690W        W29226  32.028  40.535  13.488
69691W        W29227  35.930   4.298   1.815
69692W        W29228  13.748  14.766  14.295
69693W        W29229  25.015  33.393   4.619
69694W        W29230   1.864  22.228   3.317
69695W        W29231  41.828  25.148   3.174
69696W        W29232  44.486  25.602  13.975
69697W        W29233   7.899  18.195  11.113
69698W        W29234  42.008  38.823  14.350
69699W        W29235  37.068  18.215  11.456
69700W        W29236   5.348  16.760  13.521
69701W        W29237  44.371  27.160   4.732
69702W        W29238  26.551   0.948   0.423
69703W        W29239  32.013  26.046  11.427
69704W        W29240  11.278  41.470  13.839
69705W        W29241  18.269   9.819  13.008
69706W        W29242  17.129  26.137   3.319
69707W        W29243  24.560   0.965  10.518
69708W        W29244  16.106  32.932   3.772
69709W        W29245  20.104  34.907  14.857
69710W        W29246  28.489  21.046   4.637
69711W        W29247   8.166  22.229   4.813
69712W        W29248   7.346  41.463  12.420
69713W        W29249  36.923   5.883   2.406
69714W        W29250  15.321   2.353   0.336
69715W        W29251  17.145  36.549  12.893
69716W        W29252  41.525  25.021  14.840
69717W        W29253   3.885  42.500  13.928
69718W        W29254  26.073  20.179   4.814
69719W        W29255  29.968  37.471  14.885
69720W        W29256  21.715  21.582   0.962
69721W        W29257   4.292  22.617   0.834
69722W        W29258  22.022  11.796   1.391
69723W        W29259  32.473  44.908   1.709
69724W        W29260  35.046  43.392   1.820
69725W        W29261  16.806  27.494   4.719
69726W        W29262  22.016   2.333   3.183
69727W        W29263  25.129  33.583   1.773
69728W        W29264   3.827  14.732  10.511
69729W        W29265  13.683  22.124  12.984
69730W        W29266  14.100  33.435   1.437
69731W        W29267  25.071  12.127  14.407
69732W        W29268   8.234  37.360  12.869
69733W        W29269  42.372  19.125   1.356
69734W        W29270  37.939   9.747   2.364
69735W        W29271  34.982  43.848   4.806
69736W        W29272  36.583  40.808   4.743
69737W        W29273  34.416  38.554  10.506
69738W        W29274  21.679  29.539  10.076
69739W        W29275  21.525  10.821  11.078
69740W        W29276  43.883  28.641   1.307
69741W        W29277  26.122   4.338   5.301
69742W        W29278  10.718  28.108   2.690
69743W        W29279  22.593  25.079  11.535
69744W        W29280  27.530  41.973  12.344
69745W        W29281  36.063   6.204  11.585
69746W        W29282  18.196   2.783   4.605
69747W        W29283  19.722  29.928   1.897
69748W        W29284   7.806  13.344  14.785
69749W        W29285  21.129   6.734   1.404
69750W        W29286  22.536  11.669  14.903
69751W        W29287   6.292   2.949   2.299
69752W        W29288  14.103  31.562  14.834
69753W        W29289  17.302  37.035   4.725
69754W        W29290  16.777   7.335  13.008
69755W        W29291  14.710   0.779   0.358
69756W        W29292  28.614  37.004   3.183
69757W        W29293   9.354  25.150  10.121
69758W        W29294  14.163  40.477  11.054
69759W        W29295  25.156  18.647  14.359
69760W        W29296  18.276  12.711  13.846
69761W        W29297  18.257   3.297   2.342
69762W        W29298  18.067   7.187  11.120
69763W        W29299   6.405  26.665  14.483
69764W        W29300  27.645  18.546  11.453
69765W        W29301  17.638   3.875   2.297
69766W        W29302  40.321  42.423  13.905
69767W        W29303  25.548  22.510  10.493
69768W        W29304   9.672  22.641  14.875
69769W        W29305   7.669  17.601  13.910
69770W        W29306   9.372  26.022  13.467
69771W        W29307  42.866  23.109  11.049
69772W        W29308   7.901   9.795   1.712
69773W        W29309  25.173   9.818  12.353
69774W        W29310   0.943   5.777   3.743
69775W        W29311  18.575  39.487   3.778
69776W        W29312  20.590   4.867  10.502
69777W        W29313  35.397  24.591   4.838
69778W        W29314  38.484  23.177  13.961
69779W        W29315  24.566  22.721   9.493
69780W        W29316  29.018  10.278  13.953
69781W        W29317  16.695  18.170  13.818
69782W        W29318  25.563   0.959   0.916
69783W        W29319  32.457  33.407   1.767
69784W        W29320   5.765  44.369  11.008
69785W        W29321  44.374  34.076   2.684
69786W        W29322   3.764  36.460  13.397
69787W        W29323  31.096  40.315   3.824
69788W        W29324   7.856  11.294   1.741
69789W        W29325  16.588   8.163  12.573
69790W        W29326  34.892  13.176  10.476
69791W        W29327  34.537  23.515  12.982
69792W        W29328   3.400   1.315  11.872
69793W        W29329   6.377  42.307   1.934
69794W        W29330  23.155  37.020  13.485
69795W        W29331  41.457   7.778   1.707
69796W        W29332  44.847  42.470  14.451
69797W        W29333  43.483  27.463  13.345
69798W        W29334  13.747   2.298   3.363
69799W        W29335  40.364  29.023  14.772
69800W        W29336   1.386  23.609   0.376
69801W        W29337  25.492   9.761   0.411
69802W        W29338   3.826  28.615   3.659
69803W        W29339  24.072  10.722   3.859
69804W        W29340  21.138   1.930  12.082
69805W        W29341  30.500  13.839  14.408
69806W        W29342  30.544  19.262   1.434
69807W        W29343  39.962  37.491   0.931
69808W        W29344  39.922  17.093  14.843
69809W        W29345   0.812  34.414  13.876
69810W        W29346  33.408   6.324  12.091
69811W        W29347   9.861  25.973   2.222
69812W        W29348  24.632  10.717  11.941
69813W        W29349  28.066  12.255   2.206
69814W        W29350  17.146   0.399   1.796
69815W        W29351  12.347  13.157  10.528
69816W        W29352   8.283  30.602   0.263
69817W        W29353  42.418  11.282  14.335
69818W        W29354  21.226  10.288   3.242
69819W        W29355  29.554  40.438   3.632
69820W        W29356  31.542  16.217  13.424
69821W        W29357  37.450  21.553   2.273
69822W        W29358  24.706  35.910   0.923
69823W        W29359  12.313   0.768  14.935
69824W        W29360  36.073  20.598  11.952
69825W        W29361  26.627  17.640   0.461
69826W        W29362  32.483   1.345   0.853
69827W        W29363  31.582  20.725   0.307
69828W        W29364  16.234  37.877  14.809
69829W        W29365  42.319  26.668  14.991
69830W        W29366  32.573  44.971   3.678
69831W        W29367   5.292   1.354   3.657
69832W        W29368  29.660  33.903  12.978
69833W        W29369  11.822  30.964  12.065
69834W        W29370  43.354  23.067  14.888
69835W        W29371  37.396  42.395  12.070
69836W        W29372   3.719  35.863   2.314
69837W        W29373  34.401  27.569   0.325
69838W        W29374  21.052  22.121   0.321
69839W        W29375  10.327  37.976   1.445
69840W        W29376  30.480   3.897   3.774
69841W        W29377  39.904  44.417   3.364
69842W        W29378   6.879  33.083  10.525
69843W        W29379   8.829  20.722  14.855
69844W        W29380  41.848  21.121   3.272
69845W        W29381  29.065  34.465  13.023
69846W        W29382  39.373  10.865   4.141
69847W        W29383   4.344  21.255   0.806
69848W        W29384  11.644  16.274   3.168
69849W        W29385   2.378  22.698   2.191
69850W        W29386  37.043  34.112  11.926
69851W        W29387  37.357  42.315  12.513
69852W        W29388  31.572  34.398  12.933
69853W        W29389  28.966  12.201   4.150
69854W        W29390  17.774  19.732  10.964
69855W        W29391  13.310  40.512   3.160
69856W        W29392   7.305  29.457  13.432
69857W        W29393   9.701  42.908  11.043
69858W        W29394  38.516   3.856  14.826
69859W        W29395  35.012   7.774   3.764
69860W        W29396  15.227  39.977   4.631
69861W        W29397   6.791  17.287   3.846
69862W        W29398   0.901  10.663  12.509
69863W        W29399  12.361  18.740  14.334
69864W        W29400   2.966  14.592   0.293
69865W        W29401   9.863  23.608   2.233
69866W        W29402   0.968  34.543   2.738
69867W        W29403  11.346  30.000   3.333
69868W        W29404  26.970   5.311  12.951
69869W        W29405   9.680   5.919   1.265
69870W        W29406  21.031  38.074  14.849
69871W        W29407  27.192  35.477   1.702
69872W        W29408  12.788  10.633  10.007
69873W        W29409  10.684  43.908  14.916
69874W        W29410  27.062  15.769   0.433
69875W        W29411   3.241  29.086  10.133
69876W        W29412  43.844  43.003  12.376
69877W        W29413  39.546   0.414   1.926
69878W        W29414  39.808   8.392  13.359
69879W        W29415  30.413   8.273   0.401
69880W        W29416  37.562  43.816   3.186
69881W        W29417   4.839  33.972   2.258
69882W        W29418  39.871  18.747  12.445
69883W        W29419  40.033  14.691   1.303
69884W        W29420  44.396  25.981  13.506
69885W        W29421  37.505   3.337  12.925
69886W        W29422  35.372  29.957  12.400
69887W        W29423  31.945   9.762  11.105
69888W        W29424   5.752   1.410  14.446
69889W        W29425  33.536  18.704  11.480
69890W        W29426  37.931  36.850  12.460
69891W        W29427  15.799   9.863  12.512
69892W        W29428  30.079   9.394  11.856
69893W        W29429  27.688   7.845  10.938
69894W        W29430  32.546   6.404  14.017
69895W        W29431  29.118   4.250   1.243
69896W        W29432  44.274   3.295  13.365
69897W        W29433  38.419  39.918   4.250
69898W        W29434  44.400  37.500  11.571
69899W        W29435  31.953  11.158   1.366
69900W        W29436  19.774  28.509   4.339
69901W        W29437  19.227  16.574   1.734
69902W        W29438  25.515  35.415  13.410
69903W        W29439  27.616  42.857   4.253
69904W        W29440  13.706  17.296   2.250
69905W        W29441  25.147   7.262   4.332
69906W        W29442  29.149  17.169  10.936
69907W        W29443  29.032  34.488   2.246
69908W        W29444  42.297  37.920   1.717
69909W        W29445  37.518  19.609  14.976
69910W        W29446  23.619  43.852  11.129
69911W        W29447  25.628  25.208   4.609
69912W        W29448   8.249  17.616   4.644
69913W        W29449  16.169   6.406  14.901
69914W        W29450  41.881  25.572  11.954
69915W        W29451  23.138  13.200  13.428
69916W        W29452  14.133  21.717   2.292
69917W        W29453  19.645  19.623  12.868
69918W        W29454  20.187   1.782  14.496
69919W        W29455  27.557  23.180  13.505
69920W        W29456  38.958  10.695  11.508
69921W        W29457   4.869  18.233  11.526
69922W        W29458  42.023   3.920  11.470
69923W        W29459  40.456  41.840   0.258
69924W        W29460   8.372  14.162  13.058
69925W        W29461  12.715  10.868   2.696
69926W        W29462  18.555   6.402  14.414
69927W        W29463   4.401  27.015  10.964
69928W        W29464  28.963   4.295   1.909
69929W        W29465  12.124  14.303  12.998
69930W        W29466   3.946   2.793   4.675
69931W        W29467  36.001  42.936  12.957
69932W        W29468  19.566  15.212  14.293
69933W        W29469   5.836  23.988  11.987
69934W        W29470  37.030  18.579   2.353
69935W        W29471  12.129  33.390   1.231
69936W        W29472  37.342  36.387  13.345
69937W        W29473  31.013  35.504   4.736
69938W        W29474   3.816  42.379  10.544
69939W        W29475  18.702  43.771   0.300
69940W        W29476  42.823  18.609   2.857
69941W        W29477  24.519   7.691   3.826
69942W        W29478  22.228  27.534  14.854
69943W        W29479  22.518   2.857  14.975
69944W        W29480  43.912  21.513   3.372
69945W        W29481  12.344  19.730  10.415
69946W        W29482  28.043  35.434   1.435
69947W        W29483  23.578  43.958  14.017
69948W        W29484  18.749  13.777  13.463
69949W        W29485  40.997  23.138  11.127
69950W        W29486  19.573   3.357   1.447
69951W        W29487  14.309  38.060  12.417
69952W        W29488  35.927  30.434   2.756
69953W        W29489  38.492  37.451   1.431
69954W        W29490  24.694  11.357   0.443
69955W        W29491  44.474   5.404  13.451
69956W        W29492  37.033  24.512  13.929
69957W        W29493   8.801  38.974   4.264
69958W        W29494  22.097   7.803   1.417
69959W        W29495  39.485   1.339  13.537
69960W        W29496  10.835  40.014  13.039
69961W        W29497   0.363   6.813  14.765
69962W        W29498   0.806   3.296   3.179
69963W        W29499  37.988  40.544  14.820
69964W        W29500  16.240  21.688  13.494
69965W        W29501   3.460  37.492   4.336
69966W        W29502   8.344  21.134   2.310
69967W        W29503  22.190  17.183   0.300
69968W        W29504  38.034  23.021  14.967
69969W        W29505   3.821  14.158  12.871
69970W        W29506  17.146   7.324  12.892
69971W        W29507  36.440   7.214   1.932
69972W        W29508  24.058  27.458   1.359
69973W        W29509  42.448  29.142   0.913
69974W        W29510  14.196  15.798  10.911
69975W        W29511   4.934  15.589   2.875
69976W        W29512   9.750  36.027  12.417
69977W        W29513  33.401  33.502  10.062
69978W        W29514  18.189  36.361  13.494
69979W        W29515   2.814  18.545  11.081
69980W        W29516  27.962  17.594  10.601
69981W        W29517  17.772  23.066   2.675
69982W        W29518  43.428  11.816   0.775
69983W        W29519  35.030  16.745   0.449
69984W        W29520   8.311  15.274  14.923
69985W        W29521  33.916  34.889   2.899
69986W        W29522  15.699  11.371  13.523
69987W        W29523  33.972  23.984   1.382
69988W        W29524  22.209   1.412  11.938
69989W        W29525  33.450  34.514  14.974
69990W        W29526  20.030  24.570   4.829
69991W        W29527   8.703  42.489  14.854
69992W        W29528  19.068  44.774   2.229
69993W        W29529  20.229   1.471   4.693
69994W        W29530   4.769  23.114   2.776
69995W        W29531  22.554  17.643   1.329
69996W        W29532  16.746  16.744  14.304
69997W        W29533   9.355  12.197  12.990
69998W        W29534  17.256  22.564   2.865
69999W        W29535  41.427  43.276  14.294
70000W        W29536   4.403  23.238  13.497
70001W        W29537   4.938  35.576  11.927
70002W        W29538  44.004   4.259   3.710
70003W        W29539  17.752  26.604  11.902
70004W        W29540  26.110  20.681  11.097
70005W        W29541  23.066   5.299  11.918
70006W        W29542  26.187  37.883  11.456
70007W        W29543  14.265  38.030   3.646
70008W        W29544  34.460  18.256  12.036
70009W        W29545   7.379  27.133   1.312
70010W        W29546   1.752   6.190   1.433
70011W        W29547  39.511  32.917   4.175
70012W        W29548  22.527  19.225   3.355
70013W        W29549  44.348   4.210   0.852
70014W        W29550  16.257   2.376  11.082
70015W        W29551   2.275   2.301   4.735
70016W        W29552  36.424  27.170  10.015
70017W        W29553  44.851  21.173  12.890
70018W        W29554   9.799  11.201  10.571
70019W        W29555   4.747  28.460  11.414
70020W        W29556  19.070  33.907   4.314
70021W        W29557  25.691  40.489  13.382
70022W        W29558   9.763   1.838   1.331
70023W        W29559   5.275  13.706  10.532
70024W        W29560  35.555  19.123  14.331
70025W        W29561  14.249  17.585   3.781
70026W        W29562   4.410  11.801  11.074
70027W        W29563  26.083  30.594   3.282
70028W        W29564  13.169  41.987   2.845
70029W        W29565  19.195  22.115   2.718
70030W        W29566  15.596   3.710   1.426
70031W        W29567  18.158  19.156  12.050
70032W        W29568  10.816   9.278   1.365
70033W        W29569  10.227  41.371  13.979
70034W        W29570   6.226   6.353  13.045
70035W        W29571  36.498  21.023  14.828
70036W        W29572   5.888   4.898   3.805
70037W        W29573  27.573  24.131  12.823
70038W        W29574  13.188  11.757  14.502
70039W        W29575  32.029  33.524   3.798
70040W        W29576   6.228   5.381  14.322
70041W        W29577   3.850  35.383  10.480
70042W        W29578  32.600  43.807  14.427
70043W        W29579  13.117  42.525  14.306
70044W        W29580  37.983  42.379  14.484
70045W        W29581  12.627  27.533  10.620
70046W        W29582  34.902  10.813  12.436
70047W        W29583  32.395  43.447  13.361
70048W        W29584  27.064   5.226  13.798
70049W        W29585  11.720   5.893   3.146
70050W        W29586   7.796  37.369  11.529
70051W        W29587  34.437   5.812  12.868
70052W        W29588  25.084  35.018  13.952
70053W        W29589  38.534  43.343  13.408
70054W        W29590  26.190  15.681  13.829
70055W        W29591  32.946  37.561   0.732
70056W        W29592   3.274   7.375  13.537
70057W        W29593  42.358  23.240   1.214
70058W        W29594  12.704  41.509  12.571
70059W        W29595  20.529  12.244  10.899
70060W        W29596  25.154  26.159   2.753
70061W        W29597  33.445  42.405   0.315
70062W        W29598   5.766  33.003  14.405
70063W        W29599  27.100  19.220  11.421
70064W        W29600  25.021  39.964  12.421
70065W        W29601   3.242  23.613  10.911
70066W        W29602  35.025  41.387  10.433
70067W        W29603  21.234   5.886  12.966
70068W        W29604  39.981  24.164   1.853
70069W        W29605  43.287  18.623   0.865
70070W        W29606  29.479  24.624   4.773
70071W        W29607  31.497  34.012  11.494
70072W        W29608  41.320  26.651   1.313
70073W        W29609   2.292  11.287   2.317
70074W        W29610  28.645  13.345  11.112
70075W        W29611   6.309  35.882   4.643
70076W        W29612   5.384  27.672  14.007
70077W        W29613   8.344  24.500  14.011
70078W        W29614  10.196  23.169   3.859
70079W        W29615  22.596  20.670   0.280
70080W        W29616   9.365   7.847   3.276
70081W        W29617  40.848  11.300   5.590
70082W        W29618  31.921  22.738   4.229
70083W        W29619  35.494  15.302   4.308
70084W        W29620   5.192  36.038  11.892
70085W        W29621  26.156   2.920   2.801
70086W        W29622  26.667  36.453  13.404
70087W        W29623  23.505  38.035   0.403
70088W        W29624  17.695  33.488  14.009
70089W        W29625   0.951  30.611  11.585
70090W        W29626  16.609  22.690  13.824
70091W        W29627  31.075  33.559  13.371
70092W        W29628  39.966  10.144  13.915
70093W        W29629   3.807   7.375  10.608
70094W        W29630   4.765  19.578  13.032
70095W        W29631  34.464  16.157   2.247
70096W        W29632  34.407  29.432   0.447
70097W        W29633  42.950  23.620  13.484
70098W        W29634  43.399  20.225  10.996
70099W        W29635  28.050  23.048  10.604
70100W        W29636  13.277  28.034  14.839
70101W        W29637  23.170  38.406  14.381
70102W        W29638  39.462  20.738   0.771
70103W        W29639  41.870  14.716   4.653
70104W        W29640  23.592  14.202   4.188
70105W        W29641  12.756  11.862  14.497
70106W        W29642  32.886   8.869   0.912
70107W        W29643  24.487  27.095   2.380
70108W        W29644   0.775  28.988   5.180
70109W        W29645  12.249  42.502  12.446
70110W        W29646   0.439  23.511   2.245
70111W        W29647  43.964  26.187   2.711
70112W        W29648  37.384  44.000   2.381
70113W        W29649  16.577  10.673  13.834
70114W        W29650  40.043  20.081   1.781
70115W        W29651   0.492   1.776   0.785
70116W        W29652  10.314  41.381  10.058
70117W        W29653  26.022  36.953   4.311
70118W        W29654  35.085  19.051  12.040
70119W        W29655  37.961  28.442   3.212
70120W        W29656  40.050  41.820  12.574
70121W        W29657  12.754   7.399  13.040
70122W        W29658  17.087   8.231   3.199
70123W        W29659  15.157  34.480  14.338
70124W        W29660  28.975  17.762  14.395
70125W        W29661  30.416  23.036  11.399
70126W        W29662  27.153  10.154  10.479
70127W        W29663  21.152  42.299   1.309
70128W        W29664   5.204  23.234  14.876
70129W        W29665  10.727  29.456  12.406
70130W        W29666  13.794  29.093   3.698
70131W        W29667  18.714  33.395  14.898
70132W        W29668   7.387  43.973  13.861
70133W        W29669  42.338  14.600   4.324
70134W        W29670  43.485  17.582   4.814
70135W        W29671  43.993  12.326  12.886
70136W        W29672  17.141  19.208  12.075
70137W        W29673  24.162  34.595   2.384
70138W        W29674   1.871   3.877   0.910
70139W        W29675   7.382   3.807  11.887
70140W        W29676  44.450  36.352  12.969
70141W        W29677  33.561  31.548   0.851
70142W        W29678  40.983  16.582   4.293
70143W        W29679  24.540  34.588   3.731
70144W        W29680  29.466  30.577  11.383
70145W        W29681  13.204  21.208  14.505
70146W        W29682  36.955  10.253   3.775
70147W        W29683   6.782  10.726   3.285
70148W        W29684  32.561   4.288   4.814
70149W        W29685  15.242  35.874  11.538
70150W        W29686  41.321  17.577   0.360
70151W        W29687  29.656   3.371   0.900
70152W        W29688  26.125  43.383   3.681
70153W        W29689  37.467   4.747   3.728
70154W        W29690   4.431   1.278  12.931
70155W        W29691  24.542  30.483   3.681
70156W        W29692   0.911   4.250   2.758
70157W        W29693   4.292  43.460  12.539
70158W        W29694  34.084  11.649   2.870
70159W        W29695   9.217   6.278  12.078
70160W        W29696  25.528   2.322  11.050
70161W        W29697  40.873  16.575   1.432
70162W        W29698  12.231  44.768   0.792
70163W        W29699  21.597  41.315  13.020
70164W        W29700  32.399  21.123   4.277
70165W        W29701   0.460  42.016   4.350
70166W        W29702  18.061  14.175   4.337
70167W        W29703   3.398  16.082   3.869
70168W        W29704  43.415  43.902  14.428
70169W        W29705   1.364  39.971   3.302
70170W        W29706  27.126  36.433  10.887
70171W        W29707  34.491  39.349   4.735
70172W        W29708  27.462  30.611  14.491
70173W        W29709  13.818  22.035   0.455
70174W        W29710  25.981  36.968   5.143
70175W        W29711   9.289  35.022  14.971
70176W        W29712  36.058  19.111  13.876
70177W        W29713  15.136  13.664  14.897
70178W        W29714   4.737   5.268  10.915
70179W        W29715   4.448  42.477   2.705
70180W        W29716  42.307   5.339   1.420
70181W        W29717  31.552   3.436   0.958
70182W        W29718  30.156  31.410   2.329
70183W        W29719   5.319  13.782   1.870
70184W        W29720  25.197  44.899   3.692
70185W        W29721   3.824   6.425  13.312
70186W        W29722  30.143  34.448  12.869
70187W        W29723   8.220   0.354  13.313
70188W        W29724  22.228  40.348  14.474
70189W        W29725  40.813  20.763  12.553
70190W        W29726  24.523  41.810   4.674
70191W        W29727  10.849   0.893  12.014
70192W        W29728  20.539  38.050  11.586
70193W        W29729  42.800   9.152  13.974
70194W        W29730  42.873  32.536  10.947
70195W        W29731  15.210  29.108   2.408
70196W        W29732  15.218  32.013   0.867
70197W        W29733  29.622  42.454   4.159
70198W        W29734  22.098   3.916  13.455
70199W        W29735   1.274  28.170  11.447
70200W        W29736  42.875  19.719   4.746
70201W        W29737   3.272  15.091   2.787
70202W        W29738  11.297  32.961  11.900
70203W        W29739  37.851  21.199   2.403
70204W        W29740  22.633  15.667  11.565
70205W        W29741  26.554  29.110  14.787
70206W        W29742  12.676  14.267  12.830
70207W        W29743  27.017  41.856   3.676
70208W        W29744  12.845  23.233  13.012
70209W        W29745  12.764  31.127   2.190
70210W        W29746  32.449  41.355  11.408
70211W        W29747  22.140  17.716   5.148
70212W        W29748  29.645  16.232   3.863
70213W        W29749   1.414   8.406  11.008
70214W        W29750  43.444   7.844  14.805
70215W        W29751  21.645   0.748  10.944
70216W        W29752   2.814   6.262  12.520
70217W        W29753  20.614  20.589  14.030
70218W        W29754  10.353  15.599  14.372
70219W        W29755  28.043   3.426   0.306
70220W        W29756  26.681  21.554  14.945
70221W        W29757   0.801  33.968   0.466
70222W        W29758  42.375  43.900  12.058
70223W        W29759  22.641  31.570  11.946
70224W        W29760  30.952  23.666   2.903
70225W        W29761  44.984  35.600   0.350
70226W        W29762  19.544  16.135  14.763
70227W        W29763  33.394  23.046   3.765
70228W        W29764  20.755  36.072  12.080
70229W        W29765   3.450  32.988   3.665
70230W        W29766  34.613  42.427  14.772
70231W        W29767  43.448  39.927   2.409
70232W        W29768  12.152  32.990  12.032
70233W        W29769  37.581   3.415   0.916
70234W        W29770   7.396  35.603   2.292
70235W        W29771  14.711  14.339  13.807
70236W        W29772  14.329  11.637  13.837
70237W        W29773  20.732  15.583  11.868
70238W        W29774  20.137  13.652   4.801
70239W        W29775  38.432   8.841  11.509
70240W        W29776  16.181  29.166   1.771
70241W        W29777  21.106  14.822  10.995
70242W        W29778  14.775  35.890   4.330
70243W        W29779   6.833   7.340   4.325
70244W        W29780   7.701  43.016  13.969
70245W        W29781  19.639  39.002   4.142
70246W        W29782  22.673  26.048  14.450
70247W        W29783  12.322  24.655   3.631
70248W        W29784  31.064   8.197   4.662
70249W        W29785  25.573   1.391   0.422
70250W        W29786   8.772  26.700  13.392
70251W        W29787  23.012  40.927  13.984
70252W        W29788  35.577  20.662  10.542
70253W        W29789   0.325  24.612   0.750
70254W        W29790   6.183  19.723   2.754
70255W        W29791  43.474   3.927  10.926
70256W        W29792   8.201  30.415  13.845
70257W        W29793  12.678  17.599  12.507
70258W        W29794  18.160  32.994   2.684
70259W        W29795  20.735  10.697   1.883
70260W        W29796   2.309  36.421  10.410
70261W        W29797  31.511  39.372  14.823
70262W        W29798  17.302  17.097   2.235
70263W        W29799  40.887  23.712   3.840
70264W        W29800  42.361  11.645   0.767
70265W        W29801   2.389  21.117   4.229
70266W        W29802  16.686   7.871   0.860
70267W        W29803  24.555  44.765  10.469
70268W        W29804  43.273   8.888  10.935
70269W        W29805   3.737   2.932   0.783
70270W        W29806  32.450  36.874  12.920
70271W        W29807  20.646  15.746  10.568
70272W        W29808   1.256  44.277  14.354
70273W        W29809   5.405   1.837   0.433
70274W        W29810  41.915  39.354  14.368
70275W        W29811  11.732  44.878  13.946
70276W        W29812  31.044  30.006   3.638
70277W        W29813   9.872  35.412   0.360
70278W        W29814  37.351   4.426   3.206
70279W        W29815  36.959   6.860  13.907
70280W        W29816  33.590   2.339  12.024
70281W        W29817  34.442   6.287   1.378
70282W        W29818  27.584  11.142   3.821
70283W        W29819  41.532  15.183   2.209
70284W        W29820  11.813  42.446  11.122
70285W        W29821  24.213  34.044  14.863
70286W        W29822  11.341   5.820   4.817
70287W        W29823  32.506  29.456   4.600
70288W        W29824  17.125  15.664  10.593
70289W        W29825  43.317   5.771   4.346
70290W        W29826  42.944   1.258   1.716
70291W        W29827  16.631   7.201   0.795
70292W        W29828  11.316  17.685   0.376
70293W        W29829  25.701  19.218  11.586
70294W        W29830  33.432  36.419   9.992
70295W        W29831   3.770   4.865   0.873
70296W        W29832  42.428  15.096   0.360
70297W        W29833   7.210  28.557   0.280
70298W        W29834  43.994  33.452  12.909
70299W        W29835  28.458   1.411   1.766
70300W        W29836  12.189  40.023  12.030
70301W        W29837  14.109   5.710  12.449
70302W        W29838  17.656  34.114  11.006
70303W        W29839  36.432  20.108   1.417
70304W        W29840  36.892  30.148  13.531
70305W        W29841  20.159  19.692  10.972
70306W        W29842  38.557   4.252   2.838
70307W        W29843  23.101  39.043   1.221
70308W        W29844  38.055   8.717   5.147
70309W        W29845  12.155  36.046   2.248
70310W        W29846  11.220  41.397   4.133
70311W        W29847  22.223  24.539  11.948
70312W        W29848  44.893  24.723  10.436
70313W        W29849   3.809   5.782   3.332
70314W        W29850  20.062  20.530  13.403
70315W        W29851   5.772  28.555   5.661
70316W        W29852  19.681  31.983   4.813
70317W        W29853   7.404   4.285   2.367
70318W        W29854   1.295  25.024   3.193
70319W        W29855  29.126  15.156  14.886
70320W        W29856  28.028  29.642  13.852
70321W        W29857  42.027  20.644   4.712
70322W        W29858  19.058   2.782  13.979
70323W        W29859   1.266  32.972  12.011
70324W        W29860  10.641   3.311   2.668
70325W        W29861  28.570   8.712  10.542
70326W        W29862  41.010  19.067   0.848
70327W        W29863  39.916  15.768  12.518
70328W        W29864  32.445  39.948   3.703
70329W        W29865  10.309   1.424   1.748
70330W        W29866  41.466  17.727  10.456
70331W        W29867  18.145  18.157   4.277
70332W        W29868  41.292  21.233  11.065
70333W        W29869  44.847  34.020  11.062
70334W        W29870  41.383  40.968  10.507
70335W        W29871   3.943  23.510   3.643
70336W        W29872  20.042   1.860   4.713
70337W        W29873  34.542   5.922  14.939
70338W        W29874  27.537  31.984   2.293
70339W        W29875  12.771  27.189   4.258
70340W        W29876  28.056   1.450   0.418
70341W        W29877  41.815  39.518  14.791
70342W        W29878  27.173  40.014  10.919
70343W        W29879  43.381  40.432   4.713
70344W        W29880  18.203   7.402   4.823
70345W        W29881  25.622  44.432   3.333
70346W        W29882  31.981  37.492   1.734
70347W        W29883  34.955   6.405  10.583
70348W        W29884  26.495  26.622  12.012
70349W        W29885  36.550  26.621  10.038
70350W        W29886  24.683  13.652  11.880
70351W        W29887  40.891  21.519  13.060
70352W        W29888  19.630   6.849   2.321
70353W        W29889  35.573  34.023  13.906
70354W        W29890  13.621  11.845  13.470
70355W        W29891  27.542  42.308   1.236
70356W        W29892  22.673  24.712   1.335
70357W        W29893  24.224  35.932   0.834
70358W        W29894  26.169  19.184   2.346
70359W        W29895  29.026  34.561   4.811
70360W        W29896  15.146  42.912   0.898
70361W        W29897  36.896  40.005  11.105
70362W        W29898  27.450   6.197  13.414
70363W        W29899  32.107  22.673   3.659
70364W        W29900   9.830   4.317  11.612
70365W        W29901   7.763  42.936   2.861
70366W        W29902  44.430  18.162  11.097
70367W        W29903  25.101  33.118  13.467
70368W        W29904  31.487  12.204  11.449
70369W        W29905  18.284  33.500  10.419
70370W        W29906  21.176   3.372  11.054
70371W        W29907  31.490   5.361   4.215
70372W        W29908  32.091  14.166  14.932
70373W        W29909  38.452  44.877  12.059
70374W        W29910  34.042   3.352   4.699
70375W        W29911  38.906   6.208  11.069
70376W        W29912   2.776   3.329   3.263
70377W        W29913  17.733  44.860  13.437
70378W        W29914  41.421  19.689  12.354
70379W        W29915   9.758  31.028  10.645
70380W        W29916  33.962   7.364   3.698
70381W        W29917  15.093  16.590  10.453
70382W        W29918   1.971  12.269   0.768
70383W        W29919  13.625  30.516   2.290
70384W        W29920  23.085   4.801   3.684
70385W        W29921  43.915   4.245   1.835
70386W        W29922  25.656  31.463   3.165
70387W        W29923   6.894  38.014   3.295
70388W        W29924  16.680  28.547   3.683
70389W        W29925  26.560  28.173   0.737
70390W        W29926  42.503  24.638  13.532
70391W        W29927   4.903  40.476  12.028
70392W        W29928  34.029  15.283  10.497
70393W        W29929  18.086  34.580   0.847
70394W        W29930  18.198   6.215  14.471
70395W        W29931  24.123  12.713  13.925
70396W        W29932  32.568  28.169   4.837
70397W        W29933  41.440  32.474   3.827
70398W        W29934   2.383  44.454   5.129
70399W        W29935  19.673  35.028  11.858
70400W        W29936  11.707  12.686   1.736
70401W        W29937  15.638  39.917   0.314
70402W        W29938  38.960  19.205   3.707
70403W        W29939   8.718   0.923  14.917
70404W        W29940  41.840  37.443  12.038
70405W        W29941  37.558  41.334   1.226
70406W        W29942   1.397  25.992   0.949
70407W        W29943  15.787  44.286  14.946
70408W        W29944   6.862   0.812   0.425
70409W        W29945  28.976  42.466  12.063
70410W        W29946  35.962   9.392   3.764
70411W        W29947  20.638  24.525  13.057
70412W        W29948  44.897  10.794   5.255
70413W        W29949  32.106  31.491  13.336
70414W        W29950   8.244   9.800   3.199
70415W        W29951   9.311  11.367  10.412
70416W        W29952   9.818  39.403   4.612
70417W        W29953   4.835  31.622  13.855
70418W        W29954   5.732  42.022   2.861
70419W        W29955   8.669  28.149  13.944
70420W        W29956  27.621  21.750  12.410
70421W        W29957  41.527  25.560   4.602
70422W        W29958  23.736  17.254  11.099
70423W        W29959  35.876  32.483   0.365
70424W        W29960  26.513  12.236  13.316
70425W        W29961   9.850  36.853  13.979
70426W        W29962  11.621   9.275  10.139
70427W        W29963   9.643   7.288  13.312
70428W        W29964  16.205  32.445  12.366
70429W        W29965   9.240  23.165  12.341
70430W        W29966  25.972  35.390  11.569
70431W        W29967  10.695   8.307   1.213
70432W        W29968  30.998   8.357  11.100
70433W        W29969  11.845  38.067   4.683
70434W        W29970  30.954  41.989  12.952
70435W        W29971  44.490  38.010  13.479
70436W        W29972   9.391  23.200   0.319
70437W        W29973   4.735  21.220  14.966
70438W        W29974   2.277  23.518   0.846
70439W        W29975  29.086  21.726   4.211
70440W        W29976   0.755  34.390  11.870
70441W        W29977   0.879  28.547  13.369
70442W        W29978  13.110  16.075   4.666
70443W        W29979  21.526  35.532  13.505
70444W        W29980  13.243  24.592   1.286
70445W        W29981  20.558  28.164   0.467
70446W        W29982   3.416  37.879   0.771
70447W        W29983  15.225  26.990   3.334
70448W        W29984  11.261  40.850   4.752
70449W        W29985  33.038  10.342  12.466
70450W        W29986  17.218  25.105  13.988
70451W        W29987  26.546  14.807   1.828
70452W        W29988  27.647  33.024  12.436
70453W        W29989  15.648  31.554  10.942
70454W        W29990  41.883  38.519   3.184
70455W        W29991   9.301   6.255  13.910
70456W        W29992  14.652  18.231  13.310
70457W        W29993  21.736  30.517   1.780
70458W        W29994  42.317  44.465   3.312
70459W        W29995  33.937  36.993  14.370
70460W        W29996  28.590   4.751   1.841
70461W        W29997  22.159   1.880   4.719
70462W        W29998  22.233  12.798  14.399
70463W        W29999   5.830   8.750  13.467
70464W        W30000  27.653  30.596  10.430
70465W        W30001  19.773  13.326  10.407
70466W        W30002  34.938  34.005  12.538
70467W        W30003   5.210   7.829   4.813
70468W        W30004  22.241  27.120   3.211
70469W        W30005  15.591   8.732   0.460
70470W        W30006  28.542  42.972   2.745
70471W        W30007  20.097  32.403  12.933
70472W        W30008  44.008   2.316   4.776
70473W        W30009  18.282  31.513  12.473
70474W        W30010  37.518   8.222  14.388
70475W        W30011  41.373  22.157  10.525
70476W        W30012   8.344  27.529   4.650
70477W        W30013  15.643   8.657   4.726
70478W        W30014  34.110  27.691   0.873
70479W        W30015  13.657  18.638   2.795
70480W        W30016  18.222  41.535  12.001
70481W        W30017  12.192  33.598  14.346
70482W        W30018  44.965   3.935  10.625
70483W        W30019   1.787  39.900  11.432
70484W        W30020   5.210  29.599  11.923
70485W        W30021  44.915  18.739   0.854
70486W        W30022   7.350  25.010  14.911
70487W        W30023  44.997   3.861   3.357
70488W        W30024  28.972  23.536   1.382
70489W        W30025  21.627  10.705  14.397
70490W        W30026   3.762   0.483  12.436
70491W        W30027   3.235   4.448  11.977
70492W        W30028   3.922  10.303  12.428
70493W        W30029   5.378  28.552   1.339
70494W        W30030  34.076  17.102   1.709
70495W        W30031  40.503  35.548   0.371
70496W        W30032  25.026   8.235  13.315
70497W        W30033  23.540  30.659   5.171
70498W        W30034  19.754   2.466   3.177
70499W        W30035  39.828   5.807  14.390
70500W        W30036  39.907  35.862  10.549
70501W        W30037  26.121   8.239   1.710
70502W        W30038  44.503  27.558  12.857
70503W        W30039  37.534  28.641  12.893
70504W        W30040  28.650  29.592   4.176
70505W        W30041  36.532   1.978   3.183
70506W        W30042  15.649  15.767   1.916
70507W        W30043  40.490   2.470  10.007
70508W        W30044   9.770   1.359  12.933
70509W        W30045  32.030   4.227  10.938
70510W        W30046  34.885  30.954   1.843
70511W        W30047   9.384   5.199  12.579
70512W        W30048  40.460  24.667   0.450
70513W        W30049  14.763  35.410   2.776
70514W        W30050  38.452  13.184  10.449
70515W        W30051   9.322  20.576   0.888
70516W        W30052  18.274  12.356  14.764
70517W        W30053  26.182  13.813  12.360
70518W        W30054   8.390   2.925  12.887
70519W        W30055  21.526  27.536   3.683
70520W        W30056  31.402  38.023   2.845
70521W        W30057   9.333  34.026   0.448
70522W        W30058   4.799  31.645  10.976
70523W        W30059  39.376  27.459  13.415
70524W        W30060   5.771   7.730  13.930
70525W        W30061  26.675  15.317  11.399
70526W        W30062  25.117  16.754  13.930
70527W        W30063   2.309   0.351  10.423
70528W        W30064  43.394  40.458  12.433
70529W        W30065  40.828   8.372  12.561
70530W        W30066   7.814  17.061   2.763
70531W        W30067   9.737  34.975  10.968
70532W        W30068  31.915  22.642  11.009
70533W        W30069   2.892   1.341  12.510
70534W        W30070   6.206  24.052   3.852
70535W        W30071   5.723   8.686   3.730
70536W        W30072  44.942  12.715   2.389
70537W        W30073  14.801   5.291  12.572
70538W        W30074  39.011  11.315  10.558
70539W        W30075  23.065  33.379   3.697
70540W        W30076  19.547  19.138   0.381
70541W        W30077   1.430  20.756   2.265
70542W        W30078   7.341   2.357  11.537
70543W        W30079   6.749  13.137   0.733
70544W        W30080   0.771   5.318  10.636
70545W        W30081  17.739   1.823   4.658
70546W        W30082  28.110  10.178   0.362
70547W        W30083  13.600   8.716   3.855
70548W        W30084  18.708   1.941   1.222
70549W        W30085   6.883  41.797   2.185
70550W        W30086  44.804  41.918  13.402
70551W        W30087  20.111  14.321   3.707
70552W        W30088   8.697  14.682   3.807
70553W        W30089  34.952   0.831  13.927
70554W        W30090  13.707   0.488   1.319
70555W        W30091  38.398  29.988   0.343
70556W        W30092  13.192  16.104  12.508
70557W        W30093  22.120  44.958   4.194
70558W        W30094  44.348  44.802  13.893
70559W        W30095  33.610   1.375   3.187
70560W        W30096  37.922  40.811   4.637
70561W        W30097   4.355  21.018   0.312
70562W        W30098  23.628  13.794  13.991
70563W        W30099  32.429  25.994   2.270
70564W        W30100  15.732   5.843  11.936
70565W        W30101  29.939  16.232  10.588
70566W        W30102  30.560  37.415   2.377
70567W        W30103  42.392  23.615   0.871
70568W        W30104  27.544  34.508   4.219
70569W        W30105  42.302  19.182  11.958
70570W        W30106  12.254  35.446  11.594
70571W        W30107  29.921   3.245  13.390
70572W        W30108   7.891   6.368   2.762
70573W        W30109  43.407  13.685  12.986
70574W        W30110  29.589  21.026   4.618
70575W        W30111  19.722  21.642   1.816
70576W        W30112   4.836   2.856   3.214
70577W        W30113  20.162   0.835   2.693
70578W        W30114  20.180  17.772   3.248
70579W        W30115  42.870   2.946   0.397
70580W        W30116  23.153  20.104   3.646
70581W        W30117  22.225  33.609  12.001
70582W        W30118  10.735  36.366  14.465
70583W        W30119   1.243  20.569  11.866
70584W        W30120  13.341  18.733   1.910
70585W        W30121  17.670  21.697  11.500
70586W        W30122  36.929  12.771  11.035
70587W        W30123  44.466  12.348  13.513
70588W        W30124   0.892   9.680   0.338
70589W        W30125   3.443   6.866   3.829
70590W        W30126  11.218  18.118  11.431
70591W        W30127  27.608  42.499  13.976
70592W        W30128  22.038  22.561   0.478
70593W        W30129   4.309  33.991  14.810
70594W        W30130  33.048   4.761   2.867
70595W        W30131   8.193  25.094  13.913
70596W        W30132  31.623  13.338  11.857
70597W        W30133  43.909  18.127   1.217
70598W        W30134  21.716  26.499   1.346
70599W        W30135  28.944   1.396   3.225
70600W        W30136  34.929  26.072   9.937
70601W        W30137  44.788  33.504   1.915
70602W        W30138  31.019  17.236   1.232
70603W        W30139  21.148  38.819  11.427
70604W        W30140  29.139  23.138  12.072
70605W        W30141  40.984  10.649   1.228
70606W        W30142  33.429  11.216  12.981
70607W        W30143  21.027   3.267   4.736
70608W        W30144  31.084  25.600  11.965
70609W        W30145  44.008  43.856   0.763
70610W        W30146  37.409   3.854   2.742
70611W        W30147  29.959  12.745  13.061
70612W        W30148  31.079  34.480  13.958
70613W        W30149  44.292  42.434  10.486
70614W        W30150  43.902  32.132   1.819
70615W        W30151   6.326   6.896  13.411
70616W        W30152   1.850   0.811   0.791
70617W        W30153   4.941   0.981   1.727
70618W        W30154  40.840  27.495   1.394
70619W        W30155  17.086  15.132  12.870
70620W        W30156  34.917  15.087   0.945
70621W        W30157  13.256   4.318  13.385
70622W        W30158   4.875  26.680  14.814
70623W        W30159   7.693  19.249   1.245
70624W        W30160  16.792  42.016  12.557
70625W        W30161  36.412  11.206  13.442
70626W        W30162  29.029   6.729  11.413
70627W        W30163   2.903  22.676  13.371
70628W        W30164   1.426  14.698  14.001
70629W        W30165  41.434  40.363   3.167
70630W        W30166   3.293   5.896  11.943
70631W        W30167  44.005  26.497   4.327
70632W        W30168  14.205   9.330   4.763
70633W        W30169  36.398  27.087  14.486
70634W        W30170  34.006  26.615   0.336
70635W        W30171  33.382  11.758   3.649
70636W        W30172  31.918  27.512   4.127
70637W        W30173  39.916   3.820  10.407
70638W        W30174  12.714   6.691   0.792
70639W        W30175  25.092  26.508   1.694
70640W        W30176  15.292  21.044   3.693
70641W        W30177   1.283  10.674  11.400
70642W        W30178  33.877  27.157  13.809
70643W        W30179   0.987   2.454   1.393
70644W        W30180  33.080  13.810  11.973
70645W        W30181  11.738   1.825  13.324
70646W        W30182   3.806  24.037   2.338
70647W        W30183  14.823  23.134  10.491
70648W        W30184  20.229  10.846  14.813
70649W        W30185  31.967  14.215   4.241
70650W        W30186  43.336   7.287  13.932
70651W        W30187  10.205  34.998  13.408
70652W        W30188  31.050  42.912   2.726
70653W        W30189  26.538   3.793   2.248
70654W        W30190  21.571  28.442  12.024
70655W        W30191  22.072  20.544  12.864
70656W        W30192   1.403  15.227  13.508
70657W        W30193  14.180  29.965   2.234
70658W        W30194  29.593  44.290   1.415
70659W        W30195  30.153  19.114  11.422
70660W        W30196  41.412  33.499   2.877
70661W        W30197  20.688  10.374   0.953
70662W        W30198   4.216  38.426  10.611
70663W        W30199   6.704   1.378   3.258
70664W        W30200  42.816  35.358   4.178
70665W        W30201  32.425  42.299   1.398
70666W        W30202  30.000  20.697  12.362
70667W        W30203   1.421  10.323   1.844
70668W        W30204  23.097  17.764  11.002
70669W        W30205  20.073  33.876  13.496
70670W        W30206  10.828   4.884  11.119
70671W        W30207  31.095  18.653  13.408
70672W        W30208  35.502  29.467   2.407
70673W        W30209  33.979   1.889  11.991
70674W        W30210   3.355  11.660  12.431
70675W        W30211  33.945  11.762  13.390
70676W        W30212  43.321  12.326   3.685
70677W        W30213  26.614  28.110  14.282
70678W        W30214  35.499  30.088  13.058
70679W        W30215   7.840  31.058   4.144
70680W        W30216  21.139  23.495   2.323
70681W        W30217  20.566   0.941  13.978
70682W        W30218   8.721  29.971   2.813
70683W        W30219  11.178  29.579   2.295
70684W        W30220  40.803   3.381  14.466
70685W        W30221  13.605  14.244   0.825
70686W        W30222   3.768  42.800  14.437
70687W        W30223  41.023  31.934  14.015
70688W        W30224  24.488   5.348   1.411
70689W        W30225  25.098  17.719   1.227
70690W        W30226  20.720   4.224  11.559
70691W        W30227  32.040  32.103   2.322
70692W        W30228  27.508  12.309  13.999
70693W        W30229  24.214  12.216   0.903
70694W        W30230   1.906   7.403   3.161
70695W        W30231  26.164  31.062  12.426
70696W        W30232  36.508  17.240  11.405
70697W        W30233   3.725  34.899   3.283
70698W        W30234  13.275  27.974   1.304
70699W        W30235  44.409  34.535  11.955
70700W        W30236  18.596  34.069  12.054
70701W        W30237  41.353  38.985  12.556
70702W        W30238  32.068  26.132   3.756
70703W        W30239  29.139  13.704   0.917
70704W        W30240  29.099   0.255  12.928
70705W        W30241  32.070  21.233   0.912
70706W        W30242  41.483   9.674  10.512
70707W        W30243  23.198  16.300   4.184
70708W        W30244  19.598  16.619  12.933
70709W        W30245  32.420  17.577   4.146
70710W        W30246  35.016  34.514   3.643
70711W        W30247   1.861  32.399   0.297
70712W        W30248  15.798  41.928  13.387
70713W        W30249   0.409  31.931   0.811
70714W        W30250  21.659  37.579  13.046
70715W        W30251  28.147  28.967   0.806
70716W        W30252  14.332   7.341   2.731
70717W        W30253  12.717  44.756   2.751
70718W        W30254  37.837   9.771  12.036
70719W        W30255  10.673  24.127   3.219
70720W        W30256  16.274  25.687   2.785
70721W        W30257  44.481  18.747   2.236
70722W        W30258  30.914  14.224  10.460
70723W        W30259   3.744   5.319  11.394
70724W        W30260  37.857  35.985  10.573
70725W        W30261  10.820   0.279  12.893
70726W        W30262   7.720  30.103  13.375
70727W        W30263  36.405   3.842   3.383
70728W        W30264  44.780  32.470  11.054
70729W        W30265   2.370  19.145  14.801
70730W        W30266  40.472  41.990  12.345
70731W        W30267  17.756  38.047   3.320
70732W        W30268  43.922  13.652  10.035
70733W        W30269  27.478  30.531   3.325
70734W        W30270   8.343   8.219  11.997
70735W        W30271   1.461  30.163   2.834
70736W        W30272  27.978  15.189  11.992
70737W        W30273  38.051  17.626   4.221
70738W        W30274  41.437  42.317   0.284
70739W        W30275  20.158  28.124   1.301
70740W        W30276  36.962  41.404   3.748
70741W        W30277  11.252  38.329  12.526
70742W        W30278  44.417  16.237   3.801
70743W        W30279  33.557  19.265  10.483
70744W        W30280  16.690  42.441  12.005
70745W        W30281  15.658  23.718  12.024
70746W        W30282  36.551   7.315  12.929
70747W        W30283  17.676  17.672   3.362
70748W        W30284  43.009  15.152  10.933
70749W        W30285   9.723  40.926  10.502
70750W        W30286  15.625  18.130  12.910
70751W        W30287  18.583   1.238   2.875
70752W        W30288   0.465  36.494  13.399
70753W        W30289  12.764  14.632   1.221
70754W        W30290   5.712  31.112   3.648
70755W        W30291  17.168   3.406   2.677
70756W        W30292  36.554  42.330  10.975
70757W        W30293  12.619  25.470  11.532
70758W        W30294  31.556  22.148   2.885
70759W        W30295  16.782   8.771   2.755
70760W        W30296  23.100  26.462   1.742
70761W        W30297  19.095  33.905   2.668
70762W        W30298  40.318  39.469  13.028
70763W        W30299  15.225   4.284  10.992
70764W        W30300   8.794   3.281  11.115
70765W        W30301  24.618  14.175   1.279
70766W        W30302  38.983  25.123  11.490
70767W        W30303   5.925   1.853  14.774
70768W        W30304  28.983  15.089   4.739
70769W        W30305  21.554   5.320  14.341
70770W        W30306  40.977  22.188  11.400
70771W        W30307  27.626  30.452  12.580
70772W        W30308  33.009  31.647   3.665
70773W        W30309   3.394   7.844   1.751
70774W        W30310   8.812  34.457   1.894
70775W        W30311  22.503  16.086  12.915
70776W        W30312  18.146  39.945  11.899
70777W        W30313  11.686  44.263  13.492
70778W        W30314  19.668  13.815   2.187
70779W        W30315  37.563   4.709   4.120
70780W        W30316  21.059   1.819  11.570
70781W        W30317  19.699  34.588   2.321
70782W        W30318  21.050   3.814  11.460
70783W        W30319  32.509  30.631  14.903
70784W        W30320   0.453   1.759   3.159
70785W        W30321  22.706  35.887   3.344
70786W        W30322  19.565  43.886   2.402
70787W        W30323   6.901  16.716  13.417
70788W        W30324  10.194   1.458   1.411
70789W        W30325  23.072  36.572  14.910
70790W        W30326  37.032   9.265   4.119
70791W        W30327  30.424  11.838   4.640
70792W        W30328  41.036   0.444  14.479
70793W        W30329  44.983  33.054  10.583
70794W        W30330  33.093   8.356   4.248
70795W        W30331  37.994  31.908  12.455
70796W        W30332   8.382  27.646   0.956
70797W        W30333  32.888   5.879   0.824
70798W        W30334  12.147  33.587  12.364
70799W        W30335   0.320  36.932  13.823
70800W        W30336  30.089  13.834  12.341
70801W        W30337  17.101   4.430  14.819
70802W        W30338  32.137  27.636   3.734
70803W        W30339  37.405  17.070   3.685
70804W        W30340  37.834  11.818   1.857
70805W        W30341  44.803  40.435  14.496
70806W        W30342  42.801   2.949  13.500
70807W        W30343   9.234  35.361   4.699
70808W        W30344  31.129  12.690   3.732
70809W        W30345  25.537   1.734   0.867
70810W        W30346  20.086  28.525  12.500
70811W        W30347  24.650  16.745   2.853
70812W        W30348  28.953  37.458  12.564
70813W        W30349  17.568   5.777  14.426
70814W        W30350  31.516  29.937   3.641
70815W        W30351   5.765  22.651  11.906
70816W        W30352  40.405   1.867   0.437
70817W        W30353   9.360  24.009   2.398
70818W        W30354  16.662  29.575  10.475
70819W        W30355  17.132  10.721  10.936
70820W        W30356   6.685  24.119  11.408
70821W        W30357  25.218  35.411  13.044
70822W        W30358  26.567  43.478   0.811
70823W        W30359  27.054   7.748   2.840
70824W        W30360  22.702  14.702  13.930
70825W        W30361   8.187   2.878  13.956
70826W        W30362  41.007  10.755   0.844
70827W        W30363  18.281   1.938   1.258
70828W        W30364  10.381  32.031  11.593
70829W        W30365   4.787  15.601  11.025
70830W        W30366   7.722  32.458  11.590
70831W        W30367  25.042  40.811   0.854
70832W        W30368  44.854  36.358   4.313
70833W        W30369  23.087  42.809   0.291
70834W        W30370  33.113  35.425   4.831
70835W        W30371   9.675  26.510  14.855
70836W        W30372  33.904  25.589  12.544
70837W        W30373  44.377  42.460  11.468
70838W        W30374  28.168  10.721  14.508
70839W        W30375   1.875  25.042   5.257
70840W        W30376   6.860   0.969   2.869
70841W        W30377   5.211  27.032  14.302
70842W        W30378   0.834  37.869   2.863
70843W        W30379  14.831  15.609  14.324
70844W        W30380  19.078  34.086   4.804
70845W        W30381  32.547  33.428  11.033
70846W        W30382  13.144  12.278   0.333
70847W        W30383  33.589   1.282  11.505
70848W        W30384  31.511  19.773  14.815
70849W        W30385  29.612   0.471   4.147
70850W        W30386  24.631   0.347  11.015
70851W        W30387  37.471  35.883  10.586
70852W        W30388  18.138  31.536  11.605
70853W        W30389  32.141   4.263   4.597
70854W        W30390  16.721  41.377   3.850
70855W        W30391  28.178  11.821  11.974
70856W        W30392  26.516  40.507   3.748
70857W        W30393  27.602  31.464  12.523
70858W        W30394  39.872  30.482   1.230
70859W        W30395  24.710   0.776   4.752
70860W        W30396   7.364  38.363   4.217
70861W        W30397  37.390  41.310   3.364
70862W        W30398  10.311  18.061  12.969
70863W        W30399  26.190  35.415   9.665
70864W        W30400  29.940  10.684   4.676
70865W        W30401  18.204  36.447  12.038
70866W        W30402  15.712  20.161   1.828
70867W        W30403  25.580  44.905  14.429
70868W        W30404  38.050  15.205  10.534
70869W        W30405  24.630  37.353   2.793
70870W        W30406  26.578   1.745  14.515
70871W        W30407  24.619  32.888  11.477
70872W        W30408  17.652  27.008   3.246
70873W        W30409   6.898   1.744  11.548
70874W        W30410  22.659  40.491   4.740
70875W        W30411   5.736  43.876   0.954
70876W        W30412   6.315  24.107   0.960
70877W        W30413   6.274  25.977  13.855
70878W        W30414  27.108  18.215   0.268
70879W        W30415  19.738  38.335  12.927
70880W        W30416  25.632  30.993   0.304
70881W        W30417  28.457   5.386   4.338
70882W        W30418  33.894  42.452  12.394
70883W        W30419  22.714   3.461   5.202
70884W        W30420   0.494  25.128  13.494
70885W        W30421  41.996  35.881   1.720
70886W        W30422  35.950  16.604   4.689
70887W        W30423  38.329  23.138   0.920
70888W        W30424  44.922   9.810   0.414
70889W        W30425   7.271  36.497  12.417
70890W        W30426  14.641  29.563  10.529
70891W        W30427   8.796   1.884  13.931
70892W        W30428  23.056  35.503  10.504
70893W        W30429  30.992  44.928   1.934
70894W        W30430   7.214  10.847   0.902
70895W        W30431  13.211   5.843  14.880
70896W        W30432  34.560  26.135   9.968
70897W        W30433  20.195  17.100  14.786
70898W        W30434  16.079  10.745  14.325
70899W        W30435  19.247   4.332   2.357
70900W        W30436   2.431   7.187   2.413
70901W        W30437  20.070  24.090   3.271
70902W        W30438  20.221  21.134  14.361
70903W        W30439  32.441   8.347   2.756
70904W        W30440  36.042   3.357  14.368
70905W        W30441  11.213   2.447   2.784
70906W        W30442  10.279   0.368   4.176
70907W        W30443  18.128   6.339  10.604
70908W        W30444  18.626   4.394  12.088
70909W        W30445  34.408  23.710  14.295
70910W        W30446  22.695  44.874  13.853
70911W        W30447  39.854   6.923  14.843
70912W        W30448  10.843   2.919   1.878
70913W        W30449  36.056   4.787   5.227
70914W        W30450  39.876  12.788  10.598
70915W        W30451  34.931  40.349   2.384
70916W        W30452  26.495   2.388  13.963
70917W        W30453  28.656  30.424   0.742
70918W        W30454  26.086   0.294   3.303
70919W        W30455  18.258  33.975   2.783
70920W        W30456  37.035  14.717  14.399
70921W        W30457   8.742  42.436   0.767
70922W        W30458  20.682   9.194  14.992
70923W        W30459  42.856  29.617  10.609
70924W        W30460   7.740   7.798  14.009
70925W        W30461  35.945   7.848  10.414
70926W        W30462   6.890   3.277   2.779
70927W        W30463  25.173  32.949  12.971
70928W        W30464  15.156  15.168   2.758
70929W        W30465  36.040  21.607   4.203
70930W        W30466  12.197  23.641   1.824
70931W        W30467  29.008  34.482   1.776
70932W        W30468  43.478  22.736  12.534
70933W        W30469  28.065  29.142  13.062
70934W        W30470  21.657   3.730  13.368
70935W        W30471   6.252   4.222   4.313
70936W        W30472  37.504  11.290   3.385
70937W        W30473  26.502  31.124  14.479
70938W        W30474  36.556  16.157   1.313
70939W        W30475   1.779  38.909   1.698
70940W        W30476  43.407  13.194   0.396
70941W        W30477  15.646  14.809   4.604
70942W        W30478   5.816  31.485  14.283
70943W        W30479  27.661  24.201   3.802
70944W        W30480  14.301  13.158   0.823
70945W        W30481  42.809  24.682  10.480
70946W        W30482  39.041  21.740  13.970
70947W        W30483  29.512   3.825  11.019
70948W        W30484  20.237  39.335   2.821
70949W        W30485   6.229  41.001   4.627
70950W        W30486  21.568  22.618   2.787
70951W        W30487   1.883   4.234  12.971
70952W        W30488  12.141  11.323   3.260
70953W        W30489   6.726  12.834  11.409
70954W        W30490  16.672  27.188  12.446
70955W        W30491  41.516  27.063  10.582
70956W        W30492  40.306  18.740  14.837
70957W        W30493   9.369  14.238  14.029
70958W        W30494  24.109  42.796  11.958
70959W        W30495  40.314  15.718   2.665
70960W        W30496   1.750  42.902   4.185
70961W        W30497  31.622  42.896  11.593
70962W        W30498  28.056  23.147  13.009
70963W        W30499  24.203  33.979   0.892
70964W        W30500   7.383   5.765  11.504
70965W        W30501  32.927  39.352   0.441
70966W        W30502  16.745   8.378   1.296
70967W        W30503   6.277  15.249   1.765
70968W        W30504  34.986  10.281  13.862
70969W        W30505  18.136  12.226   3.360
70970W        W30506  41.400  40.349  14.957
70971W        W30507   5.316  19.207  14.277
70972W        W30508  40.811   0.862  12.095
70973W        W30509   9.239  24.122   1.920
70974W        W30510  29.082  31.498   1.336
70975W        W30511  33.499  36.900   4.675
70976W        W30512   6.282  42.003   2.853
70977W        W30513   9.387   0.341  13.426
70978W        W30514  22.220   0.260  14.879
70979W        W30515  35.531  18.168  13.889
70980W        W30516  15.212  30.421   2.765
70981W        W30517  20.584  20.060   3.380
70982W        W30518   0.361  29.457   2.890
70983W        W30519  21.584   0.286  12.073
70984W        W30520   4.730  16.091  10.626
70985W        W30521   7.895  10.651  14.948
70986W        W30522  31.640   7.417   0.473
70987W        W30523  44.881  22.584   3.719
70988W        W30524  36.985  25.008   0.729
70989W        W30525  24.139  29.031   0.737
70990W        W30526  12.843  44.846  11.373
70991W        W30527  26.699   4.795   0.953
70992W        W30528  43.342  26.470   2.888
70993W        W30529  12.719   7.708   2.334
70994W        W30530  17.165  34.565   4.808
70995W        W30531  19.559   5.934   3.647
70996W        W30532  17.661   7.904  11.393
70997W        W30533  15.769   4.921  14.864
70998W        W30534  20.138  22.546   3.761
70999W        W30535  13.195   1.482   1.899
71000W        W30536  36.045  26.568  10.595
71001W        W30537  31.133   8.257   2.337
71002W        W30538  15.321  37.350   0.891
71003W        W30539  40.417  34.988  13.957
71004W        W30540  39.956  12.680   3.279
71005W        W30541  42.379   0.472  11.445
71006W        W30542   1.760  17.297   4.834
71007W        W30543   3.871  32.997   1.430
71008W        W30544  20.034   2.265   4.273
71009W        W30545  26.961  13.267   0.844
71010W        W30546  42.369   0.492   0.296
71011W        W30547  43.768  11.133   4.336
71012W        W30548  34.418  26.702  14.771
71013W        W30549  28.974  30.084  13.391
71014W        W30550  22.712  20.165   0.867
71015W        W30551  18.655  34.991  11.888
71016W        W30552  13.799  41.504   4.122
71017W        W30553  13.837  33.524  13.904
71018W        W30554   8.680  14.254  12.515
71019W        W30555  41.488   5.861  13.449
71020W        W30556  33.462  11.662  10.904
71021W        W30557  41.010  24.482   1.798
71022W        W30558   9.716   2.796   2.257
71023W        W30559  32.984  41.387  11.583
71024W        W30560   2.425  23.163  10.569
71025W        W30561  12.729   2.456  10.408
71026W        W30562  35.852   9.277  12.517
71027W        W30563  30.435  16.244  12.979
71028W        W30564   3.954  26.014   2.332
71029W        W30565  20.640  40.490   0.946
71030W        W30566  28.141  29.921   1.282
71031W        W30567  44.002  37.411   2.867
71032W        W30568  18.669  25.085   0.876
71033W        W30569  15.133  35.862   1.908
71034W        W30570  17.220   3.728  13.999
71035W        W30571  22.203  27.092   4.238
71036W        W30572  37.005   3.436  14.856
71037W        W30573  28.541  25.473   3.673
71038W        W30574  20.117  26.142   0.881
71039W        W30575  31.979  29.664   4.767
71040W        W30576  10.711  31.609   1.272
71041W        W30577  37.443  24.479   2.686
71042W        W30578  37.848  11.267   2.328
71043W        W30579  17.219  27.967   1.433
71044W        W30580  39.500  40.522  13.428
71045W        W30581  44.838  29.630  14.809
71046W        W30582  23.176  32.502  13.999
71047W        W30583  24.196  37.952  12.021
71048W        W30584  32.608  16.197   4.677
71049W        W30585   0.772  11.143  10.150
71050W        W30586  31.545  11.193   0.348
71051W        W30587  15.780  32.483   2.224
71052W        W30588  24.978  30.991   2.696
71053W        W30589  28.545  42.507  10.515
71054W        W30590  31.957  20.643   4.721
71055W        W30591  40.465  16.580   0.966
71056W        W30592  12.695   4.899   4.740
71057W        W30593  21.259   1.889   4.169
71058W        W30594  28.083  44.858   3.794
71059W        W30595  18.126  17.265  10.594
71060W        W30596   4.382  37.081   3.148
71061W        W30597  14.213  22.698  14.919
71062W        W30598  32.446  40.932   0.773
71063W        W30599  29.016  37.066  11.458
71064W        W30600  38.932  10.284   0.887
71065W        W30601  37.080   7.199  11.051
71066W        W30602   2.367  28.160   1.348
71067W        W30603   2.776  44.005   2.769
71068W        W30604  18.058  13.691  11.937
71069W        W30605  19.650  33.031   2.893
71070W        W30606  43.005  25.124   1.437
71071W        W30607  28.009  16.747  10.461
71072W        W30608  20.201  37.962   0.421
71073W        W30609   0.773  38.529  14.030
71074W        W30610  38.430   4.786  14.315
71075W        W30611   7.784  37.347   0.468
71076W        W30612  23.631  26.103  11.934
71077W        W30613   4.700  25.546  12.928
71078W        W30614  35.365  24.700  10.591
71079W        W30615   0.753  39.371  12.845
71080W        W30616  35.080  16.247  14.011
71081W        W30617  18.108  31.612  14.985
71082W        W30618  27.624   5.692  10.589
71083W        W30619  12.181   5.774  11.886
71084W        W30620   2.893  19.710  10.998
71085W        W30621   3.267  28.139   1.388
71086W        W30622  35.597  10.875  12.498
71087W        W30623   6.856  35.999   1.753
71088W        W30624  17.787  28.042   1.708
71089W        W30625  41.858   2.951  14.946
71090W        W30626  41.518  31.625  11.942
71091W        W30627  19.060  30.581   3.225
71092W        W30628  26.661   2.804   9.981
71093W        W30629  12.786  18.153   1.719
71094W        W30630  14.329   3.413  10.483
71095W        W30631  34.914  23.134   3.824
71096W        W30632   9.718   4.736   0.288
71097W        W30633  24.610  13.842  13.062
71098W        W30634  27.671  19.635  11.049
71099W        W30635   2.833  19.208   0.796
71100W        W30636  32.527  13.725   4.312
71101W        W30637  11.784   1.347   4.789
71102W        W30638  43.941  37.480   3.804
71103W        W30639  40.838  17.652   3.275
71104W        W30640  40.461  34.512   3.846
71105W        W30641  35.385  27.001   9.577
71106W        W30642  36.404  18.271  11.030
71107W        W30643   9.328  19.726  14.802
71108W        W30644   5.789  16.799  11.020
71109W        W30645  32.509  13.779  12.892
71110W        W30646   0.426  37.477   1.396
71111W        W30647  35.973  16.769   1.356
71112W        W30648   3.344  30.043   0.363
71113W        W30649   3.228   5.783  14.292
71114W        W30650  37.410   2.760   3.783
71115W        W30651  21.202  10.656  14.511
71116W        W30652  33.422  17.217   0.283
71117W        W30653   3.803  41.340   2.665
71118W        W30654  37.044  41.442   2.206
71119W        W30655  32.462  29.474  14.503
71120W        W30656  22.712  24.068   0.298
71121W        W30657  41.433  41.357  11.021
71122W        W30658  18.272   9.359  12.930
71123W        W30659  12.820  10.374  12.395
71124W        W30660  32.488  21.671  11.872
71125W        W30661  23.233  10.214   1.254
71126W        W30662   2.255  36.447  12.877
71127W        W30663   3.929  22.216   4.299
71128W        W30664  35.538  20.068   2.886
71129W        W30665   7.211  15.691   0.264
71130W        W30666  42.959  37.414  12.542
71131W        W30667   9.377   5.262  11.434
71132W        W30668  29.146  36.394  14.471
71133W        W30669  20.737   3.286   4.184
71134W        W30670   9.859  24.068  14.994
71135W        W30671  15.690  28.494  11.108
71136W        W30672  39.347  34.382   1.913
71137W        W30673   1.910  15.243   0.318
71138W        W30674  44.873   2.254   1.338
71139W        W30675  10.648   7.398   3.152
71140W        W30676  23.599  17.079   1.906
71141W        W30677  44.879  43.879  10.512
71142W        W30678  15.614  19.172  11.999
71143W        W30679   4.344  26.501  14.803
71144W        W30680  28.537   2.802  14.326
71145W        W30681  35.368   4.709  11.425
71146W        W30682  30.589  30.018  14.827
71147W        W30683  34.105  19.268  12.414
71148W        W30684  27.671  28.603  13.474
71149W        W30685  18.672   5.412   2.360
71150W        W30686  10.307  11.689   2.193
71151W        W30687  42.010  17.747  11.456
71152W        W30688   9.211   0.862  14.900
71153W        W30689  22.228   6.893  14.414
71154W        W30690  37.884  38.856   2.729
71155W        W30691  22.124  28.656   3.792
71156W        W30692  40.874  32.061   2.887
71157W        W30693  21.534  30.009   1.783
71158W        W30694  11.317  10.178   3.305
71159W        W30695  31.915  26.098  14.919
71160W        W30696   1.909  21.581   1.446
71161W        W30697  35.101   2.862  14.451
71162W        W30698  25.141  40.007   0.904
71163W        W30699  19.194   0.812  10.955
71164W        W30700  16.310   0.264   4.723
71165W        W30701   6.226  14.750   0.761
71166W        W30702  24.227  15.579   4.288
71167W        W30703  29.505  31.578  12.929
71168W        W30704  11.627  29.509  12.455
71169W        W30705  18.780  23.666  13.935
71170W        W30706  23.165  13.686  12.913
71171W        W30707   9.259  32.568  11.910
71172W        W30708   6.806  23.085  10.517
71173W        W30709  33.052   0.482   5.784
71174W        W30710  17.727  43.992   4.623
71175W        W30711   5.267  39.954  14.458
71176W        W30712   7.895  33.090   4.292
71177W        W30713   2.828   3.393  10.556
71178W        W30714  22.630  16.746  10.985
71179W        W30715   9.863  40.465   2.802
71180W        W30716  23.532  39.921   3.854
71181W        W30717  31.986  24.039  14.951
71182W        W30718  30.567  16.743   1.790
71183W        W30719  14.612  14.760  11.594
71184W        W30720   6.387  18.133  12.068
71185W        W30721   8.766  16.174  14.454
71186W        W30722   0.404  39.911  14.295
71187W        W30723  31.417  13.670  13.399
71188W        W30724  15.713  17.708  10.546
71189W        W30725  11.709  44.405   3.773
71190W        W30726  29.065  24.674   3.670
71191W        W30727   9.724  22.565   3.278
71192W        W30728  26.461  40.402   1.288
71193W        W30729  22.022   1.827  13.883
71194W        W30730   3.335   9.287  11.872
71195W        W30731  19.688  42.512   1.782
71196W        W30732   6.791  33.420  11.007
71197W        W30733  44.805   0.791   0.851
71198W        W30734  40.331  44.499   1.339
71199W        W30735  33.075  15.148   0.962
71200W        W30736  29.505  17.639   3.201
71201W        W30737  26.035   2.229   2.195
71202W        W30738  15.658  40.907  11.467
71203W        W30739  25.527  37.960  14.768
71204W        W30740  35.084   9.809  11.002
71205W        W30741  30.581   7.804   3.781
71206W        W30742  25.608  32.398   3.237
71207W        W30743   7.688  21.521  11.419
71208W        W30744  22.998   9.289   0.244
71209W        W30745  21.159  25.030   4.290
71210W        W30746  41.926  24.105   1.312
71211W        W30747   5.845   7.694  10.965
71212W        W30748  40.987   8.719  14.951
71213W        W30749  18.065  29.952   3.155
71214W        W30750  37.366  19.765  14.314
71215W        W30751  43.017  12.177  13.861
71216W        W30752  37.362  20.176  10.583
71217W        W30753   6.232   4.875   3.739
71218W        W30754  26.516  31.969  13.943
71219W        W30755  13.225   7.283  12.547
71220W        W30756   7.805  35.409  12.927
71221W        W30757  18.172  37.850   3.729
71222W        W30758  31.578  28.569  12.453
71223W        W30759  28.496  21.131  13.432
71224W        W30760  43.945  44.338   4.181
71225W        W30761   9.357   9.237  13.045
71226W        W30762  31.101  14.158   2.783
71227W        W30763  22.729  22.171  12.541
71228W        W30764  43.780  25.054  13.874
71229W        W30765  39.547  37.027  12.578
71230W        W30766  11.685  42.518   2.673
71231W        W30767   6.275   3.216  11.921
71232W        W30768  20.767  21.073   0.781
71233W        W30769  26.141  21.595  10.630
71234W        W30770   0.897   9.376  14.864
71235W        W30771   2.933  16.604  13.801
71236W        W30772  14.676  28.970   2.787
71237W        W30773  27.039  15.777   1.804
71238W        W30774  30.653  20.251   4.229
71239W        W30775   3.888  36.536   0.269
71240W        W30776  37.929  27.989   9.939
71241W        W30777   8.798  14.664  12.505
71242W        W30778  29.161  44.001  14.992
71243W        W30779   5.217  24.167  11.088
71244W        W30780  28.025   5.264  14.285
71245W        W30781  30.061  37.926  14.290
71246W        W30782  33.926   1.331   3.753
71247W        W30783  12.298  21.080  13.525
71248W        W30784  35.061  34.475  12.955
71249W        W30785  22.640  37.886   2.870
71250W        W30786  41.310  23.703   3.649
71251W        W30787  14.618  31.607   1.355
71252W        W30788  39.518  19.092  13.416
71253W        W30789   6.259  21.187   4.656
71254W        W30790   5.266  41.999  14.971
71255W        W30791  25.062  30.642   0.757
71256W        W30792  39.985   5.399   1.254
71257W        W30793  41.922  18.689   4.240
71258W        W30794  42.887  23.027   2.234
71259W        W30795  13.204  13.220  13.447
71260W        W30796  35.410  41.006  13.315
71261W        W30797  34.558  28.177  10.059
71262W        W30798  23.590  16.657   0.908
71263W        W30799  41.992  23.711  11.991
71264W        W30800  18.091  19.662  11.550
71265W        W30801  18.753  43.306  11.488
71266W        W30802  41.956  17.122  13.540
71267W        W30803   7.823  37.524   4.771
71268W        W30804   5.837  32.090  12.951
71269W        W30805  11.172   5.408  11.892
71270W        W30806  30.466  27.552   4.210
71271W        W30807  25.157  44.353   1.375
71272W        W30808   3.403  42.456  12.516
71273W        W30809  35.859  17.169   1.824
71274W        W30810  18.607  26.040   0.862
71275W        W30811  18.673   2.322   1.700
71276W        W30812   9.811  13.818   4.794
71277W        W30813  11.335   2.365   0.380
71278W        W30814  30.469  22.650   4.135
71279W        W30815  42.899  38.477  10.414
71280W        W30816   7.204  11.216   1.833
71281W        W30817  24.487  37.421   4.631
71282W        W30818  17.698  13.211  12.015
71283W        W30819   5.860  30.954   1.767
71284W        W30820  43.312  18.611   4.832
71285W        W30821  35.017  37.012  12.925
71286W        W30822   4.343  14.325   3.822
71287W        W30823   9.191  14.177   4.682
71288W        W30824  44.473  43.892   0.355
71289W        W30825  16.105  43.458   3.810
71290W        W30826  11.759  18.292  10.509
71291W        W30827   6.317  31.059  13.386
71292W        W30828  41.520  31.557  14.401
71293W        W30829  10.666  42.391   4.189
71294W        W30830  37.041  29.497  12.879
71295W        W30831   8.288  22.054   3.789
71296W        W30832  12.641  27.023   1.876
71297W        W30833  21.714  11.368   0.323
71298W        W30834  20.122  26.067   4.155
71299W        W30835  25.576  15.233   2.803
71300W        W30836  26.686  31.465   4.206
71301W        W30837  44.359  12.248   3.843
71302W        W30838  12.672   7.405   0.308
71303W        W30839  33.121  37.844  12.862
71304W        W30840  35.058  19.711  11.035
71305W        W30841   7.258  22.168   4.225
71306W        W30842  33.436  17.202  14.507
71307W        W30843  26.175  42.775  13.402
71308W        W30844  41.014  41.969  14.792
71309W        W30845   8.184  18.744  12.838
71310W        W30846  20.164  22.564   0.387
71311W        W30847  32.892   3.219   0.414
71312W        W30848  16.101  21.175   2.700
71313W        W30849  39.056  25.642  14.873
71314W        W30850   9.170   5.905  12.377
71315W        W30851  25.184  14.269  11.569
71316W        W30852   9.322  22.056  14.399
71317W        W30853  44.481  25.179   4.641
71318W        W30854  27.641  43.439   0.431
71319W        W30855   0.776  40.858   3.784
71320W        W30856  22.133  43.943  14.395
71321W        W30857  31.513  14.151   0.826
71322W        W30858  34.084  16.232   2.369
71323W        W30859  15.717  43.937  10.962
71324W        W30860  43.901  42.881  10.508
71325W        W30861  36.036   5.207   0.902
71326W        W30862  37.931  28.625   1.303
71327W        W30863  18.209   7.757   0.382
71328W        W30864  18.668   9.340  10.637
71329W        W30865   2.805   6.410   4.349
71330W        W30866  10.738  33.979  14.503
71331W        W30867  40.866  34.503  11.533
71332W        W30868  20.150  11.790   0.842
71333W        W30869  17.256  16.584  12.371
71334W        W30870  44.842  29.442  12.978
71335W        W30871  19.756  13.606  12.993
71336W        W30872   4.750  19.607  11.856
71337W        W30873  19.045  43.925   2.762
71338W        W30874   7.346  13.130  12.047
71339W        W30875  23.241   6.771   3.268
71340W        W30876   3.313   1.360   3.186
71341W        W30877  13.326  42.371  10.994
71342W        W30878   6.348   6.243  12.080
71343W        W30879  33.948  21.535  10.453
71344W        W30880  34.586  42.825  13.819
71345W        W30881  15.224  12.229   3.761
71346W        W30882  12.714  18.784  11.890
71347W        W30883  23.093   5.233  12.396
71348W        W30884   2.898  28.153  14.894
71349W        W30885  16.778  10.213  12.987
71350W        W30886  27.985  10.140  13.057
71351W        W30887   2.797  14.162   4.268
71352W        W30888  18.051  29.608   1.268
71353W        W30889  37.973   5.224   1.883
71354W        W30890  23.588  30.101   1.358
71355W        W30891  27.187  39.034  11.128
71356W        W30892   7.345  33.514  10.990
71357W        W30893  41.004  41.392  11.979
71358W        W30894   2.333  37.834   1.709
71359W        W30895  14.296  31.473   4.203
71360W        W30896  31.507  27.037   1.782
71361W        W30897  28.485  16.183   1.724
71362W        W30898  28.054  43.432   1.762
71363W        W30899  27.024  28.150  14.337
71364W        W30900   9.379  35.873  14.291
71365W        W30901  32.621  28.049   1.332
71366W        W30902   5.378   8.810   4.771
71367W        W30903  38.830  19.243  14.851
71368W        W30904   9.268  18.223   2.869
71369W        W30905  17.216  26.671  11.068
71370W        W30906   9.239  32.015   5.227
71371W        W30907   7.797  17.269  14.288
71372W        W30908  16.794   6.805  11.952
71373W        W30909  26.185  42.388  14.361
71374W        W30910  25.045  41.996  13.043
71375W        W30911   9.787  32.973  12.044
71376W        W30912   6.329  44.337  10.043
71377W        W30913   9.164  27.643  12.479
71378W        W30914   9.861  16.584  14.891
71379W        W30915   1.766  13.671   4.704
71380W        W30916  18.722  11.784  10.131
71381W        W30917   7.355  25.654  13.954
71382W        W30918   4.229  17.643  10.971
71383W        W30919   6.783  24.479  14.816
71384W        W30920  27.964   3.222  13.890
71385W        W30921  27.458  28.565  14.339
71386W        W30922  40.015  43.327   4.189
71387W        W30923  21.246  36.347  14.940
71388W        W30924  12.833   4.215  11.000
71389W        W30925  25.711  11.856   4.140
71390W        W30926  23.059  23.652   2.418
71391W        W30927   6.899  11.251  11.428
71392W        W30928   9.840   3.898   4.202
71393W        W30929   3.826   3.274   0.312
71394W        W30930  12.274  41.817   3.682
71395W        W30931   2.955  21.099  13.926
71396W        W30932  23.502   9.307  14.948
71397W        W30933   4.363  33.958  12.072
71398W        W30934   1.310   3.436  14.830
71399W        W30935  26.166   0.789   0.284
71400W        W30936  23.102   2.890  12.383
71401W        W30937  14.789  30.525  12.072
71402W        W30938   8.287   9.731  11.030
71403W        W30939  36.931  44.440  11.931
71404W        W30940  37.509  24.552  10.491
71405W        W30941  10.693  43.949   3.657
71406W        W30942  32.008  32.078   2.776
71407W        W30943  25.621  33.883  12.847
71408W        W30944   0.323  35.917   3.294
71409W        W30945  28.092  13.247  14.468
71410W        W30946  44.472  19.759   4.313
71411W        W30947  24.129  43.503  10.937
71412W        W30948   8.773  14.802  13.042
71413W        W30949  35.588  11.299   4.727
71414W        W30950  34.541  12.286   2.277
71415W        W30951   3.315   7.366  12.530
71416W        W30952  21.615  35.587  13.936
71417W        W30953  15.680  17.295  13.038
71418W        W30954  16.177  30.556   4.803
71419W        W30955  22.111   3.738  12.050
71420W        W30956   4.757  11.350   2.278
71421W        W30957  10.164  14.729   2.753
71422W        W30958  33.076  44.359   0.454
71423W        W30959  35.994   4.305  11.001
71424W        W30960  44.438  29.157  14.907
71425W        W30961  10.718   1.329  10.628
71426W        W30962  28.495  15.810  12.988
71427W        W30963  12.806  44.939   0.451
71428W        W30964  21.136  27.623  11.894
71429W        W30965   0.280   2.856   0.320
71430W        W30966  18.735  12.329   1.218
71431W        W30967  18.095  36.395   2.347
71432W        W30968  36.099  32.410  11.583
71433W        W30969  15.608  32.992   3.300
71434W        W30970  18.773   4.439   1.837
71435W        W30971   1.347  18.783  13.954
71436W        W30972  39.507  11.852  14.890
71437W        W30973  24.155  23.196  13.025
71438W        W30974  11.134   5.357   5.791
71439W        W30975   7.194   5.347   0.829
71440W        W30976  41.420  31.913  14.326
71441W        W30977   5.222   4.204  13.794
71442W        W30978   5.892  41.945  10.947
71443W        W30979  18.101  23.565   1.361
71444W        W30980  34.370   0.749   0.398
71445W        W30981   5.382  34.391  12.530
71446W        W30982  20.570   2.438  14.958
71447W        W30983  38.556  32.958  11.071
71448W        W30984  26.653   0.426  12.424
71449W        W30985  31.148  37.435  10.925
71450W        W30986   4.316  43.426  11.601
71451W        W30987  19.609  28.596   3.652
71452W        W30988  15.735  43.004  11.477
71453W        W30989  25.669  42.829  10.518
71454W        W30990  37.479  28.953   4.711
71455W        W30991  16.717  14.655  12.497
71456W        W30992  35.414  25.518  14.968
71457W        W30993   5.386  35.560  12.948
71458W        W30994  17.234  44.947  13.874
71459W        W30995  30.456  44.007  11.371
71460W        W30996  19.190   9.360   1.861
71461W        W30997  36.896  27.476   4.693
71462W        W30998  15.675  37.911   2.296
71463W        W30999  27.541  14.167   0.451
71464W        W31000  13.742   6.393  11.480
71465W        W31001   9.856   7.780  12.564
71466W        W31002  31.028  34.987   2.334
71467W        W31003  37.568  18.181  10.996
71468W        W31004  38.879  30.912  14.283
71469W        W31005  36.553  36.481  12.353
71470W        W31006  11.247  29.120   3.193
71471W        W31007   6.210  40.444  10.627
71472W        W31008  23.093  16.209   3.744
71473W        W31009  15.610  32.559  12.882
71474W        W31010  20.593  39.337  14.866
71475W        W31011  26.491  10.795  12.937
71476W        W31012  39.477  11.195   2.793
71477W        W31013  19.257   4.794   1.399
71478W        W31014  17.062   3.248  14.465
71479W        W31015  43.381  21.741   0.933
71480W        W31016  39.820  16.613  10.563
71481W        W31017  31.615  23.693  12.043
71482W        W31018   7.799  11.650  12.049
71483W        W31019   3.810  41.472  11.982
71484W        W31020  41.444   0.418  14.415
71485W        W31021   5.738   8.168  14.777
71486W        W31022   2.306   9.832  11.456
71487W        W31023  12.840  13.801  10.415
71488W        W31024  26.600   7.416   4.643
71489W        W31025  42.832  18.159  11.606
71490W        W31026  31.467  27.512  11.373
71491W        W31027  43.835   8.287   2.871
71492W        W31028  16.165   9.882  11.975
71493W        W31029   6.290   1.426  11.903
71494W        W31030  23.077  22.069  12.957
71495W        W31031  32.637   6.880  12.823
71496W        W31032   4.309   0.316   3.719
71497W        W31033  28.008  39.397  13.845
71498W        W31034  17.567  32.972   0.738
71499W        W31035  22.621  36.911   2.258
71500W        W31036  23.552  39.467   2.275
71501W        W31037  30.455  29.923  14.345
71502W        W31038   9.244  36.394  13.404
71503W        W31039  35.024  26.053   3.727
71504W        W31040  30.003  37.414   4.124
71505W        W31041  16.588  22.606  10.993
71506W        W31042   3.720  13.737  11.041
71507W        W31043  29.561  32.498  13.467
71508W        W31044   3.768  39.529  13.963
71509W        W31045  44.889   5.760  11.401
71510W        W31046   3.308  12.826   3.361
71511W        W31047  36.359  43.356   0.931
71512W        W31048   7.352   4.258   0.889
71513W        W31049  11.626  10.224  10.498
71514W        W31050  31.420   9.288   4.653
71515W        W31051   9.274  19.534  10.602
71516W        W31052   6.747   1.400  13.534
71517W        W31053   4.259  43.369  14.026
71518W        W31054   1.839  37.888   4.202
71519W        W31055  28.162  39.346   2.783
71520W        W31056  25.611  17.111   4.256
71521W        W31057  34.881  13.748  12.090
71522W        W31058  20.608  27.016   0.406
71523W        W31059  40.818  26.193  10.413
71524W        W31060  44.329  28.003  11.443
71525W        W31061  31.531  38.895   1.393
71526W        W31062  32.061  21.117   4.253
71527W        W31063   7.795  26.596  11.546
71528W        W31064   6.303  10.139   3.199
71529W        W31065  26.991  12.751  11.396
71530W        W31066   9.281   1.263   2.829
71531W        W31067   2.827  39.419  11.065
71532W        W31068  16.807   4.755  11.551
71533W        W31069  30.090  22.623   1.832
71534W        W31070  23.177  11.654  14.440
71535W        W31071  37.910  33.954  12.958
71536W        W31072  38.888  38.444  10.055
71537W        W31073  39.867  19.729   1.382
71538W        W31074  15.622  10.710  14.973
71539W        W31075  18.760  42.859   3.825
71540W        W31076   7.671  32.923   1.337
71541W        W31077  28.016  30.503   0.452
71542W        W31078  30.091   7.199  10.915
71543W        W31079  40.306  18.234  10.131
71544W        W31080   9.256   1.954   2.310
71545W        W31081   7.709   8.324  14.279
71546W        W31082  30.985  16.286  10.986
71547W        W31083   2.841   2.350  14.401
71548W        W31084  26.996  14.768   1.820
71549W        W31085   9.813  10.861   4.708
71550W        W31086  13.619  10.153   2.791
71551W        W31087  16.280  14.190   4.797
71552W        W31088  10.749  26.649  14.829
71553W        W31089  33.111  38.488  12.000
71554W        W31090  17.732  31.027  14.415
71555W        W31091  10.657  27.144  12.005
71556W        W31092   6.850  43.505  11.110
71557W        W31093   7.840  38.822  11.862
71558W        W31094  22.660  23.548  14.984
71559W        W31095  15.102  35.877   2.251
71560W        W31096  33.072  19.185  12.994
71561W        W31097   4.929  27.606  12.914
71562W        W31098  32.443   1.857  13.047
71563W        W31099  44.985   9.711   3.671
71564W        W31100  21.578   7.794  13.050
71565W        W31101   3.350  30.574   4.145
71566W        W31102  16.791  43.807   1.357
71567W        W31103  23.619  35.378  14.334
71568W        W31104  15.190  44.289   3.381
71569W        W31105  24.697  40.023  12.490
71570W        W31106  29.568   2.303   0.253
71571W        W31107  29.077  31.580   2.795
71572W        W31108  18.559  21.694   4.755
71573W        W31109  17.185   6.402   0.386
71574W        W31110  27.958   7.317  12.083
71575W        W31111   4.820  36.411  13.819
71576W        W31112   8.827  19.188   4.749
71577W        W31113  39.995  33.410   3.768
71578W        W31114  14.717   4.285   2.410
71579W        W31115  35.082  28.472   4.193
71580W        W31116  26.091  42.284  13.411
71581W        W31117   8.855  25.518   3.662
71582W        W31118  35.915   1.775   3.367
71583W        W31119  17.662  21.202   1.809
71584W        W31120   6.394  15.191  12.369
71585W        W31121  35.862  12.155   2.191
71586W        W31122   4.353  27.117  12.887
71587W        W31123  35.035  14.721   0.434
71588W        W31124   9.292  43.368  12.961
71589W        W31125   3.317  14.264   1.249
71590W        W31126   3.258  41.990  10.411
71591W        W31127  17.571  41.911   2.840
71592W        W31128  35.095  43.862   3.358
71593W        W31129   2.866  24.029   2.876
71594W        W31130  42.951  19.547  10.588
71595W        W31131  10.145  33.401   1.723
71596W        W31132  44.946  22.575  14.492
71597W        W31133  28.129  39.464  11.589
71598W        W31134  21.049  32.458  13.947
71599W        W31135   1.453   1.324   3.286
71600W        W31136   6.379  42.929  14.425
71601W        W31137  21.549  18.153  10.551
71602W        W31138  16.640  35.554   0.448
71603W        W31139  16.285   5.876   1.775
71604W        W31140  41.977  14.608  13.427
71605W        W31141   2.273  33.921  12.555
71606W        W31142   6.272  18.569   3.680
71607W        W31143  37.420   5.202  13.988
71608W        W31144   7.243   7.266   2.834
71609W        W31145  30.926  35.037  12.019
71610W        W31146  42.484  10.328  14.918
71611W        W31147  17.615  30.444  11.985
71612W        W31148  36.000   4.385   3.296
71613W        W31149  15.669  27.979   4.839
71614W        W31150  26.975   7.875   0.813
71615W        W31151  41.352  34.459  10.929
71616W        W31152  31.471  35.474  11.371
71617W        W31153  11.344  26.693  12.824
71618W        W31154  16.194  42.487  10.495
71619W        W31155  40.042  15.157   3.734
71620W        W31156  10.648  38.943   3.677
71621W        W31157  38.521  33.947  13.466
71622W        W31158  18.640  18.182  14.296
71623W        W31159  44.400  43.397   3.804
71624W        W31160  18.174  26.057  11.088
71625W        W31161  21.049  14.249  12.563
71626W        W31162  21.581   9.686  14.406
71627W        W31163   1.835  33.453  11.444
71628W        W31164  41.513  11.848  12.027
71629W        W31165  33.402  37.971  10.917
71630W        W31166  32.598  21.105  11.554
71631W        W31167  19.156  24.499   1.326
71632W        W31168  27.190  16.601  12.923
71633W        W31169  37.039  14.656   0.333
71634W        W31170   1.883   3.323   3.768
71635W        W31171  35.539  22.666  12.488
71636W        W31172  26.999  38.504  14.840
71637W        W31173  40.506  29.064  14.399
71638W        W31174  13.655  36.507   0.419
71639W        W31175  27.541  27.483  13.939
71640W        W31176  18.766  25.211  14.767
71641W        W31177  24.479  13.250  12.088
71642W        W31178  31.018   4.872  14.780
71643W        W31179   2.241  25.107   2.250
71644W        W31180  20.747   0.355  10.571
71645W        W31181   7.807  40.366   3.673
71646W        W31182  25.631  12.265   4.787
71647W        W31183  41.929  30.149  10.948
71648W        W31184   6.730   5.788   2.238
71649W        W31185  30.084  18.690  14.860
71650W        W31186  15.716  27.082   2.791
71651W        W31187   3.841   7.714   1.712
71652W        W31188  14.793  39.415  12.489
71653W        W31189  19.247  31.915  11.895
71654W        W31190  18.137   3.223  12.830
71655W        W31191   1.907  35.577  14.989
71656W        W31192   2.847  24.633   9.986
71657W        W31193  38.450  41.474  13.394
71658W        W31194   4.323  35.467  13.397
71659W        W31195  29.509  27.578  11.983
71660W        W31196  30.013  28.457  13.911
71661W        W31197   1.731  17.266   3.265
71662W        W31198   4.403  19.717   3.202
71663W        W31199  19.274  29.474   2.726
71664W        W31200  16.679   1.875  12.016
71665W        W31201   1.899  20.056  12.513
71666W        W31202  44.407  35.401   3.340
71667W        W31203  40.874   0.800   5.084
71668W        W31204  43.434   4.318  13.919
71669W        W31205  37.472  13.240   1.391
71670W        W31206  15.165  32.405  11.071
71671W        W31207  12.704  28.129   0.859
71672W        W31208   6.299  17.225  12.475
71673W        W31209  13.656   7.415  13.356
71674W        W31210  43.019  34.117  13.060
71675W        W31211  15.232  10.824   3.830
71676W        W31212  36.022  19.081  10.482
71677W        W31213  31.992  16.620  13.330
71678W        W31214  22.058   4.720   1.242
71679W        W31215  33.024  43.928   3.224
71680W        W31216  12.780  33.455  13.397
71681W        W31217  33.923  33.443  12.038
71682W        W31218  23.546  41.936   3.727
71683W        W31219  18.712  21.718   2.894
71684W        W31220  14.637  34.059  13.478
71685W        W31221   4.352   2.824   2.669
71686W        W31222   6.739   5.885  10.568
71687W        W31223  15.675  23.601   1.240
71688W        W31224  11.231  40.356   3.744
71689W        W31225  43.895  12.698   2.411
71690W        W31226  19.052  18.569   2.856
71691W        W31227   7.869  13.266   1.771
71692W        W31228  39.317  18.737   1.235
71693W        W31229   6.267  28.092   1.326
71694W        W31230   5.365  22.023   4.716
71695W        W31231   3.868  17.243  12.415
71696W        W31232  39.464  27.006  13.810
71697W        W31233  25.142  41.791   0.465
71698W        W31234  27.543  19.184   4.157
71699W        W31235  44.777  10.686  12.068
71700W        W31236   7.729  30.946   4.691
71701W        W31237  28.584  29.488   1.700
71702W        W31238  15.252  28.155   3.352
71703W        W31239  42.790  30.112   3.150
71704W        W31240  30.024  16.122   2.399
71705W        W31241  11.777  25.983   4.690
71706W        W31242  20.122   4.313   5.773
71707W        W31243  24.088   9.272   3.643
71708W        W31244  12.626  14.237  12.500
71709W        W31245  36.354  28.019  10.468
71710W        W31246  16.616  27.025   1.294
71711W        W31247  20.617  10.277  12.832
71712W        W31248  11.242  12.811  13.498
71713W        W31249   9.673  31.573   3.284
71714W        W31250   4.899  44.316  12.067
71715W        W31251  30.428  36.057  11.494
71716W        W31252  36.414   8.721  13.961
71717W        W31253  17.253  32.051   4.235
71718W        W31254  20.204  27.041  14.420
71719W        W31255   9.300  26.163   1.813
71720W        W31256  41.795  21.558   4.342
71721W        W31257  15.818  27.031  11.497
71722W        W31258  11.653  29.639  13.336
71723W        W31259   7.185  28.571  13.468
71724W        W31260  29.102  22.087  10.612
71725W        W31261  40.823  44.414   2.861
71726W        W31262  40.915   2.350   1.760
71727W        W31263  41.035  16.749  12.042
71728W        W31264  15.318  27.625  12.096
71729W        W31265  23.544   5.296  13.857
71730W        W31266  44.915  24.536   3.315
71731W        W31267  25.986  33.472  10.629
71732W        W31268   8.812  31.421   3.280
71733W        W31269  31.966  27.195   0.824
71734W        W31270  30.439  26.997  10.460
71735W        W31271  15.783   5.877   0.377
71736W        W31272  44.406  32.403  10.616
71737W        W31273  16.715  40.467  11.077
71738W        W31274  19.754  26.087   2.738
71739W        W31275  14.678  19.246   1.706
71740W        W31276  28.961  14.323   1.413
71741W        W31277  39.872   7.350  11.600
71742W        W31278   2.387  42.864   4.176
71743W        W31279  10.331  36.488   4.117
71744W        W31280  32.055  41.455   1.797
71745W        W31281   9.833  29.173   0.309
71746W        W31282   8.178  14.230   0.910
71747W        W31283  43.921   9.684   2.822
71748W        W31284  34.949   9.391   2.702
71749W        W31285  10.753   6.870   0.357
71750W        W31286  19.078  26.057  11.390
71751W        W31287  24.489  42.897   0.769
71752W        W31288  16.810  36.512  11.450
71753W        W31289   1.974  44.374  14.478
71754W        W31290  37.020   6.787  11.408
71755W        W31291  40.458  42.414  14.336
71756W        W31292  44.866  24.980  14.393
71757W        W31293  12.741  32.497   0.446
71758W        W31294  36.932  39.907  12.090
71759W        W31295   8.322  34.942  11.428
71760W        W31296  20.099   9.254  14.342
71761W        W31297  15.182  36.076   3.190
71762W        W31298   1.334  16.133   0.362
71763W        W31299  11.328   3.774  13.530
71764W        W31300  31.492  15.171   3.817
71765W        W31301  31.130  23.002   4.736
71766W        W31302   1.936  23.646   4.785
71767W        W31303  30.623   5.245  13.350
71768W        W31304  11.652  22.651  12.030
71769W        W31305   1.768  28.937  13.508
71770W        W31306   3.867  31.114  14.432
71771W        W31307   2.306   9.274   2.359
71772W        W31308  10.839   5.322   1.873
71773W        W31309  44.503  38.353   2.789
71774W        W31310  24.526  32.538  10.960
71775W        W31311  30.506   5.821  13.474
71776W        W31312  17.206  11.269  12.515
71777W        W31313  26.003  24.005  14.279
71778W        W31314  15.811  28.589  14.800
71779W        W31315  20.031  34.455   1.310
71780W        W31316  31.929  36.920  14.291
71781W        W31317  16.587  28.026  13.811
71782W        W31318  30.038  41.515  10.906
71783W        W31319  19.700   4.334   3.181
71784W        W31320  23.518  27.504   4.226
71785W        W31321  26.138  37.531  13.868
71786W        W31322   4.825   9.808  12.979
71787W        W31323  37.559  15.602   1.801
71788W        W31324  16.225   2.282   3.222
71789W        W31325   7.373  29.518   5.164
71790W        W31326   2.292  36.061   1.364
71791W        W31327   2.332  20.762   4.121
71792W        W31328  35.436  37.888   3.732
71793W        W31329  36.480   6.188  14.494
71794W        W31330  42.840  28.151  13.521
71795W        W31331  37.339   5.242   4.189
71796W        W31332  38.911  35.597   0.961
71797W        W31333  19.235  39.375  14.464
71798W        W31334  16.137  15.153   2.385
71799W        W31335  17.792   4.837  13.820
71800W        W31336  11.201  29.475  12.999
71801W        W31337  26.207  29.481   1.436
71802W        W31338   6.681  20.066  12.990
71803W        W31339  34.010  10.385   3.647
71804W        W31340  20.151  42.466  11.931
71805W        W31341  31.132  42.996   1.438
71806W        W31342  43.429  23.659  12.342
71807W        W31343  16.801   5.791  10.916
71808W        W31344  15.717  27.519   1.739
71809W        W31345  25.073  32.482  12.090
71810W        W31346  15.787  25.972  14.837
71811W        W31347  23.027  44.441   1.354
71812W        W31348  14.172  17.184  12.425
71813W        W31349  43.898  31.082   1.786
71814W        W31350  14.684  40.863   2.300
71815W        W31351   7.707   8.893  12.363
71816W        W31352  10.674   7.867  12.358
71817W        W31353   4.932  21.119   0.390
71818W        W31354  44.989  28.450   0.323
71819W        W31355  27.637  37.891   1.917
71820W        W31356  41.032  13.238  13.875
71821W        W31357  34.877  43.961  11.494
71822W        W31358  14.263  12.196   4.315
71823W        W31359   2.874  30.915  11.436
71824W        W31360  28.150  34.902   4.700
71825W        W31361  44.822  33.046  11.536
71826W        W31362   7.889  42.794  12.536
71827W        W31363   0.362  27.943   4.183
71828W        W31364  30.954  36.935  11.016
71829W        W31365  27.530  15.685  14.307
71830W        W31366   7.271   3.775   4.641
71831W        W31367  34.376  20.091  10.449
71832W        W31368  38.067  19.767  14.011
71833W        W31369  12.243  13.791  12.840
71834W        W31370   6.733  12.799   3.716
71835W        W31371  30.979  18.172  10.557
71836W        W31372  18.189   2.829   2.346
71837W        W31373  14.211  41.293   0.953
71838W        W31374  28.124  11.261   9.937
71839W        W31375  27.996  11.796  12.418
71840W        W31376  16.612  37.347   3.789
71841W        W31377  23.549  15.667  13.981
71842W        W31378  20.745   1.456  11.030
71843W        W31379  23.701  39.977   1.341
71844W        W31380  26.994   8.724   0.784
71845W        W31381  11.333  27.139  12.478
71846W        W31382  40.382   2.861   2.328
71847W        W31383   9.687  28.106   1.278
71848W        W31384  28.670  28.501  11.112
71849W        W31385  37.911  34.530  11.523
71850W        W31386  21.709  17.781   9.990
71851W        W31387  20.549  20.762   3.866
71852W        W31388  38.354  27.172   3.352
71853W        W31389   4.407  44.478  13.967
71854W        W31390   9.815  40.457  13.423
71855W        W31391   5.366  31.908  12.556
71856W        W31392  33.886  21.083  11.410
71857W        W31393  26.702  33.579  10.961
71858W        W31394   1.407  14.109  12.422
71859W        W31395  29.077  29.129  13.828
71860W        W31396  17.200  21.079   1.921
71861W        W31397  38.410  41.819   2.798
71862W        W31398  37.477  41.505   1.820
71863W        W31399  11.286   8.897  10.557
71864W        W31400  34.944  32.991  14.452
71865W        W31401  30.924  10.270   2.414
71866W        W31402  13.123  24.553  13.413
71867W        W31403  23.228  38.938   0.812
71868W        W31404   0.898   0.367   3.354
71869W        W31405  35.431  25.104   4.130
71870W        W31406  44.475   2.466   1.305
71871W        W31407  10.182  42.915  10.951
71872W        W31408  35.451  20.065   1.786
71873W        W31409   4.708  28.081  13.386
71874W        W31410  28.967  44.821   0.772
71875W        W31411  37.394  44.274   0.827
71876W        W31412  28.062  13.777  11.409
71877W        W31413  43.976  32.478  12.431
71878W        W31414  11.722   1.310  12.379
71879W        W31415  22.646  27.954  12.399
71880W        W31416  19.679   2.756  11.447
71881W        W31417  38.368   3.882  13.876
71882W        W31418  32.402  30.934   4.251
71883W        W31419  37.841  15.818  13.918
71884W        W31420   0.280   8.393   4.296
71885W        W31421  35.098  24.159  10.485
71886W        W31422  42.370  19.561   4.806
71887W        W31423  32.955  14.720   3.744
71888W        W31424  42.980  42.292   4.321
71889W        W31425  10.675  41.486  11.119
71890W        W31426   4.249  18.234  11.451
71891W        W31427  27.639  34.050   3.757
71892W        W31428  26.650  18.135   2.308
71893W        W31429  44.411  30.062   2.368
71894W        W31430  15.748  39.886   4.281
71895W        W31431  11.240  25.642  11.420
71896W        W31432  10.281  14.658   0.281
71897W        W31433   7.733  23.580  10.044
71898W        W31434  28.627  37.079  14.368
71899W        W31435  39.002   5.339  12.549
71900W        W31436   1.849  14.202   2.185
71901W        W31437  11.262  25.646  12.833
71902W        W31438  15.704  36.507  14.327
71903W        W31439  19.208  28.469  14.349
71904W        W31440  27.952  33.126   0.336
71905W        W31441  19.771  41.353   2.221
71906W        W31442  19.582  12.675  13.340
71907W        W31443  24.509  13.815  10.900
71908W        W31444  31.929  31.515   1.808
71909W        W31445   0.425  25.968   3.217
71910W        W31446   4.928  22.142  10.137
71911W        W31447  33.068  18.292  12.889
71912W        W31448   2.373  37.843   2.662
71913W        W31449  12.215  10.208   0.449
71914W        W31450  36.482  10.753  14.450
71915W        W31451  25.010   9.162  10.508
71916W        W31452  32.084  28.009   1.394
71917W        W31453  38.907   5.425   1.752
71918W        W31454  39.059   4.356   2.340
71919W        W31455  17.226   7.412   3.212
71920W        W31456  22.667   0.811  12.470
71921W        W31457  33.001  19.049   4.670
71922W        W31458  30.641  35.366   0.381
71923W        W31459  22.737   2.872  10.998
71924W        W31460  22.097  14.267  11.507
71925W        W31461  23.718  38.819   0.288
71926W        W31462  42.878   7.409  13.967
71927W        W31463  17.277  18.709  11.520
71928W        W31464  23.524  19.700   2.228
71929W        W31465  10.870  42.330   0.742
71930W        W31466  14.671  43.347  14.920
71931W        W31467   0.334   7.790   3.685
71932W        W31468  29.433  14.773  14.911
71933W        W31469  35.865   8.689   4.804
71934W        W31470  11.707  13.229   5.093
71935W        W31471  20.612   4.334   3.789
71936W        W31472  40.499  34.398   4.619
71937W        W31473  11.244  24.175   2.765
71938W        W31474  18.586  39.466  13.310
71939W        W31475   7.387  13.710  12.830
71940W        W31476  24.993  17.122   4.218
71941W        W31477  31.591   1.951  10.930
71942W        W31478  19.141   8.210  11.931
71943W        W31479   5.729   9.316   2.260
71944W        W31480  38.845  33.533   1.882
71945W        W31481  36.022  11.769  14.843
71946W        W31482  36.033   7.209  14.020
71947W        W31483  28.550   7.758  12.497
71948W        W31484  20.061  17.205  13.367
71949W        W31485   7.785  17.598   0.962
71950W        W31486  16.801   9.771   2.833
71951W        W31487  11.366  16.144   4.685
71952W        W31488  23.652  21.101  12.478
71953W        W31489  22.214  16.650   2.399
71954W        W31490  40.366  26.467  10.974
71955W        W31491   4.844   8.334   2.351
71956W        W31492   3.841   5.226   0.404
71957W        W31493  25.551  33.990   2.398
71958W        W31494  28.150  24.059  12.035
71959W        W31495  29.426  21.688  10.590
71960W        W31496  41.850  15.717   4.163
71961W        W31497  28.627  28.091   1.401
71962W        W31498  39.926   6.856   1.850
71963W        W31499   0.952   8.892  12.824
71964W        W31500  15.688  30.944  14.499
71965W        W31501  21.187  24.057  13.864
71966W        W31502  26.547  44.859  14.901
71967W        W31503  44.442   3.349  12.093
71968W        W31504   4.438  16.096   0.933
71969W        W31505  19.194  36.470  12.040
71970W        W31506   3.881  24.685   4.706
71971W        W31507   6.901  33.386   0.448
71972W        W31508   4.342   1.772   3.657
71973W        W31509   6.865  33.446   1.331
71974W        W31510  18.055  13.114  13.964
71975W        W31511  40.888  25.651   0.283
71976W        W31512   5.858  43.868  13.318
71977W        W31513  14.094  37.544  10.986
71978W        W31514  24.710   4.801   2.391
71979W        W31515   1.438  11.329  12.402
71980W        W31516   3.730  23.622  11.480
71981W        W31517  15.264  16.160  13.413
71982W        W31518   0.975  11.244  14.325
71983W        W31519  10.846   8.198  14.801
71984W        W31520  10.874   1.347  14.934
71985W        W31521   7.325   8.680  11.380
71986W        W31522   9.791  42.464  12.087
71987W        W31523   5.848  10.372   0.470
71988W        W31524  13.231  22.724  14.285
71989W        W31525  24.098   6.694  11.388
71990W        W31526   5.301  10.777  10.970
71991W        W31527  24.698  16.647  11.469
71992W        W31528  24.130  33.582  10.511
71993W        W31529  15.674  28.016   3.818
71994W        W31530  23.241  39.496  12.922
71995W        W31531   7.187  26.132  14.850
71996W        W31532  13.658  40.400  12.910
71997W        W31533  10.309  19.171   2.663
71998W        W31534  22.232  12.281  11.464
71999W        W31535  22.608  32.626   4.664
72000W        W31536  43.800  12.753  11.910
72001W        W31537  33.914  30.072  14.771
72002W        W31538  43.394  24.651  13.832
72003W        W31539  30.484   6.754   3.232
72004W        W31540  38.353  34.945  11.888
72005W        W31541  23.605  14.802   2.736
72006W        W31542  30.574   7.274   3.377
72007W        W31543  20.143  28.945  10.550
72008W        W31544  32.399  43.909  11.887
72009W        W31545  43.796   1.357   3.641
72010W        W31546  44.416   2.406  11.982
72011W        W31547  38.944   8.223  13.837
72012W        W31548  13.150  35.897   4.301
72013W        W31549  31.423   7.272  10.903
72014W        W31550   8.806   5.909   4.190
72015W        W31551   3.849  33.505  11.592
72016W        W31552  14.181  27.548   2.763
72017W        W31553  42.998   2.952  11.998
72018W        W31554  43.503  16.163   3.815
72019W        W31555   2.863  22.710  11.072
72020W        W31556  20.724  35.533  13.009
72021W        W31557  37.483   0.344   0.875
72022W        W31558  13.641  32.077  10.096
72023W        W31559   8.388  42.954   1.717
72024W        W31560  38.939   4.853   2.241
72025W        W31561  41.912  24.549  14.457
72026W        W31562  35.967   8.225   4.183
72027W        W31563  19.712  19.776   0.421
72028W        W31564   7.753  10.765  10.407
72029W        W31565  25.489   6.766   1.255
72030W        W31566  31.402  11.635   3.704
72031W        W31567  31.007  16.584  14.972
72032W        W31568  22.100  27.052  11.050
72033W        W31569   8.406   3.769   1.289
72034W        W31570  41.484   0.976   2.178
72035W        W31571   8.849  27.078  13.421
72036W        W31572  41.797  35.037   1.273
72037W        W31573   3.781  11.628  14.832
72038W        W31574  11.197  43.000  10.496
72039W        W31575  26.666  14.808  10.542
72040W        W31576  31.437  26.588  14.466
72041W        W31577   5.194  32.080  10.600
72042W        W31578  37.887  31.528  13.404
72043W        W31579   2.367  38.042   4.145
72044W        W31580   0.752  37.374  14.861
72045W        W31581   1.748   4.217   2.835
72046W        W31582  33.610  24.552  12.882
72047W        W31583  17.210  38.471  10.947
72048W        W31584   2.783  31.435  12.881
72049W        W31585   5.361   5.763  10.513
72050W        W31586  15.249  10.818   4.732
72051W        W31587   0.262   4.723   4.692
72052W        W31588  37.045   8.289   4.137
72053W        W31589  29.156  11.848  13.357
72054W        W31590  41.878  40.433  12.491
72055W        W31591  17.776  21.197  12.963
72056W        W31592   3.802  21.526  14.949
72057W        W31593  33.956   5.366   3.727
72058W        W31594   8.814  26.082   1.283
72059W        W31595  15.582  37.520  12.408
72060W        W31596  19.268  14.304  11.916
72061W        W31597  42.315  10.775   3.672
72062W        W31598  43.415   6.734  14.403
72063W        W31599  20.193  35.564   4.792
72064W        W31600  10.364   0.473  14.463
72065W        W31601  43.774  18.649   3.662
72066W        W31602  19.142  17.674  11.087
72067W        W31603  33.481  23.169   0.457
72068W        W31604  27.121  41.347   5.259
72069W        W31605  35.920  40.369  10.948
72070W        W31606  32.579   3.873   0.442
72071W        W31607  14.659  19.170   1.310
72072W        W31608  11.622   0.267   0.477
72073W        W31609  36.906   1.401  12.853
72074W        W31610   1.930   8.803   2.195
72075W        W31611  34.910   0.753  10.500
72076W        W31612  21.747  25.561  10.525
72077W        W31613   6.352  18.095   0.842
72078W        W31614  18.214  39.469   1.701
72079W        W31615  42.442  30.488   1.892
72080W        W31616  23.213  40.990   3.311
72081W        W31617  34.553  13.671  14.405
72082W        W31618  13.606  20.561   1.921
72083W        W31619   9.741  27.486   5.126
72084W        W31620   4.864  13.609   1.870
72085W        W31621  21.252  34.870  14.480
72086W        W31622  10.271  31.616  14.492
72087W        W31623   5.739  14.292  11.007
72088W        W31624  29.545  15.147   4.223
72089W        W31625  44.918   6.819   0.821
72090W        W31626  36.480   9.228   1.389
72091W        W31627   7.707  28.637  12.895
72092W        W31628   9.319  20.271   2.337
72093W        W31629   6.768  13.225  14.878
72094W        W31630  10.742   4.899   5.213
72095W        W31631  34.881  23.198   0.854
72096W        W31632  32.596  20.038  14.940
72097W        W31633  34.049  43.450  14.340
72098W        W31634  33.510  10.708  10.898
72099W        W31635  27.686  23.025   4.289
72100W        W31636   2.258  28.140  10.421
72101W        W31637  28.605   5.297  11.438
72102W        W31638  29.569  25.970   3.213
72103W        W31639  42.860  39.365   3.279
72104W        W31640  32.403  37.574  12.538
72105W        W31641  38.571  35.373   3.741
72106W        W31642   5.432  39.515  13.048
72107W        W31643  44.887  42.797   3.385
72108W        W31644  12.646   0.317   0.815
72109W        W31645  15.267  26.523  14.030
72110W        W31646  41.510  26.538  13.322
72111W        W31647   7.810  27.551   2.206
72112W        W31648  15.662   3.362   0.751
72113W        W31649   7.364  34.108   0.911
72114W        W31650   6.391   1.888   4.259
72115W        W31651   9.820   8.351   5.085
72116W        W31652  41.892  26.065   4.217
72117W        W31653  35.004   4.940  12.957
72118W        W31654  29.069   9.890  13.042
72119W        W31655  27.494  28.640   2.899
72120W        W31656  21.054  31.982  13.846
72121W        W31657  24.135  36.089   0.287
72122W        W31658  14.149  29.430   3.215
72123W        W31659  39.903   1.819   2.364
72124W        W31660  13.180   8.397  10.923
72125W        W31661  15.660  26.560   4.187
72126W        W31662   5.933  16.254   3.714
72127W        W31663   3.930  35.889   3.192
72128W        W31664  44.388  17.240   0.340
72129W        W31665  41.302  20.186   3.739
72130W        W31666  12.618   8.740  13.448
72131W        W31667   6.411  22.189  14.415
72132W        W31668   5.215  29.112  11.023
72133W        W31669   6.420  14.142   4.682
72134W        W31670  36.442  38.984  12.453
72135W        W31671  36.025  22.548   4.130
72136W        W31672  18.698  38.969   2.892
72137W        W31673   3.730  14.745  11.070
72138W        W31674   2.761  39.819  11.859
72139W        W31675   5.429  18.121  14.993
72140W        W31676  12.742  32.634   3.226
72141W        W31677  35.855   7.228   2.412
72142W        W31678   7.330  10.377  14.473
72143W        W31679   7.401  27.167   1.711
72144W        W31680  42.382  21.579   2.853
72145W        W31681   4.363  11.648  14.827
72146W        W31682  32.393  25.530   4.265
72147W        W31683  16.072  22.077   2.665
72148W        W31684  11.679  14.123  14.920
72149W        W31685  12.681  23.711  13.915
72150W        W31686   1.282  27.167  12.969
72151W        W31687  20.209  25.028  10.589
72152W        W31688  26.073  43.766   0.397
72153W        W31689  20.222   3.894   4.622
72154W        W31690  10.162  35.390  11.113
72155W        W31691  21.251   7.385  11.576
72156W        W31692  15.602  22.562  12.468
72157W        W31693  12.727  31.137  11.875
72158W        W31694   3.327  17.556   3.326
72159W        W31695   7.241   2.781   4.152
72160W        W31696  24.227   3.883   1.917
72161W        W31697  16.170  28.515  11.488
72162W        W31698  15.101  16.141  11.112
72163W        W31699  33.486  41.905  10.436
72164W        W31700  25.050  16.646  11.978
72165W        W31701   4.204  11.642  10.571
72166W        W31702   9.761  19.283   3.870
72167W        W31703  40.040   0.784   1.732
72168W        W31704  10.307  10.346   2.291
72169W        W31705   7.804   7.316  13.429
72170W        W31706  27.019  28.092   0.882
72171W        W31707  10.832  22.584  10.512
72172W        W31708  18.704  23.123   1.280
72173W        W31709  13.819  13.817  13.885
72174W        W31710  23.083  29.113   2.814
72175W        W31711  12.221  37.938   1.309
72176W        W31712  29.950   7.722  14.446
72177W        W31713  19.713  31.585   0.779
72178W        W31714  30.573  33.941   3.794
72179W        W31715  10.875   6.263   3.183
72180W        W31716  15.595   9.385   2.249
72181W        W31717  35.380  18.682  10.461
72182W        W31718   0.312   6.814   3.221
72183W        W31719  43.470  31.060   2.836
72184W        W31720   4.362   2.408   3.740
72185W        W31721  12.656  10.282   3.733
72186W        W31722  10.788  11.138   0.395
72187W        W31723  41.522  16.300  10.999
72188W        W31724  41.411   9.198   2.419
72189W        W31725  21.046  29.998  10.486
72190W        W31726  18.574   9.872   2.847
72191W        W31727  23.172  11.709  14.850
72192W        W31728  14.718  21.235  14.963
72193W        W31729   1.295  20.715   4.758
72194W        W31730  41.034   5.264  13.350
72195W        W31731  32.949  30.499   1.710
72196W        W31732  32.546  10.178   1.386
72197W        W31733  12.164  14.616  11.492
72198W        W31734  32.061  37.848   1.924
72199W        W31735  12.770  32.397   0.907
72200W        W31736  40.457  44.898   1.277
72201W        W31737   6.404   0.295  12.903
72202W        W31738  27.083  43.831  12.444
72203W        W31739  40.845  44.436   0.401
72204W        W31740   8.389  14.797  12.081
72205W        W31741   0.467  41.025   3.237
72206W        W31742  43.516  24.117   0.888
72207W        W31743  31.926  14.118   1.309
72208W        W31744   8.306  26.062  12.020
72209W        W31745  37.976  29.483  14.436
72210W        W31746  26.471  34.068  12.550
72211W        W31747  20.134  44.456   0.311
72212W        W31748  32.613  37.832  14.460
72213W        W31749   5.268   6.900  14.863
72214W        W31750  28.575  36.355  12.368
72215W        W31751  35.940  15.728  11.455
72216W        W31752  25.526  30.415   0.858
72217W        W31753  24.545  32.116   3.332
72218W        W31754  38.492  31.152  12.535
72219W        W31755  22.186   8.229  11.461
72220W        W31756   2.952  23.121  14.890
72221W        W31757  18.643  38.452   2.242
72222W        W31758  44.795  22.545  13.903
72223W        W31759  27.685  24.501   2.869
72224W        W31760  41.341  21.026   1.240
72225W        W31761   6.908  37.415   1.235
72226W        W31762   5.342   7.376   3.762
72227W        W31763  15.124  20.608   3.687
72228W        W31764  16.105  16.772  14.885
72229W        W31765   1.340  43.949  13.870
72230W        W31766  40.526  34.403  11.098
72231W        W31767  19.230  28.952   3.244
72232W        W31768  10.269  25.200  11.117
72233W        W31769  36.449  12.309   1.759
72234W        W31770   5.222  21.594   3.237
72235W        W31771  37.941   4.412   2.722
72236W        W31772  20.087   2.914  13.894
72237W        W31773  20.033  21.698  12.561
72238W        W31774  36.947  22.084   4.275
72239W        W31775  13.118  26.692   5.303
72240W        W31776  12.705  17.182   0.953
72241W        W31777   8.255  11.799  12.929
72242W        W31778  31.586  11.651   0.276
72243W        W31779  35.359   2.828  10.592
72244W        W31780  10.850  15.794  13.453
72245W        W31781   0.370  25.975  12.837
72246W        W31782  28.468  22.015   2.261
72247W        W31783  42.914  31.114  12.037
72248W        W31784  10.687  25.569  14.389
72249W        W31785   6.230  25.614   1.812
72250W        W31786  25.145  40.473  10.416
72251W        W31787  15.775   5.363  14.775
72252W        W31788   8.267  42.804   0.367
72253W        W31789  31.587  21.111   3.713
72254W        W31790  12.253   5.253  11.380
72255W        W31791   3.312  35.987  13.474
72256W        W31792   7.354   4.277  14.440
72257W        W31793  13.792  19.129   0.791
72258W        W31794  14.781  12.635  14.323
72259W        W31795  36.051  19.270  11.462
72260W        W31796  36.844  27.609   2.212
72261W        W31797  22.044  17.207  10.556
72262W        W31798  20.666  24.518   2.711
72263W        W31799  18.590   5.914   4.620
72264W        W31800   4.831  15.295   3.242
72265W        W31801  19.564   7.245   0.351
72266W        W31802  41.329  16.247  10.516
72267W        W31803  42.926   1.412   2.753
72268W        W31804  15.207  10.795   0.440
72269W        W31805   7.213   5.409  10.971
72270W        W31806   3.314   8.212   3.193
72271W        W31807   0.344   7.362   1.212
72272W        W31808   8.867  28.961  11.922
72273W        W31809   2.898  26.189  10.017
72274W        W31810   9.777   4.413  12.358
72275W        W31811  18.295  25.582  14.397
72276W        W31812  42.994  32.963   0.408
72277W        W31813  19.687  31.604  12.344
72278W        W31814  28.944  40.329  13.052
72279W        W31815  23.683   7.706   0.943
72280W        W31816   7.292  22.606   3.685
72281W        W31817  22.133  10.828   0.301
72282W        W31818  44.371  22.126   0.382
72283W        W31819  42.290  12.203   2.371
72284W        W31820  37.449  12.304   4.665
72285W        W31821  33.934  38.330   3.309
72286W        W31822  42.971   4.736   2.293
72287W        W31823  22.135  18.279   9.566
72288W        W31824  26.645  42.843   2.692
72289W        W31825  41.438  33.962  12.957
72290W        W31826  25.038  14.207  12.390
72291W        W31827  33.433   3.763   3.817
72292W        W31828  23.551  22.031   4.831
72293W        W31829  14.809  16.683  12.003
72294W        W31830  42.798  24.047  12.883
72295W        W31831  36.866  14.298   3.248
72296W        W31832  44.915  31.978  12.093
72297W        W31833  37.904  20.148   4.186
72298W        W31834  41.998  39.879  14.331
72299W        W31835  42.485   4.250   4.658
72300W        W31836  39.969  24.190  13.316
72301W        W31837  36.068  35.971   4.123
72302W        W31838  29.433  21.570  14.013
72303W        W31839  22.638  37.044   0.261
72304W        W31840  40.400   9.240  14.425
72305W        W31841  30.548  20.677  11.388
72306W        W31842  25.010  10.338  12.961
72307W        W31843  23.695   3.810   1.862
72308W        W31844  15.731  18.634   1.759
72309W        W31845  34.496   5.246  12.431
72310W        W31846  17.107  10.213  14.325
72311W        W31847   4.423  39.814  14.759
72312W        W31848  32.085  38.964  11.394
72313W        W31849  44.496  22.651   3.827
72314W        W31850   6.915  28.628  13.811
72315W        W31851  11.733  42.897   9.975
72316W        W31852  42.796   8.250  11.006
72317W        W31853  44.307  23.635   3.370
72318W        W31854  43.388  34.594   2.799
72319W        W31855  11.637  37.945  11.017
72320W        W31856   5.195  33.626  12.997
72321W        W31857  26.971  33.548  10.486
72322W        W31858  20.680  43.983   1.251
72323W        W31859  42.428   4.302  13.453
72324W        W31860  17.735  17.104   4.666
72325W        W31861  23.681  24.142  10.984
72326W        W31862  26.026  39.376   1.434
72327W        W31863  30.119  29.122  14.475
72328W        W31864  11.638  13.306   1.228
72329W        W31865  36.529  18.169   4.763
72330W        W31866   4.867  31.933  13.957
72331W        W31867   6.814  26.189   2.718
72332W        W31868  34.533  40.860  13.013
72333W        W31869   1.369   0.842  10.927
72334W        W31870  21.169  44.452   3.804
72335W        W31871   6.244  19.061   4.268
72336W        W31872  33.538  42.818  11.868
72337W        W31873  34.606  24.571   4.317
72338W        W31874  22.684  41.808  12.966
72339W        W31875  44.476  34.445  10.949
72340W        W31876  42.432  18.650   2.209
72341W        W31877  28.679   2.356   0.470
72342W        W31878  21.690  27.502   3.255
72343W        W31879  16.688  32.893   0.868
72344W        W31880  39.503  13.696   0.274
72345W        W31881  21.058  34.106  14.337
72346W        W31882  30.014   7.872  12.559
72347W        W31883  41.899  41.386  11.965
72348W        W31884   4.273  16.232  13.892
72349W        W31885  22.006   1.282   9.974
72350W        W31886  37.381  12.168   3.809
72351W        W31887  15.228  40.978   3.205
72352W        W31888  15.761   3.805  12.095
72353W        W31889  14.819  35.865  14.431
72354W        W31890  22.668  32.932  12.445
72355W        W31891   9.186   0.340   3.183
72356W        W31892  41.893  35.881   0.949
72357W        W31893  29.959  17.716   1.425
72358W        W31894  16.246  25.028   1.246
72359W        W31895   6.355  36.544  12.082
72360W        W31896  10.661  34.097   3.756
72361W        W31897  27.657  33.961  14.860
72362W        W31898  38.964   4.803  11.903
72363W        W31899  16.213   4.259   3.807
72364W        W31900  32.084  32.602  11.084
72365W        W31901   2.258   3.440   3.157
72366W        W31902  29.430   7.220   2.803
72367W        W31903   7.262   1.751  14.843
72368W        W31904  41.367  43.903  14.854
72369W        W31905  37.463  20.547   4.154
72370W        W31906  18.689  25.053  10.119
72371W        W31907  32.972  29.446   0.911
72372W        W31908   8.246  21.057  10.974
72373W        W31909   4.887   7.378   4.257
72374W        W31910  14.156  37.877  10.507
72375W        W31911  24.022  18.698   0.800
72376W        W31912  19.734  33.125  13.497
72377W        W31913  19.727  36.099  14.339
72378W        W31914  25.051  28.156   3.648
72379W        W31915  41.447  19.235   1.395
72380W        W31916  37.510  38.889  13.379
72381W        W31917   7.757  34.441   0.358
72382W        W31918   6.341  15.671   0.932
72383W        W31919  27.470   9.700  13.330
72384W        W31920   5.366  32.016   0.463
72385W        W31921  22.654  39.836  14.821
72386W        W31922  37.434  33.932   1.367
72387W        W31923   0.492  18.189  11.379
72388W        W31924  13.141  29.125  13.851
72389W        W31925  39.554   0.881   2.364
72390W        W31926  17.209   2.408  14.808
72391W        W31927   5.872   7.242   4.685
72392W        W31928   5.255  20.079  10.574
72393W        W31929   0.895  37.044  13.902
72394W        W31930  39.516  12.207   3.752
72395W        W31931  21.106  33.923   0.783
72396W        W31932   0.914  13.821   3.672
72397W        W31933  42.505  25.576   3.791
72398W        W31934  35.007  12.176   1.826
72399W        W31935  29.933  19.191  13.352
72400W        W31936   9.231  41.926  13.898
72401W        W31937  23.205  21.024   2.361
72402W        W31938  29.035  21.638  13.858
72403W        W31939   2.262  27.942   0.326
72404W        W31940   6.853  15.814   0.748
72405W        W31941  20.589  21.021  10.900
72406W        W31942  15.096  20.102   3.640
72407W        W31943  40.314  40.044  12.976
72408W        W31944  28.933   0.949   0.430
72409W        W31945  19.132   3.895  13.031
72410W        W31946  13.649  13.304   4.147
72411W        W31947  34.926  24.053   3.870
72412W        W31948  10.826  23.233   0.854
72413W        W31949   9.386  37.831  13.810
72414W        W31950  22.691  27.543  14.905
72415W        W31951   5.356  38.458  10.439
72416W        W31952  16.192  26.981   1.899
72417W        W31953  43.014  30.096   3.805
72418W        W31954  33.886  37.997  14.010
72419W        W31955  13.143  21.600  12.994
72420W        W31956  40.976  39.002   3.864
72421W        W31957  12.696   1.262  11.053
72422W        W31958   4.916  13.807   2.196
72423W        W31959   1.845  19.058   0.927
72424W        W31960  19.044  16.711   2.674
72425W        W31961  35.386  10.361  14.364
72426W        W31962  29.991  43.467  11.545
72427W        W31963  41.966  23.239  13.370
72428W        W31964  37.847  28.467   3.759
72429W        W31965   8.328   6.717   4.760
72430W        W31966  34.049  20.211   1.719
72431W        W31967   0.370   6.821  14.381
72432W        W31968   5.231  32.403   4.340
72433W        W31969  16.663  14.111   4.293
72434W        W31970  43.898  37.519  13.545
72435W        W31971  41.889  35.947  13.814
72436W        W31972  10.834  24.121   4.198
72437W        W31973  33.550   6.911   2.763
72438W        W31974  31.036  22.544  13.396
72439W        W31975  43.813  18.259  14.366
72440W        W31976  11.683  34.990  11.897
72441W        W31977   3.311   1.854   0.397
72442W        W31978  22.090   2.334   2.401
72443W        W31979   0.909  33.927   1.265
72444W        W31980   9.885  19.124  13.004
72445W        W31981   0.810  12.297   3.330
72446W        W31982   4.749  22.189   1.821
72447W        W31983  10.867  41.014   1.923
72448W        W31984  12.724  38.373   3.849
72449W        W31985  29.007  26.690  11.601
72450W        W31986  39.426   6.805  12.491
72451W        W31987  35.981  42.924  11.995
72452W        W31988   6.796  10.216   4.769
72453W        W31989  14.106  27.184  11.376
72454W        W31990  31.075  34.462   9.961
72455W        W31991  10.351   0.793   3.836
72456W        W31992   2.865  32.141   2.354
72457W        W31993  17.114  13.330  13.331
72458W        W31994  41.510  31.590  10.408
72459W        W31995  21.117  32.123  11.955
72460W        W31996   9.730  15.093   4.297
72461W        W31997  35.028  36.410   0.481
72462W        W31998  20.655  23.718  13.040
72463W        W31999  33.035  17.615   2.765
72464W        W32000  30.464  15.775   1.236
72465W        W32001  13.338  19.626   4.295
72466W        W32002   7.796  34.023   2.823
72467W        W32003   4.213  30.001   1.401
72468W        W32004   7.331   8.705  14.479
72469W        W32005  39.812   5.321  11.079
72470W        W32006  16.672  13.238  13.376
72471W        W32007  44.002   1.369   2.261
72472W        W32008  11.188   8.831  11.464
72473W        W32009  36.358  24.683   2.307
72474W        W32010   5.869   2.231   1.754
72475W        W32011  39.435  23.092  11.390
72476W        W32012  21.149  29.552   1.245
72477W        W32013  34.919  10.366   3.792
72478W        W32014  10.289  35.924   4.116
72479W        W32015  33.552  13.681   3.674
72480W        W32016   6.285  13.179  14.822
72481W        W32017  37.047  33.920  10.477
72482W        W32018  16.797  13.763  11.967
72483W        W32019  20.752   2.881   0.446
72484W        W32020  13.801  36.396  14.430
72485W        W32021  39.057   0.887   2.283
72486W        W32022  15.746   8.235  14.796
72487W        W32023   2.393  17.261  13.880
72488W        W32024  39.914  12.783   2.224
72489W        W32025  31.153  21.102   0.929
72490W        W32026  36.948   4.812  13.835
72491W        W32027  10.847  36.860  11.869
72492W        W32028  44.883  14.249  10.558
72493W        W32029  28.951   8.789  11.061
72494W        W32030   0.758  22.651   4.597
72495W        W32031  16.656   8.680   5.132
72496W        W32032  27.690  42.422  14.852
72497W        W32033   3.225  39.994   2.877
72498W        W32034  29.462  11.355   2.901
72499W        W32035  37.567  12.638  12.428
72500W        W32036  23.192  32.564   4.212
72501W        W32037  44.369  36.897  12.082
72502W        W32038  38.499  34.532   4.293
72503W        W32039  27.488  34.580  11.874
72504W        W32040  26.543  44.448   4.728
72505W        W32041   6.735  24.194  12.859
72506W        W32042  17.244  17.200  12.958
72507W        W32043   5.408  42.489  13.426
72508W        W32044  17.672  23.730  13.391
72509W        W32045  39.950   8.775   0.453
72510W        W32046  42.910  15.313   0.438
72511W        W32047  26.020  11.368  14.813
72512W        W32048  38.544  22.527  14.350
72513W        W32049   3.937  41.389   5.294
72514W        W32050  18.225   5.211   4.191
72515W        W32051  21.596  26.046   1.446
72516W        W32052   4.747  12.799  10.969
72517W        W32053  24.493  38.863  11.919
72518W        W32054  33.454   8.775  14.489
72519W        W32055  11.671  39.440   3.655
72520W        W32056  15.789  25.683   0.296
72521W        W32057  37.559  34.930  11.085
72522W        W32058  18.255  10.817  12.481
72523W        W32059  11.862  41.528  14.392
72524W        W32060  10.275   6.323  10.463
72525W        W32061  44.776  14.757  13.919
72526W        W32062  38.517  24.502   1.899
72527W        W32063   6.418  32.107   2.240
72528W        W32064  27.684   6.281  13.009
72529W        W32065  16.613  43.407   3.255
72530W        W32066  23.087  27.045  14.905
72531W        W32067  10.814   9.678   3.354
72532W        W32068   1.933  26.480  10.428
72533W        W32069  26.472  12.649  12.951
72534W        W32070  43.407   9.231  13.406
72535W        W32071  43.764  28.028   3.230
72536W        W32072  29.163  34.904  12.950
72537W        W32073  22.535  40.932   2.402
72538W        W32074  43.867  22.229   2.272
72539W        W32075  41.791  19.535  10.989
72540W        W32076  42.317  21.596  14.476
72541W        W32077   9.255  44.317   4.166
72542W        W32078  28.161  42.356   0.308
72543W        W32079   8.678   6.741   3.180
72544W        W32080  31.954  42.990  12.517
72545W        W32081  32.634  33.069  13.382
72546W        W32082   4.733  42.323  13.919
72547W        W32083  42.391  12.792   0.472
72548W        W32084  16.757  27.054  14.980
72549W        W32085  23.544   3.291   2.180
72550W        W32086  35.586   6.371   3.828
72551W        W32087  36.969  16.693  12.389
72552W        W32088   1.855   0.906   3.155
72553W        W32089  39.515  17.198  10.077
72554W        W32090   4.914  12.174   2.320
72555W        W32091  13.812  35.084   3.233
72556W        W32092  22.578  20.683  13.426
72557W        W32093  33.459  40.421   1.925
72558W        W32094  37.504  18.291  12.965
72559W        W32095   5.864   0.376  11.589
72560W        W32096  33.102  34.424   1.368
72561W        W32097  23.492  42.519   1.390
72562W        W32098  11.630  25.128  14.943
72563W        W32099  21.136  18.180   2.815
72564W        W32100  23.677  27.454   2.887
72565W        W32101  31.556  42.489   0.368
72566W        W32102  34.951  25.149  11.920
72567W        W32103   2.432  22.223   0.780
72568W        W32104  10.367  38.915  13.353
72569W        W32105   4.426   7.208  11.073
72570W        W32106  23.730  12.765   4.265
72571W        W32107  20.105   8.883   3.736
72572W        W32108  28.058  43.481  12.434
72573W        W32109  28.065  14.248  13.384
72574W        W32110  18.559   3.868   4.738
72575W        W32111  13.110  13.335  13.011
72576W        W32112   0.493  26.668   3.151
72577W        W32113  11.367   1.482   4.620
72578W        W32114  32.427  15.615   1.724
72579W        W32115  24.082  21.152  14.787
72580W        W32116  26.142  25.585   2.338
72581W        W32117  19.105  34.012  13.014
72582W        W32118  21.707   3.814   2.336
72583W        W32119  25.157  21.208  10.403
72584W        W32120   5.866  24.229  11.068
72585W        W32121  18.058   7.254  11.526
72586W        W32122   8.672  27.468  12.027
72587W        W32123  32.604  37.531  13.052
72588W        W32124   3.337  20.230   4.724
72589W        W32125   3.912  34.410  14.888
72590W        W32126  24.001  39.014   4.318
72591W        W32127  44.977  20.165   2.686
72592W        W32128   9.389   3.735  11.390
72593W        W32129  34.545   1.448  13.516
72594W        W32130  29.450  25.531  10.984
72595W        W32131  33.454   1.749  11.040
72596W        W32132   8.865  18.580  10.993
72597W        W32133  28.167   6.384   4.310
72598W        W32134   4.738   5.884   3.347
72599W        W32135  19.703  14.258   1.431
72600W        W32136  31.517  29.500   3.179
72601W        W32137  14.323   0.358   0.247
72602W        W32138  18.604   0.282   4.758
72603W        W32139   4.760  13.665   4.230
72604W        W32140  25.180  27.111   1.413
72605W        W32141  24.693  23.677   1.433
72606W        W32142  11.627  30.030  12.093
72607W        W32143   7.227  31.117   0.804
72608W        W32144  10.819   8.818   1.323
72609W        W32145  21.548  20.540  14.822
72610W        W32146  42.933  41.903   5.244
72611W        W32147  21.259   6.255  14.955
72612W        W32148  18.603  16.075   4.272
72613W        W32149  13.810  43.982  13.374
72614W        W32150   9.687  16.767   2.788
72615W        W32151  20.751   9.769  12.037
72616W        W32152  24.202  15.645   5.139
72617W        W32153  29.531  44.368   4.760
72618W        W32154  41.005  18.111  11.553
72619W        W32155  38.413  20.045  13.476
72620W        W32156  19.281   0.842  14.892
72621W        W32157  22.505  19.251   2.689
72622W        W32158  31.470  25.637  11.857
72623W        W32159  23.130  17.154   0.381
72624W        W32160  20.576  28.156   0.884
72625W        W32161  29.046  40.481  13.913
72626W        W32162  18.166  15.806  14.807
72627W        W32163  14.764  26.094   4.303
72628W        W32164  13.230  26.640  14.940
72629W        W32165  19.098   6.197  14.450
72630W        W32166   8.771   9.866   4.283
72631W        W32167   5.296   4.764   1.815
72632W        W32168  23.555  32.935   0.775
72633W        W32169  10.143  13.194   5.319
72634W        W32170  14.310  26.029   1.368
72635W        W32171   0.891   2.261  11.942
72636W        W32172  15.316  35.105   4.141
72637W        W32173  35.904  39.317  13.896
72638W        W32174  17.722   9.277  10.470
72639W        W32175  26.137  25.051   4.725
72640W        W32176  10.338  31.597   1.234
72641W        W32177  27.954   2.890  12.990
72642W        W32178  39.506  22.561  10.949
72643W        W32179  27.012  40.419   4.796
72644W        W32180  33.931  41.416  10.916
72645W        W32181  38.875   8.369   5.170
72646W        W32182  41.802  18.685   4.645
72647W        W32183  39.993  42.452   2.863
72648W        W32184  12.766  17.270  10.965
72649W        W32185  44.984  14.112  11.959
72650W        W32186  32.962  13.787   2.706
72651W        W32187   4.910  18.768   1.846
72652W        W32188   2.381  28.945   3.239
72653W        W32189  11.651  15.133  12.875
72654W        W32190  19.228   2.358   1.406
72655W        W32191  38.879  34.371  12.904
72656W        W32192  13.275  25.153  12.963
72657W        W32193  37.023  18.601  12.853
72658W        W32194  16.806  35.468  14.883
72659W        W32195   4.265  10.380   4.613
72660W        W32196  40.399  36.504   1.782
72661W        W32197  15.219   3.891   2.300
72662W        W32198  23.029  31.936   3.820
72663W        W32199   3.954   1.314  13.427
72664W        W32200  13.126  43.952  14.872
72665W        W32201   7.830  18.741   4.213
72666W        W32202  43.902  12.847   1.391
72667W        W32203  28.468  14.745   1.723
72668W        W32204  22.508  10.666   0.413
72669W        W32205  29.995   6.765   0.916
72670W        W32206   2.395  20.565   1.258
72671W        W32207  17.696   3.423  11.876
72672W        W32208  22.574   4.766   0.891
72673W        W32209  22.609  28.559   2.731
72674W        W32210  15.635  14.295   0.736
72675W        W32211  10.354  19.645  12.400
72676W        W32212  25.520  34.978   2.721
72677W        W32213  28.541  34.951   0.443
72678W        W32214  22.997  30.071   0.480
72679W        W32215  10.637  15.227   3.836
72680W        W32216  24.222  12.803  14.839
72681W        W32217  22.587  15.646   1.895
72682W        W32218  39.897   1.335   2.683
72683W        W32219  14.602  43.379   0.796
72684W        W32220  10.285   0.454   1.765
72685W        W32221  23.194  26.483   0.287
72686W        W32222  24.994  41.895   1.235
72687W        W32223   6.271   2.289   1.710
72688W        W32224  27.069  11.634   1.799
72689W        W32225  34.441  37.973  10.473
72690W        W32226  20.710  24.670   2.266
72691W        W32227  36.551   7.706  12.457
72692W        W32228  40.426  12.641  11.887
72693W        W32229  40.338  41.474   5.196
72694W        W32230  30.926  17.706  14.505
72695W        W32231   2.951  13.789  14.513
72696W        W32232   0.796  15.768   4.340
72697W        W32233   2.850   5.894   1.708
72698W        W32234  27.113  30.984  11.985
72699W        W32235   8.789   6.206  11.939
72700W        W32236  33.007  44.477   4.806
72701W        W32237  12.829  13.155  11.865
72702W        W32238  25.104  19.618  12.472
72703W        W32239  36.847  40.915  13.534
72704W        W32240   1.305   8.223  13.434
72705W        W32241  21.075  18.591   0.765
72706W        W32242  13.732   3.239  11.862
72707W        W32243   6.738   6.409  12.055
72708W        W32244  18.103  15.725  13.516
72709W        W32245  42.792  18.291  12.052
72710W        W32246  32.040  22.218   9.489
72711W        W32247  44.798  11.361  14.925
72712W        W32248  22.625  27.682  10.454
72713W        W32249  38.879  41.307   0.781
72714W        W32250   5.327  11.864   0.809
72715W        W32251  27.986  10.729   0.892
72716W        W32252  33.961  26.136  11.989
72717W        W32253  42.370  23.201  10.576
72718W        W32254  11.776  17.158   2.416
72719W        W32255   8.745  42.860   4.691
72720W        W32256  36.351  19.724  12.441
72721W        W32257   2.869  28.092  13.879
72722W        W32258  11.677  39.480   1.796
72723W        W32259  44.775   0.758  14.924
72724W        W32260   5.825  41.020   2.229
72725W        W32261  37.936   2.364  14.474
72726W        W32262  17.583  37.390   2.289
72727W        W32263  38.021   1.956  10.131
72728W        W32264   0.405  15.108  10.440
72729W        W32265   8.368  41.404   0.961
72730W        W32266  35.104  28.004   2.209
72731W        W32267  18.764  36.914  11.047
72732W        W32268  23.663  26.539   2.784
72733W        W32269  29.513  39.837  14.481
72734W        W32270  33.439  15.106  13.324
72735W        W32271   4.274  16.188   4.610
72736W        W32272   5.291  30.621   2.330
72737W        W32273  22.155   6.378   1.830
72738W        W32274  25.029  37.500   0.403
72739W        W32275   9.341  23.512   3.290
72740W        W32276  33.381   1.453  13.470
72741W        W32277  42.445   7.271   0.839
72742W        W32278  25.636  17.209  12.968
72743W        W32279  16.733  13.841   4.234
72744W        W32280   1.738  23.580   3.377
72745W        W32281  17.698  27.653   2.297
72746W        W32282  14.768  25.490  14.863
72747W        W32283  16.756   2.386  11.090
72748W        W32284  22.217  24.701  10.537
72749W        W32285  35.522   3.788  12.446
72750W        W32286  26.058  29.922  13.003
72751W        W32287  40.943  19.247  13.992
72752W        W32288   1.437  17.091   1.393
72753W        W32289   6.841  34.419   2.732
72754W        W32290  39.857   1.906   3.704
72755W        W32291  34.531  16.763   0.462
72756W        W32292   6.756  24.115  11.954
72757W        W32293  25.158   0.794  10.479
72758W        W32294  38.460  43.870   3.791
72759W        W32295  38.343  42.424   2.859
72760W        W32296  38.850  18.580  10.958
72761W        W32297  11.361  19.687   0.916
72762W        W32298  15.685   1.296  10.968
72763W        W32299  23.062  16.227  12.849
72764W        W32300  14.221  25.126   1.278
72765W        W32301  38.993  42.883   2.790
72766W        W32302  30.419  10.732   2.197
72767W        W32303  10.689  22.721   0.843
72768W        W32304  38.862  13.220  13.050
72769W        W32305  28.073  28.030   5.262
72770W        W32306   5.821   8.767  13.031
72771W        W32307   5.252  42.847  13.546
72772W        W32308   8.844  17.151   1.226
72773W        W32309   1.253   6.425  13.872
72774W        W32310  37.458   4.369  10.636
72775W        W32311   2.913   7.283   4.768
72776W        W32312  32.559  12.622  14.381
72777W        W32313  23.026  40.806  13.522
72778W        W32314  40.445  42.947  11.466
72779W        W32315  23.039  26.999   0.816
72780W        W32316  30.058   0.810   0.931
72781W        W32317  23.650  28.531  10.431
72782W        W32318   3.822   6.860   2.709
72783W        W32319  38.963  39.976   2.351
72784W        W32320  12.328  42.440   3.266
72785W        W32321  27.535  35.884   2.185
72786W        W32322  21.229  41.511  14.911
72787W        W32323  20.592  38.521  11.398
72788W        W32324  42.391  43.794   2.870
72789W        W32325  24.158  34.960  13.410
72790W        W32326   6.716   1.272   0.332
72791W        W32327  44.776  34.402   3.288
72792W        W32328   6.790  10.654  10.612
72793W        W32329  37.505  42.297   2.857
72794W        W32330  12.763   2.788  14.424
72795W        W32331   9.775  30.971  11.975
72796W        W32332  10.759   0.973  13.475
72797W        W32333  34.900   6.393   0.306
72798W        W32334  42.949   7.676   4.255
72799W        W32335   4.782  28.974  14.507
72800W        W32336  11.694   5.225  11.890
72801W        W32337   7.254  23.734  14.289
72802W        W32338  20.191  15.266  12.503
72803W        W32339  38.498   1.960  10.471
72804W        W32340  14.208  17.573   4.202
72805W        W32341  32.082   3.367  11.912
72806W        W32342   8.701   4.940   4.322
72807W        W32343  20.215  33.944   3.652
72808W        W32344   9.796   3.779   2.232
72809W        W32345   3.228  41.491   4.270
72810W        W32346  23.622  40.507   5.250
72811W        W32347   6.758   6.822  10.566
72812W        W32348  15.740  42.303   2.370
72813W        W32349  15.736  10.766  13.797
72814W        W32350  36.057  42.968  10.007
72815W        W32351   8.365  19.229  14.314
72816W        W32352  24.018   1.848   2.333
72817W        W32353   5.823  35.017   0.893
72818W        W32354   1.909   1.974   0.379
72819W        W32355  20.046  12.273   0.767
72820W        W32356  32.121  13.643  10.642
72821W        W32357  25.543  17.725  12.373
72822W        W32358  42.336  35.072   2.293
72823W        W32359  42.974   7.893   2.204
72824W        W32360  31.992  19.553  11.888
72825W        W32361   6.769  30.499   2.757
72826W        W32362   9.284   8.251   3.339
72827W        W32363  14.270  10.665   5.268
72828W        W32364  30.558  43.922   2.726
72829W        W32365   0.410  13.112  12.047
72830W        W32366  20.725  11.631   3.330
72831W        W32367  19.765  14.330   5.082
72832W        W32368  21.653   9.217   4.241
72833W        W32369  21.179   0.480   0.431
72834W        W32370  16.196  38.460  11.505
72835W        W32371  33.946  37.417   1.933
72836W        W32372  40.869  40.876   1.713
72837W        W32373   9.304  11.235  14.288
72838W        W32374  21.555  38.562   1.933
72839W        W32375  16.133  14.185   2.729
72840W        W32376  23.577  24.161   2.706
72841W        W32377  28.561  15.314  12.442
72842W        W32378  32.479   1.896  14.346
72843W        W32379  36.354  10.787  10.461
72844W        W32380  31.527   4.782   1.771
72845W        W32381  18.789  15.108   0.954
72846W        W32382  10.648  33.439  10.049
72847W        W32383  32.982  36.587  10.417
72848W        W32384  13.303  10.383  12.021
72849W        W32385  13.641  14.604  11.991
72850W        W32386   7.332  14.784  12.543
72851W        W32387  22.632   1.437   1.445
72852W        W32388  34.119  22.711  10.990
72853W        W32389  42.953  20.651  14.816
72854W        W32390  37.404   4.416  12.995
72855W        W32391   5.814  41.034   3.263
72856W        W32392  35.541  10.650   0.448
72857W        W32393  35.054   1.912   0.271
72858W        W32394  44.285  25.610  14.887
72859W        W32395   5.872  25.052   3.347
72860W        W32396  14.244  36.896  11.559
72861W        W32397  31.996  26.550  14.329
72862W        W32398  42.929  24.097   1.328
72863W        W32399  11.758   7.195   2.699
72864W        W32400  30.926  26.109   2.853
72865W        W32401  26.691  31.633  12.461
72866W        W32402  33.482  37.841  10.518
72867W        W32403  40.926  18.775  14.280
72868W        W32404  11.231  12.320   2.790
72869W        W32405  28.631  30.144  11.972
72870W        W32406   3.386  43.434   0.818
72871W        W32407  34.004  16.569   2.898
72872W        W32408   9.838  37.997  10.411
72873W        W32409  28.588  19.079   0.336
72874W        W32410  40.348  12.340   2.344
72875W        W32411  11.744  24.096   4.162
72876W        W32412  33.538  26.608  12.480
72877W        W32413  41.825  14.196   2.713
72878W        W32414  21.085   9.741  11.476
72879W        W32415  13.718  33.077   2.405
72880W        W32416  21.632  23.188  10.558
72881W        W32417  30.161   2.816   1.412
72882W        W32418  37.968  33.571  11.047
72883W        W32419  42.003   6.225  11.444
72884W        W32420  28.061  35.530   0.936
72885W        W32421  23.650   2.250  14.441
72886W        W32422  23.073  26.623  12.525
72887W        W32423  16.642  31.937   0.268
72888W        W32424   3.302  42.478   3.169
72889W        W32425  24.200  40.538   1.703
72890W        W32426  16.181  38.976  14.775
72891W        W32427  35.074  12.705   2.788
72892W        W32428  23.024  20.165   0.831
72893W        W32429  13.321  15.138  14.784
72894W        W32430   7.774  21.164  14.400
72895W        W32431  10.778  42.857  10.915
72896W        W32432  42.922   9.291  12.490
72897W        W32433  40.323  16.730   3.201
72898W        W32434  36.957   7.221   4.138
72899W        W32435  37.475  29.611  11.973
72900W        W32436  42.019  21.687   1.256
72901W        W32437  41.380  31.566   4.657
72902W        W32438   1.456  25.678  11.495
72903W        W32439  31.119  44.776   0.874
72904W        W32440  35.077  36.355   3.186
72905W        W32441  30.606  11.264  14.804
72906W        W32442   0.407   3.949   1.870
72907W        W32443  24.986  14.834   2.793
72908W        W32444  36.932  25.069   1.251
72909W        W32445  12.156  43.880  12.492
72910W        W32446  23.115  42.980  13.016
72911W        W32447  31.996  42.435  12.050
72912W        W32448  13.277  24.164  14.317
72913W        W32449  35.419  28.951  12.449
72914W        W32450  33.525  44.856   4.147
72915W        W32451  36.069  36.396   3.675
72916W        W32452  41.907  30.941  14.357
72917W        W32453   5.318  36.039  10.990
72918W        W32454   7.740  43.292   2.288
72919W        W32455  23.641  40.511   4.259
72920W        W32456   2.810  23.596   3.238
72921W        W32457  23.209  18.254   3.253
72922W        W32458  20.151   5.282   1.299
72923W        W32459  20.748  29.468  10.413
72924W        W32460  16.169  44.964  13.978
72925W        W32461  30.436  39.828  13.386
72926W        W32462  21.558  16.613   1.881
72927W        W32463  17.718  39.384  13.335
72928W        W32464   3.425  38.838   0.315
72929W        W32465   5.903   6.281   2.837
72930W        W32466   3.255  27.605   2.683
72931W        W32467   7.730  35.952   2.677
72932W        W32468   8.840  30.017  11.105
72933W        W32469  18.723  23.106  14.932
72934W        W32470  26.563  35.917   1.322
72935W        W32471   5.355  22.105   1.428
72936W        W32472  26.566  29.050  13.945
72937W        W32473   4.706  21.139  11.898
72938W        W32474   0.875  32.514  11.604
72939W        W32475   0.292  26.529  12.467
72940W        W32476   8.296  39.851   3.199
72941W        W32477  15.254  12.820   2.715
72942W        W32478  34.420  12.216   3.773
72943W        W32479  12.127  34.039   4.775
72944W        W32480   1.418  31.479   4.312
72945W        W32481  29.521  34.575   1.333
72946W        W32482  30.939  24.702  11.415
72947W        W32483   1.869   5.264   2.725
72948W        W32484  12.681   2.322   3.661
72949W        W32485   0.328  30.908   2.721
72950W        W32486  21.617  23.702  11.023
72951W        W32487  21.517  12.180   3.377
72952W        W32488  27.515  20.114  11.909
72953W        W32489  28.536  10.755   0.460
72954W        W32490   7.333   7.199  10.887
72955W        W32491  30.526   0.297   1.721
72956W        W32492   2.446   5.704   2.411
72957W        W32493   2.862  26.011  12.881
72958W        W32494  42.004  18.056  11.403
72959W        W32495  43.824  42.481   0.463
72960W        W32496  37.534  25.991  12.527
72961W        W32497  31.903  42.451   3.318
72962W        W32498   7.720  42.438  10.458
72963W        W32499   9.769  39.448  12.903
72964W        W32500  17.748   1.418  13.344
72965W        W32501  41.503  37.041   0.324
72966W        W32502  25.135  15.219  11.385
72967W        W32503  17.651  35.049  10.965
72968W        W32504  25.571  28.535   2.682
72969W        W32505  41.866  34.373  11.499
72970W        W32506   3.785  42.372   4.326
72971W        W32507  12.850  30.109  12.498
72972W        W32508   6.831  44.984  12.377
72973W        W32509  20.646  38.359   0.468
72974W        W32510  37.979  39.437   1.713
72975W        W32511  40.345  35.552  10.429
72976W        W32512  39.999  29.472  13.908
72977W        W32513  20.743   6.873  10.959
72978W        W32514  18.232   8.800   4.836
72979W        W32515   9.746  40.891   2.410
72980W        W32516  43.490   5.906  12.948
72981W        W32517   5.868  28.941   3.769
72982W        W32518  29.037   4.213   3.825
72983W        W32519  22.076  24.177   0.289
72984W        W32520  24.559  40.872  14.970
72985W        W32521  44.322   4.756   1.367
72986W        W32522  44.814  13.738   4.613
72987W        W32523  39.958  15.754  12.903
72988W        W32524  27.483   0.406   0.887
72989W        W32525  20.749   5.828   1.361
72990W        W32526  21.188   6.383  12.340
72991W        W32527  16.202  19.673   1.814
72992W        W32528  20.544  10.235   2.382
72993W        W32529  40.453   7.665  12.556
72994W        W32530  35.930  32.116   4.720
72995W        W32531   0.261   8.376  13.357
72996W        W32532  20.769  22.135   0.482
72997W        W32533  30.604  32.900  12.385
72998W        W32534  43.373  35.939   0.306
72999W        W32535  18.050  42.331   2.298
73000W        W32536   5.923  42.006   3.204
73001W        W32537  15.629  11.333  14.008
73002W        W32538  22.105   7.299   0.868
73003W        W32539  20.217  17.196  13.901
73004W        W32540  36.977  31.986   0.933
73005W        W32541  28.672   0.822  12.006
73006W        W32542   3.768  24.150  10.639
73007W        W32543  14.180  26.662   0.942
73008W        W32544  31.636  44.381  12.412
73009W        W32545  15.280  13.166  12.515
73010W        W32546  36.477  38.043  12.833
73011W        W32547   0.453  10.817   0.949
73012W        W32548  18.631  11.631   3.216
73013W        W32549  10.721  41.987   4.131
73014W        W32550  41.374  35.430  12.356
73015W        W32551  31.571  30.112   5.248
73016W        W32552   4.262  37.914  11.892
73017W        W32553  29.050  44.438   1.746
73018W        W32554  10.348   3.901   0.915
73019W        W32555   1.449   4.393  11.011
73020W        W32556  32.438  36.436   0.776
73021W        W32557  35.990  26.696  10.085
73022W        W32558  32.971  22.202  13.871
73023W        W32559  20.261  36.895   2.220
73024W        W32560   0.304  14.153  13.411
73025W        W32561  38.034  30.639  14.353
73026W        W32562  29.544  12.847   1.225
73027W        W32563   2.884  24.666   0.293
73028W        W32564  37.074  14.154  10.418
73029W        W32565  30.519  27.174   4.158
73030W        W32566   8.263  42.938  10.617
73031W        W32567  23.103  44.918   1.290
73032W        W32568  20.165  40.381   4.722
73033W        W32569  19.546   4.845   0.419
73034W        W32570  13.739  20.219  14.330
73035W        W32571   1.846   3.810   0.439
73036W        W32572   9.150   4.820  14.303
73037W        W32573  18.552  22.050  10.042
73038W        W32574  22.997  17.777   9.989
73039W        W32575  16.112  21.703  14.284
73040W        W32576  37.036  15.085   4.781
73041W        W32577   5.225  12.200   1.361
73042W        W32578  26.639  35.588   9.551
73043W        W32579  16.810  38.360  11.610
73044W        W32580  24.528  17.229   2.689
73045W        W32581  29.934  23.615  12.054
73046W        W32582   7.819   6.713   3.334
73047W        W32583  14.274  31.133  14.342
73048W        W32584  36.452  34.427   1.898
73049W        W32585  14.236  29.636   0.878
73050W        W32586  32.004   8.792  13.798
73051W        W32587  14.162  35.042  13.864
73052W        W32588  27.472  15.735  12.523
73053W        W32589  21.240  18.148   9.538
73054W        W32590  15.604  17.774   2.260
73055W        W32591   7.727   7.170   2.405
73056W        W32592  42.354  38.918  10.610
73057W        W32593   8.259  27.535   2.370
73058W        W32594  30.649  27.656  11.075
73059W        W32595   9.353  25.971  14.908
73060W        W32596  37.936   5.392   4.734
73061W        W32597   5.362  21.603   0.822
73062W        W32598  28.951   4.808  13.348
73063W        W32599   4.941  17.076  12.451
73064W        W32600  23.492  22.579   3.816
73065W        W32601  41.457  11.842   2.901
73066W        W32602  14.246  33.011   2.675
73067W        W32603  10.754  35.358  12.055
73068W        W32604  14.820  20.039   9.547
73069W        W32605  36.356   8.737  11.080
73070W        W32606   2.767  27.057   0.321
73071W        W32607  37.080  34.499   0.745
73072W        W32608  29.435   6.419  10.430
73073W        W32609  39.451  43.444  14.760
73074W        W32610  43.774   4.808   3.698
73075W        W32611  41.538   0.349  10.624
73076W        W32612  38.881  28.679   2.708
73077W        W32613  33.089  28.141   3.746
73078W        W32614  17.277  39.910  11.126
73079W        W32615  37.030  38.038   2.411
73080W        W32616  38.847   3.293   0.383
73081W        W32617   9.204  28.463   2.330
73082W        W32618  21.576   5.241  12.082
73083W        W32619   9.702   9.186   1.774
73084W        W32620  42.799  15.113   2.393
73085W        W32621  16.265  13.305  13.424
73086W        W32622  41.033  24.633   4.209
73087W        W32623   7.343  18.184  12.534
73088W        W32624  30.161  34.952  14.423
73089W        W32625   6.729  13.186   2.760
73090W        W32626  19.205  13.730   4.139
73091W        W32627  26.482  11.217   2.766
73092W        W32628   1.839  16.113   2.767
73093W        W32629  43.800  39.523  11.563
73094W        W32630   1.771  37.865   1.711
73095W        W32631   6.910  10.217  10.948
73096W        W32632   1.395  25.493   1.270
73097W        W32633  27.046  20.543  11.921
73098W        W32634  37.888  23.028   1.303
73099W        W32635  18.633  36.908   4.808
73100W        W32636  27.999  12.174   1.696
73101W        W32637   4.294   9.231  11.099
73102W        W32638  25.644  20.156   1.211
73103W        W32639  35.914  18.200  12.569
73104W        W32640  30.920  32.099   2.819
73105W        W32641  14.097  41.898   4.634
73106W        W32642  35.436  32.114  13.876
73107W        W32643  23.642  27.633   0.876
73108W        W32644  16.221  15.772  12.434
73109W        W32645  18.289  20.094   2.786
73110W        W32646  42.827  43.968   4.688
73111W        W32647  27.692  24.704  10.554
73112W        W32648  33.584  12.827  10.072
73113W        W32649  40.835  39.457  14.867
73114W        W32650  23.581  13.704   3.644
73115W        W32651  22.535   4.205   2.895
73116W        W32652  33.430  34.546   4.630
73117W        W32653   3.827  14.099  10.583
73118W        W32654   0.858   4.798  10.003
73119W        W32655  44.856  13.775   5.115
73120W        W32656  37.981  14.141   1.411
73121W        W32657  23.683   6.230   3.816
73122W        W32658   7.821  12.733   4.629
73123W        W32659  32.569  38.523   1.234
73124W        W32660  38.340  11.779  12.912
73125W        W32661  34.905  39.953  13.888
73126W        W32662  29.440  13.249   0.775
73127W        W32663  18.286  19.274   3.643
73128W        W32664  22.573  26.054  10.894
73129W        W32665  23.627   0.858   2.865
73130W        W32666  32.128  43.358   0.874
73131W        W32667  38.974  10.719   4.275
73132W        W32668  16.745  20.637   5.192
73133W        W32669  20.727  18.612  11.108
73134W        W32670   8.347  23.107   2.181
73135W        W32671   6.330  16.151  13.039
73136W        W32672  24.161  28.960   3.787
73137W        W32673   1.444  24.624  11.417
73138W        W32674  41.339   6.905   2.774
73139W        W32675  26.538  26.486   5.180
73140W        W32676  11.309   7.306   2.663
73141W        W32677   9.333  12.278  13.363
73142W        W32678  29.114  23.061   0.823
73143W        W32679  42.374   9.290   3.789
73144W        W32680  15.743  19.281   0.392
73145W        W32681  23.157  19.189  10.463
73146W        W32682  22.152  31.920  10.540
73147W        W32683  42.810   2.456   4.664
73148W        W32684   4.311   8.189  10.599
73149W        W32685  42.432  12.619  13.037
73150W        W32686  32.540  33.438  10.609
73151W        W32687  14.261  34.523  11.913
73152W        W32688   7.846  44.894   2.268
73153W        W32689   0.352   3.247   1.904
73154W        W32690   2.934  31.560  13.456
73155W        W32691  19.126  14.308   0.460
73156W        W32692   8.265  27.057  13.427
73157W        W32693  42.788  26.180   0.792
73158W        W32694  12.626  34.050   2.807
73159W        W32695  18.269  40.029   2.809
73160W        W32696   2.725  12.176  11.994
73161W        W32697  39.548  28.518  11.495
73162W        W32698  21.636  34.941   2.403
73163W        W32699   0.905  24.600   3.638
73164W        W32700  34.026  19.704  10.483
73165W        W32701  12.643  33.078   3.752
73166W        W32702  42.887  19.193  14.893
73167W        W32703   2.782  41.941  13.895
73168W        W32704   4.358  42.453  12.021
73169W        W32705   1.944   4.814  10.479
73170W        W32706  34.954   4.240  10.976
73171W        W32707   6.859  25.663  14.834
73172W        W32708  37.447  13.738   1.383
73173W        W32709   0.384  22.188   2.304
73174W        W32710  36.056  33.585   3.865
73175W        W32711  39.052  11.636   4.635
73176W        W32712  19.269   7.756   2.274
73177W        W32713   1.381  40.436  13.048
73178W        W32714  26.076   6.748   4.706
73179W        W32715  15.312   3.308  12.039
73180W        W32716  13.119  23.705   2.360
73181W        W32717  16.757  38.849  14.875
73182W        W32718  22.208  27.017  11.422
73183W        W32719   0.810  41.828   3.346
73184W        W32720  33.381   9.884   0.758
73185W        W32721  32.626  36.439   3.148
73186W        W32722  31.522  35.964   2.232
73187W        W32723  38.953  39.471   4.709
73188W        W32724  23.089  20.651   2.683
73189W        W32725  16.716  32.933   2.831
73190W        W32726  42.460  19.183   4.788
73191W        W32727   6.240   6.908   2.817
73192W        W32728   4.902   6.188  11.404
73193W        W32729  39.388   0.880  13.351
73194W        W32730  33.548   4.902   0.405
73195W        W32731   8.881   1.312  13.382
73196W        W32732  34.068  12.282   0.244
73197W        W32733   0.746  23.643   3.775
73198W        W32734  35.489  25.984  12.882
73199W        W32735   3.261  26.567   5.172
73200W        W32736  26.005   1.802   2.719
73201W        W32737  36.412  13.316  13.536
73202W        W32738  36.438   4.370   2.812
73203W        W32739   9.823  44.993  12.384
73204W        W32740  38.353  43.001   1.428
73205W        W32741  10.234  27.107  14.362
73206W        W32742  28.957  15.651   3.198
73207W        W32743   8.269  13.773  10.417
73208W        W32744  18.620   6.370   5.275
73209W        W32745  38.529  18.578  13.800
73210W        W32746  39.326   5.264   3.827
73211W        W32747  17.670  28.606   2.860
73212W        W32748   0.272  30.560   1.328
73213W        W32749  26.969  27.634   2.328
73214W        W32750  43.835  36.075  13.396
73215W        W32751  12.231  13.655  10.501
73216W        W32752  18.054  18.062  12.511
73217W        W32753  26.203  28.437  12.823
73218W        W32754   8.752  11.723   3.696
73219W        W32755  26.969   1.764   2.296
73220W        W32756  15.678   6.905  14.434
73221W        W32757  44.993  37.393  14.796
73222W        W32758  32.454  25.587  10.951
73223W        W32759  19.221   6.858   3.731
73224W        W32760  35.879   8.836   3.793
73225W        W32761  21.589   5.252   0.859
73226W        W32762  29.096  40.922   1.915
73227W        W32763  30.419   1.977  14.916
73228W        W32764  25.704   9.659  10.560
73229W        W32765  36.912  14.262  13.316
73230W        W32766  10.206  11.743  11.611
73231W        W32767  34.907  23.080   3.225
73232W        W32768  29.449   4.443  11.940
73233W        W32769  17.585  40.863   3.852
73234W        W32770  35.873  21.219  11.052
73235W        W32771  14.774  32.094   0.287
73236W        W32772  19.737  37.362   0.903
73237W        W32773  27.631   5.243   0.829
73238W        W32774  38.460   4.838   3.653
73239W        W32775  21.170  36.068   0.474
73240W        W32776  32.982  37.441  10.576
73241W        W32777  43.829  38.405   4.784
73242W        W32778  16.604  21.053  10.431
73243W        W32779  13.745  35.587  12.849
73244W        W32780  17.133  32.085   4.655
73245W        W32781  34.520   4.322  13.854
73246W        W32782  11.135  39.423  13.366
73247W        W32783   7.809  21.575  14.021
73248W        W32784  44.814   8.799   9.972
73249W        W32785  33.513  39.488  13.813
73250W        W32786  20.689  30.069  11.005
73251W        W32787  31.048  42.944   2.383
73252W        W32788  30.606  33.031  13.495
73253W        W32789   0.301  35.000  14.903
73254W        W32790  24.133  11.186  12.946
73255W        W32791  32.393  40.823  12.070
73256W        W32792  17.143  14.812  14.449
73257W        W32793  19.678  18.246   1.382
73258W        W32794  10.296  34.069  10.148
73259W        W32795  29.979  14.778  13.054
73260W        W32796  31.472   8.811  13.852
73261W        W32797  18.599  41.941  14.382
73262W        W32798  32.594  32.092  12.987
73263W        W32799  19.699  25.070   3.297
73264W        W32800  40.318  44.974  11.960
73265W        W32801  22.676  28.134  10.584
73266W        W32802  26.001  16.198   4.129
73267W        W32803  18.681   7.363  14.892
73268W        W32804  30.952   0.353  10.953
73269W        W32805  41.841  37.459  13.828
73270W        W32806  39.002   6.371  14.280
73271W        W32807  31.640  42.490  13.492
73272W        W32808  27.505  18.064   1.894
73273W        W32809   8.766  40.821   2.326
73274W        W32810  22.251  10.859   4.259
73275W        W32811   4.450  33.975   4.339
73276W        W32812  39.919  27.540   2.305
73277W        W32813  17.141  31.523  10.086
73278W        W32814  23.714  29.971   2.730
73279W        W32815  43.475  18.153   1.421
73280W        W32816  28.931   3.720  13.389
73281W        W32817  37.010  13.223  12.008
73282W        W32818  41.431   2.465   0.926
73283W        W32819  25.557  43.377   3.150
73284W        W32820  37.388   2.390  10.416
73285W        W32821   1.482  30.467  14.954
73286W        W32822   7.677  44.305   3.762
73287W        W32823   7.802  28.527   3.193
73288W        W32824  32.051  32.521   3.765
73289W        W32825  16.742   7.794  12.973
73290W        W32826  19.219  29.658  14.335
73291W        W32827  16.120  26.986  13.478
73292W        W32828  24.228  20.201   2.702
73293W        W32829  37.392  24.647   0.822
73294W        W32830  15.166  38.417  13.022
73295W        W32831  15.312  43.460  14.283
73296W        W32832  43.791  40.997   4.612
73297W        W32833  30.558   5.233   2.206
73298W        W32834  29.550  25.521  14.019
73299W        W32835  28.143  27.174   1.443
73300W        W32836  43.376  25.647  13.898
73301W        W32837  23.218  30.642   4.783
73302W        W32838  24.722  33.458   3.240
73303W        W32839  36.525   0.287  14.473
73304W        W32840  34.945   7.234   4.200
73305W        W32841  25.602   9.163  12.974
73306W        W32842   7.739   3.411   3.305
73307W        W32843  27.671  41.836   0.443
73308W        W32844  10.764   6.856  12.858
73309W        W32845   3.233  22.057  13.407
73310W        W32846  23.203  33.908   3.771
73311W        W32847   1.978  31.937   5.243
73312W        W32848  41.908  26.063  14.848
73313W        W32849  32.489   0.820   0.855
73314W        W32850  21.581   3.288   2.306
73315W        W32851  11.830  40.483  11.446
73316W        W32852  10.682  38.528   2.339
73317W        W32853   6.378  23.662  12.365
73318W        W32854  35.013  13.115   0.772
73319W        W32855  14.215  32.901   3.683
73320W        W32856  32.404   8.791   0.452
73321W        W32857  43.987  33.496   4.194
73322W        W32858  16.636  23.028  12.076
73323W        W32859  16.598   4.929   0.946
73324W        W32860  12.796  18.551   1.333
73325W        W32861  41.950  41.942   1.905
73326W        W32862  30.928  38.403   3.726
73327W        W32863  23.071  39.870   0.891
73328W        W32864   6.920  43.925   0.284
73329W        W32865  18.256   3.248   3.249
73330W        W32866  38.011   4.204   3.206
73331W        W32867   2.439  24.724  11.941
73332W        W32868  12.166  19.121  10.491
73333W        W32869   3.339   8.898   1.297
73334W        W32870  23.081   7.667  11.974
73335W        W32871   2.907  39.911  12.989
73336W        W32872   8.731   4.900  13.471
73337W        W32873  44.775   6.376  14.761
73338W        W32874  18.207  41.918  11.487
73339W        W32875  36.020  17.138   3.220
73340W        W32876  10.218  38.438   0.786
73341W        W32877  43.859  19.740  10.516
73342W        W32878  37.443  34.079   1.712
73343W        W32879  25.653  25.489  13.497
73344W        W32880  36.895   5.297  14.493
73345W        W32881  22.575   6.677   0.288
73346W        W32882   6.794  42.030  14.327
73347W        W32883  16.672   1.432   0.351
73348W        W32884   2.272  42.873   1.240
73349W        W32885   2.307   9.301   1.340
73350W        W32886  31.111  11.837  12.905
73351W        W32887  32.924  34.399  11.390
73352W        W32888   9.314  32.490  13.969
73353W        W32889  20.129   7.374  10.086
73354W        W32890  32.452  37.413   4.736
73355W        W32891  18.060  44.817   2.303
73356W        W32892  18.221   2.866   1.335
73357W        W32893  27.979  37.899  13.406
73358W        W32894  12.753  37.558  13.343
73359W        W32895  31.617  39.826   2.803
73360W        W32896  37.495  34.012  14.359
73361W        W32897  33.611  38.988  14.970
73362W        W32898   1.375  40.891   2.701
73363W        W32899  22.507  10.344  13.429
73364W        W32900   4.718  40.940  14.796
73365W        W32901  12.765  23.225  12.070
73366W        W32902   1.774   9.705   0.781
73367W        W32903  25.121  19.181   4.245
73368W        W32904  15.644  43.270   1.339
73369W        W32905   1.472   5.835  11.082
73370W        W32906  36.845  27.131  14.970
73371W        W32907  31.947  22.234  12.044
73372W        W32908   0.259  37.340  11.928
73373W        W32909  29.024   9.222  12.486
73374W        W32910  23.067  17.667  13.358
73375W        W32911  11.285  12.275   0.864
73376W        W32912   1.963  37.345   3.278
73377W        W32913   5.312  14.782  12.061
73378W        W32914   1.882  33.060   4.320
73379W        W32915  24.219  38.447  13.457
73380W        W32916  28.516  34.082   2.416
73381W        W32917  11.268  38.387  10.557
73382W        W32918  43.314  33.112  12.870
73383W        W32919  28.090  18.274   1.396
73384W        W32920  18.560  15.703  10.898
73385W        W32921  12.328  27.554  11.040
73386W        W32922  37.988  11.194  12.084
73387W        W32923  14.789  41.827   0.454
73388W        W32924   5.817  23.500   3.649
73389W        W32925  35.483  19.089  10.611
73390W        W32926   0.977  17.254  14.935
73391W        W32927  34.475  33.976  11.429
73392W        W32928  35.473   0.859  14.467
73393W        W32929   2.924   5.707  12.362
73394W        W32930  24.045  15.284  13.513
73395W        W32931  28.953  38.951   0.889
73396W        W32932  10.213  28.488   3.289
73397W        W32933   8.268  42.924  12.960
73398W        W32934   0.953  22.538  12.524
73399W        W32935  28.576  44.456  14.947
73400W        W32936  27.981  11.282  12.517
73401W        W32937  25.662  27.976   1.352
73402W        W32938  41.804  40.315   2.675
73403W        W32939  32.480   9.186  12.947
73404W        W32940  43.487  37.341  14.960
73405W        W32941  10.852  37.894   0.299
73406W        W32942  36.852  17.765  14.022
73407W        W32943  14.171   9.180  10.496
73408W        W32944   1.348  27.180   2.216
73409W        W32945  41.927   7.365   2.683
73410W        W32946  17.201  39.516  14.842
73411W        W32947  25.037  25.218   2.880
73412W        W32948  34.525  19.197   3.348
73413W        W32949  14.126  16.216  12.536
73414W        W32950  19.199  27.556  14.811
73415W        W32951  15.733  28.472  11.974
73416W        W32952   2.900  15.129   2.863
73417W        W32953  42.834  20.241   4.647
73418W        W32954   9.285  15.811   1.781
73419W        W32955  39.505  38.938  14.917
73420W        W32956  16.719  43.333  12.381
73421W        W32957  17.162  10.318  11.974
73422W        W32958  43.926  19.623  11.908
73423W        W32959  33.894  40.031   4.617
73424W        W32960  42.335  38.035   1.321
73425W        W32961  41.032   6.274   0.337
73426W        W32962  19.268  27.685   4.659
73427W        W32963  36.001  21.751  14.970
73428W        W32964  19.642  15.105   3.777
73429W        W32965   5.231  12.244  12.438
73430W        W32966  30.919  42.965   4.348
73431W        W32967  27.139  30.040   3.656
73432W        W32968  27.482  41.508   3.341
73433W        W32969  35.436  36.988  14.778
73434W        W32970   7.289  15.579   1.852
73435W        W32971  11.249  22.021   2.809
73436W        W32972  32.495  19.660   1.712
73437W        W32973  34.878  20.158   1.851
73438W        W32974  33.877  41.439  11.541
73439W        W32975  34.975  32.126  12.930
73440W        W32976  37.497  26.198  12.018
73441W        W32977  30.953  25.673  13.405
73442W        W32978  23.550  33.529   2.382
73443W        W32979  18.615  22.732   4.795
73444W        W32980  43.413   7.405   1.423
73445W        W32981  21.104   7.750  10.998
73446W        W32982  36.982  29.109  11.382
73447W        W32983  32.605   6.264   3.215
73448W        W32984   6.723   8.820  11.611
73449W        W32985  43.496  38.877  10.020
73450W        W32986  26.516  25.964  11.477
73451W        W32987  12.856  22.568   2.356
73452W        W32988  24.141   9.303   4.135
73453W        W32989   4.933  11.805   2.293
73454W        W32990  15.718  22.139  13.375
73455W        W32991   0.273  32.500  10.405
73456W        W32992  39.366  23.542   3.802
73457W        W32993  44.961   9.726   1.884
73458W        W32994   1.283  22.216   0.938
73459W        W32995  36.381  11.147  13.826
73460W        W32996  44.007  30.032   4.334
73461W        W32997   5.754  44.779  13.414
73462W        W32998  12.306  22.204   3.303
73463W        W32999   1.465  43.850  14.827
73464W        W33000   9.202  15.601   0.847
73465W        W33001  35.492  14.609   1.270
73466W        W33002   4.894  21.082  10.536
73467W        W33003  36.087   5.344   1.231
73468W        W33004  14.097  12.295   0.951
73469W        W33005   2.465  42.313  12.854
73470W        W33006   4.785   0.963   0.779
73471W        W33007  36.571  13.624   2.796
73472W        W33008   9.349  19.661  13.402
73473W        W33009  37.408   9.767   4.728
73474W        W33010  44.492  42.910   3.265
73475W        W33011   2.947  41.007  12.343
73476W        W33012  18.221   5.233   0.321
73477W        W33013  30.020  23.203  14.278
73478W        W33014  28.008  23.660   4.343
73479W        W33015  12.222  30.035  11.039
73480W        W33016  33.565  14.658   2.220
73481W        W33017   7.680  32.540   3.147
73482W        W33018  30.125  31.488   4.307
73483W        W33019   1.249  43.956  14.341
73484W        W33020   6.906  43.986  14.321
73485W        W33021  37.051   6.782  12.914
73486W        W33022  15.624  37.951  10.641
73487W        W33023  43.361  19.085  13.469
73488W        W33024   1.278  18.691  11.129
73489W        W33025   9.179  19.746   3.681
73490W        W33026   3.261   0.254  14.323
73491W        W33027  36.472  14.218   9.984
73492W        W33028  34.511   9.758   3.717
73493W        W33029   1.294  27.612   1.321
73494W        W33030   6.742  39.820   4.158
73495W        W33031  37.390  35.013  13.444
73496W        W33032  38.530  27.539   0.335
73497W        W33033  13.773  40.422  13.839
73498W        W33034  44.772  28.584  13.318
73499W        W33035  14.648  38.527  13.884
73500W        W33036   1.343  19.053  11.496
73501W        W33037  23.986  43.325  13.000
73502W        W33038  38.820  15.311   4.646
73503W        W33039  32.974  34.101  11.007
73504W        W33040   6.869  20.184  14.820
73505W        W33041   0.964  27.105  10.895
73506W        W33042  44.885  31.486  11.969
73507W        W33043  34.466   3.360   1.258
73508W        W33044  11.291  32.508  12.409
73509W        W33045  39.020  10.297   2.266
73510W        W33046   0.480   1.430  12.915
73511W        W33047  41.891   0.846   1.724
73512W        W33048  23.196  30.558  12.571
73513W        W33049  44.964  41.981   2.842
73514W        W33050  18.267   6.339   3.262
73515W        W33051  38.442  15.586  10.454
73516W        W33052  17.713  37.424  13.951
73517W        W33053  15.799   5.268  11.373
73518W        W33054  20.538   4.913  11.919
73519W        W33055  23.023  41.344  12.074
73520W        W33056  21.115  20.095  11.600
73521W        W33057  12.129   9.369   4.234
73522W        W33058  38.344   3.284  14.919
73523W        W33059  42.290  24.606   3.216
73524W        W33060  10.204  21.131   4.150
73525W        W33061  16.626  35.475  10.594
73526W        W33062  16.778   9.201  12.576
73527W        W33063   4.721  16.623  13.514
73528W        W33064   0.366  42.290   1.256
73529W        W33065  15.578   2.862   0.473
73530W        W33066   4.768  15.207   0.839
73531W        W33067  39.334  42.358  10.639
73532W        W33068  21.524  18.073   3.290
73533W        W33069  44.363  16.679   1.928
73534W        W33070   3.859  31.554  12.920
73535W        W33071  44.922  21.608  11.080
73536W        W33072  14.825  32.414   3.209
73537W        W33073  39.879  12.269  14.426
73538W        W33074  43.849   7.695   1.831
73539W        W33075  34.593  13.695   4.707
73540W        W33076  13.690  38.071  10.575
73541W        W33077   2.858  42.417  12.397
73542W        W33078   8.306  27.609   1.237
73543W        W33079  21.616  30.602  10.453
73544W        W33080  29.509   2.255   3.217
73545W        W33081  27.068  35.038   4.314
73546W        W33082  20.568  24.146   1.306
73547W        W33083  24.165  25.502  11.904
73548W        W33084   1.455  33.119   0.250
73549W        W33085  40.933  39.858  11.949
73550W        W33086  28.643  43.294   1.902
73551W        W33087  21.155  41.411   2.680
73552W        W33088  37.360  16.127   4.127
73553W        W33089  19.569   5.900   1.892
73554W        W33090  17.203  20.686  14.838
73555W        W33091  16.249  39.376   2.836
73556W        W33092  44.852  32.469   1.736
73557W        W33093  24.672  38.980   9.553
73558W        W33094  24.502  38.345   2.395
73559W        W33095   7.248  14.281   0.846
73560W        W33096  31.042   6.858   2.890
73561W        W33097  30.641  25.189  12.374
73562W        W33098  27.597  28.452  14.003
73563W        W33099  27.171   9.662  13.828
73564W        W33100   6.213   5.269   0.267
73565W        W33101  20.748   4.791  14.390
73566W        W33102  19.285  12.668   1.791
73567W        W33103  36.871  32.625   1.834
73568W        W33104   2.247  24.139  14.023
73569W        W33105  33.098  36.554   3.371
73570W        W33106   4.297  30.908  14.448
73571W        W33107  33.624  31.054   2.204
73572W        W33108  42.454   1.366   4.310
73573W        W33109   0.895  32.527   4.830
73574W        W33110   2.277  37.553   1.353
73575W        W33111  33.027   1.421   0.929
73576W        W33112  19.662   2.861   1.417
73577W        W33113  11.207  17.721  14.398
73578W        W33114  44.433  43.477   2.330
73579W        W33115   2.863  32.435  14.424
73580W        W33116  12.690  17.197  13.806
73581W        W33117  15.230   4.835   0.865
73582W        W33118  41.942  31.458  10.491
73583W        W33119  40.841  23.992  13.904
73584W        W33120   4.300  39.824  12.442
73585W        W33121  41.382  44.399  13.340
73586W        W33122  14.118   6.428  12.077
73587W        W33123  25.618   1.808   2.760
73588W        W33124  29.665  28.041   2.708
73589W        W33125  43.837  27.447  11.053
73590W        W33126  31.147  38.342  13.979
73591W        W33127   1.311  12.837  13.537
73592W        W33128   2.819   7.409  12.386
73593W        W33129  37.013  35.859   3.799
73594W        W33130  32.499  39.924   1.238
73595W        W33131  11.276  11.160  11.873
73596W        W33132  18.066   8.890   3.653
73597W        W33133   0.454  18.666  12.569
73598W        W33134   2.395   3.898  13.879
73599W        W33135  19.167  33.468   2.373
73600W        W33136  29.528  38.399  10.501
73601W        W33137  16.287   8.348   0.471
73602W        W33138  37.044   0.252   9.606
73603W        W33139  27.012  21.587  13.313
73604W        W33140  23.593  25.653  14.448
73605W        W33141  17.087   0.931   0.744
73606W        W33142  19.630  39.051  10.158
73607W        W33143   5.428  25.985   1.853
73608W        W33144  23.015   8.258   1.834
73609W        W33145   2.229   3.889  11.562
73610W        W33146  13.234   2.394   3.204
73611W        W33147  22.586  15.185  14.501
73612W        W33148  14.821  36.384  11.471
73613W        W33149  38.013  39.064  11.101
73614W        W33150  19.137  16.244   1.320
73615W        W33151  37.498  44.773  12.341
73616W        W33152  12.830  31.417  10.464
73617W        W33153  10.814   9.395  11.990
73618W        W33154  26.677  25.179  13.336
73619W        W33155   8.867  44.853  11.869
73620W        W33156  14.606   5.858   1.807
73621W        W33157  15.158   3.806  13.351
73622W        W33158  32.535   9.669  14.472
73623W        W33159  31.044  29.651  10.978
73624W        W33160  18.269  21.124   4.788
73625W        W33161  32.989  37.891  11.078
73626W        W33162  30.605   7.745  13.801
73627W        W33163  29.455   7.280  10.533
73628W        W33164  13.110  41.964   0.442
73629W        W33165   8.715  16.261   3.681
73630W        W33166  22.744   1.285   3.370
73631W        W33167  44.010  15.752   0.926
73632W        W33168  11.697  42.830   4.343
73633W        W33169  36.496   3.737   1.293
73634W        W33170  12.240   8.371   1.701
73635W        W33171  13.666  35.446  12.008
73636W        W33172   7.866  27.503   9.957
73637W        W33173  10.813  31.986   0.943
73638W        W33174  37.882  37.846  10.430
73639W        W33175  10.651  42.420  11.885
73640W        W33176   6.889  34.116   0.886
73641W        W33177  42.778  10.191   2.743
73642W        W33178  38.538  34.384   3.150
73643W        W33179  30.520  44.753   2.851
73644W        W33180  31.959  10.291  11.103
73645W        W33181  39.831  34.982  12.993
73646W        W33182  35.478  13.637  11.042
73647W        W33183  28.605  39.455   4.691
73648W        W33184   6.398  17.708  10.045
73649W        W33185  40.473   3.426  13.364
73650W        W33186  13.639  14.184   2.252
73651W        W33187  24.540  16.723  14.275
73652W        W33188  13.232   8.856  13.798
73653W        W33189  25.140  28.521  13.533
73654W        W33190   8.861  35.495  11.970
73655W        W33191  26.163   1.396  13.931
73656W        W33192  43.416  37.065  14.324
73657W        W33193  20.147  25.058  13.846
73658W        W33194   6.701  32.035  11.110
73659W        W33195  11.308   0.969  12.542
73660W        W33196  42.829   7.729   0.762
73661W        W33197  31.098  36.000   4.198
73662W        W33198  31.500  44.474   1.852
73663W        W33199  24.650   0.385   2.275
73664W        W33200   5.852  38.470   0.332
73665W        W33201  16.099  32.042   4.187
73666W        W33202   7.329  38.965   1.291
73667W        W33203  23.003  38.429  11.041
73668W        W33204  14.726  25.067  10.410
73669W        W33205   9.692  11.752  14.450
73670W        W33206  11.665  10.311   4.687
73671W        W33207  11.651  11.233   0.747
73672W        W33208   2.906  43.515  10.424
73673W        W33209  10.301  13.200   2.704
73674W        W33210  39.063   9.257  13.027
73675W        W33211   0.325  37.019  11.021
73676W        W33212   6.761  39.847  12.997
73677W        W33213  13.201  16.810  12.341
73678W        W33214  32.611  10.786  11.500
73679W        W33215   6.695   1.910  10.584
73680W        W33216  39.316  34.585   0.398
73681W        W33217  36.574  34.951  13.919
73682W        W33218   4.240  20.175   4.832
73683W        W33219  11.646  20.606  14.477
73684W        W33220  31.990  43.827  12.489
73685W        W33221  12.834  22.537   4.254
73686W        W33222  32.131  29.613   2.195
73687W        W33223  41.505  15.684   1.856
73688W        W33224  39.918   0.293   3.768
73689W        W33225  36.995  44.901   3.258
73690W        W33226  23.090  10.313  11.560
73691W        W33227  12.830  27.042  12.934
73692W        W33228  29.521  32.598  13.813
73693W        W33229  14.649  14.264  14.970
73694W        W33230  12.820   7.747  10.625
73695W        W33231  41.865  18.787   5.289
73696W        W33232  33.625   1.843   2.676
73697W        W33233   4.213   5.772  11.019
73698W        W33234  28.607  43.854   3.334
73699W        W33235  30.613  40.421   1.835
73700W        W33236  34.425  32.520   3.380
73701W        W33237  36.908  14.773   2.738
73702W        W33238  41.383  25.684   1.431
73703W        W33239  25.703  38.858  10.940
73704W        W33240   7.338  14.709  14.828
73705W        W33241  29.529   1.796   4.758
73706W        W33242  31.499   2.950  12.404
73707W        W33243  25.685   1.760   4.313
73708W        W33244  21.637  18.194  11.449
73709W        W33245  13.216  38.499   2.743
73710W        W33246  30.656  42.402   0.959
73711W        W33247   7.180  22.220   0.880
73712W        W33248  10.764  30.485   3.165
73713W        W33249   5.923  12.209   0.947
73714W        W33250  25.534  21.623  14.777
73715W        W33251  13.122  28.016  13.422
73716W        W33252  25.628  24.683  14.468
73717W        W33253   5.303  30.445   1.807
73718W        W33254  31.896  24.702   0.856
73719W        W33255  40.871   8.294  14.963
73720W        W33256  32.497  23.535   2.716
73721W        W33257  33.905  19.061  10.614
73722W        W33258  36.917  25.162  14.931
73723W        W33259  39.028  15.227   5.144
73724W        W33260  19.546  24.656   3.638
73725W        W33261  38.835  31.463  11.456
73726W        W33262   0.338   2.465  14.381
73727W        W33263   3.937  38.841   1.213
73728W        W33264   6.366  11.240   0.353
73729W        W33265  26.984  12.768  12.428
73730W        W33266  28.500  43.893  12.573
73731W        W33267  35.038  18.256  12.058
73732W        W33268  27.646   0.810  14.972
73733W        W33269   6.188  32.026  14.496
73734W        W33270  38.025  26.577  11.084
73735W        W33271  36.967   9.854   1.326
73736W        W33272  10.683   3.330  13.457
73737W        W33273   3.333  29.512   4.652
73738W        W33274  26.555  10.772   2.263
73739W        W33275   6.237  40.002   3.743
73740W        W33276   5.438  20.245  11.552
73741W        W33277  25.576  38.037  10.583
73742W        W33278  24.984  18.739  11.388
73743W        W33279  27.671  38.941   2.716
73744W        W33280   0.812  38.912   0.248
73745W        W33281   0.935  10.654   5.087
73746W        W33282   7.912  24.001  12.919
73747W        W33283  34.529  14.593   4.625
73748W        W33284  42.297  44.910  14.986
73749W        W33285   7.377   5.856   1.830
73750W        W33286  37.420  19.566   4.156
73751W        W33287  26.994  23.176   0.449
73752W        W33288  12.793  30.625   4.321
73753W        W33289  32.045  43.449  10.421
73754W        W33290  21.712   0.468   0.246
73755W        W33291   9.823   9.279   4.126
73756W        W33292  20.180  23.711   4.652
73757W        W33293   1.844   4.275  13.842
73758W        W33294  40.355   9.677   2.190
73759W        W33295  19.746  35.056  13.980
73760W        W33296  39.963   6.768  11.470
73761W        W33297   4.215  28.165   2.849
73762W        W33298  15.304  14.281   2.229
73763W        W33299  23.698  28.185  12.004
73764W        W33300   6.817  38.431  14.399
73765W        W33301   4.268  16.639   4.208
73766W        W33302  26.620  43.840  13.546
73767W        W33303   0.946  40.931   1.854
73768W        W33304   5.713  27.630  11.883
73769W        W33305  38.061  33.964   3.679
73770W        W33306  31.076  10.811  13.398
73771W        W33307  19.533  20.688   2.224
73772W        W33308   5.733  25.531  10.112
73773W        W33309  11.212  32.053   1.915
73774W        W33310  40.366  22.548  11.855
73775W        W33311  43.007  38.875   2.684
73776W        W33312  33.012  33.544  13.508
73777W        W33313  41.460  36.445  13.833
73778W        W33314  40.330   1.799   4.804
73779W        W33315   0.803  36.424  11.029
73780W        W33316  15.579  41.435   4.154
73781W        W33317  30.966  38.823  14.837
73782W        W33318  42.996   9.167   5.163
73783W        W33319  25.504   4.916  14.891
73784W        W33320  19.039  42.821  14.423
73785W        W33321   4.379  20.274   3.269
73786W        W33322  22.027  44.440  12.918
73787W        W33323  41.344  15.183   2.862
73788W        W33324  13.298  20.109  13.546
73789W        W33325  11.149  14.303   3.675
73790W        W33326   6.350  36.905   2.366
73791W        W33327  10.355  14.602   4.280
73792W        W33328  40.523  26.980  14.481
73793W        W33329  12.804  36.876  13.975
73794W        W33330  19.139  10.795  13.376
73795W        W33331   4.219  14.307  11.058
73796W        W33332  37.883  44.456  13.474
73797W        W33333  21.179  10.233   2.215
73798W        W33334  16.143  15.249   3.658
73799W        W33335  41.526  20.154   1.319
73800W        W33336   6.876  32.129   3.848
73801W        W33337  11.694  29.061  12.444
73802W        W33338  18.266  41.369   2.720
73803W        W33339  26.002  26.590   4.271
73804W        W33340  21.131  30.440   4.599
73805W        W33341  12.222  10.307  13.484
73806W        W33342  44.393  10.163   0.314
73807W        W33343  20.755  17.235   1.721
73808W        W33344  27.174  10.806   1.423
73809W        W33345   0.762  39.318   2.734
73810W        W33346  39.316  17.801  12.909
73811W        W33347  12.342   2.943  12.030
73812W        W33348  42.980  43.936  14.325
73813W        W33349  29.451  22.629  14.960
73814W        W33350  10.793  43.477  11.077
73815W        W33351  18.181  34.480  12.514
73816W        W33352  16.676  28.457   1.287
73817W        W33353  11.769   3.234  11.410
73818W        W33354  15.740  17.637  11.074
73819W        W33355  12.348   4.819  12.067
73820W        W33356  37.021  19.728   3.324
73821W        W33357  13.189  22.031  13.369
73822W        W33358  15.712   4.792   0.846
73823W        W33359   8.870  26.072   2.319
73824W        W33360  22.646  24.695   4.806
73825W        W33361  42.984   7.409   0.876
73826W        W33362  33.496   4.377   0.818
73827W        W33363   3.836  32.040  13.062
73828W        W33364   1.926  30.635  12.080
73829W        W33365  27.984  36.905  11.373
73830W        W33366  37.067  32.943   0.898
73831W        W33367  19.595  22.701   1.213
73832W        W33368  16.571  15.119   2.748
73833W        W33369   4.921  44.439   1.299
73834W        W33370  24.577  26.535   1.801
73835W        W33371  26.682   9.187  14.361
73836W        W33372  28.673  20.764   3.336
73837W        W33373  19.619   6.706  11.920
73838W        W33374  26.688  21.703   3.857
73839W        W33375  41.462  34.458   0.955
73840W        W33376  25.619   4.375  13.902
73841W        W33377   2.348  24.644   1.794
73842W        W33378  24.998   5.752   3.261
73843W        W33379  29.600  13.737   4.272
73844W        W33380   5.867   1.309   3.736
73845W        W33381  20.037  35.066  13.340
73846W        W33382  26.961  31.068   4.216
73847W        W33383  31.642  22.049   4.164
73848W        W33384  40.803  31.046   3.650
73849W        W33385  38.867   7.204   9.984
73850W        W33386  29.037   5.837   2.793
73851W        W33387   9.860  29.162   3.838
73852W        W33388  29.969  11.847  11.413
73853W        W33389  19.111  15.773   2.795
73854W        W33390  27.530  12.659  10.497
73855W        W33391  12.123  33.051  11.552
73856W        W33392  11.310  19.222  12.382
73857W        W33393  20.141   6.197  13.856
73858W        W33394  28.453   3.909  11.471
73859W        W33395   5.319   7.215   0.435
73860W        W33396  28.148  29.646  14.924
73861W        W33397  16.770   9.804   1.451
73862W        W33398  10.177  44.291   4.288
73863W        W33399  36.359  41.384   1.280
73864W        W33400   3.743  11.184   4.258
73865W        W33401  18.066  10.645   0.867
73866W        W33402  23.633  27.089  13.062
73867W        W33403  44.367  33.954  13.029
73868W        W33404  17.762  42.878   0.352
73869W        W33405  34.454  37.968   1.905
73870W        W33406  18.105  44.357  13.833
73871W        W33407  36.365  33.054   4.826
73872W        W33408  33.907  22.700  14.452
73873W        W33409  21.627  38.015  14.482
73874W        W33410  20.102  15.792   4.754
73875W        W33411   5.889  31.566  12.502
73876W        W33412   1.886   8.231   1.333
73877W        W33413  31.515  16.616   1.242
73878W        W33414  42.920  25.123  10.083
73879W        W33415  18.591  30.939   1.352
73880W        W33416  29.654  32.548   2.720
73881W        W33417  31.460   9.788   1.740
73882W        W33418  30.617  39.963  10.595
73883W        W33419  20.687   3.292   1.751
73884W        W33420  28.162  17.718   2.415
73885W        W33421  27.075  26.083   3.175
73886W        W33422  42.508  30.090   2.272
73887W        W33423  24.536  29.000  14.780
73888W        W33424  38.036  23.670  10.431
73889W        W33425  39.894  22.053   4.684
73890W        W33426   0.882   5.815   3.383
73891W        W33427  37.373  43.765  12.399
73892W        W33428  30.154  42.933   0.936
73893W        W33429  41.999  14.204   3.720
73894W        W33430  18.641  38.555  14.300
73895W        W33431  14.266  34.371   3.664
73896W        W33432   8.695  24.485  11.128
73897W        W33433  20.730  42.490   1.815
73898W        W33434  40.828  23.526  13.532
73899W        W33435   4.315  35.057   0.478
73900W        W33436  29.440  15.252  12.436
73901W        W33437  22.074   4.335  14.887
73902W        W33438  23.152  28.484   2.822
73903W        W33439   4.320  44.429   2.848
73904W        W33440  32.511   8.260   3.674
73905W        W33441  28.441  31.907  13.517
73906W        W33442  23.615   7.274   2.900
73907W        W33443  15.175  22.515   2.856
73908W        W33444  31.996   2.734  10.621
73909W        W33445  27.167  27.676   4.611
73910W        W33446  26.648  31.972   5.220
73911W        W33447   0.766  10.661  11.984
73912W        W33448  19.730  43.392   1.263
73913W        W33449  19.230  30.533   4.119
73914W        W33450  11.215  28.054  12.910
73915W        W33451  17.263  14.805  13.338
73916W        W33452  42.456  15.605   2.729
73917W        W33453  18.630  40.032   4.176
73918W        W33454  38.879  21.025  11.919
73919W        W33455  35.912  23.501   1.703
73920W        W33456  36.056  13.613  13.336
73921W        W33457  39.379  42.449  11.551
73922W        W33458  25.675   5.906   0.381
73923W        W33459  19.239  19.255   2.322
73924W        W33460  10.158  30.631   1.827
73925W        W33461  41.959   7.353   1.232
73926W        W33462  33.923  14.116   3.639
73927W        W33463  42.883  32.936  13.962
73928W        W33464  31.002   1.940   0.310
73929W        W33465  11.364  33.615  12.042
73930W        W33466  17.771   8.380   1.823
73931W        W33467  37.907  16.701  11.546
73932W        W33468  28.093  35.565   4.213
73933W        W33469  31.530  42.295  12.905
73934W        W33470  27.141   7.346  12.436
73935W        W33471  41.838  16.112   4.613
73936W        W33472  19.667   3.244   2.668
73937W        W33473   2.961   5.885   0.348
73938W        W33474   9.822  20.111  12.529
73939W        W33475  44.791  35.448   2.334
73940W        W33476   3.774  21.078  14.337
73941W        W33477  37.539   3.929   1.253
73942W        W33478  19.608   2.440   1.728
73943W        W33479  13.287   1.237  14.279
73944W        W33480   3.839  14.715  14.298
73945W        W33481  18.247  21.086   5.696
73946W        W33482  33.469  24.162  11.048
73947W        W33483  38.061  19.131   3.827
73948W        W33484  17.614  22.664  11.494
73949W        W33485  26.645  21.700   4.298
73950W        W33486  16.585  37.533  10.635
73951W        W33487  10.681  16.144  12.871
73952W        W33488  44.302   9.232   0.284
73953W        W33489  25.679  35.979  14.382
73954W        W33490   3.749  25.182   1.319
73955W        W33491  17.180   2.452  10.435
73956W        W33492  37.387  12.296   0.865
73957W        W33493  16.078  41.450  10.454
73958W        W33494  33.951   7.849   4.701
73959W        W33495  12.259  20.563   3.352
73960W        W33496  24.990  28.501   2.350
73961W        W33497  27.069  26.016   2.375
73962W        W33498   0.310  19.206  14.916
73963W        W33499  40.432  35.423   1.286
73964W        W33500   4.708  40.530  13.983
73965W        W33501  22.154  37.481  14.942
73966W        W33502  22.515  13.246   2.848
73967W        W33503  16.076  30.552  11.921
73968W        W33504  42.962  39.043   5.236
73969W        W33505  43.784   1.827  10.511
73970W        W33506  33.423  36.507  10.946
73971W        W33507  13.305  21.056   1.793
73972W        W33508  44.300  13.677   4.330
73973W        W33509  39.010   6.230  13.930
73974W        W33510  30.633  19.067  11.900
73975W        W33511  13.668  39.027  11.557
73976W        W33512  10.289   7.839  12.580
73977W        W33513   2.844  12.248   3.265
73978W        W33514   8.186  11.173   0.452
73979W        W33515  25.166  36.968  14.325
73980W        W33516  16.798  31.629   4.344
73981W        W33517  16.674  21.553  10.923
73982W        W33518  25.565  30.577  14.915
73983W        W33519  24.042   2.892   2.342
73984W        W33520  20.238  12.360   0.432
73985W        W33521  12.262  37.888   0.856
73986W        W33522  30.615  34.612   0.338
73987W        W33523  42.362  20.231   0.940
73988W        W33524  33.015  33.491   0.279
73989W        W33525  30.490  13.301   3.212
73990W        W33526  32.395  14.779  14.895
73991W        W33527   6.835  13.181  14.391
73992W        W33528  41.803  14.707  11.026
73993W        W33529  17.693   2.252   3.176
73994W        W33530  21.071  31.970   2.356
73995W        W33531  33.609  14.659   4.246
73996W        W33532  22.179  36.555   2.309
73997W        W33533  13.216  16.198  13.407
73998W        W33534  10.188  12.761   0.259
73999W        W33535  10.262  10.715  12.015
74000W        W33536  35.557   9.269  12.051
74001W        W33537  40.817  16.247   4.623
74002W        W33538  35.502  42.485  12.070
74003W        W33539  12.847  18.621   3.831
74004W        W33540  38.916  29.579   3.756
74005W        W33541  42.832  28.149   2.871
74006W        W33542   3.817   0.461  12.039
74007W        W33543   8.402  24.111   0.964
74008W        W33544  12.656  17.172  14.862
74009W        W33545   4.833  17.577  13.337
74010W        W33546   6.417  42.849  14.833
74011W        W33547  16.219  28.955  11.538
74012W        W33548  24.721   7.906  13.906
74013W        W33549   3.800  38.549  12.497
74014W        W33550  10.148  30.570   4.249
74015W        W33551  16.673  11.278  11.572
74016W        W33552  35.915  17.105   2.305
74017W        W33553  10.751  43.920   4.747
74018W        W33554  33.083  28.632  10.084
74019W        W33555  34.485  22.607   1.833
74020W        W33556  34.434  39.466   3.328
74021W        W33557  27.507  22.169  13.011
74022W        W33558  40.416  23.069   2.287
74023W        W33559   4.781  26.124   2.198
74024W        W33560  33.557  13.351   0.749
74025W        W33561  25.505  30.629  12.885
74026W        W33562  22.154  30.067  12.988
74027W        W33563  18.599  24.506   0.438
74028W        W33564  18.212  19.130  14.509
74029W        W33565  31.626  24.178  10.613
74030W        W33566   3.302  27.495  13.521
74031W        W33567  40.863  36.424   1.756
74032W        W33568  40.828   9.243  13.456
74033W        W33569  42.865  32.064   2.741
74034W        W33570  42.888  20.738   2.811
74035W        W33571  40.532  27.028  12.444
74036W        W33572  14.595  13.605  13.871
74037W        W33573  32.587  28.936   2.355
74038W        W33574  37.012  22.741   0.818
74039W        W33575  25.005  28.136  14.940
74040W        W33576  25.169  34.049   2.690
74041W        W33577   5.406  28.066  12.026
74042W        W33578   3.898  29.171  10.469
74043W        W33579   8.374  43.803   4.769
74044W        W33580  18.135  18.155   1.218
74045W        W33581   3.446   8.206   0.273
74046W        W33582  30.613  34.551  11.859
74047W        W33583  13.626   4.764   4.186
74048W        W33584  43.285  40.912   3.205
74049W        W33585   2.365  16.149  11.861
74050W        W33586   2.441  39.855  14.031
74051W        W33587  42.911   6.919   3.380
74052W        W33588   0.343   2.745   0.755
74053W        W33589  44.280  25.498   9.585
74054W        W33590  34.530  12.707  11.559
74055W        W33591  27.947  16.734   2.301
74056W        W33592  11.337  30.032   4.198
74057W        W33593  26.512  10.310  12.396
74058W        W33594  34.423   5.738   0.259
74059W        W33595  28.938  44.890   3.248
74060W        W33596   6.334  16.581  11.928
74061W        W33597  38.032  39.923   4.650
74062W        W33598  37.951  14.753   0.768
74063W        W33599   8.823  21.053   0.832
74064W        W33600  34.894  43.990   1.724
74065W        W33601  17.284  22.630   2.196
74066W        W33602   0.955  42.503  11.987
74067W        W33603  41.474  33.096   0.742
74068W        W33604  26.612  34.099  10.958
74069W        W33605   7.669  26.191   4.623
74070W        W33606  25.035  39.431  11.974
74071W        W33607  10.159  35.882   1.350
74072W        W33608  15.180  43.000   1.853
74073W        W33609   2.744  18.054   2.697
74074W        W33610  34.488  18.166   3.816
74075W        W33611   8.893  29.669  12.414
74076W        W33612  18.642  28.676   2.892
74077W        W33613  34.108  17.746   3.284
74078W        W33614  13.334  43.996   2.411
74079W        W33615  39.023  12.853   1.892
74080W        W33616  11.867   5.708   9.557
74081W        W33617  37.947   7.777  12.074
74082W        W33618  11.292  17.237   2.676
74083W        W33619  23.231  11.264   2.787
74084W        W33620  17.184  43.423  12.860
74085W        W33621  42.517   6.266  11.510
74086W        W33622  12.201  26.686  11.095
74087W        W33623   2.262  17.599  13.999
74088W        W33624   1.304  17.230   4.295
74089W        W33625   6.752  30.065   2.805
74090W        W33626   1.443  28.514   3.222
74091W        W33627   4.704   4.827   2.232
74092W        W33628  43.793  33.070   0.337
74093W        W33629   6.775   1.948   2.737
74094W        W33630  36.461  41.974   2.234
74095W        W33631  32.489  42.897  14.459
74096W        W33632  43.016  13.634  14.802
74097W        W33633  31.501  38.398   0.313
74098W        W33634  35.369  33.616  12.427
74099W        W33635   9.711  41.894  10.966
74100W        W33636  39.881   2.830  12.968
74101W        W33637  25.059  35.447   2.675
74102W        W33638  16.803  31.095   0.267
74103W        W33639  43.821  23.536   1.449
74104W        W33640   9.740  23.214  12.076
74105W        W33641  23.684  35.566  12.023
74106W        W33642  25.055  32.895  11.040
74107W        W33643  34.547  17.784  10.552
74108W        W33644  26.633  22.224  13.535
74109W        W33645  39.978  37.547  11.530
74110W        W33646  35.965  24.705  10.564
74111W        W33647  42.894  10.328  10.644
74112W        W33648  19.059  17.770   3.289
74113W        W33649   0.947  21.028  10.629
74114W        W33650  22.682   9.178   4.135
74115W        W33651   2.301   2.428  13.442
74116W        W33652  28.956  40.811  12.879
74117W        W33653  35.038  28.510   2.291
74118W        W33654  11.662  18.734   4.286
74119W        W33655   5.743   5.368   3.196
74120W        W33656  24.031  10.381  13.932
74121W        W33657   3.797  26.538   1.868
74122W        W33658  11.798   5.365   3.781
74123W        W33659  19.052  28.663   4.303
74124W        W33660  15.119  25.206  10.472
74125W        W33661  41.531  43.479   2.695
74126W        W33662   5.284  27.192  11.409
74127W        W33663  37.364  19.614  13.446
74128W        W33664  43.409  36.519  10.894
74129W        W33665   7.860  33.415  11.493
74130W        W33666   4.779  11.277   0.297
74131W        W33667  34.488  25.101  11.452
74132W        W33668  18.648  23.188  10.011
74133W        W33669   5.436   4.870   3.714
74134W        W33670  28.983  16.714   4.298
74135W        W33671  41.859   3.411   3.338
74136W        W33672  17.192  22.681  10.901
74137W        W33673  26.107  29.171  12.981
74138W        W33674  27.180   5.737   9.464
74139W        W33675  36.911  19.209   0.852
74140W        W33676  41.018  13.220  11.588
74141W        W33677   0.323  36.916  12.345
74142W        W33678  41.814  20.098   0.909
74143W        W33679  11.707  24.195  10.071
74144W        W33680  28.939   6.677   2.717
74145W        W33681  19.072  39.895   2.330
74146W        W33682   3.840  16.713   2.900
74147W        W33683  33.566  21.042  12.562
74148W        W33684  11.282   4.702  13.533
74149W        W33685  21.109  21.703   2.310
74150W        W33686  44.799  29.065  13.990
74151W        W33687  30.039   0.247   2.879
74152W        W33688  24.679  42.778  13.977
74153W        W33689  21.159   3.310   2.792
74154W        W33690  18.053  44.312   1.291
74155W        W33691  34.875  26.147  12.392
74156W        W33692  43.500  16.076   1.382
74157W        W33693  14.629  40.404   4.297
74158W        W33694  32.944  44.837  12.393
74159W        W33695  11.866  34.382   0.272
74160W        W33696  27.650  23.114  14.860
74161W        W33697  15.633  25.156  12.853
74162W        W33698  30.910  40.373  13.900
74163W        W33699   5.766  15.086   1.423
74164W        W33700  26.700  30.529  10.523
74165W        W33701   8.251  44.947   4.119
74166W        W33702  13.282   9.360  12.505
74167W        W33703  25.654  17.560  14.762
74168W        W33704  30.511  39.883   0.356
74169W        W33705  27.615   1.319  11.947
74170W        W33706  21.542  15.123   2.231
74171W        W33707   7.744  15.165   1.741
74172W        W33708   0.848  34.022  13.546
74173W        W33709   3.723  12.216   2.225
74174W        W33710  16.254  16.119  10.424
74175W        W33711  16.646  39.372  13.802
74176W        W33712  22.108  19.604   3.668
74177W        W33713   4.766   0.291  14.351
74178W        W33714  21.029   9.653  13.942
74179W        W33715  35.970  28.570  12.549
74180W        W33716  26.523  39.544  13.492
74181W        W33717  36.856  25.001  11.494
74182W        W33718  21.745   1.915  10.907
74183W        W33719  17.256   5.392  11.060
74184W        W33720  38.890   3.300   1.810
74185W        W33721  26.993  31.456   3.827
74186W        W33722  36.976  37.919  12.063
74187W        W33723  36.520  38.515   3.207
74188W        W33724   9.737  20.093   3.709
74189W        W33725   6.853   1.248   4.772
74190W        W33726  30.508  34.901  12.028
74191W        W33727  39.981   6.228   3.385
74192W        W33728  26.166  43.456   4.667
74193W        W33729  25.685  34.031  11.500
74194W        W33730  42.445  35.435   2.714
74195W        W33731  42.807  37.055   0.277
74196W        W33732   6.724  23.498  14.927
74197W        W33733  44.366  37.345   0.922
74198W        W33734  34.980  31.960   5.154
74199W        W33735  14.197  30.434  14.913
74200W        W33736  10.374   5.808   2.252
74201W        W33737  20.116  17.172   0.768
74202W        W33738  28.567   1.907   0.862
74203W        W33739   3.256  27.602  14.967
74204W        W33740  30.960  24.649   2.392
74205W        W33741  12.140  35.497  14.933
74206W        W33742  19.207  34.591  12.908
74207W        W33743  11.193  40.998  13.542
74208W        W33744  22.548  12.644   1.345
74209W        W33745  23.491   1.428  10.110
74210W        W33746  36.499  29.962   0.740
74211W        W33747  43.944  37.345  14.493
74212W        W33748  13.733  31.980   1.255
74213W        W33749   1.896   9.743   1.330
74214W        W33750  16.639  10.299  14.957
74215W        W33751  24.089  39.337   3.700
74216W        W33752  41.825  43.331  14.783
74217W        W33753  44.397  14.765   0.462
74218W        W33754  18.204  26.510  14.488
74219W        W33755  14.308   3.866  14.492
74220W        W33756   6.768  10.190  14.351
74221W        W33757  21.698  23.495  14.816
74222W        W33758  23.228   7.810   0.930
74223W        W33759  36.455  14.713   4.738
74224W        W33760  29.969   6.734  14.952
74225W        W33761  22.558  32.021   3.849
74226W        W33762  23.704  20.185   0.304
74227W        W33763  30.468  34.872   1.249
74228W        W33764  31.989   6.921  10.974
74229W        W33765  33.551  41.393   1.417
74230W        W33766  14.229  38.365  11.483
74231W        W33767   6.841  38.342  14.880
74232W        W33768  14.677  36.906  12.837
74233W        W33769  40.955  30.942  10.902
74234W        W33770  15.187  34.996  10.996
74235W        W33771  34.485   4.305   4.607
74236W        W33772   2.278  21.528   2.717
74237W        W33773  10.812   7.192  12.998
74238W        W33774   8.305   5.261  10.941
74239W        W33775  10.362  17.258   0.419
74240W        W33776   4.296  43.973   4.285
74241W        W33777  41.495  22.606   2.243
74242W        W33778  44.290  31.051  14.886
74243W        W33779   2.758  29.967  12.037
74244W        W33780  28.999  29.083  12.548
74245W        W33781  14.103  41.364  12.983
74246W        W33782   2.271  12.798  11.044
74247W        W33783  28.995  35.364  10.568
74248W        W33784  35.020  18.553   2.825
74249W        W33785  39.500   9.311  13.500
74250W        W33786  31.509   5.788   4.280
74251W        W33787   9.323  16.214  14.277
74252W        W33788   2.941  27.578  14.410
74253W        W33789  12.347  16.240   2.349
74254W        W33790  33.490  21.061   0.351
74255W        W33791  32.937  30.610  11.900
74256W        W33792   3.367   5.882   1.275
74257W        W33793  34.936  22.631   4.673
74258W        W33794  15.216  11.845   4.693
74259W        W33795  41.462   4.247  11.567
74260W        W33796  30.529  19.622  13.064
74261W        W33797  28.176  12.277  12.461
74262W        W33798  34.570  32.902  13.936
74263W        W33799  44.381   9.871  12.434
74264W        W33800  20.043  41.011  13.464
74265W        W33801   0.439  29.118  14.891
74266W        W33802  18.242  33.976   0.892
74267W        W33803  33.004   5.249   3.827
74268W        W33804  35.878  10.812   2.858
74269W        W33805   9.316  18.668  12.383
74270W        W33806  12.740  38.942  13.506
74271W        W33807  29.957  30.643   2.708
74272W        W33808  19.071  14.822  14.766
74273W        W33809  21.626   5.305   1.925
74274W        W33810  30.133  13.677  14.002
74275W        W33811   1.885  43.953   4.315
74276W        W33812   2.799   6.700  13.504
74277W        W33813  10.206  44.421   3.676
74278W        W33814  31.574   4.934   4.762
74279W        W33815  36.975  33.432   4.835
74280W        W33816  18.671  40.484  10.557
74281W        W33817  37.021  39.521   0.470
74282W        W33818  39.862  18.153   3.747
74283W        W33819  29.106  43.862   0.281
74284W        W33820  17.732   5.435  14.031
74285W        W33821  14.723  34.468  13.368
74286W        W33822   8.664  37.841   2.313
74287W        W33823  39.366  28.489  13.834
74288W        W33824  21.549  39.880  13.531
74289W        W33825  17.244   9.356   4.683
74290W        W33826  16.119  19.235  13.861
74291W        W33827  22.747  27.145  12.927
74292W        W33828  38.389   4.856  14.981
74293W        W33829  32.503  34.555   1.445
74294W        W33830  35.602  10.723  13.547
74295W        W33831  21.687  26.953   0.826
74296W        W33832  27.666   5.866   1.229
74297W        W33833  15.110  36.523  13.017
74298W        W33834   8.809  40.814   1.236
74299W        W33835   1.885  20.201   2.308
74300W        W33836  29.974  24.590   1.837
74301W        W33837   4.920  35.106  10.435
74302W        W33838   2.272  42.505  14.771
74303W        W33839   2.735  41.526   3.211
74304W        W33840   7.689  10.322  14.373
74305W        W33841   7.693   8.899  11.979
74306W        W33842  40.813  40.524  10.530
74307W        W33843   4.352   4.876   1.299
74308W        W33844   5.323  40.978   4.260
74309W        W33845  26.024  25.159   3.822
74310W        W33846  19.259   9.766   4.280
74311W        W33847  15.789   6.688  11.012
74312W        W33848  19.232  17.080  14.511
74313W        W33849   4.701   6.730   4.709
74314W        W33850  28.054  28.640   3.767
74315W        W33851  16.095  36.583   2.669
74316W        W33852  42.933  22.581   2.807
74317W        W33853  28.104  10.241  10.956
74318W        W33854  17.262  41.894  12.578
74319W        W33855  29.540   9.348   4.647
74320W        W33856  19.661  40.415  13.456
74321W        W33857  29.972  14.698  13.991
74322W        W33858  40.952   8.268  14.457
74323W        W33859  16.259  19.166   5.170
74324W        W33860  26.532  17.121   4.681
74325W        W33861  29.043  36.056   0.405
74326W        W33862  34.565   3.886  13.527
74327W        W33863  13.337  35.855   0.869
74328W        W33864  10.790   8.708  12.390
74329W        W33865  11.257  33.463   3.654
74330W        W33866   9.881  39.450   0.954
74331W        W33867  39.358   3.924  14.467
74332W        W33868  42.850  25.567   4.210
74333W        W33869  24.081  41.389  10.980
74334W        W33870  12.693  35.482  12.495
74335W        W33871  11.250  38.829   0.314
74336W        W33872   9.667  42.854   2.877
74337W        W33873  23.047  21.730  10.430
74338W        W33874   1.769   7.774   4.232
74339W        W33875  10.763  17.301  10.140
74340W        W33876  35.030   2.292  13.355
74341W        W33877  13.783  42.351   2.179
74342W        W33878  20.745  22.096  10.954
74343W        W33879  41.425  27.941   3.206
74344W        W33880  14.755  29.575   4.777
74345W        W33881   9.775  41.961   0.931
74346W        W33882  35.363  43.822   0.731
74347W        W33883  17.759  33.587  10.945
74348W        W33884  14.278  37.068  14.893
74349W        W33885  35.085  21.530  13.834
74350W        W33886  20.569  21.679  11.433
74351W        W33887   1.897  37.876  12.515
74352W        W33888  39.531  21.058   5.235
74353W        W33889  40.510  15.320   3.207
74354W        W33890  16.284   5.839   0.319
74355W        W33891  37.959   9.695   4.176
74356W        W33892  26.958   0.892  12.374
74357W        W33893  30.093  19.223   1.324
74358W        W33894  21.583   0.950  11.999
74359W        W33895  23.560  15.728   5.140
74360W        W33896  21.741   1.946  14.808
74361W        W33897  25.077  18.215   4.805
74362W        W33898  25.026  31.435  14.863
74363W        W33899  14.203  41.802  14.941
74364W        W33900  43.848  39.337  11.869
74365W        W33901   7.321  21.250   3.656
74366W        W33902  16.768  23.532   3.831
74367W        W33903  10.343  42.970   4.276
74368W        W33904  19.141  12.625  14.400
74369W        W33905  14.193  31.576   0.408
74370W        W33906  24.213  17.283   1.425
74371W        W33907  15.681  31.510   0.766
74372W        W33908  18.765   0.483  11.897
74373W        W33909  10.149   8.715  10.460
74374W        W33910  36.519   5.914  11.932
74375W        W33911  23.124  10.193  14.410
74376W        W33912  34.568   7.268  12.015
74377W        W33913  20.064  20.756  11.910
74378W        W33914  27.117  24.180   1.318
74379W        W33915  25.148  15.611  11.950
74380W        W33916  10.316  32.071  13.544
74381W        W33917   3.956  17.065  13.400
74382W        W33918   0.828  30.021  12.018
74383W        W33919  27.578   7.854   0.257
74384W        W33920   6.789  35.385   0.283
74385W        W33921  34.937   3.788   1.417
74386W        W33922  18.178  20.750  14.445
74387W        W33923  36.500   8.364  11.027
74388W        W33924  19.627   7.353  13.004
74389W        W33925   7.727  42.841   1.887
74390W        W33926  14.100  40.503  13.829
74391W        W33927   7.324   0.261   3.637
74392W        W33928   4.711   8.750  10.413
74393W        W33929  29.091  25.114   5.711
74394W        W33930  43.506  42.463  14.426
74395W        W33931  19.611  15.216  12.963
74396W        W33932  10.675  24.609   3.296
74397W        W33933  40.309  43.812   1.915
74398W        W33934  13.837  18.163  12.003
74399W        W33935   1.833  29.929   4.738
74400W        W33936  22.544  38.359   4.171
74401W        W33937  18.110  33.603   4.258
74402W        W33938  25.983  17.715   3.310
74403W        W33939  32.965  32.427   2.887
74404W        W33940  24.156  16.757   4.713
74405W        W33941   0.337  43.446  11.010
74406W        W33942  19.630   2.456  12.995
74407W        W33943  30.592   7.710   0.463
74408W        W33944  21.226  43.018   1.881
74409W        W33945  31.424  21.512   1.929
74410W        W33946  35.866  40.861  12.966
74411W        W33947  33.103  44.968   2.358
74412W        W33948  39.824   7.355  11.960
74413W        W33949  44.938  34.052  14.345
74414W        W33950  13.634  20.220  12.386
74415W        W33951  39.900   1.959   1.923
74416W        W33952  10.709   3.261  11.466
74417W        W33953  16.719  24.161  10.891
74418W        W33954   8.805  16.813   3.860
74419W        W33955  11.740  36.570  14.966
74420W        W33956  24.602   8.788  12.352
74421W        W33957  27.981  21.561  12.911
74422W        W33958  11.815  18.106  12.497
74423W        W33959  23.552  40.002  10.581
74424W        W33960  34.884  37.958  10.972
74425W        W33961  11.184  34.394   3.317
74426W        W33962   9.173  14.703  11.577
74427W        W33963  19.160  37.482  10.507
74428W        W33964  26.508  19.270   0.429
74429W        W33965  22.596  15.225  14.878
74430W        W33966  26.010  14.139  14.301
74431W        W33967  26.478  29.924   0.431
74432W        W33968  19.724  29.008   2.821
74433W        W33969   1.449   1.261   4.759
74434W        W33970  20.685  20.204   0.898
74435W        W33971  26.599  19.664  13.431
74436W        W33972   2.792  25.190  13.537
74437W        W33973   9.757  33.961   1.762
74438W        W33974  21.074  30.449   1.698
74439W        W33975  16.315   7.818  10.899
74440W        W33976  25.051  17.687   3.215
74441W        W33977   2.342   3.836  12.455
74442W        W33978  43.778  18.679  13.319
74443W        W33979   0.770  32.927  11.548
74444W        W33980  19.739  22.570  11.443
74445W        W33981  13.110   7.809   1.404
74446W        W33982   7.217  43.789  11.601
74447W        W33983  38.848  12.127   3.300
74448W        W33984   2.294  43.932   3.180
74449W        W33985  15.211  44.498   4.180
74450W        W33986  26.468  27.609   2.817
74451W        W33987   5.689  40.955  12.466
74452W        W33988   3.866   6.710   3.345
74453W        W33989  31.020  36.569   1.239
74454W        W33990  22.582   8.669  13.852
74455W        W33991  25.572  24.997   4.317
74456W        W33992   5.213  11.355  11.070
74457W        W33993  20.619  18.689  10.525
74458W        W33994  30.485  18.064  14.948
74459W        W33995  21.020  22.529  13.540
74460W        W33996  12.722  33.491   3.807
74461W        W33997   1.460  29.133  10.964
74462W        W33998  42.964  25.486   3.295
74463W        W33999   0.492  25.648  14.859
74464W        W34000  43.810  15.099   0.384
74465W        W34001  34.017  37.932  12.890
74466W        W34002  20.145  41.357  13.938
74467W        W34003   4.787  42.848  12.472
74468W        W34004   5.369  10.752  12.968
74469W        W34005   0.428  38.953   1.829
74470W        W34006  32.519  10.671   1.857
74471W        W34007  30.951  42.321   4.156
74472W        W34008  32.016  41.869  14.466
74473W        W34009  18.772   2.795   3.792
74474W        W34010  16.265  29.984   0.292
74475W        W34011  19.536  38.503   1.930
74476W        W34012  23.528  37.341   3.331
74477W        W34013  10.310  27.064   3.852
74478W        W34014   2.946  39.438  13.959
74479W        W34015   0.802  31.068   4.209
74480W        W34016   9.668   4.721  13.947
74481W        W34017  19.546  43.009   3.769
74482W        W34018  39.855  26.145   1.283
74483W        W34019  37.025  16.112   3.217
74484W        W34020   2.915  26.507  14.423
74485W        W34021  38.556  12.218  10.429
74486W        W34022  29.116  13.688   4.671
74487W        W34023  39.377  40.923  10.952
74488W        W34024  42.866  37.054   0.965
74489W        W34025  23.621  11.723   2.401
74490W        W34026   2.832  36.903   0.349
74491W        W34027  23.607  23.231  14.504
74492W        W34028   3.216  19.680   3.852
74493W        W34029  35.499  33.582   0.260
74494W        W34030  27.592   3.261  13.336
74495W        W34031  31.039  11.791   9.933
74496W        W34032  11.733  22.179  14.850
74497W        W34033  18.677   2.799   4.272
74498W        W34034  11.783  43.986  13.996
74499W        W34035  11.724  42.006  13.802
74500W        W34036   1.755  38.530  14.882
74501W        W34037  11.140  37.406   2.195
74502W        W34038  38.057  11.136   3.773
74503W        W34039  15.817  27.485   2.188
74504W        W34040  42.448   6.291  11.985
74505W        W34041  38.875  23.674   2.392
74506W        W34042  29.668  22.691   1.319
74507W        W34043  35.402  19.049  12.572
74508W        W34044  17.579   2.745   2.851
74509W        W34045  38.526  11.359  12.575
74510W        W34046  19.745  25.192   3.637
74511W        W34047  43.312  38.519  11.576
74512W        W34048   0.805  20.585   2.200
74513W        W34049  10.342  10.199   1.265
74514W        W34050  27.567  40.466  13.350
74515W        W34051  18.133  10.836  13.500
74516W        W34052  43.332  40.030   3.668
74517W        W34053  17.223  34.096  13.463
74518W        W34054  22.521  35.045  14.796
74519W        W34055  30.063   2.296  13.839
74520W        W34056  20.069  19.233  13.349
74521W        W34057  25.077  10.871   1.706
74522W        W34058  37.015  10.684  13.420
74523W        W34059  16.717  37.991   0.402
74524W        W34060   2.868  11.776   5.289
74525W        W34061   6.257  31.591  10.996
74526W        W34062  29.534  43.914  14.844
74527W        W34063  25.688  36.437  14.980
74528W        W34064   6.725  14.202   3.791
74529W        W34065  41.302   5.867  10.544
74530W        W34066  19.154  26.526   4.661
74531W        W34067  26.090  28.611   1.351
74532W        W34068  24.064   5.348  10.636
74533W        W34069  14.805   3.284   3.303
74534W        W34070   8.659  17.648   2.276
74535W        W34071   7.296  29.128   4.154
74536W        W34072  10.311  24.613   2.295
74537W        W34073  29.929  20.106   1.901
74538W        W34074  32.036  24.532   5.774
74539W        W34075  43.313   2.927   2.299
74540W        W34076  28.185  17.728   4.305
74541W        W34077  31.476  18.293  13.869
74542W        W34078  38.005   4.699  11.590
74543W        W34079  37.835   5.887  11.564
74544W        W34080   3.860   2.958   2.847
74545W        W34081   4.823  26.074   3.382
74546W        W34082  44.889  19.682   1.766
74547W        W34083  30.481   8.217  13.042
74548W        W34084  33.101  30.034   5.110
74549W        W34085   4.926  40.514  14.281
74550W        W34086   7.899   6.716   2.257
74551W        W34087   2.387   2.900  10.604
74552W        W34088  40.493  33.430   4.165
74553W        W34089  13.328  39.057   3.286
74554W        W34090  30.150   4.387   2.379
74555W        W34091  23.075  40.434  12.980
74556W        W34092  39.360  14.221   2.812
74557W        W34093   7.895  14.275  10.450
74558W        W34094   3.761  30.031  13.924
74559W        W34095   2.875  28.138   0.423
74560W        W34096   8.219  35.097  13.462
74561W        W34097  25.637  38.334   4.789
74562W        W34098  32.424  37.937   0.832
74563W        W34099  11.179  31.036   4.737
74564W        W34100  40.522   9.193  13.907
74565W        W34101  22.525  13.284  13.463
74566W        W34102  20.097  29.479  14.791
74567W        W34103  39.047  27.685   4.317
74568W        W34104  44.481   8.333  10.967
74569W        W34105  14.147  34.984   4.816
74570W        W34106  14.826  27.683   3.852
74571W        W34107  24.016  22.087   2.377
74572W        W34108   8.320   4.713   1.698
74573W        W34109   5.334  36.420  14.409
74574W        W34110  38.517  15.771   4.836
74575W        W34111   2.923  16.630  13.511
74576W        W34112   3.881   6.729   0.809
74577W        W34113  43.787  26.022   3.235
74578W        W34114  38.350  25.035   3.685
74579W        W34115   2.448   7.180  14.854
74580W        W34116  22.027   7.726   5.159
74581W        W34117  38.832  26.031  13.820
74582W        W34118   9.204   8.174   0.772
74583W        W34119   8.361  18.613  10.894
74584W        W34120  34.542  24.707  12.380
74585W        W34121  22.230   1.802  14.327
74586W        W34122  15.758   6.241   0.298
74587W        W34123   9.887  33.419  12.455
74588W        W34124  21.100  20.580   0.307
74589W        W34125   8.315  29.558  14.916
74590W        W34126   3.779  27.026  14.837
74591W        W34127  40.438   8.829   0.948
74592W        W34128  15.594  27.079   4.774
74593W        W34129  32.958  22.241  13.524
74594W        W34130  19.755   8.168  13.463
74595W        W34131   4.893  31.058  11.941
74596W        W34132  37.948  23.569   2.780
74597W        W34133   2.942  29.427   5.258
74598W        W34134  11.628  13.662  11.125
74599W        W34135  28.619  29.516   0.776
74600W        W34136  30.459  39.517  14.927
74601W        W34137  33.623   0.755  14.285
74602W        W34138   9.358   2.897  13.859
74603W        W34139  37.465  12.201  14.022
74604W        W34140   5.780  35.531  11.957
74605W        W34141   5.933   1.368  12.867
74606W        W34142  13.806   5.317  11.383
74607W        W34143  15.200   1.750  13.817
74608W        W34144  26.045   3.365  12.394
74609W        W34145  19.551  19.266   5.256
74610W        W34146  42.969   9.209   2.341
74611W        W34147  37.354  40.990  12.453
74612W        W34148  10.749  36.389  10.559
74613W        W34149  19.086  37.012   4.161
74614W        W34150  34.916  11.866  14.362
74615W        W34151   7.836  38.485   0.362
74616W        W34152  26.148  26.521  13.455
74617W        W34153  12.301  17.575   4.126
74618W        W34154  41.493  18.194  14.976
74619W        W34155  28.615  40.352  13.026
74620W        W34156  44.346   5.384   4.758
74621W        W34157  14.764  39.827  12.547
74622W        W34158  39.460  26.132  10.612
74623W        W34159  23.218  15.163   2.403
74624W        W34160  34.553  11.852   4.629
74625W        W34161   6.857  42.354  13.010
74626W        W34162  15.818  23.180  11.374
74627W        W34163  43.431  15.717   0.478
74628W        W34164  20.746  40.408  13.022
74629W        W34165   3.240  30.057   2.289
74630W        W34166  44.947  18.647  14.339
74631W        W34167  36.588  38.933   1.392
74632W        W34168  34.873  13.619   1.311
74633W        W34169  32.453  40.534  14.856
74634W        W34170  13.219  18.567  13.009
74635W        W34171  43.502  28.059   0.330
74636W        W34172  11.718  12.830  12.957
74637W        W34173   1.462  24.157  10.126
74638W        W34174  15.245  34.050   1.342
74639W        W34175  31.634  10.147  10.467
74640W        W34176  37.528  24.055  12.092
74641W        W34177  26.623  35.877  12.055
74642W        W34178  15.153  15.115  12.926
74643W        W34179  43.380   7.408  10.894
74644W        W34180  36.038  38.046  11.867
74645W        W34181  32.945  17.687   2.393
74646W        W34182  32.403  12.265   1.438
74647W        W34183   8.866  18.718  13.533
74648W        W34184  42.023  38.491  10.485
74649W        W34185  32.579  27.978  14.761
74650W        W34186   0.347  43.794  11.859
74651W        W34187  14.811   7.753  10.100
74652W        W34188  28.172  28.572  10.602
74653W        W34189  15.606  39.461   3.681
74654W        W34190  31.111  15.747   2.824
74655W        W34191  31.547  12.308   2.728
74656W        W34192   9.737  35.367   1.367
74657W        W34193  14.742   5.233  13.375
74658W        W34194   9.232  24.573  11.023
74659W        W34195  15.696   0.928   2.728
74660W        W34196  32.025   8.319   1.232
74661W        W34197  14.195  25.665   3.696
74662W        W34198  39.344  38.340   1.715
74663W        W34199  32.898  14.224   3.362
74664W        W34200   1.919   9.656   4.721
74665W        W34201  24.554  44.950   1.765
74666W        W34202  22.521   8.298   2.729
74667W        W34203  38.921   2.269   2.795
74668W        W34204  10.656  34.529  12.931
74669W        W34205  39.537  30.591  10.540
74670W        W34206  27.060   4.408  11.856
74671W        W34207   6.398   1.857   2.290
74672W        W34208  22.501  43.454  12.898
74673W        W34209  14.685   4.932  12.363
74674W        W34210  27.463  30.084   0.256
74675W        W34211  14.661  42.916   4.273
74676W        W34212  31.094   3.336   0.289
74677W        W34213  22.531  21.152   9.930
74678W        W34214   4.713  43.440  10.969
74679W        W34215  18.695  17.070   2.842
74680W        W34216  16.168  22.624   4.166
74681W        W34217  33.891  27.654   1.810
74682W        W34218  15.589  35.465  12.839
74683W        W34219   2.271  11.315   0.275
74684W        W34220  35.492  20.761  13.308
74685W        W34221   2.802   3.308  13.539
74686W        W34222   1.928  32.908   2.742
74687W        W34223  11.351  34.115   3.150
74688W        W34224  24.481  18.588  13.371
74689W        W34225  14.142  31.912   5.142
74690W        W34226  44.358   0.252  14.503
74691W        W34227  26.592  25.215  10.025
74692W        W34228  23.228  42.027  12.967
74693W        W34229   1.336  42.808  13.343
74694W        W34230  35.395  29.129  14.907
74695W        W34231  16.745  18.247  14.809
74696W        W34232  31.415  29.006   0.273
74697W        W34233  27.506  15.645   0.422
74698W        W34234  32.518  42.519  13.475
74699W        W34235   3.224  16.753   2.662
74700W        W34236   0.908  33.877  10.587
74701W        W34237  26.159  26.515  14.918
74702W        W34238  23.066  16.652  10.894
74703W        W34239  41.891   1.368  12.381
74704W        W34240  41.948  32.402  12.377
74705W        W34241  29.501   7.213   4.777
74706W        W34242  14.797   6.297   2.338
74707W        W34243   6.692  42.862  13.892
74708W        W34244  14.245   8.888   4.349
74709W        W34245  39.496  43.400   2.326
74710W        W34246  44.405  16.776  12.378
74711W        W34247  20.185  12.302   4.248
74712W        W34248  15.211  42.834   1.439
74713W        W34249  34.103   4.906  13.509
74714W        W34250  22.018  35.540   2.350
74715W        W34251  23.212  11.225  13.488
74716W        W34252   5.805  34.415  14.985
74717W        W34253  14.271  26.134  13.046
74718W        W34254  36.350  20.116  13.056
74719W        W34255  40.499  29.478  14.763
74720W        W34256  15.195  37.922   1.331
74721W        W34257  32.011  36.047  12.015
74722W        W34258   7.904  43.821   3.277
74723W        W34259  42.522   3.846  14.792
74724W        W34260  22.997  29.172   0.811
74725W        W34261  11.359   7.398   2.219
74726W        W34262  37.575  21.521   3.154
74727W        W34263   8.847  28.638   4.667
74728W        W34264   2.432  43.507  10.476
74729W        W34265  23.169  38.889  10.428
74730W        W34266  25.095  44.359  12.934
74731W        W34267  41.014  13.790   2.377
74732W        W34268  29.131  20.696  10.565
74733W        W34269  36.488  12.155   2.677
74734W        W34270  25.066   2.343   4.118
74735W        W34271  33.460  43.513  11.122
74736W        W34272  15.123  41.310  10.483
74737W        W34273   9.163  28.124   0.275
74738W        W34274   1.410  29.087  14.430
74739W        W34275  33.130  42.787   1.776
74740W        W34276   2.284  18.574  12.534
74741W        W34277   0.849  29.581  14.851
74742W        W34278   8.226  17.629   2.355
74743W        W34279  27.061  20.593   2.702
74744W        W34280   3.215   8.669  14.367
74745W        W34281  30.500  15.092  12.920
74746W        W34282  20.584  42.008   3.327
74747W        W34283   1.366  11.147   3.279
74748W        W34284   2.893  18.646   0.334
74749W        W34285  26.666  14.246   3.353
74750W        W34286  32.135  22.176   3.380
74751W        W34287  10.770  38.038  11.519
74752W        W34288  28.657  12.800   1.736
74753W        W34289   6.891  38.833   3.269
74754W        W34290  11.705  21.197  11.125
74755W        W34291  37.054  30.517   0.267
74756W        W34292  44.390  23.617   0.802
74757W        W34293  30.119   9.653   3.668
74758W        W34294  26.065  17.286   0.362
74759W        W34295  19.633  43.828   0.737
74760W        W34296  37.516  31.484  12.070
74761W        W34297  35.032  27.499   0.299
74762W        W34298  42.818  31.919   4.804
74763W        W34299  22.661   1.411  10.102
74764W        W34300   5.406  22.195   4.188
74765W        W34301  11.324   2.260  11.603
74766W        W34302   4.355  34.020   3.664
74767W        W34303  37.958  35.077  11.987
74768W        W34304  18.290  18.789   4.779
74769W        W34305  35.513  26.558  11.065
74770W        W34306  38.061  11.816  11.533
74771W        W34307  20.173  21.746  14.816
74772W        W34308  21.064  35.456  13.333
74773W        W34309   8.667  39.358  10.921
74774W        W34310  29.140   7.827   4.133
74775W        W34311  39.338  12.253  14.808
74776W        W34312  18.119  25.638   1.734
74777W        W34313  39.364   7.783  13.989
74778W        W34314  36.890   2.413  14.849
74779W        W34315   1.262  34.535  10.596
74780W        W34316  12.681  34.548  14.924
74781W        W34317  40.477  32.528   1.436
74782W        W34318  12.696  16.714  12.038
74783W        W34319  25.609  34.521   2.382
74784W        W34320   9.393  38.554  11.003
74785W        W34321  21.238   5.272  12.999
74786W        W34322   6.767  12.792   0.852
74787W        W34323   2.446  11.269   5.217
74788W        W34324  31.140  13.698   2.383
74789W        W34325  21.606   0.926   9.950
74790W        W34326  22.633  37.872  14.432
74791W        W34327  22.230   1.952   4.274
74792W        W34328  15.627  28.505  12.577
74793W        W34329  37.459  32.613   1.831
74794W        W34330   4.863   5.256   0.434
74795W        W34331  43.001  39.329   1.917
74796W        W34332  16.076   0.818   3.317
74797W        W34333  10.635  11.795   0.253
74798W        W34334  16.794   0.844  10.623
74799W        W34335  37.886  32.438  12.568
74800W        W34336  12.822  44.001   0.894
74801W        W34337   9.190   0.369  12.059
74802W        W34338  38.879  19.585   1.246
74803W        W34339  19.120  10.810  10.429
74804W        W34340  23.641  39.046   1.767
74805W        W34341  42.328  44.808   3.867
74806W        W34342  10.766   1.849   0.891
74807W        W34343  23.655  30.992  12.956
74808W        W34344  25.475  41.925  10.968
74809W        W34345   2.900   9.161   0.378
74810W        W34346  34.476  20.555  11.056
74811W        W34347  37.503   9.285   3.309
74812W        W34348  32.499  37.350   1.742
74813W        W34349   2.905   9.219   1.815
74814W        W34350   7.364  15.290  13.015
74815W        W34351  42.896   2.930  11.542
74816W        W34352  37.366   0.802   3.763
74817W        W34353  23.027  27.186  10.987
74818W        W34354  44.483  23.026  11.487
74819W        W34355  16.571   8.794   2.252
74820W        W34356  29.467  39.958   3.351
74821W        W34357  25.062   0.328   0.256
74822W        W34358  29.473  16.574   1.907
74823W        W34359   4.240  13.749  12.453
74824W        W34360   5.404  14.724  11.068
74825W        W34361  40.025  14.703   0.299
74826W        W34362  26.011  43.017   2.369
74827W        W34363  32.441  32.000  11.883
74828W        W34364  39.413   2.422   3.288
74829W        W34365  42.786   8.228   4.703
74830W        W34366  38.355  35.074   1.849
74831W        W34367  28.508   3.910   1.832
74832W        W34368  24.021  19.170  14.964
74833W        W34369  27.142  34.552  13.016
74834W        W34370  32.137  24.661   3.644
74835W        W34371  18.627  10.312   9.957
74836W        W34372  36.347  28.994  13.356
74837W        W34373  23.710  32.951   0.457
74838W        W34374  27.007   3.898   2.874
74839W        W34375  28.948  23.003  11.381
74840W        W34376   5.434  15.757   3.331
74841W        W34377   6.289  12.739  10.021
74842W        W34378  22.030   4.817   1.923
74843W        W34379  18.753  18.253  10.632
74844W        W34380  25.112  39.385  14.303
74845W        W34381   0.449  39.468   1.921
74846W        W34382  18.615   5.875   0.776
74847W        W34383  15.137  24.132  11.976
74848W        W34384  22.163   0.416  11.609
74849W        W34385   0.903   9.829  10.994
74850W        W34386  29.541  11.792   3.338
74851W        W34387  24.499   3.409   2.775
74852W        W34388  17.668  16.696   3.804
74853W        W34389  18.246   8.854   2.353
74854W        W34390  14.127  17.163  12.013
74855W        W34391  27.550   1.851  10.574
74856W        W34392  25.075  30.637  12.364
74857W        W34393  29.972   2.363   1.808
74858W        W34394  38.003  34.064   1.740
74859W        W34395  36.031  18.723   1.718
74860W        W34396  42.422  19.285  13.379
74861W        W34397   7.678  10.155   0.357
74862W        W34398  28.631  29.170   2.840
74863W        W34399  12.324   1.359   3.208
74864W        W34400  11.204  23.573  13.458
74865W        W34401  21.605  12.624   0.405
74866W        W34402  17.587   0.887   4.750
74867W        W34403   8.684  31.984  11.962
74868W        W34404  28.642  34.940   3.680
74869W        W34405   7.872  39.950   3.174
74870W        W34406   9.839  20.754  13.528
74871W        W34407  27.063  28.490   4.598
74872W        W34408  18.117  17.062  13.996
74873W        W34409  27.048  34.029  13.379
74874W        W34410  34.925  42.023  14.481
74875W        W34411   8.376   5.893   0.297
74876W        W34412  21.179   3.360  11.457
74877W        W34413  33.509  43.505  13.361
74878W        W34414  26.174  35.421  12.367
74879W        W34415   8.191   7.393   4.781
74880W        W34416   7.752  34.554   1.861
74881W        W34417   8.786  10.343   0.373
74882W        W34418   8.265  34.491  13.476
74883W        W34419  14.703  16.761  10.591
74884W        W34420  20.055  31.052   1.425
74885W        W34421  19.232  26.614  11.536
74886W        W34422  44.985  35.495   4.832
74887W        W34423  41.519   3.810  14.022
74888W        W34424  18.640  40.445   4.806
74889W        W34425   2.726  34.997   0.243
74890W        W34426  29.488  39.458   2.192
74891W        W34427   7.881  17.189  13.817
74892W        W34428  24.166  32.982   1.341
74893W        W34429  21.232  21.530   4.626
74894W        W34430  10.818   4.729  14.918
74895W        W34431  28.479  10.840   1.420
74896W        W34432  42.383  22.200  11.051
74897W        W34433  44.836  37.037   2.360
74898W        W34434   8.660  24.204  10.150
74899W        W34435  15.251  41.997  10.463
74900W        W34436   7.304  33.566   4.651
74901W        W34437   5.260  23.519  11.009
74902W        W34438   5.206  23.120  13.871
74903W        W34439   4.753   2.389  13.418
74904W        W34440  19.716  33.559  11.555
74905W        W34441  16.689  30.646   1.792
74906W        W34442  19.729   7.859  11.543
74907W        W34443  14.766  33.599  10.984
74908W        W34444   2.347  14.737  12.834
74909W        W34445  24.602  24.126   0.442
74910W        W34446  36.369   9.789   3.629
74911W        W34447  23.227  33.994  10.438
74912W        W34448  42.514  13.616  12.939
74913W        W34449   3.906   9.852   0.297
74914W        W34450  16.142  31.967  14.954
74915W        W34451   2.258  37.471  11.953
74916W        W34452   8.744  44.467   1.748
74917W        W34453  17.153  41.895   4.653
74918W        W34454  41.495  15.597   4.271
74919W        W34455   3.307   7.251  12.974
74920W        W34456   9.329  38.052   0.304
74921W        W34457  44.901  21.048   2.714
74922W        W34458  25.532  42.974  11.115
74923W        W34459  23.698  21.593   2.755
74924W        W34460   8.276   9.248  11.019
74925W        W34461  18.675   6.266   1.377
74926W        W34462  42.814  10.826  11.509
74927W        W34463  38.008   0.896  13.382
74928W        W34464  34.551  44.988  12.068
74929W        W34465  25.138  16.081  12.075
74930W        W34466  20.690  22.080   2.297
74931W        W34467  16.594  10.665   2.210
74932W        W34468   3.754   0.337  11.022
74933W        W34469   5.857  30.980   3.281
74934W        W34470  19.671  19.734   3.849
74935W        W34471  14.734   1.772  10.077
74936W        W34472  44.395  27.987   2.759
74937W        W34473   7.299  27.034   5.284
74938W        W34474   3.435   5.255   3.297
74939W        W34475  28.031  19.214   5.266
74940W        W34476   3.282  41.362   1.842
74941W        W34477  33.032   4.360  10.427
74942W        W34478  28.652  40.431  10.150
74943W        W34479  14.243  25.698   2.250
74944W        W34480   1.920   5.324   1.279
74945W        W34481  27.540  31.548  11.105
74946W        W34482  44.376  15.666   0.262
74947W        W34483   8.807  38.400   2.318
74948W        W34484  18.579  23.006  10.905
74949W        W34485  38.380   1.436  14.328
74950W        W34486  37.427   7.393  11.413
74951W        W34487  29.965  41.889  13.542
74952W        W34488  16.126  14.757  13.900
74953W        W34489   1.758  25.478   5.196
74954W        W34490  39.433  41.999   0.834
74955W        W34491  23.116   2.379  11.958
74956W        W34492   4.937  10.670   4.294
74957W        W34493  34.482  13.701   3.635
74958W        W34494  15.257  22.031  13.416
74959W        W34495  19.575  29.526   4.702
74960W        W34496   5.886   4.744   0.908
74961W        W34497  35.483  14.717   0.880
74962W        W34498  14.200  20.647  11.906
74963W        W34499  40.002  43.311   1.437
74964W        W34500  27.619  32.986  13.854
74965W        W34501   7.801  21.674   0.299
74966W        W34502  13.799  40.907  12.915
74967W        W34503   4.704   0.768  11.411
74968W        W34504  28.054   1.860   5.205
74969W        W34505  38.873  19.215   0.467
74970W        W34506   6.217  26.020  13.368
74971W        W34507  24.654  37.542   1.789
74972W        W34508   8.403  18.655  10.582
74973W        W34509   3.245  31.457   2.876
74974W        W34510  19.778   1.341  14.909
74975W        W34511  28.936   9.848   1.871
74976W        W34512  13.304  17.306   4.668
74977W        W34513  22.578  44.415   3.317
74978W        W34514  14.634  15.788  12.016
74979W        W34515   3.799   6.415  11.525
74980W        W34516   6.349  35.520   1.763
74981W        W34517  17.160  11.725   0.791
74982W        W34518  22.630  22.717   1.438
74983W        W34519   5.339   8.332  13.878
74984W        W34520  28.560  15.299  11.494
74985W        W34521  33.064   4.281   3.794
74986W        W34522   9.682  21.679   0.291
74987W        W34523  39.851  24.087   2.861
74988W        W34524  43.431   0.803   4.655
74989W        W34525  43.780   1.873   3.283
74990W        W34526  31.051  26.520  14.498
74991W        W34527   2.332  26.189   1.900
74992W        W34528  36.462  32.522   0.477
74993W        W34529  34.085   6.893  12.448
74994W        W34530  19.089  28.439   4.812
74995W        W34531   0.419  31.969  10.645
74996W        W34532   6.236  12.255   2.726
74997W        W34533  10.737  12.328   3.688
74998W        W34534  40.003  40.534   4.211
74999W        W34535  16.752  24.717   4.612
75000W        W34536  36.363  40.340  11.034
75001W        W34537  26.127  36.010   1.309
75002W        W34538  30.550  20.703  14.333
75003W        W34539  18.634  36.468   3.866
75004W        W34540  39.895  29.528   3.800
75005W        W34541   2.243  35.604   3.194
75006W        W34542  30.149  12.139  14.003
75007W        W34543  37.453  34.032  11.095
75008W        W34544  35.485  35.914  14.332
75009W        W34545  40.542   8.337   2.893
75010W        W34546  30.961  44.272  11.085
75011W        W34547   1.392  36.895  10.521
75012W        W34548  39.937  39.887   4.207
75013W        W34549   9.273  11.218  12.942
75014W        W34550  27.043  11.745   1.392
75015W        W34551  31.063  19.593   0.385
75016W        W34552  16.692  21.047   2.878
75017W        W34553  42.399  21.048   1.911
75018W        W34554   0.444   3.722   3.358
75019W        W34555  41.998  22.572  12.885
75020W        W34556  18.076   2.464  13.534
75021W        W34557  10.376  30.943   1.759
75022W        W34558  25.667  42.881   5.093
75023W        W34559  36.399   8.878   1.271
75024W        W34560  40.944  31.633   2.702
75025W        W34561  20.635  21.029  12.501
75026W        W34562   9.181  30.076   0.294
75027W        W34563  42.420   7.205   4.295
75028W        W34564  34.090  11.729   3.310
75029W        W34565   2.392  28.649   4.243
75030W        W34566  14.707  12.715   3.295
75031W        W34567  39.869  14.774  12.874
75032W        W34568  27.130  34.992  13.344
75033W        W34569  35.473  12.611  12.552
75034W        W34570  41.521  26.595   0.927
75035W        W34571  37.024  10.194   1.241
75036W        W34572  30.148   1.436  13.377
75037W        W34573   0.832  13.630   2.192
75038W        W34574   5.196   8.850  12.540
75039W        W34575  16.584  41.417  14.948
75040W        W34576  27.987   3.316  10.107
75041W        W34577  26.500  30.946   3.287
75042W        W34578  11.238  15.293  12.510
75043W        W34579  41.941  25.678  11.079
75044W        W34580  42.511  29.547  11.604
75045W        W34581  29.929   5.857  14.999
75046W        W34582   1.310   4.438  13.501
75047W        W34583  43.807  34.908  14.761
75048W        W34584   6.770  39.383   4.741
75049W        W34585  26.955  25.635   1.766
75050W        W34586  19.170  33.951   1.353
75051W        W34587  31.917  39.873   1.708
75052W        W34588  40.827   0.311   1.922
75053W        W34589   6.697   3.804   2.669
75054W        W34590  29.094   0.986   1.766
75055W        W34591  40.530  21.123   1.374
75056W        W34592  12.259   0.350   3.241
75057W        W34593  21.557  11.310   2.819
75058W        W34594  16.580  12.242   4.646
75059W        W34595  38.556  23.007   1.312
75060W        W34596  28.039  16.204  11.995
75061W        W34597  21.246  40.036  10.995
75062W        W34598  10.714  33.443   2.706
75063W        W34599   1.762  29.136   2.258
75064W        W34600   6.264  32.578  11.000
75065W        W34601  44.356  28.678  10.033
75066W        W34602   7.863   0.953   0.844
75067W        W34603  27.671  29.612  13.963
75068W        W34604  41.024  43.389  12.962
75069W        W34605  38.953   4.856   3.862
75070W        W34606  40.002  21.162  11.597
75071W        W34607   7.803  40.380   2.867
75072W        W34608  24.009  17.790   1.231
75073W        W34609  32.599  13.330   2.330
75074W        W34610  26.071  13.765  13.309
75075W        W34611  24.984   2.387  13.798
75076W        W34612  15.134   0.387  14.949
75077W        W34613  16.128  31.475  14.419
75078W        W34614  25.666  25.111   0.426
75079W        W34615  24.037  35.897  12.878
75080W        W34616  29.442   4.389  11.084
75081W        W34617  37.848  25.689   2.818
75082W        W34618   9.720   1.844   2.836
75083W        W34619  36.021  11.181  10.509
75084W        W34620  31.942  35.541  14.285
75085W        W34621  22.580  14.322  13.404
75086W        W34622  23.666  39.905  10.937
75087W        W34623  15.674  16.773   4.124
75088W        W34624   4.296  24.696   0.325
75089W        W34625  20.625  14.133  13.354
75090W        W34626  19.213   6.868  10.946
75091W        W34627  11.819  16.256  12.913
75092W        W34628  38.964  12.332   1.735
75093W        W34629  10.201  43.331   3.265
75094W        W34630  39.002  23.684   0.759
75095W        W34631  37.054  13.624  10.464
75096W        W34632  24.637  36.374   2.281
75097W        W34633  44.385  26.152   1.326
75098W        W34634  40.042  30.421  11.480
75099W        W34635  18.084  11.215  12.988
75100W        W34636   6.300  14.328   1.843
75101W        W34637  21.663  10.743  13.420
75102W        W34638  41.351  31.932   0.405
75103W        W34639  11.728   9.360   0.752
75104W        W34640  41.504  41.959   0.767
75105W        W34641  12.234  28.606  11.863
75106W        W34642   0.764  38.324  14.514
75107W        W34643  22.514  38.907  10.113
75108W        W34644  35.447   9.877   2.772
75109W        W34645  12.131  43.771   1.350
75110W        W34646   4.860  25.974   1.721
75111W        W34647  33.109  30.062  12.882
75112W        W34648  37.479  14.735  14.857
75113W        W34649   6.752  11.676  12.089
75114W        W34650  20.750  39.882  12.457
75115W        W34651   9.777  33.417   3.766
75116W        W34652  22.534  44.355   4.333
75117W        W34653  17.629  13.729  12.513
75118W        W34654  20.646  23.523  13.353
75119W        W34655  42.784  31.096  10.472
75120W        W34656  23.099  42.355   2.312
75121W        W34657  20.172  36.409   1.838
75122W        W34658   2.444  18.656  11.894
75123W        W34659  20.091  33.438  10.097
75124W        W34660   6.684  29.601  10.011
75125W        W34661  13.143   1.260  13.805
75126W        W34662  18.161  40.026   0.802
75127W        W34663  13.274  19.649   9.978
75128W        W34664  41.802  17.564  10.502
75129W        W34665  14.096  30.138   2.900
75130W        W34666  25.987  41.469   4.766
75131W        W34667  12.738  40.871   1.379
75132W        W34668  38.546  39.836   1.304
75133W        W34669  22.559   1.958  11.090
75134W        W34670  43.304   3.870   1.396
75135W        W34671  41.445  33.481   4.711
75136W        W34672  37.067  28.012   4.687
75137W        W34673  42.911  34.396   1.927
75138W        W34674   9.766   8.324   1.912
75139W        W34675  17.579  32.108   2.342
75140W        W34676  39.330  37.379  13.997
75141W        W34677  33.018  34.990   0.253
75142W        W34678  29.434  10.231   1.769
75143W        W34679  14.816  13.199   0.946
75144W        W34680  24.595  13.291  12.506
75145W        W34681  40.012  38.964  11.514
75146W        W34682  14.293  41.459  11.464
75147W        W34683  41.309   6.870   1.724
75148W        W34684  27.604  44.477  14.466
75149W        W34685  23.566  16.797  14.349
75150W        W34686  21.671  16.292   0.422
75151W        W34687  27.187  31.967   1.263
75152W        W34688   5.426  20.559   3.319
75153W        W34689  35.507   8.770  11.546
75154W        W34690  33.541  15.769   3.651
75155W        W34691  11.215  37.077   1.252
75156W        W34692  31.123  15.249  12.073
75157W        W34693   5.238  36.939   1.717
75158W        W34694  34.907  26.098   2.327
75159W        W34695  22.167  24.724   1.873
75160W        W34696  33.590  31.404  12.514
75161W        W34697   5.816  41.393  12.499
75162W        W34698  24.665  17.200  14.304
75163W        W34699  15.652   6.196  14.509
75164W        W34700  13.777   7.895   0.950
75165W        W34701  29.453   6.770   4.351
75166W        W34702   2.276  39.401   3.758
75167W        W34703  19.271  40.386   4.123
75168W        W34704   2.379   0.271   4.762
75169W        W34705  17.601  13.113  13.484
75170W        W34706  22.734  33.429   4.711
75171W        W34707  32.057   2.792  12.406
75172W        W34708  23.643  25.046   2.814
75173W        W34709   0.808  25.537   1.859
75174W        W34710  21.227  28.616  13.382
75175W        W34711  24.120  37.545  14.017
75176W        W34712  36.069  26.024  13.548
75177W        W34713   7.339   3.755   4.147
75178W        W34714  11.206  38.985   0.963
75179W        W34715  14.303  21.608   5.081
75180W        W34716  38.837   0.968   3.236
75181W        W34717  24.226  24.638  10.968
75182W        W34718  15.276  22.621   9.947
75183W        W34719  26.607  16.748  14.876
75184W        W34720  42.341   6.873  14.921
75185W        W34721  12.209  29.965   2.268
75186W        W34722  34.931   2.410  10.612
75187W        W34723  20.549  39.406  13.920
75188W        W34724  15.731  17.714  12.533
75189W        W34725  30.911   2.815  10.944
75190W        W34726   3.810  26.084  10.030
75191W        W34727  26.625  36.385  14.894
75192W        W34728  44.005  22.592   1.275
75193W        W34729  38.403   2.855   3.301
75194W        W34730  34.067   4.792  12.869
75195W        W34731  16.187  14.217  14.815
75196W        W34732   5.344  18.722   1.841
75197W        W34733  32.957   2.776  12.833
75198W        W34734   2.909  25.521  11.875
75199W        W34735  29.562  42.998  12.852
75200W        W34736  15.178   7.220   3.844
75201W        W34737  17.302   8.285  13.883
75202W        W34738  12.841   7.847  10.913
75203W        W34739   6.714  12.143   4.605
75204W        W34740   0.405  28.975   1.343
75205W        W34741  33.426  15.744   1.806
75206W        W34742   1.749  36.955  14.396
75207W        W34743  27.943  35.861  10.494
75208W        W34744  42.986   3.456   0.317
75209W        W34745  31.498   4.424  11.431
75210W        W34746  20.203  40.541   5.217
75211W        W34747  22.071  22.027   2.376
75212W        W34748  44.318  21.683  14.456
75213W        W34749  22.052   8.892   4.213
75214W        W34750  34.460  12.209   3.185
75215W        W34751  40.325  23.607  11.377
75216W        W34752   5.362   2.264   2.665
75217W        W34753   5.777  23.714   0.263
75218W        W34754  14.631  26.059  11.554
75219W        W34755  42.007  42.424  14.004
75220W        W34756   7.749   4.889   2.347
75221W        W34757  19.142  17.228  12.910
75222W        W34758  13.750   7.696  14.366
75223W        W34759   6.380  11.153  14.402
75224W        W34760  38.463  42.853   4.641
75225W        W34761  22.999  44.846   4.128
75226W        W34762  32.038  11.135  12.062
75227W        W34763   5.710  38.933  10.492
75228W        W34764  40.416  30.161  10.633
75229W        W34765   4.895  44.305   3.204
75230W        W34766  24.691   6.383   1.369
75231W        W34767  44.354  28.939  12.072
75232W        W34768  39.495  31.936   2.325
75233W        W34769   8.731  43.991  11.414
75234W        W34770  36.887  39.842   2.810
75235W        W34771   9.206  10.303   4.710
75236W        W34772  31.054   3.917   2.417
75237W        W34773  13.162  42.936  13.542
75238W        W34774  34.897  30.131  14.965
75239W        W34775   7.700   9.814  14.795
75240W        W34776  17.594   0.930   2.235
75241W        W34777  36.078  33.497   2.206
75242W        W34778  10.648   5.840   2.402
75243W        W34779  22.099  19.207   0.426
75244W        W34780  27.094  14.192   3.797
75245W        W34781  33.887   0.747   2.353
75246W        W34782  32.494   0.493   4.615
75247W        W34783  21.228  20.121  10.948
75248W        W34784  41.824  36.887   1.291
75249W        W34785  10.140  13.620   1.417
75250W        W34786   6.800  19.210  13.793
75251W        W34787  12.620  40.020  11.064
75252W        W34788  41.826  10.221   3.180
75253W        W34789  39.482   0.832  13.918
75254W        W34790  25.024  34.906  14.331
75255W        W34791  16.690  37.395   2.286
75256W        W34792  21.218  14.791   2.250
75257W        W34793  10.810   7.879   0.867
75258W        W34794  37.508  35.579  14.337
75259W        W34795  34.588  29.161  14.380
75260W        W34796  40.836  18.061   2.221
75261W        W34797   5.734  14.104   0.925
75262W        W34798  32.538  31.433  11.572
75263W        W34799   7.195  40.373   3.796
75264W        W34800  37.067  25.684  12.928
75265W        W34801  14.208  26.045   2.681
75266W        W34802  16.680  13.137  11.577
75267W        W34803  15.125  27.187  12.886
75268W        W34804  33.533  40.434  14.949
75269W        W34805  28.568  29.626  11.020
75270W        W34806   5.903  11.141  10.447
75271W        W34807  19.666   7.285  10.964
75272W        W34808  23.531  21.757   0.267
75273W        W34809  42.499  10.195  13.002
75274W        W34810   2.806  32.607  12.894
75275W        W34811  41.462  10.663   2.731
75276W        W34812  19.169  27.953   0.284
75277W        W34813   4.231  28.538   1.302
75278W        W34814  12.246  39.366  14.810
75279W        W34815  35.392  39.062   2.240
75280W        W34816  30.598  17.793  11.049
75281W        W34817  21.664  37.085  10.442
75282W        W34818  34.977  38.451  14.366
75283W        W34819  23.715  19.689   1.319
75284W        W34820  30.602   4.350   0.842
75285W        W34821  20.584  26.158  13.983
75286W        W34822  41.471  16.131  11.603
75287W        W34823  22.199  11.793  14.384
75288W        W34824  30.151  37.405  13.525
75289W        W34825  31.459   5.350  12.477
75290W        W34826  26.633  24.676   2.701
75291W        W34827  44.460  26.528  10.531
75292W        W34828  30.651  22.712   4.623
75293W        W34829  36.532   9.868   4.700
75294W        W34830  35.053  17.155  14.790
75295W        W34831  13.342  17.219   2.264
75296W        W34832  38.530  35.498  13.477
75297W        W34833  13.186  28.954   0.437
75298W        W34834  43.783  27.118   1.331
75299W        W34835   2.252  10.149  13.873
75300W        W34836  27.013  18.195  13.001
75301W        W34837  14.778   2.293  10.569
75302W        W34838  17.637  35.920  13.866
75303W        W34839  33.875   1.801   0.483
75304W        W34840  37.935  25.573   2.247
75305W        W34841  42.832   8.864   0.945
75306W        W34842  21.155  39.895   2.412
75307W        W34843  29.620  13.690  12.393
75308W        W34844   8.272  40.875   4.599
75309W        W34845  39.462  39.971   1.872
75310W        W34846  39.873   4.356   2.201
75311W        W34847  34.466  12.315  11.049
75312W        W34848  27.578   1.428   2.860
75313W        W34849  32.433  36.881  10.948
75314W        W34850  15.158   8.713  14.886
75315W        W34851   6.904  33.417  13.412
75316W        W34852  30.055   4.225  11.428
75317W        W34853  20.679   1.276   0.830
75318W        W34854  39.983  43.940   3.198
75319W        W34855  22.719  21.183   3.307
75320W        W34856   0.906  10.805   2.290
75321W        W34857  14.116  32.082   3.656
75322W        W34858   3.420  31.026  14.869
75323W        W34859  33.481  26.150  12.488
75324W        W34860  21.639   9.876  12.921
75325W        W34861  16.262  24.500  11.093
75326W        W34862  38.020  30.920  12.451
75327W        W34863  26.700  15.773  10.060
75328W        W34864   1.364  43.914   3.279
75329W        W34865  25.967  10.796  14.996
75330W        W34866  26.101  31.462  12.411
75331W        W34867  35.360   5.800  11.870
75332W        W34868  31.416  36.946   4.128
75333W        W34869  32.058   0.758   4.774
75334W        W34870  12.248  35.534   4.351
75335W        W34871  17.274  12.175   4.199
75336W        W34872  15.110  44.931  12.399
75337W        W34873   4.420  43.298   1.842
75338W        W34874   0.366  23.711  14.348
75339W        W34875  20.166   2.249  14.346
75340W        W34876  34.515   4.839   1.733
75341W        W34877  15.220  44.829  10.898
75342W        W34878  35.490  23.630  10.078
75343W        W34879  44.402  36.022  14.436
75344W        W34880  40.320  19.664  11.490
75345W        W34881   3.762  36.925   2.823
75346W        W34882  42.020  26.590  12.898
75347W        W34883   7.197  35.473   3.369
75348W        W34884   0.759   4.305  12.392
75349W        W34885  42.852  11.745  12.360
75350W        W34886  30.066  11.643  14.918
75351W        W34887  19.665   2.284  14.501
75352W        W34888  26.702   9.318   4.622
75353W        W34889  16.186   8.837   2.215
75354W        W34890  15.282  10.187   4.149
75355W        W34891  37.368  25.219  13.363
75356W        W34892  24.984  39.554   2.308
75357W        W34893  43.273  15.789   4.791
75358W        W34894  36.391  25.003  13.508
75359W        W34895  14.307  37.996  11.074
75360W        W34896  34.559  43.935  12.510
75361W        W34897  44.502  33.931   4.321
75362W        W34898  18.593  37.832   0.834
75363W        W34899  43.776   7.284  13.468
75364W        W34900  31.059   0.294   0.763
75365W        W34901  16.148   7.178   2.310
75366W        W34902  44.497   6.850   3.824
75367W        W34903   7.716   0.818   5.306
75368W        W34904  30.939   6.316  14.472
75369W        W34905   8.804  23.573  13.879
75370W        W34906  35.901  23.651  12.570
75371W        W34907  24.713  40.544   3.334
75372W        W34908  11.280   9.741   4.150
75373W        W34909   7.339  10.705   1.427
75374W        W34910  31.563  33.931  13.542
75375W        W34911  37.450   5.918  12.922
75376W        W34912  11.645  17.154  12.404
75377W        W34913  20.205   8.349   2.407
75378W        W34914  40.000  14.119   0.343
75379W        W34915  41.530  23.225   0.764
75380W        W34916  41.954  29.645  10.499
75381W        W34917   3.459   9.284  11.033
75382W        W34918  16.262  27.011   1.368
75383W        W34919   0.750   6.695  11.909
75384W        W34920  34.069  15.817   3.257
75385W        W34921   8.349  44.821  12.001
75386W        W34922  27.969  18.153   0.427
75387W        W34923  43.324  31.971  12.029
75388W        W34924  34.955  15.126   3.667
75389W        W34925  41.389  12.702   4.290
75390W        W34926  19.648  29.568   1.882
75391W        W34927  43.859  31.410   3.834
75392W        W34928  43.917  19.587  13.429
75393W        W34929  44.379   0.746   1.933
75394W        W34930   3.455   7.872  13.431
75395W        W34931  42.417  31.019   0.461
75396W        W34932   3.219  16.766  13.310
75397W        W34933   0.494   1.420   0.360
75398W        W34934  38.348  44.798   1.806
75399W        W34935   4.353  42.391  10.966
75400W        W34936  13.277  41.793  12.062
75401W        W34937   2.255  10.803   2.716
75402W        W34938   6.359  36.982   4.278
75403W        W34939  14.247  23.133   1.836
75404W        W34940  28.525   5.792   0.445
75405W        W34941  34.527  11.816   4.212
75406W        W34942  38.554  43.303   4.806
75407W        W34943  37.998  27.159   1.391
75408W        W34944  19.561  21.698   2.243
75409W        W34945  26.969  41.330  11.107
75410W        W34946   9.196  20.141  12.829
75411W        W34947  14.756  10.160  12.423
75412W        W34948  11.829   3.759  14.508
75413W        W34949  36.042  14.783  11.857
75414W        W34950  35.955  12.306  11.520
75415W        W34951  20.634  41.371   1.452
75416W        W34952  10.845  23.530  11.013
75417W        W34953   9.227   3.339  10.614
75418W        W34954  35.926   0.343   1.855
75419W        W34955  10.154  17.733  11.492
75420W        W34956  43.858  24.187   3.713
75421W        W34957  42.962  27.988   1.246
75422W        W34958  18.649  31.438   4.696
75423W        W34959  40.473  43.399   2.201
75424W        W34960  24.231  11.145  10.523
75425W        W34961  35.559  27.009   2.361
75426W        W34962  17.151  36.955  12.091
75427W        W34963  13.218  25.207   2.293
75428W        W34964  37.460  28.489   3.772
75429W        W34965  26.583  15.635  13.907
75430W        W34966  36.380  11.131  10.926
75431W        W34967  15.291  29.146  14.814
75432W        W34968  24.975  41.881  14.323
75433W        W34969  36.937  11.780  12.447
75434W        W34970  39.447  28.082   4.795
75435W        W34971   3.348  43.349  14.991
75436W        W34972  33.923  31.112  10.544
75437W        W34973  44.349  30.089   1.429
75438W        W34974   1.422  40.507  12.082
75439W        W34975  21.740  44.424   4.686
75440W        W34976  23.115   1.293  13.449
75441W        W34977  42.511  32.461  14.360
75442W        W34978  44.805   6.876   4.169
75443W        W34979  12.341  21.640  12.034
75444W        W34980  24.598  40.044   0.412
75445W        W34981   9.685   1.805  11.571
75446W        W34982  26.016   7.358   2.295
75447W        W34983  30.518  34.581   2.790
75448W        W34984  30.099  33.434   4.633
75449W        W34985  25.966   2.878   9.511
75450W        W34986  37.514   9.166  12.913
75451W        W34987  26.167   8.771   0.393
75452W        W34988  41.509  16.184   1.761
75453W        W34989   2.961  10.657  14.333
75454W        W34990  33.581  31.643  10.612
75455W        W34991  38.987  13.670   2.894
75456W        W34992  43.771  42.352  13.919
75457W        W34993  19.169  13.741  11.433
75458W        W34994   2.776   0.336   1.735
75459W        W34995  31.112   7.324   1.906
75460W        W34996  28.604  21.261  10.509
75461W        W34997  23.051  26.487  11.532
75462W        W34998   8.292  13.285   2.213
75463W        W34999  23.161   0.916  12.386
75464W        W35000   5.226  37.028  10.446
75465W        W35001   8.212   1.261  14.433
75466W        W35002  42.307  20.693  11.911
75467W        W35003   9.863  25.609  11.934
75468W        W35004  32.610  26.512  13.515
75469W        W35005  23.074   2.861   5.709
75470W        W35006  22.664   0.749   9.997
75471W        W35007  30.987   0.775  12.003
75472W        W35008  32.417  18.069   4.128
75473W        W35009  18.197  36.900  13.949
75474W        W35010  23.561  10.169  12.893
75475W        W35011  16.631  37.391  11.089
75476W        W35012   8.218  13.324   3.184
75477W        W35013   3.246   2.464  13.355
75478W        W35014   8.359   6.296   2.879
75479W        W35015   4.734  21.594  11.037
75480W        W35016  39.877  40.941   2.743
75481W        W35017   9.321  26.012  14.330
75482W        W35018   3.820  41.978  14.292
75483W        W35019  35.072  28.155   2.718
75484W        W35020  24.675  12.735  11.449
75485W        W35021  35.013  25.496  10.945
75486W        W35022  22.741  18.179   1.450
75487W        W35023  44.791   3.376  11.489
75488W        W35024  15.800   2.906  13.795
75489W        W35025  38.415  18.147  11.884
75490W        W35026  23.582  29.474   0.818
75491W        W35027  19.692  22.997   2.886
75492W        W35028  14.751  33.926   4.144
75493W        W35029  36.007  36.977   3.150
75494W        W35030  37.474   2.903  12.460
75495W        W35031  38.838  39.924   3.350
75496W        W35032   3.792   6.279   0.277
75497W        W35033  11.830  13.633  12.454
75498W        W35034  38.478  41.453   4.716
75499W        W35035  13.697  44.284   1.850
75500W        W35036  12.188   3.341   2.855
75501W        W35037  39.999  13.291  13.534
75502W        W35038  16.232  41.975  10.445
75503W        W35039  23.623  29.643   4.154
75504W        W35040  27.138  25.062   4.811
75505W        W35041  34.533   5.789  11.116
75506W        W35042  14.192  27.447   1.427
75507W        W35043  10.851  39.925   0.848
75508W        W35044  23.004   8.853   3.251
75509W        W35045  40.387  17.094  11.462
75510W        W35046  22.084   7.831  14.915
75511W        W35047  19.144  24.033   5.172
75512W        W35048  42.951  18.578  13.057
75513W        W35049  19.108  18.741   5.294
75514W        W35050  14.272  43.342   2.766
75515W        W35051  25.987  41.862   1.350
75516W        W35052  28.463  41.923  14.288
75517W        W35053  11.852  20.645  10.624
75518W        W35054  25.552  39.005  11.378
75519W        W35055   5.737  22.096   3.175
75520W        W35056   5.712   9.862  14.325
75521W        W35057  22.729  39.490   4.156
75522W        W35058   4.206  40.917  12.367
75523W        W35059  32.604  22.513  10.986
75524W        W35060  29.051  24.615  10.427
75525W        W35061  41.929  16.736  12.939
75526W        W35062  30.926  18.658   0.849
75527W        W35063   9.380  10.191  11.956
75528W        W35064  44.997  32.031   2.242
75529W        W35065   3.889   6.394   4.788
75530W        W35066  17.073  41.479   0.421
75531W        W35067   0.865  33.064   3.263
75532W        W35068  41.926   3.710   0.311
75533W        W35069   4.316  33.427   0.294
75534W        W35070  22.204  18.200   5.613
75535W        W35071   5.902   5.902  13.353
75536W        W35072  36.973   2.908   1.415
75537W        W35073   0.951  20.659  10.899
75538W        W35074  21.655  14.601   4.161
75539W        W35075  17.775  35.957   2.181
75540W        W35076  25.470  42.298   1.435
75541W        W35077  12.148  40.383   4.784
75542W        W35078  39.831   2.773  10.453
75543W        W35079  37.535   6.359  12.901
75544W        W35080   6.736  12.768  13.496
75545W        W35081  11.137  11.864   5.111
75546W        W35082  10.680  31.047   4.836
75547W        W35083  24.077   9.344   5.133
75548W        W35084  24.991   6.752  13.053
75549W        W35085  23.122  23.592   2.895
75550W        W35086  17.630  12.275  11.473
75551W        W35087  32.456   7.808  12.964
75552W        W35088  25.988  17.273  12.036
75553W        W35089  19.730  39.037   0.923
75554W        W35090  25.186   6.842  10.891
75555W        W35091  18.085  10.836   4.711
75556W        W35092  31.913  11.818  14.932
75557W        W35093  30.063  35.000  10.485
75558W        W35094   3.442  28.168  12.407
75559W        W35095  11.851  26.628   9.616
75560W        W35096  14.132  22.054   9.995
75561W        W35097   2.421  15.615   1.906
75562W        W35098  35.974  37.933   3.155
75563W        W35099  30.966  19.225  12.560
75564W        W35100  23.523  32.981   1.214
75565W        W35101  43.295  37.063  14.955
75566W        W35102  22.168  40.438  14.935
75567W        W35103  42.876  22.556   4.764
75568W        W35104  16.105   7.353   4.637
75569W        W35105  13.757  41.318   2.668
75570W        W35106  15.822  36.409  11.604
75571W        W35107  38.334   6.874   1.899
75572W        W35108  26.694  36.076   5.242
75573W        W35109  24.661  22.028   2.679
75574W        W35110  13.258  43.802  11.514
75575W        W35111  42.889  27.557  10.991
75576W        W35112  19.193  25.600   2.702
75577W        W35113  38.843  35.386  11.955
75578W        W35114  40.889  22.532   4.810
75579W        W35115   1.735  13.753  14.351
75580W        W35116  12.172   9.753   0.418
75581W        W35117  24.101  30.932  14.890
75582W        W35118  20.273  38.977   4.193
75583W        W35119  13.152   0.987  12.507
75584W        W35120  36.480   4.771  12.020
75585W        W35121  20.595   9.645   3.801
75586W        W35122  38.519  41.795   3.838
75587W        W35123  25.002  25.019  11.613
75588W        W35124   0.832   0.439   1.400
75589W        W35125  22.575  35.004   2.691
75590W        W35126   9.826  42.979   4.141
75591W        W35127  19.751   8.349  10.568
75592W        W35128  14.202  35.404   1.306
75593W        W35129  18.720  20.038   3.668
75594W        W35130  41.327  28.483  10.426
75595W        W35131   4.241  32.548  10.627
75596W        W35132  29.042   2.295  12.532
75597W        W35133  14.681  29.019   3.807
75598W        W35134  18.602  17.129   0.916
75599W        W35135  14.129  28.630   3.209
75600W        W35136  27.671  36.401  11.885
75601W        W35137  33.905  34.930   3.765
75602W        W35138  32.956  13.738   0.892
75603W        W35139  38.461  28.650   4.625
75604W        W35140   2.794   1.975   1.791
75605W        W35141   0.779  11.189  14.007
75606W        W35142  32.595  30.975  11.472
75607W        W35143   5.385   1.338  11.932
75608W        W35144  44.893   4.274   0.297
75609W        W35145   3.826  42.452   4.760
75610W        W35146  15.299  25.044   1.236
75611W        W35147  39.988  33.402  13.879
75612W        W35148  37.463  34.380   2.384
75613W        W35149  33.476   4.271  11.995
75614W        W35150  14.268  32.936  11.543
75615W        W35151  37.069  12.306   3.842
75616W        W35152  43.439  32.507  13.545
75617W        W35153  33.506  15.631   4.678
75618W        W35154  12.766  13.739   3.644
75619W        W35155  43.947  44.386  14.903
75620W        W35156  42.495   0.827  13.882
75621W        W35157  15.725  39.958  14.862
75622W        W35158  22.742  25.565  12.396
75623W        W35159   8.661  18.724  14.773
75624W        W35160  30.436  38.326  10.447
75625W        W35161  13.692  40.442  11.075
75626W        W35162  12.701  40.445   3.790
75627W        W35163  39.917  39.881   2.326
75628W        W35164  11.715  18.279   4.323
75629W        W35165  13.604  12.313   3.164
75630W        W35166  27.620  15.272   3.385
75631W        W35167  31.969   3.908  14.965
75632W        W35168  36.003  25.972  10.957
75633W        W35169  40.849   1.916   0.469
75634W        W35170   2.902  39.011  11.523
75635W        W35171   5.878  29.166  12.449
75636W        W35172  22.063  33.606  14.407
75637W        W35173  11.758  30.506   4.793
75638W        W35174  35.089  28.591  11.971
75639W        W35175   5.318   1.928  10.494
75640W        W35176  17.666  17.643   1.788
75641W        W35177  13.707   4.432   1.220
75642W        W35178  25.210  13.314   1.826
75643W        W35179  21.566  25.575   4.788
75644W        W35180  44.797  28.483  11.123
75645W        W35181  22.089  35.483   1.397
75646W        W35182   9.652  11.724  10.913
75647W        W35183  42.945  34.865  12.984
75648W        W35184  12.327  12.205  11.495
75649W        W35185  21.125  36.031   5.147
75650W        W35186  25.623  35.472  11.912
75651W        W35187  24.208  25.601   4.832
75652W        W35188  14.696  17.231   3.683
75653W        W35189  10.153  15.682  12.028
75654W        W35190  30.016  10.740  12.461
75655W        W35191  39.541  38.446  11.901
75656W        W35192  22.535  31.628   2.225
75657W        W35193  21.147  34.527   3.770
75658W        W35194  44.422  20.645  13.798
75659W        W35195   9.720  35.923   4.827
75660W        W35196  37.986  10.324  10.482
75661W        W35197  17.669  30.160  14.826
75662W        W35198  34.904  36.029   0.396
75663W        W35199   9.182   9.863  12.469
75664W        W35200  23.170  43.911   2.843
75665W        W35201  22.052   1.973  10.456
75666W        W35202   8.892  26.107  13.498
75667W        W35203  32.139  10.742   1.844
75668W        W35204  18.576  43.877  10.440
75669W        W35205  33.497  18.119  13.436
75670W        W35206  31.577   2.344   2.298
75671W        W35207   9.267   9.837   3.659
75672W        W35208  43.979  11.141   0.738
75673W        W35209   6.365   2.277   3.283
75674W        W35210  14.808   3.307   1.919
75675W        W35211  29.932  36.556   2.772
75676W        W35212  26.148  13.291   0.797
75677W        W35213   0.255   8.707  10.965
75678W        W35214  26.691  12.636   0.905
75679W        W35215   3.787   1.845   5.309
75680W        W35216  22.518  41.453  14.889
75681W        W35217  10.271  41.329  12.028
75682W        W35218   9.149  41.375  12.975
75683W        W35219  44.328  28.187   4.180
75684W        W35220  30.014  36.424  13.991
75685W        W35221  17.737  41.790  12.061
75686W        W35222  15.250  40.954   0.745
75687W        W35223  32.914  24.710   0.754
75688W        W35224  17.097  13.253  11.536
75689W        W35225   3.404  34.520  11.882
75690W        W35226  19.096  41.313   1.426
75691W        W35227  27.679   4.441  13.027
75692W        W35228  36.020  17.638   2.229
75693W        W35229  18.574   2.764   1.315
75694W        W35230  40.925  11.788   0.907
75695W        W35231  16.741  39.843   0.422
75696W        W35232  39.931   3.442   3.629
75697W        W35233   6.256  24.633  10.028
75698W        W35234  39.527   6.278  13.892
75699W        W35235  19.213  42.526   3.214
75700W        W35236   2.802  20.051  13.544
75701W        W35237  27.477  34.597  10.419
75702W        W35238  31.975  27.132  10.621
75703W        W35239  18.094  26.630  13.014
75704W        W35240  38.062  11.303  14.005
75705W        W35241   5.217   0.415   2.225
75706W        W35242  42.977  16.671   3.282
75707W        W35243  11.642  14.216   2.398
75708W        W35244  42.285  36.534  12.865
75709W        W35245  44.450  42.894   0.420
75710W        W35246  27.981   7.860   2.412
75711W        W35247  34.405  42.442  10.635
75712W        W35248  28.994  42.807   2.359
75713W        W35249  39.456  16.079   1.439
75714W        W35250  13.660   9.182   4.223
75715W        W35251  20.131  17.573  13.360
75716W        W35252  14.632  42.484   4.277
75717W        W35253  28.980  25.984   3.739
75718W        W35254   2.778  38.851   1.309
75719W        W35255  16.235  16.124  14.459
75720W        W35256  42.357   6.207  12.891
75721W        W35257  14.150   0.423  11.426
75722W        W35258  28.559  16.592   4.232
75723W        W35259  35.425  39.410   3.206
75724W        W35260  37.345  29.163   3.272
75725W        W35261  13.239  44.931  11.996
75726W        W35262  21.217   8.805  13.455
75727W        W35263  30.990  35.037  12.930
75728W        W35264  39.033  10.232  10.469
75729W        W35265  22.661  29.078   1.844
75730W        W35266  12.201  30.505  11.952
75731W        W35267  41.841   6.294   4.195
75732W        W35268  13.834   7.379  12.028
75733W        W35269  15.712  34.502  14.497
75734W        W35270  25.544  18.564  12.520
75735W        W35271  35.407  16.236  13.515
75736W        W35272  31.531   4.873   2.221
75737W        W35273  20.672  15.756   2.281
75738W        W35274  23.671  25.994   4.796
75739W        W35275   6.384   8.881  14.934
75740W        W35276  28.510  24.548   4.738
75741W        W35277  43.421  14.640   3.269
75742W        W35278  22.074  42.351  14.325
75743W        W35279   4.271  27.950   2.260
75744W        W35280  17.665  19.761   1.721
75745W        W35281   2.868  32.049   4.693
75746W        W35282  26.657  38.335   0.313
75747W        W35283   1.976   2.834   2.769
75748W        W35284   8.355  16.194  14.817
75749W        W35285  42.842  32.916   1.727
75750W        W35286  10.151  31.408  11.463
75751W        W35287  36.472  17.747   3.793
75752W        W35288  27.656  15.642   2.779
75753W        W35289   5.261  24.219  12.020
75754W        W35290  20.239  32.952  14.319
75755W        W35291   6.256  42.012  11.520
75756W        W35292   0.810  20.240   0.892
75757W        W35293   3.841  36.042   3.852
75758W        W35294  22.612  14.155   4.245
75759W        W35295  41.296  28.957  10.940
75760W        W35296  36.986  41.472   0.902
75761W        W35297  42.783  16.167   4.688
75762W        W35298  10.296  29.965  14.327
75763W        W35299  43.770  28.939   0.478
75764W        W35300  11.774  17.633  13.407
75765W        W35301  17.679  28.031   1.437
75766W        W35302  26.667   1.408  14.955
75767W        W35303  28.549  43.270   0.785
75768W        W35304  25.185  36.954  12.972
75769W        W35305  41.414  32.456   0.324
75770W        W35306  25.579  27.182   1.875
75771W        W35307  11.649  18.662  13.415
75772W        W35308  27.963   4.358   1.261
75773W        W35309  36.432  43.901  10.463
75774W        W35310  22.024  25.165   1.289
75775W        W35311  16.675  34.392  14.456
75776W        W35312  30.158  32.068  14.799
75777W        W35313  11.733  17.278  12.864
75778W        W35314  14.685  13.323   4.177
75779W        W35315  13.215  29.919  13.341
75780W        W35316   6.921  27.009   2.721
75781W        W35317  39.463  43.840  11.576
75782W        W35318  13.203  21.082  12.011
75783W        W35319  37.489  32.952   4.273
75784W        W35320  36.060  13.743   3.679
75785W        W35321  25.109  37.439  13.959
75786W        W35322  20.043  17.571  11.444
75787W        W35323   7.793   2.838   4.689
75788W        W35324  43.886   3.447  12.078
75789W        W35325  32.056  39.321   0.843
75790W        W35326  29.947  25.104   1.325
75791W        W35327  37.007  41.812  14.331
75792W        W35328  19.183   3.784   0.378
75793W        W35329  27.579  19.282   3.641
75794W        W35330  30.131  11.747   0.462
75795W        W35331   1.923   9.810  14.935
75796W        W35332  41.496  33.537   2.181
75797W        W35333  18.584  31.124   2.698
75798W        W35334  22.611  10.649  14.439
75799W        W35335  17.149  14.794  11.061
75800W        W35336  25.673  37.904  12.009
75801W        W35337  17.619  11.761  14.465
75802W        W35338  36.907   9.269  13.514
75803W        W35339  27.628  25.220   0.296
75804W        W35340   4.822  30.444   3.381
75805W        W35341  37.376  32.602   2.899
75806W        W35342  11.328  10.213   2.746
75807W        W35343  21.671  19.569   1.934
75808W        W35344  23.509  30.522  11.412
75809W        W35345  13.257   4.351   1.353
75810W        W35346  38.846  20.738   5.148
75811W        W35347  39.019  37.389  11.588
75812W        W35348   7.704  37.893   4.615
75813W        W35349  36.863  43.321   2.728
75814W        W35350  35.465  25.051   5.150
75815W        W35351   1.885   4.449  14.370
75816W        W35352  42.323  40.412  13.513
75817W        W35353  42.902   2.392   1.790
75818W        W35354  34.117   9.226   1.707
75819W        W35355  18.768  25.204   4.725
75820W        W35356  15.267  12.132   3.260
75821W        W35357  22.669  19.208  11.885
75822W        W35358  36.578  32.108  10.035
75823W        W35359  20.648  27.640  13.957
75824W        W35360  10.774  22.580   4.708
75825W        W35361  28.977  23.033   3.863
75826W        W35362  15.646  37.449   0.273
75827W        W35363  18.791  38.478  13.367
75828W        W35364  25.080  17.794  13.347
75829W        W35365   0.897   4.208   1.428
75830W        W35366  33.526   9.299  13.310
75831W        W35367  37.840   0.888   1.724
75832W        W35368   7.803   4.883  13.360
75833W        W35369  17.673  44.948   0.325
75834W        W35370  32.535  17.290  13.415
75835W        W35371  30.915  36.420  10.977
75836W        W35372  28.084  23.997  14.012
75837W        W35373  36.067  22.147  13.869
75838W        W35374  37.437  43.848   3.782
75839W        W35375  29.115  12.258   0.739
75840W        W35376   6.742  43.465   0.333
75841W        W35377  14.232  40.935  10.590
75842W        W35378  14.197   2.395   4.698
75843W        W35379   1.474  20.537   2.807
75844W        W35380  40.839  15.268  13.923
75845W        W35381  42.010  43.470  10.566
75846W        W35382  18.665  44.287   2.792
75847W        W35383  18.265  23.088   4.212
75848W        W35384  32.139   0.320   4.691
75849W        W35385  19.090  17.162   0.844
75850W        W35386   5.721  42.445  10.496
75851W        W35387  24.131  19.161   1.325
75852W        W35388  24.550  43.853   0.253
75853W        W35389  10.681  24.157  12.469
75854W        W35390  16.683  25.658  13.945
75855W        W35391   1.353  11.191   9.524
75856W        W35392  42.479   7.817  12.532
75857W        W35393  30.438   5.417  14.786
75858W        W35394  15.118  38.421   0.838
75859W        W35395   1.950  11.775   2.899
75860W        W35396  41.419  42.882   0.456
75861W        W35397  34.559  35.418   2.366
75862W        W35398  32.967  39.880   0.392
75863W        W35399  31.574  14.596   2.688
75864W        W35400  16.223   6.856   2.398
75865W        W35401  28.524   3.301  14.916
75866W        W35402  40.504   0.356  12.077
75867W        W35403  24.585  38.437  11.403
75868W        W35404  36.859  19.190  11.483
75869W        W35405  39.986  17.138  14.394
75870W        W35406   6.889  44.303  12.381
75871W        W35407   2.907  15.194   0.811
75872W        W35408  29.934  35.092  12.484
75873W        W35409  36.487  10.151   1.745
75874W        W35410  32.417  18.603  14.495
75875W        W35411  11.625  36.972  13.532
75876W        W35412  35.387  41.413  13.390
75877W        W35413  33.478  24.506  10.020
75878W        W35414  14.163  19.160   4.758
75879W        W35415  17.069  33.460  12.370
75880W        W35416  27.615  44.503   2.840
75881W        W35417  44.859  10.303  12.500
75882W        W35418   8.753  10.263   1.212
75883W        W35419   9.306  14.689   3.176
75884W        W35420  25.481   1.292  14.514
75885W        W35421  18.782  24.705   2.895
75886W        W35422  21.228   0.758   3.300
75887W        W35423   6.341  12.754  11.926
75888W        W35424  12.611  15.173  13.360
75889W        W35425  12.851   9.686   9.633
75890W        W35426  42.321  25.027   4.348
75891W        W35427   1.845  27.101  10.051
75892W        W35428  28.502  35.901  14.342
75893W        W35429  33.473   0.917   1.419
75894W        W35430  14.811  37.072  12.500
75895W        W35431   9.764  15.108  14.344
75896W        W35432  11.769   1.373   0.245
75897W        W35433   7.306  21.064  14.399
75898W        W35434  39.454  44.890  11.042
75899W        W35435   6.916  44.856  11.452
75900W        W35436   7.197   1.925  13.850
75901W        W35437   8.313   7.723   4.299
75902W        W35438  43.387  41.449   1.755
75903W        W35439  12.152  12.317   0.407
75904W        W35440  10.787  11.357  12.863
75905W        W35441   0.884  15.812   3.781
75906W        W35442  36.445  42.834  12.097
75907W        W35443  30.002   4.734  13.424
75908W        W35444   3.796  22.127   0.799
75909W        W35445  34.545  44.331   3.842
75910W        W35446   7.827  26.051  13.829
75911W        W35447  41.862  25.069  10.890
75912W        W35448  40.898  17.611  12.873
75913W        W35449  42.873   1.250   0.383
75914W        W35450  18.218   5.803  12.949
75915W        W35451  31.973  12.177   0.766
75916W        W35452  25.192  19.573  13.890
75917W        W35453   1.894  43.386  14.436
75918W        W35454  14.254  38.917   3.769
75919W        W35455  33.473  16.653  11.977
75920W        W35456  27.166  18.251   2.298
75921W        W35457   7.672  42.991   2.339
75922W        W35458  27.003  26.520  14.949
75923W        W35459  23.987  24.052   4.644
75924W        W35460  44.931  42.786  12.095
75925W        W35461  14.262   0.270   4.769
75926W        W35462  32.934   3.215  13.413
75927W        W35463  30.961  27.061   1.899
75928W        W35464   8.186  18.665  12.362
75929W        W35465  20.596  17.593  12.910
75930W        W35466  37.903  12.249  10.617
75931W        W35467  26.070  12.288  14.006
75932W        W35468  10.382  27.184  11.559
75933W        W35469  12.334  18.099  14.434
75934W        W35470   0.288  24.711  12.475
75935W        W35471  24.060  23.654   3.192
75936W        W35472  35.387  38.561   4.142
75937W        W35473  24.535  43.966  13.496
75938W        W35474   4.886  23.548   5.152
75939W        W35475  42.951  36.027   0.804
75940W        W35476  13.257   8.297   2.217
75941W        W35477   1.311  13.139   2.791
75942W        W35478  37.465  32.586  10.614
75943W        W35479  28.447   8.744   1.280
75944W        W35480  18.644   7.197  14.425
75945W        W35481  39.063  12.635   0.349
75946W        W35482  42.399  23.598   2.785
75947W        W35483  24.617  40.868  12.398
75948W        W35484   6.770   0.810   4.624
75949W        W35485  34.464  19.751   1.367
75950W        W35486  29.519  15.591   1.282
75951W        W35487  37.488  29.993  12.968
75952W        W35488  20.056  35.375   9.665
75953W        W35489  28.980  21.115   3.754
75954W        W35490  14.703  12.193  12.571
75955W        W35491  32.505  27.028  12.516
75956W        W35492   6.387  33.415   0.373
75957W        W35493  25.999  36.455  12.367
75958W        W35494  21.229  28.131   2.205
75959W        W35495  27.471  19.165   5.318
75960W        W35496  43.894  40.325  12.417
75961W        W35497  32.951  30.147   2.798
75962W        W35498   3.916  13.703  14.832
75963W        W35499  18.148   7.227   3.307
75964W        W35500  21.663   5.697   3.165
75965W        W35501  39.542  27.987   3.711
75966W        W35502   7.353  30.614  11.108
75967W        W35503   2.909  17.221  12.077
75968W        W35504  39.383   5.259  14.967
75969W        W35505  23.058  35.865  11.415
75970W        W35506   9.750   8.780  14.000
75971W        W35507  41.371  12.667  12.912
75972W        W35508  33.610  10.837  13.326
75973W        W35509  20.566   6.725  12.096
75974W        W35510  30.645  34.867   3.181
75975W        W35511  29.950  39.441  11.027
75976W        W35512   1.903  30.417   2.193
75977W        W35513  39.985  37.906  13.791
75978W        W35514  15.618  33.413   3.337
75979W        W35515  39.409  14.198   1.257
75980W        W35516   8.779  30.629   4.267
75981W        W35517  29.040  13.645  13.791
75982W        W35518  36.916  29.013   3.201
75983W        W35519  37.967  43.416   0.794
75984W        W35520  12.758   3.948  11.926
75985W        W35521  10.186  11.867   0.813
75986W        W35522  43.498   9.193   4.750
75987W        W35523   0.751  17.647  13.832
75988W        W35524  19.100  22.062   2.298
75989W        W35525  21.223   2.401   2.347
75990W        W35526  39.840  43.823  13.545
75991W        W35527  22.040  33.124   3.768
75992W        W35528  34.563   9.821  13.017
75993W        W35529  36.083   6.234   3.193
75994W        W35530  25.564  11.714   0.951
75995W        W35531  41.381  35.362   2.722
75996W        W35532   0.909  12.222   0.913
75997W        W35533   7.730  23.080  13.058
75998W        W35534  31.008  29.619   0.797
75999W        W35535  23.546  34.903   3.311
76000W        W35536   0.494   9.876   1.212
76001W        W35537  18.131  20.588  13.810
76002W        W35538   2.769  13.221   2.747
76003W        W35539  17.674  34.864   2.369
76004W        W35540   1.480  39.921  14.399
76005W        W35541  40.310   3.735   2.833
76006W        W35542  26.192  38.975   1.919
76007W        W35543  17.716  27.141   0.815
76008W        W35544  41.303  35.361   3.174
76009W        W35545  21.729  33.398   0.768
76010W        W35546  28.560  23.144   3.322
76011W        W35547  40.479   3.877   1.240
76012W        W35548  10.341  20.718   3.332
76013W        W35549  14.129  28.600  10.547
76014W        W35550  21.531  31.474   3.664
76015W        W35551  34.074  11.680  12.579
76016W        W35552  21.258   0.430  13.347
76017W        W35553  37.489  34.040   0.470
76018W        W35554  28.479  12.305  14.435
76019W        W35555  27.162  12.152  13.480
76020W        W35556  32.084   9.866  13.860
76021W        W35557  21.123  37.895   1.213
76022W        W35558  29.077  31.084   4.250
76023W        W35559  22.518   2.800   5.206
76024W        W35560  24.498  42.469   3.845
76025W        W35561  16.708  21.601   2.743
76026W        W35562  38.383   5.263  10.486
76027W        W35563  32.566  39.971  11.964
76028W        W35564  11.736  37.559  10.629
76029W        W35565  34.420  38.347  11.931
76030W        W35566   0.892   6.893  14.771
76031W        W35567  41.505  19.082   4.162
76032W        W35568   9.820  29.940   3.640
76033W        W35569   0.434  14.149   0.344
76034W        W35570  17.686  12.750  12.088
76035W        W35571  14.247   8.368   2.397
76036W        W35572  39.404  36.009   0.318
76037W        W35573  38.538  37.556  13.352
76038W        W35574  32.079  28.620   3.367
76039W        W35575  20.662  17.557   0.951
76040W        W35576  34.919  17.135   3.293
76041W        W35577   6.325  44.011  13.805
76042W        W35578  25.467  24.180   1.795
76043W        W35579  31.145  29.630  12.907
76044W        W35580  23.102  19.610  12.341
76045W        W35581  13.187  29.634   9.959
76046W        W35582  42.780  23.668  14.979
76047W        W35583  35.103  36.428  13.324
76048W        W35584  34.582   8.710  12.378
76049W        W35585  22.716  24.006  10.502
76050W        W35586  26.956  13.801   4.211
76051W        W35587   7.778  34.971   0.422
76052W        W35588  31.112  18.635   4.203
76053W        W35589   9.159  18.582  11.898
76054W        W35590  38.337  22.736  13.420
76055W        W35591   7.371  42.817   1.212
76056W        W35592  29.923   7.302   1.698
76057W        W35593  43.965  42.939   4.276
76058W        W35594  33.980  44.951   4.289
76059W        W35595  34.873  33.460   3.744
76060W        W35596  40.974  25.142  14.275
76061W        W35597   9.888  28.556   3.856
76062W        W35598   1.274  34.963  12.347
76063W        W35599  15.619  24.703  10.608
76064W        W35600  44.862  41.403   0.285
76065W        W35601  30.657  23.730  14.909
76066W        W35602  22.175  33.569   1.343
76067W        W35603   7.354  26.544  13.366
76068W        W35604  24.213  27.641  13.972
76069W        W35605  14.134  41.310  13.413
76070W        W35606  23.140  15.102  13.881
76071W        W35607  32.503  43.847   1.787
76072W        W35608  40.495   2.300   9.644
76073W        W35609  43.279  26.108  12.905
76074W        W35610  35.582  12.733  11.465
76075W        W35611  14.769   1.801   3.306
76076W        W35612  43.378  30.450  12.502
76077W        W35613  29.054  30.594   1.831
76078W        W35614   4.942  23.039  10.419
76079W        W35615  44.261  10.342  11.992
76080W        W35616  32.438   8.788   5.268
76081W        W35617  13.700   9.256   2.310
76082W        W35618  23.631  36.389   4.344
76083W        W35619  22.640   8.730   5.149
76084W        W35620  27.138  17.283   2.307
76085W        W35621  22.021   9.275  12.454
76086W        W35622  42.951   9.699   0.806
76087W        W35623  25.682  20.680   9.992
76088W        W35624  14.670  26.019   4.656
76089W        W35625  32.575  38.548   0.480
76090W        W35626  44.789  40.993   2.712
76091W        W35627  39.886   1.878   2.794
76092W        W35628  23.622  25.176  11.958
76093W        W35629  10.358  36.544   4.678
76094W        W35630  27.683  33.934  13.475
76095W        W35631  14.721  19.596   5.613
76096W        W35632   5.276   0.298   4.673
76097W        W35633  17.702  42.815  13.794
76098W        W35634   8.769   3.432   2.822
76099W        W35635  15.126  23.572  12.028
76100W        W35636  13.609  10.825  12.346
76101W        W35637  40.374  16.247   0.910
76102W        W35638  39.929  36.907  13.525
76103W        W35639  14.205   8.264  10.633
76104W        W35640  43.983  37.556   4.231
76105W        W35641   3.772  12.778  12.882
76106W        W35642  11.861  35.914  12.553
76107W        W35643  26.570   2.371  13.312
76108W        W35644  32.437  42.896   2.783
76109W        W35645  28.678   5.725  12.395
76110W        W35646  37.966  38.983  12.537
76111W        W35647   3.774  38.839   0.792
76112W        W35648  29.520  17.775   4.732
76113W        W35649  41.500  22.039  12.562
76114W        W35650  12.630  38.842   3.759
76115W        W35651  44.997  25.037  14.927
76116W        W35652  35.036  40.842   2.888
76117W        W35653  36.862  42.986  10.964
76118W        W35654   5.722  28.156   4.226
76119W        W35655  11.851  33.460   2.262
76120W        W35656  27.668  21.244   5.191
76121W        W35657   4.349  23.200   5.180
76122W        W35658   3.902   1.417   1.770
76123W        W35659  14.710  29.490   0.926
76124W        W35660  25.566  22.142  14.957
76125W        W35661   1.318  27.463  13.468
76126W        W35662  44.378  43.979  10.133
76127W        W35663  13.177  43.275   4.262
76128W        W35664  25.540   4.899   2.336
76129W        W35665  33.502  36.452  11.414
76130W        W35666  43.269   7.305  11.503
76131W        W35667  40.524   5.857   3.369
76132W        W35668  36.370  17.624   4.617
76133W        W35669  16.677  42.330  14.808
76134W        W35670   5.694  31.092  13.440
76135W        W35671  14.280  29.999  12.866
76136W        W35672  12.296  34.439   3.275
76137W        W35673  28.503  21.192   3.245
76138W        W35674   5.817  44.417  10.520
76139W        W35675   2.884  17.269   1.430
76140W        W35676  26.177   8.824   4.306
76141W        W35677  20.716  16.292  12.581
76142W        W35678   9.178  14.250   2.674
76143W        W35679   4.298  42.892   0.340
76144W        W35680  21.065  28.938  14.397
76145W        W35681   2.226  12.154   3.714
76146W        W35682  18.172  34.438   1.821
76147W        W35683  36.007  34.390   3.230
76148W        W35684  42.408  44.867  12.427
76149W        W35685  42.782  34.884   3.213
76150W        W35686  13.619  20.088   1.411
76151W        W35687  32.952  44.896  10.426
76152W        W35688  31.145   2.456   0.948
76153W        W35689  19.241  29.448   1.283
76154W        W35690  11.738  38.530  13.405
76155W        W35691  32.447   5.397  12.995
76156W        W35692  40.541  23.157   0.790
76157W        W35693  23.985  38.443   0.840
76158W        W35694  18.574  41.861  14.964
76159W        W35695  36.542  26.155   1.895
76160W        W35696  14.600  35.423  10.954
76161W        W35697  32.931  35.884   2.847
76162W        W35698  26.065  27.458  12.400
76163W        W35699  21.519  26.953  13.933
76164W        W35700  28.509  10.175  14.004
76165W        W35701  28.987  25.107   2.841
76166W        W35702  23.704  40.855   2.381
76167W        W35703  17.689  26.135   4.663
76168W        W35704  27.478  12.303  13.446
76169W        W35705  10.831   5.219  11.461
76170W        W35706  34.109  14.629   2.794
76171W        W35707  12.307  19.579  12.980
76172W        W35708   4.246  30.920  10.629
76173NA+    NA+35709  32.566  12.768  11.456
76174NA+    NA+35710  18.562  29.147  13.924
76175NA+    NA+35711  25.072  38.416   0.801
76176NA+    NA+35712   9.658  11.354  14.839
76177NA+    NA+35713  21.589   1.838   4.141
76178NA+    NA+35714  27.583  28.593   0.332
76179NA+    NA+35715   3.943  28.961   3.158
76180NA+    NA+35716  44.478   1.475   3.722
76181NA+    NA+35717  40.037   3.310  11.013
76182NA+    NA+35718  35.464  14.309   4.346
76183NA+    NA+35719  13.132  17.741  12.082
76184NA+    NA+35720  38.032   7.325  12.537
76185NA+    NA+35721  19.592   5.876   4.140
76186NA+    NA+35722  10.185  11.759  10.435
76187NA+    NA+35723  43.365   7.285   0.484
76188NA+    NA+35724  22.026  30.446   2.306
76189NA+    NA+35725  33.078  24.047  10.547
76190NA+    NA+35726  25.486  43.485   0.299
76191NA+    NA+35727  39.894  22.654   4.245
76192NA+    NA+35728   2.829   1.430   1.450
76193NA+    NA+35729  42.826  43.791  10.623
76194NA+    NA+35730  11.354  38.452   3.257
76195NA+    NA+35731   4.786   8.315   4.199
76196NA+    NA+35732   5.842  36.348  13.844
76197NA+    NA+35733  29.146  17.187   1.356
76198NA+    NA+35734  27.642  20.540   3.821
76199NA+    NA+35735  35.020  30.427  10.983
76200NA+    NA+35736   7.684  39.426  14.855
76201NA+    NA+35737  14.264   4.244   2.808
76202NA+    NA+35738  16.311  23.080   2.269
76203NA+    NA+35739   0.407  22.574  10.546
76204NA+    NA+35740  12.768  41.425  11.062
76205NA+    NA+35741  11.666   9.739   3.852
76206NA+    NA+35742  39.914  34.581   2.282
76207NA+    NA+35743  22.131  31.097  10.918
76208NA+    NA+35744  15.092   6.375   2.310
76209NA+    NA+35745   6.373  14.652   1.410
76210NA+    NA+35746   3.340   1.447   0.957
76211NA+    NA+35747  27.473  15.220  12.890
76212NA+    NA+35748  31.595   0.310  13.895
76213NA+    NA+35749  40.880  43.913  10.550
76214NA+    NA+35750  28.153  11.849  11.465
76215NA+    NA+35751  17.736  43.826  11.079
76216NA+    NA+35752  34.118  19.236  14.389
76217NA+    NA+35753  12.359  14.279   0.904
76218NA+    NA+35754  14.612   2.920  14.915
76219NA+    NA+35755  20.198  29.477  13.861
76220NA+    NA+35756   0.296  17.137   2.314
76221NA+    NA+35757  42.780  15.244  12.443
76222NA+    NA+35758  13.650  41.896  13.799
76223NA+    NA+35759  39.862   0.250   1.235
76224NA+    NA+35760  19.282  43.470   4.194
76225NA+    NA+35761  21.631   1.244  11.580
76226NA+    NA+35762  37.004   9.877  12.078
76227NA+    NA+35763  22.021  16.796   4.198
76228NA+    NA+35764  32.896  11.311  14.974
76229NA+    NA+35765   1.453  22.502  14.460
76230NA+    NA+35766  27.494  13.718  10.615
76231NA+    NA+35767  10.276   1.732   1.405
76232NA+    NA+35768  17.694  25.669   3.805
76233NA+    NA+35769   8.310  30.105  11.468
76234NA+    NA+35770   5.921  39.923  11.879
76235NA+    NA+35771  16.292  21.595  10.556
76236NA+    NA+35772   2.237  19.665   2.729
76237NA+    NA+35773  12.835  16.580   4.736
76238NA+    NA+35774  43.012  25.120  13.877
76239NA+    NA+35775  38.423   5.881  12.041
76240NA+    NA+35776  22.082   3.768  12.941
76241NA+    NA+35777  21.053  30.110  11.479
76242NA+    NA+35778  31.445  23.985  11.106
76243NA+    NA+35779  43.493  40.044   3.196
76244NA+    NA+35780  43.356  22.502   2.870
76245NA+    NA+35781  31.537  32.605  11.379
76246NA+    NA+35782  29.954  43.844  12.493
76247NA+    NA+35783  26.500  31.415  13.451
76248NA+    NA+35784   3.215  18.731  12.503
76249NA+    NA+35785  22.531   2.245  13.024
76250NA+    NA+35786  25.197  38.944  12.575
76251NA+    NA+35787  26.132  10.643   1.772
76252NA+    NA+35788   7.263  16.799  12.446
76253NA+    NA+35789  39.026   1.246   2.765
76254NA+    NA+35790   5.815  25.634   3.200
76255NA+    NA+35791  30.148  18.054   1.894
76256NA+    NA+35792  14.772  21.263  12.416
76257NA+    NA+35793   3.380  38.886  12.436
76258NA+    NA+35794  24.230  37.337  12.915
76259NA+    NA+35795   7.776  19.644  10.015
76260NA+    NA+35796  11.649  17.061   0.889
76261NA+    NA+35797   5.809  34.578   0.459
76262NA+    NA+35798  10.761  24.545  12.921
76263NA+    NA+35799  41.509   8.180   4.609
76264NA+    NA+35800  20.737  20.637   5.771
76265NA+    NA+35801  33.386  29.078   2.349
76266NA+    NA+35802  39.497  19.159  14.786
76267NA+    NA+35803   2.845  15.651  10.483
76268NA+    NA+35804   5.243   0.953  12.958
76269NA+    NA+35805  28.171  41.344  14.452
76270NA+    NA+35806  22.550  44.930   4.624
76271NA+    NA+35807  16.615  32.459   3.778
76272NA+    NA+35808  35.099   6.804   0.324
76273NA+    NA+35809  34.370  43.383   1.233
76274NA+    NA+35810  14.705  41.877   4.250
76275NA+    NA+35811  32.954  29.152   0.254
76276NA+    NA+35812  20.081  39.821  11.954
76277NA+    NA+35813  39.425  31.017   1.341
76278NA+    NA+35814   4.430  33.062  12.539
76279NA+    NA+35815   6.280  10.684  14.945
76280NA+    NA+35816  38.492   6.357   4.276
76281NA+    NA+35817  21.582   6.253   3.206
76282NA+    NA+35818  33.031  32.131   1.448
76283NA+    NA+35819  36.068   3.870  12.879
76284NA+    NA+35820   8.339   4.944  14.922
76285NA+    NA+35821  44.794  19.245   1.386
76286NA+    NA+35822  43.434  33.558  14.331
76287NA+    NA+35823  17.650  35.425  11.869
76288NA+    NA+35824  25.101   4.242  14.790
76289NA+    NA+35825  42.947  31.122  13.809
76290NA+    NA+35826  31.525  10.859  12.928
76291NA+    NA+35827  30.090  32.994  10.641
76292NA+    NA+35828  12.675   3.395   0.363
76293NA+    NA+35829   7.880  34.120  10.924
76294NA+    NA+35830  31.968  22.042  12.476
76295NA+    NA+35831   0.404  43.459  13.053
76296NA+    NA+35832  15.155  33.435   3.173
76297NA+    NA+35833  23.508  29.930   3.286
76298NA+    NA+35834   4.444   5.738   4.835
76299NA+    NA+35835  28.163  39.883   5.173
76300NA+    NA+35836  28.670  26.136   1.214
76301NA+    NA+35837  34.972   5.196  13.531
76302NA+    NA+35838  28.138   5.746  13.345
76303NA+    NA+35839  25.616   0.271  10.516
76304NA+    NA+35840  35.549  23.541  12.397
76305NA+    NA+35841  18.250  40.867   4.765
76306NA+    NA+35842  30.948  42.013  14.806
76307NA+    NA+35843  13.295   7.191   2.681
76308NA+    NA+35844  10.820  10.701   2.877
76309NA+    NA+35845  39.384  30.007  12.973
76310NA+    NA+35846  37.489  16.810   2.749
76311NA+    NA+35847   2.444  44.270  13.340
76312NA+    NA+35848  40.051  41.297   1.326
76313NA+    NA+35849  28.545  36.857  12.951
76314NA+    NA+35850  36.528  43.458   0.333
76315NA+    NA+35851  18.592   3.806  14.277
76316NA+    NA+35852  10.186  34.487   9.954
76317NA+    NA+35853  38.359  21.731  13.415
76318NA+    NA+35854  38.977  25.016  14.794
76319NA+    NA+35855  23.109  31.462   2.804
76320NA+    NA+35856  43.486  14.216  14.773
76321NA+    NA+35857  17.198   6.419   3.297
76322NA+    NA+35858   1.359   9.768  13.798
76323NA+    NA+35859  19.572   2.828   4.731
76324NA+    NA+35860  37.441  10.778  10.440
76325NA+    NA+35861  26.672   6.744  10.893
76326NA+    NA+35862  14.335  11.792   3.768
76327NA+    NA+35863  27.678  25.691   0.253
76328NA+    NA+35864  35.869  10.716  12.035
76329NA+    NA+35865  17.619  36.484  12.966
76330NA+    NA+35866  37.483   3.298   2.220
76331NA+    NA+35867  15.691   3.892   4.720
76332NA+    NA+35868  13.659  16.750  13.395
76333NA+    NA+35869  22.233  24.984   3.361
76334NA+    NA+35870  23.992  25.044   5.289
76335NA+    NA+35871  19.652  13.700  14.023
76336NA+    NA+35872  22.583  37.899  11.589
76337NA+    NA+35873  24.588   8.361   0.408
76338NA+    NA+35874  39.028  17.211   3.347
76339NA+    NA+35875  33.939  31.053  14.922
76340NA+    NA+35876  44.878  25.196   4.754
76341NA+    NA+35877  43.825  41.505   4.179
76342NA+    NA+35878   0.758  38.532   3.275
76343NA+    NA+35879  10.680  23.131   3.294
76344NA+    NA+35880  20.187  14.113   5.264
76345NA+    NA+35881  31.511   3.438  13.009
76346NA+    NA+35882  26.958  28.963  13.432
76347NA+    NA+35883  20.592  38.011   0.276
76348NA+    NA+35884  38.985  20.714   1.735
76349NA+    NA+35885   9.872  21.649   1.758
76350NA+    NA+35886   9.189  42.474   2.802
76351NA+    NA+35887  25.641  38.392  14.373
76352NA+    NA+35888  43.335  23.162  13.817
76353NA+    NA+35889  25.215   9.693  13.536
76354NA+    NA+35890   2.758   4.346   2.668
76355NA+    NA+35891  12.720  13.147  11.373
76356NA+    NA+35892  15.801  34.066   1.394
76357NA+    NA+35893  10.165  33.534  14.354
76358NA+    NA+35894  28.942  32.020   0.308
76359NA+    NA+35895  10.207  14.617   2.340
76360NA+    NA+35896  31.026  21.239   2.293
76361NA+    NA+35897  28.967  26.130  11.974
76362NA+    NA+35898  16.805  33.901  11.390
76363NA+    NA+35899  44.335  15.640  10.930
76364NA+    NA+35900   5.749  12.834   1.733
76365NA+    NA+35901   8.303  42.921   5.232
76366NA+    NA+35902  40.521   0.845   1.333
76367NA+    NA+35903  27.185   0.393  14.918
76368NA+    NA+35904  29.515  20.710  11.971
76369NA+    NA+35905  23.005   0.271  13.383
76370NA+    NA+35906  37.378   9.211   3.636
76371NA+    NA+35907  14.298   5.248  10.574
76372NA+    NA+35908  17.156  12.660   1.734
76373NA+    NA+35909  26.585  14.729  13.325
76374NA+    NA+35910  32.542  25.690   1.846
76375NA+    NA+35911  18.595  24.054  12.542
76376NA+    NA+35912  44.980  10.668  10.032
76377NA+    NA+35913  28.974  34.437  13.937
76378NA+    NA+35914  11.216  16.317   3.710
76379NA+    NA+35915   9.167   0.880  10.615
76380NA+    NA+35916  25.051  41.901   1.887
76381NA+    NA+35917  28.972  40.936   4.793
76382NA+    NA+35918  28.508  27.031  13.338
76383NA+    NA+35919   7.848  40.820  12.562
76384NA+    NA+35920  11.778  29.465   3.769
76385NA+    NA+35921  23.142  41.927   0.892
76386NA+    NA+35922   3.883   5.896  12.394
76387NA+    NA+35923  32.601  36.975   3.757
76388NA+    NA+35924  13.198  19.250   0.264
76389NA+    NA+35925  40.447  28.479   0.826
76390NA+    NA+35926   9.890  21.708   4.608
76391NA+    NA+35927  16.778  20.599  12.880
76392NA+    NA+35928  22.221  16.579  14.314
76393NA+    NA+35929  33.604  40.918   1.792
76394NA+    NA+35930  22.178   9.313   0.363
76395NA+    NA+35931  27.486  36.947   1.851
76396NA+    NA+35932   8.306  40.514  11.099
76397NA+    NA+35933   1.460  44.989   4.757
76398NA+    NA+35934   6.688   5.799   2.873
76399NA+    NA+35935   8.676  21.040   4.613
76400NA+    NA+35936  30.495  41.535   1.859
76401NA+    NA+35937  19.770  16.673   2.197
76402NA+    NA+35938  32.436  25.512  14.952
76403NA+    NA+35939  33.592   9.886  14.777
76404NA+    NA+35940   5.344  26.546  12.470
76405NA+    NA+35941  42.463  35.993   1.918
76406NA+    NA+35942  27.029   9.306  11.526
76407NA+    NA+35943   7.326  36.479  13.859
76408NA+    NA+35944  11.129  32.547  11.885
76409NA+    NA+35945  20.581  22.518   3.157
76410NA+    NA+35946  10.162   3.720  11.385
76411NA+    NA+35947   9.190  42.300   2.327
76412NA+    NA+35948   5.346  34.379   2.731
76413NA+    NA+35949  15.749  33.600  14.807
76414NA+    NA+35950  31.564  37.557   0.864
76415NA+    NA+35951  27.973  25.679  14.409
76416NA+    NA+35952  32.444  11.211  12.580
76417NA+    NA+35953  33.570  35.999   1.934
76418NA+    NA+35954  22.117   3.841   1.764
76419NA+    NA+35955  40.918   4.429   2.383
76420NA+    NA+35956  36.545  11.731   2.800
76421NA+    NA+35957  32.115  35.405  10.901
76422NA+    NA+35958  42.016  39.833   3.348
76423NA+    NA+35959  39.324   0.267   2.698
76424NA+    NA+35960  30.593  32.597   0.967
76425NA+    NA+35961  30.917  12.773  14.857
76426NA+    NA+35962  22.011   3.875   4.725
76427NA+    NA+35963  42.365  42.998  12.421
76428NA+    NA+35964  27.506  33.000  11.386
76429NA+    NA+35965  34.452  15.279  13.480
76430NA+    NA+35966  41.465   6.385  13.054
76431NA+    NA+35967   7.667  43.386   4.185
76432NA+    NA+35968  18.705  28.044  10.573
76433NA+    NA+35969  22.216  23.154  14.870
76434NA+    NA+35970   7.394  19.186   2.733
76435NA+    NA+35971  41.815   6.336  13.429
76436NA+    NA+35972  30.048  16.776   2.742
76437NA+    NA+35973  40.486  28.494  10.612
76438NA+    NA+35974  42.283  10.868  12.998
76439NA+    NA+35975  17.218   9.197  12.040
76440NA+    NA+35976  18.079  20.715  10.132
76441NA+    NA+35977  32.613  11.238   4.287
76442NA+    NA+35978  29.653   5.257  13.870
76443NA+    NA+35979  42.306   2.738   1.800
76444NA+    NA+35980  13.838  12.254  13.366
76445NA+    NA+35981  33.486   7.906   0.368
76446NA+    NA+35982  39.518  32.931   2.856
76447NA+    NA+35983  23.553   5.751  14.920
76448NA+    NA+35984   4.734   1.329  11.888
76449NA+    NA+35985  22.571  30.439  10.047
76450NA+    NA+35986  39.523  11.747   3.325
76451NA+    NA+35987  41.866   1.960   3.791
76452NA+    NA+35988  32.614  18.575   3.369
76453NA+    NA+35989  32.629  42.936  11.484
76454NA+    NA+35990  17.584  27.516  14.401
76455NA+    NA+35991  26.960  18.712   0.772
76456NA+    NA+35992  22.610  16.773  13.931
76457NA+    NA+35993  23.589   3.750   5.167
76458NA+    NA+35994   6.205  38.013  10.030
76459NA+    NA+35995  43.330  19.696  11.903
76460NA+    NA+35996   7.807  35.055  14.894
76461NA+    NA+35997  24.225  13.721   0.774
76462NA+    NA+35998  27.641  16.095   3.192
76463NA+    NA+35999  32.615  19.589  14.849
76464NA+    NA+36000   9.668  35.087   4.598
76465NA+    NA+36001  36.911  11.330  12.443
76466NA+    NA+36002   7.309  14.274  11.960
76467NA+    NA+36003  31.609  35.451  14.411
76468NA+    NA+36004  36.393  38.550  13.497
76469NA+    NA+36005  17.251  24.683   0.460
76470NA+    NA+36006  11.680  30.613   0.770
76471NA+    NA+36007  18.718   2.292   3.806
76472NA+    NA+36008  29.668  25.684   4.830
76473NA+    NA+36009  25.694  27.088  14.898
76474NA+    NA+36010  27.132  20.749   3.217
76475NA+    NA+36011  34.377  33.602   1.763
76476NA+    NA+36012  33.414  29.997  14.401
76477NA+    NA+36013  33.005  10.636   1.301
76478NA+    NA+36014  23.490  16.077   1.899
76479NA+    NA+36015  22.018   3.358   4.353
76480NA+    NA+36016  29.576  11.706  10.973
76481NA+    NA+36017  14.196   8.304  12.017
76482NA+    NA+36018  27.513   0.279  10.551
76483NA+    NA+36019  32.909  41.436  11.985
76484NA+    NA+36020  24.635  21.612  10.469
76485NA+    NA+36021  14.169  42.521  10.911
76486NA+    NA+36022  14.589   0.367  13.339
76487NA+    NA+36023   1.281  11.192  14.012
76488NA+    NA+36024  44.315  43.989   0.782
76489NA+    NA+36025  17.103  42.918   1.375
76490NA+    NA+36026   6.265  24.110  12.468
76491NA+    NA+36027  28.104  21.725  13.960
76492NA+    NA+36028   5.753  20.760  10.969
76493NA+    NA+36029  20.092  42.031  11.909
76494NA+    NA+36030  26.698  34.866  12.502
76495NA+    NA+36031  17.692  40.407  10.906
76496NA+    NA+36032  42.349  18.255   2.869
76497NA+    NA+36033   2.874   4.797   0.270
76498NA+    NA+36034   3.922  21.563   4.780
76499NA+    NA+36035  24.607  26.554  10.901
76500NA+    NA+36036  30.526  16.283  11.034
76501NA+    NA+36037  31.946   5.928  10.456
76502NA+    NA+36038  34.466   1.920   3.277
76503NA+    NA+36039  36.590  32.050   2.276
76504NA+    NA+36040   7.806  23.572  13.476
76505NA+    NA+36041  19.223  32.444  14.008
76506NA+    NA+36042   3.873  20.692   4.687
76507NA+    NA+36043  17.744   2.904   2.331
76508NA+    NA+36044  43.286  28.457  13.888
76509NA+    NA+36045  37.574  23.224   2.203
76510NA+    NA+36046  22.542  15.312  14.009
76511NA+    NA+36047   8.814  15.127   1.828
76512NA+    NA+36048  39.822  21.697  12.947
76513NA+    NA+36049  39.953  13.766   2.740
76514NA+    NA+36050  22.212   1.901   3.725
76515NA+    NA+36051  10.855  44.959   0.752
76516NA+    NA+36052  19.578  13.282  14.972
76517NA+    NA+36053  31.018  39.979   1.238
76518NA+    NA+36054  13.216  27.560   5.594
76519NA+    NA+36055  34.408  14.774   0.806
76520NA+    NA+36056  17.639  24.008   1.916
76521NA+    NA+36057  24.199  18.691  12.928
76522NA+    NA+36058  11.298  24.055  10.549
76523NA+    NA+36059  18.189  10.257   3.278
76524NA+    NA+36060  25.640  21.043   0.804
76525NA+    NA+36061  39.338   8.860  12.524
76526NA+    NA+36062  24.606  14.139  14.326
76527NA+    NA+36063  44.271  13.316   4.265
76528NA+    NA+36064  26.569  16.668   1.399
76529NA+    NA+36065   6.722  36.584   2.893
76530NA+    NA+36066  16.627  33.520   2.253
76531NA+    NA+36067  12.785  44.966   2.368
76532NA+    NA+36068  38.944  39.533   0.828
76533NA+    NA+36069  44.403  29.966  12.012
76534NA+    NA+36070  10.315  19.206  13.925
76535NA+    NA+36071   6.757  13.618  11.070
76536NA+    NA+36072  34.477  18.602  12.403
76537NA+    NA+36073   0.909  33.089  14.851
76538NA+    NA+36074   1.370  38.011  10.583
76539NA+    NA+36075  20.642   3.742   0.364
76540NA+    NA+36076  11.352  13.220  14.439
76541NA+    NA+36077  23.660  11.164   4.286
76542NA+    NA+36078  19.248   6.867  10.491
76543NA+    NA+36079  24.533  38.489  11.984
76544NA+    NA+36080  29.449  29.941   1.752
76545NA+    NA+36081  32.447  21.695  11.583
76546NA+    NA+36082  30.144  40.922   2.258
76547NA+    NA+36083  16.749   9.847  12.010
76548NA+    NA+36084  30.091  31.928   0.853
76549NA+    NA+36085  39.448  13.704  11.008
76550NA+    NA+36086  13.210  25.622  13.456
76551NA+    NA+36087  36.015  32.403   1.437
76552NA+    NA+36088  26.651   5.240  13.823
76553NA+    NA+36089  19.759  21.207   2.298
76554NA+    NA+36090  28.597   9.817  10.591
76555NA+    NA+36091  35.452  38.372   4.656
76556NA+    NA+36092  30.461   4.725   2.349
76557NA+    NA+36093   5.366  20.063   4.257
76558NA+    NA+36094  22.221  31.584   3.815
76559NA+    NA+36095  35.428  12.834  11.108
76560NA+    NA+36096  28.160   4.336  10.125
76561NA+    NA+36097  31.422  33.991  12.076
76562NA+    NA+36098  11.854  33.555  11.933
76563NA+    NA+36099  37.865  23.550   0.354
76564NA+    NA+36100  30.072   1.361  13.803
76565NA+    NA+36101  37.046   2.435  11.910
76566NA+    NA+36102   5.400  23.090   0.483
76567NA+    NA+36103   2.944  26.629  12.004
76568NA+    NA+36104   0.870   2.857   4.689
76569NA+    NA+36105  12.358  30.019  13.481
76570NA+    NA+36106  18.579   4.276   3.780
76571NA+    NA+36107  42.903  29.666  13.019
76572NA+    NA+36108  44.823   5.782  10.963
76573NA+    NA+36109   7.696  42.921   3.867
76574NA+    NA+36110  23.649  23.996  14.998
76575NA+    NA+36111  12.617   8.256  11.941
76576NA+    NA+36112  44.868  28.968   0.406
76577NA+    NA+36113   5.724  36.040  14.955
76578NA+    NA+36114   0.962  42.863  14.463
76579NA+    NA+36115   4.819  31.061  13.992
76580NA+    NA+36116  44.956  17.661  13.435
76581NA+    NA+36117  16.178  38.915   0.346
76582NA+    NA+36118  19.573   5.920   2.206
76583NA+    NA+36119   1.367  17.231   2.185
76584NA+    NA+36120  30.928  42.775  13.448
76585NA+    NA+36121  26.011   3.820   1.718
76586NA+    NA+36122  41.389  11.789   0.391
76587NA+    NA+36123  22.640  30.444   5.261
76588NA+    NA+36124  16.641  16.260   4.790
76589NA+    NA+36125   5.199   4.410   2.666
76590NA+    NA+36126  38.463  20.578   1.259
76591NA+    NA+36127   6.210   9.393  14.357
76592NA+    NA+36128  25.052  20.685  12.086
76593NA+    NA+36129   3.734   9.357   2.251
76594NA+    NA+36130  42.333  30.603  13.891
76595NA+    NA+36131  20.062  10.374   3.654
76596NA+    NA+36132  40.332  23.671   4.250
76597NA+    NA+36133  14.167  41.898  11.973
76598NA+    NA+36134  22.567   8.837  12.005
76599NA+    NA+36135  24.638   3.940  12.096
76600NA+    NA+36136  16.758  13.680   1.333
76601NA+    NA+36137  11.820   1.329   3.343
76602NA+    NA+36138  25.042   6.344   4.316
76603NA+    NA+36139  30.475  38.862   1.707
76604NA+    NA+36140  33.128  40.495   4.623
76605NA+    NA+36141  27.194  40.918   1.382
76606NA+    NA+36142  12.619  22.139  13.363
76607NA+    NA+36143  31.135  41.340   3.150
76608NA+    NA+36144   6.719  43.370  14.429
76609NA+    NA+36145  32.922   4.789  10.500
76610NA+    NA+36146  15.097  44.874   1.809
76611NA+    NA+36147  12.642  24.491   3.146
76612NA+    NA+36148  13.229  19.717   3.633
76613NA+    NA+36149  33.477   5.687   2.185
76614NA+    NA+36150   6.419  14.131  11.387
76615NA+    NA+36151  32.889  14.684   2.775
76616NA+    NA+36152  14.804  44.847  10.432
76617NA+    NA+36153   2.774  28.467   0.846
76618NA+    NA+36154  25.638  26.567  11.887
76619NA+    NA+36155  15.822  31.406   0.312
76620NA+    NA+36156   0.382   4.712   0.374
76621NA+    NA+36157  17.635  38.385  13.399
76622NA+    NA+36158   8.838  23.070   1.847
76623NA+    NA+36159  34.880  35.879  13.819
76624NA+    NA+36160  12.170   5.387   0.388
76625NA+    NA+36161  31.510   9.834  13.910
76626NA+    NA+36162   5.751  19.680   0.733
76627NA+    NA+36163  40.374  13.634  11.858
76628NA+    NA+36164  22.127  25.688   4.265
76629NA+    NA+36165  37.942  30.561  12.893
76630NA+    NA+36166  35.908   8.389   2.362
76631NA+    NA+36167   0.911  19.561  10.574
76632NA+    NA+36168  24.990  43.968  13.031
76633NA+    NA+36169  20.206  14.276   0.377
76634NA+    NA+36170  17.584  16.120  14.879
76635NA+    NA+36171  37.547   1.780  12.955
76636NA+    NA+36172   6.781  26.055  10.624
76637NA+    NA+36173  41.302   1.825   4.772
76638NA+    NA+36174   0.347  42.810   0.777
76639NA+    NA+36175  42.782  15.741  10.420
76640NA+    NA+36176  37.535  32.075  11.446
76641NA+    NA+36177  16.666   3.395   1.445
76642NA+    NA+36178  12.258   9.828  11.914
76643NA+    NA+36179   1.968  13.342  14.762
76644NA+    NA+36180  16.781  27.953   3.680
76645NA+    NA+36181  28.949   1.463  12.907
76646NA+    NA+36182  44.361  23.037  10.970
76647NA+    NA+36183  41.015  13.217   4.114
76648NA+    NA+36184  41.882  43.294   3.755
76649NA+    NA+36185  26.191  37.428   1.788
76650NA+    NA+36186  43.770   2.952   3.786
76651NA+    NA+36187  34.407  15.105   1.867
76652NA+    NA+36188   3.722   8.793   2.865
76653NA+    NA+36189  29.587  37.511  12.957
76654NA+    NA+36190  27.597  27.645  11.009
76655NA+    NA+36191  18.767  37.839   2.296
76656NA+    NA+36192  27.944   8.668   3.248
76657NA+    NA+36193  23.045  39.991  14.006
76658NA+    NA+36194  31.534   9.861   4.700
76659NA+    NA+36195   0.834  28.043   3.164
76660NA+    NA+36196  37.062  32.127   4.615
76661NA+    NA+36197   6.391  24.189  14.923
76662NA+    NA+36198   2.882   2.746   0.810
76663NA+    NA+36199  13.613  38.874   2.310
76664NA+    NA+36200  17.796  37.411   1.312
76665NA+    NA+36201  30.974   3.301   3.356
76666NA+    NA+36202  13.139   6.232   1.826
76667NA+    NA+36203  29.020  25.175  12.999
76668NA+    NA+36204  14.634  22.117  10.899
76669NA+    NA+36205  41.995  26.176  10.904
76670NA+    NA+36206  14.735   0.987  12.966
76671NA+    NA+36207  24.637  12.812  10.439
76672NA+    NA+36208  18.230  10.315  13.837
76673NA+    NA+36209  21.104  21.037   4.165
76674NA+    NA+36210  22.538  37.374  10.448
76675NA+    NA+36211  39.896  38.957   0.903
76676NA+    NA+36212  11.135   1.416  12.923
76677NA+    NA+36213  21.212  33.481   4.794
76678NA+    NA+36214   7.411  37.450  12.873
76679NA+    NA+36215  38.852  24.519   3.175
76680NA+    NA+36216  14.154   5.893  13.443
76681NA+    NA+36217  30.523  41.405  14.431
76682NA+    NA+36218  26.171  32.069  12.084
76683NA+    NA+36219  36.550  23.606  14.844
76684NA+    NA+36220  40.394  20.695  12.408
76685NA+    NA+36221  36.517  25.209   2.685
76686NA+    NA+36222   6.818  12.647   4.655
76687NA+    NA+36223  26.501  24.007   1.889
76688NA+    NA+36224  33.058  23.491  10.950
76689NA+    NA+36225  11.293   9.846   2.363
76690NA+    NA+36226  28.176  24.098   0.927
76691NA+    NA+36227  32.061  11.651  10.891
76692NA+    NA+36228  16.583  44.831   1.816
76693NA+    NA+36229   5.282   9.843   3.190
76694NA+    NA+36230  39.316  15.580  11.873
76695NA+    NA+36231  40.006  44.338   4.776
76696NA+    NA+36232  16.254  13.827   1.444
76697NA+    NA+36233  12.756  21.608   0.928
76698NA+    NA+36234  22.019  21.669   0.375
76699NA+    NA+36235  41.508  36.559   2.235
76700NA+    NA+36236  19.740   6.389   4.737
76701NA+    NA+36237  34.470  39.808   2.701
76702NA+    NA+36238  34.514   6.741   1.873
76703NA+    NA+36239   0.467   7.409  11.424
76704NA+    NA+36240  32.406   8.882   0.896
76705NA+    NA+36241  42.800  19.533   1.236
76706NA+    NA+36242  25.638  34.468   1.926
76707NA+    NA+36243  19.619   4.883  10.931
76708NA+    NA+36244   5.378  25.967  12.887
76709NA+    NA+36245  38.406   1.857   5.149
76710NA+    NA+36246  38.489  33.443   2.343
76711NA+    NA+36247  18.150  20.051  11.505
76712NA+    NA+36248  43.381  18.213   1.934
76713NA+    NA+36249  32.051   2.416   1.291
76714NA+    NA+36250  21.591  33.051   3.338
76715NA+    NA+36251   9.705  32.627  11.466
76716NA+    NA+36252   1.243  31.589   3.204
76717NA+    NA+36253  44.382  21.531   4.614
76718NA+    NA+36254  28.588  36.066  11.395
76719NA+    NA+36255  16.188  33.123   2.850
76720NA+    NA+36256   1.795  27.041   0.919
76721NA+    NA+36257  20.052   4.276  12.851
76722NA+    NA+36258  28.659  16.794  13.517
76723NA+    NA+36259  42.348  18.136   3.346
76724NA+    NA+36260  35.445  33.406  13.541
76725NA+    NA+36261   9.795   2.309  12.990
76726NA+    NA+36262  42.342  43.290  11.529
76727NA+    NA+36263   7.181   3.231  14.457
76728NA+    NA+36264  29.944  28.980   4.238
76729NA+    NA+36265  31.557  41.787   4.191
76730NA+    NA+36266  10.680  23.987   0.737
76731NA+    NA+36267  17.675  30.517  12.573
76732NA+    NA+36268   0.935  37.875  12.535
76733NA+    NA+36269  16.289  14.259  11.908
76734NA+    NA+36270  38.382  25.051   1.739
76735NA+    NA+36271  36.549  25.589   1.848
76736NA+    NA+36272  30.568  21.692  11.975
76737NA+    NA+36273  41.933  44.409   2.409
76738NA+    NA+36274  13.139  34.384  14.834
76739NA+    NA+36275  13.245  44.329   3.800
76740NA+    NA+36276  13.710  25.136   4.697
76741NA+    NA+36277  21.705  16.743   2.256
76742NA+    NA+36278  23.045  26.174   1.845
76743NA+    NA+36279   7.324  28.941   0.371
76744NA+    NA+36280   0.944  10.381   2.375
76745NA+    NA+36281  17.719  30.453   2.385
76746NA+    NA+36282  38.391   9.387   0.854
76747NA+    NA+36283   9.186  22.726   3.222
76748NA+    NA+36284  20.703   7.397  11.454
76749NA+    NA+36285  21.515  25.500   2.765
76750NA+    NA+36286  42.801  44.943  11.052
76751NA+    NA+36287   2.431  10.196   0.967
76752NA+    NA+36288  42.282  27.042   2.204
76753NA+    NA+36289   0.353  36.952  13.545
76754NA+    NA+36290   7.366   3.417   3.275
76755NA+    NA+36291  30.134  44.355   0.898
76756NA+    NA+36292  14.659  26.499   3.773
76757NA+    NA+36293  35.399  34.546  13.857
76758NA+    NA+36294  35.453   8.288   3.371
76759NA+    NA+36295  23.112  32.493  12.422
76760NA+    NA+36296  22.564  37.936  13.792
76761NA+    NA+36297   1.869   1.341   1.818
76762NA+    NA+36298  41.346  37.991  10.437
76763NA+    NA+36299   1.912   7.209  11.946
76764NA+    NA+36300   1.861  11.343  14.322
76765NA+    NA+36301  41.798  36.484   2.692
76766NA+    NA+36302  38.037   8.820   0.276
76767NA+    NA+36303  16.580   5.700   1.863
76768NA+    NA+36304   9.204   2.270  10.412
76769NA+    NA+36305  19.142  25.586   3.263
76770NA+    NA+36306  34.369  33.909  12.981
76771NA+    NA+36307   7.854  33.471  12.357
76772NA+    NA+36308   1.760   2.765  14.968
76773NA+    NA+36309  25.710  12.834  10.085
76774NA+    NA+36310  11.738  20.252   4.720
76775NA+    NA+36311  37.395  40.540   4.143
76776NA+    NA+36312  18.766  41.468   2.335
76777NA+    NA+36313   5.273  38.399   3.649
76778NA+    NA+36314   0.844  42.923  12.982
76779NA+    NA+36315  38.059  22.711   3.297
76780NA+    NA+36316  21.610  10.176   4.139
76781NA+    NA+36317  16.111  13.769   0.353
76782NA+    NA+36318  41.937   8.868   0.830
76783NA+    NA+36319  25.044  22.151  13.458
76784NA+    NA+36320   0.465   5.925  14.782
76785NA+    NA+36321  26.702   6.743  11.878
76786NA+    NA+36322  20.600  20.745  12.058
76787NA+    NA+36323   2.286  18.604  14.805
76788NA+    NA+36324  17.070  29.629   4.236
76789NA+    NA+36325  41.318  22.016  12.895
76790NA+    NA+36326  36.545  43.467  10.068
76791NA+    NA+36327  32.608  18.074  12.882
76792NA+    NA+36328  28.119   6.811   0.478
76793NA+    NA+36329  42.298  22.500  11.900
76794NA+    NA+36330  13.263  29.666   2.697
76795NA+    NA+36331   7.304  14.742  11.889
76796NA+    NA+36332  42.287  33.416   0.820
76797NA+    NA+36333  44.840  13.288  13.882
76798NA+    NA+36334   7.256  23.046  14.769
76799NA+    NA+36335  42.966  15.776   3.663
76800NA+    NA+36336  28.955  41.900  14.808
76801NA+    NA+36337  36.500  21.085  13.966
76802NA+    NA+36338  35.470  44.380  12.498
76803NA+    NA+36339   9.651   1.273  10.635
76804NA+    NA+36340   9.712  13.700   2.860
76805NA+    NA+36341   7.177  26.615   3.324
76806NA+    NA+36342  43.511   6.242  14.497
76807NA+    NA+36343  33.464   9.313   1.706
76808NA+    NA+36344  21.611  29.099   3.712
76809NA+    NA+36345  13.127   9.833   0.896
76810NA+    NA+36346  40.998  27.960   0.347
76811NA+    NA+36347  43.284   2.733  12.508
76812NA+    NA+36348  39.857  24.612  13.349
76813NA+    NA+36349   2.254  14.307   1.758
76814NA+    NA+36350  14.592  10.292   4.163
76815NA+    NA+36351  16.148   1.770   4.338
76816NA+    NA+36352   0.822  26.999   0.433
76817NA+    NA+36353  42.428  43.836  13.883
76818NA+    NA+36354  22.662   8.353  14.828
76819NA+    NA+36355  38.403  30.485   0.377
76820NA+    NA+36356  18.772   1.841   3.192
76821NA+    NA+36357   4.335  31.460  11.431
76822NA+    NA+36358  36.091   3.431   0.737
76823NA+    NA+36359  26.991  30.652   0.942
76824NA+    NA+36360   1.896   8.391   2.792
76825NA+    NA+36361  19.588  42.816   3.152
76826NA+    NA+36362  27.691   6.322  14.337
76827NA+    NA+36363  20.256  17.135   2.238
76828NA+    NA+36364   5.362  29.008   2.314
76829NA+    NA+36365  38.376  14.323  14.329
76830NA+    NA+36366  36.038  32.536  11.055
76831NA+    NA+36367  32.542  40.338   4.275
76832NA+    NA+36368   2.323   7.271   3.171
76833NA+    NA+36369  23.640  22.746  13.460
76834NA+    NA+36370   0.255  10.361   3.290
76835NA+    NA+36371  36.497   9.767  11.126
76836NA+    NA+36372   7.389  39.417   2.419
76837NA+    NA+36373  43.270  40.832  12.835
76838NA+    NA+36374  15.184  21.040  14.947
76839NA+    NA+36375  19.710  15.106  12.508
76840NA+    NA+36376  43.426   1.762  11.566
76841NA+    NA+36377  16.767  26.177  14.498
76842NA+    NA+36378  44.818   1.811   3.372
76843NA+    NA+36379  18.747  32.919   2.718
76844NA+    NA+36380  31.005  44.303  13.414
76845NA+    NA+36381  44.420  42.932  12.001
76846NA+    NA+36382  19.208  16.180  14.369
76847NA+    NA+36383  15.247  34.497  11.485
76848NA+    NA+36384  43.365  38.436   0.380
76849NA+    NA+36385  25.219  12.316   4.236
76850NA+    NA+36386  25.019   6.734   1.765
76851NA+    NA+36387  33.576  33.942  11.381
76852NA+    NA+36388   7.667  12.687   3.814
76853NA+    NA+36389  21.564  24.083  13.924
76854NA+    NA+36390  29.041  12.707   1.880
76855NA+    NA+36391   1.379  19.224   2.229
76856NA+    NA+36392   8.316  29.043   1.784
76857NA+    NA+36393  38.911   9.261  13.844
76858NA+    NA+36394  43.854  41.863  11.572
76859NA+    NA+36395  42.953  20.130  11.600
76860NA+    NA+36396  31.114   3.461  10.082
76861NA+    NA+36397   2.765  25.107   0.403
76862NA+    NA+36398  29.577  15.811   0.294
76863NA+    NA+36399  31.549  11.638   1.426
76864NA+    NA+36400  44.456  12.257  11.470
76865NA+    NA+36401  40.893  36.455  10.426
76866NA+    NA+36402  36.579  27.523   3.739
76867NA+    NA+36403  30.158  27.075   3.246
76868NA+    NA+36404  35.036   1.771   1.760
76869NA+    NA+36405  13.330  43.893  12.944
76870NA+    NA+36406  11.724   3.437  12.037
76871NA+    NA+36407  21.235  18.260   3.732
76872NA+    NA+36408  43.844   1.292  14.891
76873NA+    NA+36409  27.019  18.239  13.346
76874NA+    NA+36410  23.595  13.779  10.579
76875NA+    NA+36411   3.932   2.837   1.304
76876NA+    NA+36412  17.258  10.782  14.457
76877NA+    NA+36413  13.770  18.052  14.489
76878NA+    NA+36414  16.707   2.721  13.840
76879NA+    NA+36415  21.078   3.834   0.425
76880NA+    NA+36416  27.964  33.115  13.943
76881NA+    NA+36417  18.728  11.185  14.298
76882NA+    NA+36418  26.974  35.993   3.219
76883NA+    NA+36419  20.678  39.033   2.745
76884NA+    NA+36420  16.239  16.253  13.904
76885NA+    NA+36421  30.161  35.576  14.994
76886NA+    NA+36422   2.802   2.812   0.434
76887NA+    NA+36423   6.752   3.787  10.979
76888NA+    NA+36424  33.940  44.812  10.508
76889NA+    NA+36425  41.333  28.931   3.810
76890NA+    NA+36426  21.738  12.236   1.810
76891NA+    NA+36427  20.756  19.269   1.293
76892NA+    NA+36428  21.191  27.977  10.604
76893NA+    NA+36429  34.588  43.453   4.115
76894NA+    NA+36430  18.550  14.251  14.970
76895NA+    NA+36431  11.694  37.905  13.877
76896NA+    NA+36432  38.344  19.656   2.281
76897NA+    NA+36433  14.830  15.707  12.435
76898NA+    NA+36434  17.706  19.577  11.898
76899NA+    NA+36435   7.363  30.095   5.291
76900NA+    NA+36436  44.363  31.933  10.043
76901NA+    NA+36437   7.215   0.476   4.706
76902NA+    NA+36438  20.597  30.045  11.433
76903NA+    NA+36439  29.604  13.194   4.205
76904NA+    NA+36440  26.154  22.083  10.120
76905NA+    NA+36441  39.427  30.495   4.216
76906NA+    NA+36442  13.272   1.973  13.038
76907NA+    NA+36443   0.442  26.995   0.339
76908NA+    NA+36444  10.246  24.062   1.724
76909NA+    NA+36445  17.787  42.469  14.888
76910NA+    NA+36446  15.163  27.586  10.449
76911NA+    NA+36447   8.660  17.297  14.506
76912NA+    NA+36448  13.109  15.083   4.699
76913NA+    NA+36449  35.406  16.764  12.831
76914NA+    NA+36450  38.864  28.974  10.481
76915NA+    NA+36451  32.896  39.435  14.426
76916NA+    NA+36452  29.967  32.549  14.466
76917NA+    NA+36453  24.664  13.794   0.291
76918NA+    NA+36454  36.451  31.947  13.800
76919NA+    NA+36455  39.856  43.814  11.127
76920NA+    NA+36456   6.876  20.681  10.416
76921NA+    NA+36457   2.840  22.085  11.018
76922NA+    NA+36458  14.694  41.295  14.410
76923NA+    NA+36459  35.989  31.522   1.723
76924NA+    NA+36460  24.629  27.951  13.495
76925NA+    NA+36461  26.098   5.783   2.889
76926NA+    NA+36462  40.938   9.823   1.254
76927NA+    NA+36463  28.147  30.582  12.547
76928NA+    NA+36464  27.080  27.145   1.835
76929NA+    NA+36465   2.743   8.368  11.110
76930NA+    NA+36466   1.273  12.736   0.868
76931NA+    NA+36467   8.258  17.576   1.914
76932NA+    NA+36468   7.249  27.474  10.633
76933NA+    NA+36469  11.693  44.852   0.861
76934NA+    NA+36470   9.274  28.449   3.263
76935NA+    NA+36471  15.772   7.384  11.573
76936NA+    NA+36472  27.510  31.952  13.898
76937NA+    NA+36473  24.071  41.923  12.962
76938NA+    NA+36474  35.590  15.672  13.900
76939NA+    NA+36475   0.407  10.225   1.446
76940NA+    NA+36476  27.030  13.343  14.888
76941NA+    NA+36477  24.617  24.105  12.489
76942NA+    NA+36478  13.347  26.522   4.282
76943NA+    NA+36479  39.868  35.874  12.394
76944NA+    NA+36480  38.960  13.643  13.910
76945NA+    NA+36481  32.070  23.011   0.887
76946NA+    NA+36482  39.008  19.633  11.100
76947NA+    NA+36483  41.457   3.765   4.342
76948NA+    NA+36484  12.193  29.991   0.872
76949NA+    NA+36485   7.299  13.809   4.742
76950NA+    NA+36486  30.968  44.857  12.069
76951NA+    NA+36487   4.863   6.860  11.976
76952NA+    NA+36488  19.175   8.656   3.705
76953NA+    NA+36489  36.587  43.966  13.831
76954NA+    NA+36490   2.364   8.343  10.887
76955NA+    NA+36491  33.607  28.139  13.956
76956NA+    NA+36492  42.377  38.886   0.940
76957NA+    NA+36493   1.256   5.701  12.887
76958NA+    NA+36494   8.226   5.696   0.885
76959NA+    NA+36495  41.833   8.265   2.212
76960NA+    NA+36496   8.323  35.524   2.334
76961NA+    NA+36497  39.441   0.786   0.939
76962NA+    NA+36498  44.768   1.839   2.393
76963NA+    NA+36499  38.372  16.772  11.905
76964NA+    NA+36500  41.364   9.343  13.494
76965NA+    NA+36501  28.553  24.622   9.966
76966NA+    NA+36502  23.654  20.657  10.920
76967NA+    NA+36503  44.815  24.090   4.155
76968NA+    NA+36504  38.511  11.820  10.612
76969NA+    NA+36505  33.443  32.620   3.743
76970NA+    NA+36506  23.190  11.675  12.453
76971NA+    NA+36507  19.584   8.791  10.618
76972NA+    NA+36508  20.201  32.911   2.191
76973NA+    NA+36509  11.656  23.088   3.717
76974NA+    NA+36510  16.647  26.669  13.933
76975NA+    NA+36511  27.164  36.557  12.383
76976NA+    NA+36512  22.678  13.730   2.777
76977NA+    NA+36513  22.136   1.866  11.585
76978NA+    NA+36514  16.788  14.732  11.401
76979NA+    NA+36515  24.207  28.966  10.028
76980NA+    NA+36516  37.976  18.790   0.915
76981NA+    NA+36517  28.044  32.914   1.410
76982NA+    NA+36518  38.922  18.219  14.483
76983NA+    NA+36519  21.555  19.150  10.064
76984NA+    NA+36520  17.303  15.290  11.120
76985NA+    NA+36521  33.401   2.756   9.920
76986NA+    NA+36522   2.434  26.698   1.775
76987NA+    NA+36523  32.992  36.921   3.796
76988NA+    NA+36524   0.337  14.178   1.319
76989NA+    NA+36525  30.607  33.479  12.348
76990NA+    NA+36526  38.539   0.471   9.470
76991NA+    NA+36527   8.220  28.091  14.414
76992NA+    NA+36528   9.288  15.685  11.439
76993NA+    NA+36529  37.395  29.036   1.699
76994NA+    NA+36530  35.485  43.339   1.776
76995NA+    NA+36531  36.850  28.541   2.380
76996NA+    NA+36532  37.952   1.469  12.895
76997NA+    NA+36533  18.558  26.119  12.575
76998NA+    NA+36534  16.587  18.211  12.510
76999NA+    NA+36535  30.561  33.575  10.565
77000NA+    NA+36536  30.152  10.225  13.892
77001NA+    NA+36537  38.920  23.683   4.289
77002NA+    NA+36538  30.134   6.700   3.712
77003NA+    NA+36539  28.951  15.102   1.263
77004NA+    NA+36540  43.781  14.128   1.358
77005NA+    NA+36541  17.273  32.090   1.363
77006NA+    NA+36542   6.219  36.429  11.489
77007NA+    NA+36543  44.781  21.223   4.690
77008NA+    NA+36544  16.089  13.734  12.464
77009NA+    NA+36545  29.918  34.551   4.690
77010NA+    NA+36546  15.112  14.796  13.810
77011NA+    NA+36547  40.026  25.009   3.182
77012NA+    NA+36548   0.758  23.649   9.456
77013NA+    NA+36549  10.799  22.734   1.322
77014NA+    NA+36550  15.185   3.235   1.745
77015NA+    NA+36551   2.466  11.738   2.223
77016NA+    NA+36552  27.615  35.409  10.619
77017NA+    NA+36553  26.517  17.081  10.618
77018NA+    NA+36554  30.990   1.248   0.334
77019NA+    NA+36555   0.963  27.627  13.814
77020NA+    NA+36556  28.508  36.096   0.307
77021NA+    NA+36557  39.330   9.268   2.285
77022NA+    NA+36558  44.857  10.879   1.806
77023NA+    NA+36559   3.900  21.139  13.993
77024NA+    NA+36560  34.419   9.694  11.468
77025NA+    NA+36561  34.959  13.116   4.310
77026NA+    NA+36562   8.695  31.497  13.398
77027NA+    NA+36563  14.203  36.422   0.946
77028NA+    NA+36564  21.217  21.638   2.704
77029NA+    NA+36565  22.234   9.179  13.969
77030NA+    NA+36566  25.171  23.665   1.913
77031NA+    NA+36567   8.255  37.936   4.610
77032NA+    NA+36568   2.472   9.316  10.421
77033NA+    NA+36569  16.145  22.135   1.441
77034NA+    NA+36570  24.082  25.093  11.874
77035NA+    NA+36571  12.670  23.097   2.348
77036NA+    NA+36572  34.000  20.652   1.330
77037NA+    NA+36573  24.221  39.392   2.821
77038NA+    NA+36574   6.414  43.917  10.644
77039NA+    NA+36575  11.694   5.378  10.450
77040NA+    NA+36576  34.020  14.231   1.392
77041NA+    NA+36577   0.809  38.412   4.277
77042NA+    NA+36578  24.224   8.188  11.008
77043NA+    NA+36579  18.159  42.965  13.026
77044NA+    NA+36580  26.051  21.037  11.538
77045NA+    NA+36581  38.968  28.581  12.877
77046NA+    NA+36582  35.383  27.568  13.820
77047NA+    NA+36583  20.053  12.792  13.536
77048NA+    NA+36584  38.440  15.642   2.253
77049NA+    NA+36585   4.433   3.299   1.913
77050NA+    NA+36586  17.246   8.342   2.378
77051NA+    NA+36587  34.975   7.819   0.947
77052NA+    NA+36588  34.919  40.545   3.263
77053NA+    NA+36589  38.869   8.706   5.099
77054NA+    NA+36590  15.679   1.843  12.002
77055NA+    NA+36591  20.546  19.776  14.797
77056NA+    NA+36592  29.587   5.208  14.846
77057NA+    NA+36593  38.876   8.303  12.935
77058NA+    NA+36594  33.983   5.282   0.929
77059NA+    NA+36595  29.932  14.125   2.887
77060NA+    NA+36596  28.655   0.274   0.334
77061NA+    NA+36597   0.845  27.967  13.388
77062NA+    NA+36598  32.530  39.431   2.253
77063NA+    NA+36599   6.306   6.686   4.610
77064NA+    NA+36600  21.548  28.509  13.827
77065NA+    NA+36601   1.405  36.906  13.496
77066NA+    NA+36602  24.560  25.617   4.832
77067NA+    NA+36603   3.456   9.763   3.715
77068NA+    NA+36604   8.277  14.129   1.270
77069NA+    NA+36605  26.465   3.341  12.470
77070NA+    NA+36606  43.022  10.866   1.826
77071NA+    NA+36607  37.348  35.928  14.960
77072NA+    NA+36608  30.124  35.590  11.937
77073NA+    NA+36609  36.584  22.037   3.679
77074NA+    NA+36610  30.115  22.735  11.983
77075NA+    NA+36611   5.788  39.535  12.961
77076NA+    NA+36612  37.525  32.416   4.606
77077NA+    NA+36613  35.969  16.647   2.754
77078NA+    NA+36614  43.841  38.898   2.374
77079NA+    NA+36615  11.778  18.067   0.312
77080NA+    NA+36616  43.837  21.627  11.426
77081NA+    NA+36617   8.690   8.346  11.581
77082NA+    NA+36618  22.023   2.951   3.177
77083NA+    NA+36619  12.823  28.057   0.250
77084NA+    NA+36620   2.902  17.765  10.934
77085NA+    NA+36621  41.945  16.254  12.442
77086NA+    NA+36622  33.566  11.666   2.866
77087NA+    NA+36623  23.643  35.424   2.399
77088NA+    NA+36624  21.620   5.701  13.058
77089NA+    NA+36625  16.244  12.215   0.245
77090NA+    NA+36626  19.779  10.351  11.596
77091NA+    NA+36627  21.117  10.233  10.052
77092NA+    NA+36628  12.714  23.230  12.517
77093NA+    NA+36629  36.910   1.957   3.864
77094NA+    NA+36630  40.526  42.360   0.371
77095NA+    NA+36631   6.191  29.564  13.914
77096NA+    NA+36632  20.734  16.167   0.908
77097NA+    NA+36633  21.561  37.834  11.516
77098NA+    NA+36634  39.041   1.386   3.188
77099NA+    NA+36635  10.377  29.975   5.209
77100NA+    NA+36636  19.136   0.815   1.424
77101NA+    NA+36637  16.187  20.718   3.790
77102NA+    NA+36638  14.114  42.857   0.436
77103NA+    NA+36639  12.689   9.827   4.720
77104NA+    NA+36640  25.049  17.196  11.025
77105NA+    NA+36641  40.971   0.760  10.505
77106NA+    NA+36642  28.167  44.497   1.821
77107NA+    NA+36643  16.290  13.274   4.268
77108NA+    NA+36644  19.643   1.790  13.491
77109NA+    NA+36645   9.695  23.498  10.621
77110NA+    NA+36646  10.649  18.735   2.862
77111NA+    NA+36647  36.541  36.966   1.748
77112NA+    NA+36648  40.455  22.217  10.504
77113NA+    NA+36649  23.732   7.379  13.012
77114NA+    NA+36650  44.435  34.441   2.682
77115NA+    NA+36651   8.331  34.578  14.998
77116NA+    NA+36652   7.746  25.557  12.839
77117NA+    NA+36653  25.080  33.469  10.505
77118NA+    NA+36654  42.964  20.707   1.225
77119NA+    NA+36655  31.064  34.386   4.115
77120NA+    NA+36656  28.461  36.387  12.865
77121NA+    NA+36657  10.657  17.581  10.614
77122NA+    NA+36658  30.516  10.357   1.325
77123NA+    NA+36659  20.637   4.296  11.005
77124NA+    NA+36660   9.368  21.192   0.317
77125NA+    NA+36661   2.393  38.826   0.268
77126NA+    NA+36662  29.497  11.797   2.756
77127NA+    NA+36663  32.565   3.750   2.253
77128NA+    NA+36664  12.333  29.982   3.386
77129NA+    NA+36665  18.732  30.580  11.582
77130NA+    NA+36666   0.873   5.232  14.839
77131NA+    NA+36667  14.161   0.847  10.486
77132NA+    NA+36668  10.840  34.992  14.467
77133NA+    NA+36669   0.344  30.621   2.733
77134NA+    NA+36670  21.113  27.018   3.362
77135NA+    NA+36671   4.889  43.932   1.744
77136NA+    NA+36672   6.362  27.096  14.978
77137NA+    NA+36673   2.953  29.135  10.501
77138NA+    NA+36674  11.147  30.420  13.891
77139NA+    NA+36675   1.291  15.797   4.201
77140NA+    NA+36676  31.940  29.122   2.416
77141NA+    NA+36677  11.141  32.916   0.394
77142NA+    NA+36678  38.450   8.675  14.280
77143NA+    NA+36679  31.457   6.919  14.454
77144NA+    NA+36680  36.500  20.198  14.773
77145NA+    NA+36681  38.931  42.497  14.281
77146NA+    NA+36682  11.707  38.896  13.372
77147NA+    NA+36683  21.201  24.205  11.532
77148NA+    NA+36684  11.264  41.308  14.478
77149NA+    NA+36685  17.173  23.697  14.842
77150NA+    NA+36686  30.106  28.142   4.836
77151NA+    NA+36687   6.726  30.927  14.288
77152NA+    NA+36688   1.374  36.529   3.824
77153NA+    NA+36689  28.056   0.448  14.030
77154NA+    NA+36690   8.684  38.469  10.924
77155NA+    NA+36691  35.539  32.539   1.407
77156NA+    NA+36692  28.533  24.014   1.792
77157NA+    NA+36693  41.879  19.590   4.830
77158NA+    NA+36694  19.665  25.199  10.643
77159NA+    NA+36695   6.249  30.476   4.212
77160NA+    NA+36696  11.728  14.158  14.029
77161NA+    NA+36697  12.850  17.654   3.765
77162NA+    NA+36698  24.073  30.540   1.774
77163NA+    NA+36699   8.378  18.761   2.762
77164NA+    NA+36700  10.247  41.886  14.303
77165NA+    NA+36701  19.584   7.294   2.691
77166NA+    NA+36702  33.589   3.785  14.331
77167NA+    NA+36703  26.084  15.664   1.733
77168NA+    NA+36704  41.889   5.347  10.454
77169NA+    NA+36705  28.656  23.009  12.399
77170NA+    NA+36706   1.348   4.890   4.817
77171NA+    NA+36707   7.706  31.466   0.261
77172NA+    NA+36708  37.969  15.182   3.701
77173NA+    NA+36709  24.700  34.491  11.544
77174NA+    NA+36710   1.817   5.242  13.345
77175NA+    NA+36711  26.043   8.755  13.372
77176NA+    NA+36712  28.993   6.237   4.145
77177NA+    NA+36713  39.868   6.830   0.966
77178NA+    NA+36714   4.335  16.748  12.034
77179NA+    NA+36715   6.768  10.342   4.255
77180NA+    NA+36716  14.828  43.939  14.932
77181NA+    NA+36717  12.804  38.911  14.938
77182NA+    NA+36718  11.220  36.461   0.425
77183NA+    NA+36719  42.033   1.834  13.374
77184NA+    NA+36720  19.217   3.717  12.032
77185NA+    NA+36721  15.797  28.142  10.640
77186NA+    NA+36722   0.476  23.715  10.969
77187NA+    NA+36723  42.015  19.214   0.338
77188NA+    NA+36724  14.148  26.475   4.248
77189NA+    NA+36725   7.743  18.056   4.734
77190NA+    NA+36726   0.981  13.276   5.306
77191NA+    NA+36727   2.785   3.442   0.324
77192NA+    NA+36728  22.094  38.827   3.688
77193NA+    NA+36729  35.485  32.912   4.776
77194NA+    NA+36730   1.974  21.730  11.452
77195NA+    NA+36731  43.509   2.784   4.245
77196NA+    NA+36732   4.393  25.520  14.458
77197NA+    NA+36733  21.682  29.168  12.917
77198NA+    NA+36734  40.348  42.878   3.259
77199NA+    NA+36735  23.648   6.892  11.540
77200NA+    NA+36736  33.434  20.657  10.501
77201NA+    NA+36737  27.658   4.822   1.228
77202NA+    NA+36738  25.620   5.357  13.373
77203NA+    NA+36739  34.460  14.247   2.417
77204NA+    NA+36740  16.733  30.116  13.997
77205NA+    NA+36741  27.660  39.527   1.912
77206NA+    NA+36742  22.095  32.504   1.880
77207NA+    NA+36743  26.604   0.361   1.894
77208NA+    NA+36744  34.533  21.542  11.487
77209NA+    NA+36745  37.067  40.394  11.436
77210NA+    NA+36746  40.010  27.179   0.310
77211NA+    NA+36747  21.755   1.367   0.811
77212NA+    NA+36748  34.390  43.516   0.763
77213NA+    NA+36749  26.653   9.761   1.833
77214NA+    NA+36750  30.053  19.230   4.656
77215NA+    NA+36751  17.781   6.397  14.878
77216NA+    NA+36752  20.183  19.737  10.036
77217NA+    NA+36753   9.836  43.888   2.790
77218NA+    NA+36754  44.004   2.412  12.569
77219NA+    NA+36755  13.722   2.337   1.863
77220NA+    NA+36756   2.465  19.218  11.916
77221NA+    NA+36757  41.345  40.332   4.116
77222NA+    NA+36758  19.695  37.993   3.699
77223NA+    NA+36759   4.770  24.999  13.820
77224NA+    NA+36760   0.778  42.832   3.368
77225NA+    NA+36761  26.612  27.514   0.882
77226NA+    NA+36762  19.215  14.256   3.761
77227NA+    NA+36763   9.226  35.974   4.649
77228NA+    NA+36764  41.496  29.610   1.780
77229NA+    NA+36765  34.089  21.218   1.754
77230NA+    NA+36766  41.891  22.576   4.640
77231NA+    NA+36767  17.749  28.533   0.865
77232NA+    NA+36768  23.015  43.003  14.440
77233NA+    NA+36769  16.783  20.177  14.402
77234NA+    NA+36770  42.981  27.157   3.646
77235NA+    NA+36771   6.286  25.632   0.879
77236NA+    NA+36772  13.650   8.172  12.048
77237NA+    NA+36773   3.319  31.622  14.420
77238NA+    NA+36774  15.772  37.557   1.376
77239NA+    NA+36775   4.242   8.791  10.452
77240NA+    NA+36776  13.640  27.046  10.469
77241NA+    NA+36777  10.139  37.853  10.469
77242NA+    NA+36778  41.894  12.687  12.078
77243NA+    NA+36779  32.501  19.279  13.467
77244NA+    NA+36780   3.460   3.747   2.798
77245NA+    NA+36781  23.559  38.844   4.828
77246NA+    NA+36782  27.652  15.126   4.739
77247NA+    NA+36783  20.586  29.608  13.935
77248NA+    NA+36784   8.821   2.296  14.890
77249NA+    NA+36785  17.211   5.856   0.742
77250NA+    NA+36786   1.779  39.485   4.262
77251NA+    NA+36787  33.890   7.202  11.111
77252NA+    NA+36788   6.389  24.092  10.992
77253NA+    NA+36789  16.727  27.518   0.367
77254NA+    NA+36790  11.369  25.477  12.432
77255NA+    NA+36791  26.694  32.120   0.939
77256NA+    NA+36792  38.974  22.655  11.991
77257NA+    NA+36793  41.488  38.554  11.540
77258NA+    NA+36794   7.281   8.812   1.805
77259NA+    NA+36795  40.036   7.682  12.043
77260NA+    NA+36796  44.872   5.406   2.219
77261NA+    NA+36797  25.184  37.994  11.543
77262NA+    NA+36798   7.208  39.997  13.803
77263NA+    NA+36799   4.837  12.206   0.362
77264NA+    NA+36800  17.169  16.254  14.936
77265NA+    NA+36801  31.436  24.140  12.998
77266NA+    NA+36802  18.611  15.761  11.877
77267NA+    NA+36803  10.807  11.651  10.633
77268NA+    NA+36804   1.476   4.252   1.400
77269NA+    NA+36805  10.346  18.176   3.790
77270NA+    NA+36806  28.155  39.939   0.783
77271NA+    NA+36807  38.029  33.946   3.337
77272NA+    NA+36808   3.229  15.649   3.267
77273NA+    NA+36809  37.345  15.732  13.915
77274NA+    NA+36810  29.987   4.778   4.137
77275NA+    NA+36811  40.961  32.488  11.984
77276NA+    NA+36812   6.352  12.846  11.458
77277NA+    NA+36813  39.414  28.537   2.789
77278NA+    NA+36814  15.096  26.968   3.802
77279NA+    NA+36815  11.360   7.807  11.435
77280NA+    NA+36816  31.078   8.779   2.278
77281NA+    NA+36817  38.027  31.907  14.803
77282NA+    NA+36818  15.605  36.984   2.246
77283NA+    NA+36819  28.536   9.270   2.200
77284NA+    NA+36820  21.119  42.322   4.205
77285NA+    NA+36821  30.447  21.069   1.790
77286NA+    NA+36822  40.469  25.055   2.781
77287NA+    NA+36823  17.686  17.240   4.333
77288NA+    NA+36824  39.494  15.207   4.641
77289NA+    NA+36825   0.490   4.885  14.777
77290NA+    NA+36826  34.578  43.386  14.376
77291NA+    NA+36827  42.831  34.016   2.389
77292NA+    NA+36828   9.695   3.376  13.372
77293NA+    NA+36829   0.440  44.363   2.357
77294NA+    NA+36830  13.828  22.698   3.705
77295NA+    NA+36831   4.878  44.007   0.751
77296NA+    NA+36832  13.314  19.063   4.320
77297NA+    NA+36833   4.817  15.088  13.969
77298NA+    NA+36834  40.846  37.487   1.890
77299NA+    NA+36835  36.905  34.912   4.809
77300NA+    NA+36836   1.404  38.981  11.580
77301NA+    NA+36837   2.309  20.596   4.659
77302NA+    NA+36838  14.755  44.784  13.019
77303NA+    NA+36839   4.305  44.264   3.672
77304NA+    NA+36840  18.137  24.558   1.436
77305NA+    NA+36841  38.457  15.097  12.080
77306NA+    NA+36842   1.443   1.922   0.438
77307NA+    NA+36843  29.428  13.718   1.341
77308NA+    NA+36844  35.420  24.660   1.879
77309NA+    NA+36845   4.288  19.074  14.879
77310NA+    NA+36846  29.949  11.719  13.897
77311NA+    NA+36847  22.162   1.390  12.913
77312NA+    NA+36848  28.079  40.395  12.055
77313NA+    NA+36849   7.182   1.811   3.257
77314NA+    NA+36850  14.829  12.225   4.788
77315NA+    NA+36851  34.426  24.080  12.890
77316NA+    NA+36852  34.409  38.426  14.375
77317NA+    NA+36853   6.340   6.727   4.293
77318NA+    NA+36854  16.142  20.168  12.061
77319NA+    NA+36855  37.454  44.887  10.625
77320NA+    NA+36856  32.495  29.442  12.075
77321NA+    NA+36857  40.375  19.143   2.825
77322NA+    NA+36858  31.570  37.390  14.826
77323NA+    NA+36859  37.958  22.640  11.577
77324NA+    NA+36860  29.053  17.784   1.428
77325NA+    NA+36861  15.302  19.739  14.406
77326NA+    NA+36862  44.397   1.926  14.441
77327NA+    NA+36863  20.690  20.063  10.930
77328NA+    NA+36864  38.035  42.941   0.271
77329NA+    NA+36865  15.681  22.082   0.823
77330NA+    NA+36866  24.508  30.136  14.292
77331NA+    NA+36867   7.333  43.891   0.325
77332NA+    NA+36868   8.786  30.927   0.279
77333NA+    NA+36869  26.489  41.798  12.910
77334NA+    NA+36870  16.194   8.342  10.613
77335NA+    NA+36871  44.000  24.173  13.335
77336NA+    NA+36872  33.114  34.396   0.946
77337NA+    NA+36873  35.568  10.371  12.518
77338NA+    NA+36874  13.329  28.033   5.294
77339NA+    NA+36875  41.405  10.373   2.189
77340NA+    NA+36876  22.195   9.222   2.331
77341NA+    NA+36877  17.139  29.038  12.344
77342NA+    NA+36878  28.613  35.036  10.994
77343NA+    NA+36879  17.163  28.982   0.811
77344NA+    NA+36880   6.755  14.335   0.364
77345NA+    NA+36881  11.836   2.227   1.314
77346NA+    NA+36882  14.635  17.557  12.966
77347NA+    NA+36883  11.287   0.275   3.807
77348NA+    NA+36884  11.690  10.667  14.896
77349NA+    NA+36885  28.605  33.437  12.942
77350NA+    NA+36886  22.008  41.341  10.979
77351NA+    NA+36887  16.293  23.720   1.886
77352NA+    NA+36888  10.358  27.459   1.372
77353NA+    NA+36889   3.337  39.885  11.880
77354NA+    NA+36890   6.771  14.816   2.777
77355NA+    NA+36891  43.013  39.391   0.806
77356NA+    NA+36892  34.581  44.309   1.890
77357NA+    NA+36893  11.778   8.859  10.925
77358NA+    NA+36894  13.655   9.753  13.883
77359NA+    NA+36895   7.285   3.307   4.671
77360NA+    NA+36896  39.428  10.161  11.491
77361NA+    NA+36897  21.235  18.070  14.282
77362NA+    NA+36898  44.760  20.052  12.553
77363NA+    NA+36899  33.080  38.971   9.920
77364NA+    NA+36900  39.990  19.646  10.890
77365NA+    NA+36901  13.661  34.486  10.606
77366NA+    NA+36902  34.499  19.647  10.429
77367NA+    NA+36903   1.760  16.294   3.672
77368NA+    NA+36904   7.770  37.960  11.603
77369NA+    NA+36905  13.292  44.921  13.012
77370NA+    NA+36906  34.030  14.112   4.794
77371NA+    NA+36907  15.695  16.809  12.545
77372NA+    NA+36908   7.741  23.627   2.179
77373NA+    NA+36909  19.237  11.822   4.623
77374NA+    NA+36910  27.957  38.328  12.502
77375NA+    NA+36911   6.322  37.389   5.307
77376NA+    NA+36912  35.478  11.847  11.917
77377NA+    NA+36913   1.833  15.085  10.625
77378NA+    NA+36914   3.289   7.277  14.326
77379NA+    NA+36915  18.175   9.693   1.744
77380NA+    NA+36916   2.912  44.350   3.383
77381NA+    NA+36917   7.891  19.580  13.311
77382NA+    NA+36918  27.533  31.534   3.357
77383NA+    NA+36919  43.321  23.585  12.029
77384NA+    NA+36920  41.410  34.051  11.606
77385NA+    NA+36921  16.099   8.175  14.317
77386NA+    NA+36922  11.729   3.804   3.310
77387NA+    NA+36923   4.759  34.976   1.416
77388NA+    NA+36924   4.337  40.903   2.250
77389NA+    NA+36925  40.988   5.723   1.707
77390NA+    NA+36926   8.300  37.408  11.566
77391NA+    NA+36927   2.227  39.046   4.223
77392NA+    NA+36928  11.208  11.302   5.220
77393NA+    NA+36929  26.550  20.244  12.914
77394NA+    NA+36930  30.655  28.972  11.548
77395NA+    NA+36931  22.088  24.563   2.388
77396NA+    NA+36932  43.318  36.562  13.814
77397NA+    NA+36933  35.059  43.909   0.964
77398NA+    NA+36934  23.535  20.693   4.131
77399NA+    NA+36935  15.579  21.745  11.011
77400NA+    NA+36936  44.919  12.678   0.285
77401NA+    NA+36937   9.811  37.873  11.589
77402NA+    NA+36938  37.902  20.257  11.488
77403NA+    NA+36939  44.993  30.421   4.204
77404NA+    NA+36940  36.868  30.488   4.622
77405NA+    NA+36941  24.618  18.545  12.395
77406NA+    NA+36942  20.056   7.848  11.593
77407NA+    NA+36943   7.207  31.644   1.860
77408NA+    NA+36944   7.702  13.306   2.331
77409NA+    NA+36945   1.303   2.898   3.204
77410NA+    NA+36946  36.052  23.183   2.253
77411NA+    NA+36947  42.015  15.189   1.436
77412NA+    NA+36948  22.025  28.001   3.226
77413NA+    NA+36949  13.106  27.039  14.003
77414NA+    NA+36950  15.147   6.211  14.307
77415NA+    NA+36951  23.992   3.384   2.694
77416NA+    NA+36952  26.082  43.008  13.818
77417NA+    NA+36953  16.245  14.226   3.728
77418NA+    NA+36954  31.545  38.451  10.584
77419NA+    NA+36955  33.596  35.369   1.343
77420NA+    NA+36956  36.364  28.649   1.730
77421NA+    NA+36957  29.644  36.989  10.964
77422NA+    NA+36958  32.470  41.014   3.172
77423NA+    NA+36959  15.141   2.293   3.311
77424NA+    NA+36960  16.118   6.327  12.528
77425NA+    NA+36961  34.391   7.342   1.805
77426NA+    NA+36962   6.302  23.645  13.427
77427NA+    NA+36963  23.994  32.621  11.968
77428NA+    NA+36964   7.374  41.839   1.263
77429NA+    NA+36965  29.138   6.681  13.977
77430NA+    NA+36966  17.097  12.812   0.259
77431NA+    NA+36967   6.209  28.531  12.348
77432NA+    NA+36968  30.464  25.012  13.541
77433NA+    NA+36969  11.212  33.613  13.406
77434NA+    NA+36970   7.231  34.102   4.632
77435NA+    NA+36971  14.738  22.246   2.802
77436NA+    NA+36972   6.677  22.199  13.474
77437NA+    NA+36973  30.992  15.600  10.508
77438NA+    NA+36974  21.042   1.767   1.327
77439NA+    NA+36975  11.834  10.246  11.093
77440NA+    NA+36976  28.599  19.598   3.860
77441NA+    NA+36977  22.712  27.590  12.890
77442NA+    NA+36978  12.181  39.865  14.410
77443NA+    NA+36979  34.480  11.839  13.341
77444NA+    NA+36980  32.108  17.102  13.044
77445NA+    NA+36981  12.814  32.505  13.003
77446NA+    NA+36982  41.360  41.501  10.488
77447NA+    NA+36983   6.848  31.109   1.907
77448NA+    NA+36984  16.140  38.366   1.898
77449NA+    NA+36985   1.913  38.381   4.205
77450NA+    NA+36986   8.739  10.655  11.996
77451NA+    NA+36987  36.846   8.317  10.551
77452NA+    NA+36988  30.589  15.597   0.897
77453NA+    NA+36989  13.259  13.716   2.872
77454NA+    NA+36990   9.304   1.426  12.344
77455NA+    NA+36991  17.646  18.131   3.359
77456NA+    NA+36992  42.928  26.659  12.520
77457NA+    NA+36993  32.087  19.734   3.858
77458NA+    NA+36994  28.061   4.259  12.439
77459NA+    NA+36995   6.320  39.821  14.371
77460NA+    NA+36996   1.357  31.582   1.910
77461NA+    NA+36997  28.177  17.225   1.694
77462NA+    NA+36998  23.535  37.387   3.755
77463NA+    NA+36999  21.228  16.087   4.146
77464NA+    NA+37000  26.655  33.892   0.286
77465NA+    NA+37001   2.749  36.405   0.419
77466NA+    NA+37002  42.987  20.132   2.203
77467NA+    NA+37003  17.303  16.809   4.691
77468NA+    NA+37004  26.644  23.023  10.579
77469NA+    NA+37005  28.519  16.277   2.415
77470NA+    NA+37006  27.164  14.201  10.484
77471NA+    NA+37007  18.228  38.880  13.016
77472NA+    NA+37008  44.874   9.664   2.225
77473NA+    NA+37009   3.238  38.494  14.512
77474NA+    NA+37010  20.149  21.526  13.064
77475NA+    NA+37011  29.061  34.603   2.686
77476NA+    NA+37012  14.096  16.162  14.277
77477NA+    NA+37013   0.469  23.530  11.891
77478NA+    NA+37014   6.203  10.268   2.266
77479NA+    NA+37015  28.131  23.595   4.806
77480NA+    NA+37016  35.527   0.467   4.195
77481NA+    NA+37017  12.339   7.187  11.993
77482NA+    NA+37018  36.076  10.180  12.836
77483NA+    NA+37019  14.102  40.872  11.858
77484NA+    NA+37020  17.090  41.518  12.500
77485NA+    NA+37021  35.517  32.576  13.325
77486NA+    NA+37022  23.728  39.401  11.461
77487NA+    NA+37023   5.359  42.335  12.572
77488NA+    NA+37024  20.693   4.878   4.219
77489NA+    NA+37025  13.664  24.719  13.898
77490NA+    NA+37026  40.000  32.892   0.478
77491NA+    NA+37027  35.549  36.900   2.260
77492NA+    NA+37028  35.553  20.149   0.259
77493NA+    NA+37029  18.223  24.031   1.414
77494NA+    NA+37030  15.672  15.666  10.424
77495NA+    NA+37031  22.698  19.716   3.840
77496NA+    NA+37032  27.475  36.972  10.622
77497NA+    NA+37033  35.935  37.008  11.115
77498NA+    NA+37034  14.307   3.896  12.397
77499NA+    NA+37035  16.659  25.099   4.328
77500NA+    NA+37036  44.458  42.839   4.336
77501NA+    NA+37037   2.458  23.018  11.418
77502NA+    NA+37038  34.450  25.508  13.835
77503NA+    NA+37039  22.695  30.079  14.403
77504NA+    NA+37040  10.184  30.631  14.026
77505NA+    NA+37041   0.973  11.800  13.910
77506NA+    NA+37042  10.632  42.870  10.433
77507NA+    NA+37043  26.592   4.901  12.064
77508NA+    NA+37044  35.457   4.703   2.893
77509NA+    NA+37045  33.089  37.045   4.744
77510NA+    NA+37046  42.823   7.755  13.906
77511NA+    NA+37047  28.608  13.108   1.719
77512NA+    NA+37048  33.019  19.768   0.464
77513NA+    NA+37049  29.475  13.261   1.291
77514NA+    NA+37050  11.708   6.258   2.328
77515NA+    NA+37051  20.050  36.082  11.487
77516NA+    NA+37052  32.112   9.885   9.976
77517NA+    NA+37053   1.334   4.766  13.377
77518NA+    NA+37054  17.712  14.325  11.864
77519NA+    NA+37055  42.421  22.186  12.933
77520NA+    NA+37056   4.821   9.246   4.347
77521NA+    NA+37057  32.886  38.044   4.645
77522NA+    NA+37058   3.873  10.796   4.795
77523NA+    NA+37059  31.538  12.668  13.505
77524NA+    NA+37060  14.268   0.959  13.058
77525NA+    NA+37061  28.015   6.849  14.444
77526NA+    NA+37062  32.525  24.710  11.524
77527NA+    NA+37063  28.678  22.516  14.508
77528NA+    NA+37064  11.815  29.592  12.084
77529NA+    NA+37065  17.211  29.558   3.306
77530NA+    NA+37066   9.277  26.655   0.949
77531NA+    NA+37067  34.486  14.212   1.743
77532NA+    NA+37068  24.632   2.250   1.790
77533NA+    NA+37069  40.319   2.953   0.812
77534NA+    NA+37070  42.814  37.395  13.977
77535NA+    NA+37071  18.744  41.879  10.627
77536NA+    NA+37072   7.313  12.168   0.251
77537NA+    NA+37073   3.354  32.040   2.379
77538NA+    NA+37074  38.421  33.484   0.776
77539NA+    NA+37075   8.251  24.197   3.778
77540NA+    NA+37076  11.813   7.763  10.580
77541NA+    NA+37077  19.233  39.810   1.924
77542NA+    NA+37078  12.157  36.876   3.225
77543NA+    NA+37079   0.373  13.167  12.466
77544NA+    NA+37080   8.889  32.624  14.910
77545NA+    NA+37081  27.171  41.835   0.957
77546NA+    NA+37082  25.137  23.142   1.735
77547NA+    NA+37083  43.357   8.210  12.561
77548NA+    NA+37084  28.485  43.003   2.186
77549NA+    NA+37085  39.989  41.808   2.803
77550NA+    NA+37086  18.563  16.236  10.969
77551NA+    NA+37087  21.604  42.981   1.795
77552NA+    NA+37088  16.317  22.015  12.481
77553NA+    NA+37089  35.582  28.141  13.955
77554NA+    NA+37090  44.892  28.441  11.425
77555NA+    NA+37091   7.311  13.309   4.283
77556NA+    NA+37092  43.819  26.536  10.429
77557NA+    NA+37093   0.806  14.205   2.316
77558NA+    NA+37094  22.175  12.139  13.953
77559NA+    NA+37095  13.336  43.820  13.423
77560NA+    NA+37096  22.144  36.915  10.550
77561NA+    NA+37097  13.257  25.702   0.436
77562NA+    NA+37098  11.761  40.399  10.606
77563NA+    NA+37099  43.351  44.329   0.290
77564NA+    NA+37100   9.371  14.828   0.839
77565NA+    NA+37101  33.890  21.225   4.683
77566NA+    NA+37102  18.673   4.266  11.118
77567NA+    NA+37103  33.613  35.479   3.640
77568NA+    NA+37104  33.118  20.595  11.049
77569NA+    NA+37105  43.332  17.200   1.790
77570NA+    NA+37106  36.510  25.569  13.909
77571NA+    NA+37107  39.351   3.811  11.883
77572NA+    NA+37108  24.685  44.357   4.127
77573NA+    NA+37109  22.037   9.212   4.760
77574NA+    NA+37110   1.967  16.666  12.415
77575NA+    NA+37111  12.238  35.416   2.278
77576NA+    NA+37112  23.722  27.039   2.369
77577NA+    NA+37113  44.894  44.458  13.999
77578NA+    NA+37114  32.539  38.843   3.806
77579NA+    NA+37115  40.358   1.358  12.008
77580NA+    NA+37116  28.623  12.748  13.494
77581NA+    NA+37117  22.620  31.961   9.999
77582NA+    NA+37118  40.482  35.028  11.536
77583NA+    NA+37119  14.148  15.116   2.292
77584NA+    NA+37120  32.113   3.716   4.815
77585NA+    NA+37121   1.472  10.726  11.119
77586NA+    NA+37122   2.460   7.202   4.624
77587NA+    NA+37123  39.928   5.226  14.472
77588NA+    NA+37124  38.504  40.895   1.934
77589NA+    NA+37125  41.831  28.010  12.083
77590NA+    NA+37126  39.883  25.580   1.887
77591NA+    NA+37127  35.931  21.125   1.273
77592NA+    NA+37128  20.168  16.233   4.817
77593NA+    NA+37129  26.600  13.130  13.504
77594NA+    NA+37130  40.981  30.054  14.428
77595NA+    NA+37131  17.132  34.981   3.195
77596NA+    NA+37132  19.071  13.636  14.306
77597NA+    NA+37133   0.884   2.922  14.848
77598NA+    NA+37134   3.280  27.015   1.810
77599NA+    NA+37135  42.884  26.484   3.771
77600NA+    NA+37136  38.019   0.899  12.403
77601NA+    NA+37137  37.931   2.328   2.672
77602NA+    NA+37138  19.750  16.659   1.427
77603NA+    NA+37139   5.304  33.946  13.544
77604NA+    NA+37140  43.395   3.885  14.816
77605NA+    NA+37141  38.509  19.137  14.958
77606NA+    NA+37142  41.917  32.560   1.370
77607NA+    NA+37143  37.861  12.667   1.878
77608NA+    NA+37144  14.101  26.056   3.834
77609NA+    NA+37145  42.960  34.079   3.330
77610NA+    NA+37146  39.391  26.166  12.372
77611NA+    NA+37147  34.067  25.043  12.860
77612NA+    NA+37148  37.366   2.338   4.204
77613NA+    NA+37149   6.270  44.881  10.463
77614NA+    NA+37150   4.705  44.836  12.949
77615NA+    NA+37151  21.027  41.814  12.426
77616NA+    NA+37152  30.618   7.886   2.847
77617NA+    NA+37153  35.466  17.741   0.383
77618NA+    NA+37154   1.892  39.421   2.727
77619NA+    NA+37155  29.076   0.418   0.852
77620NA+    NA+37156  19.655  30.491   1.364
77621NA+    NA+37157  20.737  43.921   4.267
77622NA+    NA+37158  32.580  33.944  12.859
77623NA+    NA+37159  32.392  18.132  10.601
77624NA+    NA+37160  28.111   9.735   2.294
77625NA+    NA+37161  32.619   5.414  14.787
77626NA+    NA+37162   3.922   3.781   2.814
77627NA+    NA+37163  42.841   0.774   5.221
77628NA+    NA+37164  27.533  35.455   2.418
77629NA+    NA+37165  37.407   8.241   0.750
77630NA+    NA+37166   5.869  42.479   3.374
77631NA+    NA+37167  11.266  36.018  12.502
77632NA+    NA+37168  22.538  33.520  10.978
77633NA+    NA+37169  14.740   7.192  14.375
77634NA+    NA+37170  20.701  10.250  14.782
77635NA+    NA+37171  33.382   6.869  11.376
77636NA+    NA+37172  33.990  37.411  12.479
77637NA+    NA+37173  31.578  31.917   0.387
77638NA+    NA+37174  11.686  35.393   4.113
77639NA+    NA+37175   7.728  32.033   2.668
77640NA+    NA+37176  16.611  42.326  14.429
77641NA+    NA+37177  23.114  22.205  11.563
77642NA+    NA+37178  16.743  31.978  12.925
77643NA+    NA+37179  17.149  38.012   3.151
77644NA+    NA+37180  25.996  15.695   3.745
77645NA+    NA+37181  39.431  38.571  14.909
77646NA+    NA+37182  12.841  41.916  11.115
77647NA+    NA+37183  17.166  23.683  11.599
77648NA+    NA+37184  15.189  21.261   3.362
77649NA+    NA+37185  36.882   6.372  11.114
77650NA+    NA+37186  15.200  19.042  12.567
77651NA+    NA+37187  41.894  42.900   3.850
77652NA+    NA+37188  41.333   7.315   3.837
77653NA+    NA+37189  24.579  14.769   4.807
77654NA+    NA+37190  20.534  19.739  11.001
77655NA+    NA+37191  32.970  10.730   1.897
77656NA+    NA+37192   5.368  43.900  12.524
77657NA+    NA+37193  20.575  44.275   0.393
77658NA+    NA+37194  28.930  38.412   1.403
77659NA+    NA+37195   7.292  18.572   0.349
77660NA+    NA+37196  42.340  42.827   0.830
77661NA+    NA+37197  41.893  38.519  13.019
77662NA+    NA+37198  14.778  40.423   2.692
77663NA+    NA+37199  23.530  11.716  11.416
77664NA+    NA+37200  11.634   1.815   5.283
77665NA+    NA+37201  26.538  36.877  13.839
77666NA+    NA+37202  23.066  29.939   0.937
77667NA+    NA+37203  33.976  28.132   0.455
77668NA+    NA+37204  42.355  23.641  14.968
77669NA+    NA+37205  16.279  24.107  13.837
77670NA+    NA+37206   4.811  30.606   5.227
77671NA+    NA+37207   3.452  13.715   0.359
77672NA+    NA+37208  16.165   4.320   2.828
77673NA+    NA+37209  28.663   5.343   1.314
77674NA+    NA+37210   5.379   8.776  14.504
77675NA+    NA+37211   5.308   5.795  11.497
77676NA+    NA+37212  22.678  24.147  14.510
77677NA+    NA+37213  32.471  31.490  10.912
77678NA+    NA+37214  27.584  43.890  13.405
77679NA+    NA+37215   3.415   8.785  11.943
77680NA+    NA+37216   1.888  12.212   1.750
77681NA+    NA+37217  30.611   4.923   4.250
77682NA+    NA+37218   5.733  43.934  13.896
77683NA+    NA+37219  35.094  19.637   3.850
77684NA+    NA+37220  39.506  32.919  12.075
77685NA+    NA+37221   8.339  40.941   4.223
77686NA+    NA+37222  28.652   8.188  11.073
77687NA+    NA+37223  13.335  23.985   1.731
77688NA+    NA+37224   4.326  36.074   4.288
77689NA+    NA+37225  18.604   7.693   1.410
77690NA+    NA+37226   6.704   1.960  14.364
77691NA+    NA+37227  36.348  41.454   2.869
77692NA+    NA+37228  13.658   7.666  14.784
77693NA+    NA+37229  28.069  39.887   4.790
77694NA+    NA+37230   0.276  27.601  11.860
77695NA+    NA+37231  36.495   6.234  13.012
77696NA+    NA+37232  29.627  40.507  11.568
77697NA+    NA+37233  14.723   5.930   2.900
77698NA+    NA+37234  43.933  40.547   0.257
77699NA+    NA+37235   9.159  15.649  12.368
77700NA+    NA+37236  41.296  15.628   3.291
77701NA+    NA+37237  42.478  42.995  10.987
77702NA+    NA+37238  43.952  27.517  13.895
77703NA+    NA+37239  32.038  42.397   4.726
77704NA+    NA+37240  30.975  28.454  10.001
77705NA+    NA+37241  30.587   1.381   2.699
77706NA+    NA+37242  42.860  44.342   1.233
77707NA+    NA+37243   9.290   8.842   0.255
77708NA+    NA+37244  14.196  19.756  14.842
77709NA+    NA+37245  17.768  24.540  11.027
77710NA+    NA+37246  19.554  27.086   0.783
77711NA+    NA+37247   0.306  31.113  13.424
77712NA+    NA+37248  42.883  15.218  13.830
77713NA+    NA+37249  40.350  17.065   4.303
77714NA+    NA+37250   1.276  30.066   5.135
77715NA+    NA+37251   8.378  27.463  11.979
77716NA+    NA+37252   9.333   0.303  12.505
77717NA+    NA+37253  34.584  19.135   1.759
77718NA+    NA+37254   2.950   1.823   3.675
77719NA+    NA+37255  29.512  42.374  14.373
77720NA+    NA+37256  18.643  36.089   5.149
77721NA+    NA+37257  17.073   4.342   2.411
77722NA+    NA+37258  22.183  34.910   1.898
77723NA+    NA+37259   5.368  18.115   1.406
77724NA+    NA+37260  42.404  13.604  13.322
77725NA+    NA+37261  23.103  35.096   3.676
77726NA+    NA+37262  22.629  40.442  12.881
77727NA+    NA+37263  15.768  20.046   2.359
77728NA+    NA+37264  42.401  27.650   2.813
77729NA+    NA+37265  11.747  21.187  11.585
77730NA+    NA+37266   7.803  11.660   3.326
77731NA+    NA+37267  29.158  20.052  12.368
77732NA+    NA+37268   2.793  15.596  13.450
77733NA+    NA+37269  36.927  31.110   2.775
77734NA+    NA+37270  41.501  29.571   5.244
77735NA+    NA+37271  39.035  32.403   1.214
77736NA+    NA+37272   2.761  16.197   1.297
77737NA+    NA+37273  22.245  19.604  11.447
77738NA+    NA+37274   0.322  17.786  14.361
77739NA+    NA+37275  33.564  40.027  10.898
77740NA+    NA+37276   4.720  14.109   4.182
77741NA+    NA+37277  32.399  22.058  14.314
77742NA+    NA+37278   2.345  20.602  12.061
77743NA+    NA+37279  31.484   8.657   2.865
77744NA+    NA+37280   7.720  32.463  10.600
77745NA+    NA+37281  23.019  15.234  14.395
77746NA+    NA+37282   9.205   8.170   3.738
77747NA+    NA+37283  38.487  18.184  13.048
77748NA+    NA+37284  15.658  27.195  10.894
77749NA+    NA+37285  16.269   1.415  14.944
77750NA+    NA+37286  26.156  10.341   4.320
77751NA+    NA+37287   3.439  12.789  13.833
77752NA+    NA+37288  18.613   5.285   2.839
77753NA+    NA+37289  25.692  36.910  12.575
77754NA+    NA+37290  22.723  22.571   4.794
77755NA+    NA+37291  34.949  27.541  13.906
77756NA+    NA+37292  42.874   6.837   4.181
77757NA+    NA+37293  28.172  19.107   4.691
77758NA+    NA+37294  25.068  22.053   1.390
77759NA+    NA+37295  39.406  20.691   1.427
77760NA+    NA+37296  41.347  12.185  10.103
77761NA+    NA+37297  26.659  27.489   1.269
77762NA+    NA+37298  32.024  32.130   5.252
77763NA+    NA+37299  43.978  29.028  13.876
77764NA+    NA+37300   2.411  41.447   1.728
77765NA+    NA+37301  15.179  29.166  12.540
77766NA+    NA+37302   6.348   9.817   0.395
77767NA+    NA+37303  44.804  43.000  11.573
77768NA+    NA+37304   9.233  23.055  10.590
77769NA+    NA+37305  37.484  19.219  12.083
77770NA+    NA+37306  19.072  25.155  13.319
77771NA+    NA+37307  29.574  25.131   1.896
77772NA+    NA+37308  23.711  43.897  14.866
77773NA+    NA+37309  12.124  22.203  12.435
77774NA+    NA+37310  22.505   7.847   0.942
77775NA+    NA+37311  17.112  43.888  11.585
77776NA+    NA+37312  40.870  19.087  11.093
77777NA+    NA+37313   1.360  42.874  12.072
77778NA+    NA+37314   4.794  16.736   1.217
77779NA+    NA+37315  41.470  16.250  12.517
77780NA+    NA+37316  38.938   4.415  10.892
77781NA+    NA+37317   5.234   3.405   4.746
77782NA+    NA+37318  42.903  30.053  13.804
77783NA+    NA+37319  21.144   7.666  14.423
77784NA+    NA+37320   6.364  25.967   3.209
77785NA+    NA+37321  14.171  39.357   0.806
77786NA+    NA+37322  44.778  19.166   4.329
77787NA+    NA+37323  21.082  20.054   4.692
77788NA+    NA+37324  38.872  14.722   1.899
77789NA+    NA+37325  42.906  40.945   2.827
77790NA+    NA+37326  12.794  39.016   2.212
77791NA+    NA+37327   5.807   7.322  12.446
77792NA+    NA+37328  13.126  25.472   2.241
77793NA+    NA+37329   0.472  10.338   3.836
77794NA+    NA+37330  18.231  38.415  12.991
77795NA+    NA+37331   7.747  41.353  11.912
77796NA+    NA+37332   7.768  32.547   3.824
77797NA+    NA+37333   7.786   3.451   1.356
77798NA+    NA+37334   0.839  27.541  14.766
77799NA+    NA+37335  23.023   5.688  10.547
77800NA+    NA+37336  14.124  37.541   4.218
77801NA+    NA+37337   0.444  23.183   1.273
77802NA+    NA+37338  38.390   0.416  10.528
77803NA+    NA+37339  43.875  24.164  11.890
77804NA+    NA+37340   3.233  34.523   2.342
77805NA+    NA+37341  28.046  10.739   2.662
77806NA+    NA+37342  25.177   2.345   1.399
77807NA+    NA+37343  20.120  20.526  14.820
77808NA+    NA+37344  35.391  41.499   4.725
77809NA+    NA+37345   7.374   6.880  10.498
77810NA+    NA+37346  33.039  17.555  12.498
77811NA+    NA+37347   9.190  23.008  11.400
77812NA+    NA+37348  16.314   1.907   4.784
77813NA+    NA+37349   2.728   7.689  12.888
77814NA+    NA+37350  10.639  10.766  11.431
77815NA+    NA+37351  26.093  12.193  11.901
77816NA+    NA+37352  18.722   5.879  10.951
77817NA+    NA+37353  12.624  36.472   2.772
77818NA+    NA+37354  35.384  24.542   3.363
77819NA+    NA+37355  19.226   7.399   3.174
77820NA+    NA+37356  38.514  34.980  14.861
77821NA+    NA+37357  29.115   8.350   4.160
77822NA+    NA+37358  25.534  16.240   2.394
77823NA+    NA+37359  26.984  10.655   3.722
77824NA+    NA+37360  23.556   7.728  14.820
77825NA+    NA+37361  13.687   1.874   3.716
77826NA+    NA+37362  10.302   4.765   0.359
77827NA+    NA+37363  39.319  17.114  11.549
77828NA+    NA+37364  39.921  21.245   4.207
77829NA+    NA+37365  43.788   9.712  13.538
77830NA+    NA+37366   9.773  28.148  14.281
77831NA+    NA+37367  40.404  23.546   1.915
77832NA+    NA+37368  33.581  43.844   1.238
77833NA+    NA+37369  16.092   1.295   3.678
77834NA+    NA+37370  37.834  25.500  14.892
77835NA+    NA+37371   4.813  15.724   1.727
77836NA+    NA+37372   3.952  13.204   4.675
77837NA+    NA+37373  19.625  31.019  12.415
77838NA+    NA+37374  44.441  18.096  10.060
77839NA+    NA+37375  32.517  42.914  14.973
77840NA+    NA+37376  12.856  33.435  11.465
77841NA+    NA+37377  12.843   8.816   3.254
77842NA+    NA+37378  27.621  22.577   0.924
77843NA+    NA+37379  35.579  28.138   1.896
77844NA+    NA+37380  29.151  25.498   5.107
77845NA+    NA+37381  32.007   1.756  13.410
77846NA+    NA+37382  17.718  39.317   3.656
77847NA+    NA+37383  17.278  43.383   0.291
77848NA+    NA+37384  25.082   5.859   0.462
77849NA+    NA+37385   2.388  12.272  11.078
77850NA+    NA+37386   7.206  10.362   0.326
77851NA+    NA+37387  13.722   4.937  13.061
77852NA+    NA+37388  17.603   8.747   3.223
77853NA+    NA+37389  33.881  31.533  12.068
77854NA+    NA+37390  34.447  28.999  11.977
77855NA+    NA+37391   6.250  40.917   0.460
77856NA+    NA+37392  35.027  11.149   3.681
77857NA+    NA+37393  43.377  16.100  10.517
77858NA+    NA+37394  33.121  14.613   4.282
77859NA+    NA+37395  15.812  20.130   5.753
77860NA+    NA+37396  35.099  39.491  10.518
77861NA+    NA+37397  15.746  36.079   1.839
77862NA+    NA+37398  21.646  39.523   4.741
77863NA+    NA+37399  22.211   1.481  11.467
77864NA+    NA+37400   3.429  31.054   5.293
77865NA+    NA+37401   2.805  38.957   1.715
77866NA+    NA+37402   2.376  39.349   0.475
77867NA+    NA+37403  12.751  35.892   2.414
77868NA+    NA+37404  17.595  26.993   2.830
77869NA+    NA+37405  16.249  18.651  13.375
77870NA+    NA+37406  32.929  39.358  11.002
77871NA+    NA+37407  19.242  35.924  14.383
77872NA+    NA+37408   3.377   6.261  10.998
77873NA+    NA+37409  10.144   3.247   1.417
77874NA+    NA+37410  35.068  16.784  14.386
77875NA+    NA+37411  18.566  23.101  12.857
77876NA+    NA+37412  44.439  14.251   2.826
77877NA+    NA+37413   7.888  15.790  10.439
77878NA+    NA+37414  15.185  36.847   2.700
77879NA+    NA+37415   2.751  13.786   0.876
77880NA+    NA+37416  15.730  33.910   5.112
77881NA+    NA+37417   9.224  22.018   0.256
77882NA+    NA+37418   8.201  11.350  13.003
77883NA+    NA+37419  12.659  31.085   0.441
77884NA+    NA+37420  36.517  26.457  11.485
77885NA+    NA+37421   1.763   8.370  14.496
77886NA+    NA+37422  12.306  18.733  10.491
77887NA+    NA+37423  29.607  42.821   5.216
77888NA+    NA+37424  34.575  27.197   2.354
77889NA+    NA+37425  25.582  37.853  11.066
77890NA+    NA+37426  40.020  15.614  14.925
77891NA+    NA+37427   9.830   6.835  12.438
77892NA+    NA+37428  40.328   9.353   3.736
77893NA+    NA+37429  11.183   4.311  11.857
77894NA+    NA+37430  15.804  11.305  14.512
77895NA+    NA+37431  29.117  31.478   4.322
77896NA+    NA+37432   3.431  39.450   1.899
77897NA+    NA+37433   6.782  11.347   1.779
77898NA+    NA+37434  19.533  36.088   2.274
77899NA+    NA+37435  33.989  37.986   3.169
77900NA+    NA+37436  21.087   3.397  13.342
77901NA+    NA+37437  11.815  25.001  12.493
77902NA+    NA+37438  26.611  20.636   3.808
77903NA+    NA+37439  42.849  44.837  13.010
77904NA+    NA+37440  18.615   7.328  11.084
77905NA+    NA+37441   4.911  30.536   2.865
77906NA+    NA+37442  43.945   7.876  10.991
77907NA+    NA+37443  29.146  18.751   1.802
77908NA+    NA+37444  17.749  40.530  14.412
77909NA+    NA+37445  38.820  16.608  11.889
77910NA+    NA+37446  20.744   6.343   1.436
77911NA+    NA+37447  23.214  10.635   3.202
77912NA+    NA+37448  11.247  39.473  12.549
77913NA+    NA+37449  32.052  21.219  12.974
77914NA+    NA+37450  24.009  18.255  14.969
77915NA+    NA+37451  19.729   7.883   0.335
77916NA+    NA+37452  10.826  11.796   0.834
77917NA+    NA+37453  32.105  20.724   1.792
77918NA+    NA+37454  35.521   4.852   4.306
77919NA+    NA+37455  34.554   6.708  14.853
77920NA+    NA+37456  14.793  20.748   0.439
77921NA+    NA+37457  30.909  30.529  13.438
77922NA+    NA+37458   3.928  21.740  13.547
77923NA+    NA+37459  22.102   6.825   2.342
77924NA+    NA+37460  27.565  15.099   1.391
77925NA+    NA+37461   2.407   1.453   2.670
77926NA+    NA+37462  29.641  39.035  13.333
77927NA+    NA+37463  26.691  13.747  13.491
77928NA+    NA+37464   7.691   9.318  12.964
77929NA+    NA+37465  24.583  30.476  13.467
77930NA+    NA+37466  44.867  31.936   0.305
77931NA+    NA+37467  34.902   4.724   2.389
77932NA+    NA+37468  12.185  29.637   1.373
77933NA+    NA+37469   1.738  41.803  14.763
77934NA+    NA+37470  34.500  17.643   3.324
77935NA+    NA+37471  19.536   7.752  12.463
77936NA+    NA+37472   6.207   6.703  10.954
77937NA+    NA+37473  12.716  41.524  14.938
77938NA+    NA+37474   4.779   5.347  11.883
77939NA+    NA+37475  36.488   5.275  12.896
77940NA+    NA+37476  22.665  10.706  11.551
77941NA+    NA+37477  14.673  42.444   3.853
77942NA+    NA+37478  10.272  44.488  13.451
77943NA+    NA+37479   5.854  10.260   2.680
77944NA+    NA+37480  28.605   9.731  12.026
77945NA+    NA+37481   7.192   7.809  14.498
77946NA+    NA+37482  22.122  16.774  13.833
77947NA+    NA+37483  38.894  41.861   2.795
77948NA+    NA+37484  25.965  23.085   1.370
77949NA+    NA+37485  44.796  31.498  14.294
77950NA+    NA+37486   6.691  12.160  13.961
77951NA+    NA+37487   8.164  23.019   1.371
77952NA+    NA+37488  36.361   7.358   3.678
77953NA+    NA+37489   7.355  27.505   2.822
77954NA+    NA+37490  26.653   8.243  12.887
77955NA+    NA+37491   9.168   1.242  11.574
77956NA+    NA+37492  36.435  26.097   3.173
77957NA+    NA+37493  27.085  36.511  11.450
77958NA+    NA+37494  13.278  21.039   0.877
77959NA+    NA+37495  21.732  21.217   5.787
77960NA+    NA+37496  43.842  21.734  12.833
77961NA+    NA+37497   5.758  18.181  12.983
77962NA+    NA+37498   3.748   8.818  14.393
77963NA+    NA+37499   9.765  44.464  11.416
77964NA+    NA+37500  32.975  34.539   4.203
77965NA+    NA+37501  12.701   8.174  13.458
77966NA+    NA+37502  40.838  12.121   4.307
77967NA+    NA+37503  37.041  17.121  11.921
77968NA+    NA+37504  44.358  12.242   1.325
77969NA+    NA+37505   2.808  33.022   0.425
77970NA+    NA+37506  36.943  22.737   0.368
77971NA+    NA+37507  25.134  29.958   1.919
77972NA+    NA+37508   8.662  32.987  10.043
77973NA+    NA+37509  42.463   6.785  12.485
77974NA+    NA+37510  28.544  40.981  13.460
77975NA+    NA+37511  10.778  19.253  11.037
77976NA+    NA+37512  14.793  21.601  10.643
77977NA+    NA+37513  22.695  34.403   1.818
77978NA+    NA+37514   6.419  35.056   3.752
77979NA+    NA+37515   2.316  11.693   4.128
77980NA+    NA+37516  41.443   6.333   3.728
77981NA+    NA+37517  29.526  36.542  12.489
77982NA+    NA+37518   7.736  40.910   1.322
77983NA+    NA+37519   2.754  11.165  14.372
77984NA+    NA+37520  11.721  32.488  13.901
77985NA+    NA+37521  42.459  11.314  12.544
77986NA+    NA+37522  43.388   9.705   0.346
77987NA+    NA+37523   7.730  18.224   2.332
77988NA+    NA+37524  22.148  31.497   4.795
77989NA+    NA+37525  35.924  27.148   1.859
77990CL-    CL-37526  20.644  42.789  11.613
77991CL-    CL-37527  17.786   8.757  14.419
77992CL-    CL-37528   4.355  14.187   0.791
77993CL-    CL-37529  42.808  43.938  11.057
77994CL-    CL-37530  35.016  17.794  11.087
77995CL-    CL-37531  14.815   3.355  14.366
77996CL-    CL-37532  13.250  37.854   4.822
77997CL-    CL-37533  39.009  40.352  13.847
77998CL-    CL-37534  22.663  30.445   2.392
77999CL-    CL-37535  15.607  34.867  14.457
78000CL-    CL-37536  23.028  36.571   4.175
78001CL-    CL-37537  12.181  29.957   2.884
78002CL-    CL-37538  18.285  18.760   9.607
78003CL-    CL-37539  28.158  22.747  12.427
78004CL-    CL-37540  19.202   4.390   3.367
78005CL-    CL-37541  43.438  33.126   3.279
78006CL-    CL-37542  39.417  13.804  11.421
78007CL-    CL-37543  11.334   1.240   4.128
78008CL-    CL-37544   3.268  44.898   0.463
78009CL-    CL-37545   9.252  12.136  10.947
78010CL-    CL-37546   7.730  13.112  13.443
78011CL-    CL-37547  30.455  33.536  14.439
78012CL-    CL-37548   7.759   4.707  11.462
78013CL-    CL-37549   4.229  10.876   0.477
78014CL-    CL-37550  25.604  44.928   3.257
78015CL-    CL-37551   9.344  20.708   4.202
78016CL-    CL-37552  18.564  14.139   3.813
78017CL-    CL-37553   1.817  29.455  14.806
78018CL-    CL-37554  16.620  36.952  11.985
78019CL-    CL-37555  29.085  20.187   3.156
78020CL-    CL-37556  39.384  30.035   3.168
78021CL-    CL-37557  14.213  27.983  12.388
78022CL-    CL-37558  11.855  29.438  13.941
78023CL-    CL-37559   2.269  12.757   1.699
78024CL-    CL-37560  27.091  38.009   3.263
78025CL-    CL-37561  39.478   4.270  11.435
78026CL-    CL-37562  25.487  20.148  14.365
78027CL-    CL-37563   1.782   8.209   4.698
78028CL-    CL-37564  40.995  41.447   2.694
78029CL-    CL-37565  32.629  40.986  12.535
78030CL-    CL-37566  32.896  21.666  10.430
78031CL-    CL-37567  15.320  33.881   2.682
78032CL-    CL-37568  44.834  43.813   2.664
78033CL-    CL-37569  26.521  24.510   3.185
78034CL-    CL-37570  18.258  15.653   0.329
78035CL-    CL-37571   5.774   7.797   1.285
78036CL-    CL-37572  28.102   6.219  12.516
78037CL-    CL-37573  29.025  38.428  11.486
78038CL-    CL-37574  16.253  39.551  10.628
78039CL-    CL-37575  26.569  10.680   2.704
78040CL-    CL-37576  23.721  15.215  11.928
78041CL-    CL-37577  37.071  18.773  10.479
78042CL-    CL-37578  29.618   1.895  11.116
78043CL-    CL-37579  41.358  16.745  13.852
78044CL-    CL-37580  36.061  15.121   3.782
78045CL-    CL-37581  37.049  37.406  13.421
78046CL-    CL-37582   5.238   0.809  13.518
78047CL-    CL-37583  42.320  32.047   1.305
78048CL-    CL-37584   9.359  32.129   2.322
78049CL-    CL-37585  15.147  18.057  11.122
78050CL-    CL-37586   6.790  30.610  14.302
78051CL-    CL-37587  38.058  43.850  12.428
78052CL-    CL-37588  39.361  24.982   0.409
78053CL-    CL-37589  34.395  28.498   4.128
78054CL-    CL-37590   7.778  30.638  12.574
78055CL-    CL-37591  36.525  20.573   4.675
78056CL-    CL-37592  35.359  38.531   2.863
78057CL-    CL-37593   2.787  12.827  12.569
78058CL-    CL-37594  37.939  11.640  13.483
78059CL-    CL-37595   3.419   0.278   1.299
78060CL-    CL-37596   1.777   9.808  10.909
78061CL-    CL-37597  28.177  38.428  13.354
78062CL-    CL-37598  37.831  41.313   1.395
78063CL-    CL-37599  10.718   0.489   3.844
78064CL-    CL-37600  16.731  17.195  14.458
78065CL-    CL-37601  17.280  10.647   2.769
78066CL-    CL-37602  37.012   2.321  13.990
78067CL-    CL-37603  38.471  12.270  14.767
78068CL-    CL-37604  12.334   0.788   3.825
78069CL-    CL-37605  25.503  27.195  13.327
78070CL-    CL-37606   9.161   1.818  13.886
78071CL-    CL-37607  20.070   2.827   2.887
78072CL-    CL-37608  24.008   5.338   1.316
78073CL-    CL-37609   5.419   3.716  14.444
78074CL-    CL-37610  17.292  22.687  14.328
78075CL-    CL-37611   1.873   2.803  12.463
78076CL-    CL-37612   7.801  23.735   4.732
78077CL-    CL-37613  20.173   4.280  14.434
78078CL-    CL-37614  27.679  37.062   0.361
78079CL-    CL-37615  12.710  31.913   1.212
78080CL-    CL-37616  42.315   6.314  10.958
78081CL-    CL-37617  33.019   7.416  13.364
78082CL-    CL-37618   1.843  35.431   1.931
78083CL-    CL-37619  35.972   7.890  14.355
78084CL-    CL-37620  44.960  44.788  14.940
78085CL-    CL-37621  27.559   2.959   2.368
78086CL-    CL-37622  24.195  38.876  13.421
78087CL-    CL-37623  36.085   4.911   2.691
78088CL-    CL-37624  25.665  36.854  11.604
78089CL-    CL-37625  14.265  23.578   1.320
78090CL-    CL-37626  31.134  23.122  12.471
78091CL-    CL-37627  24.175  16.302  12.427
78092CL-    CL-37628  24.125   5.773  13.880
78093CL-    CL-37629  31.999   3.888   1.258
78094CL-    CL-37630  38.867  24.503  10.976
78095CL-    CL-37631  14.224  38.505   4.783
78096CL-    CL-37632  34.520  15.630  12.950
78097CL-    CL-37633  40.809  35.508   0.928
78098CL-    CL-37634  26.515  40.022  13.470
78099CL-    CL-37635  39.037  14.245  14.413
78100CL-    CL-37636  33.514  19.649  13.914
78101CL-    CL-37637  26.053  42.457   3.288
78102CL-    CL-37638   1.272   4.918   4.321
78103CL-    CL-37639  43.440   8.270   1.845
78104CL-    CL-37640  42.917  41.805  13.849
78105CL-    CL-37641  40.950  22.237  12.835
78106CL-    CL-37642  13.245  31.911   5.096
78107CL-    CL-37643  13.690  35.060  13.800
78108CL-    CL-37644  40.523   7.911   3.869
78109CL-    CL-37645   6.896  10.715  11.430
78110CL-    CL-37646   2.245  32.626  11.445
78111CL-    CL-37647  33.494   7.859  14.943
78112CL-    CL-37648   1.286   6.737   0.455
78113CL-    CL-37649  20.136  30.521  11.381
78114CL-    CL-37650  36.527  37.459   5.220
78115CL-    CL-37651  15.821  17.781   4.698
78116CL-    CL-37652  35.941   3.450  12.862
78117CL-    CL-37653  28.072  42.330   0.850
78118CL-    CL-37654  18.565  14.336   0.432
78119CL-    CL-37655  32.559  30.936   1.335
78120CL-    CL-37656  40.939  11.756  10.916
78121CL-    CL-37657   3.829  24.614  11.878
78122CL-    CL-37658  13.170  21.137   3.252
78123CL-    CL-37659  24.156   0.753   0.743
78124CL-    CL-37660  11.757   4.776   1.934
78125CL-    CL-37661   4.883  24.485   1.849
78126CL-    CL-37662  28.083  28.179   2.807
78127CL-    CL-37663  10.174   2.905  12.006
78128CL-    CL-37664  10.216  26.508  13.507
78129CL-    CL-37665  26.187  16.112   3.707
78130CL-    CL-37666  25.712  25.157   2.891
78131CL-    CL-37667  30.591  13.222   5.273
78132CL-    CL-37668  29.044  44.503   0.901
78133CL-    CL-37669  19.699  32.047  10.577
78134CL-    CL-37670   7.228  37.570  12.465
78135CL-    CL-37671  33.568   0.307  10.600
78136CL-    CL-37672  27.617  12.261  14.427
78137CL-    CL-37673   9.362  37.936  11.907
78138CL-    CL-37674  34.402   4.316   4.275
78139CL-    CL-37675   3.881  16.280   0.369
78140CL-    CL-37676  30.078  19.158  14.875
78141CL-    CL-37677  16.648   6.892  12.891
78142CL-    CL-37678  22.656  40.541   1.718
78143CL-    CL-37679  37.848   0.836   0.774
78144CL-    CL-37680  40.978  22.589   3.380
78145CL-    CL-37681  44.336   8.672   4.770
78146CL-    CL-37682   2.281  35.932   3.172
78147CL-    CL-37683  40.329   8.165   0.923
78148CL-    CL-37684  33.466   0.860   4.688
78149CL-    CL-37685  23.093  31.540  14.957
78150CL-    CL-37686  39.493   2.957   4.607
78151CL-    CL-37687  11.133   4.429   2.237
78152CL-    CL-37688   0.419  18.689   1.809
78153CL-    CL-37689  23.029  38.841  13.953
78154CL-    CL-37690   2.913   1.879   4.197
78155CL-    CL-37691   4.820  33.070  11.452
78156CL-    CL-37692  25.566  16.743  12.011
78157CL-    CL-37693  15.284   4.851   0.434
78158CL-    CL-37694  35.387  13.344  13.828
78159CL-    CL-37695  30.048  22.731  11.521
78160CL-    CL-37696  29.491  17.253   2.345
78161CL-    CL-37697  24.997  28.966   2.894
78162CL-    CL-37698  10.204  18.605   9.968
78163CL-    CL-37699  31.134  10.358  14.800
78164CL-    CL-37700   1.357  13.251   1.772
78165CL-    CL-37701  28.141  36.938  10.983
78166CL-    CL-37702  40.959   0.953   2.361
78167CL-    CL-37703  14.834  30.519   0.277
78168CL-    CL-37704  25.043  32.449   0.432
78169CL-    CL-37705  42.862  26.026   2.685
78170CL-    CL-37706   6.251  25.698   3.227
78171CL-    CL-37707  18.173  26.985   2.853
78172CL-    CL-37708   6.905  42.285   4.331
78173CL-    CL-37709  23.492  15.252   4.661
78174CL-    CL-37710  33.439  37.422  13.488
78175CL-    CL-37711  34.496  17.649  11.576
78176CL-    CL-37712   1.766  39.351  12.418
78177CL-    CL-37713  31.487  28.568   3.214
78178CL-    CL-37714  40.458  21.704   1.928
78179CL-    CL-37715   8.769  31.032  11.941
78180CL-    CL-37716  26.470  24.191  10.977
78181CL-    CL-37717  37.083   0.854   0.285
78182CL-    CL-37718  19.143  35.533  12.873
78183CL-    CL-37719  22.015  36.996  12.913
78184CL-    CL-37720   2.394  23.202  14.917
78185CL-    CL-37721  44.839  42.877   4.186
78186CL-    CL-37722  13.673  22.692   0.839
78187CL-    CL-37723  43.304  33.999  11.855
78188CL-    CL-37724  36.379  33.955   0.787
78189CL-    CL-37725  33.087  29.964  14.475
78190CL-    CL-37726   8.673  19.691  11.554
78191CL-    CL-37727  22.180  39.484  11.105
78192CL-    CL-37728   2.412  26.611   0.956
78193CL-    CL-37729  29.497   7.803   0.332
78194CL-    CL-37730   9.872  37.495   4.257
78195CL-    CL-37731  42.438   1.366   0.804
78196CL-    CL-37732  38.950   5.811   0.841
78197CL-    CL-37733  37.982  23.191   3.862
78198CL-    CL-37734  11.637  22.165   3.289
78199CL-    CL-37735   1.896  19.750   1.713
78200CL-    CL-37736  35.100   9.651   1.225
78201CL-    CL-37737  44.995   5.783   4.597
78202CL-    CL-37738  31.067  13.239  11.449
78203CL-    CL-37739  11.298  43.453  11.015
78204CL-    CL-37740  26.670   4.397   0.366
78205CL-    CL-37741  18.783  10.878   1.853
78206CL-    CL-37742   2.784  22.624   1.927
78207CL-    CL-37743  21.738  38.558  12.395
78208CL-    CL-37744  24.534  25.665  11.903
78209CL-    CL-37745  33.502  16.737   2.312
78210CL-    CL-37746  10.280   3.727  14.807
78211CL-    CL-37747   9.797  41.796   4.294
78212CL-    CL-37748  17.098  23.156  14.823
78213CL-    CL-37749  29.130  24.508   4.767
78214CL-    CL-37750  23.614   0.360   0.727
78215CL-    CL-37751  40.455   8.365  13.879
78216CL-    CL-37752   8.323  29.643  12.937
78217CL-    CL-37753  42.503   9.679   2.373
78218CL-    CL-37754  44.816  44.319   2.671
78219CL-    CL-37755  10.256  12.183   0.859
78220CL-    CL-37756  19.680  13.248  14.410
78221CL-    CL-37757  25.689  24.139  13.480
78222CL-    CL-37758   5.846  30.059   4.800
78223CL-    CL-37759  17.739  39.031   1.921
78224CL-    CL-37760  41.299   8.291  10.921
78225CL-    CL-37761  35.520  27.571  13.326
78226CL-    CL-37762  35.407  38.850  14.450
78227CL-    CL-37763  28.496  27.983   3.315
78228CL-    CL-37764  11.268   9.718  11.122
78229CL-    CL-37765  32.476  31.453  13.023
78230CL-    CL-37766  28.455   2.858   0.944
78231CL-    CL-37767  43.906  14.185  14.505
78232CL-    CL-37768  38.019  15.227  12.963
78233CL-    CL-37769   5.757  28.945  14.783
78234CL-    CL-37770   7.673  43.272   0.945
78235CL-    CL-37771  21.160  43.455  12.952
78236CL-    CL-37772   8.173  37.386   1.710
78237CL-    CL-37773  24.686  30.929   1.786
78238CL-    CL-37774  24.027  12.817   2.782
78239CL-    CL-37775  31.550  30.426  14.828
78240CL-    CL-37776  10.304  11.316   0.378
78241CL-    CL-37777   1.859   0.317  11.376
78242CL-    CL-37778  10.732  18.622  13.890
78243CL-    CL-37779  35.086  34.877   1.879
78244CL-    CL-37780  13.345  32.052  13.527
78245CL-    CL-37781  40.814  28.608   3.767
78246CL-    CL-37782  43.510   7.330   2.808
78247CL-    CL-37783   1.296  28.659   2.717
78248CL-    CL-37784  23.516  25.501   0.448
78249CL-    CL-37785  33.978   0.908   9.934
78250CL-    CL-37786  25.688  26.621   3.767
78251CL-    CL-37787   1.765  16.127  13.357
78252CL-    CL-37788   4.848   7.243   1.697
78253CL-    CL-37789   3.246   1.793  12.564
78254CL-    CL-37790  12.710   2.762   4.742
78255CL-    CL-37791  17.291  22.091   2.792
78256CL-    CL-37792  44.833  24.047  13.542
78257CL-    CL-37793  24.163  36.952  14.418
78258CL-    CL-37794   0.385  34.981   4.272
78259CL-    CL-37795   2.468  11.653  12.540
78260CL-    CL-37796  37.861  23.164  13.480
78261CL-    CL-37797  20.529  42.487   1.212
78262CL-    CL-37798  32.390  43.412  11.913
78263CL-    CL-37799  29.996  36.550  14.892
78264CL-    CL-37800  33.026  25.133  14.962
78265CL-    CL-37801  23.002  11.363   2.417
78266CL-    CL-37802  32.994  24.131   4.293
78267CL-    CL-37803  32.140  12.774   2.667
78268CL-    CL-37804  41.532  21.139  11.600
78269CL-    CL-37805   5.356  16.189   0.431
78270CL-    CL-37806  18.136  40.968   1.244
78271CL-    CL-37807   8.358  18.106  10.890
78272CL-    CL-37808  18.586  44.987   1.359
78273CL-    CL-37809   7.911  21.545  10.492
78274CL-    CL-37810   1.762   3.778   1.722
78275CL-    CL-37811  35.854  17.102   0.420
78276CL-    CL-37812  24.193  33.958  10.437
78277CL-    CL-37813   3.459   3.780   0.310
78278CL-    CL-37814  39.995   0.448   1.854
78279CL-    CL-37815  26.529  14.675   0.343
78280CL-    CL-37816  32.894  13.694  10.423
78281CL-    CL-37817  38.940   2.332   3.739
78282CL-    CL-37818   3.852  40.368   3.324
78283CL-    CL-37819  20.629   5.289   0.376
78284CL-    CL-37820  28.650  40.024  14.455
78285CL-    CL-37821  26.193  33.488   4.251
78286CL-    CL-37822  14.268  26.529  14.349
78287CL-    CL-37823   9.303   7.799   3.648
78288CL-    CL-37824  26.487  23.185   4.210
78289CL-    CL-37825  27.453  13.623  13.488
78290CL-    CL-37826   6.383  27.038   4.821
78291CL-    CL-37827  27.999  36.054   3.836
78292CL-    CL-37828  28.470  31.014   4.224
78293CL-    CL-37829  40.878  36.467  13.023
78294CL-    CL-37830  18.682   9.225  13.458
78295CL-    CL-37831  11.263  13.106  13.425
78296CL-    CL-37832   0.296   9.701  14.894
78297CL-    CL-37833  10.147   3.341  14.315
78298CL-    CL-37834  23.651   1.277  13.988
78299CL-    CL-37835  20.761  34.395   4.683
78300CL-    CL-37836  12.825  41.040  10.965
78301CL-    CL-37837  28.163  20.239   0.826
78302CL-    CL-37838  30.551  43.792  13.315
78303CL-    CL-37839  18.660  34.383  11.102
78304CL-    CL-37840  39.058  38.436  11.502
78305CL-    CL-37841  15.320   7.252   4.659
78306CL-    CL-37842   5.216  13.636   0.294
78307CL-    CL-37843  11.365  21.601   4.354
78308CL-    CL-37844   6.418  26.135  11.536
78309CL-    CL-37845   3.739  37.553  11.414
78310CL-    CL-37846  19.709  41.535  10.469
78311CL-    CL-37847  43.349  34.919  12.523
78312CL-    CL-37848   6.377  32.419   0.905
78313CL-    CL-37849  36.426  19.672   0.957
78314CL-    CL-37850   2.901  10.355   0.462
78315CL-    CL-37851   3.460   7.293   4.787
78316CL-    CL-37852   6.338   9.660   2.671
78317CL-    CL-37853  13.227  10.267   1.897
78318CL-    CL-37854   0.394  26.139  11.128
78319CL-    CL-37855  30.614  41.413  14.998
78320CL-    CL-37856   6.818   4.318  14.452
78321CL-    CL-37857  28.606  31.944  11.955
78322CL-    CL-37858  17.788  39.865  10.409
78323CL-    CL-37859  35.901  42.801   0.439
78324CL-    CL-37860  13.712  29.575  10.554
78325CL-    CL-37861  34.532  40.891  12.446
78326CL-    CL-37862  29.922   2.846  11.879
78327CL-    CL-37863   8.256  41.993  11.976
78328CL-    CL-37864   9.795  40.358  14.968
78329CL-    CL-37865  35.441  33.879  11.551
78330CL-    CL-37866  42.966  34.056   1.340
78331CL-    CL-37867  36.017   7.404   2.860
78332CL-    CL-37868   4.332  25.710   3.377
78333CL-    CL-37869  13.150  27.515  13.935
78334CL-    CL-37870  20.162  29.064  12.541
78335CL-    CL-37871  16.782   4.807   1.722
78336CL-    CL-37872  18.159  12.282   1.901
78337CL-    CL-37873  38.852  20.652   3.164
78338CL-    CL-37874  34.415   6.869  13.888
78339CL-    CL-37875   9.227   8.282   1.398
78340CL-    CL-37876   9.390  25.545   5.658
78341CL-    CL-37877  24.181  41.351  11.860
78342CL-    CL-37878  14.744  41.833  12.469
78343CL-    CL-37879  25.652  28.974   2.387
78344CL-    CL-37880  31.927  23.984  13.819
78345CL-    CL-37881  13.837  28.967   2.734
78346CL-    CL-37882  28.675  24.537   1.351
78347CL-    CL-37883  41.831  43.781   2.227
78348CL-    CL-37884  16.811  23.533  12.839
78349CL-    CL-37885  17.161   0.808  13.835
78350CL-    CL-37886  34.956  26.701   4.744
78351CL-    CL-37887  15.152  31.927  10.967
78352CL-    CL-37888  17.707  36.415  12.538
78353CL-    CL-37889  15.138  22.625   1.411
78354CL-    CL-37890  28.970  38.033   3.260
78355CL-    CL-37891  20.247  30.519   1.224
78356CL-    CL-37892  30.559  10.690  10.412
78357CL-    CL-37893  23.236  26.178  10.413
78358CL-    CL-37894  31.040  32.604  14.964
78359CL-    CL-37895  24.523  14.594  10.921
78360CL-    CL-37896   8.333  25.474   0.881
78361CL-    CL-37897  38.050  12.647   2.812
78362CL-    CL-37898   6.826  41.951  11.923
78363CL-    CL-37899  41.922  23.507  10.609
78364CL-    CL-37900  15.253  24.060  13.464
78365CL-    CL-37901   9.164  18.717   0.955
78366CL-    CL-37902   0.359  18.599   4.245
78367CL-    CL-37903  43.922   1.427   4.734
78368CL-    CL-37904   3.370  35.551  11.562
78369CL-    CL-37905  39.384  35.389  14.330
78370CL-    CL-37906   8.356  20.174  14.458
78371CL-    CL-37907  39.316  21.140  13.453
78372CL-    CL-37908  38.842   7.685  12.528
78373CL-    CL-37909  13.638  15.615  10.072
78374CL-    CL-37910  37.468  32.463   0.929
78375CL-    CL-37911  29.549  22.560   1.832
78376CL-    CL-37912  24.640  37.413  14.870
78377CL-    CL-37913  18.292   7.848   3.764
78378CL-    CL-37914  32.394  12.804   3.721
78379CL-    CL-37915   7.259   8.198   4.604
78380CL-    CL-37916  35.886  30.619  11.556
78381CL-    CL-37917  36.978  11.745  14.318
78382CL-    CL-37918  42.827  41.847  10.421
78383CL-    CL-37919   2.424  20.607  10.509
78384CL-    CL-37920  20.199  36.063   4.829
78385CL-    CL-37921  38.381  25.547   0.876
78386CL-    CL-37922   1.314   6.720  10.601
78387CL-    CL-37923  28.555  20.530  11.961
78388CL-    CL-37924   1.790  36.085   1.216
78389CL-    CL-37925  22.686  21.122   2.247
78390CL-    CL-37926  17.560  42.431  11.536
78391CL-    CL-37927  24.079   2.400   3.307
78392CL-    CL-37928  39.042  44.863  11.049
78393CL-    CL-37929  31.642  40.957  12.045
78394CL-    CL-37930  32.450  30.039  11.455
78395CL-    CL-37931  40.980  30.030  10.404
78396CL-    CL-37932  35.488  18.625   1.395
78397CL-    CL-37933  17.210   0.355   4.203
78398CL-    CL-37934  41.826  37.969   1.713
78399CL-    CL-37935  37.507   1.310   1.369
78400CL-    CL-37936  38.961  23.633   1.847
78401CL-    CL-37937  22.640   2.893   4.618
78402CL-    CL-37938  39.435  21.681  11.602
78403CL-    CL-37939  31.147  31.009   3.862
78404CL-    CL-37940  36.531  21.687  12.510
78405CL-    CL-37941  31.534  41.491  11.523
78406CL-    CL-37942  37.861   9.340   1.350
78407CL-    CL-37943  21.257  23.560  14.857
78408CL-    CL-37944   6.760   8.242  10.939
78409CL-    CL-37945  34.103  29.547  12.426
78410CL-    CL-37946  19.581  19.055  10.612
78411CL-    CL-37947  18.774  25.055  10.409
78412CL-    CL-37948  29.534  22.094   2.683
78413CL-    CL-37949  28.148   8.673   1.258
78414CL-    CL-37950  25.131   9.201   0.268
78415CL-    CL-37951  28.547  42.301   4.141
78416CL-    CL-37952  27.554  44.370  14.942
78417CL-    CL-37953  43.322  18.614  13.805
78418CL-    CL-37954   9.361  16.777  14.427
78419CL-    CL-37955  33.083  42.903   0.369
78420CL-    CL-37956   0.438  12.736   9.594
78421CL-    CL-37957   8.399  27.985  14.760
78422CL-    CL-37958  38.365  41.806   0.415
78423CL-    CL-37959  32.632  26.658  11.374
78424CL-    CL-37960  21.623  21.654  14.856
78425CL-    CL-37961  15.120   5.901  11.503
78426CL-    CL-37962  29.989  38.952   0.775
78427CL-    CL-37963  15.782  13.801  12.984
78428CL-    CL-37964  44.412  26.130  14.421
78429CL-    CL-37965  28.570   1.914   3.854
78430CL-    CL-37966  34.105  19.239  11.100
78431CL-    CL-37967  32.392  23.629   4.317
78432CL-    CL-37968  27.059  13.625   0.760
78433CL-    CL-37969  22.645  16.711  11.589
78434CL-    CL-37970  13.156  15.192   3.827
78435CL-    CL-37971   1.459   7.362  12.524
78436CL-    CL-37972  37.925  37.464  13.360
78437CL-    CL-37973  31.069  19.143  13.063
78438CL-    CL-37974  44.867   8.249  13.450
78439CL-    CL-37975  11.745  23.107   1.837
78440CL-    CL-37976  12.842  41.961  13.342
78441CL-    CL-37977  26.126   5.778   0.377
78442CL-    CL-37978  20.075  34.588  12.559
78443CL-    CL-37979  11.698  39.848   0.354
78444CL-    CL-37980  28.533  27.087   4.166
78445CL-    CL-37981  43.860  41.308  12.442
78446CL-    CL-37982  22.638  31.541  12.529
78447CL-    CL-37983  13.808  16.185   2.369
78448CL-    CL-37984   2.778  28.973   2.412
78449CL-    CL-37985  23.660  24.098  13.928
78450CL-    CL-37986  33.422   4.382  14.372
78451CL-    CL-37987   2.300  11.191   1.210
78452CL-    CL-37988  10.157  17.742  14.515
78453CL-    CL-37989  21.613   3.849   5.615
78454CL-    CL-37990  32.078   8.896  13.003
78455CL-    CL-37991   0.377  23.698   3.711
78456CL-    CL-37992  44.353  32.062   1.802
78457CL-    CL-37993  28.470   4.765  13.414
78458CL-    CL-37994  41.826  33.526   3.753
78459CL-    CL-37995  26.520  30.592  14.766
78460CL-    CL-37996  43.329  13.328  10.624
78461CL-    CL-37997  43.836  35.386   0.436
78462CL-    CL-37998  40.463  23.207  13.536
78463CL-    CL-37999  44.462  16.131   0.822
78464CL-    CL-38000  35.387   2.243  12.988
78465CL-    CL-38001  25.639  32.399  12.552
78466CL-    CL-38002  40.481  33.025  13.984
78467CL-    CL-38003  24.695   6.767  13.864
78468CL-    CL-38004  44.265  41.929  14.408
78469CL-    CL-38005  30.505  27.030   2.889
78470CL-    CL-38006  14.635  43.848   4.133
78471CL-    CL-38007  23.119  11.320  12.030
78472CL-    CL-38008  36.484  11.373  10.578
78473CL-    CL-38009  40.304  23.048   1.861
78474CL-    CL-38010   0.768  33.464  10.120
78475CL-    CL-38011  39.968   1.758   3.304
78476CL-    CL-38012  32.072   5.798   2.398
78477CL-    CL-38013   1.934   8.825  13.346
78478CL-    CL-38014  14.119  33.099   4.685
78479CL-    CL-38015  17.666   8.886   4.624
78480CL-    CL-38016  32.034  25.568   1.251
78481CL-    CL-38017  42.798  28.436  14.435
78482CL-    CL-38018  32.035  28.099   1.778
78483CL-    CL-38019   2.801  23.618  12.384
78484CL-    CL-38020  11.211  27.563   4.688
78485CL-    CL-38021  19.534  40.373   0.935
78486CL-    CL-38022   6.683  19.086  10.414
78487CL-    CL-38023  35.483  39.458   2.819
78488CL-    CL-38024  24.520  11.800  11.090
78489CL-    CL-38025   8.862  24.557   5.242
78490CL-    CL-38026  15.229   5.933  13.919
78491CL-    CL-38027  40.850  37.032   2.359
78492CL-    CL-38028  44.931  28.507   2.817
78493CL-    CL-38029  18.233  34.031  11.118
78494CL-    CL-38030  10.793  41.004  13.887
78495CL-    CL-38031  28.508  30.650  11.025
78496CL-    CL-38032  37.508  40.327  14.336
78497CL-    CL-38033  37.429  24.213   5.213
78498CL-    CL-38034  29.919   3.443  10.418
78499CL-    CL-38035  23.564  37.953   9.562
78500CL-    CL-38036  27.091  36.404  14.881
78501CL-    CL-38037  10.287  33.129  14.962
78502CL-    CL-38038  35.876   9.198  13.955
78503CL-    CL-38039  35.074   7.778  13.062
78504CL-    CL-38040   7.861  25.513   3.691
78505CL-    CL-38041   4.745  35.549   2.734
78506CL-    CL-38042   7.751  11.687   1.777
78507CL-    CL-38043   4.395  39.548  12.950
78508CL-    CL-38044  20.067  20.243   2.690
78509CL-    CL-38045  37.556  10.311   0.299
78510CL-    CL-38046  37.414  41.519   2.342
78511CL-    CL-38047  29.555  38.496   1.339
78512CL-    CL-38048  11.347  20.054   0.311
78513CL-    CL-38049  26.194  20.168  12.080
78514CL-    CL-38050  35.583   1.947   1.836
78515CL-    CL-38051   9.267  43.843  12.858
78516CL-    CL-38052  38.026  42.930  13.882
78517CL-    CL-38053  39.449  22.602   0.773
78518CL-    CL-38054  15.781  42.894   9.949
78519CL-    CL-38055  41.839  35.478   1.347
78520CL-    CL-38056  25.064  27.117   0.466
78521CL-    CL-38057  27.110  41.536   0.366
78522CL-    CL-38058  41.348  24.481   3.839
78523CL-    CL-38059   5.206  37.917   4.755
78524CL-    CL-38060  27.166  20.731   0.740
78525CL-    CL-38061  22.223  33.096   2.267
78526CL-    CL-38062  15.650   6.728   2.261
78527CL-    CL-38063   0.889  21.219   4.666
78528CL-    CL-38064   4.360  44.774  10.638
78529CL-    CL-38065  13.821  30.001  13.997
78530CL-    CL-38066  23.491  14.619  14.834
78531CL-    CL-38067  21.576  21.533   4.158
78532CL-    CL-38068   7.894  42.800   3.306
78533CL-    CL-38069  30.572  29.953  13.042
78534CL-    CL-38070  19.776  20.579   2.869
78535CL-    CL-38071   1.419  36.566  13.868
78536CL-    CL-38072  37.926  42.005  14.364
78537CL-    CL-38073   8.797  12.733   1.353
78538CL-    CL-38074  21.681  43.858  14.338
78539CL-    CL-38075   2.466  44.375  11.965
78540CL-    CL-38076  37.039   8.292   0.953
78541CL-    CL-38077  12.840  38.059  13.546
78542CL-    CL-38078  10.764  15.753   3.785
78543CL-    CL-38079   4.352  31.924  14.872
78544CL-    CL-38080  15.747  44.468  14.382
78545CL-    CL-38081  42.024  34.025  13.050
78546CL-    CL-38082   1.472   1.351  13.987
78547CL-    CL-38083   1.731  11.350   3.166
78548CL-    CL-38084  31.408  42.942   2.314
78549CL-    CL-38085  28.951   3.886   1.281
78550CL-    CL-38086  43.995  21.127  10.625
78551CL-    CL-38087  15.624  39.843  12.943
78552CL-    CL-38088  34.037  20.035  12.986
78553CL-    CL-38089  35.892   1.303   2.693
78554CL-    CL-38090  32.932  31.578   4.293
78555CL-    CL-38091  20.120   7.269  14.906
78556CL-    CL-38092  34.950  19.067  13.052
78557CL-    CL-38093  14.626  38.932   0.287
78558CL-    CL-38094  41.979  19.262  10.498
78559CL-    CL-38095  38.474  29.466  10.917
78560CL-    CL-38096  38.569   7.361  11.540
78561CL-    CL-38097  12.344  27.632   9.655
78562CL-    CL-38098  35.958   2.966  13.518
78563CL-    CL-38099  29.058  16.575  14.424
78564CL-    CL-38100  16.633  44.828   1.368
78565CL-    CL-38101  16.721   7.395   4.795
78566CL-    CL-38102   1.846  43.489  11.933
78567CL-    CL-38103  38.495   5.689  11.559
78568CL-    CL-38104  25.093  26.538   2.899
78569CL-    CL-38105  27.672  37.485  12.036
78570CL-    CL-38106  19.659  36.381  12.445
78571CL-    CL-38107  15.674  33.511  13.837
78572CL-    CL-38108  37.839  25.574  13.800
78573CL-    CL-38109  32.904  15.267   1.311
78574CL-    CL-38110   0.441  36.353  10.620
78575CL-    CL-38111  19.670  31.543   4.310
78576CL-    CL-38112   3.736  24.045   1.829
78577CL-    CL-38113  37.062  14.149  11.929
78578CL-    CL-38114   6.359  13.717   2.729
78579CL-    CL-38115  17.276  15.292   4.315
78580CL-    CL-38116  37.046   9.152  12.058
78581CL-    CL-38117  21.139  10.649  13.537
78582CL-    CL-38118  18.726  44.356  12.520
78583CL-    CL-38119  15.685  24.995   4.642
78584CL-    CL-38120   8.390  12.280   0.764
78585CL-    CL-38121  36.955   1.286   3.735
78586CL-    CL-38122  19.684  22.046  13.399
78587CL-    CL-38123   3.377  11.340  11.052
78588CL-    CL-38124  43.782  13.720   1.714
78589CL-    CL-38125  39.856   1.437  11.987
78590CL-    CL-38126  32.455  10.844  12.935
78591CL-    CL-38127  26.061   1.246   0.453
78592CL-    CL-38128  17.654  11.759   1.309
78593CL-    CL-38129  12.677  24.682   2.670
78594CL-    CL-38130  41.471   6.332  10.990
78595CL-    CL-38131  32.074  29.632   3.715
78596CL-    CL-38132  15.264   8.264   5.268
78597CL-    CL-38133  12.314   6.874  14.380
78598CL-    CL-38134  15.731  44.292  12.834
78599CL-    CL-38135  10.273  21.018  14.837
78600CL-    CL-38136   4.819  22.038   4.195
78601CL-    CL-38137  22.183  29.151   2.200
78602CL-    CL-38138  13.125  16.743  11.863
78603CL-    CL-38139  15.636   5.770   2.311
78604CL-    CL-38140   4.328  24.229  10.568
78605CL-    CL-38141  33.958  12.256  11.063
78606CL-    CL-38142  10.217  37.873  12.579
78607CL-    CL-38143   7.681  25.005  12.877
78608CL-    CL-38144  19.706  30.911  12.957
78609CL-    CL-38145  39.836  22.143  14.515
78610CL-    CL-38146  28.087  28.110  13.405
78611CL-    CL-38147  27.156  23.639   4.229
78612CL-    CL-38148  14.269  25.116   3.375
78613CL-    CL-38149  22.179  41.917   0.287
78614CL-    CL-38150  41.426  25.970   1.256
78615CL-    CL-38151  17.157   1.762   4.211
78616CL-    CL-38152  15.309   5.337   1.795
78617CL-    CL-38153  42.384  33.052   1.257
78618CL-    CL-38154   5.905  19.050   0.793
78619CL-    CL-38155  44.424   7.875   3.383
78620CL-    CL-38156   0.839   4.806   4.801
78621CL-    CL-38157  38.387  12.758  11.922
78622CL-    CL-38158  10.811  13.228  13.033
78623CL-    CL-38159  17.261  18.624   1.911
78624CL-    CL-38160  14.264   9.700   0.253
78625CL-    CL-38161  32.503  20.159  12.056
78626CL-    CL-38162   0.369  36.050  11.603
78627CL-    CL-38163  10.746  41.040  10.498
78628CL-    CL-38164  37.021  23.560  14.391
78629CL-    CL-38165  38.568  35.551   1.701
78630CL-    CL-38166  41.494  28.531   0.924
78631CL-    CL-38167  41.481  16.226   4.113
78632CL-    CL-38168  31.083   0.441   4.716
78633CL-    CL-38169   2.886  23.612   3.733
78634CL-    CL-38170   5.857  25.115   1.892
78635CL-    CL-38171  29.104  13.151   3.239
78636CL-    CL-38172   6.710  41.791   0.335
78637CL-    CL-38173  36.373  28.011   3.310
78638CL-    CL-38174  39.325  21.157   0.281
78639CL-    CL-38175  29.546   5.372  12.860
78640CL-    CL-38176  14.658   8.182  10.529
78641CL-    CL-38177   7.340   8.198  14.292
78642CL-    CL-38178   1.440  28.463   1.378
78643CL-    CL-38179  19.251  12.151  13.967
78644CL-    CL-38180   7.346  10.692   0.321
78645CL-    CL-38181  20.124  13.329   0.729
78646CL-    CL-38182  36.099  38.984  14.456
78647CL-    CL-38183  12.329   6.298  11.613
78648CL-    CL-38184  43.433   4.813   3.687
78649CL-    CL-38185  27.165   7.778   4.794
78650CL-    CL-38186  14.602  35.901   0.309
78651CL-    CL-38187  14.744  35.495   2.383
78652CL-    CL-38188  12.665  29.594  11.506
78653CL-    CL-38189  18.774  43.360  14.908
78654CL-    CL-38190  30.109  43.465  12.477
78655CL-    CL-38191  21.522  10.201  12.969
78656CL-    CL-38192  16.657  32.636  12.006
78657CL-    CL-38193  20.585  16.209   0.455
78658CL-    CL-38194  37.345   6.912  14.315
78659CL-    CL-38195  33.416  25.681  11.874
78660CL-    CL-38196   7.338  41.799   1.710
78661CL-    CL-38197   6.399  15.595   3.702
78662CL-    CL-38198  33.617  32.918  11.915
78663CL-    CL-38199   9.242  20.686  12.482
78664CL-    CL-38200  10.767  44.920   2.185
78665CL-    CL-38201  43.286  11.240   0.734
78666CL-    CL-38202  38.493  33.898   3.295
78667CL-    CL-38203   8.292  12.712   3.386
78668CL-    CL-38204  15.128  40.540  10.971
78669CL-    CL-38205  13.696  34.457   2.795
78670CL-    CL-38206  38.870  24.021  10.452
78671CL-    CL-38207  34.516  40.019  12.580
78672CL-    CL-38208  26.478  22.541   1.440
78673CL-    CL-38209  40.459   4.288  10.430
78674CL-    CL-38210  35.893  24.986  14.934
78675CL-    CL-38211  34.591  34.453   2.326
78676CL-    CL-38212  13.314  35.517   0.821
78677CL-    CL-38213  12.171  26.972   2.265
78678CL-    CL-38214  40.424  23.186   4.232
78679CL-    CL-38215   2.305   3.954   0.966
78680CL-    CL-38216  29.967  35.922   1.223
78681CL-    CL-38217  22.033   6.405   2.413
78682CL-    CL-38218  29.563   4.347  10.603
78683CL-    CL-38219  29.461  34.949   5.249
78684CL-    CL-38220   9.259  29.146  13.488
78685CL-    CL-38221   7.218  18.694  14.354
78686CL-    CL-38222   3.822  25.557  12.463
78687CL-    CL-38223   6.866   9.274   3.288
78688CL-    CL-38224  40.921  40.004   2.404
78689CL-    CL-38225  24.091  14.663  12.887
78690CL-    CL-38226  25.512  43.875   3.677
78691CL-    CL-38227   2.858  43.469  14.963
78692CL-    CL-38228  26.007   4.390  11.612
78693CL-    CL-38229  37.078   2.469  11.037
78694CL-    CL-38230  29.432   1.784  10.453
78695CL-    CL-38231   3.757  19.117   3.760
78696CL-    CL-38232   9.321  28.159   3.676
78697CL-    CL-38233  39.933  41.859  11.065
78698CL-    CL-38234   8.242  29.469   1.362
78699CL-    CL-38235  13.223  10.370   0.942
78700CL-    CL-38236   6.236  40.865  14.872
78701CL-    CL-38237   8.304  33.399   1.831
78702CL-    CL-38238  26.046  12.660   1.378
78703CL-    CL-38239   0.340  12.820  12.079
78704CL-    CL-38240  35.511  18.732   3.240
78705CL-    CL-38241   3.345  27.614  13.850
78706CL-    CL-38242  12.263  24.665  14.997
78707CL-    CL-38243  24.698  13.771   3.330
78708CL-    CL-38244  31.142   1.244  11.051
78709CL-    CL-38245   5.726  42.306  11.019
78710CL-    CL-38246  26.552  33.602  14.818
78711CL-    CL-38247  30.004  41.407  13.307
78712CL-    CL-38248  30.053  29.470  10.161
78713CL-    CL-38249  25.163  24.177  13.485
78714CL-    CL-38250  39.338   5.305  11.039
78715CL-    CL-38251   4.794  15.244  14.853
78716CL-    CL-38252  43.329  18.101   4.199
78717CL-    CL-38253   5.777   4.899   4.167
78718CL-    CL-38254  37.035  25.064   0.364
78719CL-    CL-38255   2.940  19.143  13.932
78720CL-    CL-38256  24.125  33.595   0.465
78721CL-    CL-38257  12.796  17.080   3.708
78722CL-    CL-38258  21.254  29.050  11.918
78723CL-    CL-38259  35.517  20.707   1.216
78724CL-    CL-38260  44.935  24.034   3.270
78725CL-    CL-38261  28.976  39.842   4.182
78726CL-    CL-38262  23.599  44.367   2.263
78727CL-    CL-38263  42.489  22.555   0.930
78728CL-    CL-38264  20.649  37.532  13.041
78729CL-    CL-38265  31.096  43.766   4.200
78730CL-    CL-38266  42.022  34.015  13.478
78731CL-    CL-38267  43.899  30.657   4.650
78732CL-    CL-38268  23.009  32.413   1.742
78733CL-    CL-38269  39.028  29.563   0.800
78734CL-    CL-38270  21.527  24.135  14.889
78735CL-    CL-38271  18.193  29.463  14.434
78736CL-    CL-38272  20.747  44.952   2.273
78737CL-    CL-38273  14.659  25.669  10.467
78738CL-    CL-38274  42.984   1.784   4.764
78739CL-    CL-38275  43.773  20.523  14.922
78740CL-    CL-38276  40.995  33.503   4.197
78741CL-    CL-38277   4.814  21.059  13.452
78742CL-    CL-38278  25.205  18.586   0.925
78743CL-    CL-38279  28.646  20.700   0.826
78744CL-    CL-38280  31.970  10.775  11.390
78745CL-    CL-38281  41.420  14.318  14.340
78746CL-    CL-38282  31.049   4.848  11.119
78747CL-    CL-38283   1.332  29.575  11.041
78748CL-    CL-38284  13.806  17.150  13.527
78749CL-    CL-38285  19.250  36.078   4.215
78750CL-    CL-38286  21.040  17.245   3.172
78751CL-    CL-38287  18.559   3.730  12.540
78752CL-    CL-38288   0.755  39.402  14.760
78753CL-    CL-38289   9.723  36.492   1.873
78754CL-    CL-38290   8.336   0.937   0.313
78755CL-    CL-38291  32.601   6.830  11.585
78756CL-    CL-38292  14.186  12.742  11.561
78757CL-    CL-38293   3.894  25.176   5.732
78758CL-    CL-38294  22.594  36.974   2.777
78759CL-    CL-38295  15.705  20.765   4.693
78760CL-    CL-38296  24.686  43.396  11.585
78761CL-    CL-38297  35.440  32.963  11.044
78762CL-    CL-38298   2.260  15.197  13.797
78763CL-    CL-38299   5.347  39.952  12.051
78764CL-    CL-38300  44.375  40.405  12.538
78765CL-    CL-38301   3.423  16.710   2.202
78766CL-    CL-38302  19.565  17.234  10.440
78767CL-    CL-38303  10.740  21.096  14.772
78768CL-    CL-38304   3.229  36.064   2.797
78769CL-    CL-38305  14.761  40.311   3.177
78770CL-    CL-38306  43.397  26.088  11.412
78771CL-    CL-38307  19.571   3.438   1.911
78772CL-    CL-38308  40.950  29.644  10.526
78773CL-    CL-38309   2.824   4.436   0.277
78774CL-    CL-38310  22.624  35.107  12.071
78775CL-    CL-38311  39.426  23.059   4.731
78776CL-    CL-38312  22.569  11.229  12.853
78777CL-    CL-38313   9.326  39.997  10.926
78778CL-    CL-38314   6.181  35.972   3.287
78779CL-    CL-38315  12.330  17.251  10.998
78780CL-    CL-38316  16.812  27.481   2.697
78781CL-    CL-38317   1.388   5.219  14.873
78782CL-    CL-38318   9.664   8.297   0.242
78783CL-    CL-38319  24.588   7.259  14.003
78784CL-    CL-38320  33.127  24.581   1.363
78785CL-    CL-38321  11.663  40.462   0.276
78786CL-    CL-38322  44.800   7.845   2.873
78787CL-    CL-38323  15.774  33.598   0.757
78788CL-    CL-38324  19.177  18.676  13.325
78789CL-    CL-38325   0.833  23.562   0.458
78790CL-    CL-38326  34.943  40.845  11.598
78791CL-    CL-38327  25.087  16.786  11.562
78792CL-    CL-38328  36.400  30.526  10.138
78793CL-    CL-38329  16.237  17.232   4.620
78794CL-    CL-38330  32.076  19.711   0.273
78795CL-    CL-38331   0.912  36.504   2.869
78796CL-    CL-38332  23.726  11.649  14.934
78797CL-    CL-38333  17.770  42.019  12.919
78798CL-    CL-38334  43.773  33.056   4.713
78799CL-    CL-38335  35.873  21.149  13.415
78800CL-    CL-38336  10.148  22.121  13.452
78801CL-    CL-38337  44.481  39.990  11.392
78802CL-    CL-38338  29.471  31.028   4.771
78803CL-    CL-38339  17.193  29.648  14.385
78804CL-    CL-38340  12.153  23.174   4.307
78805CL-    CL-38341  27.059  20.213   2.738
78806CL-    CL-38342  32.453  44.468   0.775
78807CL-    CL-38343  17.162   9.156   0.398
78808CL-    CL-38344  14.785  12.291  11.885
78809CL-    CL-38345   1.385   1.414  10.444
78810CL-    CL-38346   8.849  41.522   3.670
78811CL-    CL-38347  31.616  25.661  14.015
78812CL-    CL-38348  21.151  33.528   1.218
78813CL-    CL-38349  21.593   2.331   1.401
78814CL-    CL-38350  32.984   9.853  12.982
78815CL-    CL-38351  19.775  22.171  12.039
78816CL-    CL-38352  29.084   3.264   2.386
78817CL-    CL-38353  38.873  29.599   1.338
78818CL-    CL-38354  33.038  26.143   3.756
78819CL-    CL-38355  31.603  22.135   9.532
78820CL-    CL-38356   0.356  10.256  11.046
78821CL-    CL-38357   6.351  11.785  14.942
78822CL-    CL-38358  24.129  29.093   2.700
78823CL-    CL-38359   6.708  41.018   1.274
78824CL-    CL-38360  36.571  23.631   0.317
78825CL-    CL-38361  27.510   7.187  14.999
78826CL-    CL-38362   2.792  23.104  14.365
78827CL-    CL-38363   2.435  40.370   1.909
78828CL-    CL-38364  24.624  28.599  12.485
78829CL-    CL-38365  40.539  40.390  11.569
78830CL-    CL-38366  21.125  17.773   2.192
78831CL-    CL-38367  38.948  37.519  13.006
78832CL-    CL-38368  38.499  31.549   0.345
78833CL-    CL-38369  35.949  24.057  13.337
78834CL-    CL-38370   8.392   8.238  12.839
78835CL-    CL-38371  36.952  17.112   1.838
78836CL-    CL-38372  16.577  37.388   1.928
78837CL-    CL-38373  20.671   7.912   1.748
78838CL-    CL-38374   2.751  32.447   4.201
78839CL-    CL-38375  22.055  34.056   0.291
78840CL-    CL-38376  11.782  28.603  13.918
78841CL-    CL-38377  24.222   1.915  14.381
78842CL-    CL-38378  10.648  40.867   2.797
78843CL-    CL-38379   7.668  17.144  13.405
78844CL-    CL-38380  25.552  24.675  12.011
78845CL-    CL-38381   3.228  28.098   2.739
78846CL-    CL-38382  16.262  21.672   3.699
78847CL-    CL-38383  39.383  21.186  11.039
78848CL-    CL-38384  12.659  35.953  10.915
78849CL-    CL-38385  39.537   6.373  11.405
78850CL-    CL-38386  19.042  34.409  10.436
78851CL-    CL-38387  25.099  28.091   2.241
78852CL-    CL-38388   1.915  43.409   3.731
78853CL-    CL-38389   0.459  16.656  14.969
78854CL-    CL-38390  10.372   5.806   1.436
78855CL-    CL-38391  21.730  17.252   2.178
78856CL-    CL-38392  40.441  37.965   4.138
78857CL-    CL-38393  16.201   6.373   3.333
78858CL-    CL-38394  22.502  13.311  12.450
78859CL-    CL-38395   2.319  21.639  13.499
78860CL-    CL-38396  43.908  27.027   3.305
78861CL-    CL-38397   2.287  37.407  13.521
78862CL-    CL-38398  34.879  41.407  12.846
78863CL-    CL-38399  30.552   8.282   3.221
78864CL-    CL-38400  26.015  18.790   2.201
78865CL-    CL-38401   9.256   8.250  14.765
78866CL-    CL-38402  13.745  43.967  13.943
78867CL-    CL-38403  16.808  26.187   3.771
78868CL-    CL-38404  31.941  30.553   1.338
78869CL-    CL-38405  39.809   0.362  13.938
78870CL-    CL-38406  41.935  20.556  11.110
78871CL-    CL-38407  32.469  38.563   3.387
78872CL-    CL-38408   3.834  40.923   0.370
78873CL-    CL-38409   7.903  41.796  12.022
78874CL-    CL-38410  13.251  28.582  12.001
78875CL-    CL-38411  15.761  14.649  12.911
78876CL-    CL-38412  12.843  27.529   5.106
78877CL-    CL-38413  25.528  40.544  11.547
78878CL-    CL-38414   6.194   0.314  11.405
78879CL-    CL-38415  29.426  22.231  12.468
78880CL-    CL-38416  44.481  20.590   1.753
78881CL-    CL-38417   7.788  40.841  10.431
78882CL-    CL-38418  13.753  25.537  13.455
78883CL-    CL-38419   1.429  41.859  13.021
78884CL-    CL-38420  26.114  31.144  13.497
78885CL-    CL-38421  18.235  27.586  13.859
78886CL-    CL-38422  26.060   0.961   0.959
78887CL-    CL-38423  31.077  11.655   4.654
78888CL-    CL-38424  24.012  22.116   3.794
78889CL-    CL-38425  34.905  34.971  12.842
78890CL-    CL-38426  11.299   5.932  11.527
78891CL-    CL-38427  23.021   4.841  10.468
78892CL-    CL-38428   9.681  37.466   1.258
78893CL-    CL-38429  22.095  37.493  12.565
78894CL-    CL-38430  14.237   0.355  14.453
78895CL-    CL-38431  31.027  23.138  12.050
78896CL-    CL-38432   5.742  36.555   4.115
78897CL-    CL-38433   9.178  28.045  10.592
78898CL-    CL-38434  21.260   1.894  12.988
78899CL-    CL-38435  25.596  12.686  14.788
78900CL-    CL-38436   5.244   3.791  13.911
78901CL-    CL-38437   5.352   3.317  13.925
78902CL-    CL-38438  32.622  24.109   3.169
78903CL-    CL-38439  25.619   2.769   3.358
78904CL-    CL-38440  15.657   3.322   5.307
78905CL-    CL-38441  34.101  23.576   3.766
78906CL-    CL-38442  29.966  28.997  10.910
78907CL-    CL-38443  20.650  14.596  11.866
78908CL-    CL-38444   5.731   1.474  11.561
78909CL-    CL-38445  38.961  18.191   0.853
78910CL-    CL-38446  13.121  19.124   4.738
78911CL-    CL-38447   0.988  22.745   1.928
78912CL-    CL-38448  44.330  33.490   1.814
78913CL-    CL-38449  31.049  33.584  13.808
78914CL-    CL-38450  29.644  37.410   0.260
78915CL-    CL-38451  11.367  19.689  13.527
78916CL-    CL-38452   8.222   5.387   2.337
78917CL-    CL-38453  36.459  39.942  12.934
78918CL-    CL-38454  12.680   4.788   1.419
78919CL-    CL-38455  12.714   3.753  14.949
78920CL-    CL-38456   1.815   0.406   4.620
78921CL-    CL-38457   6.830  26.167  13.038
78922CL-    CL-38458  39.362  17.176  11.052
78923CL-    CL-38459  23.634  15.821  11.075
78924CL-    CL-38460  16.740   1.257  12.517
78925CL-    CL-38461  26.594  21.714  12.960
78926CL-    CL-38462  25.012  22.623   4.782
78927CL-    CL-38463  42.031  30.431  13.371
78928CL-    CL-38464  22.177  33.922  13.990
78929CL-    CL-38465  11.346   2.283  14.819
78930CL-    CL-38466  41.005  18.631   4.835
78931CL-    CL-38467  15.216  21.624  13.798
78932CL-    CL-38468   5.339   4.883   1.345
78933CL-    CL-38469  29.084  27.692  12.061
78934CL-    CL-38470   6.875  11.677   1.316
78935CL-    CL-38471  23.718  14.170   4.629
78936CL-    CL-38472  13.775  32.477  14.921
78937CL-    CL-38473  35.448  40.444  14.896
78938CL-    CL-38474   5.312  15.248  11.949
78939CL-    CL-38475   8.832   8.355  12.872
78940CL-    CL-38476  28.182   4.340  14.872
78941CL-    CL-38477  15.779  43.334  14.467
78942CL-    CL-38478  35.543  17.638  11.414
78943CL-    CL-38479  31.592  40.331  13.049
78944CL-    CL-38480  40.902  21.260  12.576
78945CL-    CL-38481  31.565  10.277   2.367
78946CL-    CL-38482  37.504  41.380  10.914
78947CL-    CL-38483   3.338  24.127   4.270
78948CL-    CL-38484  13.276  18.190   4.823
78949CL-    CL-38485  15.110   6.895  12.008
78950CL-    CL-38486  35.853   5.703  12.457
78951CL-    CL-38487  30.576  24.713  13.433
78952CL-    CL-38488  36.471  28.471  12.572
78953CL-    CL-38489   9.684  42.348  14.871
78954CL-    CL-38490  24.189  26.560  13.017
78955CL-    CL-38491  17.065   3.899   3.280
78956CL-    CL-38492  40.976  34.978  14.957
78957CL-    CL-38493  12.730  44.927  12.384
78958CL-    CL-38494  23.509  36.064   4.144
78959CL-    CL-38495   7.202  24.639  10.891
78960CL-    CL-38496  37.992   6.721  10.454
78961CL-    CL-38497   0.492  22.199  13.008
78962CL-    CL-38498  20.539  21.680   1.301
78963CL-    CL-38499  15.257  19.056   1.762
78964CL-    CL-38500  10.170  31.620   5.166
78965CL-    CL-38501  11.696  31.589   0.332
78966CL-    CL-38502   2.836  11.786  11.949
78967CL-    CL-38503  28.150  43.989   1.450
78968CL-    CL-38504  20.201  37.032   0.933
78969CL-    CL-38505   3.289  32.908   1.837
78970CL-    CL-38506  13.659  42.908   1.715
78971CL-    CL-38507   0.491  15.145   5.172
78972CL-    CL-38508   9.767  34.519  14.007
78973CL-    CL-38509  42.929  27.975   5.197
78974CL-    CL-38510   8.197  32.134  12.051
78975CL-    CL-38511  17.589   9.868  14.902
78976CL-    CL-38512  15.820  16.222   4.740
78977CL-    CL-38513  25.991  11.224  12.955
78978CL-    CL-38514  38.929  20.597  14.294
78979CL-    CL-38515  19.708  32.586  12.849
78980CL-    CL-38516  24.091   1.922  10.443
78981CL-    CL-38517  44.359  30.562   3.156
78982CL-    CL-38518  14.314  44.328  10.527
78983CL-    CL-38519  13.612  25.550   2.718
78984CL-    CL-38520  20.706   7.817   4.138
78985CL-    CL-38521  41.882  35.550   2.209
78986CL-    CL-38522  36.843   0.397   3.698
78987CL-    CL-38523  34.013  32.106  11.502
78988CL-    CL-38524  43.381  20.617   1.249
78989CL-    CL-38525   3.866  31.628   0.249
78990CL-    CL-38526  32.898  43.004  14.031
78991CL-    CL-38527  19.719  39.374  14.457
78992CL-    CL-38528  36.028   2.847   2.397
78993CL-    CL-38529  37.354  20.092  14.470
78994CL-    CL-38530  19.283  44.916  11.940
78995CL-    CL-38531   6.701  38.358  11.521
78996CL-    CL-38532  16.582   1.907   0.478
78997CL-    CL-38533   4.863   3.232   1.760
78998CL-    CL-38534  23.005   9.831  11.483
78999CL-    CL-38535  32.962  43.376   1.766
79000CL-    CL-38536  41.950  22.553   4.341
79001CL-    CL-38537  12.200  22.621  12.954
79002CL-    CL-38538  13.165  19.560  14.000
79003CL-    CL-38539  21.648  12.183  13.983
79004CL-    CL-38540  39.460  27.003   4.727
79005CL-    CL-38541  40.820  37.053  12.061
79006CL-    CL-38542  14.800  38.922  14.003
79007CL-    CL-38543  43.281  22.661  13.999
79008CL-    CL-38544  32.401  16.311   0.964
79009CL-    CL-38545  41.397  28.184   4.598
79010CL-    CL-38546  43.994   7.781  12.955
79011CL-    CL-38547  35.585  35.570  11.398
79012CL-    CL-38548  32.100  43.972   1.903
79013CL-    CL-38549  16.085  26.545  10.496
79014CL-    CL-38550  32.090  29.032  10.891
79015CL-    CL-38551  18.143  33.579   3.164
79016CL-    CL-38552  36.489  20.228  11.115
79017CL-    CL-38553   0.248  24.168  12.042
79018CL-    CL-38554  23.106   2.417   1.932
79019CL-    CL-38555  23.692  25.636   4.664
79020CL-    CL-38556  41.019  33.444  12.978
79021CL-    CL-38557  40.911  40.902   1.221
79022CL-    CL-38558   7.196  18.171   3.230
79023CL-    CL-38559  42.986  41.412   9.997
79024CL-    CL-38560  39.398  43.334  13.047
79025CL-    CL-38561  13.780  15.287  13.845
79026CL-    CL-38562  38.377  17.780  12.046
79027CL-    CL-38563  36.016  42.805   3.857
79028CL-    CL-38564  36.550  37.023  11.498
79029CL-    CL-38565  17.799  37.027   1.250
79030CL-    CL-38566   4.363  17.764   2.793
79031CL-    CL-38567  36.350  20.175   1.911
79032CL-    CL-38568   3.871  23.074   1.854
79033CL-    CL-38569  39.320   8.355   4.330
79034CL-    CL-38570  28.614  42.396  11.946
79035CL-    CL-38571  28.502  31.637  11.429
79036CL-    CL-38572  20.172  33.040  11.020
79037CL-    CL-38573  26.641  11.203   4.729
79038CL-    CL-38574  44.925  33.604   3.334
79039CL-    CL-38575  29.055  43.825  11.118
79040CL-    CL-38576  16.797  33.550   4.341
79041CL-    CL-38577   8.732  25.469  10.595
79042CL-    CL-38578  19.578  30.447   0.457
79043CL-    CL-38579  27.629  16.104   1.393
79044CL-    CL-38580  42.425   8.250   1.703
79045CL-    CL-38581  33.070  26.049   2.733
79046CL-    CL-38582  14.338  21.089   2.866
79047CL-    CL-38583  20.156  28.046   4.144
79048CL-    CL-38584  37.968   7.267   1.909
79049CL-    CL-38585   2.256  22.118   4.614
79050CL-    CL-38586  11.171  18.737  13.423
79051CL-    CL-38587  37.546  26.149   4.653
79052CL-    CL-38588   1.469  19.154  11.015
79053CL-    CL-38589  29.497  19.777   3.168
79054CL-    CL-38590  31.421   8.676   0.404
79055CL-    CL-38591  30.112  22.503   4.189
79056CL-    CL-38592  20.608  37.871   0.732
79057CL-    CL-38593  26.580  36.480   1.393
79058CL-    CL-38594  39.015  32.922   2.690
79059CL-    CL-38595  26.553  21.102  12.831
79060CL-    CL-38596  22.548  16.083  14.939
79061CL-    CL-38597  41.488   3.880  12.958
79062CL-    CL-38598  19.081   2.740   1.310
79063CL-    CL-38599  11.296  34.392  14.926
79064CL-    CL-38600  18.742  43.502   0.903
79065CL-    CL-38601  34.990  29.463   1.804
79066CL-    CL-38602  36.057   9.703  11.940
79067CL-    CL-38603  15.777   6.201  13.362
79068CL-    CL-38604   0.366  33.983  10.523
79069CL-    CL-38605  40.008  10.353  11.892
79070CL-    CL-38606  21.222  26.525   2.715
79071CL-    CL-38607   6.375  39.458   3.848
79072CL-    CL-38608  41.318  36.488   3.778
79073CL-    CL-38609  21.707  12.780   3.366
79074CL-    CL-38610  44.431   1.476  13.873
79075CL-    CL-38611  28.661   8.196   1.355
79076CL-    CL-38612  18.623  21.593   2.346
79077CL-    CL-38613  28.166   1.815   1.250
79078CL-    CL-38614  43.803   1.947  12.987
79079CL-    CL-38615   9.150  34.006  11.912
79080CL-    CL-38616  21.167   1.913  12.516
79081CL-    CL-38617  21.570  34.965   4.662
79082CL-    CL-38618  31.407  29.520   4.177
79083CL-    CL-38619   5.762  17.125   0.808
79084CL-    CL-38620  29.918   5.373  10.958
79085CL-    CL-38621  14.253   4.329  12.525
79086CL-    CL-38622   0.302   5.863   3.203
79087CL-    CL-38623  24.197  35.484   2.698
79088CL-    CL-38624  38.394  34.491   1.334
79089CL-    CL-38625  18.124   3.410   4.599
79090CL-    CL-38626  31.586  38.355  10.927
79091CL-    CL-38627   9.324  36.987  11.972
79092CL-    CL-38628  31.621  37.913   1.227
79093CL-    CL-38629  37.983  27.585  11.458
79094CL-    CL-38630  42.825  42.400  14.967
79095CL-    CL-38631  21.579   4.893   1.851
79096CL-    CL-38632  23.701  32.524   0.438
79097CL-    CL-38633   2.954  40.844   1.417
79098CL-    CL-38634  44.264  24.621   3.785
79099CL-    CL-38635  14.613  40.531  13.920
79100CL-    CL-38636  37.470   8.383  11.548
79101CL-    CL-38637  41.904   8.656   5.249
79102CL-    CL-38638  14.736   2.419  14.801
79103CL-    CL-38639  25.201  18.764  11.896
79104CL-    CL-38640  33.055  15.597   2.366
79105CL-    CL-38641  12.139  21.623  14.348
79106CL-    CL-38642  35.938  17.706   1.726
79107CL-    CL-38643  18.063  11.850   0.838
79108CL-    CL-38644   2.455  24.632  14.322
79109CL-    CL-38645  24.708  37.057  12.939
79110CL-    CL-38646  11.804  40.015  13.353
79111CL-    CL-38647   2.763   6.756   3.175
79112CL-    CL-38648  36.364  12.212   0.444
79113CL-    CL-38649  23.067  35.963   1.249
79114CL-    CL-38650  25.506  35.933   1.373
79115CL-    CL-38651  29.955   2.732  11.379
79116CL-    CL-38652  25.713  21.655  11.998
79117CL-    CL-38653  17.691  35.012   1.386
79118CL-    CL-38654  39.538  17.776   4.255
79119CL-    CL-38655  23.713   2.900  13.342
79120CL-    CL-38656  19.278  43.401   3.664
79121CL-    CL-38657  38.386   0.754   2.286
79122CL-    CL-38658  15.127  21.037  10.638
79123CL-    CL-38659  23.556  41.886   0.336
79124CL-    CL-38660  33.927  29.584  13.058
79125CL-    CL-38661  31.513  35.592   2.317
79126CL-    CL-38662  30.424  13.120  12.558
79127CL-    CL-38663   1.302   3.749   0.754
79128CL-    CL-38664  18.207  32.059   0.817
79129CL-    CL-38665  35.396  36.898   1.400
79130CL-    CL-38666  34.500  33.559   0.247
79131CL-    CL-38667  41.508   6.731   4.790
79132CL-    CL-38668  36.581  37.969  10.957
79133CL-    CL-38669  17.304  28.043   5.123
79134CL-    CL-38670  17.744   8.359   2.199
79135CL-    CL-38671   2.869  41.946   4.688
79136CL-    CL-38672  37.515  27.024  10.581
79137CL-    CL-38673  23.132  42.883  10.972
79138CL-    CL-38674   9.174  17.674   1.850
79139CL-    CL-38675  14.682  14.657  14.463
79140CL-    CL-38676  44.384  27.669  11.094
79141CL-    CL-38677   9.269  30.629   4.750
79142CL-    CL-38678   1.900  34.085  12.967
79143CL-    CL-38679  36.500  35.539   4.794
79144CL-    CL-38680  31.613  28.591   2.786
79145CL-    CL-38681  41.372   5.789   2.205
79146CL-    CL-38682  39.006  16.253   4.343
79147CL-    CL-38683  11.759  16.659   1.213
79148CL-    CL-38684  43.322  35.446   0.891
79149CL-    CL-38685  32.440   8.679   1.741
79150CL-    CL-38686   4.325  40.987  13.799
79151CL-    CL-38687   5.264  34.997  13.346
79152CL-    CL-38688  26.968  32.604   2.901
79153CL-    CL-38689  43.948  28.069  13.861
79154CL-    CL-38690  15.182   4.305   3.180
79155CL-    CL-38691   4.390  14.739  11.114
79156CL-    CL-38692   4.854  12.749   3.210
79157CL-    CL-38693  35.424  16.129   0.916
79158CL-    CL-38694  18.100   2.232  14.422
79159CL-    CL-38695  19.218  24.563  12.087
79160CL-    CL-38696  20.116  13.163   0.397
79161CL-    CL-38697  17.780  21.218   3.667
79162CL-    CL-38698  14.750  28.176   1.225
79163CL-    CL-38699  42.786   6.879   0.728
79164CL-    CL-38700  33.033  14.274   2.895
79165CL-    CL-38701  37.463  26.490  14.432
79166CL-    CL-38702  11.371  19.255   4.351
79167CL-    CL-38703  12.727   0.457  13.488
79168CL-    CL-38704  39.958   5.750   4.329
79169CL-    CL-38705   8.729   3.755   0.365
79170CL-    CL-38706  40.034  11.203  10.460
79171CL-    CL-38707  11.167  28.532  12.003
79172CL-    CL-38708   3.872  43.010  11.060
79173CL-    CL-38709  21.077  16.720  12.480
79174CL-    CL-38710  39.449  36.529  10.914
79175CL-    CL-38711  10.337  14.327  12.580
79176CL-    CL-38712  36.503  33.588   3.314
79177CL-    CL-38713  33.080  40.971   3.373
79178CL-    CL-38714   1.945  23.532   2.699
79179CL-    CL-38715  40.844   8.184  11.446
79180CL-    CL-38716  41.017  35.934  12.088
79181CL-    CL-38717  22.091  21.099  13.383
79182CL-    CL-38718   2.835  22.070   2.882
79183CL-    CL-38719  25.998  35.990  11.904
79184CL-    CL-38720  32.965  20.049  10.478
79185CL-    CL-38721  29.967  39.452  14.491
79186CL-    CL-38722   3.217  29.940   3.748
79187CL-    CL-38723  24.057   5.332   1.811
79188CL-    CL-38724  35.062  15.658   3.697
79189CL-    CL-38725  12.807  11.766   4.149
79190CL-    CL-38726  42.838  34.988  12.471
79191CL-    CL-38727  39.938  44.397  13.793
79192CL-    CL-38728  30.652  42.405  11.594
79193CL-    CL-38729   6.747  11.711   4.756
79194CL-    CL-38730  10.148  35.461   0.820
79195CL-    CL-38731   5.241  33.521  14.982
79196CL-    CL-38732   4.770  40.966   0.411
79197CL-    CL-38733   3.948   5.213   1.849
79198CL-    CL-38734  43.886  32.434   1.920
79199CL-    CL-38735  33.544  20.127   0.886
79200CL-    CL-38736  37.886  17.658   3.762
79201CL-    CL-38737   5.862   8.849   2.328
79202CL-    CL-38738  16.631  18.149   4.690
79203CL-    CL-38739   4.844  14.284   1.354
79204CL-    CL-38740  18.618   5.204   3.158
79205CL-    CL-38741  42.291   7.686   4.737
79206CL-    CL-38742   3.304  30.626  11.964
79207CL-    CL-38743  32.103  38.410   5.254
79208CL-    CL-38744  44.479  35.922   3.630
79209CL-    CL-38745  21.129  12.218  14.302
79210CL-    CL-38746  27.109  44.399  14.828
79211CL-    CL-38747  15.817  15.684   2.339
79212CL-    CL-38748  13.683  27.046   2.889
79213CL-    CL-38749   4.301  29.145  11.388
79214CL-    CL-38750  12.338   6.796  14.928
79215CL-    CL-38751  31.558   3.941   3.800
79216CL-    CL-38752  43.388   5.886  11.909
79217CL-    CL-38753   6.298  33.549  10.033
79218CL-    CL-38754  34.525   6.262  12.572
79219CL-    CL-38755   5.319  44.840  13.973
79220CL-    CL-38756  21.601   7.174   0.877
79221CL-    CL-38757   0.475  15.735  14.999
79222CL-    CL-38758   5.205   8.401   4.745
79223CL-    CL-38759  33.550  17.575   4.338
79224CL-    CL-38760  39.509   5.226  10.458
79225CL-    CL-38761  34.065  42.017   0.250
79226CL-    CL-38762  18.581   3.263   3.153
79227CL-    CL-38763  32.464  28.000  13.451
79228CL-    CL-38764   4.351  37.379  10.500
79229CL-    CL-38765  26.529  29.094   2.855
79230CL-    CL-38766  37.409  16.088  11.419
79231CL-    CL-38767   9.777  36.575   0.380
79232CL-    CL-38768  40.819  23.636   0.918
79233CL-    CL-38769  18.723  22.658  10.570
79234CL-    CL-38770  17.121  28.002  12.984
79235CL-    CL-38771  41.423  38.383   4.747
79236CL-    CL-38772  24.169  29.553   0.957
79237CL-    CL-38773  28.166  12.734  13.941
79238CL-    CL-38774  30.908  17.595  13.013
79239CL-    CL-38775  38.977  25.167  13.791
79240CL-    CL-38776  38.403  14.149   0.851
79241CL-    CL-38777  44.390  41.829   2.792
79242CL-    CL-38778  32.953  33.010   1.815
79243CL-    CL-38779  12.834  41.401  11.578
79244CL-    CL-38780   5.770  44.867  12.405
79245CL-    CL-38781  18.698  28.125   0.940
79246CL-    CL-38782   8.402  11.229  11.904
79247CL-    CL-38783   7.911  19.727  11.034
79248CL-    CL-38784  31.974  26.581   1.750
79249CL-    CL-38785  44.763  43.803   0.917
79250CL-    CL-38786   6.847  36.426  12.576
79251CL-    CL-38787  19.201  37.454  14.758
79252CL-    CL-38788  27.627   8.296   1.242
79253CL-    CL-38789  38.440   3.751  13.058
79254CL-    CL-38790  40.354  42.966   4.163
79255CL-    CL-38791   7.678   7.351   5.153
79256CL-    CL-38792  20.527   4.228  12.452
79257CL-    CL-38793  24.698  32.583  14.499
79258CL-    CL-38794  19.545   1.344   3.647
79259CL-    CL-38795  19.703  25.623  12.505
79260CL-    CL-38796  27.949   7.853  14.923
79261CL-    CL-38797  27.676   0.901   0.379
79262CL-    CL-38798  36.018  43.355   3.295
79263CL-    CL-38799  37.058   7.196  12.936
79264CL-    CL-38800  17.178  37.524   0.476
79265CL-    CL-38801  35.577  17.712  10.940
79266CL-    CL-38802  11.160  43.418  13.446
79267CL-    CL-38803   3.451  28.016   3.293
79268CL-    CL-38804   1.287  20.060  12.522
79269CL-    CL-38805  24.206  41.462   3.245
79270CL-    CL-38806  25.501   4.858   3.199
79271CL-    CL-38807  26.185  42.852   1.353
79272CL-    CL-38808  41.520  26.179   3.837
79273CL-    CL-38809  44.492   7.903  10.429
79274CL-    CL-38810  36.363   5.803  11.575
79275CL-    CL-38811   8.242  35.071   3.190
79276CL-    CL-38812  19.213  31.568   3.251
79277CL-    CL-38813  19.761  21.547   0.895
79278CL-    CL-38814   1.262  10.826  14.409
79279CL-    CL-38815   4.713  24.637  12.097
79280CL-    CL-38816   3.320  12.362  11.933
79281CL-    CL-38817  37.412  23.633  12.876
79282CL-    CL-38818  39.829  14.134   4.628
79283CL-    CL-38819  35.406  10.733   4.613
79284CL-    CL-38820  15.599  13.615   1.357
79285CL-    CL-38821  16.789  22.729  13.387
79286CL-    CL-38822  10.688  24.605  13.907
79287CL-    CL-38823  25.675   1.847  12.416
79288CL-    CL-38824  15.754  20.657  12.418
79289CL-    CL-38825  17.085  12.175  13.454
79290CL-    CL-38826  24.114  35.005   5.253
79291CL-    CL-38827   5.759  31.549  11.552
79292CL-    CL-38828   6.280  17.612   4.791
79293CL-    CL-38829  34.477  31.002   3.865
79294CL-    CL-38830   8.285  36.080   1.301
79295CL-    CL-38831   9.869  32.924  14.804
79296CL-    CL-38832  32.926  37.019   1.909
79297CL-    CL-38833  16.237   6.839  14.316
79298CL-    CL-38834   3.896  12.307  13.490
79299CL-    CL-38835  35.100  38.936   1.358
79300CL-    CL-38836  37.506  35.959  12.915
79301CL-    CL-38837   9.186  12.136  12.440
79302CL-    CL-38838  10.277  38.947   3.360
79303CL-    CL-38839   7.232  21.674   2.723
79304CL-    CL-38840  37.552  16.723  13.020
79305CL-    CL-38841  44.761  35.930  11.491
79306CL-    CL-38842  29.059  27.135  13.868
79307CL-    CL-38843  23.694  11.715   0.862
79308CL-    CL-38844  35.498  24.628  12.386
79309CL-    CL-38845  37.941  16.139   0.436
79310CL-    CL-38846  29.608  20.080   0.933
79311CL-    CL-38847  11.825  23.029   2.321
79312CL-    CL-38848  12.319   3.895  11.085
79313CL-    CL-38849  23.691  20.063   1.270
79314CL-    CL-38850  23.212   3.742  14.777
79315CL-    CL-38851  20.528   9.358  12.862
79316CL-    CL-38852  11.667  19.632   3.328
79317CL-    CL-38853   3.771  10.306   0.915
79318CL-    CL-38854   9.808  37.976   0.942
79319CL-    CL-38855  20.569   4.317  12.947
79320CL-    CL-38856  11.762  15.633  11.580
79321CL-    CL-38857  12.145  37.371   0.483
79322CL-    CL-38858  19.661   3.878   3.356
79323CL-    CL-38859   8.898  14.307   3.669
79324CL-    CL-38860   4.241  26.160  13.358
79325CL-    CL-38861  14.289  10.291   5.253
79326CL-    CL-38862  33.002  40.424  12.531
79327CL-    CL-38863  28.178   2.785  12.346
79328CL-    CL-38864  28.676  19.595  13.362
79329CL-    CL-38865  14.317  21.658   1.715
79330CL-    CL-38866  27.664  15.735   4.695
79331CL-    CL-38867  10.661  23.210  10.609
79332CL-    CL-38868  16.699   2.758   2.327
79333CL-    CL-38869   6.908  22.057  11.447
79334CL-    CL-38870  26.691  32.509  10.972
79335CL-    CL-38871   1.928   8.793  14.449
79336CL-    CL-38872  36.942  16.785   4.191
79337CL-    CL-38873   0.376   0.870   3.277
79338CL-    CL-38874  41.006  25.183   3.652
79339CL-    CL-38875  42.929  30.430   2.314
79340CL-    CL-38876  13.653  29.054  11.867
79341CL-    CL-38877  41.297  10.862   0.421
79342CL-    CL-38878  38.463  33.395   1.451
79343CL-    CL-38879  23.048  11.245   1.725
79344CL-    CL-38880  17.110  32.634   0.828
79345CL-    CL-38881  24.220  22.162   4.762
79346CL-    CL-38882  36.469  19.533  14.491
79347CL-    CL-38883   8.375  16.187   3.284
79348CL-    CL-38884  24.572   3.258  11.484
79349CL-    CL-38885  43.462  22.116  10.893
79350CL-    CL-38886  37.442   7.872  12.494
79351CL-    CL-38887  39.898   3.398   0.396
79352CL-    CL-38888  17.752  36.911  10.462
79353CL-    CL-38889  38.374  35.593   4.661
79354CL-    CL-38890  41.503  39.497   0.327
79355CL-    CL-38891  31.639  18.295   2.411
79356CL-    CL-38892  34.076  39.378  12.840
79357CL-    CL-38893  28.590  34.461  11.488
79358CL-    CL-38894  43.983  25.504   5.622
79359CL-    CL-38895  41.531  28.627  12.987
79360CL-    CL-38896  35.865  25.675   1.882
79361CL-    CL-38897  25.598   2.748   4.654
79362CL-    CL-38898  36.348  27.623  12.847
79363CL-    CL-38899  40.915   8.709  11.922
79364CL-    CL-38900  18.597   0.484  13.002
79365CL-    CL-38901  33.590  15.671  11.407
79366CL-    CL-38902   2.880   3.271   2.313
79367CL-    CL-38903  21.701  15.166  12.441
79368CL-    CL-38904  44.788  42.508   1.263
79369CL-    CL-38905  39.444  43.833  14.497
79370CL-    CL-38906  20.721   7.364   4.243
79371CL-    CL-38907  25.975  20.602   2.183
79372CL-    CL-38908  17.751  38.055  12.491
79373CL-    CL-38909  37.965  28.629   2.788
79374CL-    CL-38910   6.899  14.276   1.840
79375CL-    CL-38911   1.242   1.778  11.873
79376CL-    CL-38912  15.287  29.464  14.420
79377CL-    CL-38913  21.153  15.223  14.393
79378CL-    CL-38914   7.827  29.994   1.928
79379CL-    CL-38915  44.350   9.767   1.826
79380CL-    CL-38916   4.347  20.652   3.758
79381CL-    CL-38917  27.092   8.808  12.040
79382CL-    CL-38918  12.127  17.718  12.834
79383CL-    CL-38919   8.388   2.360   4.255
79384CL-    CL-38920  38.516  12.778   3.355
79385CL-    CL-38921  43.929   3.253   0.942
79386CL-    CL-38922   6.720  15.141   4.346
79387CL-    CL-38923  43.271  38.863   1.212
79388CL-    CL-38924  21.208  34.910  12.955
79389CL-    CL-38925  20.259  32.434   2.793
79390CL-    CL-38926   8.681  33.462   0.869
79391CL-    CL-38927  24.700  19.623   4.140
79392CL-    CL-38928  12.792  10.646  12.073
79393CL-    CL-38929  34.935   4.720  14.976
79394CL-    CL-38930   0.383   7.823  11.946
79395CL-    CL-38931   7.298   8.283   3.676
79396CL-    CL-38932  30.600   7.765   1.771
79397CL-    CL-38933  16.122  24.631   1.291
79398CL-    CL-38934  37.838   5.438   3.669
79399CL-    CL-38935  25.626  33.881   4.617
79400CL-    CL-38936   7.676  22.067   3.294
79401CL-    CL-38937   4.317  26.647   0.914
79402CL-    CL-38938  12.816   0.947  10.474
79403CL-    CL-38939   1.926  14.226   0.466
79404CL-    CL-38940  44.912  18.222   1.277
79405CL-    CL-38941  42.982   3.375   5.110
79406CL-    CL-38942  23.542  31.427   2.196
79407CL-    CL-38943  34.587  26.613  12.389
79408CL-    CL-38944  18.153  30.598   3.692
79409CL-    CL-38945  17.202  39.981   5.086
79410CL-    CL-38946  15.701  12.147  14.486
79411CL-    CL-38947  32.125  18.570  14.833
79412CL-    CL-38948   6.730  23.631   0.872
79413CL-    CL-38949  20.132  26.523  14.467
79414CL-    CL-38950  41.333  33.977   3.631
79415CL-    CL-38951  27.952   8.337  11.569
79416CL-    CL-38952  11.361  28.537  10.891
79417CL-    CL-38953   6.262   1.349   3.792
79418CL-    CL-38954  16.122   2.743  12.502
79419CL-    CL-38955  16.644  10.302  11.105
79420CL-    CL-38956  13.275   4.819  12.447
79421CL-    CL-38957  26.148  42.357  11.914
79422CL-    CL-38958  14.683  36.474  13.949
79423CL-    CL-38959  41.387   9.851  13.338
79424CL-    CL-38960   0.396  33.911  11.375
79425CL-    CL-38961  36.931  29.030   1.318
79426CL-    CL-38962  26.066  35.578  14.978
79427CL-    CL-38963  36.470  43.476  13.804
79428CL-    CL-38964   5.236  12.731   2.794
79429CL-    CL-38965  34.015  14.285   0.310
79430CL-    CL-38966  13.190  10.263  13.044
79431CL-    CL-38967   2.469  14.219  13.958
79432CL-    CL-38968   6.299  34.567   4.606
79433CL-    CL-38969  18.647   0.918   4.685
79434CL-    CL-38970  33.041   4.399  12.350
79435CL-    CL-38971   1.431  42.862   2.795
79436CL-    CL-38972  25.681   3.362   1.430
79437CL-    CL-38973   2.793  10.221  13.510
79438CL-    CL-38974  35.977  34.111  14.932
79439CL-    CL-38975   9.765  16.126  12.917
79440CL-    CL-38976  15.786  40.033   1.369
79441CL-    CL-38977   9.236   3.884   2.846
79442CL-    CL-38978  30.967   2.319   4.776
79443CL-    CL-38979  35.556   4.883  10.983
79444CL-    CL-38980  28.020  23.581  13.518
79445CL-    CL-38981  15.153  27.527   3.315
79446CL-    CL-38982  39.917   2.269  14.383
79447CL-    CL-38983   4.319  31.006   2.701
79448CL-    CL-38984   6.259   2.790  14.832
79449CL-    CL-38985  17.786  37.543   2.683
79450CL-    CL-38986  22.095  13.813  13.847
79451CL-    CL-38987  27.183  33.995  11.879
79452CL-    CL-38988   6.713  32.635   2.789
79453CL-    CL-38989  23.697  19.228   5.132
79454CL-    CL-38990   8.869   1.313   0.872
79455CL-    CL-38991  27.157  26.459   2.345
79456CL-    CL-38992  36.893  22.667  13.819
79457CL-    CL-38993  23.539  21.593   1.350
79458CL-    CL-38994   0.884   1.462  12.090
79459CL-    CL-38995  34.400  12.689  13.028
79460CL-    CL-38996  38.844  42.827  13.968
79461CL-    CL-38997  34.603  18.050   3.326
79462CL-    CL-38998  23.586  42.927   1.844
79463CL-    CL-38999   7.391  38.570   0.367
79464CL-    CL-39000   1.758  12.164  11.481
79465CL-    CL-39001  24.088   8.825   3.724
79466CL-    CL-39002   5.292  27.460   3.735
79467CL-    CL-39003  13.209   1.308   3.683
79468CL-    CL-39004  33.499  43.292   4.176
79469CL-    CL-39005   6.352  25.525   0.476
79470CL-    CL-39006  27.029   7.786   4.151
79471CL-    CL-39007  28.654  17.199  12.481
79472CL-    CL-39008  12.851   6.405  12.928
79473CL-    CL-39009  33.090   0.278  10.527
79474CL-    CL-39010  41.317  16.182  13.008
79475CL-    CL-39011  40.800  36.445   1.321
79476CL-    CL-39012  12.794   7.284  13.802
79477CL-    CL-39013  33.044  33.503   4.211
79478CL-    CL-39014  19.572  39.045   4.695
79479CL-    CL-39015  39.980  23.541  10.935
79480CL-    CL-39016  27.162  34.878   1.413
79481CL-    CL-39017   3.828   8.327  10.960
79482CL-    CL-39018  16.597  20.739  14.872
79483CL-    CL-39019  14.258  27.578  14.387
79484CL-    CL-39020  28.129  13.288   0.873
79485CL-    CL-39021  34.448  24.586   2.408
79486CL-    CL-39022  17.587  33.066  13.513
79487CL-    CL-39023  34.484  30.004   3.713
79488CL-    CL-39024  18.191  44.461  10.924
79489CL-    CL-39025  42.805  18.173  14.399
79490CL-    CL-39026  27.451   5.879  11.011
79491CL-    CL-39027   5.210  38.346   4.308
79492CL-    CL-39028  23.207  33.523   1.352
79493CL-    CL-39029   1.819  13.794   3.204
79494CL-    CL-39030  32.094  21.239  12.430
79495CL-    CL-39031  38.497  13.190   1.242
79496CL-    CL-39032   7.189  35.521  10.566
79497CL-    CL-39033  24.504  29.964  11.498
79498CL-    CL-39034  42.815  42.951   2.716
79499CL-    CL-39035  37.081  33.055  12.823
79500CL-    CL-39036  27.469  12.308   4.666
79501CL-    CL-39037   9.809  37.454  13.381
79502CL-    CL-39038  43.391  15.731   4.256
79503CL-    CL-39039  22.102  40.525   3.189
79504CL-    CL-39040  19.580  36.534   0.285
79505CL-    CL-39041  18.555   2.911  13.531
79506CL-    CL-39042  28.494  33.380   1.271
79507CL-    CL-39043   5.356  41.821   3.280
79508CL-    CL-39044  18.595  36.985   1.739
79509CL-    CL-39045  44.009   4.796   4.278
79510CL-    CL-39046  22.518  41.363  11.881
79511CL-    CL-39047  13.787  35.497   4.194
79512CL-    CL-39048  32.401   7.340   3.835
79513CL-    CL-39049  10.636  23.669  11.875
79514CL-    CL-39050  21.018  30.558  10.952
79515CL-    CL-39051  36.847  39.888  13.026
79516CL-    CL-39052  35.027  44.923  12.068
79517CL-    CL-39053  16.582  25.710   4.754
79518CL-    CL-39054  42.847  34.961   0.374
79519CL-    CL-39055  24.203  33.430  11.100
79520CL-    CL-39056  35.003  44.880  13.891
79521CL-    CL-39057  40.888   3.460  12.525
79522CL-    CL-39058  32.933   3.312   3.666
79523CL-    CL-39059  39.849  43.316  11.888
79524CL-    CL-39060  21.212  16.573   2.737
79525CL-    CL-39061  36.889   8.782   2.720
79526CL-    CL-39062  19.238  30.450   2.849
79527CL-    CL-39063  37.897  23.157  14.281
79528CL-    CL-39064  38.843  22.238   0.777
79529CL-    CL-39065   5.812  39.032   0.437
79530CL-    CL-39066  22.081  30.555  13.442
79531CL-    CL-39067   0.457  25.612   2.305
79532CL-    CL-39068   8.271   0.771  14.924
79533CL-    CL-39069  29.644  37.488   2.360
79534CL-    CL-39070  38.327   8.195  13.985
79535CL-    CL-39071  27.045   2.465  13.823
79536CL-    CL-39072  26.116  44.761  12.824
79537CL-    CL-39073  13.144   1.731   3.170
79538CL-    CL-39074  12.202   7.765   0.947
79539CL-    CL-39075  30.422  21.234   1.255
79540CL-    CL-39076  29.089  41.295  14.958
79541CL-    CL-39077   4.447   4.317  10.500
79542CL-    CL-39078  24.002  26.996   0.816
79543CL-    CL-39079  28.106   8.756   4.183
79544CL-    CL-39080  22.210  24.043   3.184
79545CL-    CL-39081  19.227  30.058  13.942
79546CL-    CL-39082  12.828   8.179  14.504
79547CL-    CL-39083  40.464  26.092  10.443
79548CL-    CL-39084   9.712   5.314   2.410
79549CL-    CL-39085  29.667  28.073   3.854
79550CL-    CL-39086   6.416  32.926  12.947
79551CL-    CL-39087  21.173  29.616   4.624
79552CL-    CL-39088  41.940  25.492  14.429
79553CL-    CL-39089  27.460  36.055  10.499
79554CL-    CL-39090  35.076  14.290   0.354
79555CL-    CL-39091   1.903  44.782  11.398
79556CL-    CL-39092  21.149   7.881   0.886
79557CL-    CL-39093  33.445  16.710   4.598
79558CL-    CL-39094  40.509  35.567   2.284
79559CL-    CL-39095   4.397  41.522  11.889
79560CL-    CL-39096  13.759   4.362   2.723
79561CL-    CL-39097  13.298  14.624  11.987
79562CL-    CL-39098   5.915  22.206   1.214
79563CL-    CL-39099  33.550  21.515   3.868
79564CL-    CL-39100  37.538  15.812  12.565
79565CL-    CL-39101  13.350  38.435   4.320
79566CL-    CL-39102  19.118  25.655   0.368
79567CL-    CL-39103  32.593  18.790  14.759
79568CL-    CL-39104   1.933  41.415   2.846
79569CL-    CL-39105  35.964   1.770  14.457
79570CL-    CL-39106  22.132  14.197  13.544
79571CL-    CL-39107  40.476   5.294   3.172
79572CL-    CL-39108  19.537  38.008  10.588
79573CL-    CL-39109   9.153   8.292  11.373
79574CL-    CL-39110   8.693  33.461   1.371
79575CL-    CL-39111   1.742  14.806   3.206
79576CL-    CL-39112  26.137   9.335  10.638
79577CL-    CL-39113  39.533  25.976  13.962
79578CL-    CL-39114  29.936  16.247   1.297
79579CL-    CL-39115   2.850  14.290  13.836
79580CL-    CL-39116  27.487   6.760   0.806
79581CL-    CL-39117  33.425  17.149  10.631
79582CL-    CL-39118   7.831  39.408  12.550
79583CL-    CL-39119  24.113  19.199   5.802
79584CL-    CL-39120  36.485  18.784  14.877
79585CL-    CL-39121   3.222  38.887   0.888
79586CL-    CL-39122  20.133  12.731   3.803
79587CL-    CL-39123  44.802  40.824   4.195
79588CL-    CL-39124   5.228  31.407   4.695
79589CL-    CL-39125  12.295  23.113  11.931
79590CL-    CL-39126  28.534  35.961  13.833
79591CL-    CL-39127  13.109  15.145   2.391
79592CL-    CL-39128  23.108  36.866  10.889
79593CL-    CL-39129  18.638   7.407   4.621
79594CL-    CL-39130  40.930  36.022   2.323
79595CL-    CL-39131  36.469  29.443   3.305
79596CL-    CL-39132  43.920  18.552   2.228
79597CL-    CL-39133   8.285  32.970  11.509
79598CL-    CL-39134  15.797  27.053  14.424
79599CL-    CL-39135  31.488  33.904  13.031
79600CL-    CL-39136  12.215  43.379   4.176
79601CL-    CL-39137  23.203  11.240  11.540
79602CL-    CL-39138  37.544   4.721  14.932
79603CL-    CL-39139   4.877  15.126  13.347
79604CL-    CL-39140  32.558  30.447   5.188
79605CL-    CL-39141  31.480   1.934   0.803
79606CL-    CL-39142   6.324  21.228   2.409
79607CL-    CL-39143  16.112  32.394  13.354
79608CL-    CL-39144  15.103  23.503  12.368
79609CL-    CL-39145  41.501  38.984  11.548
79610CL-    CL-39146  25.062  22.509  14.325
79611CL-    CL-39147  12.619  34.413  13.423
79612CL-    CL-39148   4.875   9.179  12.058
79613CL-    CL-39149  24.135   3.920  13.536
79614CL-    CL-39150  37.020  34.612   4.269
79615CL-    CL-39151  25.187  27.169  11.869
79616CL-    CL-39152  21.091  19.083  13.026
79617CL-    CL-39153  43.815  22.542   0.390
79618CL-    CL-39154  19.562   3.922  13.015
79619CL-    CL-39155  43.822  38.398  13.880
79620CL-    CL-39156   5.840   7.719   4.714
79621CL-    CL-39157  39.490   7.894   3.307
79622CL-    CL-39158  39.022   5.336   4.228
79623CL-    CL-39159  32.619  12.640   4.262
79624CL-    CL-39160   8.861  33.381   5.084
79625CL-    CL-39161  18.108  37.370  13.407
79626CL-    CL-39162  40.919   7.197  11.125
79627CL-    CL-39163   9.378  29.466   1.392
79628CL-    CL-39164  15.732   5.340  10.586
79629CL-    CL-39165  19.648  14.167  14.803
79630CL-    CL-39166  41.435  42.018   5.290
79631CL-    CL-39167   3.307  27.576   1.825
79632CL-    CL-39168   6.707  18.646  10.640
79633CL-    CL-39169  22.048  23.657   2.793
79634CL-    CL-39170  25.708  42.454   3.770
79635CL-    CL-39171   8.699  33.460  12.917
79636CL-    CL-39172  32.976   3.796   1.916
79637CL-    CL-39173   4.759  11.782   2.790
79638CL-    CL-39174  30.421   5.354  11.004
79639CL-    CL-39175  44.350  25.976   2.238
79640CL-    CL-39176   5.879  39.994  13.055
79641CL-    CL-39177  35.056   1.793   2.789
79642CL-    CL-39178  10.309  36.846   4.301
79643CL-    CL-39179   3.840  22.134  12.455
79644CL-    CL-39180   7.755  41.819   4.753
79645CL-    CL-39181   9.343  44.460  13.487
79646CL-    CL-39182   2.833  32.991  13.967
79647CL-    CL-39183  29.629  26.630   5.265
79648CL-    CL-39184   4.724  43.935   3.778
79649CL-    CL-39185  30.059  37.006   3.254
79650CL-    CL-39186   7.186   8.263  10.518
79651CL-    CL-39187   2.778  17.080   4.187
79652CL-    CL-39188  34.434  36.906   0.328
79653CL-    CL-39189   4.746   5.739   1.786
79654CL-    CL-39190  10.697  28.944   3.207
79655CL-    CL-39191  29.030  11.723   1.708
79656CL-    CL-39192   5.757  30.597  13.891
79657CL-    CL-39193  43.460  23.225   3.377
79658CL-    CL-39194  27.100  13.320  12.890
79659CL-    CL-39195  11.701  29.148   0.378
79660CL-    CL-39196  30.505  18.565  13.357
79661CL-    CL-39197  44.503  11.671   2.410
79662CL-    CL-39198  25.006  19.669  11.499
79663CL-    CL-39199  27.033   9.366  14.964
79664CL-    CL-39200   8.898   9.775   2.795
79665CL-    CL-39201   3.309   2.249  13.001
79666CL-    CL-39202  41.007  10.725   4.738
79667CL-    CL-39203  41.308   3.722  10.935
79668CL-    CL-39204  41.335  29.603  11.420
79669CL-    CL-39205  24.514  23.046  14.492
79670CL-    CL-39206  18.664  26.108   1.314
79671CL-    CL-39207  18.291  44.358   4.279
79672CL-    CL-39208  21.606  35.556   0.410
79673CL-    CL-39209  12.751  25.134   2.416
79674CL-    CL-39210  18.055  19.598  13.804
79675CL-    CL-39211   9.393  43.481   4.672
79676CL-    CL-39212  39.877  15.679  11.121
79677CL-    CL-39213  30.587  10.748   4.734
79678CL-    CL-39214  34.042  16.710   1.736
79679CL-    CL-39215  26.668   7.824   0.945
79680CL-    CL-39216  30.477   0.249  10.427
79681CL-    CL-39217  26.010   3.841  13.504
79682CL-    CL-39218  32.425  33.493  13.370
79683CL-    CL-39219  28.075  17.706  12.507
79684CL-    CL-39220  36.363   1.967  13.882
79685CL-    CL-39221   3.303  41.334  14.826
79686CL-    CL-39222  21.178   0.982  12.868
79687CL-    CL-39223   0.438  16.651  12.466
79688CL-    CL-39224  18.741   6.387  11.497
79689CL-    CL-39225   6.277  28.039   2.262
79690CL-    CL-39226  21.532   1.407  13.846
79691CL-    CL-39227   0.366   1.873   1.373
79692CL-    CL-39228  35.963  11.766   2.406
79693CL-    CL-39229  43.963  25.144   4.188
79694CL-    CL-39230  44.960  13.676  12.862
79695CL-    CL-39231  37.567  25.510   2.809
79696CL-    CL-39232  42.301   2.850  13.417
79697CL-    CL-39233   2.329  26.078  11.407
79698CL-    CL-39234  21.185  29.103   1.781
79699CL-    CL-39235  37.339  18.105   3.802
79700CL-    CL-39236  36.505  28.498   3.640
79701CL-    CL-39237  26.131  29.045  14.388
79702CL-    CL-39238  10.203  18.629   3.360
79703CL-    CL-39239  29.129   2.806  14.323
79704CL-    CL-39240  15.650  17.675   2.689
79705CL-    CL-39241  20.684   7.387  13.451
79706CL-    CL-39242  17.225  10.851   2.338
79707CL-    CL-39243  14.807  19.750  10.498
79708CL-    CL-39244  16.119  44.394   2.186
79709CL-    CL-39245  13.139  15.779  10.112
79710CL-    CL-39246  33.462  27.948   1.293
79711CL-    CL-39247   6.681  28.614   0.334
79712CL-    CL-39248  17.656  19.687   2.323
79713CL-    CL-39249  40.424  18.568   2.288
79714CL-    CL-39250  12.737  12.308  14.911
79715CL-    CL-39251  16.259  13.220   0.848
79716CL-    CL-39252  41.393  30.995   4.708
79717CL-    CL-39253  41.474  28.435   1.303
79718CL-    CL-39254  36.860  25.615  14.482
79719CL-    CL-39255   7.805  37.937   1.403
79720CL-    CL-39256  23.617  32.538  11.076
79721CL-    CL-39257  36.989   3.286   2.729
79722CL-    CL-39258  44.271  22.651  13.015
79723CL-    CL-39259  35.015  27.637  10.559
79724CL-    CL-39260  26.522  11.216  12.064
79725CL-    CL-39261  44.422  37.979  11.919
79726CL-    CL-39262   6.726  18.660   0.384
79727CL-    CL-39263  30.586   6.310   5.306
79728CL-    CL-39264  41.815  11.230  10.131
79729CL-    CL-39265  17.248   2.900  12.974
79730CL-    CL-39266   8.774  19.647   4.784
79731CL-    CL-39267  28.576  28.147  14.325
79732CL-    CL-39268  11.345  38.883  12.579
79733CL-    CL-39269   9.833  43.917  11.475
79734CL-    CL-39270  19.572  21.613   3.781
79735CL-    CL-39271  40.356  19.578  13.510
79736CL-    CL-39272  32.099  17.759  14.442
79737CL-    CL-39273  39.887  17.645  14.402
79738CL-    CL-39274  10.690  42.957   0.956
79739CL-    CL-39275  19.725  41.878   0.880
79740CL-    CL-39276   4.804   4.233  12.532
79741CL-    CL-39277  20.724   3.902  11.022
79742CL-    CL-39278  12.230  42.898   1.447
79743CL-    CL-39279  10.313   1.887   3.635
79744CL-    CL-39280  32.986  33.060  12.432
79745CL-    CL-39281  12.807  40.976  13.358
79746CL-    CL-39282   3.768  20.617  14.373
79747CL-    CL-39283  16.085  34.601   0.372
79748CL-    CL-39284  38.826  23.075  10.500
79749CL-    CL-39285  38.454  32.068   2.735
79750CL-    CL-39286  43.473  14.140   2.230
79751CL-    CL-39287  43.312  41.409   3.665
79752CL-    CL-39288  27.092   2.320  14.789
79753CL-    CL-39289  17.233  24.692   2.677
79754CL-    CL-39290  41.382   2.912  14.804
79755CL-    CL-39291   7.895  42.793   1.342
79756CL-    CL-39292  28.471  11.707  13.883
79757CL-    CL-39293  20.063  24.680  12.029
79758CL-    CL-39294  16.708  16.630  13.062
79759CL-    CL-39295  28.122  43.793   3.322
79760CL-    CL-39296  19.727  37.006   2.793
79761CL-    CL-39297  12.643   1.793   3.828
79762CL-    CL-39298  23.991  42.371  13.793
79763CL-    CL-39299  19.603   6.373   4.271
79764CL-    CL-39300  38.924   8.673  12.867
79765CL-    CL-39301  35.385  25.138  12.077
79766CL-    CL-39302   8.663  10.213  10.153
79767CL-    CL-39303  31.114   3.415   2.252
79768CL-    CL-39304   2.418  30.932   2.199
79769CL-    CL-39305  27.515  25.082   4.247
79770CL-    CL-39306  11.657  33.600  13.541
79771CL-    CL-39307  34.402  25.144   0.365
79772CL-    CL-39308  34.481  31.627   4.620
79773CL-    CL-39309  10.759  18.662  11.034
79774CL-    CL-39310  40.418  32.617  14.937
79775CL-    CL-39311  41.457  39.357  11.925
79776CL-    CL-39312  15.613  41.787  11.573
79777CL-    CL-39313  21.175  34.005  13.950
79778CL-    CL-39314  33.061  36.365  11.859
79779CL-    CL-39315  37.901  41.490   3.372
79780CL-    CL-39316   8.213  30.470   1.333
79781CL-    CL-39317  37.894  15.776   3.341
79782CL-    CL-39318   3.955  17.254   0.255
79783CL-    CL-39319   8.218  23.690   1.384
79784CL-    CL-39320  27.166   4.800  12.045
79785CL-    CL-39321  41.788  20.130  13.967
79786CL-    CL-39322  31.043  21.547  13.390
79787CL-    CL-39323  41.463  27.538   4.681
79788CL-    CL-39324   9.202  40.317  12.530
79789CL-    CL-39325   8.256   9.740  11.876
79790CL-    CL-39326   3.929  15.717   2.218
79791CL-    CL-39327  26.968   9.261   4.327
79792CL-    CL-39328  36.384   8.162  12.457
79793CL-    CL-39329  17.298   5.237   1.337
79794CL-    CL-39330  38.550  27.498   3.686
79795CL-    CL-39331  24.579  42.983  11.996
79796CL-    CL-39332  10.698  13.109  13.847
79797CL-    CL-39333   2.766  23.530   0.750
79798CL-    CL-39334   3.925  41.529  10.918
79799CL-    CL-39335  33.013  35.868  11.898
79800CL-    CL-39336   3.304  36.473  11.901
79801CL-    CL-39337  16.292  14.105  13.857
79802CL-    CL-39338  40.401  12.217   1.405
79803CL-    CL-39339  27.566  37.363  10.633
79804CL-    CL-39340   3.865  21.101   3.738
79805CL-    CL-39341  43.452  36.843   3.791
79806CL-    CL-39342  43.320   7.905  12.389
  45.00000  45.00000  15.00000   0.00000   0.00000   0.00000   0.00000   0.00000   0.00000

